<event>
 4    5  0.7289609E-008  0.1000036E+04  0.7818608E-02  0.9381511E-01
         -2   -1    0    0    0  501 -0.00000000000E+00  0.00000000000E+00  0.52610868240E+03  0.52610868241E+03  0.25500000000E-02 0.  1.
          2   -1    0    0  501    0  0.00000000000E+00 -0.00000000000E+00 -0.35217539184E+04  0.35217539184E+04  0.25500000000E-02 0. -1.
    8880023    1    1    2    0    0 -0.52575240699E+03 -0.53837364127E+03 -0.47292790045E+02  0.10011536272E+04  0.65864270000E+03 0.  1.
    8880022    1    1    2    0    0  0.52575240699E+03  0.53837364127E+03 -0.29483524459E+04  0.30467089735E+04  0.15294330000E+03 0.  0.
<mgrwt>
<rscale>  0 0.93613035E+03</rscale>
<asrwt>0</asrwt>
<pdfrwt beam="1">  1        2 0.54180828E+00 0.10000360E+04</pdfrwt>
<pdfrwt beam="2">  1       -2 0.80939799E-01 0.10000360E+04</pdfrwt>
<totfact> 0.10945741E+00</totfact>
</mgrwt>
</event>
<event>
 4    5  0.7289609E-008  0.9563499E+03  0.7818608E-02  0.9441036E-01
         -2   -1    0    0    0  501 -0.00000000000E+00  0.00000000000E+00  0.94608010221E+03  0.94608010221E+03  0.25500000000E-02 0.  1.
          2   -1    0    0  501    0  0.00000000000E+00 -0.00000000000E+00 -0.89913299638E+03  0.89913299638E+03  0.25500000000E-02 0. -1.
    8880023    1    1    2    0    0 -0.44231891790E+03  0.53399330443E+03  0.41839112129E+03  0.10438659928E+04  0.65864270000E+03 0.  0.
    8880022    1    1    2    0    0  0.44231891790E+03 -0.53399330443E+03 -0.37144401546E+03  0.80134710578E+03  0.15294330000E+03 0.  0.
<mgrwt>
<rscale>  0 0.88774147E+03</rscale>
<asrwt>0</asrwt>
<pdfrwt beam="1">  1        2 0.13832815E+00 0.95634987E+03</pdfrwt>
<pdfrwt beam="2">  1       -2 0.14555078E+00 0.95634987E+03</pdfrwt>
<totfact> 0.94829773E+00</totfact>
</mgrwt>
</event>
<event>
 4    5  0.7289609E-008  0.1058853E+04  0.7818608E-02  0.9308314E-01
         -2   -1    0    0    0  501 -0.00000000000E+00  0.00000000000E+00  0.26678309027E+04  0.26678309027E+04  0.25500000000E-02 0.  1.
          2   -1    0    0  501    0  0.00000000000E+00 -0.00000000000E+00 -0.95572762340E+03  0.95572762341E+03  0.25500000000E-02 0. -1.
    8880023    1    1    2    0    0  0.70216101759E+03 -0.44082707338E+03 -0.56161554251E+03  0.11985744979E+04  0.65864270000E+03 0.  0.
    8880022    1    1    2    0    0 -0.70216101759E+03  0.44082707338E+03  0.22737188218E+04  0.24249840282E+04  0.15294330000E+03 0.  0.
<mgrwt>
<rscale>  0 0.10002101E+04</rscale>
<asrwt>0</asrwt>
<pdfrwt beam="1">  1        2 0.14703502E+00 0.10588526E+04</pdfrwt>
<pdfrwt beam="2">  1       -2 0.41043552E+00 0.10588526E+04</pdfrwt>
<totfact> 0.17195599E-01</totfact>
</mgrwt>
</event>
<event>
 4    5  0.7289609E-008  0.6681306E+03  0.7818608E-02  0.1017040E+00
         -2   -1    0    0    0  501 -0.00000000000E+00  0.00000000000E+00  0.51971480331E+03  0.51971480332E+03  0.25500000000E-02 0.  1.
          2   -1    0    0  501    0  0.00000000000E+00 -0.00000000000E+00 -0.76370881579E+03  0.76370881579E+03  0.25500000000E-02 0. -1.
    8880023    1    1    2    0    0 -0.12758941023E+02  0.11146995532E+03  0.28129843821E+03  0.72493265833E+03  0.65864270000E+03 0.  1.
    8880022    1    1    2    0    0  0.12758941023E+02 -0.11146995532E+03 -0.52529245068E+03  0.55849096078E+03  0.15294330000E+03 0.  0.
<mgrwt>
<rscale>  0 0.48770103E+03</rscale>
<asrwt>0</asrwt>
<pdfrwt beam="1">  1        2 0.11749366E+00 0.66813064E+03</pdfrwt>
<pdfrwt beam="2">  1       -2 0.79956123E-01 0.66813064E+03</pdfrwt>
<totfact> 0.51709430E+01</totfact>
</mgrwt>
</event>
<event>
 4    5  0.7289609E-008  0.7919304E+03  0.7818608E-02  0.9728524E-01
         -2   -1    0    0    0  501 -0.00000000000E+00  0.00000000000E+00  0.59615458410E+03  0.59615458411E+03  0.25500000000E-02 0.  1.
          2   -1    0    0  501    0  0.00000000000E+00 -0.00000000000E+00 -0.37002517249E+04  0.37002517249E+04  0.25500000000E-02 0. -1.
    8880023    1    1    2    0    0 -0.19982098755E+03 -0.39168247982E+03  0.31019981841E+03  0.85051615250E+03  0.65864270000E+03 0.  1.
    8880022    1    1    2    0    0  0.19982098755E+03  0.39168247982E+03 -0.34142969592E+04  0.34458901565E+04  0.15294330000E+03 0.  0.
<mgrwt>
<rscale>  0 0.69343613E+03</rscale>
<asrwt>0</asrwt>
<pdfrwt beam="1">  1        2 0.56926948E+00 0.79193043E+03</pdfrwt>
<pdfrwt beam="2">  1       -2 0.91716092E-01 0.79193043E+03</pdfrwt>
<totfact> 0.64160265E-01</totfact>
</mgrwt>
</event>
<event>
 4    5  0.7289609E-008  0.7786232E+03  0.7818608E-02  0.9759081E-01
          2   -1    0    0  501    0  0.00000000000E+00  0.00000000000E+00  0.18111713080E+04  0.18111713080E+04  0.25500000000E-02 0. -1.
         -2   -1    0    0    0  501 -0.00000000000E+00 -0.00000000000E+00 -0.34712941060E+03  0.34712941061E+03  0.25500000000E-02 0.  1.
    8880023    1    1    2    0    0  0.34339591045E+03 -0.23350199597E+03  0.17863795722E+03  0.79885271450E+03  0.65864270000E+03 0.  0.
    8880022    1    1    2    0    0 -0.34339591045E+03  0.23350199597E+03  0.12854039402E+04  0.13594480041E+04  0.15294330000E+03 0.  0.
<mgrwt>
<rscale>  0 0.67605491E+03</rscale>
<asrwt>0</asrwt>
<pdfrwt beam="1">  1        2 0.27864174E+00 0.77862323E+03</pdfrwt>
<pdfrwt beam="2">  1       -2 0.53404524E-01 0.77862323E+03</pdfrwt>
<totfact> 0.28825638E+01</totfact>
</mgrwt>
</event>
<event>
 4    5  0.7289609E-008  0.6682270E+03  0.7818608E-02  0.1016967E+00
          2   -1    0    0  501    0  0.00000000000E+00  0.00000000000E+00  0.12299572540E+04  0.12299572540E+04  0.25500000000E-02 0. -1.
         -2   -1    0    0    0  501 -0.00000000000E+00 -0.00000000000E+00 -0.26056171234E+03  0.26056171235E+03  0.25500000000E-02 0.  1.
    8880023    1    1    2    0    0  0.93263206347E+02 -0.63395905086E+02  0.19928419464E+03  0.69731016265E+03  0.65864270000E+03 0.  1.
    8880022    1    1    2    0    0 -0.93263206347E+02  0.63395905086E+02  0.77011134706E+03  0.79320880373E+03  0.15294330000E+03 0.  0.
<mgrwt>
<rscale>  0 0.48797156E+03</rscale>
<asrwt>0</asrwt>
<pdfrwt beam="1">  1        2 0.18922419E+00 0.66822696E+03</pdfrwt>
<pdfrwt beam="2">  1       -2 0.40086417E-01 0.66822696E+03</pdfrwt>
<totfact> 0.10940927E+02</totfact>
</mgrwt>
</event>
<event>
 4    5  0.7289609E-008  0.6751175E+03  0.7818608E-02  0.1012232E+00
         -2   -1    0    0    0  501 -0.00000000000E+00  0.00000000000E+00  0.14245995944E+04  0.14245995944E+04  0.25500000000E-02 0.  1.
          2   -1    0    0  501    0  0.00000000000E+00 -0.00000000000E+00 -0.14742546631E+04  0.14742546631E+04  0.25500000000E-02 0. -1.
    8880023    1    1    2    0    0  0.10537939860E+03 -0.10425289738E+03  0.13360187064E+04  0.14969067020E+04  0.65864270000E+03 0.  1.
    8880022    1    1    2    0    0 -0.10537939860E+03  0.10425289738E+03 -0.13856737751E+04  0.14019475555E+04  0.15294330000E+03 0.  0.
<mgrwt>
<rscale>  0 0.50597006E+03</rscale>
<asrwt>0</asrwt>
<pdfrwt beam="1">  1        2 0.22680841E+00 0.67511754E+03</pdfrwt>
<pdfrwt beam="2">  1       -2 0.21916917E+00 0.67511754E+03</pdfrwt>
<totfact> 0.13797438E+00</totfact>
</mgrwt>
</event>
<event>
 4    5  0.7289609E-008  0.9803754E+03  0.7818608E-02  0.9407695E-01
         -2   -1    0    0    0  501 -0.00000000000E+00  0.00000000000E+00  0.92405297315E+03  0.92405297315E+03  0.25500000000E-02 0.  1.
          2   -1    0    0  501    0  0.00000000000E+00 -0.00000000000E+00 -0.22941394625E+04  0.22941394625E+04  0.25500000000E-02 0. -1.
    8880023    1    1    2    0    0  0.47365220954E+03 -0.55043563302E+03  0.57485468246E+03  0.11364831340E+04  0.65864270000E+03 0.  0.
    8880022    1    1    2    0    0 -0.47365220954E+03  0.55043563302E+03 -0.19449411718E+04  0.20817093016E+04  0.15294330000E+03 0.  0.
<mgrwt>
<rscale>  0 0.91445097E+03</rscale>
<asrwt>0</asrwt>
<pdfrwt beam="1">  1        2 0.35294453E+00 0.98037544E+03</pdfrwt>
<pdfrwt beam="2">  1       -2 0.14216200E+00 0.98037544E+03</pdfrwt>
<totfact> 0.15848366E+00</totfact>
</mgrwt>
</event>
<event>
 4    5  0.7289609E-008  0.1818289E+04  0.7818608E-02  0.8712487E-01
          2   -1    0    0  501    0  0.00000000000E+00  0.00000000000E+00  0.25599625503E+04  0.25599625503E+04  0.25500000000E-02 0. -1.
         -2   -1    0    0    0  501 -0.00000000000E+00 -0.00000000000E+00 -0.20251600368E+04  0.20251600368E+04  0.25500000000E-02 0.  1.
    8880023    1    1    2    0    0 -0.70638766112E+02 -0.16933321459E+04 -0.11813224458E+04  0.21683395764E+04  0.65864270000E+03 0.  0.
    8880022    1    1    2    0    0  0.70638766112E+02  0.16933321459E+04  0.17161249594E+04  0.24167830107E+04  0.15294330000E+03 0.  0.
<mgrwt>
<rscale>  0 0.17884111E+04</rscale>
<asrwt>0</asrwt>
<pdfrwt beam="1">  1        2 0.39384039E+00 0.18182887E+04</pdfrwt>
<pdfrwt beam="2">  1       -2 0.31156308E+00 0.18182887E+04</pdfrwt>
<totfact> 0.78261594E-02</totfact>
</mgrwt>
</event>
<event>
 4    5  0.7289609E-008  0.1028278E+04  0.7818608E-02  0.9345462E-01
          2   -1    0    0  501    0  0.00000000000E+00  0.00000000000E+00  0.93742517901E+03  0.93742517901E+03  0.25500000000E-02 0. -1.
         -2   -1    0    0    0  501 -0.00000000000E+00 -0.00000000000E+00 -0.10268467844E+04  0.10268467844E+04  0.25500000000E-02 0.  1.
    8880023    1    1    2    0    0 -0.20772055223E+03 -0.76183826656E+03 -0.39823820670E+03  0.11027008877E+04  0.65864270000E+03 0.  0.
    8880022    1    1    2    0    0  0.20772055223E+03  0.76183826656E+03  0.30881660132E+03  0.86157107570E+03  0.15294330000E+03 0.  0.
<mgrwt>
<rscale>  0 0.96703156E+03</rscale>
<asrwt>0</asrwt>
<pdfrwt beam="1">  1        2 0.14421926E+00 0.10282780E+04</pdfrwt>
<pdfrwt beam="2">  1       -2 0.15797643E+00 0.10282780E+04</pdfrwt>
<totfact> 0.71352091E+00</totfact>
</mgrwt>
</event>
<event>
 4    5  0.7289609E-008  0.8102985E+03  0.7818608E-02  0.9688955E-01
          2   -1    0    0  501    0  0.00000000000E+00  0.00000000000E+00  0.26372347797E+04  0.26372347797E+04  0.25500000000E-02 0. -1.
         -2   -1    0    0    0  501 -0.00000000000E+00 -0.00000000000E+00 -0.10222736325E+04  0.10222736325E+04  0.25500000000E-02 0.  1.
    8880023    1    1    2    0    0  0.15716528840E+03  0.44505338428E+03 -0.83280863338E+03  0.11619612166E+04  0.65864270000E+03 0.  1.
    8880022    1    1    2    0    0 -0.15716528840E+03 -0.44505338428E+03  0.24477697806E+04  0.24975471957E+04  0.15294330000E+03 0.  0.
<mgrwt>
<rscale>  0 0.71678199E+03</rscale>
<asrwt>0</asrwt>
<pdfrwt beam="1">  1        2 0.40572842E+00 0.81029849E+03</pdfrwt>
<pdfrwt beam="2">  1       -2 0.15727287E+00 0.81029849E+03</pdfrwt>
<totfact> 0.79724707E-01</totfact>
</mgrwt>
</event>
<event>
 4    5  0.7289609E-008  0.8143962E+03  0.7818608E-02  0.9680492E-01
          2   -1    0    0  501    0  0.00000000000E+00  0.00000000000E+00  0.99451598750E+03  0.99451598751E+03  0.25500000000E-02 0. -1.
         -2   -1    0    0    0  501 -0.00000000000E+00 -0.00000000000E+00 -0.13806630189E+04  0.13806630189E+04  0.25500000000E-02 0.  1.
    8880023    1    1    2    0    0 -0.45352260956E+03 -0.15410432907E+03 -0.11810395993E+04  0.14346064419E+04  0.65864270000E+03 0.  1.
    8880022    1    1    2    0    0  0.45352260956E+03  0.15410432907E+03  0.79489256793E+03  0.94057256455E+03  0.15294330000E+03 0.  0.
<mgrwt>
<rscale>  0 0.72190287E+03</rscale>
<asrwt>0</asrwt>
<pdfrwt beam="1">  1        2 0.15300246E+00 0.81439616E+03</pdfrwt>
<pdfrwt beam="2">  1       -2 0.21240970E+00 0.81439616E+03</pdfrwt>
<totfact> 0.28523815E+00</totfact>
</mgrwt>
</event>
<event>
 4    5  0.7289609E-008  0.6654171E+03  0.7818608E-02  0.1019186E+00
         -2   -1    0    0    0  501 -0.00000000000E+00  0.00000000000E+00  0.69068472573E+03  0.69068472574E+03  0.25500000000E-02 0.  1.
          2   -1    0    0  501    0  0.00000000000E+00 -0.00000000000E+00 -0.20626322609E+04  0.20626322609E+04  0.25500000000E-02 0. -1.
    8880023    1    1    2    0    0 -0.63435500984E+02  0.70324979969E+02  0.52516781752E+03  0.84769163521E+03  0.65864270000E+03 0.  1.
    8880022    1    1    2    0    0  0.63435500984E+02 -0.70324979969E+02 -0.18971153527E+04  0.19056253514E+04  0.15294330000E+03 0.  0.
<mgrwt>
<rscale>  0 0.47981490E+03</rscale>
<asrwt>0</asrwt>
<pdfrwt beam="1">  1        2 0.31732804E+00 0.66541707E+03</pdfrwt>
<pdfrwt beam="2">  1       -2 0.10625919E+00 0.66541707E+03</pdfrwt>
<totfact> 0.46402454E+00</totfact>
</mgrwt>
</event>
<event>
 4    5  0.7289609E-008  0.9332869E+03  0.7818608E-02  0.9474580E-01
         -2   -1    0    0    0  501 -0.00000000000E+00  0.00000000000E+00  0.33707378805E+03  0.33707378806E+03  0.25500000000E-02 0.  1.
          2   -1    0    0  501    0  0.00000000000E+00 -0.00000000000E+00 -0.41565251023E+04  0.41565251023E+04  0.25500000000E-02 0. -1.
    8880023    1    1    2    0    0  0.58198325783E+03 -0.31386268118E+03 -0.41367262142E+03  0.10208572569E+04  0.65864270000E+03 0.  1.
    8880022    1    1    2    0    0 -0.58198325783E+03  0.31386268118E+03 -0.34057786928E+04  0.34727416334E+04  0.15294330000E+03 0.  0.
<mgrwt>
<rscale>  0 0.86184186E+03</rscale>
<asrwt>0</asrwt>
<pdfrwt beam="1">  1        2 0.63946537E+00 0.93328693E+03</pdfrwt>
<pdfrwt beam="2">  1       -2 0.51857509E-01 0.93328693E+03</pdfrwt>
<totfact> 0.95683931E-01</totfact>
</mgrwt>
</event>
<event>
 4    5  0.7289609E-008  0.1245786E+04  0.7818608E-02  0.9113851E-01
         -2   -1    0    0    0  501 -0.00000000000E+00  0.00000000000E+00  0.57722025352E+03  0.57722025353E+03  0.25500000000E-02 0.  1.
          2   -1    0    0  501    0  0.00000000000E+00 -0.00000000000E+00 -0.31104763835E+04  0.31104763835E+04  0.25500000000E-02 0. -1.
    8880023    1    1    2    0    0  0.10573801725E+04  0.10922032493E+02 -0.41129121694E+03  0.13119233176E+04  0.65864270000E+03 0.  1.
    8880022    1    1    2    0    0 -0.10573801725E+04 -0.10922032493E+02 -0.21219649130E+04  0.23757733194E+04  0.15294330000E+03 0.  0.
<mgrwt>
<rscale>  0 0.11988644E+04</rscale>
<asrwt>0</asrwt>
<pdfrwt beam="1">  1        2 0.47853482E+00 0.12457858E+04</pdfrwt>
<pdfrwt beam="2">  1       -2 0.88803118E-01 0.12457858E+04</pdfrwt>
<totfact> 0.15960481E+00</totfact>
</mgrwt>
</event>
<event>
 4    5  0.7289609E-008  0.7804771E+03  0.7818608E-02  0.9754717E-01
         -2   -1    0    0    0  501 -0.00000000000E+00  0.00000000000E+00  0.49513889619E+03  0.49513889620E+03  0.25500000000E-02 0.  1.
          2   -1    0    0  501    0  0.00000000000E+00 -0.00000000000E+00 -0.23734332490E+04  0.23734332490E+04  0.25500000000E-02 0. -1.
    8880023    1    1    2    0    0  0.11867766340E+03  0.40155939326E+03  0.14751384035E+03  0.79429520549E+03  0.65864270000E+03 0.  1.
    8880022    1    1    2    0    0 -0.11867766340E+03 -0.40155939326E+03 -0.20258081932E+04  0.20742769397E+04  0.15294330000E+03 0.  0.
<mgrwt>
<rscale>  0 0.67850330E+03</rscale>
<asrwt>0</asrwt>
<pdfrwt beam="1">  1        2 0.36514357E+00 0.78047712E+03</pdfrwt>
<pdfrwt beam="2">  1       -2 0.76175216E-01 0.78047712E+03</pdfrwt>
<totfact> 0.66081291E+00</totfact>
</mgrwt>
</event>
<event>
 4    5  0.7289609E-008  0.7325273E+03  0.7818608E-02  0.9882275E-01
         -2   -1    0    0    0  501 -0.00000000000E+00  0.00000000000E+00  0.41037229971E+03  0.41037229972E+03  0.25500000000E-02 0.  1.
          2   -1    0    0  501    0  0.00000000000E+00 -0.00000000000E+00 -0.45457019397E+04  0.45457019397E+04  0.25500000000E-02 0. -1.
    8880023    1    1    2    0    0  0.12239019263E+03 -0.29632188846E+03  0.69912852615E+02  0.73585598731E+03  0.65864270000E+03 0.  1.
    8880022    1    1    2    0    0 -0.12239019263E+03  0.29632188846E+03 -0.42052424926E+04  0.42202182521E+04  0.15294330000E+03 0.  0.
<mgrwt>
<rscale>  0 0.61128068E+03</rscale>
<asrwt>0</asrwt>
<pdfrwt beam="1">  1        2 0.69933872E+00 0.73252729E+03</pdfrwt>
<pdfrwt beam="2">  1       -2 0.63134203E-01 0.73252729E+03</pdfrwt>
<totfact> 0.29710806E-01</totfact>
</mgrwt>
</event>
<event>
 4    5  0.8440037E-008  0.1038459E+04  0.7818608E-02  0.9332886E-01
         -2   -1    0    0    0  501 -0.00000000000E+00  0.00000000000E+00  0.17508318763E+04  0.17508318763E+04  0.25500000000E-02 0.  1.
          2   -1    0    0  501    0  0.00000000000E+00 -0.00000000000E+00 -0.20609557696E+04  0.20609557696E+04  0.25500000000E-02 0. -1.
    8880023    1    1    2    0    0 -0.68404912494E+03  0.42031291575E+03  0.15007585963E+04  0.18250130747E+04  0.65864270000E+03 0.  0.
    8880022    1    1    2    0    0  0.68404912494E+03 -0.42031291575E+03 -0.18108824896E+04  0.19867745711E+04  0.15294330000E+03 0.  0.
<mgrwt>
<rscale>  0 0.97810878E+03</rscale>
<asrwt>0</asrwt>
<pdfrwt beam="1">  1        2 0.31707012E+00 0.10384586E+04</pdfrwt>
<pdfrwt beam="2">  1       -2 0.26935875E+00 0.10384586E+04</pdfrwt>
<totfact> 0.30213023E-01</totfact>
</mgrwt>
</event>
<event>
 4    5  0.7289609E-008  0.1126106E+04  0.7818608E-02  0.9232532E-01
         -2   -1    0    0    0  501 -0.00000000000E+00  0.00000000000E+00  0.59470279086E+03  0.59470279087E+03  0.25500000000E-02 0.  1.
          2   -1    0    0  501    0  0.00000000000E+00 -0.00000000000E+00 -0.22021115431E+04  0.22021115431E+04  0.25500000000E-02 0. -1.
    8880023    1    1    2    0    0  0.91157875557E+03  0.57691850234E+02 -0.24992341367E+03  0.11535060018E+04  0.65864270000E+03 0.  0.
    8880022    1    1    2    0    0 -0.91157875557E+03 -0.57691850234E+02 -0.13574853386E+04  0.16433083322E+04  0.15294330000E+03 0.  0.
<mgrwt>
<rscale>  0 0.10723858E+04</rscale>
<asrwt>0</asrwt>
<pdfrwt beam="1">  1        2 0.33878639E+00 0.11261058E+04</pdfrwt>
<pdfrwt beam="2">  1       -2 0.91492738E-01 0.11261058E+04</pdfrwt>
<totfact> 0.51832626E+00</totfact>
</mgrwt>
</event>
<event>
 4    5  0.7289609E-008  0.9217236E+03  0.7818608E-02  0.9492021E-01
          2   -1    0    0  501    0  0.00000000000E+00  0.00000000000E+00  0.12869068381E+04  0.12869068381E+04  0.25500000000E-02 0. -1.
         -2   -1    0    0    0  501 -0.00000000000E+00 -0.00000000000E+00 -0.48957742618E+03  0.48957742619E+03  0.25500000000E-02 0.  1.
    8880023    1    1    2    0    0 -0.63800189102E+03 -0.93369455865E+02  0.40893965211E+03  0.10083680447E+04  0.65864270000E+03 0.  0.
    8880022    1    1    2    0    0  0.63800189102E+03  0.93369455865E+02  0.38838975976E+03  0.76811621955E+03  0.15294330000E+03 0.  0.
<mgrwt>
<rscale>  0 0.84874629E+03</rscale>
<asrwt>0</asrwt>
<pdfrwt beam="1">  1        2 0.19798567E+00 0.92172364E+03</pdfrwt>
<pdfrwt beam="2">  1       -2 0.75319605E-01 0.92172364E+03</pdfrwt>
<totfact> 0.26695483E+01</totfact>
</mgrwt>
</event>
<event>
 4    5  0.7289609E-008  0.9789074E+03  0.7818608E-02  0.9409689E-01
          2   -1    0    0  501    0  0.00000000000E+00  0.00000000000E+00  0.26307484521E+04  0.26307484521E+04  0.25500000000E-02 0. -1.
         -2   -1    0    0    0  501 -0.00000000000E+00 -0.00000000000E+00 -0.32930497843E+03  0.32930497844E+03  0.25500000000E-02 0.  1.
    8880023    1    1    2    0    0  0.32250006248E+03 -0.64841591001E+03  0.18501483683E+04  0.20931575845E+04  0.65864270000E+03 0.  0.
    8880022    1    1    2    0    0 -0.32250006248E+03  0.64841591001E+03  0.45129510533E+03  0.86689584597E+03  0.15294330000E+03 0.  0.
<mgrwt>
<rscale>  0 0.91282607E+03</rscale>
<asrwt>0</asrwt>
<pdfrwt beam="1">  1        2 0.40473053E+00 0.97890740E+03</pdfrwt>
<pdfrwt beam="2">  1       -2 0.50662304E-01 0.97890740E+03</pdfrwt>
<totfact> 0.10940194E+01</totfact>
</mgrwt>
</event>
<event>
 4    5  0.7289609E-008  0.1037323E+04  0.7818608E-02  0.9334279E-01
          2   -1    0    0  501    0  0.00000000000E+00  0.00000000000E+00  0.22118106657E+04  0.22118106657E+04  0.25500000000E-02 0. -1.
         -2   -1    0    0    0  501 -0.00000000000E+00 -0.00000000000E+00 -0.88383875699E+03  0.88383875699E+03  0.25500000000E-02 0.  1.
    8880023    1    1    2    0    0  0.17426172330E+03  0.78221521545E+03 -0.45664554605E+03  0.11333857033E+04  0.65864270000E+03 0.  1.
    8880022    1    1    2    0    0 -0.17426172330E+03 -0.78221521545E+03  0.17846174547E+04  0.19622637194E+04  0.15294330000E+03 0.  0.
<mgrwt>
<rscale>  0 0.97687412E+03</rscale>
<asrwt>0</asrwt>
<pdfrwt beam="1">  1        2 0.34027856E+00 0.10373225E+04</pdfrwt>
<pdfrwt beam="2">  1       -2 0.13597520E+00 0.10373225E+04</pdfrwt>
<totfact> 0.19618469E+00</totfact>
</mgrwt>
</event>
<event>
 4    5  0.7289609E-008  0.1345110E+04  0.7818608E-02  0.9027552E-01
          2   -1    0    0  501    0  0.00000000000E+00  0.00000000000E+00  0.40188243866E+04  0.40188243866E+04  0.25500000000E-02 0. -1.
         -2   -1    0    0    0  501 -0.00000000000E+00 -0.00000000000E+00 -0.52182777723E+03  0.52182777724E+03  0.25500000000E-02 0.  1.
    8880023    1    1    2    0    0 -0.11719130000E+04  0.46146559404E+02  0.72765395235E+03  0.15293135928E+04  0.65864270000E+03 0.  0.
    8880022    1    1    2    0    0  0.11719130000E+04 -0.46146559404E+02  0.27693426570E+04  0.30113385711E+04  0.15294330000E+03 0.  0.
<mgrwt>
<rscale>  0 0.13025417E+04</rscale>
<asrwt>0</asrwt>
<pdfrwt beam="1">  1        2 0.61828069E+00 0.13451096E+04</pdfrwt>
<pdfrwt beam="2">  1       -2 0.80281195E-01 0.13451096E+04</pdfrwt>
<totfact> 0.45077227E-01</totfact>
</mgrwt>
</event>
<event>
 4    5  0.7289609E-008  0.1102566E+04  0.7818608E-02  0.9258205E-01
         -2   -1    0    0    0  501 -0.00000000000E+00  0.00000000000E+00  0.20962204409E+04  0.20962204409E+04  0.25500000000E-02 0.  1.
          2   -1    0    0  501    0  0.00000000000E+00 -0.00000000000E+00 -0.12388869505E+04  0.12388869505E+04  0.25500000000E-02 0. -1.
    8880023    1    1    2    0    0  0.80388208422E+03  0.36825933667E+03  0.17506461721E+04  0.20689160376E+04  0.65864270000E+03 0.  1.
    8880022    1    1    2    0    0 -0.80388208422E+03 -0.36825933667E+03 -0.89331268169E+03  0.12661913539E+04  0.15294330000E+03 0.  0.
<mgrwt>
<rscale>  0 0.10472337E+04</rscale>
<asrwt>0</asrwt>
<pdfrwt beam="1">  1        2 0.19059799E+00 0.11025659E+04</pdfrwt>
<pdfrwt beam="2">  1       -2 0.32249545E+00 0.11025659E+04</pdfrwt>
<totfact> 0.41156973E-01</totfact>
</mgrwt>
</event>
<event>
 4    5  0.7289609E-008  0.6595789E+03  0.7818608E-02  0.1024592E+00
         -2   -1    0    0    0  501 -0.00000000000E+00  0.00000000000E+00  0.74016494002E+03  0.74016494003E+03  0.25500000000E-02 0.  1.
          2   -1    0    0  501    0  0.00000000000E+00 -0.00000000000E+00 -0.75738039176E+03  0.75738039177E+03  0.25500000000E-02 0. -1.
    8880023    1    1    2    0    0  0.19174455472E+02  0.29436736840E+02  0.58106743391E+03  0.87902431720E+03  0.65864270000E+03 0.  1.
    8880022    1    1    2    0    0 -0.19174455472E+02 -0.29436736840E+02 -0.59828288565E+03  0.61852101459E+03  0.15294330000E+03 0.  0.
<mgrwt>
<rscale>  0 0.46065306E+03</rscale>
<asrwt>0</asrwt>
<pdfrwt beam="1">  1        2 0.11652006E+00 0.65957895E+03</pdfrwt>
<pdfrwt beam="2">  1       -2 0.11387153E+00 0.65957895E+03</pdfrwt>
<totfact> 0.22883896E+01</totfact>
</mgrwt>
</event>
<event>
 4    5  0.7289609E-008  0.6726827E+03  0.7818608E-02  0.1013809E+00
         -2   -1    0    0    0  501 -0.00000000000E+00  0.00000000000E+00  0.92887046569E+02  0.92887046604E+02  0.25500000000E-02 0.  1.
          2   -1    0    0  501    0  0.00000000000E+00 -0.00000000000E+00 -0.30356013861E+04  0.30356013861E+04  0.25500000000E-02 0. -1.
    8880023    1    1    2    0    0 -0.11059156617E+03  0.80382036672E+02 -0.12162567746E+04  0.13898857919E+04  0.65864270000E+03 0.  1.
    8880022    1    1    2    0    0  0.11059156617E+03 -0.80382036672E+02 -0.17264575648E+04  0.17386026408E+04  0.15294330000E+03 0.  0.
<mgrwt>
<rscale>  0 0.49988667E+03</rscale>
<asrwt>0</asrwt>
<pdfrwt beam="1">  1        2 0.46701552E+00 0.67268267E+03</pdfrwt>
<pdfrwt beam="2">  1       -2 0.14290317E-01 0.67268267E+03</pdfrwt>
<totfact> 0.67183745E+01</totfact>
</mgrwt>
</event>
<event>
 4    5  0.7289609E-008  0.1471141E+04  0.7818608E-02  0.8930288E-01
          2   -1    0    0  501    0  0.00000000000E+00  0.00000000000E+00  0.17586147886E+04  0.17586147886E+04  0.25500000000E-02 0. -1.
         -2   -1    0    0    0  501 -0.00000000000E+00 -0.00000000000E+00 -0.14156638792E+04  0.14156638792E+04  0.25500000000E-02 0.  1.
    8880023    1    1    2    0    0  0.12675219675E+04 -0.35189983818E+03  0.91414153603E+03  0.17320249387E+04  0.65864270000E+03 0.  0.
    8880022    1    1    2    0    0 -0.12675219675E+04  0.35189983818E+03 -0.57119062658E+03  0.14422537291E+04  0.15294330000E+03 0.  0.
<mgrwt>
<rscale>  0 0.14329775E+04</rscale>
<asrwt>0</asrwt>
<pdfrwt beam="1">  1        2 0.27055612E+00 0.14711409E+04</pdfrwt>
<pdfrwt beam="2">  1       -2 0.21779444E+00 0.14711409E+04</pdfrwt>
<totfact> 0.87483389E-01</totfact>
</mgrwt>
</event>
<event>
 4    5  0.7289609E-008  0.6800302E+03  0.7818608E-02  0.1009307E+00
          2   -1    0    0  501    0  0.00000000000E+00  0.00000000000E+00  0.39802983603E+03  0.39802983604E+03  0.25500000000E-02 0. -1.
         -2   -1    0    0    0  501 -0.00000000000E+00 -0.00000000000E+00 -0.13576068924E+04  0.13576068924E+04  0.25500000000E-02 0.  1.
    8880023    1    1    2    0    0  0.13208561207E+03 -0.10575575118E+03 -0.12278031751E+04  0.14035461271E+04  0.65864270000E+03 0.  1.
    8880022    1    1    2    0    0 -0.13208561207E+03  0.10575575118E+03  0.26822611869E+03  0.35209060139E+03  0.15294330000E+03 0.  0.
<mgrwt>
<rscale>  0 0.51751162E+03</rscale>
<asrwt>0</asrwt>
<pdfrwt beam="1">  1        2 0.61235360E-01 0.68003022E+03</pdfrwt>
<pdfrwt beam="2">  1       -2 0.20886260E+00 0.68003022E+03</pdfrwt>
<totfact> 0.95724821E+00</totfact>
</mgrwt>
</event>
<event>
 4    5  0.7289609E-008  0.2048434E+04  0.7818608E-02  0.8596289E-01
         -2   -1    0    0    0  501 -0.00000000000E+00  0.00000000000E+00  0.12437287274E+04  0.12437287274E+04  0.25500000000E-02 0.  1.
          2   -1    0    0  501    0  0.00000000000E+00 -0.00000000000E+00 -0.32253597214E+04  0.32253597214E+04  0.25500000000E-02 0. -1.
    8880023    1    1    2    0    0  0.16362483467E+03  0.19327438825E+04 -0.84613616640E+03  0.22163096850E+04  0.65864270000E+03 0.  0.
    8880022    1    1    2    0    0 -0.16362483467E+03 -0.19327438825E+04 -0.11354948277E+04  0.22527787637E+04  0.15294330000E+03 0.  0.
<mgrwt>
<rscale>  0 0.20222472E+04</rscale>
<asrwt>0</asrwt>
<pdfrwt beam="1">  1        2 0.49620918E+00 0.20484341E+04</pdfrwt>
<pdfrwt beam="2">  1       -2 0.19134288E+00 0.20484341E+04</pdfrwt>
<totfact> 0.16883899E-01</totfact>
</mgrwt>
</event>
<event>
 4    5  0.7289609E-008  0.7681734E+03  0.7818608E-02  0.9784389E-01
         -2   -1    0    0    0  501 -0.00000000000E+00  0.00000000000E+00  0.62271428180E+03  0.62271428180E+03  0.25500000000E-02 0.  1.
          2   -1    0    0  501    0  0.00000000000E+00 -0.00000000000E+00 -0.63017842599E+03  0.63017842599E+03  0.25500000000E-02 0. -1.
    8880023    1    1    2    0    0 -0.26713773081E+03  0.29140624835E+03  0.18068040222E+03  0.78913609904E+03  0.65864270000E+03 0. -1.
    8880022    1    1    2    0    0  0.26713773081E+03 -0.29140624835E+03 -0.18814454641E+03  0.46375660875E+03  0.15294330000E+03 0.  0.
<mgrwt>
<rscale>  0 0.66207082E+03</rscale>
<asrwt>0</asrwt>
<pdfrwt beam="1">  1        2 0.96950527E-01 0.76817340E+03</pdfrwt>
<pdfrwt beam="2">  1       -2 0.95802197E-01 0.76817340E+03</pdfrwt>
<totfact> 0.43168479E+01</totfact>
</mgrwt>
</event>
<event>
 4    5  0.7289609E-008  0.7949417E+03  0.7818608E-02  0.9721842E-01
         -2   -1    0    0    0  501 -0.00000000000E+00  0.00000000000E+00  0.95080789551E+03  0.95080789551E+03  0.25500000000E-02 0.  1.
          2   -1    0    0  501    0  0.00000000000E+00 -0.00000000000E+00 -0.10744278185E+04  0.10744278185E+04  0.25500000000E-02 0. -1.
    8880023    1    1    2    0    0 -0.86944245246E+02  0.43653494593E+03  0.71135352643E+03  0.10667502550E+04  0.65864270000E+03 0.  1.
    8880022    1    1    2    0    0  0.86944245246E+02 -0.43653494593E+03 -0.83497344941E+03  0.95848545896E+03  0.15294330000E+03 0.  0.
<mgrwt>
<rscale>  0 0.69731102E+03</rscale>
<asrwt>0</asrwt>
<pdfrwt beam="1">  1        2 0.16529659E+00 0.79494168E+03</pdfrwt>
<pdfrwt beam="2">  1       -2 0.14627814E+00 0.79494168E+03</pdfrwt>
<totfact> 0.73332120E+00</totfact>
</mgrwt>
</event>
<event>
 4    5  0.7289609E-008  0.1881231E+04  0.7818608E-02  0.8678885E-01
         -2   -1    0    0    0  501 -0.00000000000E+00  0.00000000000E+00  0.23987207068E+04  0.23987207068E+04  0.25500000000E-02 0.  1.
          2   -1    0    0  501    0  0.00000000000E+00 -0.00000000000E+00 -0.21183527003E+04  0.21183527003E+04  0.25500000000E-02 0. -1.
    8880023    1    1    2    0    0  0.12799232190E+04 -0.12112038180E+04 -0.11822610153E+04  0.22218842116E+04  0.65864270000E+03 0.  0.
    8880022    1    1    2    0    0 -0.12799232190E+04  0.12112038180E+04  0.14626290217E+04  0.22951891956E+04  0.15294330000E+03 0.  0.
<mgrwt>
<rscale>  0 0.18524668E+04</rscale>
<asrwt>0</asrwt>
<pdfrwt beam="1">  1        2 0.32590042E+00 0.18812305E+04</pdfrwt>
<pdfrwt beam="2">  1       -2 0.36903395E+00 0.18812305E+04</pdfrwt>
<totfact> 0.60640775E-02</totfact>
</mgrwt>
</event>
<event>
 4    5  0.7289609E-008  0.8573267E+03  0.7818608E-02  0.9598337E-01
         -2   -1    0    0    0  501 -0.00000000000E+00  0.00000000000E+00  0.31842090517E+03  0.31842090518E+03  0.25500000000E-02 0.  1.
          2   -1    0    0  501    0  0.00000000000E+00 -0.00000000000E+00 -0.32505246690E+04  0.32505246690E+04  0.25500000000E-02 0. -1.
    8880023    1    1    2    0    0 -0.25436345051E+03 -0.48631066398E+03 -0.35214711263E+03  0.92683149604E+03  0.65864270000E+03 0.  0.
    8880022    1    1    2    0    0  0.25436345051E+03  0.48631066398E+03 -0.25799566512E+04  0.26421140782E+04  0.15294330000E+03 0.  0.
<mgrwt>
<rscale>  0 0.77406374E+03</rscale>
<asrwt>0</asrwt>
<pdfrwt beam="1">  1        2 0.50008070E+00 0.85732668E+03</pdfrwt>
<pdfrwt beam="2">  1       -2 0.48987834E-01 0.85732668E+03</pdfrwt>
<totfact> 0.49930502E+00</totfact>
</mgrwt>
</event>
<event>
 4    5  0.7289609E-008  0.1402951E+04  0.7818608E-02  0.8981393E-01
         -2   -1    0    0    0  501 -0.00000000000E+00  0.00000000000E+00  0.14043108987E+04  0.14043108987E+04  0.25500000000E-02 0.  1.
          2   -1    0    0  501    0  0.00000000000E+00 -0.00000000000E+00 -0.44190935985E+04  0.44190935985E+04  0.25500000000E-02 0. -1.
    8880023    1    1    2    0    0  0.10050208483E+04 -0.72415111351E+03  0.93177284812E+03  0.16841830624E+04  0.65864270000E+03 0.  0.
    8880022    1    1    2    0    0 -0.10050208483E+04  0.72415111351E+03 -0.39465555480E+04  0.41392214349E+04  0.15294330000E+03 0. -1.
<mgrwt>
<rscale>  0 0.13625352E+04</rscale>
<asrwt>0</asrwt>
<pdfrwt beam="1">  1        2 0.67986055E+00 0.14029512E+04</pdfrwt>
<pdfrwt beam="2">  1       -2 0.21604783E+00 0.14029512E+04</pdfrwt>
<totfact> 0.15107472E-02</totfact>
</mgrwt>
</event>
<event>
 4    5  0.7289609E-008  0.1569334E+04  0.7818608E-02  0.8862167E-01
         -2   -1    0    0    0  501 -0.00000000000E+00  0.00000000000E+00  0.11586175127E+04  0.11586175127E+04  0.25500000000E-02 0.  1.
          2   -1    0    0  501    0  0.00000000000E+00 -0.00000000000E+00 -0.43772717274E+04  0.43772717274E+04  0.25500000000E-02 0. -1.
    8880023    1    1    2    0    0  0.25705876315E+03  0.14010423889E+04  0.42067380129E+03  0.16247386364E+04  0.65864270000E+03 0.  0.
    8880022    1    1    2    0    0 -0.25705876315E+03 -0.14010423889E+04 -0.36393280161E+04  0.39111506037E+04  0.15294330000E+03 0.  0.
<mgrwt>
<rscale>  0 0.15339777E+04</rscale>
<asrwt>0</asrwt>
<pdfrwt beam="1">  1        2 0.67342641E+00 0.15693340E+04</pdfrwt>
<pdfrwt beam="2">  1       -2 0.17824885E+00 0.15693340E+04</pdfrwt>
<totfact> 0.28697724E-02</totfact>
</mgrwt>
</event>
<event>
 4    5  0.7289609E-008  0.6696516E+03  0.7818608E-02  0.1015914E+00
         -2   -1    0    0    0  501 -0.00000000000E+00  0.00000000000E+00  0.54247944445E+03  0.54247944445E+03  0.25500000000E-02 0.  1.
          2   -1    0    0  501    0  0.00000000000E+00 -0.00000000000E+00 -0.79674020432E+03  0.79674020432E+03  0.25500000000E-02 0. -1.
    8880023    1    1    2    0    0 -0.64100582194E+02  0.10253857107E+03  0.31314352462E+03  0.73925105104E+03  0.65864270000E+03 0.  0.
    8880022    1    1    2    0    0  0.64100582194E+02 -0.10253857107E+03 -0.56740428449E+03  0.59996859773E+03  0.15294330000E+03 0.  0.
<mgrwt>
<rscale>  0 0.49190430E+03</rscale>
<asrwt>0</asrwt>
<pdfrwt beam="1">  1        2 0.12257542E+00 0.66965159E+03</pdfrwt>
<pdfrwt beam="2">  1       -2 0.83458376E-01 0.66965159E+03</pdfrwt>
<totfact> 0.44410038E+01</totfact>
</mgrwt>
</event>
<event>
 4    5  0.7289609E-008  0.7293733E+03  0.7818608E-02  0.9892059E-01
          2   -1    0    0  501    0  0.00000000000E+00  0.00000000000E+00  0.10341899693E+04  0.10341899693E+04  0.25500000000E-02 0. -1.
         -2   -1    0    0    0  501 -0.00000000000E+00 -0.00000000000E+00 -0.69447696070E+03  0.69447696070E+03  0.25500000000E-02 0.  1.
    8880023    1    1    2    0    0 -0.29432533618E+03  0.10746079321E+03 -0.45581351678E+03  0.86008801523E+03  0.65864270000E+03 0.  1.
    8880022    1    1    2    0    0  0.29432533618E+03 -0.10746079321E+03  0.79552652542E+03  0.86857891481E+03  0.15294330000E+03 0.  0.
<mgrwt>
<rscale>  0 0.60647697E+03</rscale>
<asrwt>0</asrwt>
<pdfrwt beam="1">  1        2 0.15910615E+00 0.72937331E+03</pdfrwt>
<pdfrwt beam="2">  1       -2 0.10684261E+00 0.72937331E+03</pdfrwt>
<totfact> 0.17213031E+01</totfact>
</mgrwt>
</event>
<event>
 4    5  0.8161003E-008  0.1126793E+04  0.7818608E-02  0.9231795E-01
         -2   -1    0    0    0  501 -0.00000000000E+00  0.00000000000E+00  0.13896987779E+04  0.13896987779E+04  0.25500000000E-02 0.  1.
          2   -1    0    0  501    0  0.00000000000E+00 -0.00000000000E+00 -0.19808006323E+04  0.19808006323E+04  0.25500000000E-02 0. -1.
    8880023    1    1    2    0    0  0.91210769703E+03 -0.62551395558E+02  0.10147126467E+04  0.15163459664E+04  0.65864270000E+03 0.  1.
    8880022    1    1    2    0    0 -0.91210769703E+03  0.62551395558E+02 -0.16058145011E+04  0.18541534438E+04  0.15294330000E+03 0.  0.
<mgrwt>
<rscale>  0 0.10731189E+04</rscale>
<asrwt>0</asrwt>
<pdfrwt beam="1">  1        2 0.30473856E+00 0.11267934E+04</pdfrwt>
<pdfrwt beam="2">  1       -2 0.21379981E+00 0.11267934E+04</pdfrwt>
<totfact> 0.72710515E-01</totfact>
</mgrwt>
</event>
<event>
 4    5  0.7289609E-008  0.1012597E+04  0.7818608E-02  0.9365260E-01
         -2   -1    0    0    0  501 -0.00000000000E+00  0.00000000000E+00  0.72725035718E+03  0.72725035718E+03  0.25500000000E-02 0.  1.
          2   -1    0    0  501    0  0.00000000000E+00 -0.00000000000E+00 -0.12570853676E+04  0.12570853676E+04  0.25500000000E-02 0. -1.
    8880023    1    1    2    0    0  0.73901192788E+03  0.21307966603E+03 -0.63183605473E+03  0.11935529230E+04  0.65864270000E+03 0. -1.
    8880022    1    1    2    0    0 -0.73901192788E+03 -0.21307966603E+03  0.10200104429E+03  0.79078280183E+03  0.15294330000E+03 0.  1.
<mgrwt>
<rscale>  0 0.94990643E+03</rscale>
<asrwt>0</asrwt>
<pdfrwt beam="1">  1        2 0.19339775E+00 0.10125966E+04</pdfrwt>
<pdfrwt beam="2">  1       -2 0.11188467E+00 0.10125966E+04</pdfrwt>
<totfact> 0.10959058E+01</totfact>
</mgrwt>
</event>
<event>
 4    5  0.7289609E-008  0.8718745E+03  0.7818608E-02  0.9572780E-01
         -2   -1    0    0    0  501 -0.00000000000E+00  0.00000000000E+00  0.77723586985E+03  0.77723586986E+03  0.25500000000E-02 0.  1.
          2   -1    0    0  501    0  0.00000000000E+00 -0.00000000000E+00 -0.13301409040E+04  0.13301409040E+04  0.25500000000E-02 0. -1.
    8880023    1    1    2    0    0 -0.54032960570E+03  0.18546929321E+03  0.42082714030E+03  0.96812221842E+03  0.65864270000E+03 0.  0.
    8880022    1    1    2    0    0  0.54032960570E+03 -0.18546929321E+03 -0.97373217441E+03  0.11392545554E+04  0.15294330000E+03 0.  0.
<mgrwt>
<rscale>  0 0.79124262E+03</rscale>
<asrwt>0</asrwt>
<pdfrwt beam="1">  1        2 0.20463706E+00 0.87187450E+03</pdfrwt>
<pdfrwt beam="2">  1       -2 0.11957475E+00 0.87187450E+03</pdfrwt>
<totfact> 0.85622523E+00</totfact>
</mgrwt>
</event>
<event>
 4    5  0.7289609E-008  0.8270830E+03  0.7818608E-02  0.9655035E-01
          2   -1    0    0  501    0  0.00000000000E+00  0.00000000000E+00  0.18268435455E+04  0.18268435455E+04  0.25500000000E-02 0. -1.
         -2   -1    0    0    0  501 -0.00000000000E+00 -0.00000000000E+00 -0.25336691092E+03  0.25336691093E+03  0.25500000000E-02 0.  1.
    8880023    1    1    2    0    0  0.46990357313E+03 -0.17160056776E+03  0.83553890934E+03  0.11756664485E+04  0.65864270000E+03 0.  0.
    8880022    1    1    2    0    0 -0.46990357313E+03  0.17160056776E+03  0.73793772519E+03  0.90454400786E+03  0.15294330000E+03 0.  0.
<mgrwt>
<rscale>  0 0.73758287E+03</rscale>
<asrwt>0</asrwt>
<pdfrwt beam="1">  1        2 0.28105284E+00 0.82708302E+03</pdfrwt>
<pdfrwt beam="2">  1       -2 0.38979526E-01 0.82708302E+03</pdfrwt>
<totfact> 0.52802215E+01</totfact>
</mgrwt>
</event>
<event>
 4    5  0.7289609E-008  0.9526263E+03  0.7818608E-02  0.9446345E-01
         -2   -1    0    0    0  501 -0.00000000000E+00  0.00000000000E+00  0.73903183437E+03  0.73903183437E+03  0.25500000000E-02 0.  1.
          2   -1    0    0  501    0  0.00000000000E+00 -0.00000000000E+00 -0.12983255272E+04  0.12983255272E+04  0.25500000000E-02 0. -1.
    8880023    1    1    2    0    0  0.46976970225E+02 -0.68664393156E+03  0.22900865539E+03  0.97976624508E+03  0.65864270000E+03 0.  0.
    8880022    1    1    2    0    0 -0.46976970225E+02  0.68664393156E+03 -0.78830234825E+03  0.10575911165E+04  0.15294330000E+03 0.  0.
<mgrwt>
<rscale>  0 0.88357831E+03</rscale>
<asrwt>0</asrwt>
<pdfrwt beam="1">  1        2 0.19974239E+00 0.95262633E+03</pdfrwt>
<pdfrwt beam="2">  1       -2 0.11369721E+00 0.95262633E+03</pdfrwt>
<totfact> 0.10025556E+01</totfact>
</mgrwt>
</event>
<event>
 4    5  0.7289609E-008  0.1366118E+04  0.7818608E-02  0.9010467E-01
         -2   -1    0    0    0  501 -0.00000000000E+00  0.00000000000E+00  0.10605912668E+04  0.10605912668E+04  0.25500000000E-02 0.  1.
          2   -1    0    0  501    0  0.00000000000E+00 -0.00000000000E+00 -0.23301419950E+04  0.23301419950E+04  0.25500000000E-02 0. -1.
    8880023    1    1    2    0    0 -0.88968486922E+03 -0.80058084202E+03  0.31217482715E+03  0.14013322875E+04  0.65864270000E+03 0.  0.
    8880022    1    1    2    0    0  0.88968486922E+03  0.80058084202E+03 -0.15817255553E+04  0.19894009743E+04  0.15294330000E+03 0.  0.
<mgrwt>
<rscale>  0 0.13243604E+04</rscale>
<asrwt>0</asrwt>
<pdfrwt beam="1">  1        2 0.35848338E+00 0.13661182E+04</pdfrwt>
<pdfrwt beam="2">  1       -2 0.16316789E+00 0.13661182E+04</pdfrwt>
<totfact> 0.99482173E-01</totfact>
</mgrwt>
</event>
<event>
 4    5  0.7289609E-008  0.1278970E+04  0.7818608E-02  0.9083937E-01
          2   -1    0    0  501    0  0.00000000000E+00  0.00000000000E+00  0.45315371346E+04  0.45315371346E+04  0.25500000000E-02 0. -1.
         -2   -1    0    0    0  501 -0.00000000000E+00 -0.00000000000E+00 -0.62040562228E+03  0.62040562228E+03  0.25500000000E-02 0.  1.
    8880023    1    1    2    0    0  0.82355325549E+03  0.72368069695E+03  0.21918102367E+03  0.12976148285E+04  0.65864270000E+03 0.  1.
    8880022    1    1    2    0    0 -0.82355325549E+03 -0.72368069695E+03  0.36919504886E+04  0.38543279283E+04  0.15294330000E+03 0.  0.
<mgrwt>
<rscale>  0 0.12336091E+04</rscale>
<asrwt>0</asrwt>
<pdfrwt beam="1">  1        2 0.69715955E+00 0.12789699E+04</pdfrwt>
<pdfrwt beam="2">  1       -2 0.95447020E-01 0.12789699E+04</pdfrwt>
<totfact> 0.10742178E-01</totfact>
</mgrwt>
</event>
<event>
 4    5  0.7289609E-008  0.9393839E+03  0.7818608E-02  0.9465556E-01
          2   -1    0    0  501    0  0.00000000000E+00  0.00000000000E+00  0.17094226829E+04  0.17094226829E+04  0.25500000000E-02 0. -1.
         -2   -1    0    0    0  501 -0.00000000000E+00 -0.00000000000E+00 -0.59501652090E+03  0.59501652091E+03  0.25500000000E-02 0.  1.
    8880023    1    1    2    0    0  0.61879874853E+03  0.25635924233E+03 -0.62728156230E+02  0.94147595835E+03  0.65864270000E+03 0.  0.
    8880022    1    1    2    0    0 -0.61879874853E+03 -0.25635924233E+03  0.11771343182E+04  0.13629632454E+04  0.15294330000E+03 0.  0.
<mgrwt>
<rscale>  0 0.86871597E+03</rscale>
<asrwt>0</asrwt>
<pdfrwt beam="1">  1        2 0.26298810E+00 0.93938393E+03</pdfrwt>
<pdfrwt beam="2">  1       -2 0.91541005E-01 0.93938393E+03</pdfrwt>
<totfact> 0.98893746E+00</totfact>
</mgrwt>
</event>
<event>
 4    5  0.7289609E-008  0.7165324E+03  0.7818608E-02  0.9934499E-01
          2   -1    0    0  501    0  0.00000000000E+00  0.00000000000E+00  0.12102559678E+04  0.12102559678E+04  0.25500000000E-02 0. -1.
         -2   -1    0    0    0  501 -0.00000000000E+00 -0.00000000000E+00 -0.34187966776E+03  0.34187966777E+03  0.25500000000E-02 0.  1.
    8880023    1    1    2    0    0 -0.21020659123E+03  0.18820626471E+03  0.10518723984E+03  0.72421196535E+03  0.65864270000E+03 0.  1.
    8880022    1    1    2    0    0  0.21020659123E+03 -0.18820626471E+03  0.76318906022E+03  0.82792367023E+03  0.15294330000E+03 0.  0.
<mgrwt>
<rscale>  0 0.58618073E+03</rscale>
<asrwt>0</asrwt>
<pdfrwt beam="1">  1        2 0.18619322E+00 0.71653235E+03</pdfrwt>
<pdfrwt beam="2">  1       -2 0.52596873E-01 0.71653235E+03</pdfrwt>
<totfact> 0.64978217E+01</totfact>
</mgrwt>
</event>
<event>
 4    5  0.7289609E-008  0.6907129E+03  0.7818608E-02  0.1003816E+00
         -2   -1    0    0    0  501 -0.00000000000E+00  0.00000000000E+00  0.13333950892E+04  0.13333950892E+04  0.25500000000E-02 0.  1.
          2   -1    0    0  501    0  0.00000000000E+00 -0.00000000000E+00 -0.64451065588E+03  0.64451065589E+03  0.25500000000E-02 0. -1.
    8880023    1    1    2    0    0  0.20657167734E+03 -0.24539666195E+02  0.12117387797E+04  0.13947742217E+04  0.65864270000E+03 0.  1.
    8880022    1    1    2    0    0 -0.20657167734E+03  0.24539666195E+02 -0.52285434634E+03  0.58313152341E+03  0.15294330000E+03 0.  0.
<mgrwt>
<rscale>  0 0.54008357E+03</rscale>
<asrwt>0</asrwt>
<pdfrwt beam="1">  1        2 0.99155486E-01 0.69071286E+03</pdfrwt>
<pdfrwt beam="2">  1       -2 0.20513771E+00 0.69071286E+03</pdfrwt>
<totfact> 0.57572373E+00</totfact>
</mgrwt>
</event>
<event>
 4    5  0.7289609E-008  0.9283827E+03  0.7818608E-02  0.9481924E-01
         -2   -1    0    0    0  501 -0.00000000000E+00  0.00000000000E+00  0.77111524396E+03  0.77111524397E+03  0.25500000000E-02 0.  1.
          2   -1    0    0  501    0  0.00000000000E+00 -0.00000000000E+00 -0.95804120257E+03  0.95804120257E+03  0.25500000000E-02 0. -1.
    8880023    1    1    2    0    0 -0.65323917257E+03  0.36915356186E+02  0.20574935261E+03  0.95090859838E+03  0.65864270000E+03 0.  0.
    8880022    1    1    2    0    0  0.65323917257E+03 -0.36915356186E+02 -0.39267531122E+03  0.77824784816E+03  0.15294330000E+03 0.  0.
<mgrwt>
<rscale>  0 0.85629730E+03</rscale>
<asrwt>0</asrwt>
<pdfrwt beam="1">  1        2 0.14739095E+00 0.92838266E+03</pdfrwt>
<pdfrwt beam="2">  1       -2 0.11863311E+00 0.92838266E+03</pdfrwt>
<totfact> 0.14635565E+01</totfact>
</mgrwt>
</event>
<event>
 4    5  0.7289609E-008  0.2061616E+04  0.7818608E-02  0.8590149E-01
          2   -1    0    0  501    0  0.00000000000E+00  0.00000000000E+00  0.28356670857E+04  0.28356670857E+04  0.25500000000E-02 0. -1.
         -2   -1    0    0    0  501 -0.00000000000E+00 -0.00000000000E+00 -0.19738472569E+04  0.19738472569E+04  0.25500000000E-02 0.  1.
    8880023    1    1    2    0    0 -0.13841004176E+04 -0.13786650951E+04  0.17059143009E+04  0.26758933497E+04  0.65864270000E+03 0.  0.
    8880022    1    1    2    0    0  0.13841004176E+04  0.13786650951E+04 -0.84409447205E+03  0.21336209929E+04  0.15294330000E+03 0.  0.
<mgrwt>
<rscale>  0 0.20356123E+04</rscale>
<asrwt>0</asrwt>
<pdfrwt beam="1">  1        2 0.43625647E+00 0.20616163E+04</pdfrwt>
<pdfrwt beam="2">  1       -2 0.30366881E+00 0.20616163E+04</pdfrwt>
<totfact> 0.58376210E-02</totfact>
</mgrwt>
</event>
<event>
 4    5  0.7289609E-008  0.1502258E+04  0.7818608E-02  0.8908043E-01
         -2   -1    0    0    0  501 -0.00000000000E+00  0.00000000000E+00  0.26903265100E+04  0.26903265100E+04  0.25500000000E-02 0.  1.
          2   -1    0    0  501    0  0.00000000000E+00 -0.00000000000E+00 -0.11116348068E+04  0.11116348068E+04  0.25500000000E-02 0. -1.
    8880023    1    1    2    0    0 -0.12597606375E+04 -0.48576857145E+03 -0.25080929753E+03  0.15230507145E+04  0.65864270000E+03 0. -1.
    8880022    1    1    2    0    0  0.12597606375E+04  0.48576857145E+03  0.18295010007E+04  0.22789106024E+04  0.15294330000E+03 0.  0.
<mgrwt>
<rscale>  0 0.14650345E+04</rscale>
<asrwt>0</asrwt>
<pdfrwt beam="1">  1        2 0.17102074E+00 0.15022577E+04</pdfrwt>
<pdfrwt beam="2">  1       -2 0.41389638E+00 0.15022577E+04</pdfrwt>
<totfact> 0.12211783E-01</totfact>
</mgrwt>
</event>
<event>
 4    5  0.7289609E-008  0.8455194E+03  0.7818608E-02  0.9619859E-01
         -2   -1    0    0    0  501 -0.00000000000E+00  0.00000000000E+00  0.17941057779E+04  0.17941057779E+04  0.25500000000E-02 0.  1.
          2   -1    0    0  501    0  0.00000000000E+00 -0.00000000000E+00 -0.41105270360E+03  0.41105270361E+03  0.25500000000E-02 0. -1.
    8880023    1    1    2    0    0 -0.63694672982E+02  0.52634199301E+03  0.14194124882E+04  0.16521606831E+04  0.65864270000E+03 0.  0.
    8880022    1    1    2    0    0  0.63694672982E+02 -0.52634199301E+03 -0.36359413944E+02  0.55299779834E+03  0.15294330000E+03 0.  0.
<mgrwt>
<rscale>  0 0.75995584E+03</rscale>
<asrwt>0</asrwt>
<pdfrwt beam="1">  1        2 0.63238877E-01 0.84551943E+03</pdfrwt>
<pdfrwt beam="2">  1       -2 0.27601627E+00 0.84551943E+03</pdfrwt>
<totfact> 0.35094340E+00</totfact>
</mgrwt>
</event>
<event>
 4    5  0.7289609E-008  0.9891890E+03  0.7818608E-02  0.9395840E-01
          2   -1    0    0  501    0  0.00000000000E+00  0.00000000000E+00  0.60705245283E+03  0.60705245284E+03  0.25500000000E-02 0. -1.
         -2   -1    0    0    0  501 -0.00000000000E+00 -0.00000000000E+00 -0.15160495682E+04  0.15160495682E+04  0.25500000000E-02 0.  1.
    8880023    1    1    2    0    0  0.41174007039E+03 -0.61249874270E+03 -0.94567555789E+03  0.13685017583E+04  0.65864270000E+03 0.  1.
    8880022    1    1    2    0    0 -0.41174007039E+03  0.61249874270E+03  0.36678442525E+02  0.75460026275E+03  0.15294330000E+03 0.  0.
<mgrwt>
<rscale>  0 0.92418789E+03</rscale>
<asrwt>0</asrwt>
<pdfrwt beam="1">  1        2 0.93392686E-01 0.98918896E+03</pdfrwt>
<pdfrwt beam="2">  1       -2 0.23323839E+00 0.98918896E+03</pdfrwt>
<totfact> 0.39827498E+00</totfact>
</mgrwt>
</event>
<event>
 4    5  0.7289609E-008  0.1125094E+04  0.7818608E-02  0.9233619E-01
          2   -1    0    0  501    0  0.00000000000E+00  0.00000000000E+00  0.25369429494E+04  0.25369429494E+04  0.25500000000E-02 0. -1.
         -2   -1    0    0    0  501 -0.00000000000E+00 -0.00000000000E+00 -0.99554836567E+03  0.99554836567E+03  0.25500000000E-02 0.  1.
    8880023    1    1    2    0    0  0.85960617815E+03  0.30512741459E+03 -0.54510521563E+03  0.12501901547E+04  0.65864270000E+03 0.  0.
    8880022    1    1    2    0    0 -0.85960617815E+03 -0.30512741459E+03  0.20864997993E+04  0.22823011603E+04  0.15294330000E+03 0.  0.
<mgrwt>
<rscale>  0 0.10713065E+04</rscale>
<asrwt>0</asrwt>
<pdfrwt beam="1">  1        2 0.39029892E+00 0.11250937E+04</pdfrwt>
<pdfrwt beam="2">  1       -2 0.15316129E+00 0.11250937E+04</pdfrwt>
<totfact> 0.92770865E-01</totfact>
</mgrwt>
</event>
<event>
 4    5  0.7289609E-008  0.1046289E+04  0.7818608E-02  0.9323356E-01
         -2   -1    0    0    0  501 -0.00000000000E+00  0.00000000000E+00  0.26935629958E+03  0.26935629959E+03  0.25500000000E-02 0.  1.
          2   -1    0    0  501    0  0.00000000000E+00 -0.00000000000E+00 -0.35637314593E+04  0.35637314593E+04  0.25500000000E-02 0. -1.
    8880023    1    1    2    0    0 -0.68592696128E+03  0.43636491318E+03 -0.12652543608E+04  0.16418248803E+04  0.65864270000E+03 0.  1.
    8880022    1    1    2    0    0  0.68592696128E+03 -0.43636491318E+03 -0.20291207989E+04  0.21912628786E+04  0.15294330000E+03 0.  0.
<mgrwt>
<rscale>  0 0.98660805E+03</rscale>
<asrwt>0</asrwt>
<pdfrwt beam="1">  1        2 0.54826634E+00 0.10462888E+04</pdfrwt>
<pdfrwt beam="2">  1       -2 0.41439433E-01 0.10462888E+04</pdfrwt>
<totfact> 0.41720356E+00</totfact>
</mgrwt>
</event>
<event>
 4    5  0.7289609E-008  0.7030331E+03  0.7818608E-02  0.9984844E-01
         -2   -1    0    0    0  501 -0.00000000000E+00  0.00000000000E+00  0.40084553794E+03  0.40084553795E+03  0.25500000000E-02 0.  1.
          2   -1    0    0  501    0  0.00000000000E+00 -0.00000000000E+00 -0.20729118060E+04  0.20729118060E+04  0.25500000000E-02 0. -1.
    8880023    1    1    2    0    0 -0.26910378741E+02 -0.24437914294E+03  0.71181060579E+02  0.70662740085E+03  0.65864270000E+03 0.  1.
    8880022    1    1    2    0    0  0.26910378741E+02  0.24437914294E+03 -0.17432473287E+04  0.17671299431E+04  0.15294330000E+03 0.  0.
<mgrwt>
<rscale>  0 0.56319824E+03</rscale>
<asrwt>0</asrwt>
<pdfrwt beam="1">  1        2 0.31890950E+00 0.70303310E+03</pdfrwt>
<pdfrwt beam="2">  1       -2 0.61668545E-01 0.70303310E+03</pdfrwt>
<totfact> 0.15516485E+01</totfact>
</mgrwt>
</event>
<event>
 4    5  0.7289609E-008  0.8133544E+03  0.7818608E-02  0.9682632E-01
          2   -1    0    0  501    0  0.00000000000E+00  0.00000000000E+00  0.36495876931E+03  0.36495876932E+03  0.25500000000E-02 0. -1.
         -2   -1    0    0    0  501 -0.00000000000E+00 -0.00000000000E+00 -0.12709541480E+04  0.12709541480E+04  0.25500000000E-02 0.  1.
    8880023    1    1    2    0    0 -0.19390334126E+03  0.43604666897E+03 -0.76193615306E+03  0.11144918622E+04  0.65864270000E+03 0.  0.
    8880022    1    1    2    0    0  0.19390334126E+03 -0.43604666897E+03 -0.14405922566E+03  0.52142105518E+03  0.15294330000E+03 0.  0.
<mgrwt>
<rscale>  0 0.72060375E+03</rscale>
<asrwt>0</asrwt>
<pdfrwt beam="1">  1        2 0.56147504E-01 0.81335442E+03</pdfrwt>
<pdfrwt beam="2">  1       -2 0.19553141E+00 0.81335442E+03</pdfrwt>
<totfact> 0.12697561E+01</totfact>
</mgrwt>
</event>
<event>
 4    5  0.7289609E-008  0.7825921E+03  0.7818608E-02  0.9749783E-01
         -2   -1    0    0    0  501 -0.00000000000E+00  0.00000000000E+00  0.45868187034E+03  0.45868187034E+03  0.25500000000E-02 0.  1.
          2   -1    0    0  501    0  0.00000000000E+00 -0.00000000000E+00 -0.84949378883E+03  0.84949378883E+03  0.25500000000E-02 0. -1.
    8880023    1    1    2    0    0  0.15703620770E+03 -0.39240269506E+03 -0.14513468099E+03  0.79593625845E+03  0.65864270000E+03 0.  0.
    8880022    1    1    2    0    0 -0.15703620770E+03  0.39240269506E+03 -0.24567723750E+03  0.51223940073E+03  0.15294330000E+03 0.  0.
<mgrwt>
<rscale>  0 0.68128543E+03</rscale>
<asrwt>0</asrwt>
<pdfrwt beam="1">  1        2 0.13069135E+00 0.78259214E+03</pdfrwt>
<pdfrwt beam="2">  1       -2 0.70566442E-01 0.78259214E+03</pdfrwt>
<totfact> 0.58671752E+01</totfact>
</mgrwt>
</event>
<event>
 4    5  0.7289609E-008  0.6950827E+03  0.7818608E-02  0.1001825E+00
          2   -1    0    0  501    0  0.00000000000E+00  0.00000000000E+00  0.52039067803E+03  0.52039067804E+03  0.25500000000E-02 0. -1.
         -2   -1    0    0    0  501 -0.00000000000E+00 -0.00000000000E+00 -0.69303438676E+03  0.69303438676E+03  0.25500000000E-02 0.  1.
    8880023    1    1    2    0    0  0.13491860142E+03 -0.17642782424E+03 -0.44884661223E+03  0.82740757414E+03  0.65864270000E+03 0.  1.
    8880022    1    1    2    0    0 -0.13491860142E+03  0.17642782424E+03  0.27620290350E+03  0.38601749066E+03  0.15294330000E+03 0.  0.
<mgrwt>
<rscale>  0 0.54857398E+03</rscale>
<asrwt>0</asrwt>
<pdfrwt beam="1">  1        2 0.80060104E-01 0.69508274E+03</pdfrwt>
<pdfrwt beam="2">  1       -2 0.10662068E+00 0.69508274E+03</pdfrwt>
<totfact> 0.42306872E+01</totfact>
</mgrwt>
</event>
<event>
 4    5  0.7289609E-008  0.1550183E+04  0.7818608E-02  0.8874989E-01
          2   -1    0    0  501    0  0.00000000000E+00  0.00000000000E+00  0.17008375020E+04  0.17008375020E+04  0.25500000000E-02 0. -1.
         -2   -1    0    0    0  501 -0.00000000000E+00 -0.00000000000E+00 -0.13200039195E+04  0.13200039195E+04  0.25500000000E-02 0.  1.
    8880023    1    1    2    0    0  0.13766176510E+04  0.27236373570E+03  0.42886050205E+03  0.16084121667E+04  0.65864270000E+03 0.  0.
    8880022    1    1    2    0    0 -0.13766176510E+04 -0.27236373570E+03 -0.48026919499E+02  0.14124292547E+04  0.15294330000E+03 0.  0.
<mgrwt>
<rscale>  0 0.15143148E+04</rscale>
<asrwt>0</asrwt>
<pdfrwt beam="1">  1        2 0.26166731E+00 0.15501833E+04</pdfrwt>
<pdfrwt beam="2">  1       -2 0.20307753E+00 0.15501833E+04</pdfrwt>
<totfact> 0.11645303E+00</totfact>
</mgrwt>
</event>
<event>
 4    5  0.7289609E-008  0.7287990E+03  0.7818608E-02  0.9893865E-01
          2   -1    0    0  501    0  0.00000000000E+00  0.00000000000E+00  0.35372161645E+03  0.35372161646E+03  0.25500000000E-02 0. -1.
         -2   -1    0    0    0  501 -0.00000000000E+00 -0.00000000000E+00 -0.85475300588E+03  0.85475300588E+03  0.25500000000E-02 0.  1.
    8880023    1    1    2    0    0 -0.28019146606E+03  0.13722449077E+03 -0.45196313726E+03  0.85756556730E+03  0.65864270000E+03 0.  0.
    8880022    1    1    2    0    0  0.28019146606E+03 -0.13722449077E+03 -0.49068252163E+02  0.35090905503E+03  0.15294330000E+03 0.  1.
<mgrwt>
<rscale>  0 0.60559531E+03</rscale>
<asrwt>0</asrwt>
<pdfrwt beam="1">  1        2 0.54418710E-01 0.72879903E+03</pdfrwt>
<pdfrwt beam="2">  1       -2 0.13150046E+00 0.72879903E+03</pdfrwt>
<totfact> 0.39014818E+01</totfact>
</mgrwt>
</event>
<event>
 4    5  0.7289609E-008  0.6929673E+03  0.7818608E-02  0.1002773E+00
          2   -1    0    0  501    0  0.00000000000E+00  0.00000000000E+00  0.16297690502E+04  0.16297690502E+04  0.25500000000E-02 0. -1.
         -2   -1    0    0    0  501 -0.00000000000E+00 -0.00000000000E+00 -0.45259840389E+03  0.45259840390E+03  0.25500000000E-02 0.  1.
    8880023    1    1    2    0    0  0.18255129408E+03 -0.11431753364E+03 -0.16673513537E+03  0.71274419331E+03  0.65864270000E+03 0.  1.
    8880022    1    1    2    0    0 -0.18255129408E+03  0.11431753364E+03  0.13439057817E+04  0.13696232608E+04  0.15294330000E+03 0.  0.
<mgrwt>
<rscale>  0 0.54450882E+03</rscale>
<asrwt>0</asrwt>
<pdfrwt beam="1">  1        2 0.25073370E+00 0.69296730E+03</pdfrwt>
<pdfrwt beam="2">  1       -2 0.69630523E-01 0.69296730E+03</pdfrwt>
<totfact> 0.20869511E+01</totfact>
</mgrwt>
</event>
<event>
 4    5  0.7289609E-008  0.9528630E+03  0.7818608E-02  0.9446007E-01
          2   -1    0    0  501    0  0.00000000000E+00  0.00000000000E+00  0.35976633388E+04  0.35976633388E+04  0.25500000000E-02 0. -1.
         -2   -1    0    0    0  501 -0.00000000000E+00 -0.00000000000E+00 -0.50813198280E+03  0.50813198281E+03  0.25500000000E-02 0.  1.
    8880023    1    1    2    0    0  0.13062898194E+03  0.67607228823E+03  0.16660615328E+02  0.95300863175E+03  0.65864270000E+03 0.  0.
    8880022    1    1    2    0    0 -0.13062898194E+03 -0.67607228823E+03  0.30728707406E+04  0.31527866898E+04  0.15294330000E+03 0.  0.
<mgrwt>
<rscale>  0 0.88384311E+03</rscale>
<asrwt>0</asrwt>
<pdfrwt beam="1">  1        2 0.55348668E+00 0.95286299E+03</pdfrwt>
<pdfrwt beam="2">  1       -2 0.78174149E-01 0.95286299E+03</pdfrwt>
<totfact> 0.10568228E+00</totfact>
</mgrwt>
</event>
<event>
 4    5  0.7289609E-008  0.1306099E+04  0.7818608E-02  0.9060311E-01
          2   -1    0    0  501    0  0.00000000000E+00  0.00000000000E+00  0.97737123933E+03  0.97737123934E+03  0.25500000000E-02 0. -1.
         -2   -1    0    0    0  501 -0.00000000000E+00 -0.00000000000E+00 -0.16107924253E+04  0.16107924253E+04  0.25500000000E-02 0.  1.
    8880023    1    1    2    0    0  0.96896453940E+03 -0.57722850078E+03 -0.62969073458E+03  0.14499674645E+04  0.65864270000E+03 0.  0.
    8880022    1    1    2    0    0 -0.96896453940E+03  0.57722850078E+03 -0.37304514155E+01  0.11381962001E+04  0.15294330000E+03 0.  0.
<mgrwt>
<rscale>  0 0.12619316E+04</rscale>
<asrwt>0</asrwt>
<pdfrwt beam="1">  1        2 0.15036481E+00 0.13060992E+04</pdfrwt>
<pdfrwt beam="2">  1       -2 0.24781422E+00 0.13060992E+04</pdfrwt>
<totfact> 0.16650503E+00</totfact>
</mgrwt>
</event>
<event>
 4    5  0.7289609E-008  0.9095674E+03  0.7818608E-02  0.9510844E-01
          2   -1    0    0  501    0  0.00000000000E+00  0.00000000000E+00  0.13735902549E+04  0.13735902549E+04  0.25500000000E-02 0. -1.
         -2   -1    0    0    0  501 -0.00000000000E+00 -0.00000000000E+00 -0.10914043155E+04  0.10914043155E+04  0.25500000000E-02 0.  1.
    8880023    1    1    2    0    0  0.31171788863E+03 -0.54436629874E+03 -0.79571779781E+03  0.12085030945E+04  0.65864270000E+03 0.  1.
    8880022    1    1    2    0    0 -0.31171788863E+03  0.54436629874E+03  0.10779037372E+04  0.12564914759E+04  0.15294330000E+03 0.  0.
<mgrwt>
<rscale>  0 0.83489033E+03</rscale>
<asrwt>0</asrwt>
<pdfrwt beam="1">  1        2 0.21132158E+00 0.90956743E+03</pdfrwt>
<pdfrwt beam="2">  1       -2 0.16790836E+00 0.90956743E+03</pdfrwt>
<totfact> 0.33151058E+00</totfact>
</mgrwt>
</event>
<event>
 4    5  0.7289609E-008  0.8768584E+03  0.7818608E-02  0.9564252E-01
          2   -1    0    0  501    0  0.00000000000E+00  0.00000000000E+00  0.11410396369E+04  0.11410396369E+04  0.25500000000E-02 0. -1.
         -2   -1    0    0    0  501 -0.00000000000E+00 -0.00000000000E+00 -0.16875934808E+04  0.16875934808E+04  0.25500000000E-02 0.  1.
    8880023    1    1    2    0    0  0.47284499934E+03 -0.33389821594E+03 -0.14796597952E+04  0.17199632926E+04  0.65864270000E+03 0.  1.
    8880022    1    1    2    0    0 -0.47284499934E+03  0.33389821594E+03  0.93310595129E+03  0.11086698252E+04  0.15294330000E+03 0.  0.
<mgrwt>
<rscale>  0 0.79708107E+03</rscale>
<asrwt>0</asrwt>
<pdfrwt beam="1">  1        2 0.17554456E+00 0.87685838E+03</pdfrwt>
<pdfrwt beam="2">  1       -2 0.25962977E+00 0.87685838E+03</pdfrwt>
<totfact> 0.11716080E+00</totfact>
</mgrwt>
</event>
<event>
 4    5  0.7289609E-008  0.1250004E+04  0.7818608E-02  0.9109984E-01
         -2   -1    0    0    0  501 -0.00000000000E+00  0.00000000000E+00  0.60516735891E+03  0.60516735892E+03  0.25500000000E-02 0.  1.
          2   -1    0    0  501    0  0.00000000000E+00 -0.00000000000E+00 -0.26096576072E+04  0.26096576072E+04  0.25500000000E-02 0. -1.
    8880023    1    1    2    0    0  0.56892932283E+03 -0.89722819431E+03 -0.45574339297E+03  0.13304928611E+04  0.65864270000E+03 0.  0.
    8880022    1    1    2    0    0 -0.56892932283E+03  0.89722819431E+03 -0.15487468553E+04  0.18843321050E+04  0.15294330000E+03 0.  0.
<mgrwt>
<rscale>  0 0.12032872E+04</rscale>
<asrwt>0</asrwt>
<pdfrwt beam="1">  1        2 0.40148578E+00 0.12500037E+04</pdfrwt>
<pdfrwt beam="2">  1       -2 0.93102672E-01 0.12500037E+04</pdfrwt>
<totfact> 0.28758413E+00</totfact>
</mgrwt>
</event>
<event>
 4    5  0.7289609E-008  0.7709160E+03  0.7818608E-02  0.9777625E-01
          2   -1    0    0  501    0  0.00000000000E+00  0.00000000000E+00  0.53218900699E+03  0.53218900700E+03  0.25500000000E-02 0. -1.
         -2   -1    0    0    0  501 -0.00000000000E+00 -0.00000000000E+00 -0.96911632800E+03  0.96911632801E+03  0.25500000000E-02 0.  1.
    8880023    1    1    2    0    0 -0.15767612825E+03  0.36829272546E+03 -0.66276420330E+03  0.10166454094E+04  0.65864270000E+03 0.  0.
    8880022    1    1    2    0    0  0.15767612825E+03 -0.36829272546E+03  0.22583688229E+03  0.48465992558E+03  0.15294330000E+03 0.  0.
<mgrwt>
<rscale>  0 0.66577262E+03</rscale>
<asrwt>0</asrwt>
<pdfrwt beam="1">  1        2 0.81875232E-01 0.77091601E+03</pdfrwt>
<pdfrwt beam="2">  1       -2 0.14909482E+00 0.77091601E+03</pdfrwt>
<totfact> 0.17635209E+01</totfact>
</mgrwt>
</event>
<event>
 4    5  0.7289609E-008  0.6618436E+03  0.7818608E-02  0.1022342E+00
         -2   -1    0    0    0  501 -0.00000000000E+00  0.00000000000E+00  0.51788356550E+03  0.51788356551E+03  0.25500000000E-02 0.  1.
          2   -1    0    0  501    0  0.00000000000E+00 -0.00000000000E+00 -0.18759433092E+04  0.18759433092E+04  0.25500000000E-02 0. -1.
    8880023    1    1    2    0    0  0.84735379565E+01  0.64458480192E+02  0.30056665211E+03  0.72689560127E+03  0.65864270000E+03 0.  1.
    8880022    1    1    2    0    0 -0.84735379565E+01 -0.64458480192E+02 -0.16586263958E+04  0.16669312735E+04  0.15294330000E+03 0.  0.
<mgrwt>
<rscale>  0 0.46850715E+03</rscale>
<asrwt>0</asrwt>
<pdfrwt beam="1">  1        2 0.28860666E+00 0.66184356E+03</pdfrwt>
<pdfrwt beam="2">  1       -2 0.79674396E-01 0.66184356E+03</pdfrwt>
<totfact> 0.11432857E+01</totfact>
</mgrwt>
</event>
<event>
 4    5  0.7289609E-008  0.7526546E+03  0.7818608E-02  0.9824509E-01
          2   -1    0    0  501    0  0.00000000000E+00  0.00000000000E+00  0.17625728859E+04  0.17625728859E+04  0.25500000000E-02 0. -1.
         -2   -1    0    0    0  501 -0.00000000000E+00 -0.00000000000E+00 -0.25097949799E+03  0.25097949800E+03  0.25500000000E-02 0.  1.
    8880023    1    1    2    0    0  0.15236760543E+02 -0.36393206263E+03  0.44086378844E+03  0.87226704128E+03  0.65864270000E+03 0.  1.
    8880022    1    1    2    0    0 -0.15236760543E+02  0.36393206263E+03  0.10707295994E+04  0.11412853426E+04  0.15294330000E+03 0.  0.
<mgrwt>
<rscale>  0 0.64063673E+03</rscale>
<asrwt>0</asrwt>
<pdfrwt beam="1">  1        2 0.27116506E+00 0.75265458E+03</pdfrwt>
<pdfrwt beam="2">  1       -2 0.38612230E-01 0.75265458E+03</pdfrwt>
<totfact> 0.58771723E+01</totfact>
</mgrwt>
</event>
<event>
 4    5  0.7289609E-008  0.8509578E+03  0.7818608E-02  0.9609855E-01
         -2   -1    0    0    0  501 -0.00000000000E+00  0.00000000000E+00  0.16357270757E+04  0.16357270757E+04  0.25500000000E-02 0.  1.
          2   -1    0    0  501    0  0.00000000000E+00 -0.00000000000E+00 -0.21604668809E+04  0.21604668809E+04  0.25500000000E-02 0. -1.
    8880023    1    1    2    0    0  0.89682856917E+02  0.53129654657E+03  0.14840879969E+04  0.17107444064E+04  0.65864270000E+03 0.  1.
    8880022    1    1    2    0    0 -0.89682856917E+02 -0.53129654657E+03 -0.20088278020E+04  0.20854495502E+04  0.15294330000E+03 0.  0.
<mgrwt>
<rscale>  0 0.76647359E+03</rscale>
<asrwt>0</asrwt>
<pdfrwt beam="1">  1        2 0.33237952E+00 0.85095784E+03</pdfrwt>
<pdfrwt beam="2">  1       -2 0.25165032E+00 0.85095784E+03</pdfrwt>
<totfact> 0.35310160E-01</totfact>
</mgrwt>
</event>
<event>
 4    5  0.7289609E-008  0.1409944E+04  0.7818608E-02  0.8975994E-01
         -2   -1    0    0    0  501 -0.00000000000E+00  0.00000000000E+00  0.12265178955E+04  0.12265178955E+04  0.25500000000E-02 0.  1.
          2   -1    0    0  501    0  0.00000000000E+00 -0.00000000000E+00 -0.17481520052E+04  0.17481520052E+04  0.25500000000E-02 0. -1.
    8880023    1    1    2    0    0 -0.11323336186E+04 -0.52149080666E+03  0.34146900497E+03  0.14507044402E+04  0.65864270000E+03 0.  0.
    8880022    1    1    2    0    0  0.11323336186E+04  0.52149080666E+03 -0.86310311473E+03  0.15239654605E+04  0.15294330000E+03 0.  0.
<mgrwt>
<rscale>  0 0.13697724E+04</rscale>
<asrwt>0</asrwt>
<pdfrwt beam="1">  1        2 0.26894646E+00 0.14099441E+04</pdfrwt>
<pdfrwt beam="2">  1       -2 0.18869506E+00 0.14099441E+04</pdfrwt>
<totfact> 0.13843905E+00</totfact>
</mgrwt>
</event>
<event>
 4    5  0.7289609E-008  0.6599551E+03  0.7818608E-02  0.1024202E+00
          2   -1    0    0  501    0  0.00000000000E+00  0.00000000000E+00  0.14633163024E+04  0.14633163024E+04  0.25500000000E-02 0. -1.
         -2   -1    0    0    0  501 -0.00000000000E+00 -0.00000000000E+00 -0.28526851465E+03  0.28526851467E+03  0.25500000000E-02 0.  1.
    8880023    1    1    2    0    0 -0.36657912729E+02  0.19666549166E+02  0.11026603704E+03  0.66910341571E+03  0.65864270000E+03 0.  1.
    8880022    1    1    2    0    0  0.36657912729E+02 -0.19666549166E+02  0.10677817507E+04  0.10794814013E+04  0.15294330000E+03 0.  0.
<mgrwt>
<rscale>  0 0.46200118E+03</rscale>
<asrwt>0</asrwt>
<pdfrwt beam="1">  1        2 0.22512558E+00 0.65995514E+03</pdfrwt>
<pdfrwt beam="2">  1       -2 0.43887464E-01 0.65995514E+03</pdfrwt>
<totfact> 0.67497175E+01</totfact>
</mgrwt>
</event>
<event>
 4    5  0.7289609E-008  0.1091419E+04  0.7818608E-02  0.9270671E-01
          2   -1    0    0  501    0  0.00000000000E+00  0.00000000000E+00  0.13345590839E+04  0.13345590839E+04  0.25500000000E-02 0. -1.
         -2   -1    0    0    0  501 -0.00000000000E+00 -0.00000000000E+00 -0.89932625753E+03  0.89932625754E+03  0.25500000000E-02 0.  1.
    8880023    1    1    2    0    0  0.50114191019E+03  0.71150642258E+03 -0.24522409408E+03  0.11186284755E+04  0.65864270000E+03 0.  1.
    8880022    1    1    2    0    0 -0.50114191019E+03 -0.71150642258E+03  0.68045692045E+03  0.11152568660E+04  0.15294330000E+03 0.  0.
<mgrwt>
<rscale>  0 0.10352837E+04</rscale>
<asrwt>0</asrwt>
<pdfrwt beam="1">  1        2 0.20531678E+00 0.10914187E+04</pdfrwt>
<pdfrwt beam="2">  1       -2 0.13835789E+00 0.10914187E+04</pdfrwt>
<totfact> 0.57463453E+00</totfact>
</mgrwt>
</event>
<event>
 4    5  0.7289609E-008  0.7654198E+03  0.7818608E-02  0.9791273E-01
          2   -1    0    0  501    0  0.00000000000E+00  0.00000000000E+00  0.96900483799E+03  0.96900483799E+03  0.25500000000E-02 0. -1.
         -2   -1    0    0    0  501 -0.00000000000E+00 -0.00000000000E+00 -0.19666681106E+04  0.19666681106E+04  0.25500000000E-02 0.  1.
    8880023    1    1    2    0    0 -0.36071342977E+03 -0.14813210155E+03 -0.18411463309E+04  0.19939125648E+04  0.65864270000E+03 0.  1.
    8880022    1    1    2    0    0  0.36071342977E+03  0.14813210155E+03  0.84348305828E+03  0.94176038383E+03  0.15294330000E+03 0.  0.
<mgrwt>
<rscale>  0 0.65832997E+03</rscale>
<asrwt>0</asrwt>
<pdfrwt beam="1">  1        2 0.14907767E+00 0.76541982E+03</pdfrwt>
<pdfrwt beam="2">  1       -2 0.30256432E+00 0.76541982E+03</pdfrwt>
<totfact> 0.84398213E-01</totfact>
</mgrwt>
</event>
<event>
 4    5  0.7289609E-008  0.1381751E+04  0.7818608E-02  0.8997994E-01
         -2   -1    0    0    0  501 -0.00000000000E+00  0.00000000000E+00  0.14841639395E+04  0.14841639395E+04  0.25500000000E-02 0.  1.
          2   -1    0    0  501    0  0.00000000000E+00 -0.00000000000E+00 -0.14205807539E+04  0.14205807539E+04  0.25500000000E-02 0. -1.
    8880023    1    1    2    0    0  0.49035247084E+02 -0.12136808900E+04  0.67328994996E+03  0.15370606108E+04  0.65864270000E+03 0.  0.
    8880022    1    1    2    0    0 -0.49035247084E+02  0.12136808900E+04 -0.60970676439E+03  0.13676840826E+04  0.15294330000E+03 0.  0.
<mgrwt>
<rscale>  0 0.13405745E+04</rscale>
<asrwt>0</asrwt>
<pdfrwt beam="1">  1        2 0.21855089E+00 0.13817511E+04</pdfrwt>
<pdfrwt beam="2">  1       -2 0.22833291E+00 0.13817511E+04</pdfrwt>
<totfact> 0.11745952E+00</totfact>
</mgrwt>
</event>
<event>
 4    5  0.7289609E-008  0.1033786E+04  0.7818608E-02  0.9338631E-01
         -2   -1    0    0    0  501 -0.00000000000E+00  0.00000000000E+00  0.12289827229E+04  0.12289827229E+04  0.25500000000E-02 0.  1.
          2   -1    0    0  501    0  0.00000000000E+00 -0.00000000000E+00 -0.92560212431E+03  0.92560212431E+03  0.25500000000E-02 0. -1.
    8880023    1    1    2    0    0 -0.26665074304E+03  0.75086687131E+03  0.70298721178E+03  0.12501619509E+04  0.65864270000E+03 0.  0.
    8880022    1    1    2    0    0  0.26665074304E+03 -0.75086687131E+03 -0.39960661316E+03  0.90442289638E+03  0.15294330000E+03 0.  0.
<mgrwt>
<rscale>  0 0.97302868E+03</rscale>
<asrwt>0</asrwt>
<pdfrwt beam="1">  1        2 0.14240033E+00 0.10337862E+04</pdfrwt>
<pdfrwt beam="2">  1       -2 0.18907426E+00 0.10337862E+04</pdfrwt>
<totfact> 0.43798845E+00</totfact>
</mgrwt>
</event>
<event>
 4    5  0.7289609E-008  0.1017795E+04  0.7818608E-02  0.9358638E-01
         -2   -1    0    0    0  501 -0.00000000000E+00  0.00000000000E+00  0.10059147522E+04  0.10059147522E+04  0.25500000000E-02 0.  1.
          2   -1    0    0  501    0  0.00000000000E+00 -0.00000000000E+00 -0.90322455159E+03  0.90322455159E+03  0.25500000000E-02 0. -1.
    8880023    1    1    2    0    0  0.38079414357E+03 -0.67608547734E+03 -0.24238437011E+03  0.10462581620E+04  0.65864270000E+03 0.  0.
    8880022    1    1    2    0    0 -0.38079414357E+03  0.67608547734E+03  0.34507457072E+03  0.86288114177E+03  0.15294330000E+03 0.  0.
<mgrwt>
<rscale>  0 0.95559187E+03</rscale>
<asrwt>0</asrwt>
<pdfrwt beam="1">  1        2 0.13895762E+00 0.10177947E+04</pdfrwt>
<pdfrwt beam="2">  1       -2 0.15475612E+00 0.10177947E+04</pdfrwt>
<totfact> 0.79613308E+00</totfact>
</mgrwt>
</event>
<event>
 4    5  0.7289609E-008  0.7196529E+03  0.7818608E-02  0.9923762E-01
         -2   -1    0    0    0  501 -0.00000000000E+00  0.00000000000E+00  0.14321156939E+03  0.14321156941E+03  0.25500000000E-02 0.  1.
          2   -1    0    0  501    0  0.00000000000E+00 -0.00000000000E+00 -0.27938626076E+04  0.27938626076E+04  0.25500000000E-02 0. -1.
    8880023    1    1    2    0    0  0.17067604579E+03 -0.23443495914E+03 -0.88223148513E+03  0.11385221396E+04  0.65864270000E+03 0.  0.
    8880022    1    1    2    0    0 -0.17067604579E+03  0.23443495914E+03 -0.17684195530E+04  0.17985520374E+04  0.15294330000E+03 0.  0.
<mgrwt>
<rscale>  0 0.59123362E+03</rscale>
<asrwt>0</asrwt>
<pdfrwt beam="1">  1        2 0.42982497E+00 0.71965288E+03</pdfrwt>
<pdfrwt beam="2">  1       -2 0.22032551E-01 0.71965288E+03</pdfrwt>
<totfact> 0.44209800E+01</totfact>
</mgrwt>
</event>
<event>
 4    5  0.7289609E-008  0.6697349E+03  0.7818608E-02  0.1015854E+00
          2   -1    0    0  501    0  0.00000000000E+00  0.00000000000E+00  0.10854231025E+04  0.10854231025E+04  0.25500000000E-02 0. -1.
         -2   -1    0    0    0  501 -0.00000000000E+00 -0.00000000000E+00 -0.67035256240E+03  0.67035256241E+03  0.25500000000E-02 0.  1.
    8880023    1    1    2    0    0  0.79015683431E+02  0.92147183259E+02 -0.49002285965E+03  0.82985974168E+03  0.65864270000E+03 0.  1.
    8880022    1    1    2    0    0 -0.79015683431E+02 -0.92147183259E+02  0.90509339972E+03  0.92591592321E+03  0.15294330000E+03 0.  0.
<mgrwt>
<rscale>  0 0.49213037E+03</rscale>
<asrwt>0</asrwt>
<pdfrwt beam="1">  1        2 0.16698817E+00 0.66973486E+03</pdfrwt>
<pdfrwt beam="2">  1       -2 0.10313116E+00 0.66973486E+03</pdfrwt>
<totfact> 0.17537031E+01</totfact>
</mgrwt>
</event>
<event>
 4    5  0.7289609E-008  0.1337438E+04  0.7818608E-02  0.9033886E-01
          2   -1    0    0  501    0  0.00000000000E+00  0.00000000000E+00  0.24428254602E+04  0.24428254602E+04  0.25500000000E-02 0. -1.
         -2   -1    0    0    0  501 -0.00000000000E+00 -0.00000000000E+00 -0.11025082495E+04  0.11025082495E+04  0.25500000000E-02 0.  1.
    8880023    1    1    2    0    0 -0.11333973261E+04  0.26521882653E+03 -0.44418483711E+03  0.14092696337E+04  0.65864270000E+03 0.  1.
    8880022    1    1    2    0    0  0.11333973261E+04 -0.26521882653E+03  0.17845020478E+04  0.21360640759E+04  0.15294330000E+03 0.  0.
<mgrwt>
<rscale>  0 0.12945658E+04</rscale>
<asrwt>0</asrwt>
<pdfrwt beam="1">  1        2 0.37581930E+00 0.13374381E+04</pdfrwt>
<pdfrwt beam="2">  1       -2 0.16961665E+00 0.13374381E+04</pdfrwt>
<totfact> 0.77291441E-01</totfact>
</mgrwt>
</event>
<event>
 4    5  0.7289609E-008  0.1134549E+04  0.7818608E-02  0.9223531E-01
         -2   -1    0    0    0  501 -0.00000000000E+00  0.00000000000E+00  0.93971397447E+03  0.93971397447E+03  0.25500000000E-02 0.  1.
          2   -1    0    0  501    0  0.00000000000E+00 -0.00000000000E+00 -0.32332923899E+04  0.32332923899E+04  0.25500000000E-02 0. -1.
    8880023    1    1    2    0    0 -0.79200652434E+03  0.47551661346E+03  0.49023492848E+03  0.12359332003E+04  0.65864270000E+03 0.  0.
    8880022    1    1    2    0    0  0.79200652434E+03 -0.47551661346E+03 -0.27838133439E+04  0.29370731640E+04  0.15294330000E+03 0.  0.
<mgrwt>
<rscale>  0 0.10813811E+04</rscale>
<asrwt>0</asrwt>
<pdfrwt beam="1">  1        2 0.49742959E+00 0.11345486E+04</pdfrwt>
<pdfrwt beam="2">  1       -2 0.14457138E+00 0.11345486E+04</pdfrwt>
<totfact> 0.40714288E-01</totfact>
</mgrwt>
</event>
<event>
 4    5  0.7289609E-008  0.7191365E+03  0.7818608E-02  0.9925519E-01
          2   -1    0    0  501    0  0.00000000000E+00  0.00000000000E+00  0.34264441915E+04  0.34264441915E+04  0.25500000000E-02 0. -1.
         -2   -1    0    0    0  501 -0.00000000000E+00 -0.00000000000E+00 -0.33888633890E+03  0.33888633891E+03  0.25500000000E-02 0.  1.
    8880023    1    1    2    0    0  0.26438609666E+03 -0.11596180121E+03  0.61581733923E+02  0.72176842800E+03  0.65864270000E+03 0.  1.
    8880022    1    1    2    0    0 -0.26438609666E+03  0.11596180121E+03  0.30259761186E+04  0.30435621024E+04  0.15294330000E+03 0.  0.
<mgrwt>
<rscale>  0 0.59040334E+03</rscale>
<asrwt>0</asrwt>
<pdfrwt beam="1">  1        2 0.52714525E+00 0.71913653E+03</pdfrwt>
<pdfrwt beam="2">  1       -2 0.52136361E-01 0.71913653E+03</pdfrwt>
<totfact> 0.34613992E+00</totfact>
</mgrwt>
</event>
<event>
 4    5  0.7289609E-008  0.6863775E+03  0.7818608E-02  0.1005924E+00
          2   -1    0    0  501    0  0.00000000000E+00  0.00000000000E+00  0.11217544052E+04  0.11217544052E+04  0.25500000000E-02 0. -1.
         -2   -1    0    0    0  501 -0.00000000000E+00 -0.00000000000E+00 -0.16110780261E+04  0.16110780261E+04  0.25500000000E-02 0.  1.
    8880023    1    1    2    0    0 -0.13294201514E+03 -0.14010823599E+03 -0.15228305469E+04  0.16703673183E+04  0.65864270000E+03 0.  1.
    8880022    1    1    2    0    0  0.13294201514E+03  0.14010823599E+03  0.10335069260E+04  0.10624651130E+04  0.15294330000E+03 0.  0.
<mgrwt>
<rscale>  0 0.53127196E+03</rscale>
<asrwt>0</asrwt>
<pdfrwt beam="1">  1        2 0.17257760E+00 0.68637752E+03</pdfrwt>
<pdfrwt beam="2">  1       -2 0.24785816E+00 0.68637752E+03</pdfrwt>
<totfact> 0.14659799E+00</totfact>
</mgrwt>
</event>
<event>
 4    5  0.7289609E-008  0.1108922E+04  0.7818608E-02  0.9251187E-01
          2   -1    0    0  501    0  0.00000000000E+00  0.00000000000E+00  0.19464453342E+04  0.19464453342E+04  0.25500000000E-02 0. -1.
         -2   -1    0    0    0  501 -0.00000000000E+00 -0.00000000000E+00 -0.86490324375E+03  0.86490324375E+03  0.25500000000E-02 0.  1.
    8880023    1    1    2    0    0 -0.83255398260E+03 -0.32054954757E+03 -0.30989815321E+03  0.11514100998E+04  0.65864270000E+03 0.  0.
    8880022    1    1    2    0    0  0.83255398260E+03  0.32054954757E+03  0.13914402436E+04  0.16599384781E+04  0.15294330000E+03 0. -1.
<mgrwt>
<rscale>  0 0.10540361E+04</rscale>
<asrwt>0</asrwt>
<pdfrwt beam="1">  1        2 0.29945313E+00 0.11089222E+04</pdfrwt>
<pdfrwt beam="2">  1       -2 0.13306204E+00 0.11089222E+04</pdfrwt>
<totfact> 0.28835985E+00</totfact>
</mgrwt>
</event>
<event>
 4    5  0.7289609E-008  0.9085019E+03  0.7818608E-02  0.9512519E-01
          2   -1    0    0  501    0  0.00000000000E+00  0.00000000000E+00  0.17648639931E+04  0.17648639931E+04  0.25500000000E-02 0. -1.
         -2   -1    0    0    0  501 -0.00000000000E+00 -0.00000000000E+00 -0.10017371158E+04  0.10017371159E+04  0.25500000000E-02 0.  1.
    8880023    1    1    2    0    0 -0.27986133515E+03  0.55968135573E+03 -0.71375682730E+03  0.11553460960E+04  0.65864270000E+03 0.  1.
    8880022    1    1    2    0    0  0.27986133515E+03 -0.55968135573E+03  0.14768837046E+04  0.16112550129E+04  0.15294330000E+03 0.  0.
<mgrwt>
<rscale>  0 0.83367123E+03</rscale>
<asrwt>0</asrwt>
<pdfrwt beam="1">  1        2 0.27151754E+00 0.90850195E+03</pdfrwt>
<pdfrwt beam="2">  1       -2 0.15411340E+00 0.90850195E+03</pdfrwt>
<totfact> 0.25342434E+00</totfact>
</mgrwt>
</event>
<event>
 4    5  0.7289609E-008  0.7117937E+03  0.7818608E-02  0.9951399E-01
          2   -1    0    0  501    0  0.00000000000E+00  0.00000000000E+00  0.15990947470E+04  0.15990947470E+04  0.25500000000E-02 0. -1.
         -2   -1    0    0    0  501 -0.00000000000E+00 -0.00000000000E+00 -0.76189559727E+03  0.76189559728E+03  0.25500000000E-02 0.  1.
    8880023    1    1    2    0    0  0.22465550576E+03 -0.14956612363E+03 -0.57505823875E+03  0.91506409930E+03  0.65864270000E+03 0.  1.
    8880022    1    1    2    0    0 -0.22465550576E+03  0.14956612363E+03  0.14122573885E+04  0.14459262450E+04  0.15294330000E+03 0.  0.
<mgrwt>
<rscale>  0 0.57833628E+03</rscale>
<asrwt>0</asrwt>
<pdfrwt beam="1">  1        2 0.24601458E+00 0.71179374E+03</pdfrwt>
<pdfrwt beam="2">  1       -2 0.11721471E+00 0.71179374E+03</pdfrwt>
<totfact> 0.64900952E+00</totfact>
</mgrwt>
</event>
<event>
 4    5  0.7289609E-008  0.8969886E+03  0.7818608E-02  0.9530883E-01
          2   -1    0    0  501    0  0.00000000000E+00  0.00000000000E+00  0.97142271828E+03  0.97142271828E+03  0.25500000000E-02 0. -1.
         -2   -1    0    0    0  501 -0.00000000000E+00 -0.00000000000E+00 -0.91686925876E+03  0.91686925876E+03  0.25500000000E-02 0.  1.
    8880023    1    1    2    0    0  0.10471296025E+03 -0.59984455833E+03  0.58120173885E+03  0.10688236364E+04  0.65864270000E+03 0.  0.
    8880022    1    1    2    0    0 -0.10471296025E+03  0.59984455833E+03 -0.52664827933E+03  0.81946834066E+03  0.15294330000E+03 0.  0.
<mgrwt>
<rscale>  0 0.82044717E+03</rscale>
<asrwt>0</asrwt>
<pdfrwt beam="1">  1        2 0.14944965E+00 0.89698858E+03</pdfrwt>
<pdfrwt beam="2">  1       -2 0.14105681E+00 0.89698858E+03</pdfrwt>
<totfact> 0.92695348E+00</totfact>
</mgrwt>
</event>
<event>
 4    5  0.7289609E-008  0.8902241E+03  0.7818608E-02  0.9541911E-01
         -2   -1    0    0    0  501 -0.00000000000E+00  0.00000000000E+00  0.16710336714E+04  0.16710336714E+04  0.25500000000E-02 0.  1.
          2   -1    0    0  501    0  0.00000000000E+00 -0.00000000000E+00 -0.20747521438E+04  0.20747521438E+04  0.25500000000E-02 0. -1.
    8880023    1    1    2    0    0 -0.45518445356E+03  0.38922460328E+03  0.14999747647E+04  0.17442543334E+04  0.65864270000E+03 0.  1.
    8880022    1    1    2    0    0  0.45518445356E+03 -0.38922460328E+03 -0.19036932371E+04  0.20015314818E+04  0.15294330000E+03 0.  0.
<mgrwt>
<rscale>  0 0.81263184E+03</rscale>
<asrwt>0</asrwt>
<pdfrwt beam="1">  1        2 0.31919264E+00 0.89022406E+03</pdfrwt>
<pdfrwt beam="2">  1       -2 0.25708210E+00 0.89022406E+03</pdfrwt>
<totfact> 0.36202258E-01</totfact>
</mgrwt>
</event>
<event>
 4    5  0.7289609E-008  0.6834850E+03  0.7818608E-02  0.1007417E+00
          2   -1    0    0  501    0  0.00000000000E+00  0.00000000000E+00  0.75790175986E+03  0.75790175986E+03  0.25500000000E-02 0. -1.
         -2   -1    0    0    0  501 -0.00000000000E+00 -0.00000000000E+00 -0.60259027465E+03  0.60259027465E+03  0.25500000000E-02 0.  1.
    8880023    1    1    2    0    0  0.16369285958E+03 -0.80908623619E+02 -0.37467364463E+03  0.77944345779E+03  0.65864270000E+03 0.  1.
    8880022    1    1    2    0    0 -0.16369285958E+03  0.80908623619E+02  0.52998512983E+03  0.58104857672E+03  0.15294330000E+03 0.  0.
<mgrwt>
<rscale>  0 0.52514159E+03</rscale>
<asrwt>0</asrwt>
<pdfrwt beam="1">  1        2 0.11660027E+00 0.68348501E+03</pdfrwt>
<pdfrwt beam="2">  1       -2 0.92706196E-01 0.68348501E+03</pdfrwt>
<totfact> 0.37211828E+01</totfact>
</mgrwt>
</event>
<event>
 4    5  0.7289609E-008  0.8589433E+03  0.7818608E-02  0.9595446E-01
         -2   -1    0    0    0  501 -0.00000000000E+00  0.00000000000E+00  0.39999800783E+03  0.39999800784E+03  0.25500000000E-02 0.  1.
          2   -1    0    0  501    0  0.00000000000E+00 -0.00000000000E+00 -0.25900828433E+04  0.25900828433E+04  0.25500000000E-02 0. -1.
    8880023    1    1    2    0    0  0.52141175412E+03 -0.17917363881E+03 -0.15083642331E+03  0.87208671761E+03  0.65864270000E+03 0.  1.
    8880022    1    1    2    0    0 -0.52141175412E+03  0.17917363881E+03 -0.20392484121E+04  0.21179941335E+04  0.15294330000E+03 0.  0.
<mgrwt>
<rscale>  0 0.77598338E+03</rscale>
<asrwt>0</asrwt>
<pdfrwt beam="1">  1        2 0.39847427E+00 0.85894331E+03</pdfrwt>
<pdfrwt beam="2">  1       -2 0.61538157E-01 0.85894331E+03</pdfrwt>
<totfact> 0.78230743E+00</totfact>
</mgrwt>
</event>
<event>
 4    5  0.7289609E-008  0.8143289E+03  0.7818608E-02  0.9680629E-01
         -2   -1    0    0    0  501 -0.00000000000E+00  0.00000000000E+00  0.36010744979E+03  0.36010744980E+03  0.25500000000E-02 0.  1.
          2   -1    0    0  501    0  0.00000000000E+00 -0.00000000000E+00 -0.17382696058E+04  0.17382696058E+04  0.25500000000E-02 0. -1.
    8880023    1    1    2    0    0 -0.19968297503E+03 -0.43525637108E+03 -0.23186691801E+03  0.84669585626E+03  0.65864270000E+03 0.  0.
    8880022    1    1    2    0    0  0.19968297503E+03  0.43525637108E+03 -0.11462952380E+04  0.12516811993E+04  0.15294330000E+03 0.  0.
<mgrwt>
<rscale>  0 0.72181908E+03</rscale>
<asrwt>0</asrwt>
<pdfrwt beam="1">  1        2 0.26742609E+00 0.81432893E+03</pdfrwt>
<pdfrwt beam="2">  1       -2 0.55401147E-01 0.81432893E+03</pdfrwt>
<totfact> 0.29160916E+01</totfact>
</mgrwt>
</event>
<event>
 4    5  0.7289609E-008  0.1040941E+04  0.7818608E-02  0.9329852E-01
          2   -1    0    0  501    0  0.00000000000E+00  0.00000000000E+00  0.10309798986E+04  0.10309798986E+04  0.25500000000E-02 0. -1.
         -2   -1    0    0    0  501 -0.00000000000E+00 -0.00000000000E+00 -0.11977556063E+04  0.11977556063E+04  0.25500000000E-02 0.  1.
    8880023    1    1    2    0    0  0.79198154576E+03 -0.15004151859E+03 -0.69619999983E+03  0.12522986354E+04  0.65864270000E+03 0.  0.
    8880022    1    1    2    0    0 -0.79198154576E+03  0.15004151859E+03  0.52942429214E+03  0.97643686956E+03  0.15294330000E+03 0.  0.
<mgrwt>
<rscale>  0 0.98080475E+03</rscale>
<asrwt>0</asrwt>
<pdfrwt beam="1">  1        2 0.15861229E+00 0.10409406E+04</pdfrwt>
<pdfrwt beam="2">  1       -2 0.18427009E+00 0.10409406E+04</pdfrwt>
<totfact> 0.40265982E+00</totfact>
</mgrwt>
</event>
<event>
 4    5  0.7289609E-008  0.6982745E+03  0.7818608E-02  0.1000444E+00
         -2   -1    0    0    0  501 -0.00000000000E+00  0.00000000000E+00  0.56913901343E+03  0.56913901343E+03  0.25500000000E-02 0.  1.
          2   -1    0    0  501    0  0.00000000000E+00 -0.00000000000E+00 -0.19769291786E+04  0.19769291786E+04  0.25500000000E-02 0. -1.
    8880023    1    1    2    0    0  0.21142712545E+03  0.95266473535E+02  0.33978126984E+03  0.77655563095E+03  0.65864270000E+03 0.  1.
    8880022    1    1    2    0    0 -0.21142712545E+03 -0.95266473535E+02 -0.17475714350E+04  0.17695125611E+04  0.15294330000E+03 0.  0.
<mgrwt>
<rscale>  0 0.55456169E+03</rscale>
<asrwt>0</asrwt>
<pdfrwt beam="1">  1        2 0.30414295E+00 0.69827454E+03</pdfrwt>
<pdfrwt beam="2">  1       -2 0.87559849E-01 0.69827454E+03</pdfrwt>
<totfact> 0.80865287E+00</totfact>
</mgrwt>
</event>
<event>
 4    5  0.7289609E-008  0.1070292E+04  0.7818608E-02  0.9294876E-01
         -2   -1    0    0    0  501 -0.00000000000E+00  0.00000000000E+00  0.14660187612E+04  0.14660187612E+04  0.25500000000E-02 0.  1.
          2   -1    0    0  501    0  0.00000000000E+00 -0.00000000000E+00 -0.76492086026E+03  0.76492086027E+03  0.25500000000E-02 0. -1.
    8880023    1    1    2    0    0  0.13997547280E+02 -0.84351567594E+03  0.84233210550E+03  0.13620015452E+04  0.65864270000E+03 0.  1.
    8880022    1    1    2    0    0 -0.13997547280E+02  0.84351567594E+03 -0.14123420454E+03  0.86893807630E+03  0.15294330000E+03 0.  0.
<mgrwt>
<rscale>  0 0.10125593E+04</rscale>
<asrwt>0</asrwt>
<pdfrwt beam="1">  1        2 0.11768013E+00 0.10702919E+04</pdfrwt>
<pdfrwt beam="2">  1       -2 0.22554135E+00 0.10702919E+04</pdfrwt>
<totfact> 0.32922677E+00</totfact>
</mgrwt>
</event>
<event>
 4    5  0.7289609E-008  0.6677331E+03  0.7818608E-02  0.1017343E+00
          2   -1    0    0  501    0  0.00000000000E+00  0.00000000000E+00  0.23761912089E+04  0.23761912089E+04  0.25500000000E-02 0. -1.
         -2   -1    0    0    0  501 -0.00000000000E+00 -0.00000000000E+00 -0.52390558042E+03  0.52390558043E+03  0.25500000000E-02 0.  1.
    8880023    1    1    2    0    0  0.95351141993E+02 -0.54455427196E+02 -0.30536668667E+03  0.73424536323E+03  0.65864270000E+03 0.  1.
    8880022    1    1    2    0    0 -0.95351141993E+02  0.54455427196E+02  0.21576523151E+04  0.21658514261E+04  0.15294330000E+03 0.  0.
<mgrwt>
<rscale>  0 0.48657802E+03</rscale>
<asrwt>0</asrwt>
<pdfrwt beam="1">  1        2 0.36556787E+00 0.66773306E+03</pdfrwt>
<pdfrwt beam="2">  1       -2 0.80600859E-01 0.66773306E+03</pdfrwt>
<totfact> 0.59214415E+00</totfact>
</mgrwt>
</event>
<event>
 4    5  0.7289609E-008  0.9571888E+03  0.7818608E-02  0.9439846E-01
          2   -1    0    0  501    0  0.00000000000E+00  0.00000000000E+00  0.41701546149E+04  0.41701546149E+04  0.25500000000E-02 0. -1.
         -2   -1    0    0    0  501 -0.00000000000E+00 -0.00000000000E+00 -0.29446677180E+03  0.29446677181E+03  0.25500000000E-02 0.  1.
    8880023    1    1    2    0    0 -0.44337239881E+03  0.53462241428E+03  0.63938573534E+03  0.11510971005E+04  0.65864270000E+03 0.  0.
    8880022    1    1    2    0    0  0.44337239881E+03 -0.53462241428E+03  0.32363021077E+04  0.33135242862E+04  0.15294330000E+03 0.  0.
<mgrwt>
<rscale>  0 0.88867853E+03</rscale>
<asrwt>0</asrwt>
<pdfrwt beam="1">  1        2 0.64156227E+00 0.95718881E+03</pdfrwt>
<pdfrwt beam="2">  1       -2 0.45302579E-01 0.95718881E+03</pdfrwt>
<totfact> 0.12204040E+00</totfact>
</mgrwt>
</event>
<event>
 4    5  0.7289609E-008  0.7497189E+03  0.7818608E-02  0.9832490E-01
          2   -1    0    0  501    0  0.00000000000E+00  0.00000000000E+00  0.20509391313E+04  0.20509391313E+04  0.25500000000E-02 0. -1.
         -2   -1    0    0    0  501 -0.00000000000E+00 -0.00000000000E+00 -0.15820511669E+03  0.15820511671E+03  0.25500000000E-02 0.  1.
    8880023    1    1    2    0    0  0.33655303989E+03  0.12247560462E+03  0.12587644631E+04  0.14651165149E+04  0.65864270000E+03 0.  1.
    8880022    1    1    2    0    0 -0.33655303989E+03 -0.12247560462E+03  0.63396955148E+03  0.74402773308E+03  0.15294330000E+03 0. -1.
<mgrwt>
<rscale>  0 0.63647695E+03</rscale>
<asrwt>0</asrwt>
<pdfrwt beam="1">  1        2 0.31552909E+00 0.74971890E+03</pdfrwt>
<pdfrwt beam="2">  1       -2 0.24339249E-01 0.74971890E+03</pdfrwt>
<totfact> 0.96749209E+01</totfact>
</mgrwt>
</event>
<event>
 4    5  0.7289609E-008  0.1160460E+04  0.7818608E-02  0.9196550E-01
          2   -1    0    0  501    0  0.00000000000E+00  0.00000000000E+00  0.13948081183E+04  0.13948081183E+04  0.25500000000E-02 0. -1.
         -2   -1    0    0    0  501 -0.00000000000E+00 -0.00000000000E+00 -0.12417758239E+04  0.12417758239E+04  0.25500000000E-02 0.  1.
    8880023    1    1    2    0    0 -0.18927739575E+03 -0.93649936848E+03 -0.69269274905E+03  0.13514771365E+04  0.65864270000E+03 0.  0.
    8880022    1    1    2    0    0  0.18927739575E+03  0.93649936848E+03  0.84572504353E+03  0.12851068057E+04  0.15294330000E+03 0.  0.
<mgrwt>
<rscale>  0 0.11089105E+04</rscale>
<asrwt>0</asrwt>
<pdfrwt beam="1">  1        2 0.21458586E+00 0.11604599E+04</pdfrwt>
<pdfrwt beam="2">  1       -2 0.19104244E+00 0.11604599E+04</pdfrwt>
<totfact> 0.21653642E+00</totfact>
</mgrwt>
</event>
<event>
 4    5  0.7289609E-008  0.1950680E+04  0.7818608E-02  0.8643468E-01
          2   -1    0    0  501    0  0.00000000000E+00  0.00000000000E+00  0.21786356013E+04  0.21786356013E+04  0.25500000000E-02 0. -1.
         -2   -1    0    0    0  501 -0.00000000000E+00 -0.00000000000E+00 -0.20768279944E+04  0.20768279944E+04  0.25500000000E-02 0.  1.
    8880023    1    1    2    0    0 -0.10227505315E+04  0.15249005619E+04 -0.91104504768E+03  0.21529407002E+04  0.65864270000E+03 0.  0.
    8880022    1    1    2    0    0  0.10227505315E+04 -0.15249005619E+04  0.10128526546E+04  0.21025228955E+04  0.15294330000E+03 0.  0.
<mgrwt>
<rscale>  0 0.19230480E+04</rscale>
<asrwt>0</asrwt>
<pdfrwt beam="1">  1        2 0.33517471E+00 0.19506795E+04</pdfrwt>
<pdfrwt beam="2">  1       -2 0.31951200E+00 0.19506795E+04</pdfrwt>
<totfact> 0.11421265E-01</totfact>
</mgrwt>
</event>
<event>
 4    5  0.7289609E-008  0.9223183E+03  0.7818608E-02  0.9491113E-01
         -2   -1    0    0    0  501 -0.00000000000E+00  0.00000000000E+00  0.50279613276E+03  0.50279613276E+03  0.25500000000E-02 0.  1.
          2   -1    0    0  501    0  0.00000000000E+00 -0.00000000000E+00 -0.31215620675E+04  0.31215620675E+04  0.25500000000E-02 0. -1.
    8880023    1    1    2    0    0  0.41552526396E+01  0.64563422023E+03  0.54053503278E+00  0.92231844333E+03  0.65864270000E+03 0.  0.
    8880022    1    1    2    0    0 -0.41552526396E+01 -0.64563422023E+03 -0.26193064697E+04  0.27020397569E+04  0.15294330000E+03 0. -1.
<mgrwt>
<rscale>  0 0.84942167E+03</rscale>
<asrwt>0</asrwt>
<pdfrwt beam="1">  1        2 0.48024030E+00 0.92231828E+03</pdfrwt>
<pdfrwt beam="2">  1       -2 0.77353253E-01 0.92231828E+03</pdfrwt>
<totfact> 0.22545896E+00</totfact>
</mgrwt>
</event>
<event>
 4    5  0.7289609E-008  0.6726070E+03  0.7818608E-02  0.1013859E+00
         -2   -1    0    0    0  501 -0.00000000000E+00  0.00000000000E+00  0.17765121068E+03  0.17765121070E+03  0.25500000000E-02 0.  1.
          2   -1    0    0  501    0  0.00000000000E+00 -0.00000000000E+00 -0.13742586726E+04  0.13742586726E+04  0.25500000000E-02 0. -1.
    8880023    1    1    2    0    0 -0.13591313947E+03 -0.10846107059E+02 -0.53539507781E+03  0.85967907682E+03  0.65864270000E+03 0.  1.
    8880022    1    1    2    0    0  0.13591313947E+03  0.10846107059E+02 -0.66121238409E+03  0.69223080645E+03  0.15294330000E+03 0.  0.
<mgrwt>
<rscale>  0 0.49969329E+03</rscale>
<asrwt>0</asrwt>
<pdfrwt beam="1">  1        2 0.21142440E+00 0.67260704E+03</pdfrwt>
<pdfrwt beam="2">  1       -2 0.27330956E-01 0.67260704E+03</pdfrwt>
<totfact> 0.18595872E+02</totfact>
</mgrwt>
</event>
<event>
 4    5  0.7289609E-008  0.7503201E+03  0.7818608E-02  0.9830845E-01
         -2   -1    0    0    0  501 -0.00000000000E+00  0.00000000000E+00  0.73628222327E+03  0.73628222327E+03  0.25500000000E-02 0.  1.
          2   -1    0    0  501    0  0.00000000000E+00 -0.00000000000E+00 -0.44271081982E+03  0.44271081983E+03  0.25500000000E-02 0. -1.
    8880023    1    1    2    0    0 -0.26431723229E+03  0.24352904570E+03  0.21576982289E+03  0.78072838946E+03  0.65864270000E+03 0. -1.
    8880022    1    1    2    0    0  0.26431723229E+03 -0.24352904570E+03  0.77801580560E+02  0.39826465364E+03  0.15294330000E+03 0.  1.
<mgrwt>
<rscale>  0 0.63733181E+03</rscale>
<asrwt>0</asrwt>
<pdfrwt beam="1">  1        2 0.68109358E-01 0.75032007E+03</pdfrwt>
<pdfrwt beam="2">  1       -2 0.11327419E+00 0.75032007E+03</pdfrwt>
<totfact> 0.43853695E+01</totfact>
</mgrwt>
</event>
<event>
 4    5  0.7289609E-008  0.1074111E+04  0.7818608E-02  0.9290442E-01
         -2   -1    0    0    0  501 -0.00000000000E+00  0.00000000000E+00  0.11235300060E+04  0.11235300060E+04  0.25500000000E-02 0.  1.
          2   -1    0    0  501    0  0.00000000000E+00 -0.00000000000E+00 -0.14918271666E+04  0.14918271666E+04  0.25500000000E-02 0. -1.
    8880023    1    1    2    0    0 -0.21401963507E+03 -0.82103642634E+03  0.66987353005E+03  0.12658775494E+04  0.65864270000E+03 0.  0.
    8880022    1    1    2    0    0  0.21401963507E+03  0.82103642634E+03 -0.10381706907E+04  0.13494796232E+04  0.15294330000E+03 0.  0.
<mgrwt>
<rscale>  0 0.10166754E+04</rscale>
<asrwt>0</asrwt>
<pdfrwt beam="1">  1        2 0.22951187E+00 0.10741115E+04</pdfrwt>
<pdfrwt beam="2">  1       -2 0.17285077E+00 0.10741115E+04</pdfrwt>
<totfact> 0.25680956E+00</totfact>
</mgrwt>
</event>
<event>
 4    5  0.7289609E-008  0.1159559E+04  0.7818608E-02  0.9197473E-01
          2   -1    0    0  501    0  0.00000000000E+00  0.00000000000E+00  0.14536963193E+04  0.14536963193E+04  0.25500000000E-02 0. -1.
         -2   -1    0    0    0  501 -0.00000000000E+00 -0.00000000000E+00 -0.91904216408E+03  0.91904216408E+03  0.25500000000E-02 0.  1.
    8880023    1    1    2    0    0  0.95404893202E+03  0.23592596561E+02 -0.17632037700E+03  0.11728874869E+04  0.65864270000E+03 0.  0.
    8880022    1    1    2    0    0 -0.95404893202E+03 -0.23592596561E+02  0.71097453221E+03  0.11998509965E+04  0.15294330000E+03 0.  0.
<mgrwt>
<rscale>  0 0.11079548E+04</rscale>
<asrwt>0</asrwt>
<pdfrwt beam="1">  1        2 0.22364559E+00 0.11595586E+04</pdfrwt>
<pdfrwt beam="2">  1       -2 0.14139110E+00 0.11595586E+04</pdfrwt>
<totfact> 0.46091875E+00</totfact>
</mgrwt>
</event>
<event>
 4    5  0.7289609E-008  0.9975416E+03  0.7818608E-02  0.9384781E-01
         -2   -1    0    0    0  501 -0.00000000000E+00  0.00000000000E+00  0.10050322447E+04  0.10050322447E+04  0.25500000000E-02 0.  1.
          2   -1    0    0  501    0  0.00000000000E+00 -0.00000000000E+00 -0.17038390741E+04  0.17038390741E+04  0.25500000000E-02 0. -1.
    8880023    1    1    2    0    0 -0.74684179050E+03 -0.59214100547E+02  0.62710244483E+03  0.11782812280E+04  0.65864270000E+03 0.  1.
    8880022    1    1    2    0    0  0.74684179050E+03  0.59214100547E+02 -0.13259092742E+04  0.15305900908E+04  0.15294330000E+03 0.  0.
<mgrwt>
<rscale>  0 0.93338789E+03</rscale>
<asrwt>0</asrwt>
<pdfrwt beam="1">  1        2 0.26212909E+00 0.99754157E+03</pdfrwt>
<pdfrwt beam="2">  1       -2 0.15462035E+00 0.99754157E+03</pdfrwt>
<totfact> 0.26820800E+00</totfact>
</mgrwt>
</event>
<event>
 4    5  0.7289609E-008  0.1078215E+04  0.7818608E-02  0.9285708E-01
          2   -1    0    0  501    0  0.00000000000E+00  0.00000000000E+00  0.20496205955E+04  0.20496205955E+04  0.25500000000E-02 0. -1.
         -2   -1    0    0    0  501 -0.00000000000E+00 -0.00000000000E+00 -0.52660024054E+03  0.52660024055E+03  0.25500000000E-02 0.  1.
    8880023    1    1    2    0    0  0.82291762965E+03 -0.22703117133E+03  0.38386667672E+03  0.11445088072E+04  0.65864270000E+03 0.  1.
    8880022    1    1    2    0    0 -0.82291762965E+03  0.22703117133E+03  0.11391536782E+04  0.14317120289E+04  0.15294330000E+03 0.  0.
<mgrwt>
<rscale>  0 0.10210932E+04</rscale>
<asrwt>0</asrwt>
<pdfrwt beam="1">  1        2 0.31532625E+00 0.10782146E+04</pdfrwt>
<pdfrwt beam="2">  1       -2 0.81015421E-01 0.10782146E+04</pdfrwt>
<totfact> 0.83730495E+00</totfact>
</mgrwt>
</event>
<event>
 4    5  0.7289609E-008  0.9576910E+03  0.7818608E-02  0.9439134E-01
         -2   -1    0    0    0  501 -0.00000000000E+00  0.00000000000E+00  0.24065327227E+04  0.24065327227E+04  0.25500000000E-02 0.  1.
          2   -1    0    0  501    0  0.00000000000E+00 -0.00000000000E+00 -0.50458743477E+03  0.50458743478E+03  0.25500000000E-02 0. -1.
    8880023    1    1    2    0    0 -0.14500438689E+02  0.69509099703E+03  0.87087151005E+02  0.96164241535E+03  0.65864270000E+03 0.  0.
    8880022    1    1    2    0    0  0.14500438689E+02 -0.69509099703E+03  0.18148581369E+04  0.19494777421E+04  0.15294330000E+03 0.  0.
<mgrwt>
<rscale>  0 0.88923925E+03</rscale>
<asrwt>0</asrwt>
<pdfrwt beam="1">  1        2 0.77628835E-01 0.95769095E+03</pdfrwt>
<pdfrwt beam="2">  1       -2 0.37023581E+00 0.95769095E+03</pdfrwt>
<totfact> 0.72134641E-01</totfact>
</mgrwt>
</event>
<event>
 4    5  0.7289609E-008  0.1327926E+04  0.7818608E-02  0.9041812E-01
          2   -1    0    0  501    0  0.00000000000E+00  0.00000000000E+00  0.10314103197E+04  0.10314103197E+04  0.25500000000E-02 0. -1.
         -2   -1    0    0    0  501 -0.00000000000E+00 -0.00000000000E+00 -0.19694853326E+04  0.19694853326E+04  0.25500000000E-02 0.  1.
    8880023    1    1    2    0    0  0.53855237627E+03  0.10195776733E+04 -0.12208481769E+04  0.18038452736E+04  0.65864270000E+03 0.  0.
    8880022    1    1    2    0    0 -0.53855237627E+03 -0.10195776733E+04  0.28277316399E+03  0.11970503787E+04  0.15294330000E+03 0.  0.
<mgrwt>
<rscale>  0 0.12846694E+04</rscale>
<asrwt>0</asrwt>
<pdfrwt beam="1">  1        2 0.15867851E+00 0.13279260E+04</pdfrwt>
<pdfrwt beam="2">  1       -2 0.30299774E+00 0.13279260E+04</pdfrwt>
<totfact> 0.70641969E-01</totfact>
</mgrwt>
</event>
<event>
 4    5  0.7289609E-008  0.7013121E+03  0.7818608E-02  0.9991801E-01
         -2   -1    0    0    0  501 -0.00000000000E+00  0.00000000000E+00  0.31703750108E+03  0.31703750109E+03  0.25500000000E-02 0.  1.
          2   -1    0    0  501    0  0.00000000000E+00 -0.00000000000E+00 -0.16792339664E+04  0.16792339664E+04  0.25500000000E-02 0. -1.
    8880023    1    1    2    0    0  0.23842911844E+03  0.34350637767E+02 -0.10745793888E+03  0.70949688211E+03  0.65864270000E+03 0.  0.
    8880022    1    1    2    0    0 -0.23842911844E+03 -0.34350637767E+02 -0.12547385265E+04  0.12867745854E+04  0.15294330000E+03 0.  0.
<mgrwt>
<rscale>  0 0.56011205E+03</rscale>
<asrwt>0</asrwt>
<pdfrwt beam="1">  1        2 0.25834368E+00 0.70131207E+03</pdfrwt>
<pdfrwt beam="2">  1       -2 0.48775001E-01 0.70131207E+03</pdfrwt>
<totfact> 0.41340876E+01</totfact>
</mgrwt>
</event>
<event>
 4    5  0.7289609E-008  0.1642402E+04  0.7818608E-02  0.8815121E-01
         -2   -1    0    0    0  501 -0.00000000000E+00  0.00000000000E+00  0.12379610186E+04  0.12379610186E+04  0.25500000000E-02 0.  1.
          2   -1    0    0  501    0  0.00000000000E+00 -0.00000000000E+00 -0.24922178793E+04  0.24922178793E+04  0.25500000000E-02 0. -1.
    8880023    1    1    2    0    0  0.10983448181E+04 -0.10282568557E+04 -0.14680041821E+04  0.22028436135E+04  0.65864270000E+03 0.  0.
    8880022    1    1    2    0    0 -0.10983448181E+04  0.10282568557E+04  0.21374732134E+03  0.15273352845E+04  0.15294330000E+03 0.  0.
<mgrwt>
<rscale>  0 0.16088642E+04</rscale>
<asrwt>0</asrwt>
<pdfrwt beam="1">  1        2 0.38341813E+00 0.16424018E+04</pdfrwt>
<pdfrwt beam="2">  1       -2 0.19045554E+00 0.16424018E+04</pdfrwt>
<totfact> 0.50161973E-01</totfact>
</mgrwt>
</event>
<event>
 4    5  0.7289609E-008  0.6771821E+03  0.7818608E-02  0.1010965E+00
          2   -1    0    0  501    0  0.00000000000E+00  0.00000000000E+00  0.17910566365E+04  0.17910566365E+04  0.25500000000E-02 0. -1.
         -2   -1    0    0    0  501 -0.00000000000E+00 -0.00000000000E+00 -0.25115228133E+03  0.25115228135E+03  0.25500000000E-02 0.  1.
    8880023    1    1    2    0    0  0.12057807913E+03  0.10112516550E+03  0.23169586173E+03  0.71572239791E+03  0.65864270000E+03 0.  1.
    8880022    1    1    2    0    0 -0.12057807913E+03 -0.10112516550E+03  0.13082084934E+04  0.13264865199E+04  0.15294330000E+03 0.  0.
<mgrwt>
<rscale>  0 0.51093018E+03</rscale>
<asrwt>0</asrwt>
<pdfrwt beam="1">  1        2 0.27554717E+00 0.67718209E+03</pdfrwt>
<pdfrwt beam="2">  1       -2 0.38638813E-01 0.67718209E+03</pdfrwt>
<totfact> 0.57131472E+01</totfact>
</mgrwt>
</event>
<event>
 4    5  0.7289609E-008  0.6603721E+03  0.7818608E-02  0.1023778E+00
          2   -1    0    0  501    0  0.00000000000E+00  0.00000000000E+00  0.24586013879E+03  0.24586013880E+03  0.25500000000E-02 0. -1.
         -2   -1    0    0    0  501 -0.00000000000E+00 -0.00000000000E+00 -0.17227329061E+04  0.17227329061E+04  0.25500000000E-02 0.  1.
    8880023    1    1    2    0    0 -0.46174902777E+02 -0.12206512090E+02 -0.16227086823E+04  0.17519345863E+04  0.65864270000E+03 0.  0.
    8880022    1    1    2    0    0  0.46174902777E+02  0.12206512090E+02  0.14583591501E+03  0.21665845865E+03  0.15294330000E+03 0. -1.
<mgrwt>
<rscale>  0 0.46347428E+03</rscale>
<asrwt>0</asrwt>
<pdfrwt beam="1">  1        2 0.37824638E-01 0.66037211E+03</pdfrwt>
<pdfrwt beam="2">  1       -2 0.26503582E+00 0.66037211E+03</pdfrwt>
<totfact> 0.74209398E+00</totfact>
</mgrwt>
</event>
<event>
 4    5  0.7289609E-008  0.6861396E+03  0.7818608E-02  0.1006044E+00
         -2   -1    0    0    0  501 -0.00000000000E+00  0.00000000000E+00  0.21587825231E+04  0.21587825231E+04  0.25500000000E-02 0.  1.
          2   -1    0    0  501    0  0.00000000000E+00 -0.00000000000E+00 -0.40946078143E+03  0.40946078144E+03  0.25500000000E-02 0. -1.
    8880023    1    1    2    0    0  0.18140531851E+03 -0.63792051493E+02  0.20605110896E+04  0.21717489431E+04  0.65864270000E+03 0.  0.
    8880022    1    1    2    0    0 -0.18140531851E+03  0.63792051493E+02 -0.31118934788E+03  0.39649436145E+03  0.15294330000E+03 0. -1.
<mgrwt>
<rscale>  0 0.53077575E+03</rscale>
<asrwt>0</asrwt>
<pdfrwt beam="1">  1        2 0.62993967E-01 0.68613958E+03</pdfrwt>
<pdfrwt beam="2">  1       -2 0.33212038E+00 0.68613958E+03</pdfrwt>
<totfact> 0.16537665E+00</totfact>
</mgrwt>
</event>
<event>
 4    5  0.7289609E-008  0.1371505E+04  0.7818608E-02  0.9006147E-01
          2   -1    0    0  501    0  0.00000000000E+00  0.00000000000E+00  0.15470775644E+04  0.15470775644E+04  0.25500000000E-02 0. -1.
         -2   -1    0    0    0  501 -0.00000000000E+00 -0.00000000000E+00 -0.14465848772E+04  0.14465848772E+04  0.25500000000E-02 0.  1.
    8880023    1    1    2    0    0  0.10904160593E+04  0.50814184729E+03 -0.70078019546E+03  0.15401683051E+04  0.65864270000E+03 0.  0.
    8880022    1    1    2    0    0 -0.10904160593E+04 -0.50814184729E+03  0.80127288268E+03  0.14534941366E+04  0.15294330000E+03 0.  0.
<mgrwt>
<rscale>  0 0.13299493E+04</rscale>
<asrwt>0</asrwt>
<pdfrwt beam="1">  1        2 0.23801193E+00 0.13715048E+04</pdfrwt>
<pdfrwt beam="2">  1       -2 0.22255152E+00 0.13715048E+04</pdfrwt>
<totfact> 0.10831123E+00</totfact>
</mgrwt>
</event>
<event>
 4    5  0.7289609E-008  0.7398385E+03  0.7818608E-02  0.9860418E-01
         -2   -1    0    0    0  501 -0.00000000000E+00  0.00000000000E+00  0.64482800508E+03  0.64482800509E+03  0.25500000000E-02 0.  1.
          2   -1    0    0  501    0  0.00000000000E+00 -0.00000000000E+00 -0.13409184692E+04  0.13409184692E+04  0.25500000000E-02 0. -1.
    8880023    1    1    2    0    0 -0.10698708113E+03  0.31953812523E+03  0.39141835550E+03  0.83700022957E+03  0.65864270000E+03 0.  1.
    8880022    1    1    2    0    0  0.10698708113E+03 -0.31953812523E+03 -0.10875088197E+04  0.11487462448E+04  0.15294330000E+03 0.  0.
<mgrwt>
<rscale>  0 0.62218565E+03</rscale>
<asrwt>0</asrwt>
<pdfrwt beam="1">  1        2 0.20629515E+00 0.73983853E+03</pdfrwt>
<pdfrwt beam="2">  1       -2 0.99204309E-01 0.73983853E+03</pdfrwt>
<totfact> 0.13475992E+01</totfact>
</mgrwt>
</event>
<event>
 4    5  0.7289609E-008  0.9843304E+03  0.7818608E-02  0.9402351E-01
          2   -1    0    0  501    0  0.00000000000E+00  0.00000000000E+00  0.11764654177E+04  0.11764654177E+04  0.25500000000E-02 0. -1.
         -2   -1    0    0    0  501 -0.00000000000E+00 -0.00000000000E+00 -0.96379725217E+03  0.96379725217E+03  0.25500000000E-02 0.  1.
    8880023    1    1    2    0    0  0.17090756504E+03 -0.71125721603E+03 -0.50311211219E+03  0.11054538556E+04  0.65864270000E+03 0.  0.
    8880022    1    1    2    0    0 -0.17090756504E+03  0.71125721603E+03  0.71578027776E+03  0.10348088143E+04  0.15294330000E+03 0.  0.
<mgrwt>
<rscale>  0 0.91882416E+03</rscale>
<asrwt>0</asrwt>
<pdfrwt beam="1">  1        2 0.18099468E+00 0.98433045E+03</pdfrwt>
<pdfrwt beam="2">  1       -2 0.14827650E+00 0.98433045E+03</pdfrwt>
<totfact> 0.60025342E+00</totfact>
</mgrwt>
</event>
<event>
 4    5  0.7289609E-008  0.7478472E+03  0.7818608E-02  0.9837651E-01
          2   -1    0    0  501    0  0.00000000000E+00  0.00000000000E+00  0.31313615935E+04  0.31313615935E+04  0.25500000000E-02 0. -1.
         -2   -1    0    0    0  501 -0.00000000000E+00 -0.00000000000E+00 -0.11015018013E+03  0.11015018016E+03  0.25500000000E-02 0.  1.
    8880023    1    1    2    0    0 -0.27958236842E+03 -0.21748311503E+03  0.23634516232E+04  0.24789471530E+04  0.65864270000E+03 0. -1.
    8880022    1    1    2    0    0  0.27958236842E+03  0.21748311503E+03  0.65775979014E+03  0.76256462060E+03  0.15294330000E+03 0.  1.
<mgrwt>
<rscale>  0 0.63380514E+03</rscale>
<asrwt>0</asrwt>
<pdfrwt beam="1">  1        2 0.48174787E+00 0.74784719E+03</pdfrwt>
<pdfrwt beam="2">  1       -2 0.16946184E-01 0.74784719E+03</pdfrwt>
<totfact> 0.43370553E+01</totfact>
</mgrwt>
</event>
<event>
 4    5  0.7289609E-008  0.6920535E+03  0.7818608E-02  0.1003191E+00
         -2   -1    0    0    0  501 -0.00000000000E+00  0.00000000000E+00  0.43196389934E+03  0.43196389935E+03  0.25500000000E-02 0.  1.
          2   -1    0    0  501    0  0.00000000000E+00 -0.00000000000E+00 -0.13134283917E+04  0.13134283917E+04  0.25500000000E-02 0. -1.
    8880023    1    1    2    0    0 -0.19470070150E+03 -0.84967445867E+02  0.12691232870E+03  0.70359418379E+03  0.65864270000E+03 0.  1.
    8880022    1    1    2    0    0  0.19470070150E+03  0.84967445867E+02 -0.10083768211E+04  0.10417981073E+04  0.15294330000E+03 0.  0.
<mgrwt>
<rscale>  0 0.54272710E+03</rscale>
<asrwt>0</asrwt>
<pdfrwt beam="1">  1        2 0.20206590E+00 0.69205349E+03</pdfrwt>
<pdfrwt beam="2">  1       -2 0.66455985E-01 0.69205349E+03</pdfrwt>
<totfact> 0.34689349E+01</totfact>
</mgrwt>
</event>
<event>
 4    5  0.7289609E-008  0.1044227E+04  0.7818608E-02  0.9325854E-01
         -2   -1    0    0    0  501 -0.00000000000E+00  0.00000000000E+00  0.17080272323E+04  0.17080272323E+04  0.25500000000E-02 0.  1.
          2   -1    0    0  501    0  0.00000000000E+00 -0.00000000000E+00 -0.12169902850E+04  0.12169902850E+04  0.25500000000E-02 0. -1.
    8880023    1    1    2    0    0  0.13211537621E+02 -0.81020085492E+03  0.13681655158E+04  0.17211295869E+04  0.65864270000E+03 0.  0.
    8880022    1    1    2    0    0 -0.13211537621E+02  0.81020085492E+03 -0.87712856861E+03  0.12038879304E+04  0.15294330000E+03 0.  0.
<mgrwt>
<rscale>  0 0.98437178E+03</rscale>
<asrwt>0</asrwt>
<pdfrwt beam="1">  1        2 0.18722927E+00 0.10442271E+04</pdfrwt>
<pdfrwt beam="2">  1       -2 0.26277342E+00 0.10442271E+04</pdfrwt>
<totfact> 0.98535076E-01</totfact>
</mgrwt>
</event>
<event>
 4    5  0.7289609E-008  0.8649602E+03  0.7818608E-02  0.9584800E-01
          2   -1    0    0  501    0  0.00000000000E+00  0.00000000000E+00  0.13227590426E+04  0.13227590426E+04  0.25500000000E-02 0. -1.
         -2   -1    0    0    0  501 -0.00000000000E+00 -0.00000000000E+00 -0.59878381406E+03  0.59878381406E+03  0.25500000000E-02 0.  1.
    8880023    1    1    2    0    0 -0.52004358719E+03  0.20952470964E+03 -0.14411221966E+03  0.87688338714E+03  0.65864270000E+03 0.  0.
    8880022    1    1    2    0    0  0.52004358719E+03 -0.20952470964E+03  0.86808744824E+03  0.10446594696E+04  0.15294330000E+03 0.  0.
<mgrwt>
<rscale>  0 0.78310414E+03</rscale>
<asrwt>0</asrwt>
<pdfrwt beam="1">  1        2 0.20350139E+00 0.86496020E+03</pdfrwt>
<pdfrwt beam="2">  1       -2 0.92120588E-01 0.86496020E+03</pdfrwt>
<totfact> 0.16186267E+01</totfact>
</mgrwt>
</event>
<event>
 4    5  0.7289609E-008  0.1179241E+04  0.7818608E-02  0.9177570E-01
         -2   -1    0    0    0  501 -0.00000000000E+00  0.00000000000E+00  0.78089257772E+03  0.78089257773E+03  0.25500000000E-02 0.  1.
          2   -1    0    0  501    0  0.00000000000E+00 -0.00000000000E+00 -0.16255567500E+04  0.16255567500E+04  0.25500000000E-02 0. -1.
    8880023    1    1    2    0    0 -0.96628288171E+02 -0.97337724307E+03 -0.78088208965E+03  0.14143504967E+04  0.65864270000E+03 0.  0.
    8880022    1    1    2    0    0  0.96628288171E+02  0.97337724307E+03 -0.63782082637E+02  0.99209883101E+03  0.15294330000E+03 0.  0.
<mgrwt>
<rscale>  0 0.11287973E+04</rscale>
<asrwt>0</asrwt>
<pdfrwt beam="1">  1        2 0.25008565E+00 0.11792415E+04</pdfrwt>
<pdfrwt beam="2">  1       -2 0.12013732E+00 0.11792415E+04</pdfrwt>
<totfact> 0.55815777E+00</totfact>
</mgrwt>
</event>
<event>
 4    5  0.7289609E-008  0.7410605E+03  0.7818608E-02  0.9856869E-01
         -2   -1    0    0    0  501 -0.00000000000E+00  0.00000000000E+00  0.26643526382E+03  0.26643526383E+03  0.25500000000E-02 0.  1.
          2   -1    0    0  501    0  0.00000000000E+00 -0.00000000000E+00 -0.34848284727E+04  0.34848284727E+04  0.25500000000E-02 0. -1.
    8880023    1    1    2    0    0  0.32767031966E+03  0.89401822460E+02 -0.28446317860E+03  0.79378210517E+03  0.65864270000E+03 0.  1.
    8880022    1    1    2    0    0 -0.32767031966E+03 -0.89401822460E+02 -0.29339300303E+04  0.29574816314E+04  0.15294330000E+03 0.  0.
<mgrwt>
<rscale>  0 0.62397939E+03</rscale>
<asrwt>0</asrwt>
<pdfrwt beam="1">  1        2 0.53612743E+00 0.74106054E+03</pdfrwt>
<pdfrwt beam="2">  1       -2 0.40990043E-01 0.74106054E+03</pdfrwt>
<totfact> 0.50958612E+00</totfact>
</mgrwt>
</event>
<event>
 4    5  0.7289609E-008  0.1130720E+04  0.7818608E-02  0.9227600E-01
          2   -1    0    0  501    0  0.00000000000E+00  0.00000000000E+00  0.24416833590E+04  0.24416833590E+04  0.25500000000E-02 0. -1.
         -2   -1    0    0    0  501 -0.00000000000E+00 -0.00000000000E+00 -0.56948544490E+03  0.56948544490E+03  0.25500000000E-02 0.  1.
    8880023    1    1    2    0    0  0.24817318088E+03 -0.88494493903E+03  0.27756501881E+03  0.11642894910E+04  0.65864270000E+03 0.  1.
    8880022    1    1    2    0    0 -0.24817318088E+03  0.88494493903E+03  0.15946328953E+04  0.18468793129E+04  0.15294330000E+03 0.  0.
<mgrwt>
<rscale>  0 0.10773035E+04</rscale>
<asrwt>0</asrwt>
<pdfrwt beam="1">  1        2 0.37564359E+00 0.11307200E+04</pdfrwt>
<pdfrwt beam="2">  1       -2 0.87613146E-01 0.11307200E+04</pdfrwt>
<totfact> 0.41969072E+00</totfact>
</mgrwt>
</event>
<event>
 4    5  0.7289609E-008  0.6941650E+03  0.7818608E-02  0.1002233E+00
         -2   -1    0    0    0  501 -0.00000000000E+00  0.00000000000E+00  0.44264634032E+03  0.44264634032E+03  0.25500000000E-02 0.  1.
          2   -1    0    0  501    0  0.00000000000E+00 -0.00000000000E+00 -0.29771173318E+04  0.29771173318E+04  0.25500000000E-02 0. -1.
    8880023    1    1    2    0    0 -0.18597517064E+03  0.11605222887E+03  0.15975508206E+03  0.71231087064E+03  0.65864270000E+03 0.  1.
    8880022    1    1    2    0    0  0.18597517064E+03 -0.11605222887E+03 -0.26942260735E+04  0.27074528015E+04  0.15294330000E+03 0.  0.
<mgrwt>
<rscale>  0 0.54682039E+03</rscale>
<asrwt>0</asrwt>
<pdfrwt beam="1">  1        2 0.45801804E+00 0.69416503E+03</pdfrwt>
<pdfrwt beam="2">  1       -2 0.68099439E-01 0.69416503E+03</pdfrwt>
<totfact> 0.38299472E+00</totfact>
</mgrwt>
</event>
<event>
 4    5  0.7289609E-008  0.7897279E+03  0.7818608E-02  0.9733463E-01
         -2   -1    0    0    0  501 -0.00000000000E+00  0.00000000000E+00  0.32977412830E+03  0.32977412831E+03  0.25500000000E-02 0.  1.
          2   -1    0    0  501    0  0.00000000000E+00 -0.00000000000E+00 -0.25073916607E+04  0.25073916607E+04  0.25500000000E-02 0. -1.
    8880023    1    1    2    0    0 -0.28043881007E+03 -0.33348758890E+03 -0.21151981851E+03  0.81756390455E+03  0.65864270000E+03 0.  0.
    8880022    1    1    2    0    0  0.28043881007E+03  0.33348758890E+03 -0.19660977139E+04  0.20196018844E+04  0.15294330000E+03 0.  0.
<mgrwt>
<rscale>  0 0.69058895E+03</rscale>
<asrwt>0</asrwt>
<pdfrwt beam="1">  1        2 0.38575255E+00 0.78972787E+03</pdfrwt>
<pdfrwt beam="2">  1       -2 0.50734483E-01 0.78972787E+03</pdfrwt>
<totfact> 0.13183749E+01</totfact>
</mgrwt>
</event>
<event>
 4    5  0.7289609E-008  0.7231882E+03  0.7818608E-02  0.9911942E-01
          2   -1    0    0  501    0  0.00000000000E+00  0.00000000000E+00  0.32588303449E+04  0.32588303449E+04  0.25500000000E-02 0. -1.
         -2   -1    0    0    0  501 -0.00000000000E+00 -0.00000000000E+00 -0.79270031727E+03  0.79270031728E+03  0.25500000000E-02 0.  1.
    8880023    1    1    2    0    0 -0.13739509905E+02  0.29833232293E+03 -0.61673850810E+03  0.95045649173E+03  0.65864270000E+03 0.  1.
    8880022    1    1    2    0    0  0.13739509905E+02 -0.29833232293E+03  0.30828685357E+04  0.31010741705E+04  0.15294330000E+03 0.  0.
<mgrwt>
<rscale>  0 0.59685990E+03</rscale>
<asrwt>0</asrwt>
<pdfrwt beam="1">  1        2 0.50135851E+00 0.72318819E+03</pdfrwt>
<pdfrwt beam="2">  1       -2 0.12195390E+00 0.72318819E+03</pdfrwt>
<totfact> 0.65695329E-01</totfact>
</mgrwt>
</event>
<event>
 4    5  0.7289609E-008  0.9998718E+03  0.7818608E-02  0.9381725E-01
         -2   -1    0    0    0  501 -0.00000000000E+00  0.00000000000E+00  0.39007792423E+03  0.39007792424E+03  0.25500000000E-02 0.  1.
          2   -1    0    0  501    0  0.00000000000E+00 -0.00000000000E+00 -0.30463059727E+04  0.30463059727E+04  0.25500000000E-02 0. -1.
    8880023    1    1    2    0    0  0.73493479581E+03  0.16063727791E+03 -0.44265806684E+03  0.10934760443E+04  0.65864270000E+03 0.  0.
    8880022    1    1    2    0    0 -0.73493479581E+03 -0.16063727791E+03 -0.22135699816E+04  0.23429078526E+04  0.15294330000E+03 0.  0.
<mgrwt>
<rscale>  0 0.93594995E+03</rscale>
<asrwt>0</asrwt>
<pdfrwt beam="1">  1        2 0.46866244E+00 0.99987184E+03</pdfrwt>
<pdfrwt beam="2">  1       -2 0.60011990E-01 0.99987184E+03</pdfrwt>
<totfact> 0.43155081E+00</totfact>
</mgrwt>
</event>
<event>
 4    5  0.7289609E-008  0.9249681E+03  0.7818608E-02  0.9487083E-01
         -2   -1    0    0    0  501 -0.00000000000E+00  0.00000000000E+00  0.70053146054E+03  0.70053146055E+03  0.25500000000E-02 0.  1.
          2   -1    0    0  501    0  0.00000000000E+00 -0.00000000000E+00 -0.17281472627E+04  0.17281472627E+04  0.25500000000E-02 0. -1.
    8880023    1    1    2    0    0  0.59984976540E+03  0.24886954166E+03  0.27513129054E+03  0.96501980452E+03  0.65864270000E+03 0.  0.
    8880022    1    1    2    0    0 -0.59984976540E+03 -0.24886954166E+03 -0.13027470927E+04  0.14636589187E+04  0.15294330000E+03 0.  0.
<mgrwt>
<rscale>  0 0.85242868E+03</rscale>
<asrwt>0</asrwt>
<pdfrwt beam="1">  1        2 0.26586881E+00 0.92496811E+03</pdfrwt>
<pdfrwt beam="2">  1       -2 0.10777407E+00 0.92496811E+03</pdfrwt>
<totfact> 0.65663953E+00</totfact>
</mgrwt>
</event>
<event>
 4    5  0.7289609E-008  0.7049760E+03  0.7818608E-02  0.9977153E-01
         -2   -1    0    0    0  501 -0.00000000000E+00  0.00000000000E+00  0.15051279826E+04  0.15051279826E+04  0.25500000000E-02 0.  1.
          2   -1    0    0  501    0  0.00000000000E+00 -0.00000000000E+00 -0.76736402790E+03  0.76736402791E+03  0.25500000000E-02 0. -1.
    8880023    1    1    2    0    0 -0.24351512559E+03  0.62299853044E+02  0.13891165807E+04  0.15577663397E+04  0.65864270000E+03 0.  1.
    8880022    1    1    2    0    0  0.24351512559E+03 -0.62299853044E+02 -0.65135262601E+03  0.71472567080E+03  0.15294330000E+03 0.  0.
<mgrwt>
<rscale>  0 0.56663481E+03</rscale>
<asrwt>0</asrwt>
<pdfrwt beam="1">  1        2 0.11805601E+00 0.70497595E+03</pdfrwt>
<pdfrwt beam="2">  1       -2 0.23155815E+00 0.70497595E+03</pdfrwt>
<totfact> 0.31473524E+00</totfact>
</mgrwt>
</event>
<event>
 4    5  0.7289609E-008  0.8021148E+03  0.7818608E-02  0.9706242E-01
          2   -1    0    0  501    0  0.00000000000E+00  0.00000000000E+00  0.29528885074E+04  0.29528885074E+04  0.25500000000E-02 0. -1.
         -2   -1    0    0    0  501 -0.00000000000E+00 -0.00000000000E+00 -0.25448645084E+03  0.25448645085E+03  0.25500000000E-02 0.  1.
    8880023    1    1    2    0    0 -0.25878752635E+03 -0.37763336232E+03  0.47504934262E+03  0.93223388928E+03  0.65864270000E+03 0.  1.
    8880022    1    1    2    0    0  0.25878752635E+03  0.37763336232E+03  0.22233527139E+04  0.22751410690E+04  0.15294330000E+03 0.  0.
<mgrwt>
<rscale>  0 0.70646362E+03</rscale>
<asrwt>0</asrwt>
<pdfrwt beam="1">  1        2 0.45429054E+00 0.80211480E+03</pdfrwt>
<pdfrwt beam="2">  1       -2 0.39151761E-01 0.80211480E+03</pdfrwt>
<totfact> 0.12083093E+01</totfact>
</mgrwt>
</event>
<event>
 4    5  0.7289609E-008  0.7209596E+03  0.7818608E-02  0.9919352E-01
          2   -1    0    0  501    0  0.00000000000E+00  0.00000000000E+00  0.39648810438E+04  0.39648810438E+04  0.25500000000E-02 0. -1.
         -2   -1    0    0    0  501 -0.00000000000E+00 -0.00000000000E+00 -0.26783233552E+03  0.26783233553E+03  0.25500000000E-02 0.  1.
    8880023    1    1    2    0    0  0.29306996049E+03 -0.90833918984E+01  0.23996160500E+03  0.75984491042E+03  0.65864270000E+03 0.  1.
    8880022    1    1    2    0    0 -0.29306996049E+03  0.90833918984E+01  0.34570871032E+04  0.34728684689E+04  0.15294330000E+03 0.  0.
<mgrwt>
<rscale>  0 0.59332489E+03</rscale>
<asrwt>0</asrwt>
<pdfrwt beam="1">  1        2 0.60998168E+00 0.72095958E+03</pdfrwt>
<pdfrwt beam="2">  1       -2 0.41204976E-01 0.72095958E+03</pdfrwt>
<totfact> 0.22714553E+00</totfact>
</mgrwt>
</event>
<event>
 4    5  0.7289609E-008  0.9216457E+03  0.7818608E-02  0.9492140E-01
          2   -1    0    0  501    0  0.00000000000E+00  0.00000000000E+00  0.10367476523E+04  0.10367476523E+04  0.25500000000E-02 0. -1.
         -2   -1    0    0    0  501 -0.00000000000E+00 -0.00000000000E+00 -0.85265531638E+03  0.85265531638E+03  0.25500000000E-02 0.  1.
    8880023    1    1    2    0    0 -0.47337576423E+03 -0.43764831553E+03 -0.40134174599E+03  0.10052393076E+04  0.65864270000E+03 0.  0.
    8880022    1    1    2    0    0  0.47337576423E+03  0.43764831553E+03  0.58543408190E+03  0.88416366104E+03  0.15294330000E+03 0.  0.
<mgrwt>
<rscale>  0 0.84865779E+03</rscale>
<asrwt>0</asrwt>
<pdfrwt beam="1">  1        2 0.15949964E+00 0.92164574E+03</pdfrwt>
<pdfrwt beam="2">  1       -2 0.13117774E+00 0.92164574E+03</pdfrwt>
<totfact> 0.10121594E+01</totfact>
</mgrwt>
</event>
<event>
 4    5  0.7289609E-008  0.8746466E+03  0.7818608E-02  0.9568023E-01
          2   -1    0    0  501    0  0.00000000000E+00  0.00000000000E+00  0.18250146026E+04  0.18250146026E+04  0.25500000000E-02 0. -1.
         -2   -1    0    0    0  501 -0.00000000000E+00 -0.00000000000E+00 -0.38501121998E+03  0.38501121999E+03  0.25500000000E-02 0.  1.
    8880023    1    1    2    0    0  0.23929638159E+03  0.52338674196E+03  0.30141735748E+03  0.92512651543E+03  0.65864270000E+03 0.  0.
    8880022    1    1    2    0    0 -0.23929638159E+03 -0.52338674196E+03  0.11385860252E+04  0.12848993072E+04  0.15294330000E+03 0.  0.
<mgrwt>
<rscale>  0 0.79449281E+03</rscale>
<asrwt>0</asrwt>
<pdfrwt beam="1">  1        2 0.28077148E+00 0.87464658E+03</pdfrwt>
<pdfrwt beam="2">  1       -2 0.59232495E-01 0.87464658E+03</pdfrwt>
<totfact> 0.22566853E+01</totfact>
</mgrwt>
</event>
<event>
 4    5  0.7289609E-008  0.7596882E+03  0.7818608E-02  0.9805915E-01
         -2   -1    0    0    0  501 -0.00000000000E+00  0.00000000000E+00  0.96871524309E+03  0.96871524309E+03  0.25500000000E-02 0.  1.
          2   -1    0    0  501    0  0.00000000000E+00 -0.00000000000E+00 -0.15112225602E+04  0.15112225602E+04  0.25500000000E-02 0. -1.
    8880023    1    1    2    0    0  0.37047876089E+03 -0.77855576209E+02  0.78419556109E+03  0.10918282316E+04  0.65864270000E+03 0.  1.
    8880022    1    1    2    0    0 -0.37047876089E+03  0.77855576209E+02 -0.13267028782E+04  0.13881095717E+04  0.15294330000E+03 0.  0.
<mgrwt>
<rscale>  0 0.65046060E+03</rscale>
<asrwt>0</asrwt>
<pdfrwt beam="1">  1        2 0.23249578E+00 0.75968823E+03</pdfrwt>
<pdfrwt beam="2">  1       -2 0.14903311E+00 0.75968823E+03</pdfrwt>
<totfact> 0.39091489E+00</totfact>
</mgrwt>
</event>
<event>
 4    5  0.7289609E-008  0.1932656E+04  0.7818608E-02  0.8652501E-01
         -2   -1    0    0    0  501 -0.00000000000E+00  0.00000000000E+00  0.23433772433E+04  0.23433772434E+04  0.25500000000E-02 0.  1.
          2   -1    0    0  501    0  0.00000000000E+00 -0.00000000000E+00 -0.21397442552E+04  0.21397442552E+04  0.25500000000E-02 0. -1.
    8880023    1    1    2    0    0 -0.15533371614E+04 -0.94259913827E+03  0.13243302480E+04  0.23428636931E+04  0.65864270000E+03 0.  0.
    8880022    1    1    2    0    0  0.15533371614E+04  0.94259913827E+03 -0.11206972599E+04  0.21402578054E+04  0.15294330000E+03 0.  0.
<mgrwt>
<rscale>  0 0.19047399E+04</rscale>
<asrwt>0</asrwt>
<pdfrwt beam="1">  1        2 0.32919142E+00 0.19326561E+04</pdfrwt>
<pdfrwt beam="2">  1       -2 0.36051958E+00 0.19326561E+04</pdfrwt>
<totfact> 0.66503471E-02</totfact>
</mgrwt>
</event>
<event>
 4    5  0.7289609E-008  0.1885229E+04  0.7818608E-02  0.8676800E-01
          2   -1    0    0  501    0  0.00000000000E+00  0.00000000000E+00  0.21892069178E+04  0.21892069178E+04  0.25500000000E-02 0. -1.
         -2   -1    0    0    0  501 -0.00000000000E+00 -0.00000000000E+00 -0.16145310609E+04  0.16145310609E+04  0.25500000000E-02 0.  1.
    8880023    1    1    2    0    0 -0.17398672196E+04 -0.30519147919E+03  0.73505002333E+03  0.20234595434E+04  0.65864270000E+03 0.  0.
    8880022    1    1    2    0    0  0.17398672196E+04  0.30519147919E+03 -0.16037416648E+03  0.17802784353E+04  0.15294330000E+03 0.  0.
<mgrwt>
<rscale>  0 0.18565335E+04</rscale>
<asrwt>0</asrwt>
<pdfrwt beam="1">  1        2 0.33680107E+00 0.18852294E+04</pdfrwt>
<pdfrwt beam="2">  1       -2 0.24838939E+00 0.18852294E+04</pdfrwt>
<totfact> 0.31039960E-01</totfact>
</mgrwt>
</event>
<event>
 4    5  0.7289609E-008  0.7458414E+03  0.7818608E-02  0.9843247E-01
          2   -1    0    0  501    0  0.00000000000E+00  0.00000000000E+00  0.12571618094E+04  0.12571618094E+04  0.25500000000E-02 0. -1.
         -2   -1    0    0    0  501 -0.00000000000E+00 -0.00000000000E+00 -0.42055185800E+03  0.42055185801E+03  0.25500000000E-02 0.  1.
    8880023    1    1    2    0    0 -0.27810537547E+03 -0.21243033741E+03 -0.13275211428E+02  0.74595957372E+03  0.65864270000E+03 0.  1.
    8880022    1    1    2    0    0  0.27810537547E+03  0.21243033741E+03  0.84988516284E+03  0.93175409371E+03  0.15294330000E+03 0.  0.
<mgrwt>
<rscale>  0 0.63092428E+03</rscale>
<asrwt>0</asrwt>
<pdfrwt beam="1">  1        2 0.19340951E+00 0.74584144E+03</pdfrwt>
<pdfrwt beam="2">  1       -2 0.64700285E-01 0.74584144E+03</pdfrwt>
<totfact> 0.39373444E+01</totfact>
</mgrwt>
</event>
<event>
 4    5  0.7289609E-008  0.7180144E+03  0.7818608E-02  0.9929363E-01
         -2   -1    0    0    0  501 -0.00000000000E+00  0.00000000000E+00  0.17181578437E+03  0.17181578438E+03  0.25500000000E-02 0.  1.
          2   -1    0    0  501    0  0.00000000000E+00 -0.00000000000E+00 -0.19928347924E+04  0.19928347924E+04  0.25500000000E-02 0. -1.
    8880023    1    1    2    0    0 -0.23536766600E+03  0.16228545291E+03 -0.71978949857E+03  0.10166816783E+04  0.65864270000E+03 0.  0.
    8880022    1    1    2    0    0  0.23536766600E+03 -0.16228545291E+03 -0.11012295095E+04  0.11479688986E+04  0.15294330000E+03 0.  0.
<mgrwt>
<rscale>  0 0.58859115E+03</rscale>
<asrwt>0</asrwt>
<pdfrwt beam="1">  1        2 0.30658995E+00 0.71801442E+03</pdfrwt>
<pdfrwt beam="2">  1       -2 0.26433199E-01 0.71801442E+03</pdfrwt>
<totfact> 0.89964943E+01</totfact>
</mgrwt>
</event>
<event>
 4    5  0.7289609E-008  0.7490523E+03  0.7818608E-02  0.9834322E-01
         -2   -1    0    0    0  501 -0.00000000000E+00  0.00000000000E+00  0.15238056984E+04  0.15238056984E+04  0.25500000000E-02 0.  1.
          2   -1    0    0  501    0  0.00000000000E+00 -0.00000000000E+00 -0.48497048663E+03  0.48497048664E+03  0.25500000000E-02 0. -1.
    8880023    1    1    2    0    0  0.35665637032E+03  0.80815351254E+01  0.13280475567E+04  0.15247260727E+04  0.65864270000E+03 0.  1.
    8880022    1    1    2    0    0 -0.35665637032E+03 -0.80815351254E+01 -0.28921234498E+03  0.48405011228E+03  0.15294330000E+03 0.  0.
<mgrwt>
<rscale>  0 0.63552713E+03</rscale>
<asrwt>0</asrwt>
<pdfrwt beam="1">  1        2 0.74610844E-01 0.74905226E+03</pdfrwt>
<pdfrwt beam="2">  1       -2 0.23443165E+00 0.74905226E+03</pdfrwt>
<totfact> 0.52500192E+00</totfact>
</mgrwt>
</event>
<event>
 4    5  0.7289609E-008  0.8037944E+03  0.7818608E-02  0.9702651E-01
         -2   -1    0    0    0  501 -0.00000000000E+00  0.00000000000E+00  0.18348345931E+03  0.18348345933E+03  0.25500000000E-02 0.  1.
          2   -1    0    0  501    0  0.00000000000E+00 -0.00000000000E+00 -0.28092080921E+04  0.28092080921E+04  0.25500000000E-02 0. -1.
    8880023    1    1    2    0    0 -0.17295099291E+03 -0.42704005532E+03 -0.93183356947E+03  0.12306093053E+04  0.65864270000E+03 0.  1.
    8880022    1    1    2    0    0  0.17295099291E+03  0.42704005532E+03 -0.16938910633E+04  0.17620822462E+04  0.15294330000E+03 0.  0.
<mgrwt>
<rscale>  0 0.70859170E+03</rscale>
<asrwt>0</asrwt>
<pdfrwt beam="1">  1        2 0.43218583E+00 0.80379441E+03</pdfrwt>
<pdfrwt beam="2">  1       -2 0.28228227E-01 0.80379441E+03</pdfrwt>
<totfact> 0.27348013E+01</totfact>
</mgrwt>
</event>
<event>
 4    5  0.7289609E-008  0.1166113E+04  0.7818608E-02  0.9190788E-01
          2   -1    0    0  501    0  0.00000000000E+00  0.00000000000E+00  0.47784084384E+04  0.47784084384E+04  0.25500000000E-02 0. -1.
         -2   -1    0    0    0  501 -0.00000000000E+00 -0.00000000000E+00 -0.38139377619E+03  0.38139377620E+03  0.25500000000E-02 0.  1.
    8880023    1    1    2    0    0  0.60998695294E+03  0.74426111477E+03  0.75378984224E+03  0.13885308863E+04  0.65864270000E+03 0.  0.
    8880022    1    1    2    0    0 -0.60998695294E+03 -0.74426111477E+03  0.36432248199E+04  0.37712713282E+04  0.15294330000E+03 0.  0.
<mgrwt>
<rscale>  0 0.11149017E+04</rscale>
<asrwt>0</asrwt>
<pdfrwt beam="1">  1        2 0.73513974E+00 0.11661127E+04</pdfrwt>
<pdfrwt beam="2">  1       -2 0.58675967E-01 0.11661127E+04</pdfrwt>
<totfact> 0.18020041E-01</totfact>
</mgrwt>
</event>
<event>
 4    5  0.7289609E-008  0.7849727E+03  0.7818608E-02  0.9744283E-01
          2   -1    0    0  501    0  0.00000000000E+00  0.00000000000E+00  0.23690371101E+04  0.23690371101E+04  0.25500000000E-02 0. -1.
         -2   -1    0    0    0  501 -0.00000000000E+00 -0.00000000000E+00 -0.43761390399E+03  0.43761390400E+03  0.25500000000E-02 0.  1.
    8880023    1    1    2    0    0  0.41693515950E+03  0.92396274348E+02 -0.37776375519E+02  0.78588119939E+03  0.65864270000E+03 0.  1.
    8880022    1    1    2    0    0 -0.41693515950E+03 -0.92396274348E+02  0.19691995816E+04  0.20207698147E+04  0.15294330000E+03 0.  0.
<mgrwt>
<rscale>  0 0.68440317E+03</rscale>
<asrwt>0</asrwt>
<pdfrwt beam="1">  1        2 0.36446725E+00 0.78497274E+03</pdfrwt>
<pdfrwt beam="2">  1       -2 0.67325216E-01 0.78497274E+03</pdfrwt>
<totfact> 0.87092836E+00</totfact>
</mgrwt>
</event>
<event>
 4    5  0.7289609E-008  0.8489273E+03  0.7818608E-02  0.9613571E-01
          2   -1    0    0  501    0  0.00000000000E+00  0.00000000000E+00  0.13317030644E+04  0.13317030644E+04  0.25500000000E-02 0. -1.
         -2   -1    0    0    0  501 -0.00000000000E+00 -0.00000000000E+00 -0.56095539785E+03  0.56095539786E+03  0.25500000000E-02 0.  1.
    8880023    1    1    2    0    0  0.33892265599E+03 -0.41472741016E+03 -0.10436154447E+03  0.85531802840E+03  0.65864270000E+03 0.  1.
    8880022    1    1    2    0    0 -0.33892265599E+03  0.41472741016E+03  0.87510921100E+03  0.10373404338E+04  0.15294330000E+03 0.  0.
<mgrwt>
<rscale>  0 0.76404412E+03</rscale>
<asrwt>0</asrwt>
<pdfrwt beam="1">  1        2 0.20487739E+00 0.84892732E+03</pdfrwt>
<pdfrwt beam="2">  1       -2 0.86300831E-01 0.84892732E+03</pdfrwt>
<totfact> 0.18625417E+01</totfact>
</mgrwt>
</event>
<event>
 4    5  0.7289609E-008  0.1118309E+04  0.7818608E-02  0.9240940E-01
          2   -1    0    0  501    0  0.00000000000E+00  0.00000000000E+00  0.10497900020E+04  0.10497900020E+04  0.25500000000E-02 0. -1.
         -2   -1    0    0    0  501 -0.00000000000E+00 -0.00000000000E+00 -0.27652006793E+04  0.27652006793E+04  0.25500000000E-02 0.  1.
    8880023    1    1    2    0    0 -0.22587570754E+03 -0.87509138886E+03 -0.24153552390E+04  0.26616829095E+04  0.65864270000E+03 0.  0.
    8880022    1    1    2    0    0  0.22587570754E+03  0.87509138886E+03  0.69994456164E+03  0.11533077718E+04  0.15294330000E+03 0.  0.
<mgrwt>
<rscale>  0 0.10640670E+04</rscale>
<asrwt>0</asrwt>
<pdfrwt beam="1">  1        2 0.16150615E+00 0.11183090E+04</pdfrwt>
<pdfrwt beam="2">  1       -2 0.42541549E+00 0.11183090E+04</pdfrwt>
<totfact> 0.11800476E-01</totfact>
</mgrwt>
</event>
<event>
 4    5  0.7289609E-008  0.7222482E+03  0.7818608E-02  0.9915051E-01
          2   -1    0    0  501    0  0.00000000000E+00  0.00000000000E+00  0.19523391186E+04  0.19523391186E+04  0.25500000000E-02 0. -1.
         -2   -1    0    0    0  501 -0.00000000000E+00 -0.00000000000E+00 -0.21000394287E+03  0.21000394289E+03  0.25500000000E-02 0.  1.
    8880023    1    1    2    0    0 -0.67031836327E+02 -0.28868499854E+03  0.16722513028E+04  0.18215561813E+04  0.65864270000E+03 0. -1.
    8880022    1    1    2    0    0  0.67031836327E+02  0.28868499854E+03  0.70083872883E+02  0.34078688020E+03  0.15294330000E+03 0.  0.
<mgrwt>
<rscale>  0 0.59537371E+03</rscale>
<asrwt>0</asrwt>
<pdfrwt beam="1">  1        2 0.30035985E+00 0.72224823E+03</pdfrwt>
<pdfrwt beam="2">  1       -2 0.32308300E-01 0.72224823E+03</pdfrwt>
<totfact> 0.65296593E+01</totfact>
</mgrwt>
</event>
<event>
 4    5  0.7289609E-008  0.1220527E+04  0.7818608E-02  0.9137423E-01
          2   -1    0    0  501    0  0.00000000000E+00  0.00000000000E+00  0.16733236846E+04  0.16733236846E+04  0.25500000000E-02 0. -1.
         -2   -1    0    0    0  501 -0.00000000000E+00 -0.00000000000E+00 -0.19327616262E+04  0.19327616262E+04  0.25500000000E-02 0.  1.
    8880023    1    1    2    0    0 -0.95481026039E+03 -0.37975364797E+03 -0.15349323315E+04  0.19610463878E+04  0.65864270000E+03 0.  0.
    8880022    1    1    2    0    0  0.95481026039E+03  0.37975364797E+03  0.12754943899E+04  0.16450389230E+04  0.15294330000E+03 0.  0.
<mgrwt>
<rscale>  0 0.11723347E+04</rscale>
<asrwt>0</asrwt>
<pdfrwt beam="1">  1        2 0.25743441E+00 0.12205268E+04</pdfrwt>
<pdfrwt beam="2">  1       -2 0.29734794E+00 0.12205268E+04</pdfrwt>
<totfact> 0.32566810E-01</totfact>
</mgrwt>
</event>
<event>
 4    5  0.7289609E-008  0.1558240E+04  0.7818608E-02  0.8869569E-01
          2   -1    0    0  501    0  0.00000000000E+00  0.00000000000E+00  0.15737270413E+04  0.15737270413E+04  0.25500000000E-02 0. -1.
         -2   -1    0    0    0  501 -0.00000000000E+00 -0.00000000000E+00 -0.15280987277E+04  0.15280987277E+04  0.25500000000E-02 0.  1.
    8880023    1    1    2    0    0 -0.12338873694E+04  0.68689370439E+03 -0.40786792025E+03  0.16107350645E+04  0.65864270000E+03 0.  0.
    8880022    1    1    2    0    0  0.12338873694E+04 -0.68689370439E+03  0.45349623385E+03  0.14910907044E+04  0.15294330000E+03 0.  0.
<mgrwt>
<rscale>  0 0.15225887E+04</rscale>
<asrwt>0</asrwt>
<pdfrwt beam="1">  1        2 0.24211185E+00 0.15582398E+04</pdfrwt>
<pdfrwt beam="2">  1       -2 0.23509211E+00 0.15582398E+04</pdfrwt>
<totfact> 0.85708012E-01</totfact>
</mgrwt>
</event>
<event>
 4    5  0.7289609E-008  0.1420589E+04  0.7818608E-02  0.8967848E-01
         -2   -1    0    0    0  501 -0.00000000000E+00  0.00000000000E+00  0.13396302209E+04  0.13396302209E+04  0.25500000000E-02 0.  1.
          2   -1    0    0  501    0  0.00000000000E+00 -0.00000000000E+00 -0.18330008968E+04  0.18330008968E+04  0.25500000000E-02 0. -1.
    8880023    1    1    2    0    0 -0.12448527206E+04  0.18602146264E+03  0.55725552551E+03  0.15259771320E+04  0.65864270000E+03 0.  0.
    8880022    1    1    2    0    0  0.12448527206E+04 -0.18602146264E+03 -0.10506262015E+04  0.16466539857E+04  0.15294330000E+03 0.  0.
<mgrwt>
<rscale>  0 0.13807828E+04</rscale>
<asrwt>0</asrwt>
<pdfrwt beam="1">  1        2 0.28200014E+00 0.14205888E+04</pdfrwt>
<pdfrwt beam="2">  1       -2 0.20609696E+00 0.14205888E+04</pdfrwt>
<totfact> 0.95073946E-01</totfact>
</mgrwt>
</event>
<event>
 4    5  0.7289609E-008  0.9272478E+03  0.7818608E-02  0.9483634E-01
         -2   -1    0    0    0  501 -0.00000000000E+00  0.00000000000E+00  0.30382723381E+03  0.30382723382E+03  0.25500000000E-02 0.  1.
          2   -1    0    0  501    0  0.00000000000E+00 -0.00000000000E+00 -0.26411125460E+04  0.26411125460E+04  0.25500000000E-02 0. -1.
    8880023    1    1    2    0    0 -0.55043042865E+03 -0.35072008799E+03 -0.65855055861E+03  0.11373114268E+04  0.65864270000E+03 0.  0.
    8880022    1    1    2    0    0  0.55043042865E+03  0.35072008799E+03 -0.16787347536E+04  0.18076283531E+04  0.15294330000E+03 0.  0.
<mgrwt>
<rscale>  0 0.85501227E+03</rscale>
<asrwt>0</asrwt>
<pdfrwt beam="1">  1        2 0.40632499E+00 0.92724778E+03</pdfrwt>
<pdfrwt beam="2">  1       -2 0.46742653E-01 0.92724778E+03</pdfrwt>
<totfact> 0.12792541E+01</totfact>
</mgrwt>
</event>
<event>
 4    5  0.7289609E-008  0.9687443E+03  0.7818608E-02  0.9423643E-01
         -2   -1    0    0    0  501 -0.00000000000E+00  0.00000000000E+00  0.67998375706E+03  0.67998375706E+03  0.25500000000E-02 0.  1.
          2   -1    0    0  501    0  0.00000000000E+00 -0.00000000000E+00 -0.28153728180E+04  0.28153728180E+04  0.25500000000E-02 0. -1.
    8880023    1    1    2    0    0  0.65555790608E+03 -0.27367725265E+03  0.25104096449E+03  0.10007433132E+04  0.65864270000E+03 0.  1.
    8880022    1    1    2    0    0 -0.65555790608E+03  0.27367725265E+03 -0.23864300255E+04  0.24946132619E+04  0.15294330000E+03 0.  0.
<mgrwt>
<rscale>  0 0.90155238E+03</rscale>
<asrwt>0</asrwt>
<pdfrwt beam="1">  1        2 0.43313427E+00 0.96874435E+03</pdfrwt>
<pdfrwt beam="2">  1       -2 0.10461289E+00 0.96874435E+03</pdfrwt>
<totfact> 0.17118099E+00</totfact>
</mgrwt>
</event>
<event>
 4    5  0.7289609E-008  0.1232193E+04  0.7818608E-02  0.9126446E-01
         -2   -1    0    0    0  501 -0.00000000000E+00  0.00000000000E+00  0.81185653368E+03  0.81185653368E+03  0.25500000000E-02 0.  1.
          2   -1    0    0  501    0  0.00000000000E+00 -0.00000000000E+00 -0.23605909631E+04  0.23605909631E+04  0.25500000000E-02 0. -1.
    8880023    1    1    2    0    0 -0.62547499402E+03 -0.83262887402E+03 -0.17099018702E+04  0.21076205593E+04  0.65864270000E+03 0. -1.
    8880022    1    1    2    0    0  0.62547499402E+03  0.83262887402E+03  0.16116744071E+03  0.10648269376E+04  0.15294330000E+03 0.  0.
<mgrwt>
<rscale>  0 0.11845974E+04</rscale>
<asrwt>0</asrwt>
<pdfrwt beam="1">  1        2 0.36316784E+00 0.12321932E+04</pdfrwt>
<pdfrwt beam="2">  1       -2 0.12490101E+00 0.12321932E+04</pdfrwt>
<totfact> 0.19614515E+00</totfact>
</mgrwt>
</event>
<event>
 4    5  0.7289609E-008  0.1054340E+04  0.7818608E-02  0.9313682E-01
          2   -1    0    0  501    0  0.00000000000E+00  0.00000000000E+00  0.30572195139E+04  0.30572195139E+04  0.25500000000E-02 0. -1.
         -2   -1    0    0    0  501 -0.00000000000E+00 -0.00000000000E+00 -0.62684949570E+03  0.62684949571E+03  0.25500000000E-02 0.  1.
    8880023    1    1    2    0    0  0.61836971697E+03  0.54354581519E+03 -0.60633669670E+02  0.10560822924E+04  0.65864270000E+03 0.  1.
    8880022    1    1    2    0    0 -0.61836971697E+03 -0.54354581519E+03  0.24910036879E+04  0.26279867173E+04  0.15294330000E+03 0.  0.
<mgrwt>
<rscale>  0 0.99532973E+03</rscale>
<asrwt>0</asrwt>
<pdfrwt beam="1">  1        2 0.47034147E+00 0.10543403E+04</pdfrwt>
<pdfrwt beam="2">  1       -2 0.96438382E-01 0.10543403E+04</pdfrwt>
<totfact> 0.14598407E+00</totfact>
</mgrwt>
</event>
<event>
 4    5  0.7709943E-008  0.7662853E+03  0.7818608E-02  0.9789099E-01
         -2   -1    0    0    0  501 -0.00000000000E+00  0.00000000000E+00  0.12600197263E+04  0.12600197263E+04  0.25500000000E-02 0.  1.
          2   -1    0    0  501    0  0.00000000000E+00 -0.00000000000E+00 -0.19466688675E+04  0.19466688675E+04  0.25500000000E-02 0. -1.
    8880023    1    1    2    0    0  0.32160523062E+03  0.22350176034E+03  0.11170582387E+04  0.13546262496E+04  0.65864270000E+03 0.  1.
    8880022    1    1    2    0    0 -0.32160523062E+03 -0.22350176034E+03 -0.18037073799E+04  0.18520623441E+04  0.15294330000E+03 0.  0.
<mgrwt>
<rscale>  0 0.65950844E+03</rscale>
<asrwt>0</asrwt>
<pdfrwt beam="1">  1        2 0.29948752E+00 0.76628530E+03</pdfrwt>
<pdfrwt beam="2">  1       -2 0.19384919E+00 0.76628530E+03</pdfrwt>
<totfact> 0.10847958E+00</totfact>
</mgrwt>
</event>
<event>
 4    5  0.7289609E-008  0.1226656E+04  0.7818608E-02  0.9131637E-01
         -2   -1    0    0    0  501 -0.00000000000E+00  0.00000000000E+00  0.13252539838E+04  0.13252539838E+04  0.25500000000E-02 0.  1.
          2   -1    0    0  501    0  0.00000000000E+00 -0.00000000000E+00 -0.11398645559E+04  0.11398645559E+04  0.25500000000E-02 0. -1.
    8880023    1    1    2    0    0 -0.90085377577E+03  0.50925084805E+03 -0.36935194587E+03  0.12810562118E+04  0.65864270000E+03 0.  0.
    8880022    1    1    2    0    0  0.90085377577E+03 -0.50925084805E+03  0.55474137378E+03  0.11840623279E+04  0.15294330000E+03 0.  0.
<mgrwt>
<rscale>  0 0.11787789E+04</rscale>
<asrwt>0</asrwt>
<pdfrwt beam="1">  1        2 0.17536378E+00 0.12266557E+04</pdfrwt>
<pdfrwt beam="2">  1       -2 0.20388523E+00 0.12266557E+04</pdfrwt>
<totfact> 0.25029729E+00</totfact>
</mgrwt>
</event>
<event>
 4    5  0.7289609E-008  0.6860748E+03  0.7818608E-02  0.1006077E+00
          2   -1    0    0  501    0  0.00000000000E+00  0.00000000000E+00  0.17106869521E+04  0.17106869521E+04  0.25500000000E-02 0. -1.
         -2   -1    0    0    0  501 -0.00000000000E+00 -0.00000000000E+00 -0.36256391432E+03  0.36256391433E+03  0.25500000000E-02 0.  1.
    8880023    1    1    2    0    0  0.82447930962E+02  0.17346693863E+03 -0.16940049378E+02  0.68628391476E+03  0.65864270000E+03 0.  1.
    8880022    1    1    2    0    0 -0.82447930962E+02 -0.17346693863E+03  0.13650630871E+04  0.13869669517E+04  0.15294330000E+03 0.  0.
<mgrwt>
<rscale>  0 0.53064044E+03</rscale>
<asrwt>0</asrwt>
<pdfrwt beam="1">  1        2 0.26318261E+00 0.68607481E+03</pdfrwt>
<pdfrwt beam="2">  1       -2 0.55779063E-01 0.68607481E+03</pdfrwt>
<totfact> 0.30237936E+01</totfact>
</mgrwt>
</event>
<event>
 4    5  0.7289609E-008  0.1543155E+04  0.7818608E-02  0.8879749E-01
          2   -1    0    0  501    0  0.00000000000E+00  0.00000000000E+00  0.24623459582E+04  0.24623459582E+04  0.25500000000E-02 0. -1.
         -2   -1    0    0    0  501 -0.00000000000E+00 -0.00000000000E+00 -0.10947860739E+04  0.10947860739E+04  0.25500000000E-02 0.  1.
    8880023    1    1    2    0    0 -0.13954094113E+04 -0.18724370570E+02 -0.73986430352E+02  0.15449279029E+04  0.65864270000E+03 0.  0.
    8880022    1    1    2    0    0  0.13954094113E+04  0.18724370570E+02  0.14415463146E+04  0.20122041291E+04  0.15294330000E+03 0.  0.
<mgrwt>
<rscale>  0 0.15070948E+04</rscale>
<asrwt>0</asrwt>
<pdfrwt beam="1">  1        2 0.37882245E+00 0.15431553E+04</pdfrwt>
<pdfrwt beam="2">  1       -2 0.16842863E+00 0.15431553E+04</pdfrwt>
<totfact> 0.75109786E-01</totfact>
</mgrwt>
</event>
<event>
 4    5  0.7289609E-008  0.9166866E+03  0.7818608E-02  0.9499758E-01
          2   -1    0    0  501    0  0.00000000000E+00  0.00000000000E+00  0.16180051928E+04  0.16180051928E+04  0.25500000000E-02 0. -1.
         -2   -1    0    0    0  501 -0.00000000000E+00 -0.00000000000E+00 -0.72553271790E+03  0.72553271790E+03  0.25500000000E-02 0.  1.
    8880023    1    1    2    0    0 -0.34054362436E+03  0.53901219434E+03  0.12856740173E+04  0.15790098134E+04  0.65864270000E+03 0.  0.
    8880022    1    1    2    0    0  0.34054362436E+03 -0.53901219434E+03 -0.39320154235E+03  0.76452809737E+03  0.15294330000E+03 0.  0.
<mgrwt>
<rscale>  0 0.84301646E+03</rscale>
<asrwt>0</asrwt>
<pdfrwt beam="1">  1        2 0.24892388E+00 0.91668659E+03</pdfrwt>
<pdfrwt beam="2">  1       -2 0.11162042E+00 0.91668659E+03</pdfrwt>
<totfact> 0.69436524E+00</totfact>
</mgrwt>
</event>
<event>
 4    5  0.7289609E-008  0.1030350E+04  0.7818608E-02  0.9342885E-01
          2   -1    0    0  501    0  0.00000000000E+00  0.00000000000E+00  0.10022870843E+04  0.10022870843E+04  0.25500000000E-02 0. -1.
         -2   -1    0    0    0  501 -0.00000000000E+00 -0.00000000000E+00 -0.26870263978E+04  0.26870263978E+04  0.25500000000E-02 0.  1.
    8880023    1    1    2    0    0 -0.77654285713E+03  0.15745467604E+03 -0.23994677757E+04  0.26113342561E+04  0.65864270000E+03 0.  0.
    8880022    1    1    2    0    0  0.77654285713E+03 -0.15745467604E+03  0.71472846225E+03  0.10779792260E+04  0.15294330000E+03 0. -1.
<mgrwt>
<rscale>  0 0.96928851E+03</rscale>
<asrwt>0</asrwt>
<pdfrwt beam="1">  1        2 0.15419801E+00 0.10303499E+04</pdfrwt>
<pdfrwt beam="2">  1       -2 0.41338867E+00 0.10303499E+04</pdfrwt>
<totfact> 0.15407185E-01</totfact>
</mgrwt>
</event>
<event>
 4    5  0.7289609E-008  0.8958276E+03  0.7818608E-02  0.9532763E-01
         -2   -1    0    0    0  501 -0.00000000000E+00  0.00000000000E+00  0.16215390959E+04  0.16215390959E+04  0.25500000000E-02 0.  1.
          2   -1    0    0  501    0  0.00000000000E+00 -0.00000000000E+00 -0.13735121331E+04  0.13735121331E+04  0.25500000000E-02 0. -1.
    8880023    1    1    2    0    0  0.14466809882E+03  0.58971863910E+03  0.14126608284E+04  0.16727575301E+04  0.65864270000E+03 0.  0.
    8880022    1    1    2    0    0 -0.14466809882E+03 -0.58971863910E+03 -0.11646338657E+04  0.13222936989E+04  0.15294330000E+03 0.  0.
<mgrwt>
<rscale>  0 0.81910837E+03</rscale>
<asrwt>0</asrwt>
<pdfrwt beam="1">  1        2 0.21130956E+00 0.89582763E+03</pdfrwt>
<pdfrwt beam="2">  1       -2 0.24946755E+00 0.89582763E+03</pdfrwt>
<totfact> 0.98329433E-01</totfact>
</mgrwt>
</event>
<event>
 4    5  0.7289609E-008  0.1091021E+04  0.7818608E-02  0.9271119E-01
         -2   -1    0    0    0  501 -0.00000000000E+00  0.00000000000E+00  0.10738591220E+04  0.10738591220E+04  0.25500000000E-02 0.  1.
          2   -1    0    0  501    0  0.00000000000E+00 -0.00000000000E+00 -0.10903408891E+04  0.10903408891E+04  0.25500000000E-02 0. -1.
    8880023    1    1    2    0    0  0.54789130075E+03 -0.67552339358E+03  0.43235032081E+03  0.11735645440E+04  0.65864270000E+03 0.  0.
    8880022    1    1    2    0    0 -0.54789130075E+03  0.67552339358E+03 -0.44883208787E+03  0.99063546718E+03  0.15294330000E+03 0.  1.
<mgrwt>
<rscale>  0 0.10348569E+04</rscale>
<asrwt>0</asrwt>
<pdfrwt beam="1">  1        2 0.16774475E+00 0.10910211E+04</pdfrwt>
<pdfrwt beam="2">  1       -2 0.16520909E+00 0.10910211E+04</pdfrwt>
<totfact> 0.50057444E+00</totfact>
</mgrwt>
</event>
<event>
 4    5  0.7289609E-008  0.1071408E+04  0.7818608E-02  0.9293578E-01
         -2   -1    0    0    0  501 -0.00000000000E+00  0.00000000000E+00  0.72325955425E+03  0.72325955425E+03  0.25500000000E-02 0.  1.
          2   -1    0    0  501    0  0.00000000000E+00 -0.00000000000E+00 -0.17252257617E+04  0.17252257617E+04  0.25500000000E-02 0. -1.
    8880023    1    1    2    0    0  0.54342027095E+03  0.64714713384E+03  0.71481828524E+02  0.10737899524E+04  0.65864270000E+03 0.  0.
    8880022    1    1    2    0    0 -0.54342027095E+03 -0.64714713384E+03 -0.10734480360E+04  0.13746953636E+04  0.15294330000E+03 0.  0.
<mgrwt>
<rscale>  0 0.10137624E+04</rscale>
<asrwt>0</asrwt>
<pdfrwt beam="1">  1        2 0.26541935E+00 0.10714081E+04</pdfrwt>
<pdfrwt beam="2">  1       -2 0.11127070E+00 0.10714081E+04</pdfrwt>
<totfact> 0.59987314E+00</totfact>
</mgrwt>
</event>
<event>
 4    5  0.7289609E-008  0.7893899E+03  0.7818608E-02  0.9734225E-01
         -2   -1    0    0    0  501 -0.00000000000E+00  0.00000000000E+00  0.47791195500E+03  0.47791195500E+03  0.25500000000E-02 0.  1.
          2   -1    0    0  501    0  0.00000000000E+00 -0.00000000000E+00 -0.21754984391E+04  0.21754984391E+04  0.25500000000E-02 0. -1.
    8880023    1    1    2    0    0 -0.22671781801E+03 -0.37138292915E+03  0.10173498737E+03  0.79591862837E+03  0.65864270000E+03 0.  1.
    8880022    1    1    2    0    0  0.22671781801E+03  0.37138292915E+03 -0.17993214715E+04  0.18574917657E+04  0.15294330000E+03 0.  0.
<mgrwt>
<rscale>  0 0.69015111E+03</rscale>
<asrwt>0</asrwt>
<pdfrwt beam="1">  1        2 0.33469206E+00 0.78938993E+03</pdfrwt>
<pdfrwt beam="2">  1       -2 0.73524917E-01 0.78938993E+03</pdfrwt>
<totfact> 0.91933545E+00</totfact>
</mgrwt>
</event>
<event>
 4    5  0.7289609E-008  0.1066012E+04  0.7818608E-02  0.9299876E-01
          2   -1    0    0  501    0  0.00000000000E+00  0.00000000000E+00  0.96803115056E+03  0.96803115056E+03  0.25500000000E-02 0. -1.
         -2   -1    0    0    0  501 -0.00000000000E+00 -0.00000000000E+00 -0.20436405388E+04  0.20436405388E+04  0.25500000000E-02 0.  1.
    8880023    1    1    2    0    0  0.79137423912E+03 -0.27621988015E+03 -0.16640283527E+04  0.19762011976E+04  0.65864270000E+03 0.  1.
    8880022    1    1    2    0    0 -0.79137423912E+03  0.27621988015E+03  0.58841896447E+03  0.10354704918E+04  0.15294330000E+03 0.  0.
<mgrwt>
<rscale>  0 0.10079424E+04</rscale>
<asrwt>0</asrwt>
<pdfrwt beam="1">  1        2 0.14892787E+00 0.10660116E+04</pdfrwt>
<pdfrwt beam="2">  1       -2 0.31440624E+00 0.10660116E+04</pdfrwt>
<totfact> 0.68271197E-01</totfact>
</mgrwt>
</event>
<event>
 4    5  0.7289609E-008  0.6892663E+03  0.7818608E-02  0.1004503E+00
         -2   -1    0    0    0  501 -0.00000000000E+00  0.00000000000E+00  0.96320581797E+03  0.96320581797E+03  0.25500000000E-02 0.  1.
          2   -1    0    0  501    0  0.00000000000E+00 -0.00000000000E+00 -0.77318534464E+03  0.77318534465E+03  0.25500000000E-02 0. -1.
    8880023    1    1    2    0    0 -0.12769096499E+03 -0.15802793266E+03  0.81160639743E+03  0.10647971453E+04  0.65864270000E+03 0.  1.
    8880022    1    1    2    0    0  0.12769096499E+03  0.15802793266E+03 -0.62158592410E+03  0.67159401732E+03  0.15294330000E+03 0.  0.
<mgrwt>
<rscale>  0 0.53718971E+03</rscale>
<asrwt>0</asrwt>
<pdfrwt beam="1">  1        2 0.11895159E+00 0.68926629E+03</pdfrwt>
<pdfrwt beam="2">  1       -2 0.14818551E+00 0.68926629E+03</pdfrwt>
<totfact> 0.11405934E+01</totfact>
</mgrwt>
</event>
<event>
 4    5  0.8384993E-008  0.8214240E+03  0.7818608E-02  0.9666255E-01
         -2   -1    0    0    0  501 -0.00000000000E+00  0.00000000000E+00  0.17167297051E+04  0.17167297051E+04  0.25500000000E-02 0.  1.
          2   -1    0    0  501    0  0.00000000000E+00 -0.00000000000E+00 -0.19999860477E+04  0.19999860477E+04  0.25500000000E-02 0. -1.
    8880023    1    1    2    0    0  0.32618173830E+03 -0.36678690295E+03  0.15816541118E+04  0.17822365427E+04  0.65864270000E+03 0.  0.
    8880022    1    1    2    0    0 -0.32618173830E+03  0.36678690295E+03 -0.18649104543E+04  0.19344792101E+04  0.15294330000E+03 0.  0.
<mgrwt>
<rscale>  0 0.73061998E+03</rscale>
<asrwt>0</asrwt>
<pdfrwt beam="1">  1        2 0.30769016E+00 0.82142399E+03</pdfrwt>
<pdfrwt beam="2">  1       -2 0.26411226E+00 0.82142399E+03</pdfrwt>
<totfact> 0.36600728E-01</totfact>
</mgrwt>
</event>
<event>
 4    5  0.7289609E-008  0.1225039E+04  0.7818608E-02  0.9133159E-01
          2   -1    0    0  501    0  0.00000000000E+00  0.00000000000E+00  0.34526189571E+04  0.34526189571E+04  0.25500000000E-02 0. -1.
         -2   -1    0    0    0  501 -0.00000000000E+00 -0.00000000000E+00 -0.42119678000E+03  0.42119678001E+03  0.25500000000E-02 0.  1.
    8880023    1    1    2    0    0  0.64530916663E+03 -0.80652669006E+03  0.96832560314E+03  0.15615293472E+04  0.65864270000E+03 0.  0.
    8880022    1    1    2    0    0 -0.64530916663E+03  0.80652669006E+03  0.20630965739E+04  0.23122863899E+04  0.15294330000E+03 0.  0.
<mgrwt>
<rscale>  0 0.11770790E+04</rscale>
<asrwt>0</asrwt>
<pdfrwt beam="1">  1        2 0.53117214E+00 0.12250385E+04</pdfrwt>
<pdfrwt beam="2">  1       -2 0.64799505E-01 0.12250385E+04</pdfrwt>
<totfact> 0.19303895E+00</totfact>
</mgrwt>
</event>
<event>
 4    5  0.7289609E-008  0.1054017E+04  0.7818608E-02  0.9314067E-01
         -2   -1    0    0    0  501 -0.00000000000E+00  0.00000000000E+00  0.10020993748E+04  0.10020993748E+04  0.25500000000E-02 0.  1.
          2   -1    0    0  501    0  0.00000000000E+00 -0.00000000000E+00 -0.12557443574E+04  0.12557443574E+04  0.25500000000E-02 0. -1.
    8880023    1    1    2    0    0 -0.81857309415E+03 -0.84147206521E+02  0.46749971638E+03  0.11530433010E+04  0.65864270000E+03 0.  0.
    8880022    1    1    2    0    0  0.81857309415E+03  0.84147206521E+02 -0.72114469901E+03  0.11048004312E+04  0.15294330000E+03 0.  0.
<mgrwt>
<rscale>  0 0.99498043E+03</rscale>
<asrwt>0</asrwt>
<pdfrwt beam="1">  1        2 0.19319144E+00 0.10540175E+04</pdfrwt>
<pdfrwt beam="2">  1       -2 0.15416914E+00 0.10540175E+04</pdfrwt>
<totfact> 0.48187815E+00</totfact>
</mgrwt>
</event>
<event>
 4    5  0.7289609E-008  0.7148537E+03  0.7818608E-02  0.9940400E-01
          2   -1    0    0  501    0  0.00000000000E+00  0.00000000000E+00  0.78235608818E+03  0.78235608818E+03  0.25500000000E-02 0. -1.
         -2   -1    0    0    0  501 -0.00000000000E+00 -0.00000000000E+00 -0.46614667814E+03  0.46614667815E+03  0.25500000000E-02 0.  1.
    8880023    1    1    2    0    0  0.11753774780E+03 -0.25177466591E+03 -0.10362949683E+03  0.72232602295E+03  0.65864270000E+03 0.  1.
    8880022    1    1    2    0    0 -0.11753774780E+03  0.25177466591E+03  0.41983890686E+03  0.52617674339E+03  0.15294330000E+03 0.  0.
<mgrwt>
<rscale>  0 0.58342649E+03</rscale>
<asrwt>0</asrwt>
<pdfrwt beam="1">  1        2 0.12036247E+00 0.71485370E+03</pdfrwt>
<pdfrwt beam="2">  1       -2 0.71714874E-01 0.71485370E+03</pdfrwt>
<totfact> 0.63542499E+01</totfact>
</mgrwt>
</event>
<event>
 4    5  0.7289609E-008  0.8301216E+03  0.7818608E-02  0.9649096E-01
          2   -1    0    0  501    0  0.00000000000E+00  0.00000000000E+00  0.44088122312E+03  0.44088122312E+03  0.25500000000E-02 0. -1.
         -2   -1    0    0    0  501 -0.00000000000E+00 -0.00000000000E+00 -0.18016580442E+04  0.18016580442E+04  0.25500000000E-02 0.  1.
    8880023    1    1    2    0    0 -0.20871593490E+03 -0.46014053232E+03 -0.14840406319E+04  0.17004347839E+04  0.65864270000E+03 0.  0.
    8880022    1    1    2    0    0  0.20871593490E+03  0.46014053232E+03  0.12326381073E+03  0.54210448349E+03  0.15294330000E+03 0.  0.
<mgrwt>
<rscale>  0 0.74130197E+03</rscale>
<asrwt>0</asrwt>
<pdfrwt beam="1">  1        2 0.67827882E-01 0.83012159E+03</pdfrwt>
<pdfrwt beam="2">  1       -2 0.27717816E+00 0.83012159E+03</pdfrwt>
<totfact> 0.31950237E+00</totfact>
</mgrwt>
</event>
<event>
 4    5  0.7289609E-008  0.1268575E+04  0.7818608E-02  0.9093184E-01
         -2   -1    0    0    0  501 -0.00000000000E+00  0.00000000000E+00  0.10320872163E+04  0.10320872163E+04  0.25500000000E-02 0.  1.
          2   -1    0    0  501    0  0.00000000000E+00 -0.00000000000E+00 -0.28595325210E+04  0.28595325210E+04  0.25500000000E-02 0. -1.
    8880023    1    1    2    0    0 -0.10588423678E+04  0.23307620665E+03 -0.23559791237E+04  0.26758025928E+04  0.65864270000E+03 0.  0.
    8880022    1    1    2    0    0  0.10588423678E+04 -0.23307620665E+03  0.52853381898E+03  0.12158171445E+04  0.15294330000E+03 0.  0.
<mgrwt>
<rscale>  0 0.12227376E+04</rscale>
<asrwt>0</asrwt>
<pdfrwt beam="1">  1        2 0.43992808E+00 0.12685747E+04</pdfrwt>
<pdfrwt beam="2">  1       -2 0.15878265E+00 0.12685747E+04</pdfrwt>
<totfact> 0.53215713E-01</totfact>
</mgrwt>
</event>
<event>
 4    5  0.7289609E-008  0.7380568E+03  0.7818608E-02  0.9865644E-01
          2   -1    0    0  501    0  0.00000000000E+00  0.00000000000E+00  0.93935377794E+03  0.93935377794E+03  0.25500000000E-02 0. -1.
         -2   -1    0    0    0  501 -0.00000000000E+00 -0.00000000000E+00 -0.93862394865E+03  0.93862394865E+03  0.25500000000E-02 0.  1.
    8880023    1    1    2    0    0  0.27841169777E+03 -0.18276931126E+03 -0.74398610091E+03  0.10479710011E+04  0.65864270000E+03 0.  1.
    8880022    1    1    2    0    0 -0.27841169777E+03  0.18276931126E+03  0.74471593021E+03  0.83000672546E+03  0.15294330000E+03 0.  0.
<mgrwt>
<rscale>  0 0.61955610E+03</rscale>
<asrwt>0</asrwt>
<pdfrwt beam="1">  1        2 0.14451597E+00 0.73805684E+03</pdfrwt>
<pdfrwt beam="2">  1       -2 0.14440368E+00 0.73805684E+03</pdfrwt>
<totfact> 0.93118142E+00</totfact>
</mgrwt>
</event>
<event>
 4    5  0.7289609E-008  0.7787889E+03  0.7818608E-02  0.9758690E-01
         -2   -1    0    0    0  501 -0.00000000000E+00  0.00000000000E+00  0.39997719882E+03  0.39997719883E+03  0.25500000000E-02 0.  1.
          2   -1    0    0  501    0  0.00000000000E+00 -0.00000000000E+00 -0.12730554562E+04  0.12730554562E+04  0.25500000000E-02 0. -1.
    8880023    1    1    2    0    0 -0.40471267727E+03  0.94390543650E+02 -0.10416871403E+03  0.78572466750E+03  0.65864270000E+03 0.  0.
    8880022    1    1    2    0    0  0.40471267727E+03 -0.94390543650E+02 -0.76890954335E+03  0.88730798754E+03  0.15294330000E+03 0.  0.
<mgrwt>
<rscale>  0 0.67627406E+03</rscale>
<asrwt>0</asrwt>
<pdfrwt beam="1">  1        2 0.19585468E+00 0.77878889E+03</pdfrwt>
<pdfrwt beam="2">  1       -2 0.61534954E-01 0.77878889E+03</pdfrwt>
<totfact> 0.42761810E+01</totfact>
</mgrwt>
</event>
<event>
 4    5  0.7289609E-008  0.7628827E+03  0.7818608E-02  0.9797701E-01
          2   -1    0    0  501    0  0.00000000000E+00  0.00000000000E+00  0.14463700569E+04  0.14463700569E+04  0.25500000000E-02 0. -1.
         -2   -1    0    0    0  501 -0.00000000000E+00 -0.00000000000E+00 -0.65339404682E+03  0.65339404682E+03  0.25500000000E-02 0.  1.
    8880023    1    1    2    0    0  0.15219978319E+03  0.35357470338E+03 -0.38252918079E+03  0.85341585718E+03  0.65864270000E+03 0.  1.
    8880022    1    1    2    0    0 -0.15219978319E+03 -0.35357470338E+03  0.11755051909E+04  0.12463482465E+04  0.15294330000E+03 0.  0.
<mgrwt>
<rscale>  0 0.65486078E+03</rscale>
<asrwt>0</asrwt>
<pdfrwt beam="1">  1        2 0.22251847E+00 0.76288272E+03</pdfrwt>
<pdfrwt beam="2">  1       -2 0.10052216E+00 0.76288272E+03</pdfrwt>
<totfact> 0.11350431E+01</totfact>
</mgrwt>
</event>
<event>
 4    5  0.7289609E-008  0.1042245E+04  0.7818608E-02  0.9328262E-01
          2   -1    0    0  501    0  0.00000000000E+00  0.00000000000E+00  0.43597533156E+04  0.43597533156E+04  0.25500000000E-02 0. -1.
         -2   -1    0    0    0  501 -0.00000000000E+00 -0.00000000000E+00 -0.74658175746E+03  0.74658175746E+03  0.25500000000E-02 0.  1.
    8880023    1    1    2    0    0 -0.15681500791E+03 -0.79238485181E+03 -0.31834923494E+03  0.10897803181E+04  0.65864270000E+03 0.  0.
    8880022    1    1    2    0    0  0.15681500791E+03  0.79238485181E+03  0.39315207930E+04  0.40165547549E+04  0.15294330000E+03 0.  0.
<mgrwt>
<rscale>  0 0.98222098E+03</rscale>
<asrwt>0</asrwt>
<pdfrwt beam="1">  1        2 0.67073127E+00 0.10422451E+04</pdfrwt>
<pdfrwt beam="2">  1       -2 0.11485873E+00 0.10422451E+04</pdfrwt>
<totfact> 0.10439072E-01</totfact>
</mgrwt>
</event>
<event>
 4    5  0.7289609E-008  0.9401974E+03  0.7818608E-02  0.9464360E-01
          2   -1    0    0  501    0  0.00000000000E+00  0.00000000000E+00  0.17162606053E+04  0.17162606053E+04  0.25500000000E-02 0. -1.
         -2   -1    0    0    0  501 -0.00000000000E+00 -0.00000000000E+00 -0.38968594350E+03  0.38968594351E+03  0.25500000000E-02 0.  1.
    8880023    1    1    2    0    0 -0.35075652392E+03 -0.57195344689E+03  0.66714066325E+03  0.11528433351E+04  0.65864270000E+03 0.  0.
    8880022    1    1    2    0    0  0.35075652392E+03  0.57195344689E+03  0.65943399852E+03  0.95310321367E+03  0.15294330000E+03 0.  1.
<mgrwt>
<rscale>  0 0.86963156E+03</rscale>
<asrwt>0</asrwt>
<pdfrwt beam="1">  1        2 0.26404009E+00 0.94019737E+03</pdfrwt>
<pdfrwt beam="2">  1       -2 0.59951684E-01 0.94019737E+03</pdfrwt>
<totfact> 0.25070434E+01</totfact>
</mgrwt>
</event>
<event>
 4    5  0.7289609E-008  0.8151266E+03  0.7818608E-02  0.9678996E-01
          2   -1    0    0  501    0  0.00000000000E+00  0.00000000000E+00  0.14336157712E+04  0.14336157712E+04  0.25500000000E-02 0. -1.
         -2   -1    0    0    0  501 -0.00000000000E+00 -0.00000000000E+00 -0.79462956341E+03  0.79462956342E+03  0.25500000000E-02 0.  1.
    8880023    1    1    2    0    0 -0.45226567735E+03  0.16148353714E+03 -0.51831535467E+03  0.96596179470E+03  0.65864270000E+03 0.  0.
    8880022    1    1    2    0    0  0.45226567735E+03 -0.16148353714E+03  0.11573015625E+04  0.12622835399E+04  0.15294330000E+03 0.  0.
<mgrwt>
<rscale>  0 0.72281267E+03</rscale>
<asrwt>0</asrwt>
<pdfrwt beam="1">  1        2 0.22055627E+00 0.81512660E+03</pdfrwt>
<pdfrwt beam="2">  1       -2 0.12225070E+00 0.81512660E+03</pdfrwt>
<totfact> 0.71235349E+00</totfact>
</mgrwt>
</event>
<event>
 4    5  0.7289609E-008  0.6892315E+03  0.7818608E-02  0.1004520E+00
          2   -1    0    0  501    0  0.00000000000E+00  0.00000000000E+00  0.37602665789E+03  0.37602665790E+03  0.25500000000E-02 0. -1.
         -2   -1    0    0    0  501 -0.00000000000E+00 -0.00000000000E+00 -0.87935227802E+03  0.87935227803E+03  0.25500000000E-02 0.  1.
    8880023    1    1    2    0    0 -0.13080423904E+03  0.15530637800E+03 -0.66204509684E+03  0.95569018856E+03  0.65864270000E+03 0.  1.
    8880022    1    1    2    0    0  0.13080423904E+03 -0.15530637800E+03  0.15871947671E+03  0.29968874737E+03  0.15294330000E+03 0.  0.
<mgrwt>
<rscale>  0 0.53711952E+03</rscale>
<asrwt>0</asrwt>
<pdfrwt beam="1">  1        2 0.57850255E-01 0.68923148E+03</pdfrwt>
<pdfrwt beam="2">  1       -2 0.13528496E+00 0.68923148E+03</pdfrwt>
<totfact> 0.33997475E+01</totfact>
</mgrwt>
</event>
<event>
 4    5  0.7289609E-008  0.1031280E+04  0.7818608E-02  0.9341732E-01
          2   -1    0    0  501    0  0.00000000000E+00  0.00000000000E+00  0.11233085541E+04  0.11233085541E+04  0.25500000000E-02 0. -1.
         -2   -1    0    0    0  501 -0.00000000000E+00 -0.00000000000E+00 -0.12152095660E+04  0.12152095660E+04  0.25500000000E-02 0.  1.
    8880023    1    1    2    0    0 -0.74695603909E+03  0.26792633926E+03 -0.76720278728E+03  0.12853552702E+04  0.65864270000E+03 0.  0.
    8880022    1    1    2    0    0  0.74695603909E+03 -0.26792633926E+03  0.67530177539E+03  0.10531628499E+04  0.15294330000E+03 0.  0.
<mgrwt>
<rscale>  0 0.97030098E+03</rscale>
<asrwt>0</asrwt>
<pdfrwt beam="1">  1        2 0.17281670E+00 0.10312798E+04</pdfrwt>
<pdfrwt beam="2">  1       -2 0.18695532E+00 0.10312798E+04</pdfrwt>
<totfact> 0.33847000E+00</totfact>
</mgrwt>
</event>
<event>
 4    5  0.7289609E-008  0.1149489E+04  0.7818608E-02  0.9207859E-01
          2   -1    0    0  501    0  0.00000000000E+00  0.00000000000E+00  0.19421170353E+04  0.19421170353E+04  0.25500000000E-02 0. -1.
         -2   -1    0    0    0  501 -0.00000000000E+00 -0.00000000000E+00 -0.65762561998E+03  0.65762561999E+03  0.25500000000E-02 0.  1.
    8880023    1    1    2    0    0  0.92443204813E+03 -0.18149345077E+03  0.22056058276E+03  0.11704578853E+04  0.65864270000E+03 0.  0.
    8880022    1    1    2    0    0 -0.92443204813E+03  0.18149345077E+03  0.10639308325E+04  0.14292847700E+04  0.15294330000E+03 0.  0.
<mgrwt>
<rscale>  0 0.10972682E+04</rscale>
<asrwt>0</asrwt>
<pdfrwt beam="1">  1        2 0.29878724E+00 0.11494889E+04</pdfrwt>
<pdfrwt beam="2">  1       -2 0.10117317E+00 0.11494889E+04</pdfrwt>
<totfact> 0.56847023E+00</totfact>
</mgrwt>
</event>
<event>
 4    5  0.7289609E-008  0.1387871E+04  0.7818608E-02  0.8993165E-01
          2   -1    0    0  501    0  0.00000000000E+00  0.00000000000E+00  0.28960629409E+04  0.28960629409E+04  0.25500000000E-02 0. -1.
         -2   -1    0    0    0  501 -0.00000000000E+00 -0.00000000000E+00 -0.99232198912E+03  0.99232198913E+03  0.25500000000E-02 0.  1.
    8880023    1    1    2    0    0  0.11831247191E+04 -0.30429061720E+03 -0.24748841514E+03  0.14097650877E+04  0.65864270000E+03 0.  0.
    8880022    1    1    2    0    0 -0.11831247191E+04  0.30429061720E+03  0.21512293669E+04  0.24786198423E+04  0.15294330000E+03 0.  0.
<mgrwt>
<rscale>  0 0.13469176E+04</rscale>
<asrwt>0</asrwt>
<pdfrwt beam="1">  1        2 0.44554815E+00 0.13878714E+04</pdfrwt>
<pdfrwt beam="2">  1       -2 0.15266492E+00 0.13878714E+04</pdfrwt>
<totfact> 0.55399059E-01</totfact>
</mgrwt>
</event>
<event>
 4    5  0.7289609E-008  0.7409512E+03  0.7818608E-02  0.9857185E-01
         -2   -1    0    0    0  501 -0.00000000000E+00  0.00000000000E+00  0.12262795243E+04  0.12262795244E+04  0.25500000000E-02 0.  1.
          2   -1    0    0  501    0  0.00000000000E+00 -0.00000000000E+00 -0.16077565977E+04  0.16077565977E+04  0.25500000000E-02 0. -1.
    8880023    1    1    2    0    0 -0.33938040007E+03  0.44001194784E+01  0.10889996722E+04  0.13171670013E+04  0.65864270000E+03 0.  1.
    8880022    1    1    2    0    0  0.33938040007E+03 -0.44001194784E+01 -0.14704767456E+04  0.15168691207E+04  0.15294330000E+03 0.  0.
<mgrwt>
<rscale>  0 0.62381915E+03</rscale>
<asrwt>0</asrwt>
<pdfrwt beam="1">  1        2 0.24734717E+00 0.74095116E+03</pdfrwt>
<pdfrwt beam="2">  1       -2 0.18865839E+00 0.74095116E+03</pdfrwt>
<totfact> 0.18077056E+00</totfact>
</mgrwt>
</event>
<event>
 4    5  0.7289609E-008  0.7141514E+03  0.7818608E-02  0.9942896E-01
         -2   -1    0    0    0  501 -0.00000000000E+00  0.00000000000E+00  0.69121000388E+03  0.69121000388E+03  0.25500000000E-02 0.  1.
          2   -1    0    0  501    0  0.00000000000E+00 -0.00000000000E+00 -0.11881594046E+04  0.11881594046E+04  0.25500000000E-02 0. -1.
    8880023    1    1    2    0    0 -0.20594294571E+03 -0.18381927872E+03  0.47485153692E+03  0.85761075815E+03  0.65864270000E+03 0.  1.
    8880022    1    1    2    0    0  0.20594294571E+03  0.18381927872E+03 -0.97180093767E+03  0.10217586504E+04  0.15294330000E+03 0.  0.
<mgrwt>
<rscale>  0 0.58226635E+03</rscale>
<asrwt>0</asrwt>
<pdfrwt beam="1">  1        2 0.18279375E+00 0.71415141E+03</pdfrwt>
<pdfrwt beam="2">  1       -2 0.10634000E+00 0.71415141E+03</pdfrwt>
<totfact> 0.14053037E+01</totfact>
</mgrwt>
</event>
<event>
 4    5  0.7289609E-008  0.8128852E+03  0.7818608E-02  0.9683598E-01
          2   -1    0    0  501    0  0.00000000000E+00  0.00000000000E+00  0.40938177038E+04  0.40938177038E+04  0.25500000000E-02 0. -1.
         -2   -1    0    0    0  501 -0.00000000000E+00 -0.00000000000E+00 -0.24284083870E+03  0.24284083872E+03  0.25500000000E-02 0.  1.
    8880023    1    1    2    0    0 -0.24801011563E+03  0.40677149854E+03  0.51264018800E+03  0.96103186113E+03  0.65864270000E+03 0.  0.
    8880022    1    1    2    0    0  0.24801011563E+03 -0.40677149854E+03  0.33383366771E+04  0.33756266813E+04  0.15294330000E+03 0.  0.
<mgrwt>
<rscale>  0 0.72001794E+03</rscale>
<asrwt>0</asrwt>
<pdfrwt beam="1">  1        2 0.62981805E+00 0.81288516E+03</pdfrwt>
<pdfrwt beam="2">  1       -2 0.37360133E-01 0.81288516E+03</pdfrwt>
<totfact> 0.21239050E+00</totfact>
</mgrwt>
</event>
<event>
 4    5  0.7289609E-008  0.9661841E+03  0.7818608E-02  0.9427201E-01
          2   -1    0    0  501    0  0.00000000000E+00  0.00000000000E+00  0.12207276618E+04  0.12207276618E+04  0.25500000000E-02 0. -1.
         -2   -1    0    0    0  501 -0.00000000000E+00 -0.00000000000E+00 -0.11091109750E+04  0.11091109750E+04  0.25500000000E-02 0.  1.
    8880023    1    1    2    0    0  0.15813991943E+03 -0.68897981865E+03 -0.73673887060E+03  0.12150291331E+04  0.65864270000E+03 0.  0.
    8880022    1    1    2    0    0 -0.15813991943E+03  0.68897981865E+03  0.84835555737E+03  0.11148095036E+04  0.15294330000E+03 0.  0.
<mgrwt>
<rscale>  0 0.89870524E+03</rscale>
<asrwt>0</asrwt>
<pdfrwt beam="1">  1        2 0.18780426E+00 0.96618406E+03</pdfrwt>
<pdfrwt beam="2">  1       -2 0.17063246E+00 0.96618406E+03</pdfrwt>
<totfact> 0.38640808E+00</totfact>
</mgrwt>
</event>
<event>
 4    5  0.7289609E-008  0.7787655E+03  0.7818608E-02  0.9758745E-01
          2   -1    0    0  501    0  0.00000000000E+00  0.00000000000E+00  0.78168699773E+03  0.78168699773E+03  0.25500000000E-02 0. -1.
         -2   -1    0    0    0  501 -0.00000000000E+00 -0.00000000000E+00 -0.10639732055E+04  0.10639732055E+04  0.25500000000E-02 0.  1.
    8880023    1    1    2    0    0 -0.10569870419E+03  0.40186234227E+03 -0.83212736901E+03  0.11396980840E+04  0.65864270000E+03 0.  1.
    8880022    1    1    2    0    0  0.10569870419E+03 -0.40186234227E+03  0.54984116122E+03  0.70596211923E+03  0.15294330000E+03 0.  0.
<mgrwt>
<rscale>  0 0.67624318E+03</rscale>
<asrwt>0</asrwt>
<pdfrwt beam="1">  1        2 0.12025954E+00 0.77876554E+03</pdfrwt>
<pdfrwt beam="2">  1       -2 0.16368818E+00 0.77876554E+03</pdfrwt>
<totfact> 0.85224819E+00</totfact>
</mgrwt>
</event>
<event>
 4    5  0.7289609E-008  0.1090867E+04  0.7818608E-02  0.9271294E-01
         -2   -1    0    0    0  501 -0.00000000000E+00  0.00000000000E+00  0.11843926819E+04  0.11843926819E+04  0.25500000000E-02 0.  1.
          2   -1    0    0  501    0  0.00000000000E+00 -0.00000000000E+00 -0.10791056427E+04  0.10791056427E+04  0.25500000000E-02 0. -1.
    8880023    1    1    2    0    0  0.73520082260E+03  0.46439193968E+03  0.60659214371E+03  0.12481764131E+04  0.65864270000E+03 0.  0.
    8880022    1    1    2    0    0 -0.73520082260E+03 -0.46439193968E+03 -0.50130510446E+03  0.10153219115E+04  0.15294330000E+03 0.  0.
<mgrwt>
<rscale>  0 0.10346913E+04</rscale>
<asrwt>0</asrwt>
<pdfrwt beam="1">  1        2 0.16601625E+00 0.10908668E+04</pdfrwt>
<pdfrwt beam="2">  1       -2 0.18221426E+00 0.10908668E+04</pdfrwt>
<totfact> 0.38594203E+00</totfact>
</mgrwt>
</event>
<event>
 4    5  0.7289609E-008  0.7731409E+03  0.7818608E-02  0.9772203E-01
         -2   -1    0    0    0  501 -0.00000000000E+00  0.00000000000E+00  0.26199928373E+04  0.26199928373E+04  0.25500000000E-02 0.  1.
          2   -1    0    0  501    0  0.00000000000E+00 -0.00000000000E+00 -0.91648761674E+03  0.91648761674E+03  0.25500000000E-02 0. -1.
    8880023    1    1    2    0    0 -0.24017879111E+03  0.32596122419E+03  0.25071748509E+04  0.26236753821E+04  0.65864270000E+03 0.  1.
    8880022    1    1    2    0    0  0.24017879111E+03 -0.32596122419E+03 -0.80366963041E+03  0.91280507187E+03  0.15294330000E+03 0.  0.
<mgrwt>
<rscale>  0 0.66875858E+03</rscale>
<asrwt>0</asrwt>
<pdfrwt beam="1">  1        2 0.14099810E+00 0.77314085E+03</pdfrwt>
<pdfrwt beam="2">  1       -2 0.40307581E+00 0.77314085E+03</pdfrwt>
<totfact> 0.21520975E-01</totfact>
</mgrwt>
</event>
<event>
 4    5  0.7289609E-008  0.1577012E+04  0.7818608E-02  0.8857086E-01
          2   -1    0    0  501    0  0.00000000000E+00  0.00000000000E+00  0.28340850687E+04  0.28340850687E+04  0.25500000000E-02 0. -1.
         -2   -1    0    0    0  501 -0.00000000000E+00 -0.00000000000E+00 -0.14717735394E+04  0.14717735394E+04  0.25500000000E-02 0.  1.
    8880023    1    1    2    0    0 -0.29249737989E+03 -0.14027119853E+04 -0.75203450233E+03  0.17471467397E+04  0.65864270000E+03 0.  0.
    8880022    1    1    2    0    0  0.29249737989E+03  0.14027119853E+04  0.21143460317E+04  0.25587118684E+04  0.15294330000E+03 0.  0.
<mgrwt>
<rscale>  0 0.15418563E+04</rscale>
<asrwt>0</asrwt>
<pdfrwt beam="1">  1        2 0.43601309E+00 0.15770117E+04</pdfrwt>
<pdfrwt beam="2">  1       -2 0.22642670E+00 0.15770117E+04</pdfrwt>
<totfact> 0.18482917E-01</totfact>
</mgrwt>
</event>
<event>
 4    5  0.7289609E-008  0.8718503E+03  0.7818608E-02  0.9572822E-01
         -2   -1    0    0    0  501 -0.00000000000E+00  0.00000000000E+00  0.15576572160E+04  0.15576572160E+04  0.25500000000E-02 0.  1.
          2   -1    0    0  501    0  0.00000000000E+00 -0.00000000000E+00 -0.97621230664E+03  0.97621230664E+03  0.25500000000E-02 0. -1.
    8880023    1    1    2    0    0 -0.27105677317E+03  0.50283292785E+03  0.13235888024E+04  0.15849322547E+04  0.65864270000E+03 0.  1.
    8880022    1    1    2    0    0  0.27105677317E+03 -0.50283292785E+03 -0.74214389306E+03  0.94893726802E+03  0.15294330000E+03 0.  0.
<mgrwt>
<rscale>  0 0.79121420E+03</rscale>
<asrwt>0</asrwt>
<pdfrwt beam="1">  1        2 0.15018651E+00 0.87185029E+03</pdfrwt>
<pdfrwt beam="2">  1       -2 0.23963957E+00 0.87185029E+03</pdfrwt>
<totfact> 0.19673176E+00</totfact>
</mgrwt>
</event>
<event>
 4    5  0.7289609E-008  0.8057688E+03  0.7818608E-02  0.9698459E-01
         -2   -1    0    0    0  501 -0.00000000000E+00  0.00000000000E+00  0.36440787392E+03  0.36440787393E+03  0.25500000000E-02 0.  1.
          2   -1    0    0  501    0  0.00000000000E+00 -0.00000000000E+00 -0.18086205304E+04  0.18086205304E+04  0.25500000000E-02 0. -1.
    8880023    1    1    2    0    0 -0.10962846745E+02  0.46403982526E+03 -0.19128950581E+03  0.82816364610E+03  0.65864270000E+03 0.  1.
    8880022    1    1    2    0    0  0.10962846745E+02 -0.46403982526E+03 -0.12529231507E+04  0.13448647583E+04  0.15294330000E+03 0.  0.
<mgrwt>
<rscale>  0 0.71108629E+03</rscale>
<asrwt>0</asrwt>
<pdfrwt beam="1">  1        2 0.27824931E+00 0.80576879E+03</pdfrwt>
<pdfrwt beam="2">  1       -2 0.56062751E-01 0.80576879E+03</pdfrwt>
<totfact> 0.26061348E+01</totfact>
</mgrwt>
</event>
<event>
 4    5  0.7289609E-008  0.1209730E+04  0.7818608E-02  0.9147722E-01
         -2   -1    0    0    0  501 -0.00000000000E+00  0.00000000000E+00  0.88952897522E+03  0.88952897523E+03  0.25500000000E-02 0.  1.
          2   -1    0    0  501    0  0.00000000000E+00 -0.00000000000E+00 -0.24263583256E+04  0.24263583256E+04  0.25500000000E-02 0. -1.
    8880023    1    1    2    0    0  0.86842764296E+03 -0.52485132455E+03  0.26861546123E+03  0.12391932683E+04  0.65864270000E+03 0.  1.
    8880022    1    1    2    0    0 -0.86842764296E+03  0.52485132455E+03 -0.18054448116E+04  0.20766940325E+04  0.15294330000E+03 0.  0.
<mgrwt>
<rscale>  0 0.11609705E+04</rscale>
<asrwt>0</asrwt>
<pdfrwt beam="1">  1        2 0.37328589E+00 0.12097296E+04</pdfrwt>
<pdfrwt beam="2">  1       -2 0.13685061E+00 0.12097296E+04</pdfrwt>
<totfact> 0.14289351E+00</totfact>
</mgrwt>
</event>
<event>
 4    5  0.7289609E-008  0.7220800E+03  0.7818608E-02  0.9915610E-01
          2   -1    0    0  501    0  0.00000000000E+00  0.00000000000E+00  0.18111434043E+04  0.18111434043E+04  0.25500000000E-02 0. -1.
         -2   -1    0    0    0  501 -0.00000000000E+00 -0.00000000000E+00 -0.15395759518E+03  0.15395759520E+03  0.25500000000E-02 0.  1.
    8880023    1    1    2    0    0  0.15362551207E+03  0.25295944682E+03  0.11709161727E+04  0.13756613571E+04  0.65864270000E+03 0.  0.
    8880022    1    1    2    0    0 -0.15362551207E+03 -0.25295944682E+03  0.48626963643E+03  0.58943964240E+03  0.15294330000E+03 0. -1.
<mgrwt>
<rscale>  0 0.59510695E+03</rscale>
<asrwt>0</asrwt>
<pdfrwt beam="1">  1        2 0.27863744E+00 0.72207997E+03</pdfrwt>
<pdfrwt beam="2">  1       -2 0.23685784E-01 0.72207997E+03</pdfrwt>
<totfact> 0.13764343E+02</totfact>
</mgrwt>
</event>
<event>
 4    5  0.7289609E-008  0.7613026E+03  0.7818608E-02  0.9801747E-01
          2   -1    0    0  501    0  0.00000000000E+00  0.00000000000E+00  0.30003568123E+04  0.30003568123E+04  0.25500000000E-02 0. -1.
         -2   -1    0    0    0  501 -0.00000000000E+00 -0.00000000000E+00 -0.44678789951E+03  0.44678789952E+03  0.25500000000E-02 0.  1.
    8880023    1    1    2    0    0  0.33477668364E+03 -0.18356460422E+03 -0.94662000487E+02  0.76716523150E+03  0.65864270000E+03 0.  1.
    8880022    1    1    2    0    0 -0.33477668364E+03  0.18356460422E+03  0.26482309133E+04  0.26799794803E+04  0.15294330000E+03 0.  0.
<mgrwt>
<rscale>  0 0.65268880E+03</rscale>
<asrwt>0</asrwt>
<pdfrwt beam="1">  1        2 0.46159337E+00 0.76130257E+03</pdfrwt>
<pdfrwt beam="2">  1       -2 0.68736597E-01 0.76130257E+03</pdfrwt>
<totfact> 0.35830079E+00</totfact>
</mgrwt>
</event>
<event>
 4    5  0.7289609E-008  0.7643254E+03  0.7818608E-02  0.9794036E-01
          2   -1    0    0  501    0  0.00000000000E+00  0.00000000000E+00  0.53475741136E+03  0.53475741136E+03  0.25500000000E-02 0. -1.
         -2   -1    0    0    0  501 -0.00000000000E+00 -0.00000000000E+00 -0.15685961412E+04  0.15685961412E+04  0.25500000000E-02 0.  1.
    8880023    1    1    2    0    0 -0.26325147651E+03  0.28474849574E+03 -0.13693660998E+04  0.15682336456E+04  0.65864270000E+03 0.  1.
    8880022    1    1    2    0    0  0.26325147651E+03 -0.28474849574E+03  0.33552737001E+03  0.53511990689E+03  0.15294330000E+03 0.  0.
<mgrwt>
<rscale>  0 0.65683611E+03</rscale>
<asrwt>0</asrwt>
<pdfrwt beam="1">  1        2 0.82270371E-01 0.76432536E+03</pdfrwt>
<pdfrwt beam="2">  1       -2 0.24132248E+00 0.76432536E+03</pdfrwt>
<totfact> 0.42429780E+00</totfact>
</mgrwt>
</event>
<event>
 4    5  0.7289609E-008  0.1049831E+04  0.7818608E-02  0.9319085E-01
         -2   -1    0    0    0  501 -0.00000000000E+00  0.00000000000E+00  0.82049951123E+03  0.82049951123E+03  0.25500000000E-02 0.  1.
          2   -1    0    0  501    0  0.00000000000E+00 -0.00000000000E+00 -0.18643307680E+04  0.18643307680E+04  0.25500000000E-02 0. -1.
    8880023    1    1    2    0    0  0.40493591954E+03 -0.71018393252E+03 -0.14249849240E+04  0.17699510041E+04  0.65864270000E+03 0.  0.
    8880022    1    1    2    0    0 -0.40493591954E+03  0.71018393252E+03  0.38115366727E+03  0.91487927512E+03  0.15294330000E+03 0.  0.
<mgrwt>
<rscale>  0 0.99044694E+03</rscale>
<asrwt>0</asrwt>
<pdfrwt beam="1">  1        2 0.28682012E+00 0.10498307E+04</pdfrwt>
<pdfrwt beam="2">  1       -2 0.12623069E+00 0.10498307E+04</pdfrwt>
<totfact> 0.36845245E+00</totfact>
</mgrwt>
</event>
<event>
 4    5  0.7289609E-008  0.7715262E+03  0.7818608E-02  0.9776132E-01
          2   -1    0    0  501    0  0.00000000000E+00  0.00000000000E+00  0.29028223711E+03  0.29028223712E+03  0.25500000000E-02 0. -1.
         -2   -1    0    0    0  501 -0.00000000000E+00 -0.00000000000E+00 -0.14511680442E+04  0.14511680442E+04  0.25500000000E-02 0.  1.
    8880023    1    1    2    0    0 -0.38739417049E+03 -0.10662204671E+03 -0.10398521620E+04  0.12948147471E+04  0.65864270000E+03 0.  1.
    8880022    1    1    2    0    0  0.38739417049E+03  0.10662204671E+03 -0.12103364507E+03  0.44663553422E+03  0.15294330000E+03 0.  0.
<mgrwt>
<rscale>  0 0.66659307E+03</rscale>
<asrwt>0</asrwt>
<pdfrwt beam="1">  1        2 0.44658807E-01 0.77152622E+03</pdfrwt>
<pdfrwt beam="2">  1       -2 0.22325662E+00 0.77152622E+03</pdfrwt>
<totfact> 0.10943176E+01</totfact>
</mgrwt>
</event>
<event>
 4    5  0.7289609E-008  0.7238953E+03  0.7818608E-02  0.9909620E-01
          2   -1    0    0  501    0  0.00000000000E+00  0.00000000000E+00  0.20203165867E+04  0.20203165867E+04  0.25500000000E-02 0. -1.
         -2   -1    0    0    0  501 -0.00000000000E+00 -0.00000000000E+00 -0.32794081030E+03  0.32794081031E+03  0.25500000000E-02 0.  1.
    8880023    1    1    2    0    0 -0.15828967752E+03 -0.25526170782E+03  0.11220561498E+03  0.73253973802E+03  0.65864270000E+03 0.  1.
    8880022    1    1    2    0    0  0.15828967752E+03  0.25526170782E+03  0.15801701614E+04  0.16157176590E+04  0.15294330000E+03 0.  0.
<mgrwt>
<rscale>  0 0.59797341E+03</rscale>
<asrwt>0</asrwt>
<pdfrwt beam="1">  1        2 0.31081794E+00 0.72389527E+03</pdfrwt>
<pdfrwt beam="2">  1       -2 0.50452431E-01 0.72389527E+03</pdfrwt>
<totfact> 0.25087600E+01</totfact>
</mgrwt>
</event>
<event>
 4    5  0.7289609E-008  0.8035627E+03  0.7818608E-02  0.9703145E-01
          2   -1    0    0  501    0  0.00000000000E+00  0.00000000000E+00  0.77389646299E+03  0.77389646299E+03  0.25500000000E-02 0. -1.
         -2   -1    0    0    0  501 -0.00000000000E+00 -0.00000000000E+00 -0.10011994213E+04  0.10011994214E+04  0.25500000000E-02 0.  1.
    8880023    1    1    2    0    0 -0.36953050837E+03 -0.27449953242E+03 -0.72343507948E+03  0.10812360105E+04  0.65864270000E+03 0.  1.
    8880022    1    1    2    0    0  0.36953050837E+03  0.27449953242E+03  0.49613212112E+03  0.69385987384E+03  0.15294330000E+03 0.  0.
<mgrwt>
<rscale>  0 0.70829843E+03</rscale>
<asrwt>0</asrwt>
<pdfrwt beam="1">  1        2 0.11906099E+00 0.80356269E+03</pdfrwt>
<pdfrwt beam="2">  1       -2 0.15403068E+00 0.80356269E+03</pdfrwt>
<totfact> 0.10152606E+01</totfact>
</mgrwt>
</event>
<event>
 4    5  0.7289609E-008  0.8141704E+03  0.7818608E-02  0.9680955E-01
          2   -1    0    0  501    0  0.00000000000E+00  0.00000000000E+00  0.22167901630E+03  0.22167901632E+03  0.25500000000E-02 0. -1.
         -2   -1    0    0    0  501 -0.00000000000E+00 -0.00000000000E+00 -0.30672560428E+04  0.30672560428E+04  0.25500000000E-02 0.  1.
    8880023    1    1    2    0    0 -0.15490080960E+02  0.47835476864E+03 -0.26099275384E+04  0.27339705904E+04  0.65864270000E+03 0.  0.
    8880022    1    1    2    0    0  0.15490080960E+02 -0.47835476864E+03 -0.23564948812E+03  0.55496446873E+03  0.15294330000E+03 0.  0.
<mgrwt>
<rscale>  0 0.72162148E+03</rscale>
<asrwt>0</asrwt>
<pdfrwt beam="1">  1        2 0.34104466E-01 0.81417040E+03</pdfrwt>
<pdfrwt beam="2">  1       -2 0.47188552E+00 0.81417040E+03</pdfrwt>
<totfact> 0.40313829E-01</totfact>
</mgrwt>
</event>
<event>
 4    5  0.7289609E-008  0.1195128E+04  0.7818608E-02  0.9161873E-01
          2   -1    0    0  501    0  0.00000000000E+00  0.00000000000E+00  0.22161446789E+04  0.22161446789E+04  0.25500000000E-02 0. -1.
         -2   -1    0    0    0  501 -0.00000000000E+00 -0.00000000000E+00 -0.74430233240E+03  0.74430233240E+03  0.25500000000E-02 0.  1.
    8880023    1    1    2    0    0  0.20791980315E+03  0.97534055339E+03  0.23524799219E+02  0.11953591352E+04  0.65864270000E+03 0.  0.
    8880022    1    1    2    0    0 -0.20791980315E+03 -0.97534055339E+03  0.14483175473E+04  0.17650878761E+04  0.15294330000E+03 0.  0.
<mgrwt>
<rscale>  0 0.11455775E+04</rscale>
<asrwt>0</asrwt>
<pdfrwt beam="1">  1        2 0.34094534E+00 0.11951276E+04</pdfrwt>
<pdfrwt beam="2">  1       -2 0.11450805E+00 0.11951276E+04</pdfrwt>
<totfact> 0.29501139E+00</totfact>
</mgrwt>
</event>
<event>
 4    5  0.7289609E-008  0.7069784E+03  0.7818608E-02  0.9969397E-01
          2   -1    0    0  501    0  0.00000000000E+00  0.00000000000E+00  0.35691561904E+04  0.35691561904E+04  0.25500000000E-02 0. -1.
         -2   -1    0    0    0  501 -0.00000000000E+00 -0.00000000000E+00 -0.42229095794E+03  0.42229095795E+03  0.25500000000E-02 0.  1.
    8880023    1    1    2    0    0 -0.12109835114E+03  0.22659106068E+03 -0.11468534157E+03  0.71622011509E+03  0.65864270000E+03 0.  1.
    8880022    1    1    2    0    0  0.12109835114E+03 -0.22659106068E+03  0.32615505740E+04  0.32752270333E+04  0.15294330000E+03 0.  0.
<mgrwt>
<rscale>  0 0.57012726E+03</rscale>
<asrwt>0</asrwt>
<pdfrwt beam="1">  1        2 0.54910095E+00 0.70697845E+03</pdfrwt>
<pdfrwt beam="2">  1       -2 0.64967839E-01 0.70697845E+03</pdfrwt>
<totfact> 0.17492025E+00</totfact>
</mgrwt>
</event>
<event>
 4    5  0.7289609E-008  0.1707063E+04  0.7818608E-02  0.8775766E-01
         -2   -1    0    0    0  501 -0.00000000000E+00  0.00000000000E+00  0.28400065124E+04  0.28400065124E+04  0.25500000000E-02 0.  1.
          2   -1    0    0  501    0  0.00000000000E+00 -0.00000000000E+00 -0.17977279894E+04  0.17977279894E+04  0.25500000000E-02 0. -1.
    8880023    1    1    2    0    0 -0.14964440752E+04  0.49082328334E+03  0.21210678087E+04  0.27226808886E+04  0.65864270000E+03 0.  0.
    8880022    1    1    2    0    0  0.14964440752E+04 -0.49082328334E+03 -0.10787892857E+04  0.19150536133E+04  0.15294330000E+03 0.  0.
<mgrwt>
<rscale>  0 0.16749762E+04</rscale>
<asrwt>0</asrwt>
<pdfrwt beam="1">  1        2 0.27657354E+00 0.17070626E+04</pdfrwt>
<pdfrwt beam="2">  1       -2 0.43692408E+00 0.17070626E+04</pdfrwt>
<totfact> 0.33549395E-02</totfact>
</mgrwt>
</event>
<event>
 4    5  0.7289609E-008  0.1270223E+04  0.7818608E-02  0.9091711E-01
         -2   -1    0    0    0  501 -0.00000000000E+00  0.00000000000E+00  0.72495244083E+03  0.72495244084E+03  0.25500000000E-02 0.  1.
          2   -1    0    0  501    0  0.00000000000E+00 -0.00000000000E+00 -0.22607194160E+04  0.22607194161E+04  0.25500000000E-02 0. -1.
    8880023    1    1    2    0    0  0.16969322712E+02  0.10859869879E+04 -0.24817403221E+03  0.12942396426E+04  0.65864270000E+03 0.  0.
    8880022    1    1    2    0    0 -0.16969322712E+02 -0.10859869879E+04 -0.12875929430E+04  0.16914322143E+04  0.15294330000E+03 0.  0.
<mgrwt>
<rscale>  0 0.12244619E+04</rscale>
<asrwt>0</asrwt>
<pdfrwt beam="1">  1        2 0.34780298E+00 0.12702228E+04</pdfrwt>
<pdfrwt beam="2">  1       -2 0.11153115E+00 0.12702228E+04</pdfrwt>
<totfact> 0.29467295E+00</totfact>
</mgrwt>
</event>
<event>
 4    5  0.7289609E-008  0.8564519E+03  0.7818608E-02  0.9599906E-01
          2   -1    0    0  501    0  0.00000000000E+00  0.00000000000E+00  0.13744729101E+04  0.13744729101E+04  0.25500000000E-02 0. -1.
         -2   -1    0    0    0  501 -0.00000000000E+00 -0.00000000000E+00 -0.70390715259E+03  0.70390715260E+03  0.25500000000E-02 0.  1.
    8880023    1    1    2    0    0 -0.18721254600E+03 -0.51444250593E+03 -0.33794586466E+03  0.92071561461E+03  0.65864270000E+03 0.  1.
    8880022    1    1    2    0    0  0.18721254600E+03  0.51444250593E+03  0.10085116221E+04  0.11576644480E+04  0.15294330000E+03 0.  0.
<mgrwt>
<rscale>  0 0.77302383E+03</rscale>
<asrwt>0</asrwt>
<pdfrwt beam="1">  1        2 0.21145737E+00 0.85645189E+03</pdfrwt>
<pdfrwt beam="2">  1       -2 0.10829341E+00 0.85645189E+03</pdfrwt>
<totfact> 0.10307467E+01</totfact>
</mgrwt>
</event>
<event>
 4    5  0.7289609E-008  0.1793556E+04  0.7818608E-02  0.8726110E-01
         -2   -1    0    0    0  501 -0.00000000000E+00  0.00000000000E+00  0.14967040665E+04  0.14967040665E+04  0.25500000000E-02 0.  1.
          2   -1    0    0  501    0  0.00000000000E+00 -0.00000000000E+00 -0.24309379142E+04  0.24309379142E+04  0.25500000000E-02 0. -1.
    8880023    1    1    2    0    0  0.10973887521E+04  0.12564911064E+04 -0.12972453901E+04  0.22135238382E+04  0.65864270000E+03 0.  0.
    8880022    1    1    2    0    0 -0.10973887521E+04 -0.12564911064E+04  0.36301154242E+03  0.17141181426E+04  0.15294330000E+03 0.  0.
<mgrwt>
<rscale>  0 0.17632152E+04</rscale>
<asrwt>0</asrwt>
<pdfrwt beam="1">  1        2 0.37399045E+00 0.17935557E+04</pdfrwt>
<pdfrwt beam="2">  1       -2 0.23026216E+00 0.17935557E+04</pdfrwt>
<totfact> 0.29557524E-01</totfact>
</mgrwt>
</event>
<event>
 4    5  0.7375044E-008  0.1224094E+04  0.7818608E-02  0.9134050E-01
          2   -1    0    0  501    0  0.00000000000E+00  0.00000000000E+00  0.23876343247E+04  0.23876343247E+04  0.25500000000E-02 0. -1.
         -2   -1    0    0    0  501 -0.00000000000E+00 -0.00000000000E+00 -0.16432347560E+04  0.16432347560E+04  0.25500000000E-02 0.  1.
    8880023    1    1    2    0    0  0.22943464949E+03 -0.10059601765E+04 -0.12690953120E+04  0.17632382857E+04  0.65864270000E+03 0.  0.
    8880022    1    1    2    0    0 -0.22943464949E+03  0.10059601765E+04  0.20134948807E+04  0.22676307950E+04  0.15294330000E+03 0.  0.
<mgrwt>
<rscale>  0 0.11760861E+04</rscale>
<asrwt>0</asrwt>
<pdfrwt beam="1">  1        2 0.36732836E+00 0.12240941E+04</pdfrwt>
<pdfrwt beam="2">  1       -2 0.25280535E+00 0.12240941E+04</pdfrwt>
<totfact> 0.24276463E-01</totfact>
</mgrwt>
</event>
<event>
 4    5  0.7289609E-008  0.7161915E+03  0.7818608E-02  0.9935690E-01
         -2   -1    0    0    0  501 -0.00000000000E+00  0.00000000000E+00  0.73788940654E+03  0.73788940654E+03  0.25500000000E-02 0.  1.
          2   -1    0    0  501    0  0.00000000000E+00 -0.00000000000E+00 -0.10448244527E+04  0.10448244527E+04  0.25500000000E-02 0. -1.
    8880023    1    1    2    0    0  0.26262163616E+03  0.10074675299E+03  0.52715589442E+03  0.88928261835E+03  0.65864270000E+03 0.  1.
    8880022    1    1    2    0    0 -0.26262163616E+03 -0.10074675299E+03 -0.83409094063E+03  0.89343124093E+03  0.15294330000E+03 0.  0.
<mgrwt>
<rscale>  0 0.58562355E+03</rscale>
<asrwt>0</asrwt>
<pdfrwt beam="1">  1        2 0.16074222E+00 0.71619148E+03</pdfrwt>
<pdfrwt beam="2">  1       -2 0.11352145E+00 0.71619148E+03</pdfrwt>
<totfact> 0.14659320E+01</totfact>
</mgrwt>
</event>
<event>
 4    5  0.7289609E-008  0.1276371E+04  0.7818608E-02  0.9086238E-01
          2   -1    0    0  501    0  0.00000000000E+00  0.00000000000E+00  0.22294828017E+04  0.22294828017E+04  0.25500000000E-02 0. -1.
         -2   -1    0    0    0  501 -0.00000000000E+00 -0.00000000000E+00 -0.84437147563E+03  0.84437147564E+03  0.25500000000E-02 0.  1.
    8880023    1    1    2    0    0 -0.44990422751E+03 -0.99644292327E+03 -0.32887271296E+02  0.12767944596E+04  0.65864270000E+03 0.  1.
    8880022    1    1    2    0    0  0.44990422751E+03  0.99644292327E+03  0.14179985974E+04  0.17970598177E+04  0.15294330000E+03 0.  0.
<mgrwt>
<rscale>  0 0.12308920E+04</rscale>
<asrwt>0</asrwt>
<pdfrwt beam="1">  1        2 0.34299735E+00 0.12763708E+04</pdfrwt>
<pdfrwt beam="2">  1       -2 0.12990330E+00 0.12763708E+04</pdfrwt>
<totfact> 0.20945880E+00</totfact>
</mgrwt>
</event>
<event>
 4    5  0.1122985E-007  0.1059696E+04  0.7818608E-02  0.9307315E-01
          2   -1    0    0  501    0  0.00000000000E+00  0.00000000000E+00  0.25063208541E+04  0.25063208541E+04  0.25500000000E-02 0. -1.
         -2   -1    0    0    0  501 -0.00000000000E+00 -0.00000000000E+00 -0.21768379068E+04  0.21768379068E+04  0.25500000000E-02 0.  1.
    8880023    1    1    2    0    0  0.21093235931E+03  0.80290312660E+03 -0.19681896320E+04  0.22353358863E+04  0.65864270000E+03 0.  0.
    8880022    1    1    2    0    0 -0.21093235931E+03 -0.80290312660E+03  0.22976725792E+04  0.24478228746E+04  0.15294330000E+03 0.  0.
<mgrwt>
<rscale>  0 0.10011220E+04</rscale>
<asrwt>0</asrwt>
<pdfrwt beam="1">  1        2 0.38558782E+00 0.10596962E+04</pdfrwt>
<pdfrwt beam="2">  1       -2 0.33489814E+00 0.10596962E+04</pdfrwt>
<totfact> 0.67545617E-02</totfact>
</mgrwt>
</event>
<event>
 4    5  0.7289609E-008  0.1022623E+04  0.7818608E-02  0.9352540E-01
         -2   -1    0    0    0  501 -0.00000000000E+00  0.00000000000E+00  0.64578641444E+03  0.64578641445E+03  0.25500000000E-02 0.  1.
          2   -1    0    0  501    0  0.00000000000E+00 -0.00000000000E+00 -0.23722384601E+04  0.23722384601E+04  0.25500000000E-02 0. -1.
    8880023    1    1    2    0    0 -0.26260489590E+03 -0.73687616185E+03  0.97748853399E+02  0.10272842128E+04  0.65864270000E+03 0.  0.
    8880022    1    1    2    0    0  0.26260489590E+03  0.73687616185E+03 -0.18242008991E+04  0.19907406618E+04  0.15294330000E+03 0.  0.
<mgrwt>
<rscale>  0 0.96086512E+03</rscale>
<asrwt>0</asrwt>
<pdfrwt beam="1">  1        2 0.36495976E+00 0.10226231E+04</pdfrwt>
<pdfrwt beam="2">  1       -2 0.99351757E-01 0.10226231E+04</pdfrwt>
<totfact> 0.34703706E+00</totfact>
</mgrwt>
</event>
<event>
 4    5  0.7289609E-008  0.2509183E+04  0.7818608E-02  0.8407227E-01
         -2   -1    0    0    0  501 -0.00000000000E+00  0.00000000000E+00  0.18922767649E+04  0.18922767649E+04  0.25500000000E-02 0.  1.
          2   -1    0    0  501    0  0.00000000000E+00 -0.00000000000E+00 -0.42196076156E+04  0.42196076156E+04  0.25500000000E-02 0. -1.
    8880023    1    1    2    0    0 -0.13398846110E+04  0.20166547655E+04 -0.26674443262E+04  0.36621382624E+04  0.65864270000E+03 0.  0.
    8880022    1    1    2    0    0  0.13398846110E+04 -0.20166547655E+04  0.34011347551E+03  0.24497461181E+04  0.15294330000E+03 0.  0.
<mgrwt>
<rscale>  0 0.24881288E+04</rscale>
<asrwt>0</asrwt>
<pdfrwt beam="1">  1        2 0.64917040E+00 0.25091826E+04</pdfrwt>
<pdfrwt beam="2">  1       -2 0.29111950E+00 0.25091826E+04</pdfrwt>
<totfact> 0.67533330E-03</totfact>
</mgrwt>
</event>
<event>
 4    5  0.7289609E-008  0.2283181E+04  0.7818608E-02  0.8493903E-01
          2   -1    0    0  501    0  0.00000000000E+00  0.00000000000E+00  0.51887016674E+04  0.51887016674E+04  0.25500000000E-02 0. -1.
         -2   -1    0    0    0  501 -0.00000000000E+00 -0.00000000000E+00 -0.13257053430E+04  0.13257053430E+04  0.25500000000E-02 0.  1.
    8880023    1    1    2    0    0 -0.12875189974E+04 -0.17667484973E+04  0.26087406593E+03  0.22980363152E+04  0.65864270000E+03 0.  0.
    8880022    1    1    2    0    0  0.12875189974E+04  0.17667484973E+04  0.36021222585E+04  0.42163706952E+04  0.15294330000E+03 0.  0.
<mgrwt>
<rscale>  0 0.22598970E+04</rscale>
<asrwt>0</asrwt>
<pdfrwt beam="1">  1        2 0.79826179E+00 0.22831810E+04</pdfrwt>
<pdfrwt beam="2">  1       -2 0.20395467E+00 0.22831810E+04</pdfrwt>
<totfact> 0.21000932E-03</totfact>
</mgrwt>
</event>
<event>
 4    5  0.7289609E-008  0.7320439E+03  0.7818608E-02  0.9883760E-01
          2   -1    0    0  501    0  0.00000000000E+00  0.00000000000E+00  0.26244544660E+04  0.26244544660E+04  0.25500000000E-02 0. -1.
         -2   -1    0    0    0  501 -0.00000000000E+00 -0.00000000000E+00 -0.78262372742E+03  0.78262372742E+03  0.25500000000E-02 0.  1.
    8880023    1    1    2    0    0  0.18369997869E+03 -0.26140468106E+03 -0.59579318103E+03  0.94385264225E+03  0.65864270000E+03 0.  1.
    8880022    1    1    2    0    0 -0.18369997869E+03  0.26140468106E+03  0.24376239196E+04  0.24632255511E+04  0.15294330000E+03 0.  0.
<mgrwt>
<rscale>  0 0.61054858E+03</rscale>
<asrwt>0</asrwt>
<pdfrwt beam="1">  1        2 0.40376223E+00 0.73204392E+03</pdfrwt>
<pdfrwt beam="2">  1       -2 0.12040365E+00 0.73204392E+03</pdfrwt>
<totfact> 0.16414366E+00</totfact>
</mgrwt>
</event>
<event>
 4    5  0.7289609E-008  0.1200518E+04  0.7818608E-02  0.9156619E-01
          2   -1    0    0  501    0  0.00000000000E+00  0.00000000000E+00  0.30561522068E+04  0.30561522068E+04  0.25500000000E-02 0. -1.
         -2   -1    0    0    0  501 -0.00000000000E+00 -0.00000000000E+00 -0.96089284669E+03  0.96089284669E+03  0.25500000000E-02 0.  1.
    8880023    1    1    2    0    0  0.35537000719E+03 -0.93869340719E+03 -0.44583272490E+03  0.12806288219E+04  0.65864270000E+03 0.  1.
    8880022    1    1    2    0    0 -0.35537000719E+03  0.93869340719E+03  0.25410920850E+04  0.27364162315E+04  0.15294330000E+03 0.  0.
<mgrwt>
<rscale>  0 0.11512631E+04</rscale>
<asrwt>0</asrwt>
<pdfrwt beam="1">  1        2 0.47017726E+00 0.12005180E+04</pdfrwt>
<pdfrwt beam="2">  1       -2 0.14782967E+00 0.12005180E+04</pdfrwt>
<totfact> 0.49274023E-01</totfact>
</mgrwt>
</event>
<event>
 4    5  0.7289609E-008  0.9550353E+03  0.7818608E-02  0.9442906E-01
          2   -1    0    0  501    0  0.00000000000E+00  0.00000000000E+00  0.22533567127E+04  0.22533567127E+04  0.25500000000E-02 0. -1.
         -2   -1    0    0    0  501 -0.00000000000E+00 -0.00000000000E+00 -0.32016653321E+03  0.32016653322E+03  0.25500000000E-02 0.  1.
    8880023    1    1    2    0    0  0.52806239264E+03 -0.44657848879E+03  0.84537468233E+03  0.12754414126E+04  0.65864270000E+03 0.  0.
    8880022    1    1    2    0    0 -0.52806239264E+03  0.44657848879E+03  0.10878154972E+04  0.12980818333E+04  0.15294330000E+03 0.  0.
<mgrwt>
<rscale>  0 0.88627247E+03</rscale>
<asrwt>0</asrwt>
<pdfrwt beam="1">  1        2 0.34667027E+00 0.95503531E+03</pdfrwt>
<pdfrwt beam="2">  1       -2 0.49256389E-01 0.95503531E+03</pdfrwt>
<totfact> 0.19040060E+01</totfact>
</mgrwt>
</event>
<event>
 4    5  0.7289609E-008  0.9386395E+03  0.7818608E-02  0.9466651E-01
          2   -1    0    0  501    0  0.00000000000E+00  0.00000000000E+00  0.24129545892E+04  0.24129545892E+04  0.25500000000E-02 0. -1.
         -2   -1    0    0    0  501 -0.00000000000E+00 -0.00000000000E+00 -0.78440576384E+03  0.78440576384E+03  0.25500000000E-02 0.  1.
    8880023    1    1    2    0    0 -0.58404497258E+03  0.32576880675E+03 -0.42638087239E+03  0.10309435969E+04  0.65864270000E+03 0.  0.
    8880022    1    1    2    0    0  0.58404497258E+03 -0.32576880675E+03  0.20549296978E+04  0.21664167561E+04  0.15294330000E+03 0.  0.
<mgrwt>
<rscale>  0 0.86787772E+03</rscale>
<asrwt>0</asrwt>
<pdfrwt beam="1">  1        2 0.37122378E+00 0.93863947E+03</pdfrwt>
<pdfrwt beam="2">  1       -2 0.12067781E+00 0.93863947E+03</pdfrwt>
<totfact> 0.20762821E+00</totfact>
</mgrwt>
</event>
<event>
 4    5  0.7289609E-008  0.7203573E+03  0.7818608E-02  0.9921379E-01
         -2   -1    0    0    0  501 -0.00000000000E+00  0.00000000000E+00  0.34016121880E+03  0.34016121881E+03  0.25500000000E-02 0.  1.
          2   -1    0    0  501    0  0.00000000000E+00 -0.00000000000E+00 -0.91966832632E+03  0.91966832632E+03  0.25500000000E-02 0. -1.
    8880023    1    1    2    0    0 -0.22678115905E+03 -0.18350673147E+03 -0.18087412829E+03  0.74271802937E+03  0.65864270000E+03 0.  1.
    8880022    1    1    2    0    0  0.22678115905E+03  0.18350673147E+03 -0.39863297922E+03  0.51711151576E+03  0.15294330000E+03 0.  1.
<mgrwt>
<rscale>  0 0.59236272E+03</rscale>
<asrwt>0</asrwt>
<pdfrwt beam="1">  1        2 0.14148743E+00 0.72035729E+03</pdfrwt>
<pdfrwt beam="2">  1       -2 0.52332496E-01 0.72035729E+03</pdfrwt>
<totfact> 0.99499684E+01</totfact>
</mgrwt>
</event>
<event>
 4    5  0.1268530E-007  0.1530691E+04  0.7818608E-02  0.8888262E-01
          2   -1    0    0  501    0  0.00000000000E+00  0.00000000000E+00  0.36959778491E+04  0.36959778491E+04  0.25500000000E-02 0. -1.
         -2   -1    0    0    0  501 -0.00000000000E+00 -0.00000000000E+00 -0.15880797212E+04  0.15880797212E+04  0.25500000000E-02 0.  1.
    8880023    1    1    2    0    0 -0.23397991743E+03 -0.13617852544E+04 -0.10347721370E+04  0.18476388345E+04  0.65864270000E+03 0.  0.
    8880022    1    1    2    0    0  0.23397991743E+03  0.13617852544E+04  0.31426702650E+04  0.34364187358E+04  0.15294330000E+03 0.  0.
<mgrwt>
<rscale>  0 0.14942848E+04</rscale>
<asrwt>0</asrwt>
<pdfrwt beam="1">  1        2 0.56861197E+00 0.15306913E+04</pdfrwt>
<pdfrwt beam="2">  1       -2 0.24431996E+00 0.15306913E+04</pdfrwt>
<totfact> 0.38662961E-02</totfact>
</mgrwt>
</event>
<event>
 4    5  0.7289609E-008  0.7013030E+03  0.7818608E-02  0.9991838E-01
         -2   -1    0    0    0  501 -0.00000000000E+00  0.00000000000E+00  0.12144899497E+04  0.12144899497E+04  0.25500000000E-02 0.  1.
          2   -1    0    0  501    0  0.00000000000E+00 -0.00000000000E+00 -0.68901541319E+03  0.68901541320E+03  0.25500000000E-02 0. -1.
    8880023    1    1    2    0    0  0.10909450709E+03  0.21474195492E+03  0.10754598472E+04  0.12839158103E+04  0.65864270000E+03 0.  1.
    8880022    1    1    2    0    0 -0.10909450709E+03 -0.21474195492E+03 -0.54998531072E+03  0.61958955261E+03  0.15294330000E+03 0.  0.
<mgrwt>
<rscale>  0 0.56009571E+03</rscale>
<asrwt>0</asrwt>
<pdfrwt beam="1">  1        2 0.10600237E+00 0.70130302E+03</pdfrwt>
<pdfrwt beam="2">  1       -2 0.18684461E+00 0.70130302E+03</pdfrwt>
<totfact> 0.69757326E+00</totfact>
</mgrwt>
</event>
<event>
 4    5  0.7289609E-008  0.7565377E+03  0.7818608E-02  0.9814155E-01
          2   -1    0    0  501    0  0.00000000000E+00  0.00000000000E+00  0.15170197929E+04  0.15170197929E+04  0.25500000000E-02 0. -1.
         -2   -1    0    0    0  501 -0.00000000000E+00 -0.00000000000E+00 -0.53921389640E+03  0.53921389641E+03  0.25500000000E-02 0.  1.
    8880023    1    1    2    0    0 -0.36800012794E+03 -0.55811509607E+02 -0.22387394617E+03  0.78896689969E+03  0.65864270000E+03 0.  0.
    8880022    1    1    2    0    0  0.36800012794E+03  0.55811509607E+02  0.12016798426E+04  0.12672667896E+04  0.15294330000E+03 0.  0.
<mgrwt>
<rscale>  0 0.64608410E+03</rscale>
<asrwt>0</asrwt>
<pdfrwt beam="1">  1        2 0.23338766E+00 0.75653766E+03</pdfrwt>
<pdfrwt beam="2">  1       -2 0.82955983E-01 0.75653766E+03</pdfrwt>
<totfact> 0.16185680E+01</totfact>
</mgrwt>
</event>
<event>
 4    5  0.7289609E-008  0.1118627E+04  0.7818608E-02  0.9240596E-01
          2   -1    0    0  501    0  0.00000000000E+00  0.00000000000E+00  0.12416905177E+04  0.12416905177E+04  0.25500000000E-02 0. -1.
         -2   -1    0    0    0  501 -0.00000000000E+00 -0.00000000000E+00 -0.10769500306E+04  0.10769500306E+04  0.25500000000E-02 0.  1.
    8880023    1    1    2    0    0 -0.67899281873E+03 -0.59706277717E+03 -0.45949958111E+03  0.12093243068E+04  0.65864270000E+03 0.  1.
    8880022    1    1    2    0    0  0.67899281873E+03  0.59706277717E+03  0.62424006824E+03  0.11093162415E+04  0.15294330000E+03 0.  0.
<mgrwt>
<rscale>  0 0.10644061E+04</rscale>
<asrwt>0</asrwt>
<pdfrwt beam="1">  1        2 0.19102931E+00 0.11186266E+04</pdfrwt>
<pdfrwt beam="2">  1       -2 0.16568462E+00 0.11186266E+04</pdfrwt>
<totfact> 0.40096510E+00</totfact>
</mgrwt>
</event>
<event>
 4    5  0.7289609E-008  0.1082359E+04  0.7818608E-02  0.9280956E-01
          2   -1    0    0  501    0  0.00000000000E+00  0.00000000000E+00  0.12049855935E+04  0.12049855935E+04  0.25500000000E-02 0. -1.
         -2   -1    0    0    0  501 -0.00000000000E+00 -0.00000000000E+00 -0.31932404329E+04  0.31932404329E+04  0.25500000000E-02 0.  1.
    8880023    1    1    2    0    0 -0.74570215513E+03 -0.42616834650E+03 -0.29245949843E+04  0.31184542953E+04  0.65864270000E+03 0.  0.
    8880022    1    1    2    0    0  0.74570215513E+03  0.42616834650E+03  0.93634014490E+03  0.12797717311E+04  0.15294330000E+03 0.  0.
<mgrwt>
<rscale>  0 0.10255517E+04</rscale>
<asrwt>0</asrwt>
<pdfrwt beam="1">  1        2 0.18538240E+00 0.10823592E+04</pdfrwt>
<pdfrwt beam="2">  1       -2 0.49126775E+00 0.10823592E+04</pdfrwt>
<totfact> 0.35085259E-02</totfact>
</mgrwt>
</event>
<event>
 4    5  0.7289609E-008  0.6608725E+03  0.7818608E-02  0.1023280E+00
         -2   -1    0    0    0  501 -0.00000000000E+00  0.00000000000E+00  0.27444434209E+04  0.27444434209E+04  0.25500000000E-02 0.  1.
          2   -1    0    0  501    0  0.00000000000E+00 -0.00000000000E+00 -0.67497302254E+03  0.67497302254E+03  0.25500000000E-02 0. -1.
    8880023    1    1    2    0    0  0.53301629409E+02  0.10057996395E+02  0.26941403430E+04  0.27740123686E+04  0.65864270000E+03 0.  1.
    8880022    1    1    2    0    0 -0.53301629409E+02 -0.10057996395E+02 -0.62466994468E+03  0.64540407482E+03  0.15294330000E+03 0.  0.
<mgrwt>
<rscale>  0 0.46521382E+03</rscale>
<asrwt>0</asrwt>
<pdfrwt beam="1">  1        2 0.10384200E+00 0.66087248E+03</pdfrwt>
<pdfrwt beam="2">  1       -2 0.42222207E+00 0.66087248E+03</pdfrwt>
<totfact> 0.24784191E-01</totfact>
</mgrwt>
</event>
<event>
 4    5  0.7289609E-008  0.1238562E+04  0.7818608E-02  0.9120519E-01
          2   -1    0    0  501    0  0.00000000000E+00  0.00000000000E+00  0.24695335100E+04  0.24695335100E+04  0.25500000000E-02 0. -1.
         -2   -1    0    0    0  501 -0.00000000000E+00 -0.00000000000E+00 -0.13480912450E+04  0.13480912450E+04  0.25500000000E-02 0.  1.
    8880023    1    1    2    0    0  0.46261204884E+03  0.94139076376E+03 -0.90277516827E+03  0.15326577206E+04  0.65864270000E+03 0.  0.
    8880022    1    1    2    0    0 -0.46261204884E+03 -0.94139076376E+03  0.20242174333E+04  0.22849670344E+04  0.15294330000E+03 0.  0.
<mgrwt>
<rscale>  0 0.11912852E+04</rscale>
<asrwt>0</asrwt>
<pdfrwt beam="1">  1        2 0.37992823E+00 0.12385623E+04</pdfrwt>
<pdfrwt beam="2">  1       -2 0.20739865E+00 0.12385623E+04</pdfrwt>
<totfact> 0.41862812E-01</totfact>
</mgrwt>
</event>
<event>
 4    5  0.7289609E-008  0.1032689E+04  0.7818608E-02  0.9339987E-01
         -2   -1    0    0    0  501 -0.00000000000E+00  0.00000000000E+00  0.86308944983E+03  0.86308944983E+03  0.25500000000E-02 0.  1.
          2   -1    0    0  501    0  0.00000000000E+00 -0.00000000000E+00 -0.11274305191E+04  0.11274305191E+04  0.25500000000E-02 0. -1.
    8880023    1    1    2    0    0 -0.16688731222E+03  0.77767921437E+03  0.20724415142E+03  0.10532790134E+04  0.65864270000E+03 0.  0.
    8880022    1    1    2    0    0  0.16688731222E+03 -0.77767921437E+03 -0.47158522073E+03  0.93724095560E+03  0.15294330000E+03 0.  1.
<mgrwt>
<rscale>  0 0.97183482E+03</rscale>
<asrwt>0</asrwt>
<pdfrwt beam="1">  1        2 0.17345085E+00 0.10326890E+04</pdfrwt>
<pdfrwt beam="2">  1       -2 0.13278299E+00 0.10326890E+04</pdfrwt>
<totfact> 0.85283226E+00</totfact>
</mgrwt>
</event>
<event>
 4    5  0.7289609E-008  0.6607052E+03  0.7818608E-02  0.1023445E+00
          2   -1    0    0  501    0  0.00000000000E+00  0.00000000000E+00  0.83150862196E+03  0.83150862196E+03  0.25500000000E-02 0. -1.
         -2   -1    0    0    0  501 -0.00000000000E+00 -0.00000000000E+00 -0.59853729046E+03  0.59853729047E+03  0.25500000000E-02 0.  1.
    8880023    1    1    2    0    0 -0.87177808882E+01  0.51431302775E+02 -0.40296871752E+03  0.77389609908E+03  0.65864270000E+03 0.  1.
    8880022    1    1    2    0    0  0.87177808882E+01 -0.51431302775E+02  0.63594004901E+03  0.65614981335E+03  0.15294330000E+03 0.  0.
<mgrwt>
<rscale>  0 0.46463567E+03</rscale>
<asrwt>0</asrwt>
<pdfrwt beam="1">  1        2 0.12792440E+00 0.66070522E+03</pdfrwt>
<pdfrwt beam="2">  1       -2 0.92082660E-01 0.66070522E+03</pdfrwt>
<totfact> 0.33528382E+01</totfact>
</mgrwt>
</event>
<event>
 4    5  0.7289609E-008  0.7661555E+03  0.7818608E-02  0.9789425E-01
         -2   -1    0    0    0  501 -0.00000000000E+00  0.00000000000E+00  0.50770405770E+03  0.50770405771E+03  0.25500000000E-02 0.  1.
          2   -1    0    0  501    0  0.00000000000E+00 -0.00000000000E+00 -0.24332968705E+04  0.24332968705E+04  0.25500000000E-02 0. -1.
    8880023    1    1    2    0    0  0.39095696210E+03 -0.18347404034E+02  0.18566555321E+03  0.78833107091E+03  0.65864270000E+03 0.  0.
    8880022    1    1    2    0    0 -0.39095696210E+03  0.18347404034E+02 -0.21112583660E+04  0.21526698573E+04  0.15294330000E+03 0. -1.
<mgrwt>
<rscale>  0 0.65933179E+03</rscale>
<asrwt>0</asrwt>
<pdfrwt beam="1">  1        2 0.37435336E+00 0.76615545E+03</pdfrwt>
<pdfrwt beam="2">  1       -2 0.78108318E-01 0.76615545E+03</pdfrwt>
<totfact> 0.57971590E+00</totfact>
</mgrwt>
</event>
<event>
 4    5  0.7289609E-008  0.7849961E+03  0.7818608E-02  0.9744229E-01
          2   -1    0    0  501    0  0.00000000000E+00  0.00000000000E+00  0.15390198422E+04  0.15390198422E+04  0.25500000000E-02 0. -1.
         -2   -1    0    0    0  501 -0.00000000000E+00 -0.00000000000E+00 -0.37724581080E+03  0.37724581081E+03  0.25500000000E-02 0.  1.
    8880023    1    1    2    0    0  0.32976353662E+03  0.27141226971E+03  0.13874386209E+03  0.79716289162E+03  0.65864270000E+03 0.  1.
    8880022    1    1    2    0    0 -0.32976353662E+03 -0.27141226971E+03  0.10230301693E+04  0.11191027614E+04  0.15294330000E+03 0.  0.
<mgrwt>
<rscale>  0 0.68443364E+03</rscale>
<asrwt>0</asrwt>
<pdfrwt beam="1">  1        2 0.23677228E+00 0.78499606E+03</pdfrwt>
<pdfrwt beam="2">  1       -2 0.58037817E-01 0.78499606E+03</pdfrwt>
<totfact> 0.34181095E+01</totfact>
</mgrwt>
</event>
<event>
 4    5  0.7289609E-008  0.9267472E+03  0.7818608E-02  0.9484390E-01
          2   -1    0    0  501    0  0.00000000000E+00  0.00000000000E+00  0.18609743900E+04  0.18609743900E+04  0.25500000000E-02 0. -1.
         -2   -1    0    0    0  501 -0.00000000000E+00 -0.00000000000E+00 -0.44312101144E+03  0.44312101145E+03  0.25500000000E-02 0.  1.
    8880023    1    1    2    0    0  0.60321543647E+03 -0.24734861231E+03  0.25331395383E+03  0.96074365170E+03  0.65864270000E+03 0.  0.
    8880022    1    1    2    0    0 -0.60321543647E+03  0.24734861231E+03  0.11645394247E+04  0.13433517497E+04  0.15294330000E+03 0.  0.
<mgrwt>
<rscale>  0 0.85444524E+03</rscale>
<asrwt>0</asrwt>
<pdfrwt beam="1">  1        2 0.28630375E+00 0.92674722E+03</pdfrwt>
<pdfrwt beam="2">  1       -2 0.68172463E-01 0.92674722E+03</pdfrwt>
<totfact> 0.15863573E+01</totfact>
</mgrwt>
</event>
<event>
 4    5  0.7289609E-008  0.1077531E+04  0.7818608E-02  0.9286494E-01
         -2   -1    0    0    0  501 -0.00000000000E+00  0.00000000000E+00  0.74213784780E+03  0.74213784780E+03  0.25500000000E-02 0.  1.
          2   -1    0    0  501    0  0.00000000000E+00 -0.00000000000E+00 -0.14902858572E+04  0.14902858572E+04  0.25500000000E-02 0. -1.
    8880023    1    1    2    0    0 -0.45651565503E+03 -0.72031714990E+03  0.15311480974E+02  0.10776400083E+04  0.65864270000E+03 0.  0.
    8880022    1    1    2    0    0  0.45651565503E+03  0.72031714990E+03 -0.76345949033E+03  0.11547836967E+04  0.15294330000E+03 0.  0.
<mgrwt>
<rscale>  0 0.10203577E+04</rscale>
<asrwt>0</asrwt>
<pdfrwt beam="1">  1        2 0.22927475E+00 0.10775312E+04</pdfrwt>
<pdfrwt beam="2">  1       -2 0.11417505E+00 0.10775312E+04</pdfrwt>
<totfact> 0.76117365E+00</totfact>
</mgrwt>
</event>
<event>
 4    5  0.7289609E-008  0.1271663E+04  0.7818608E-02  0.9090425E-01
          2   -1    0    0  501    0  0.00000000000E+00  0.00000000000E+00  0.43286999784E+04  0.43286999784E+04  0.25500000000E-02 0. -1.
         -2   -1    0    0    0  501 -0.00000000000E+00 -0.00000000000E+00 -0.64780378821E+03  0.64780378822E+03  0.25500000000E-02 0.  1.
    8880023    1    1    2    0    0 -0.29878506507E+03  0.10459660383E+04  0.15215615673E+03  0.12807338407E+04  0.65864270000E+03 0.  1.
    8880022    1    1    2    0    0  0.29878506507E+03 -0.10459660383E+04  0.35287400334E+04  0.36957699259E+04  0.15294330000E+03 0.  0.
<mgrwt>
<rscale>  0 0.12259689E+04</rscale>
<asrwt>0</asrwt>
<pdfrwt beam="1">  1        2 0.66595382E+00 0.12716633E+04</pdfrwt>
<pdfrwt beam="2">  1       -2 0.99662124E-01 0.12716633E+04</pdfrwt>
<totfact> 0.15041644E-01</totfact>
</mgrwt>
</event>
<event>
 4    5  0.7289609E-008  0.9782991E+03  0.7818608E-02  0.9410516E-01
         -2   -1    0    0    0  501 -0.00000000000E+00  0.00000000000E+00  0.10506517198E+04  0.10506517198E+04  0.25500000000E-02 0.  1.
          2   -1    0    0  501    0  0.00000000000E+00 -0.00000000000E+00 -0.28867441681E+04  0.28867441681E+04  0.25500000000E-02 0. -1.
    8880023    1    1    2    0    0 -0.37280599383E+03 -0.61989894617E+03  0.75952692238E+03  0.12385274985E+04  0.65864270000E+03 0.  1.
    8880022    1    1    2    0    0  0.37280599383E+03  0.61989894617E+03 -0.25956193707E+04  0.26988683893E+04  0.15294330000E+03 0.  0.
<mgrwt>
<rscale>  0 0.91215258E+03</rscale>
<asrwt>0</asrwt>
<pdfrwt beam="1">  1        2 0.44411448E+00 0.97829915E+03</pdfrwt>
<pdfrwt beam="2">  1       -2 0.16163873E+00 0.97829915E+03</pdfrwt>
<totfact> 0.51042166E-01</totfact>
</mgrwt>
</event>
<event>
 4    5  0.7289609E-008  0.6939143E+03  0.7818608E-02  0.1002345E+00
         -2   -1    0    0    0  501 -0.00000000000E+00  0.00000000000E+00  0.42595389603E+03  0.42595389604E+03  0.25500000000E-02 0.  1.
          2   -1    0    0  501    0  0.00000000000E+00 -0.00000000000E+00 -0.55623168968E+03  0.55623168969E+03  0.25500000000E-02 0. -1.
    8880023    1    1    2    0    0 -0.46945251542E+02  0.21331442175E+03 -0.21613858007E+02  0.69425086553E+03  0.65864270000E+03 0.  0.
    8880022    1    1    2    0    0  0.46945251542E+02 -0.21331442175E+03 -0.10866393565E+03  0.28793472020E+03  0.15294330000E+03 0.  0.
<mgrwt>
<rscale>  0 0.54633873E+03</rscale>
<asrwt>0</asrwt>
<pdfrwt beam="1">  1        2 0.85574106E-01 0.69391434E+03</pdfrwt>
<pdfrwt beam="2">  1       -2 0.65531369E-01 0.69391434E+03</pdfrwt>
<totfact> 0.11816181E+02</totfact>
</mgrwt>
</event>
<event>
 4    5  0.7289609E-008  0.1590997E+04  0.7818608E-02  0.8847916E-01
          2   -1    0    0  501    0  0.00000000000E+00  0.00000000000E+00  0.26783564848E+04  0.26783564848E+04  0.25500000000E-02 0. -1.
         -2   -1    0    0    0  501 -0.00000000000E+00 -0.00000000000E+00 -0.16987048796E+04  0.16987048797E+04  0.25500000000E-02 0.  1.
    8880023    1    1    2    0    0 -0.13505675793E+04  0.52290384628E+03  0.20316811796E+04  0.25805037959E+04  0.65864270000E+03 0. -1.
    8880022    1    1    2    0    0  0.13505675793E+04 -0.52290384628E+03 -0.10520295744E+04  0.17965575686E+04  0.15294330000E+03 0.  0.
<mgrwt>
<rscale>  0 0.15562015E+04</rscale>
<asrwt>0</asrwt>
<pdfrwt beam="1">  1        2 0.41205484E+00 0.15909970E+04</pdfrwt>
<pdfrwt beam="2">  1       -2 0.26133921E+00 0.15909970E+04</pdfrwt>
<totfact> 0.13897213E-01</totfact>
</mgrwt>
</event>
<event>
 4    5  0.7289609E-008  0.6592194E+03  0.7818608E-02  0.1024971E+00
          2   -1    0    0  501    0  0.00000000000E+00  0.00000000000E+00  0.62165787478E+03  0.62165787478E+03  0.25500000000E-02 0. -1.
         -2   -1    0    0    0  501 -0.00000000000E+00 -0.00000000000E+00 -0.26694679854E+03  0.26694679855E+03  0.25500000000E-02 0.  1.
    8880023    1    1    2    0    0  0.27483426590E+02 -0.21555706449E+01  0.29277163646E+03  0.72130813291E+03  0.65864270000E+03 0.  1.
    8880022    1    1    2    0    0 -0.27483426590E+02  0.21555706449E+01  0.61939439774E+02  0.16729654042E+03  0.15294330000E+03 0. -1.
<mgrwt>
<rscale>  0 0.45934691E+03</rscale>
<asrwt>0</asrwt>
<pdfrwt beam="1">  1        2 0.95639671E-01 0.65921938E+03</pdfrwt>
<pdfrwt beam="2">  1       -2 0.41068739E-01 0.65921938E+03</pdfrwt>
<totfact> 0.26990145E+02</totfact>
</mgrwt>
</event>
<event>
 4    5  0.7289609E-008  0.6716898E+03  0.7818608E-02  0.1014479E+00
         -2   -1    0    0    0  501 -0.00000000000E+00  0.00000000000E+00  0.13514104808E+04  0.13514104808E+04  0.25500000000E-02 0.  1.
          2   -1    0    0  501    0  0.00000000000E+00 -0.00000000000E+00 -0.22589816583E+03  0.22589816585E+03  0.25500000000E-02 0. -1.
    8880023    1    1    2    0    0  0.11412072161E+03 -0.65828706444E+02  0.11890754762E+04  0.13656747974E+04  0.65864270000E+03 0.  1.
    8880022    1    1    2    0    0 -0.11412072161E+03  0.65828706444E+02 -0.63563161241E+02  0.21163384931E+03  0.15294330000E+03 0.  0.
<mgrwt>
<rscale>  0 0.49732542E+03</rscale>
<asrwt>0</asrwt>
<pdfrwt beam="1">  1        2 0.34753564E-01 0.67168978E+03</pdfrwt>
<pdfrwt beam="2">  1       -2 0.20790930E+00 0.67168978E+03</pdfrwt>
<totfact> 0.18254374E+01</totfact>
</mgrwt>
</event>
<event>
 4    5  0.7289609E-008  0.7986405E+03  0.7818608E-02  0.9713743E-01
          2   -1    0    0  501    0  0.00000000000E+00  0.00000000000E+00  0.52153135795E+03  0.52153135795E+03  0.25500000000E-02 0. -1.
         -2   -1    0    0    0  501 -0.00000000000E+00 -0.00000000000E+00 -0.11367881758E+04  0.11367881758E+04  0.25500000000E-02 0.  1.
    8880023    1    1    2    0    0  0.39572106418E+03 -0.21776433969E+03 -0.81520787367E+03  0.11412232699E+04  0.65864270000E+03 0.  0.
    8880022    1    1    2    0    0 -0.39572106418E+03  0.21776433969E+03  0.19995105585E+03  0.51709626379E+03  0.15294330000E+03 0.  0.
<mgrwt>
<rscale>  0 0.70204387E+03</rscale>
<asrwt>0</asrwt>
<pdfrwt beam="1">  1        2 0.80235594E-01 0.79864052E+03</pdfrwt>
<pdfrwt beam="2">  1       -2 0.17489049E+00 0.79864052E+03</pdfrwt>
<totfact> 0.11667708E+01</totfact>
</mgrwt>
</event>
<event>
 4    5  0.7289609E-008  0.8647194E+03  0.7818608E-02  0.9585223E-01
          2   -1    0    0  501    0  0.00000000000E+00  0.00000000000E+00  0.71326040725E+03  0.71326040726E+03  0.25500000000E-02 0. -1.
         -2   -1    0    0    0  501 -0.00000000000E+00 -0.00000000000E+00 -0.85417848519E+03  0.85417848519E+03  0.25500000000E-02 0.  1.
    8880023    1    1    2    0    0  0.54023491074E+03 -0.14857889994E+03 -0.37333290921E+03  0.94186894824E+03  0.65864270000E+03 0.  0.
    8880022    1    1    2    0    0 -0.54023491074E+03  0.14857889994E+03  0.23241483128E+03  0.62556994421E+03  0.15294330000E+03 0.  0.
<mgrwt>
<rscale>  0 0.78281988E+03</rscale>
<asrwt>0</asrwt>
<pdfrwt beam="1">  1        2 0.10973237E+00 0.86471941E+03</pdfrwt>
<pdfrwt beam="2">  1       -2 0.13141207E+00 0.86471941E+03</pdfrwt>
<totfact> 0.16968731E+01</totfact>
</mgrwt>
</event>
<event>
 4    5  0.7289609E-008  0.9243255E+03  0.7818608E-02  0.9488058E-01
          2   -1    0    0  501    0  0.00000000000E+00  0.00000000000E+00  0.16270951917E+04  0.16270951917E+04  0.25500000000E-02 0. -1.
         -2   -1    0    0    0  501 -0.00000000000E+00 -0.00000000000E+00 -0.83585717392E+03  0.83585717393E+03  0.25500000000E-02 0.  1.
    8880023    1    1    2    0    0 -0.12004064518E+02  0.64840059843E+03 -0.46968157537E+03  0.10368116618E+04  0.65864270000E+03 0.  0.
    8880022    1    1    2    0    0  0.12004064518E+02 -0.64840059843E+03  0.12609195932E+04  0.14261407038E+04  0.15294330000E+03 0. -1.
<mgrwt>
<rscale>  0 0.85169985E+03</rscale>
<asrwt>0</asrwt>
<pdfrwt beam="1">  1        2 0.25032233E+00 0.92432551E+03</pdfrwt>
<pdfrwt beam="2">  1       -2 0.12859341E+00 0.92432551E+03</pdfrwt>
<totfact> 0.48246503E+00</totfact>
</mgrwt>
</event>
<event>
 4    5  0.7289609E-008  0.1418901E+04  0.7818608E-02  0.8969134E-01
         -2   -1    0    0    0  501 -0.00000000000E+00  0.00000000000E+00  0.17091131944E+04  0.17091131944E+04  0.25500000000E-02 0.  1.
          2   -1    0    0  501    0  0.00000000000E+00 -0.00000000000E+00 -0.19667223000E+04  0.19667223001E+04  0.25500000000E-02 0. -1.
    8880023    1    1    2    0    0 -0.12561034099E+04  0.40906224577E+02  0.11179015405E+04  0.18063729283E+04  0.65864270000E+03 0.  0.
    8880022    1    1    2    0    0  0.12561034099E+04 -0.40906224577E+02 -0.13755106462E+04  0.18694625662E+04  0.15294330000E+03 0.  0.
<mgrwt>
<rscale>  0 0.13790372E+04</rscale>
<asrwt>0</asrwt>
<pdfrwt beam="1">  1        2 0.30257266E+00 0.14189007E+04</pdfrwt>
<pdfrwt beam="2">  1       -2 0.26294049E+00 0.14189007E+04</pdfrwt>
<totfact> 0.35323025E-01</totfact>
</mgrwt>
</event>
<event>
 4    5  0.7289609E-008  0.7815241E+03  0.7818608E-02  0.9752269E-01
          2   -1    0    0  501    0  0.00000000000E+00  0.00000000000E+00  0.16417726112E+04  0.16417726112E+04  0.25500000000E-02 0. -1.
         -2   -1    0    0    0  501 -0.00000000000E+00 -0.00000000000E+00 -0.11304950444E+04  0.11304950445E+04  0.25500000000E-02 0.  1.
    8880023    1    1    2    0    0 -0.42054330930E+03  0.10632623374E+02 -0.95798621836E+03  0.12363322889E+04  0.65864270000E+03 0.  1.
    8880022    1    1    2    0    0  0.42054330930E+03 -0.10632623374E+02  0.14692637851E+04  0.15359353668E+04  0.15294330000E+03 0.  0.
<mgrwt>
<rscale>  0 0.67988199E+03</rscale>
<asrwt>0</asrwt>
<pdfrwt beam="1">  1        2 0.25258040E+00 0.78152411E+03</pdfrwt>
<pdfrwt beam="2">  1       -2 0.17392232E+00 0.78152411E+03</pdfrwt>
<totfact> 0.21683221E+00</totfact>
</mgrwt>
</event>
<event>
 4    5  0.7289609E-008  0.1627484E+04  0.7818608E-02  0.8824495E-01
         -2   -1    0    0    0  501 -0.00000000000E+00  0.00000000000E+00  0.14277599546E+04  0.14277599546E+04  0.25500000000E-02 0.  1.
          2   -1    0    0  501    0  0.00000000000E+00 -0.00000000000E+00 -0.24525053598E+04  0.24525053598E+04  0.25500000000E-02 0. -1.
    8880023    1    1    2    0    0 -0.68391148973E+03 -0.13218012750E+04  0.54062825088E+03  0.17149293421E+04  0.65864270000E+03 0.  0.
    8880022    1    1    2    0    0  0.68391148973E+03  0.13218012750E+04 -0.15653736562E+04  0.21653359723E+04  0.15294330000E+03 0.  0.
<mgrwt>
<rscale>  0 0.15935913E+04</rscale>
<asrwt>0</asrwt>
<pdfrwt beam="1">  1        2 0.37730852E+00 0.16274839E+04</pdfrwt>
<pdfrwt beam="2">  1       -2 0.21965538E+00 0.16274839E+04</pdfrwt>
<totfact> 0.34091330E-01</totfact>
</mgrwt>
</event>
<event>
 4    5  0.7289609E-008  0.9349684E+03  0.7818608E-02  0.9472079E-01
         -2   -1    0    0    0  501 -0.00000000000E+00  0.00000000000E+00  0.50598732179E+03  0.50598732180E+03  0.25500000000E-02 0.  1.
          2   -1    0    0  501    0  0.00000000000E+00 -0.00000000000E+00 -0.15740997558E+04  0.15740997558E+04  0.25500000000E-02 0. -1.
    8880023    1    1    2    0    0 -0.23176745334E+03 -0.62180352895E+03 -0.16566773373E+03  0.94953240351E+03  0.65864270000E+03 0.  0.
    8880022    1    1    2    0    0  0.23176745334E+03  0.62180352895E+03 -0.90244470028E+03  0.11305546741E+04  0.15294330000E+03 0.  0.
<mgrwt>
<rscale>  0 0.86373975E+03</rscale>
<asrwt>0</asrwt>
<pdfrwt beam="1">  1        2 0.24216919E+00 0.93496844E+03</pdfrwt>
<pdfrwt beam="2">  1       -2 0.77844204E-01 0.93496844E+03</pdfrwt>
<totfact> 0.17018615E+01</totfact>
</mgrwt>
</event>
<event>
 4    5  0.7289609E-008  0.8059035E+03  0.7818608E-02  0.9698174E-01
          2   -1    0    0  501    0  0.00000000000E+00  0.00000000000E+00  0.66215794460E+03  0.66215794461E+03  0.25500000000E-02 0. -1.
         -2   -1    0    0    0  501 -0.00000000000E+00 -0.00000000000E+00 -0.91863346597E+03  0.91863346597E+03  0.25500000000E-02 0.  1.
    8880023    1    1    2    0    0 -0.37704873148E+03  0.27111698785E+03 -0.58139941319E+03  0.99373318901E+03  0.65864270000E+03 0.  0.
    8880022    1    1    2    0    0  0.37704873148E+03 -0.27111698785E+03  0.32492389183E+03  0.58705822157E+03  0.15294330000E+03 0.  0.
<mgrwt>
<rscale>  0 0.71125616E+03</rscale>
<asrwt>0</asrwt>
<pdfrwt beam="1">  1        2 0.10187045E+00 0.80590345E+03</pdfrwt>
<pdfrwt beam="2">  1       -2 0.14132823E+00 0.80590345E+03</pdfrwt>
<totfact> 0.15536510E+01</totfact>
</mgrwt>
</event>
<event>
 4    5  0.7289609E-008  0.1285882E+04  0.7818608E-02  0.9077849E-01
          2   -1    0    0  501    0  0.00000000000E+00  0.00000000000E+00  0.92775161110E+03  0.92775161110E+03  0.25500000000E-02 0. -1.
         -2   -1    0    0    0  501 -0.00000000000E+00 -0.00000000000E+00 -0.21621620809E+04  0.21621620809E+04  0.25500000000E-02 0.  1.
    8880023    1    1    2    0    0  0.13392872934E+03 -0.10962411608E+04 -0.14671983604E+04  0.19509389591E+04  0.65864270000E+03 0.  0.
    8880022    1    1    2    0    0 -0.13392872934E+03  0.10962411608E+04  0.23278789063E+03  0.11389747329E+04  0.15294330000E+03 0.  0.
<mgrwt>
<rscale>  0 0.12408316E+04</rscale>
<asrwt>0</asrwt>
<pdfrwt beam="1">  1        2 0.14273102E+00 0.12858817E+04</pdfrwt>
<pdfrwt beam="2">  1       -2 0.33264032E+00 0.12858817E+04</pdfrwt>
<totfact> 0.54569208E-01</totfact>
</mgrwt>
</event>
<event>
 4    5  0.7289609E-008  0.8597299E+03  0.7818608E-02  0.9594044E-01
          2   -1    0    0  501    0  0.00000000000E+00  0.00000000000E+00  0.35275710037E+04  0.35275710037E+04  0.25500000000E-02 0. -1.
         -2   -1    0    0    0  501 -0.00000000000E+00 -0.00000000000E+00 -0.31777744828E+03  0.31777744829E+03  0.25500000000E-02 0.  1.
    8880023    1    1    2    0    0 -0.18020290875E+03 -0.52235256467E+03  0.34932803934E+03  0.92799007294E+03  0.65864270000E+03 0.  0.
    8880022    1    1    2    0    0  0.18020290875E+03  0.52235256467E+03  0.28604655161E+04  0.29173583791E+04  0.15294330000E+03 0.  0.
<mgrwt>
<rscale>  0 0.77691639E+03</rscale>
<asrwt>0</asrwt>
<pdfrwt beam="1">  1        2 0.54270321E+00 0.85972990E+03</pdfrwt>
<pdfrwt beam="2">  1       -2 0.48888840E-01 0.85972990E+03</pdfrwt>
<totfact> 0.32748662E+00</totfact>
</mgrwt>
</event>
<event>
 4    5  0.7289609E-008  0.7749781E+03  0.7818608E-02  0.9767768E-01
         -2   -1    0    0    0  501 -0.00000000000E+00  0.00000000000E+00  0.29731082006E+03  0.29731082007E+03  0.25500000000E-02 0.  1.
          2   -1    0    0  501    0  0.00000000000E+00 -0.00000000000E+00 -0.20069825050E+04  0.20069825050E+04  0.25500000000E-02 0. -1.
    8880023    1    1    2    0    0  0.40487950915E+03  0.53417862847E+02 -0.30389803316E+03  0.83243324407E+03  0.65864270000E+03 0.  0.
    8880022    1    1    2    0    0 -0.40487950915E+03 -0.53417862847E+02 -0.14057736518E+04  0.14718600810E+04  0.15294330000E+03 0.  0.
<mgrwt>
<rscale>  0 0.67121331E+03</rscale>
<asrwt>0</asrwt>
<pdfrwt beam="1">  1        2 0.30876653E+00 0.77497812E+03</pdfrwt>
<pdfrwt beam="2">  1       -2 0.45740128E-01 0.77497812E+03</pdfrwt>
<totfact> 0.30890314E+01</totfact>
</mgrwt>
</event>
<event>
 4    5  0.7289609E-008  0.1027732E+04  0.7818608E-02  0.9346142E-01
          2   -1    0    0  501    0  0.00000000000E+00  0.00000000000E+00  0.15777273850E+04  0.15777273851E+04  0.25500000000E-02 0. -1.
         -2   -1    0    0    0  501 -0.00000000000E+00 -0.00000000000E+00 -0.15969742880E+04  0.15969742880E+04  0.25500000000E-02 0.  1.
    8880023    1    1    2    0    0  0.73296259857E+03 -0.29187139039E+03 -0.13033853172E+04  0.16598332961E+04  0.65864270000E+03 0.  1.
    8880022    1    1    2    0    0 -0.73296259857E+03  0.29187139039E+03  0.12841384143E+04  0.15148683769E+04  0.15294330000E+03 0.  0.
<mgrwt>
<rscale>  0 0.96643675E+03</rscale>
<asrwt>0</asrwt>
<pdfrwt beam="1">  1        2 0.24272729E+00 0.10277321E+04</pdfrwt>
<pdfrwt beam="2">  1       -2 0.24568835E+00 0.10277321E+04</pdfrwt>
<totfact> 0.77949277E-01</totfact>
</mgrwt>
</event>
<event>
 4    5  0.7289609E-008  0.1057689E+04  0.7818608E-02  0.9309695E-01
          2   -1    0    0  501    0  0.00000000000E+00  0.00000000000E+00  0.21948423260E+04  0.21948423260E+04  0.25500000000E-02 0. -1.
         -2   -1    0    0    0  501 -0.00000000000E+00 -0.00000000000E+00 -0.53196315924E+03  0.53196315925E+03  0.25500000000E-02 0.  1.
    8880023    1    1    2    0    0 -0.57972110069E+03 -0.59060910958E+03  0.25730541580E+03  0.10885366131E+04  0.65864270000E+03 0.  0.
    8880022    1    1    2    0    0  0.57972110069E+03  0.59060910958E+03  0.14055737510E+04  0.16382688721E+04  0.15294330000E+03 0.  0.
<mgrwt>
<rscale>  0 0.99895208E+03</rscale>
<asrwt>0</asrwt>
<pdfrwt beam="1">  1        2 0.33766805E+00 0.10576889E+04</pdfrwt>
<pdfrwt beam="2">  1       -2 0.81840485E-01 0.10576889E+04</pdfrwt>
<totfact> 0.68123826E+00</totfact>
</mgrwt>
</event>
<event>
 4    5  0.7289609E-008  0.8649167E+03  0.7818608E-02  0.9584877E-01
         -2   -1    0    0    0  501 -0.00000000000E+00  0.00000000000E+00  0.10837898102E+04  0.10837898102E+04  0.25500000000E-02 0.  1.
          2   -1    0    0  501    0  0.00000000000E+00 -0.00000000000E+00 -0.85364377166E+03  0.85364377166E+03  0.25500000000E-02 0. -1.
    8880023    1    1    2    0    0 -0.36731269618E+03  0.42349981585E+03  0.75974691051E+03  0.11512151342E+04  0.65864270000E+03 0.  0.
    8880022    1    1    2    0    0  0.36731269618E+03 -0.42349981585E+03 -0.52960087202E+03  0.78621844767E+03  0.15294330000E+03 0.  0.
<mgrwt>
<rscale>  0 0.78305280E+03</rscale>
<asrwt>0</asrwt>
<pdfrwt beam="1">  1        2 0.13132981E+00 0.86491671E+03</pdfrwt>
<pdfrwt beam="2">  1       -2 0.16673689E+00 0.86491671E+03</pdfrwt>
<totfact> 0.71313996E+00</totfact>
</mgrwt>
</event>
<event>
 4    5  0.7289609E-008  0.1035382E+04  0.7818608E-02  0.9336664E-01
          2   -1    0    0  501    0  0.00000000000E+00  0.00000000000E+00  0.26160799877E+04  0.26160799877E+04  0.25500000000E-02 0. -1.
         -2   -1    0    0    0  501 -0.00000000000E+00 -0.00000000000E+00 -0.62088970945E+03  0.62088970945E+03  0.25500000000E-02 0.  1.
    8880023    1    1    2    0    0  0.55670861563E+03  0.57295828449E+03 -0.49366717149E+02  0.10365582268E+04  0.65864270000E+03 0.  1.
    8880022    1    1    2    0    0 -0.55670861563E+03 -0.57295828449E+03  0.20445569954E+04  0.22004114704E+04  0.15294330000E+03 0.  0.
<mgrwt>
<rscale>  0 0.97476444E+03</rscale>
<asrwt>0</asrwt>
<pdfrwt beam="1">  1        2 0.40247384E+00 0.10353820E+04</pdfrwt>
<pdfrwt beam="2">  1       -2 0.95521494E-01 0.10353820E+04</pdfrwt>
<totfact> 0.27568957E+00</totfact>
</mgrwt>
</event>
<event>
 4    5  0.7289609E-008  0.8404400E+03  0.7818608E-02  0.9629351E-01
         -2   -1    0    0    0  501 -0.00000000000E+00  0.00000000000E+00  0.37126626868E+03  0.37126626869E+03  0.25500000000E-02 0.  1.
          2   -1    0    0  501    0  0.00000000000E+00 -0.00000000000E+00 -0.17617277283E+04  0.17617277283E+04  0.25500000000E-02 0. -1.
    8880023    1    1    2    0    0  0.57399065801E+02  0.51887818321E+03 -0.26212086821E+03  0.88036741056E+03  0.65864270000E+03 0.  1.
    8880022    1    1    2    0    0 -0.57399065801E+02 -0.51887818321E+03 -0.11283405914E+04  0.12526265864E+04  0.15294330000E+03 0.  0.
<mgrwt>
<rscale>  0 0.75383621E+03</rscale>
<asrwt>0</asrwt>
<pdfrwt beam="1">  1        2 0.27103503E+00 0.84044002E+03</pdfrwt>
<pdfrwt beam="2">  1       -2 0.57117888E-01 0.84044002E+03</pdfrwt>
<totfact> 0.26484975E+01</totfact>
</mgrwt>
</event>
<event>
 4    5  0.7289609E-008  0.9922404E+03  0.7818608E-02  0.9391781E-01
         -2   -1    0    0    0  501 -0.00000000000E+00  0.00000000000E+00  0.39893922485E+03  0.39893922486E+03  0.25500000000E-02 0.  1.
          2   -1    0    0  501    0  0.00000000000E+00 -0.00000000000E+00 -0.31126645185E+04  0.31126645185E+04  0.25500000000E-02 0. -1.
    8880023    1    1    2    0    0  0.60785837313E+03  0.42572180801E+03 -0.38773037890E+03  0.10653055489E+04  0.65864270000E+03 0.  0.
    8880022    1    1    2    0    0 -0.60785837313E+03 -0.42572180801E+03 -0.23259949148E+04  0.24462981945E+04  0.15294330000E+03 0.  0.
<mgrwt>
<rscale>  0 0.92755199E+03</rscale>
<asrwt>0</asrwt>
<pdfrwt beam="1">  1        2 0.47887145E+00 0.99224043E+03</pdfrwt>
<pdfrwt beam="2">  1       -2 0.61375267E-01 0.99224043E+03</pdfrwt>
<totfact> 0.37431940E+00</totfact>
</mgrwt>
</event>
<event>
 4    5  0.7289609E-008  0.7947648E+03  0.7818608E-02  0.9722232E-01
         -2   -1    0    0    0  501 -0.00000000000E+00  0.00000000000E+00  0.54168067428E+03  0.54168067429E+03  0.25500000000E-02 0.  1.
          2   -1    0    0  501    0  0.00000000000E+00 -0.00000000000E+00 -0.95894680855E+03  0.95894680855E+03  0.25500000000E-02 0. -1.
    8880023    1    1    2    0    0 -0.40353411457E+03  0.18708577480E+03  0.10052728049E+03  0.80109725323E+03  0.65864270000E+03 0.  0.
    8880022    1    1    2    0    0  0.40353411457E+03 -0.18708577480E+03 -0.51779341476E+03  0.69953022961E+03  0.15294330000E+03 0.  1.
<mgrwt>
<rscale>  0 0.69708395E+03</rscale>
<asrwt>0</asrwt>
<pdfrwt beam="1">  1        2 0.14753028E+00 0.79476479E+03</pdfrwt>
<pdfrwt beam="2">  1       -2 0.83335488E-01 0.79476479E+03</pdfrwt>
<totfact> 0.34144993E+01</totfact>
</mgrwt>
</event>
<event>
 4    5  0.7289609E-008  0.1377759E+04  0.7818608E-02  0.9001160E-01
          2   -1    0    0  501    0  0.00000000000E+00  0.00000000000E+00  0.23464251287E+04  0.23464251287E+04  0.25500000000E-02 0. -1.
         -2   -1    0    0    0  501 -0.00000000000E+00 -0.00000000000E+00 -0.93150243000E+03  0.93150243000E+03  0.25500000000E-02 0.  1.
    8880023    1    1    2    0    0  0.11691327022E+04 -0.31231211572E+03  0.15226118756E+04  0.20534281733E+04  0.65864270000E+03 0.  0.
    8880022    1    1    2    0    0 -0.11691327022E+04  0.31231211572E+03 -0.10768917691E+03  0.12244993854E+04  0.15294330000E+03 0.  0.
<mgrwt>
<rscale>  0 0.13364359E+04</rscale>
<asrwt>0</asrwt>
<pdfrwt beam="1">  1        2 0.36098847E+00 0.13777592E+04</pdfrwt>
<pdfrwt beam="2">  1       -2 0.14330807E+00 0.13777592E+04</pdfrwt>
<totfact> 0.13799203E+00</totfact>
</mgrwt>
</event>
<event>
 4    5  0.7289609E-008  0.7173576E+03  0.7818608E-02  0.9931630E-01
         -2   -1    0    0    0  501 -0.00000000000E+00  0.00000000000E+00  0.45811875996E+03  0.45811875996E+03  0.25500000000E-02 0.  1.
          2   -1    0    0  501    0  0.00000000000E+00 -0.00000000000E+00 -0.23748200865E+04  0.23748200865E+04  0.25500000000E-02 0. -1.
    8880023    1    1    2    0    0 -0.12175389899E+03 -0.25684186109E+03  0.15694226230E+03  0.73432474661E+03  0.65864270000E+03 0.  1.
    8880022    1    1    2    0    0  0.12175389899E+03  0.25684186109E+03 -0.20736435889E+04  0.20986140999E+04  0.15294330000E+03 0.  0.
<mgrwt>
<rscale>  0 0.58752535E+03</rscale>
<asrwt>0</asrwt>
<pdfrwt beam="1">  1        2 0.36535693E+00 0.71735762E+03</pdfrwt>
<pdfrwt beam="2">  1       -2 0.70479811E-01 0.71735762E+03</pdfrwt>
<totfact> 0.79128825E+00</totfact>
</mgrwt>
</event>
<event>
 4    5  0.7289609E-008  0.7286748E+03  0.7818608E-02  0.9894257E-01
         -2   -1    0    0    0  501 -0.00000000000E+00  0.00000000000E+00  0.16124331931E+03  0.16124331933E+03  0.25500000000E-02 0.  1.
          2   -1    0    0  501    0  0.00000000000E+00 -0.00000000000E+00 -0.37010388576E+04  0.37010388576E+04  0.25500000000E-02 0. -1.
    8880023    1    1    2    0    0  0.29484536981E+03 -0.10110852129E+03 -0.73113491030E+03  0.10322427953E+04  0.65864270000E+03 0.  1.
    8880022    1    1    2    0    0 -0.29484536981E+03  0.10110852129E+03 -0.28086606280E+04  0.28300393816E+04  0.15294330000E+03 0.  0.
<mgrwt>
<rscale>  0 0.60540426E+03</rscale>
<asrwt>0</asrwt>
<pdfrwt beam="1">  1        2 0.56939053E+00 0.72867478E+03</pdfrwt>
<pdfrwt beam="2">  1       -2 0.24806667E-01 0.72867478E+03</pdfrwt>
<totfact> 0.92558817E+00</totfact>
</mgrwt>
</event>
<event>
 4    5  0.7289609E-008  0.6603174E+03  0.7818608E-02  0.1023834E+00
         -2   -1    0    0    0  501 -0.00000000000E+00  0.00000000000E+00  0.71463243128E+03  0.71463243128E+03  0.25500000000E-02 0.  1.
          2   -1    0    0  501    0  0.00000000000E+00 -0.00000000000E+00 -0.29163692534E+04  0.29163692534E+04  0.25500000000E-02 0. -1.
    8880023    1    1    2    0    0 -0.22970670021E+02  0.41003093687E+02  0.55928773629E+03  0.86534495064E+03  0.65864270000E+03 0.  1.
    8880022    1    1    2    0    0  0.22970670021E+02 -0.41003093687E+02 -0.27610245584E+04  0.27656567341E+04  0.15294330000E+03 0.  0.
<mgrwt>
<rscale>  0 0.46328235E+03</rscale>
<asrwt>0</asrwt>
<pdfrwt beam="1">  1        2 0.44867219E+00 0.66031743E+03</pdfrwt>
<pdfrwt beam="2">  1       -2 0.10994345E+00 0.66031743E+03</pdfrwt>
<totfact> 0.14039768E+00</totfact>
</mgrwt>
</event>
<event>
 4    5  0.7289609E-008  0.7648823E+03  0.7818608E-02  0.9792628E-01
         -2   -1    0    0    0  501 -0.00000000000E+00  0.00000000000E+00  0.80330704918E+03  0.80330704918E+03  0.25500000000E-02 0.  1.
          2   -1    0    0  501    0  0.00000000000E+00 -0.00000000000E+00 -0.22298935147E+04  0.22298935147E+04  0.25500000000E-02 0. -1.
    8880023    1    1    2    0    0  0.38067296309E+03 -0.79516460142E+02  0.59488652065E+03  0.96898655872E+03  0.65864270000E+03 0.  0.
    8880022    1    1    2    0    0 -0.38067296309E+03  0.79516460142E+02 -0.20214729862E+04  0.20642140052E+04  0.15294330000E+03 0.  0.
<mgrwt>
<rscale>  0 0.65759684E+03</rscale>
<asrwt>0</asrwt>
<pdfrwt beam="1">  1        2 0.34306054E+00 0.76488233E+03</pdfrwt>
<pdfrwt beam="2">  1       -2 0.12358570E+00 0.76488233E+03</pdfrwt>
<totfact> 0.25486883E+00</totfact>
</mgrwt>
</event>
<event>
 4    5  0.7289609E-008  0.6912026E+03  0.7818608E-02  0.1003586E+00
          2   -1    0    0  501    0  0.00000000000E+00  0.00000000000E+00  0.81039709590E+03  0.81039709591E+03  0.25500000000E-02 0. -1.
         -2   -1    0    0    0  501 -0.00000000000E+00 -0.00000000000E+00 -0.97228972637E+03  0.97228972637E+03  0.25500000000E-02 0.  1.
    8880023    1    1    2    0    0  0.28046655721E+02  0.20775984324E+03 -0.82165624284E+03  0.10737224758E+04  0.65864270000E+03 0.  1.
    8880022    1    1    2    0    0 -0.28046655721E+02 -0.20775984324E+03  0.65976361237E+03  0.70896434649E+03  0.15294330000E+03 0.  0.
<mgrwt>
<rscale>  0 0.54105335E+03</rscale>
<asrwt>0</asrwt>
<pdfrwt beam="1">  1        2 0.12467648E+00 0.69120256E+03</pdfrwt>
<pdfrwt beam="2">  1       -2 0.14958304E+00 0.69120256E+03</pdfrwt>
<totfact> 0.10457300E+01</totfact>
</mgrwt>
</event>
<event>
 4    5  0.7289609E-008  0.1065088E+04  0.7818608E-02  0.9300960E-01
          2   -1    0    0  501    0  0.00000000000E+00  0.00000000000E+00  0.26089274026E+04  0.26089274026E+04  0.25500000000E-02 0. -1.
         -2   -1    0    0    0  501 -0.00000000000E+00 -0.00000000000E+00 -0.45233817431E+03  0.45233817431E+03  0.25500000000E-02 0.  1.
    8880023    1    1    2    0    0 -0.58931124980E+03 -0.59440212416E+03  0.45382567759E+03  0.11577433162E+04  0.65864270000E+03 0.  0.
    8880022    1    1    2    0    0  0.58931124980E+03  0.59440212416E+03  0.17027635507E+04  0.19035222607E+04  0.15294330000E+03 0.  0.
<mgrwt>
<rscale>  0 0.10069452E+04</rscale>
<asrwt>0</asrwt>
<pdfrwt beam="1">  1        2 0.40137344E+00 0.10650877E+04</pdfrwt>
<pdfrwt beam="2">  1       -2 0.69590490E-01 0.10650877E+04</pdfrwt>
<totfact> 0.56885612E+00</totfact>
</mgrwt>
</event>
<event>
 4    5  0.7289609E-008  0.1957884E+04  0.7818608E-02  0.8639888E-01
          2   -1    0    0  501    0  0.00000000000E+00  0.00000000000E+00  0.32340690308E+04  0.32340690308E+04  0.25500000000E-02 0. -1.
         -2   -1    0    0    0  501 -0.00000000000E+00 -0.00000000000E+00 -0.17948205841E+04  0.17948205841E+04  0.25500000000E-02 0.  1.
    8880023    1    1    2    0    0  0.17176172471E+04  0.67029056813E+03 -0.80798822453E+03  0.21180542086E+04  0.65864270000E+03 0.  1.
    8880022    1    1    2    0    0 -0.17176172471E+04 -0.67029056813E+03  0.22472366712E+04  0.29108354063E+04  0.15294330000E+03 0.  0.
<mgrwt>
<rscale>  0 0.19303644E+04</rscale>
<asrwt>0</asrwt>
<pdfrwt beam="1">  1        2 0.49754908E+00 0.19578837E+04</pdfrwt>
<pdfrwt beam="2">  1       -2 0.27612625E+00 0.19578837E+04</pdfrwt>
<totfact> 0.48746820E-02</totfact>
</mgrwt>
</event>
<event>
 4    5  0.7289609E-008  0.8328834E+03  0.7818608E-02  0.9643748E-01
          2   -1    0    0  501    0  0.00000000000E+00  0.00000000000E+00  0.29102145514E+04  0.29102145514E+04  0.25500000000E-02 0. -1.
         -2   -1    0    0    0  501 -0.00000000000E+00 -0.00000000000E+00 -0.72804543748E+03  0.72804543748E+03  0.25500000000E-02 0.  1.
    8880023    1    1    2    0    0 -0.48547909380E+03 -0.15554594602E+03 -0.45421608632E+03  0.94868696163E+03  0.65864270000E+03 0.  1.
    8880022    1    1    2    0    0  0.48547909380E+03  0.15554594602E+03  0.26363852002E+04  0.26895730272E+04  0.15294330000E+03 0.  0.
<mgrwt>
<rscale>  0 0.74467091E+03</rscale>
<asrwt>0</asrwt>
<pdfrwt beam="1">  1        2 0.44772531E+00 0.83288336E+03</pdfrwt>
<pdfrwt beam="2">  1       -2 0.11200699E+00 0.83288336E+03</pdfrwt>
<totfact> 0.13033480E+00</totfact>
</mgrwt>
</event>
<event>
 4    5  0.7289609E-008  0.8288488E+03  0.7818608E-02  0.9651576E-01
         -2   -1    0    0    0  501 -0.00000000000E+00  0.00000000000E+00  0.10634712085E+04  0.10634712085E+04  0.25500000000E-02 0.  1.
          2   -1    0    0  501    0  0.00000000000E+00 -0.00000000000E+00 -0.11702271667E+04  0.11702271667E+04  0.25500000000E-02 0. -1.
    8880023    1    1    2    0    0 -0.26143837855E+02  0.50249039937E+03  0.82139514006E+03  0.11669105724E+04  0.65864270000E+03 0.  1.
    8880022    1    1    2    0    0  0.26143837855E+02 -0.50249039937E+03 -0.92815109827E+03  0.10667878027E+04  0.15294330000E+03 0.  0.
<mgrwt>
<rscale>  0 0.73974571E+03</rscale>
<asrwt>0</asrwt>
<pdfrwt beam="1">  1        2 0.18003495E+00 0.82884878E+03</pdfrwt>
<pdfrwt beam="2">  1       -2 0.16361096E+00 0.82884878E+03</pdfrwt>
<totfact> 0.47292793E+00</totfact>
</mgrwt>
</event>
<event>
 4    5  0.9723856E-008  0.1229981E+04  0.7818608E-02  0.9128515E-01
         -2   -1    0    0    0  501 -0.00000000000E+00  0.00000000000E+00  0.15389379572E+04  0.15389379572E+04  0.25500000000E-02 0.  1.
          2   -1    0    0  501    0  0.00000000000E+00 -0.00000000000E+00 -0.28115760328E+04  0.28115760328E+04  0.25500000000E-02 0. -1.
    8880023    1    1    2    0    0  0.10243394391E+04 -0.17254742454E+03  0.11663899185E+04  0.16950868852E+04  0.65864270000E+03 0.  1.
    8880022    1    1    2    0    0 -0.10243394391E+04  0.17254742454E+03 -0.24390279940E+04  0.26554271048E+04  0.15294330000E+03 0.  0.
<mgrwt>
<rscale>  0 0.11822737E+04</rscale>
<asrwt>0</asrwt>
<pdfrwt beam="1">  1        2 0.43255016E+00 0.12299813E+04</pdfrwt>
<pdfrwt beam="2">  1       -2 0.23675969E+00 0.12299813E+04</pdfrwt>
<totfact> 0.17231706E-01</totfact>
</mgrwt>
</event>
<event>
 4    5  0.7289609E-008  0.1777559E+04  0.7818608E-02  0.8735053E-01
         -2   -1    0    0    0  501 -0.00000000000E+00  0.00000000000E+00  0.15719848814E+04  0.15719848814E+04  0.25500000000E-02 0.  1.
          2   -1    0    0  501    0  0.00000000000E+00 -0.00000000000E+00 -0.23185807993E+04  0.23185807993E+04  0.25500000000E-02 0. -1.
    8880023    1    1    2    0    0  0.12971329696E+04  0.10214452867E+04  0.46452025132E+03  0.18372516661E+04  0.65864270000E+03 0.  0.
    8880022    1    1    2    0    0 -0.12971329696E+04 -0.10214452867E+04 -0.12111161692E+04  0.20533140146E+04  0.15294330000E+03 0.  0.
<mgrwt>
<rscale>  0 0.17469104E+04</rscale>
<asrwt>0</asrwt>
<pdfrwt beam="1">  1        2 0.35670474E+00 0.17775586E+04</pdfrwt>
<pdfrwt beam="2">  1       -2 0.24184383E+00 0.17775586E+04</pdfrwt>
<totfact> 0.29064344E-01</totfact>
</mgrwt>
</event>
<event>
 4    5  0.7289609E-008  0.1477809E+04  0.7818608E-02  0.8925466E-01
         -2   -1    0    0    0  501 -0.00000000000E+00  0.00000000000E+00  0.18823821803E+04  0.18823821803E+04  0.25500000000E-02 0.  1.
          2   -1    0    0  501    0  0.00000000000E+00 -0.00000000000E+00 -0.19215223852E+04  0.19215223852E+04  0.25500000000E-02 0. -1.
    8880023    1    1    2    0    0 -0.12447128291E+04  0.44810742733E+03  0.12610510256E+04  0.19427223653E+04  0.65864270000E+03 0.  0.
    8880022    1    1    2    0    0  0.12447128291E+04 -0.44810742733E+03 -0.13001912305E+04  0.18611822002E+04  0.15294330000E+03 0.  0.
<mgrwt>
<rscale>  0 0.14398517E+04</rscale>
<asrwt>0</asrwt>
<pdfrwt beam="1">  1        2 0.29561883E+00 0.14778094E+04</pdfrwt>
<pdfrwt beam="2">  1       -2 0.28959726E+00 0.14778094E+04</pdfrwt>
<totfact> 0.25565713E-01</totfact>
</mgrwt>
</event>
<event>
 4    5  0.7289609E-008  0.8952704E+03  0.7818608E-02  0.9533667E-01
          2   -1    0    0  501    0  0.00000000000E+00  0.00000000000E+00  0.10133411623E+04  0.10133411623E+04  0.25500000000E-02 0. -1.
         -2   -1    0    0    0  501 -0.00000000000E+00 -0.00000000000E+00 -0.21349922178E+04  0.21349922178E+04  0.25500000000E-02 0.  1.
    8880023    1    1    2    0    0  0.18902061906E+03  0.57616843770E+03 -0.19292818127E+04  0.21268844308E+04  0.65864270000E+03 0.  1.
    8880022    1    1    2    0    0 -0.18902061906E+03 -0.57616843770E+03  0.80763075718E+03  0.10214489493E+04  0.15294330000E+03 0.  0.
<mgrwt>
<rscale>  0 0.81846540E+03</rscale>
<asrwt>0</asrwt>
<pdfrwt beam="1">  1        2 0.15589864E+00 0.89527039E+03</pdfrwt>
<pdfrwt beam="2">  1       -2 0.32846034E+00 0.89527039E+03</pdfrwt>
<totfact> 0.53742222E-01</totfact>
</mgrwt>
</event>
<event>
 4    5  0.7289609E-008  0.1413914E+04  0.7818608E-02  0.8972946E-01
          2   -1    0    0  501    0  0.00000000000E+00  0.00000000000E+00  0.21369558181E+04  0.21369558181E+04  0.25500000000E-02 0. -1.
         -2   -1    0    0    0  501 -0.00000000000E+00 -0.00000000000E+00 -0.13396546404E+04  0.13396546404E+04  0.25500000000E-02 0.  1.
    8880023    1    1    2    0    0  0.10439594090E+04  0.68955798760E+03 -0.65104297640E+03  0.15566016284E+04  0.65864270000E+03 0.  0.
    8880022    1    1    2    0    0 -0.10439594090E+04 -0.68955798760E+03  0.14483441541E+04  0.19200088301E+04  0.15294330000E+03 0.  0.
<mgrwt>
<rscale>  0 0.13738791E+04</rscale>
<asrwt>0</asrwt>
<pdfrwt beam="1">  1        2 0.32876243E+00 0.14139136E+04</pdfrwt>
<pdfrwt beam="2">  1       -2 0.20610071E+00 0.14139136E+04</pdfrwt>
<totfact> 0.64419452E-01</totfact>
</mgrwt>
</event>
<event>
 4    5  0.7289609E-008  0.1284065E+04  0.7818608E-02  0.9079445E-01
          2   -1    0    0  501    0  0.00000000000E+00  0.00000000000E+00  0.32730232467E+04  0.32730232467E+04  0.25500000000E-02 0. -1.
         -2   -1    0    0    0  501 -0.00000000000E+00 -0.00000000000E+00 -0.68187807303E+03  0.68187807304E+03  0.25500000000E-02 0.  1.
    8880023    1    1    2    0    0  0.10932945716E+04  0.14042347963E+03  0.17647403525E+03  0.12961346633E+04  0.65864270000E+03 0.  0.
    8880022    1    1    2    0    0 -0.10932945716E+04 -0.14042347963E+03  0.24146711385E+04  0.26587666565E+04  0.15294330000E+03 0.  0.
<mgrwt>
<rscale>  0 0.12389333E+04</rscale>
<asrwt>0</asrwt>
<pdfrwt beam="1">  1        2 0.50354205E+00 0.12840646E+04</pdfrwt>
<pdfrwt beam="2">  1       -2 0.10490432E+00 0.12840646E+04</pdfrwt>
<totfact> 0.84113655E-01</totfact>
</mgrwt>
</event>
<event>
 4    5  0.7289609E-008  0.1016307E+04  0.7818608E-02  0.9360527E-01
         -2   -1    0    0    0  501 -0.00000000000E+00  0.00000000000E+00  0.10012642524E+04  0.10012642524E+04  0.25500000000E-02 0.  1.
          2   -1    0    0  501    0  0.00000000000E+00 -0.00000000000E+00 -0.98735344058E+03  0.98735344059E+03  0.25500000000E-02 0. -1.
    8880023    1    1    2    0    0  0.76436698316E+03 -0.12171008820E+03  0.42190915128E+03  0.11004034572E+04  0.65864270000E+03 0.  0.
    8880022    1    1    2    0    0 -0.76436698316E+03  0.12171008820E+03 -0.40799833948E+03  0.88821423573E+03  0.15294330000E+03 0.  0.
<mgrwt>
<rscale>  0 0.95396593E+03</rscale>
<asrwt>0</asrwt>
<pdfrwt beam="1">  1        2 0.15190053E+00 0.10163073E+04</pdfrwt>
<pdfrwt beam="2">  1       -2 0.15404065E+00 0.10163073E+04</pdfrwt>
<totfact> 0.70905831E+00</totfact>
</mgrwt>
</event>
<event>
 4    5  0.7289609E-008  0.1099032E+04  0.7818608E-02  0.9262135E-01
         -2   -1    0    0    0  501 -0.00000000000E+00  0.00000000000E+00  0.11220771754E+04  0.11220771754E+04  0.25500000000E-02 0.  1.
          2   -1    0    0  501    0  0.00000000000E+00 -0.00000000000E+00 -0.13300557745E+04  0.13300557745E+04  0.25500000000E-02 0. -1.
    8880023    1    1    2    0    0 -0.87144166745E+03 -0.12103993216E+03  0.59626297203E+03  0.12503603413E+04  0.65864270000E+03 0.  1.
    8880022    1    1    2    0    0  0.87144166745E+03  0.12103993216E+03 -0.80424157118E+03  0.12017726086E+04  0.15294330000E+03 0.  0.
<mgrwt>
<rscale>  0 0.10434482E+04</rscale>
<asrwt>0</asrwt>
<pdfrwt beam="1">  1        2 0.20462396E+00 0.10990321E+04</pdfrwt>
<pdfrwt beam="2">  1       -2 0.17262726E+00 0.10990321E+04</pdfrwt>
<totfact> 0.31804141E+00</totfact>
</mgrwt>
</event>
<event>
 4    5  0.9220838E-008  0.8821134E+03  0.7818608E-02  0.9555378E-01
         -2   -1    0    0    0  501 -0.00000000000E+00  0.00000000000E+00  0.13483267474E+04  0.13483267474E+04  0.25500000000E-02 0.  1.
          2   -1    0    0  501    0  0.00000000000E+00 -0.00000000000E+00 -0.22984443434E+04  0.22984443434E+04  0.25500000000E-02 0. -1.
    8880023    1    1    2    0    0  0.33613757652E+03 -0.48096296417E+03  0.11565571386E+04  0.14545612618E+04  0.65864270000E+03 0.  1.
    8880022    1    1    2    0    0 -0.33613757652E+03  0.48096296417E+03 -0.21066747347E+04  0.21922098289E+04  0.15294330000E+03 0.  0.
<mgrwt>
<rscale>  0 0.80321319E+03</rscale>
<asrwt>0</asrwt>
<pdfrwt beam="1">  1        2 0.35360682E+00 0.88211340E+03</pdfrwt>
<pdfrwt beam="2">  1       -2 0.20743489E+00 0.88211340E+03</pdfrwt>
<totfact> 0.55381562E-01</totfact>
</mgrwt>
</event>
<event>
 4    5  0.7289609E-008  0.1005145E+04  0.7818608E-02  0.9374857E-01
         -2   -1    0    0    0  501 -0.00000000000E+00  0.00000000000E+00  0.70645398576E+03  0.70645398577E+03  0.25500000000E-02 0.  1.
          2   -1    0    0  501    0  0.00000000000E+00 -0.00000000000E+00 -0.25758252530E+04  0.25758252530E+04  0.25500000000E-02 0. -1.
    8880023    1    1    2    0    0 -0.27681438048E+03  0.70702225481E+03  0.24153940657E+03  0.10337592376E+04  0.65864270000E+03 0.  0.
    8880022    1    1    2    0    0  0.27681438048E+03 -0.70702225481E+03 -0.21109106738E+04  0.22485200012E+04  0.15294330000E+03 0.  0.
<mgrwt>
<rscale>  0 0.94174063E+03</rscale>
<asrwt>0</asrwt>
<pdfrwt beam="1">  1        2 0.39628080E+00 0.10051452E+04</pdfrwt>
<pdfrwt beam="2">  1       -2 0.10868523E+00 0.10051452E+04</pdfrwt>
<totfact> 0.21453000E+00</totfact>
</mgrwt>
</event>
<event>
 4    5  0.7289609E-008  0.9643915E+03  0.7818608E-02  0.9429703E-01
         -2   -1    0    0    0  501 -0.00000000000E+00  0.00000000000E+00  0.43710352838E+03  0.43710352839E+03  0.25500000000E-02 0.  1.
          2   -1    0    0  501    0  0.00000000000E+00 -0.00000000000E+00 -0.32932498231E+04  0.32932498231E+04  0.25500000000E-02 0. -1.
    8880023    1    1    2    0    0 -0.70232320367E+03 -0.54614966953E+02 -0.20895476564E+03  0.98676895846E+03  0.65864270000E+03 0.  1.
    8880022    1    1    2    0    0  0.70232320367E+03  0.54614966953E+02 -0.26471915291E+04  0.27435843930E+04  0.15294330000E+03 0.  0.
<mgrwt>
<rscale>  0 0.89671005E+03</rscale>
<asrwt>0</asrwt>
<pdfrwt beam="1">  1        2 0.50665380E+00 0.96439146E+03</pdfrwt>
<pdfrwt beam="2">  1       -2 0.67246699E-01 0.96439146E+03</pdfrwt>
<totfact> 0.23654399E+00</totfact>
</mgrwt>
</event>
<event>
 4    5  0.7289609E-008  0.1189887E+04  0.7818608E-02  0.9167016E-01
         -2   -1    0    0    0  501 -0.00000000000E+00  0.00000000000E+00  0.32280845041E+04  0.32280845041E+04  0.25500000000E-02 0.  1.
          2   -1    0    0  501    0  0.00000000000E+00 -0.00000000000E+00 -0.60688356265E+03  0.60688356266E+03  0.25500000000E-02 0. -1.
    8880023    1    1    2    0    0  0.21392102427E+02  0.99073834934E+03  0.25686796221E+04  0.28308912565E+04  0.65864270000E+03 0.  1.
    8880022    1    1    2    0    0 -0.21392102427E+02 -0.99073834934E+03  0.52521319360E+02  0.10040768103E+04  0.15294330000E+03 0.  0.
<mgrwt>
<rscale>  0 0.11400455E+04</rscale>
<asrwt>0</asrwt>
<pdfrwt beam="1">  1        2 0.93366703E-01 0.11898867E+04</pdfrwt>
<pdfrwt beam="2">  1       -2 0.49662838E+00 0.11898867E+04</pdfrwt>
<totfact> 0.83449258E-02</totfact>
</mgrwt>
</event>
<event>
 4    5  0.7289609E-008  0.1107531E+04  0.7818608E-02  0.9252717E-01
         -2   -1    0    0    0  501 -0.00000000000E+00  0.00000000000E+00  0.74313873834E+03  0.74313873835E+03  0.25500000000E-02 0.  1.
          2   -1    0    0  501    0  0.00000000000E+00 -0.00000000000E+00 -0.15252496568E+04  0.15252496568E+04  0.25500000000E-02 0. -1.
    8880023    1    1    2    0    0  0.58124762213E+03  0.67451225912E+03 -0.79755432232E+03  0.13648145256E+04  0.65864270000E+03 0.  0.
    8880022    1    1    2    0    0 -0.58124762213E+03 -0.67451225912E+03  0.15443403906E+02  0.90357386952E+03  0.15294330000E+03 0.  0.
<mgrwt>
<rscale>  0 0.10525484E+04</rscale>
<asrwt>0</asrwt>
<pdfrwt beam="1">  1        2 0.23465379E+00 0.11075314E+04</pdfrwt>
<pdfrwt beam="2">  1       -2 0.11432904E+00 0.11075314E+04</pdfrwt>
<totfact> 0.72295250E+00</totfact>
</mgrwt>
</event>
<event>
 4    5  0.7289609E-008  0.7713060E+03  0.7818608E-02  0.9776670E-01
          2   -1    0    0  501    0  0.00000000000E+00  0.00000000000E+00  0.15773517198E+04  0.15773517199E+04  0.25500000000E-02 0. -1.
         -2   -1    0    0    0  501 -0.00000000000E+00 -0.00000000000E+00 -0.25327936646E+03  0.25327936647E+03  0.25500000000E-02 0.  1.
    8880023    1    1    2    0    0 -0.39352003144E+03  0.79023261568E+02  0.11074312813E+04  0.13495617585E+04  0.65864270000E+03 0.  0.
    8880022    1    1    2    0    0  0.39352003144E+03 -0.79023261568E+02  0.21664107208E+03  0.48106932779E+03  0.15294330000E+03 0.  0.
<mgrwt>
<rscale>  0 0.66629707E+03</rscale>
<asrwt>0</asrwt>
<pdfrwt beam="1">  1        2 0.24266949E+00 0.77130597E+03</pdfrwt>
<pdfrwt beam="2">  1       -2 0.38966057E-01 0.77130597E+03</pdfrwt>
<totfact> 0.72830521E+01</totfact>
</mgrwt>
</event>
<event>
 4    5  0.7289609E-008  0.8472321E+03  0.7818608E-02  0.9616691E-01
          2   -1    0    0  501    0  0.00000000000E+00  0.00000000000E+00  0.11032715189E+04  0.11032715189E+04  0.25500000000E-02 0. -1.
         -2   -1    0    0    0  501 -0.00000000000E+00 -0.00000000000E+00 -0.14112570960E+04  0.14112570960E+04  0.25500000000E-02 0.  1.
    8880023    1    1    2    0    0 -0.48790060927E+03  0.21434781869E+03 -0.11971838880E+04  0.14666463309E+04  0.65864270000E+03 0.  1.
    8880022    1    1    2    0    0  0.48790060927E+03 -0.21434781869E+03  0.88919831093E+03  0.10478822840E+04  0.15294330000E+03 0.  0.
<mgrwt>
<rscale>  0 0.76201214E+03</rscale>
<asrwt>0</asrwt>
<pdfrwt beam="1">  1        2 0.16973408E+00 0.84723208E+03</pdfrwt>
<pdfrwt beam="2">  1       -2 0.21711648E+00 0.84723208E+03</pdfrwt>
<totfact> 0.22656126E+00</totfact>
</mgrwt>
</event>
<event>
 4    5  0.7289609E-008  0.7735210E+03  0.7818608E-02  0.9771282E-01
         -2   -1    0    0    0  501 -0.00000000000E+00  0.00000000000E+00  0.27351007508E+03  0.27351007510E+03  0.25500000000E-02 0.  1.
          2   -1    0    0  501    0  0.00000000000E+00 -0.00000000000E+00 -0.18293094031E+04  0.18293094031E+04  0.25500000000E-02 0. -1.
    8880023    1    1    2    0    0 -0.24622896343E+03  0.32232882652E+03 -0.40510721665E+03  0.87318190435E+03  0.65864270000E+03 0.  1.
    8880022    1    1    2    0    0  0.24622896343E+03 -0.32232882652E+03 -0.11506921114E+04  0.12296375739E+04  0.15294330000E+03 0.  0.
<mgrwt>
<rscale>  0 0.66926734E+03</rscale>
<asrwt>0</asrwt>
<pdfrwt beam="1">  1        2 0.28143221E+00 0.77352103E+03</pdfrwt>
<pdfrwt beam="2">  1       -2 0.42078474E-01 0.77352103E+03</pdfrwt>
<totfact> 0.45583022E+01</totfact>
</mgrwt>
</event>
<event>
 4    5  0.7289609E-008  0.1049928E+04  0.7818608E-02  0.9318968E-01
         -2   -1    0    0    0  501 -0.00000000000E+00  0.00000000000E+00  0.12014514661E+04  0.12014514661E+04  0.25500000000E-02 0.  1.
          2   -1    0    0  501    0  0.00000000000E+00 -0.00000000000E+00 -0.11165717181E+04  0.11165717181E+04  0.25500000000E-02 0. -1.
    8880023    1    1    2    0    0 -0.74719853079E+03 -0.33201333493E+03 -0.62723472700E+03  0.12230176237E+04  0.65864270000E+03 0. -1.
    8880022    1    1    2    0    0  0.74719853079E+03  0.33201333493E+03  0.71211447501E+03  0.10950055605E+04  0.15294330000E+03 0.  0.
<mgrwt>
<rscale>  0 0.99055229E+03</rscale>
<asrwt>0</asrwt>
<pdfrwt beam="1">  1        2 0.17178027E+00 0.10499280E+04</pdfrwt>
<pdfrwt beam="2">  1       -2 0.18483869E+00 0.10499280E+04</pdfrwt>
<totfact> 0.35249382E+00</totfact>
</mgrwt>
</event>
<event>
 4    5  0.7289609E-008  0.1945455E+04  0.7818608E-02  0.8646075E-01
         -2   -1    0    0    0  501 -0.00000000000E+00  0.00000000000E+00  0.12602842748E+04  0.12602842748E+04  0.25500000000E-02 0.  1.
          2   -1    0    0  501    0  0.00000000000E+00 -0.00000000000E+00 -0.34265216487E+04  0.34265216487E+04  0.25500000000E-02 0. -1.
    8880023    1    1    2    0    0 -0.88815993351E+03  0.16006736898E+04 -0.13797124814E+03  0.19503411497E+04  0.65864270000E+03 0.  0.
    8880022    1    1    2    0    0  0.88815993351E+03 -0.16006736898E+04 -0.20282661257E+04  0.27364647738E+04  0.15294330000E+03 0.  0.
<mgrwt>
<rscale>  0 0.19177414E+04</rscale>
<asrwt>0</asrwt>
<pdfrwt beam="1">  1        2 0.52715717E+00 0.19454548E+04</pdfrwt>
<pdfrwt beam="2">  1       -2 0.19388989E+00 0.19454548E+04</pdfrwt>
<totfact> 0.12008564E-01</totfact>
</mgrwt>
</event>
<event>
 4    5  0.7289609E-008  0.7096486E+03  0.7818608E-02  0.9959308E-01
          2   -1    0    0  501    0  0.00000000000E+00  0.00000000000E+00  0.60180624087E+03  0.60180624087E+03  0.25500000000E-02 0. -1.
         -2   -1    0    0    0  501 -0.00000000000E+00 -0.00000000000E+00 -0.62758420891E+03  0.62758420892E+03  0.25500000000E-02 0.  1.
    8880023    1    1    2    0    0  0.24651333727E+03  0.94984405902E+02 -0.34382572776E+03  0.78855386636E+03  0.65864270000E+03 0.  1.
    8880022    1    1    2    0    0 -0.24651333727E+03 -0.94984405902E+02  0.31804775972E+03  0.44083658343E+03  0.15294330000E+03 0.  0.
<mgrwt>
<rscale>  0 0.57471072E+03</rscale>
<asrwt>0</asrwt>
<pdfrwt beam="1">  1        2 0.92585575E-01 0.70964855E+03</pdfrwt>
<pdfrwt beam="2">  1       -2 0.96551417E-01 0.70964855E+03</pdfrwt>
<totfact> 0.45026039E+01</totfact>
</mgrwt>
</event>
<event>
 4    5  0.7289609E-008  0.1306386E+04  0.7818608E-02  0.9060065E-01
          2   -1    0    0  501    0  0.00000000000E+00  0.00000000000E+00  0.15085636471E+04  0.15085636471E+04  0.25500000000E-02 0. -1.
         -2   -1    0    0    0  501 -0.00000000000E+00 -0.00000000000E+00 -0.16410053809E+04  0.16410053809E+04  0.25500000000E-02 0.  1.
    8880023    1    1    2    0    0 -0.86250303079E+02  0.11248974220E+04 -0.10589718701E+04  0.16816851527E+04  0.65864270000E+03 0.  1.
    8880022    1    1    2    0    0  0.86250303079E+02 -0.11248974220E+04  0.92653013636E+03  0.14678838753E+04  0.15294330000E+03 0.  0.
<mgrwt>
<rscale>  0 0.12622303E+04</rscale>
<asrwt>0</asrwt>
<pdfrwt beam="1">  1        2 0.23208672E+00 0.13063857E+04</pdfrwt>
<pdfrwt beam="2">  1       -2 0.25246237E+00 0.13063857E+04</pdfrwt>
<totfact> 0.74762574E-01</totfact>
</mgrwt>
</event>
<event>
 4    5  0.7289609E-008  0.1071395E+04  0.7818608E-02  0.9293593E-01
          2   -1    0    0  501    0  0.00000000000E+00  0.00000000000E+00  0.35829912978E+04  0.35829912978E+04  0.25500000000E-02 0. -1.
         -2   -1    0    0    0  501 -0.00000000000E+00 -0.00000000000E+00 -0.32571448610E+03  0.32571448611E+03  0.25500000000E-02 0.  1.
    8880023    1    1    2    0    0  0.82702345995E+03 -0.17352320629E+03  0.89787456803E+03  0.13978794843E+04  0.65864270000E+03 0.  1.
    8880022    1    1    2    0    0 -0.82702345995E+03  0.17352320629E+03  0.23594022437E+04  0.25108262996E+04  0.15294330000E+03 0.  0.
<mgrwt>
<rscale>  0 0.10137489E+04</rscale>
<asrwt>0</asrwt>
<pdfrwt beam="1">  1        2 0.55122938E+00 0.10713955E+04</pdfrwt>
<pdfrwt beam="2">  1       -2 0.50109926E-01 0.10713955E+04</pdfrwt>
<totfact> 0.27507090E+00</totfact>
</mgrwt>
</event>
<event>
 4    5  0.7289609E-008  0.1218213E+04  0.7818608E-02  0.9139618E-01
         -2   -1    0    0    0  501 -0.00000000000E+00  0.00000000000E+00  0.74146779823E+03  0.74146779823E+03  0.25500000000E-02 0.  1.
          2   -1    0    0  501    0  0.00000000000E+00 -0.00000000000E+00 -0.18064918539E+04  0.18064918539E+04  0.25500000000E-02 0. -1.
    8880023    1    1    2    0    0  0.62724808016E+03 -0.81042721230E+03 -0.28524120061E+03  0.12511615281E+04  0.65864270000E+03 0.  0.
    8880022    1    1    2    0    0 -0.62724808016E+03  0.81042721230E+03 -0.77978285503E+03  0.12967981240E+04  0.15294330000E+03 0.  0.
<mgrwt>
<rscale>  0 0.11699005E+04</rscale>
<asrwt>0</asrwt>
<pdfrwt beam="1">  1        2 0.27792182E+00 0.12182129E+04</pdfrwt>
<pdfrwt beam="2">  1       -2 0.11407197E+00 0.12182129E+04</pdfrwt>
<totfact> 0.50151812E+00</totfact>
</mgrwt>
</event>
<event>
 4    5  0.7289609E-008  0.6666519E+03  0.7818608E-02  0.1018186E+00
          2   -1    0    0  501    0  0.00000000000E+00  0.00000000000E+00  0.11409834469E+04  0.11409834469E+04  0.25500000000E-02 0. -1.
         -2   -1    0    0    0  501 -0.00000000000E+00 -0.00000000000E+00 -0.39420237774E+03  0.39420237775E+03  0.25500000000E-02 0.  1.
    8880023    1    1    2    0    0  0.86785219027E+02  0.55523223344E+02 -0.95049889624E+02  0.67339378550E+03  0.65864270000E+03 0.  1.
    8880022    1    1    2    0    0 -0.86785219027E+02 -0.55523223344E+02  0.84183095877E+03  0.86179203915E+03  0.15294330000E+03 0.  0.
<mgrwt>
<rscale>  0 0.48346943E+03</rscale>
<asrwt>0</asrwt>
<pdfrwt beam="1">  1        2 0.17553592E+00 0.66665186E+03</pdfrwt>
<pdfrwt beam="2">  1       -2 0.60646519E-01 0.66665186E+03</pdfrwt>
<totfact> 0.53360434E+01</totfact>
</mgrwt>
</event>
<event>
 4    5  0.7289609E-008  0.7092663E+03  0.7818608E-02  0.9960736E-01
         -2   -1    0    0    0  501 -0.00000000000E+00  0.00000000000E+00  0.65766141376E+03  0.65766141376E+03  0.25500000000E-02 0.  1.
          2   -1    0    0  501    0  0.00000000000E+00 -0.00000000000E+00 -0.10660672908E+04  0.10660672908E+04  0.25500000000E-02 0. -1.
    8880023    1    1    2    0    0 -0.12980277120E+03  0.22890982713E+03  0.43161162938E+03  0.83026939800E+03  0.65864270000E+03 0.  1.
    8880022    1    1    2    0    0  0.12980277120E+03 -0.22890982713E+03 -0.84001750638E+03  0.89345930652E+03  0.15294330000E+03 0.  0.
<mgrwt>
<rscale>  0 0.57405946E+03</rscale>
<asrwt>0</asrwt>
<pdfrwt beam="1">  1        2 0.16401035E+00 0.70926629E+03</pdfrwt>
<pdfrwt beam="2">  1       -2 0.10117868E+00 0.70926629E+03</pdfrwt>
<totfact> 0.18776068E+01</totfact>
</mgrwt>
</event>
<event>
 4    5  0.7289609E-008  0.1412287E+04  0.7818608E-02  0.8974194E-01
          2   -1    0    0  501    0  0.00000000000E+00  0.00000000000E+00  0.21288551490E+04  0.21288551490E+04  0.25500000000E-02 0. -1.
         -2   -1    0    0    0  501 -0.00000000000E+00 -0.00000000000E+00 -0.92992383140E+03  0.92992383140E+03  0.25500000000E-02 0.  1.
    8880023    1    1    2    0    0 -0.10990929321E+04 -0.59391729412E+03  0.11113283148E+04  0.17971098618E+04  0.65864270000E+03 0.  0.
    8880022    1    1    2    0    0  0.10990929321E+04  0.59391729412E+03  0.87603002761E+02  0.12616691186E+04  0.15294330000E+03 0.  0.
<mgrwt>
<rscale>  0 0.13721959E+04</rscale>
<asrwt>0</asrwt>
<pdfrwt beam="1">  1        2 0.32751617E+00 0.14122865E+04</pdfrwt>
<pdfrwt beam="2">  1       -2 0.14306521E+00 0.14122865E+04</pdfrwt>
<totfact> 0.18317745E+00</totfact>
</mgrwt>
</event>
<event>
 4    5  0.7289609E-008  0.1050927E+04  0.7818608E-02  0.9317768E-01
          2   -1    0    0  501    0  0.00000000000E+00  0.00000000000E+00  0.21841120360E+04  0.21841120360E+04  0.25500000000E-02 0. -1.
         -2   -1    0    0    0  501 -0.00000000000E+00 -0.00000000000E+00 -0.99769155035E+03  0.99769155035E+03  0.25500000000E-02 0.  1.
    8880023    1    1    2    0    0  0.71248094299E+03 -0.40374232885E+03 -0.60038289568E+03  0.12103333383E+04  0.65864270000E+03 0.  0.
    8880022    1    1    2    0    0 -0.71248094299E+03  0.40374232885E+03  0.17868033814E+04  0.19714702480E+04  0.15294330000E+03 0.  0.
<mgrwt>
<rscale>  0 0.99163427E+03</rscale>
<asrwt>0</asrwt>
<pdfrwt beam="1">  1        2 0.33601723E+00 0.10509268E+04</pdfrwt>
<pdfrwt beam="2">  1       -2 0.15349101E+00 0.10509268E+04</pdfrwt>
<totfact> 0.14751791E+00</totfact>
</mgrwt>
</event>
<event>
 4    5  0.7289609E-008  0.6718456E+03  0.7818608E-02  0.1014373E+00
         -2   -1    0    0    0  501 -0.00000000000E+00  0.00000000000E+00  0.51641719380E+03  0.51641719381E+03  0.25500000000E-02 0.  1.
          2   -1    0    0  501    0  0.00000000000E+00 -0.00000000000E+00 -0.36239289587E+04  0.36239289587E+04  0.25500000000E-02 0. -1.
    8880023    1    1    2    0    0  0.13672767610E+02  0.13183091746E+03  0.29361549657E+03  0.73320297426E+03  0.65864270000E+03 0.  1.
    8880022    1    1    2    0    0 -0.13672767610E+02 -0.13183091746E+03 -0.34011272615E+04  0.34071431782E+04  0.15294330000E+03 0.  0.
<mgrwt>
<rscale>  0 0.49773072E+03</rscale>
<asrwt>0</asrwt>
<pdfrwt beam="1">  1        2 0.55752752E+00 0.67184562E+03</pdfrwt>
<pdfrwt beam="2">  1       -2 0.79448801E-01 0.67184562E+03</pdfrwt>
<totfact> 0.10397158E+00</totfact>
</mgrwt>
</event>
<event>
 4    5  0.7289609E-008  0.8813627E+03  0.7818608E-02  0.9556638E-01
          2   -1    0    0  501    0  0.00000000000E+00  0.00000000000E+00  0.26157498452E+04  0.26157498452E+04  0.25500000000E-02 0. -1.
         -2   -1    0    0    0  501 -0.00000000000E+00 -0.00000000000E+00 -0.56146767656E+03  0.56146767656E+03  0.25500000000E-02 0.  1.
    8880023    1    1    2    0    0  0.56881079775E+03  0.13944284430E+03 -0.14761473768E+03  0.89363882386E+03  0.65864270000E+03 0.  0.
    8880022    1    1    2    0    0 -0.56881079775E+03 -0.13944284430E+03  0.22018969063E+04  0.22835786979E+04  0.15294330000E+03 0.  0.
<mgrwt>
<rscale>  0 0.80233867E+03</rscale>
<asrwt>0</asrwt>
<pdfrwt beam="1">  1        2 0.40242304E+00 0.88136272E+03</pdfrwt>
<pdfrwt beam="2">  1       -2 0.86379645E-01 0.88136272E+03</pdfrwt>
<totfact> 0.35636689E+00</totfact>
</mgrwt>
</event>
<event>
 4    5  0.7289609E-008  0.7094665E+03  0.7818608E-02  0.9959987E-01
         -2   -1    0    0    0  501 -0.00000000000E+00  0.00000000000E+00  0.22171785516E+03  0.22171785517E+03  0.25500000000E-02 0.  1.
          2   -1    0    0  501    0  0.00000000000E+00 -0.00000000000E+00 -0.17199193875E+04  0.17199193875E+04  0.25500000000E-02 0. -1.
    8880023    1    1    2    0    0 -0.23058248556E+03 -0.12792282022E+03 -0.42732918164E+03  0.82822277579E+03  0.65864270000E+03 0.  1.
    8880022    1    1    2    0    0  0.23058248556E+03  0.12792282022E+03 -0.10708723507E+04  0.11134144669E+04  0.15294330000E+03 0.  0.
<mgrwt>
<rscale>  0 0.57440078E+03</rscale>
<asrwt>0</asrwt>
<pdfrwt beam="1">  1        2 0.26460297E+00 0.70946652E+03</pdfrwt>
<pdfrwt beam="2">  1       -2 0.34110440E-01 0.70946652E+03</pdfrwt>
<totfact> 0.78999336E+01</totfact>
</mgrwt>
</event>
<event>
 4    5  0.7289609E-008  0.1168010E+04  0.7818608E-02  0.9188864E-01
          2   -1    0    0  501    0  0.00000000000E+00  0.00000000000E+00  0.13463076495E+04  0.13463076495E+04  0.25500000000E-02 0. -1.
         -2   -1    0    0    0  501 -0.00000000000E+00 -0.00000000000E+00 -0.11182841794E+04  0.11182841794E+04  0.25500000000E-02 0.  1.
    8880023    1    1    2    0    0 -0.90225303698E+03 -0.34114060446E+03 -0.47534546273E+03  0.12610317085E+04  0.65864270000E+03 0.  0.
    8880022    1    1    2    0    0  0.90225303698E+03  0.34114060446E+03  0.70336893284E+03  0.12035601204E+04  0.15294330000E+03 0.  0.
<mgrwt>
<rscale>  0 0.11169115E+04</rscale>
<asrwt>0</asrwt>
<pdfrwt beam="1">  1        2 0.20712425E+00 0.11680101E+04</pdfrwt>
<pdfrwt beam="2">  1       -2 0.17204372E+00 0.11680101E+04</pdfrwt>
<totfact> 0.31199059E+00</totfact>
</mgrwt>
</event>
<event>
 4    5  0.7289609E-008  0.1038071E+04  0.7818608E-02  0.9333361E-01
          2   -1    0    0  501    0  0.00000000000E+00  0.00000000000E+00  0.26679003842E+04  0.26679003842E+04  0.25500000000E-02 0. -1.
         -2   -1    0    0    0  501 -0.00000000000E+00 -0.00000000000E+00 -0.43424065824E+03  0.43424065824E+03  0.25500000000E-02 0.  1.
    8880023    1    1    2    0    0 -0.58969709110E+03 -0.54409458344E+03  0.43276212991E+03  0.11246665472E+04  0.65864270000E+03 0.  0.
    8880022    1    1    2    0    0  0.58969709110E+03  0.54409458344E+03  0.18008975961E+04  0.19774744953E+04  0.15294330000E+03 0.  0.
<mgrwt>
<rscale>  0 0.97768776E+03</rscale>
<asrwt>0</asrwt>
<pdfrwt beam="1">  1        2 0.41044621E+00 0.10380712E+04</pdfrwt>
<pdfrwt beam="2">  1       -2 0.66806255E-01 0.10380712E+04</pdfrwt>
<totfact> 0.57646859E+00</totfact>
</mgrwt>
</event>
<event>
 4    5  0.7289609E-008  0.8536038E+03  0.7818608E-02  0.9605044E-01
          2   -1    0    0  501    0  0.00000000000E+00  0.00000000000E+00  0.20834608553E+04  0.20834608553E+04  0.25500000000E-02 0. -1.
         -2   -1    0    0    0  501 -0.00000000000E+00 -0.00000000000E+00 -0.84394025369E+03  0.84394025370E+03  0.25500000000E-02 0.  1.
    8880023    1    1    2    0    0 -0.40487119024E+03 -0.36181278865E+03 -0.57368462517E+03  0.10284714046E+04  0.65864270000E+03 0.  1.
    8880022    1    1    2    0    0  0.40487119024E+03  0.36181278865E+03  0.18132052268E+04  0.18989297044E+04  0.15294330000E+03 0.  0.
<mgrwt>
<rscale>  0 0.76963235E+03</rscale>
<asrwt>0</asrwt>
<pdfrwt beam="1">  1        2 0.32053244E+00 0.85360376E+03</pdfrwt>
<pdfrwt beam="2">  1       -2 0.12983696E+00 0.85360376E+03</pdfrwt>
<totfact> 0.26700228E+00</totfact>
</mgrwt>
</event>
<event>
 4    5  0.7289609E-008  0.1032060E+04  0.7818608E-02  0.9340765E-01
          2   -1    0    0  501    0  0.00000000000E+00  0.00000000000E+00  0.14499727289E+04  0.14499727289E+04  0.25500000000E-02 0. -1.
         -2   -1    0    0    0  501 -0.00000000000E+00 -0.00000000000E+00 -0.61553201030E+03  0.61553201031E+03  0.25500000000E-02 0.  1.
    8880023    1    1    2    0    0 -0.55636185776E+03  0.56727383007E+03  0.23493861592E+03  0.10584632608E+04  0.65864270000E+03 0.  0.
    8880022    1    1    2    0    0  0.55636185776E+03 -0.56727383007E+03  0.59950210273E+03  0.10070414784E+04  0.15294330000E+03 0.  0.
<mgrwt>
<rscale>  0 0.97115051E+03</rscale>
<asrwt>0</asrwt>
<pdfrwt beam="1">  1        2 0.22307273E+00 0.10320602E+04</pdfrwt>
<pdfrwt beam="2">  1       -2 0.94697233E-01 0.10320602E+04</pdfrwt>
<totfact> 0.12629360E+01</totfact>
</mgrwt>
</event>
<event>
 4    5  0.7289609E-008  0.8159335E+03  0.7818608E-02  0.9677348E-01
         -2   -1    0    0    0  501 -0.00000000000E+00  0.00000000000E+00  0.31991300839E+03  0.31991300840E+03  0.25500000000E-02 0.  1.
          2   -1    0    0  501    0  0.00000000000E+00 -0.00000000000E+00 -0.20491252504E+04  0.20491252504E+04  0.25500000000E-02 0. -1.
    8880023    1    1    2    0    0  0.47894109126E+03  0.50523723820E+02 -0.32781116299E+03  0.87932222786E+03  0.65864270000E+03 0.  0.
    8880022    1    1    2    0    0 -0.47894109126E+03 -0.50523723820E+02 -0.14014010790E+04  0.14897160309E+04  0.15294330000E+03 0.  0.
<mgrwt>
<rscale>  0 0.72381662E+03</rscale>
<asrwt>0</asrwt>
<pdfrwt beam="1">  1        2 0.31525003E+00 0.81593347E+03</pdfrwt>
<pdfrwt beam="2">  1       -2 0.49217387E-01 0.81593347E+03</pdfrwt>
<totfact> 0.25140443E+01</totfact>
</mgrwt>
</event>
<event>
 4    5  0.7289609E-008  0.1138828E+04  0.7818608E-02  0.9219009E-01
         -2   -1    0    0    0  501 -0.00000000000E+00  0.00000000000E+00  0.84486221146E+03  0.84486221147E+03  0.25500000000E-02 0.  1.
          2   -1    0    0  501    0  0.00000000000E+00 -0.00000000000E+00 -0.17454513681E+04  0.17454513681E+04  0.25500000000E-02 0. -1.
    8880023    1    1    2    0    0  0.29040199449E+03  0.88248840473E+03  0.18449876388E+03  0.11536763424E+04  0.65864270000E+03 0.  0.
    8880022    1    1    2    0    0 -0.29040199449E+03 -0.88248840473E+03 -0.10850879205E+04  0.14366372371E+04  0.15294330000E+03 0.  0.
<mgrwt>
<rscale>  0 0.10859357E+04</rscale>
<asrwt>0</asrwt>
<pdfrwt beam="1">  1        2 0.26853098E+00 0.11388280E+04</pdfrwt>
<pdfrwt beam="2">  1       -2 0.12997880E+00 0.11388280E+04</pdfrwt>
<totfact> 0.39403387E+00</totfact>
</mgrwt>
</event>
<event>
 4    5  0.7289609E-008  0.1191448E+04  0.7818608E-02  0.9165481E-01
         -2   -1    0    0    0  501 -0.00000000000E+00  0.00000000000E+00  0.83499272128E+03  0.83499272129E+03  0.25500000000E-02 0.  1.
          2   -1    0    0  501    0  0.00000000000E+00 -0.00000000000E+00 -0.33231636725E+04  0.33231636725E+04  0.25500000000E-02 0. -1.
    8880023    1    1    2    0    0 -0.97686925544E+03 -0.17738296796E+03  0.27093664181E+03  0.12218654303E+04  0.65864270000E+03 0.  0.
    8880022    1    1    2    0    0  0.97686925544E+03  0.17738296796E+03 -0.27591075930E+04  0.29362909635E+04  0.15294330000E+03 0.  0.
<mgrwt>
<rscale>  0 0.11416940E+04</rscale>
<asrwt>0</asrwt>
<pdfrwt beam="1">  1        2 0.51125594E+00 0.11914481E+04</pdfrwt>
<pdfrwt beam="2">  1       -2 0.12846042E+00 0.11914481E+04</pdfrwt>
<totfact> 0.47832607E-01</totfact>
</mgrwt>
</event>
<event>
 4    5  0.7289609E-008  0.8170781E+03  0.7818608E-02  0.9675018E-01
         -2   -1    0    0    0  501 -0.00000000000E+00  0.00000000000E+00  0.23140619252E+03  0.23140619254E+03  0.25500000000E-02 0.  1.
          2   -1    0    0  501    0  0.00000000000E+00 -0.00000000000E+00 -0.28762679775E+04  0.28762679775E+04  0.25500000000E-02 0. -1.
    8880023    1    1    2    0    0  0.37750986892E+02  0.48205940700E+03 -0.63499754580E+03  0.10348132674E+04  0.65864270000E+03 0.  1.
    8880022    1    1    2    0    0 -0.37750986892E+02 -0.48205940700E+03 -0.20098642392E+04  0.20728609027E+04  0.15294330000E+03 0.  0.
<mgrwt>
<rscale>  0 0.72523898E+03</rscale>
<asrwt>0</asrwt>
<pdfrwt beam="1">  1        2 0.44250274E+00 0.81707810E+03</pdfrwt>
<pdfrwt beam="2">  1       -2 0.35600955E-01 0.81707810E+03</pdfrwt>
<totfact> 0.16107946E+01</totfact>
</mgrwt>
</event>
<event>
 4    5  0.7289609E-008  0.9677334E+03  0.7818608E-02  0.9425046E-01
          2   -1    0    0  501    0  0.00000000000E+00  0.00000000000E+00  0.32661426688E+04  0.32661426688E+04  0.25500000000E-02 0. -1.
         -2   -1    0    0    0  501 -0.00000000000E+00 -0.00000000000E+00 -0.33187728098E+03  0.33187728099E+03  0.25500000000E-02 0.  1.
    8880023    1    1    2    0    0 -0.29634982303E+03 -0.64410750139E+03  0.56583673502E+03  0.11210169972E+04  0.65864270000E+03 0.  0.
    8880022    1    1    2    0    0  0.29634982303E+03  0.64410750139E+03  0.23684286528E+04  0.24770029526E+04  0.15294330000E+03 0.  0.
<mgrwt>
<rscale>  0 0.90042849E+03</rscale>
<asrwt>0</asrwt>
<pdfrwt beam="1">  1        2 0.50248351E+00 0.96773338E+03</pdfrwt>
<pdfrwt beam="2">  1       -2 0.51058041E-01 0.96773338E+03</pdfrwt>
<totfact> 0.44030611E+00</totfact>
</mgrwt>
</event>
<event>
 4    5  0.7289609E-008  0.1689540E+04  0.7818608E-02  0.8786232E-01
         -2   -1    0    0    0  501 -0.00000000000E+00  0.00000000000E+00  0.18933877645E+04  0.18933877645E+04  0.25500000000E-02 0.  1.
          2   -1    0    0  501    0  0.00000000000E+00 -0.00000000000E+00 -0.21616179318E+04  0.21616179318E+04  0.25500000000E-02 0. -1.
    8880023    1    1    2    0    0  0.95766445773E+03 -0.12262198975E+04  0.10676661496E+04  0.19986139357E+04  0.65864270000E+03 0.  0.
    8880022    1    1    2    0    0 -0.95766445773E+03  0.12262198975E+04 -0.13358963169E+04  0.20563917607E+04  0.15294330000E+03 0.  0.
<mgrwt>
<rscale>  0 0.16570741E+04</rscale>
<asrwt>0</asrwt>
<pdfrwt beam="1">  1        2 0.33255660E+00 0.16895404E+04</pdfrwt>
<pdfrwt beam="2">  1       -2 0.29129043E+00 0.16895404E+04</pdfrwt>
<totfact> 0.17889542E-01</totfact>
</mgrwt>
</event>
<event>
 4    5  0.7289609E-008  0.9152363E+03  0.7818608E-02  0.9502002E-01
          2   -1    0    0  501    0  0.00000000000E+00  0.00000000000E+00  0.18031576437E+04  0.18031576437E+04  0.25500000000E-02 0. -1.
         -2   -1    0    0    0  501 -0.00000000000E+00 -0.00000000000E+00 -0.13782009214E+04  0.13782009214E+04  0.25500000000E-02 0.  1.
    8880023    1    1    2    0    0 -0.56359224079E+03 -0.29361705567E+03 -0.11537529122E+04  0.14726857023E+04  0.65864270000E+03 0.  1.
    8880022    1    1    2    0    0  0.56359224079E+03  0.29361705567E+03  0.15787096344E+04  0.17086728628E+04  0.15294330000E+03 0.  0.
<mgrwt>
<rscale>  0 0.84136366E+03</rscale>
<asrwt>0</asrwt>
<pdfrwt beam="1">  1        2 0.27740887E+00 0.91523625E+03</pdfrwt>
<pdfrwt beam="2">  1       -2 0.21203091E+00 0.91523625E+03</pdfrwt>
<totfact> 0.96478122E-01</totfact>
</mgrwt>
</event>
<event>
 4    5  0.7289609E-008  0.8504036E+03  0.7818608E-02  0.9610867E-01
         -2   -1    0    0    0  501 -0.00000000000E+00  0.00000000000E+00  0.18652616356E+04  0.18652616356E+04  0.25500000000E-02 0.  1.
          2   -1    0    0  501    0  0.00000000000E+00 -0.00000000000E+00 -0.51193270329E+03  0.51193270329E+03  0.25500000000E-02 0. -1.
    8880023    1    1    2    0    0 -0.52566763228E+03  0.11423498252E+03  0.15634524693E+04  0.17797668164E+04  0.65864270000E+03 0. -1.
    8880022    1    1    2    0    0  0.52566763228E+03 -0.11423498252E+03 -0.21012353694E+03  0.59742752250E+03  0.15294330000E+03 0.  0.
<mgrwt>
<rscale>  0 0.76581094E+03</rscale>
<asrwt>0</asrwt>
<pdfrwt beam="1">  1        2 0.78758877E-01 0.85040361E+03</pdfrwt>
<pdfrwt beam="2">  1       -2 0.28696333E+00 0.85040361E+03</pdfrwt>
<totfact> 0.23414746E+00</totfact>
</mgrwt>
</event>
<event>
 4    5  0.7289609E-008  0.2369145E+04  0.7818608E-02  0.8459707E-01
          2   -1    0    0  501    0  0.00000000000E+00  0.00000000000E+00  0.46624739504E+04  0.46624739504E+04  0.25500000000E-02 0. -1.
         -2   -1    0    0    0  501 -0.00000000000E+00 -0.00000000000E+00 -0.12774940279E+04  0.12774940279E+04  0.25500000000E-02 0.  1.
    8880023    1    1    2    0    0 -0.20284074289E+04 -0.10317958226E+04  0.81880782313E+03  0.25066503096E+04  0.65864270000E+03 0.  0.
    8880022    1    1    2    0    0  0.20284074289E+04  0.10317958226E+04  0.25661720994E+04  0.34333176687E+04  0.15294330000E+03 0.  0.
<mgrwt>
<rscale>  0 0.23467648E+04</rscale>
<asrwt>0</asrwt>
<pdfrwt beam="1">  1        2 0.71730368E+00 0.23691453E+04</pdfrwt>
<pdfrwt beam="2">  1       -2 0.19653754E+00 0.23691453E+04</pdfrwt>
<totfact> 0.10201774E-02</totfact>
</mgrwt>
</event>
<event>
 4    5  0.7289609E-008  0.1190484E+04  0.7818608E-02  0.9166429E-01
          2   -1    0    0  501    0  0.00000000000E+00  0.00000000000E+00  0.48596587461E+04  0.48596587461E+04  0.25500000000E-02 0. -1.
         -2   -1    0    0    0  501 -0.00000000000E+00 -0.00000000000E+00 -0.32855796058E+03  0.32855796059E+03  0.25500000000E-02 0.  1.
    8880023    1    1    2    0    0 -0.66993629340E+03  0.73118184720E+03  0.11270469870E+04  0.16393555587E+04  0.65864270000E+03 0.  0.
    8880022    1    1    2    0    0  0.66993629340E+03 -0.73118184720E+03  0.34040537985E+04  0.35488611479E+04  0.15294330000E+03 0.  0.
<mgrwt>
<rscale>  0 0.11406760E+04</rscale>
<asrwt>0</asrwt>
<pdfrwt beam="1">  1        2 0.74763979E+00 0.11904838E+04</pdfrwt>
<pdfrwt beam="2">  1       -2 0.50547380E-01 0.11904838E+04</pdfrwt>
<totfact> 0.19836462E-01</totfact>
</mgrwt>
</event>
<event>
 4    5  0.7289609E-008  0.8083845E+03  0.7818608E-02  0.9692952E-01
         -2   -1    0    0    0  501 -0.00000000000E+00  0.00000000000E+00  0.47184601849E+03  0.47184601850E+03  0.25500000000E-02 0.  1.
          2   -1    0    0  501    0  0.00000000000E+00 -0.00000000000E+00 -0.36017464981E+04  0.36017464981E+04  0.25500000000E-02 0. -1.
    8880023    1    1    2    0    0  0.42765891212E+03  0.19178922608E+03  0.92532257838E+02  0.81366312277E+03  0.65864270000E+03 0.  1.
    8880022    1    1    2    0    0 -0.42765891212E+03 -0.19178922608E+03 -0.32224327375E+04  0.32599293939E+04  0.15294330000E+03 0.  0.
<mgrwt>
<rscale>  0 0.71437986E+03</rscale>
<asrwt>0</asrwt>
<pdfrwt beam="1">  1        2 0.55411483E+00 0.80838447E+03</pdfrwt>
<pdfrwt beam="2">  1       -2 0.72591698E-01 0.80838447E+03</pdfrwt>
<totfact> 0.12741913E+00</totfact>
</mgrwt>
</event>
<event>
 4    5  0.7289609E-008  0.6803776E+03  0.7818608E-02  0.1009111E+00
         -2   -1    0    0    0  501 -0.00000000000E+00  0.00000000000E+00  0.14482398462E+04  0.14482398462E+04  0.25500000000E-02 0.  1.
          2   -1    0    0  501    0  0.00000000000E+00 -0.00000000000E+00 -0.10017238478E+04  0.10017238478E+04  0.25500000000E-02 0. -1.
    8880023    1    1    2    0    0 -0.10789813181E+03  0.13214195025E+03  0.13532869055E+04  0.15146944104E+04  0.65864270000E+03 0.  1.
    8880022    1    1    2    0    0  0.10789813181E+03 -0.13214195025E+03 -0.90677090710E+03  0.93526928360E+03  0.15294330000E+03 0.  0.
<mgrwt>
<rscale>  0 0.51829548E+03</rscale>
<asrwt>0</asrwt>
<pdfrwt beam="1">  1        2 0.15411136E+00 0.68037762E+03</pdfrwt>
<pdfrwt beam="2">  1       -2 0.22280613E+00 0.68037762E+03</pdfrwt>
<totfact> 0.24797018E+00</totfact>
</mgrwt>
</event>
<event>
 4    5  0.8943068E-008  0.7652740E+03  0.7818608E-02  0.9791640E-01
          2   -1    0    0  501    0  0.00000000000E+00  0.00000000000E+00  0.29391547175E+04  0.29391547175E+04  0.25500000000E-02 0. -1.
         -2   -1    0    0    0  501 -0.00000000000E+00 -0.00000000000E+00 -0.14624812028E+04  0.14624812028E+04  0.25500000000E-02 0.  1.
    8880023    1    1    2    0    0 -0.25055962130E+03 -0.29841920277E+03 -0.13458660596E+04  0.15482247257E+04  0.65864270000E+03 0.  0.
    8880022    1    1    2    0    0  0.25055962130E+03  0.29841920277E+03  0.28225395743E+04  0.28534111947E+04  0.15294330000E+03 0.  0.
<mgrwt>
<rscale>  0 0.65813122E+03</rscale>
<asrwt>0</asrwt>
<pdfrwt beam="1">  1        2 0.45217765E+00 0.76527404E+03</pdfrwt>
<pdfrwt beam="2">  1       -2 0.22499711E+00 0.76527404E+03</pdfrwt>
<totfact> 0.18755346E-01</totfact>
</mgrwt>
</event>
<event>
 4    5  0.7289609E-008  0.8296636E+03  0.7818608E-02  0.9649987E-01
          2   -1    0    0  501    0  0.00000000000E+00  0.00000000000E+00  0.10368391090E+04  0.10368391090E+04  0.25500000000E-02 0. -1.
         -2   -1    0    0    0  501 -0.00000000000E+00 -0.00000000000E+00 -0.10771289974E+04  0.10771289974E+04  0.25500000000E-02 0.  1.
    8880023    1    1    2    0    0 -0.99207947905E+02 -0.49466077961E+03 -0.82407883311E+03  0.11693791657E+04  0.65864270000E+03 0.  0.
    8880022    1    1    2    0    0  0.99207947905E+02  0.49466077961E+03  0.78378894475E+03  0.94458894062E+03  0.15294330000E+03 0.  0.
<mgrwt>
<rscale>  0 0.74074226E+03</rscale>
<asrwt>0</asrwt>
<pdfrwt beam="1">  1        2 0.15951371E+00 0.82966361E+03</pdfrwt>
<pdfrwt beam="2">  1       -2 0.16571215E+00 0.82966361E+03</pdfrwt>
<totfact> 0.55130658E+00</totfact>
</mgrwt>
</event>
<event>
 4    5  0.7289609E-008  0.8607450E+03  0.7818608E-02  0.9592240E-01
          2   -1    0    0  501    0  0.00000000000E+00  0.00000000000E+00  0.14876494182E+04  0.14876494182E+04  0.25500000000E-02 0. -1.
         -2   -1    0    0    0  501 -0.00000000000E+00 -0.00000000000E+00 -0.15866120135E+04  0.15866120135E+04  0.25500000000E-02 0.  1.
    8880023    1    1    2    0    0 -0.54488430269E+03 -0.10086020337E+03 -0.14047795274E+04  0.16475094570E+04  0.65864270000E+03 0.  1.
    8880022    1    1    2    0    0  0.54488430269E+03  0.10086020337E+03  0.13058169322E+04  0.14267519747E+04  0.15294330000E+03 0.  0.
<mgrwt>
<rscale>  0 0.77811946E+03</rscale>
<asrwt>0</asrwt>
<pdfrwt beam="1">  1        2 0.22886914E+00 0.86074496E+03</pdfrwt>
<pdfrwt beam="2">  1       -2 0.24409415E+00 0.86074496E+03</pdfrwt>
<totfact> 0.91914228E-01</totfact>
</mgrwt>
</event>
<event>
 4    5  0.7289609E-008  0.1021572E+04  0.7818608E-02  0.9353864E-01
          2   -1    0    0  501    0  0.00000000000E+00  0.00000000000E+00  0.18437773426E+04  0.18437773426E+04  0.25500000000E-02 0. -1.
         -2   -1    0    0    0  501 -0.00000000000E+00 -0.00000000000E+00 -0.57240865472E+03  0.57240865473E+03  0.25500000000E-02 0.  1.
    8880023    1    1    2    0    0 -0.38504867938E+03  0.67936418796E+03  0.13724087048E+03  0.10307489744E+04  0.65864270000E+03 0.  1.
    8880022    1    1    2    0    0  0.38504867938E+03 -0.67936418796E+03  0.11341278174E+04  0.13854370230E+04  0.15294330000E+03 0.  0.
<mgrwt>
<rscale>  0 0.95971731E+03</rscale>
<asrwt>0</asrwt>
<pdfrwt beam="1">  1        2 0.28365805E+00 0.10215715E+04</pdfrwt>
<pdfrwt beam="2">  1       -2 0.88062870E-01 0.10215715E+04</pdfrwt>
<totfact> 0.90407505E+00</totfact>
</mgrwt>
</event>
<event>
 4    5  0.7289609E-008  0.7634570E+03  0.7818608E-02  0.9796239E-01
          2   -1    0    0  501    0  0.00000000000E+00  0.00000000000E+00  0.90928958581E+03  0.90928958582E+03  0.25500000000E-02 0. -1.
         -2   -1    0    0    0  501 -0.00000000000E+00 -0.00000000000E+00 -0.70790396318E+03  0.70790396319E+03  0.25500000000E-02 0.  1.
    8880023    1    1    2    0    0 -0.79811599346E+02 -0.37773861847E+03 -0.41882710987E+03  0.87079429804E+03  0.65864270000E+03 0.  1.
    8880022    1    1    2    0    0  0.79811599346E+02  0.37773861847E+03  0.62021273250E+03  0.74639925096E+03  0.15294330000E+03 0.  0.
<mgrwt>
<rscale>  0 0.65564794E+03</rscale>
<asrwt>0</asrwt>
<pdfrwt beam="1">  1        2 0.13989071E+00 0.76345698E+03</pdfrwt>
<pdfrwt beam="2">  1       -2 0.10890830E+00 0.76345698E+03</pdfrwt>
<totfact> 0.19728882E+01</totfact>
</mgrwt>
</event>
<event>
 4    5  0.7289609E-008  0.1653894E+04  0.7818608E-02  0.8807977E-01
         -2   -1    0    0    0  501 -0.00000000000E+00  0.00000000000E+00  0.13598857203E+04  0.13598857203E+04  0.25500000000E-02 0.  1.
          2   -1    0    0  501    0  0.00000000000E+00 -0.00000000000E+00 -0.21772273353E+04  0.21772273353E+04  0.25500000000E-02 0. -1.
    8880023    1    1    2    0    0 -0.89738070520E+03 -0.12232179944E+04  0.25442018599E+03  0.16733482092E+04  0.65864270000E+03 0.  0.
    8880022    1    1    2    0    0  0.89738070520E+03  0.12232179944E+04 -0.10717618009E+04  0.18637648464E+04  0.15294330000E+03 0.  0.
<mgrwt>
<rscale>  0 0.16206242E+04</rscale>
<asrwt>0</asrwt>
<pdfrwt beam="1">  1        2 0.33495805E+00 0.16538938E+04</pdfrwt>
<pdfrwt beam="2">  1       -2 0.20921319E+00 0.16538938E+04</pdfrwt>
<totfact> 0.56949554E-01</totfact>
</mgrwt>
</event>
<event>
 4    5  0.7289609E-008  0.9613356E+03  0.7818608E-02  0.9433989E-01
         -2   -1    0    0    0  501 -0.00000000000E+00  0.00000000000E+00  0.15809789540E+04  0.15809789540E+04  0.25500000000E-02 0.  1.
          2   -1    0    0  501    0  0.00000000000E+00 -0.00000000000E+00 -0.13335766913E+04  0.13335766913E+04  0.25500000000E-02 0. -1.
    8880023    1    1    2    0    0  0.13908809027E+02  0.70011607281E+03  0.13148427694E+04  0.16287963915E+04  0.65864270000E+03 0.  1.
    8880022    1    1    2    0    0 -0.13908809027E+02 -0.70011607281E+03 -0.10674405067E+04  0.12857592538E+04  0.15294330000E+03 0.  0.
<mgrwt>
<rscale>  0 0.89330549E+03</rscale>
<asrwt>0</asrwt>
<pdfrwt beam="1">  1        2 0.20516564E+00 0.96133562E+03</pdfrwt>
<pdfrwt beam="2">  1       -2 0.24322753E+00 0.96133562E+03</pdfrwt>
<totfact> 0.11203947E+00</totfact>
</mgrwt>
</event>
<event>
 4    5  0.7289609E-008  0.7632226E+03  0.7818608E-02  0.9796835E-01
         -2   -1    0    0    0  501 -0.00000000000E+00  0.00000000000E+00  0.46427337444E+03  0.46427337445E+03  0.25500000000E-02 0.  1.
          2   -1    0    0  501    0  0.00000000000E+00 -0.00000000000E+00 -0.95490636039E+03  0.95490636040E+03  0.25500000000E-02 0. -1.
    8880023    1    1    2    0    0 -0.15299816729E+03  0.35396335791E+03  0.17239325526E+02  0.76341725062E+03  0.65864270000E+03 0.  1.
    8880022    1    1    2    0    0  0.15299816729E+03 -0.35396335791E+03 -0.50787231148E+03  0.65576248423E+03  0.15294330000E+03 0.  0.
<mgrwt>
<rscale>  0 0.65532677E+03</rscale>
<asrwt>0</asrwt>
<pdfrwt beam="1">  1        2 0.14690867E+00 0.76322258E+03</pdfrwt>
<pdfrwt beam="2">  1       -2 0.71426673E-01 0.76322258E+03</pdfrwt>
<totfact> 0.48596441E+01</totfact>
</mgrwt>
</event>
<event>
 4    5  0.7289609E-008  0.8937168E+03  0.7818608E-02  0.9536194E-01
         -2   -1    0    0    0  501 -0.00000000000E+00  0.00000000000E+00  0.10493834409E+04  0.10493834409E+04  0.25500000000E-02 0.  1.
          2   -1    0    0  501    0  0.00000000000E+00 -0.00000000000E+00 -0.18229268035E+04  0.18229268035E+04  0.25500000000E-02 0. -1.
    8880023    1    1    2    0    0  0.23675041586E+03  0.55575954113E+03  0.78769927793E+03  0.11913017190E+04  0.65864270000E+03 0.  1.
    8880022    1    1    2    0    0 -0.23675041586E+03 -0.55575954113E+03 -0.15612426405E+04  0.16810085254E+04  0.15294330000E+03 0.  0.
<mgrwt>
<rscale>  0 0.81667149E+03</rscale>
<asrwt>0</asrwt>
<pdfrwt beam="1">  1        2 0.28045028E+00 0.89371675E+03</pdfrwt>
<pdfrwt beam="2">  1       -2 0.16144361E+00 0.89371675E+03</pdfrwt>
<totfact> 0.20811341E+00</totfact>
</mgrwt>
</event>
<event>
 4    5  0.7289609E-008  0.7554133E+03  0.7818608E-02  0.9817130E-01
         -2   -1    0    0    0  501 -0.00000000000E+00  0.00000000000E+00  0.21787294146E+03  0.21787294147E+03  0.25500000000E-02 0.  1.
          2   -1    0    0  501    0  0.00000000000E+00 -0.00000000000E+00 -0.18233680520E+04  0.18233680520E+04  0.25500000000E-02 0. -1.
    8880023    1    1    2    0    0 -0.94957757589E+02 -0.35752213614E+03 -0.14011430418E+04  0.15918074894E+04  0.65864270000E+03 0.  1.
    8880022    1    1    2    0    0  0.94957757589E+02  0.35752213614E+03 -0.20435206878E+03  0.44943350407E+03  0.15294330000E+03 0.  0.
<mgrwt>
<rscale>  0 0.64451301E+03</rscale>
<asrwt>0</asrwt>
<pdfrwt beam="1">  1        2 0.28051815E+00 0.75541330E+03</pdfrwt>
<pdfrwt beam="2">  1       -2 0.33518915E-01 0.75541330E+03</pdfrwt>
<totfact> 0.71358719E+01</totfact>
</mgrwt>
</event>
<event>
 4    5  0.7289609E-008  0.7590571E+03  0.7818608E-02  0.9807555E-01
          2   -1    0    0  501    0  0.00000000000E+00  0.00000000000E+00  0.67391137553E+03  0.67391137553E+03  0.25500000000E-02 0. -1.
         -2   -1    0    0    0  501 -0.00000000000E+00 -0.00000000000E+00 -0.20702543794E+04  0.20702543794E+04  0.25500000000E-02 0.  1.
    8880023    1    1    2    0    0 -0.62102388468E+02  0.37215699820E+03 -0.19294448982E+04  0.20733850003E+04  0.65864270000E+03 0.  1.
    8880022    1    1    2    0    0  0.62102388468E+02 -0.37215699820E+03  0.53310189437E+03  0.67078075461E+03  0.15294330000E+03 0.  0.
<mgrwt>
<rscale>  0 0.64958693E+03</rscale>
<asrwt>0</asrwt>
<pdfrwt beam="1">  1        2 0.10367867E+00 0.75905714E+03</pdfrwt>
<pdfrwt beam="2">  1       -2 0.31850067E+00 0.75905714E+03</pdfrwt>
<totfact> 0.10997279E+00</totfact>
</mgrwt>
</event>
<event>
 4    5  0.7289609E-008  0.6863600E+03  0.7818608E-02  0.1005933E+00
          2   -1    0    0  501    0  0.00000000000E+00  0.00000000000E+00  0.52378596191E+03  0.52378596191E+03  0.25500000000E-02 0. -1.
         -2   -1    0    0    0  501 -0.00000000000E+00 -0.00000000000E+00 -0.13685432768E+04  0.13685432768E+04  0.25500000000E-02 0.  1.
    8880023    1    1    2    0    0  0.71954826104E+02  0.17917116854E+03 -0.12454089763E+04  0.14220174152E+04  0.65864270000E+03 0.  1.
    8880022    1    1    2    0    0 -0.71954826104E+02 -0.17917116854E+03  0.40065166134E+03  0.47031182357E+03  0.15294330000E+03 0.  0.
<mgrwt>
<rscale>  0 0.53123541E+03</rscale>
<asrwt>0</asrwt>
<pdfrwt beam="1">  1        2 0.80582456E-01 0.68635997E+03</pdfrwt>
<pdfrwt beam="2">  1       -2 0.21054512E+00 0.68635997E+03</pdfrwt>
<totfact> 0.68187809E+00</totfact>
</mgrwt>
</event>
<event>
 4    5  0.7289609E-008  0.1090700E+04  0.7818608E-02  0.9271482E-01
          2   -1    0    0  501    0  0.00000000000E+00  0.00000000000E+00  0.39828943919E+04  0.39828943919E+04  0.25500000000E-02 0. -1.
         -2   -1    0    0    0  501 -0.00000000000E+00 -0.00000000000E+00 -0.24742673980E+03  0.24742673981E+03  0.25500000000E-02 0.  1.
    8880023    1    1    2    0    0 -0.57627989888E+03  0.65093626800E+03  0.18313336183E+04  0.21315275215E+04  0.65864270000E+03 0.  1.
    8880022    1    1    2    0    0  0.57627989888E+03 -0.65093626800E+03  0.19041340338E+04  0.20987936103E+04  0.15294330000E+03 0. -1.
<mgrwt>
<rscale>  0 0.10345124E+04</rscale>
<asrwt>0</asrwt>
<pdfrwt beam="1">  1        2 0.61275299E+00 0.10907001E+04</pdfrwt>
<pdfrwt beam="2">  1       -2 0.38065652E-01 0.10907001E+04</pdfrwt>
<totfact> 0.23895804E+00</totfact>
</mgrwt>
</event>
<event>
 4    5  0.7289609E-008  0.9275924E+03  0.7818608E-02  0.9483114E-01
          2   -1    0    0  501    0  0.00000000000E+00  0.00000000000E+00  0.49640118628E+04  0.49640118628E+04  0.25500000000E-02 0. -1.
         -2   -1    0    0    0  501 -0.00000000000E+00 -0.00000000000E+00 -0.61440401723E+03  0.61440401724E+03  0.25500000000E-02 0.  1.
    8880023    1    1    2    0    0 -0.57255443462E+03  0.31432280453E+03 -0.22532102384E+03  0.95456648595E+03  0.65864270000E+03 0.  0.
    8880022    1    1    2    0    0  0.57255443462E+03 -0.31432280453E+03  0.45749288694E+04  0.46238493940E+04  0.15294330000E+03 0.  0.
<mgrwt>
<rscale>  0 0.85540254E+03</rscale>
<asrwt>0</asrwt>
<pdfrwt beam="1">  1        2 0.76369414E+00 0.92759237E+03</pdfrwt>
<pdfrwt beam="2">  1       -2 0.94523694E-01 0.92759237E+03</pdfrwt>
<totfact> 0.40231558E-02</totfact>
</mgrwt>
</event>
<event>
 4    5  0.7289609E-008  0.9421563E+03  0.7818608E-02  0.9461490E-01
          2   -1    0    0  501    0  0.00000000000E+00  0.00000000000E+00  0.18609370787E+04  0.18609370787E+04  0.25500000000E-02 0. -1.
         -2   -1    0    0    0  501 -0.00000000000E+00 -0.00000000000E+00 -0.11022946964E+04  0.11022946964E+04  0.25500000000E-02 0.  1.
    8880023    1    1    2    0    0 -0.35638413695E+03 -0.57169800865E+03 -0.81428926489E+03  0.12452812852E+04  0.65864270000E+03 0.  1.
    8880022    1    1    2    0    0  0.35638413695E+03  0.57169800865E+03  0.15729316472E+04  0.17179504899E+04  0.15294330000E+03 0.  0.
<mgrwt>
<rscale>  0 0.87183502E+03</rscale>
<asrwt>0</asrwt>
<pdfrwt beam="1">  1        2 0.28629801E+00 0.94215629E+03</pdfrwt>
<pdfrwt beam="2">  1       -2 0.16958380E+00 0.94215629E+03</pdfrwt>
<totfact> 0.17199339E+00</totfact>
</mgrwt>
</event>
<event>
 4    5  0.7289609E-008  0.1143008E+04  0.7818608E-02  0.9214618E-01
         -2   -1    0    0    0  501 -0.00000000000E+00  0.00000000000E+00  0.17167352627E+04  0.17167352627E+04  0.25500000000E-02 0.  1.
          2   -1    0    0  501    0  0.00000000000E+00 -0.00000000000E+00 -0.36269467622E+04  0.36269467622E+04  0.25500000000E-02 0. -1.
    8880023    1    1    2    0    0  0.21426468091E+03  0.90925614884E+03 -0.33953185964E+04  0.35825486285E+04  0.65864270000E+03 0.  0.
    8880022    1    1    2    0    0 -0.21426468091E+03 -0.90925614884E+03  0.14851070970E+04  0.17611333965E+04  0.15294330000E+03 0.  0.
<mgrwt>
<rscale>  0 0.10903809E+04</rscale>
<asrwt>0</asrwt>
<pdfrwt beam="1">  1        2 0.55799181E+00 0.11430076E+04</pdfrwt>
<pdfrwt beam="2">  1       -2 0.26411312E+00 0.11430076E+04</pdfrwt>
<totfact> 0.35104315E-02</totfact>
</mgrwt>
</event>
<event>
 4    5  0.7289609E-008  0.9422204E+03  0.7818608E-02  0.9461397E-01
         -2   -1    0    0    0  501 -0.00000000000E+00  0.00000000000E+00  0.84726647336E+03  0.84726647336E+03  0.25500000000E-02 0.  1.
          2   -1    0    0  501    0  0.00000000000E+00 -0.00000000000E+00 -0.24639611762E+04  0.24639611762E+04  0.25500000000E-02 0. -1.
    8880023    1    1    2    0    0  0.30220622684E+02 -0.67309413094E+03  0.51260889630E+03  0.10726355774E+04  0.65864270000E+03 0.  1.
    8880022    1    1    2    0    0 -0.30220622684E+02  0.67309413094E+03 -0.21293035992E+04  0.22385920722E+04  0.15294330000E+03 0.  0.
<mgrwt>
<rscale>  0 0.87190705E+03</rscale>
<asrwt>0</asrwt>
<pdfrwt beam="1">  1        2 0.37907095E+00 0.94222036E+03</pdfrwt>
<pdfrwt beam="2">  1       -2 0.13034869E+00 0.94222036E+03</pdfrwt>
<totfact> 0.15988606E+00</totfact>
</mgrwt>
</event>
<event>
 4    5  0.7289609E-008  0.7258730E+03  0.7818608E-02  0.9903192E-01
          2   -1    0    0  501    0  0.00000000000E+00  0.00000000000E+00  0.32827879866E+04  0.32827879866E+04  0.25500000000E-02 0. -1.
         -2   -1    0    0    0  501 -0.00000000000E+00 -0.00000000000E+00 -0.24745755160E+03  0.24745755162E+03  0.25500000000E-02 0.  1.
    8880023    1    1    2    0    0  0.25386766101E+03 -0.16921191533E+03  0.31953694399E+03  0.79309238203E+03  0.65864270000E+03 0.  1.
    8880022    1    1    2    0    0 -0.25386766101E+03  0.16921191533E+03  0.27157934910E+04  0.27371531562E+04  0.15294330000E+03 0.  0.
<mgrwt>
<rscale>  0 0.60106814E+03</rscale>
<asrwt>0</asrwt>
<pdfrwt beam="1">  1        2 0.50504433E+00 0.72587304E+03</pdfrwt>
<pdfrwt beam="2">  1       -2 0.38070391E-01 0.72587304E+03</pdfrwt>
<totfact> 0.80338087E+00</totfact>
</mgrwt>
</event>
<event>
 4    5  0.7289609E-008  0.6841083E+03  0.7818608E-02  0.1007089E+00
          2   -1    0    0  501    0  0.00000000000E+00  0.00000000000E+00  0.10858447971E+04  0.10858447972E+04  0.25500000000E-02 0. -1.
         -2   -1    0    0    0  501 -0.00000000000E+00 -0.00000000000E+00 -0.25600739188E+03  0.25600739190E+03  0.25500000000E-02 0.  1.
    8880023    1    1    2    0    0 -0.18019431011E+03  0.41520432508E+02  0.27494144466E+03  0.73729026846E+03  0.65864270000E+03 0.  0.
    8880022    1    1    2    0    0  0.18019431011E+03 -0.41520432508E+02  0.55489596061E+03  0.60456192059E+03  0.15294330000E+03 0.  0.
<mgrwt>
<rscale>  0 0.52648119E+03</rscale>
<asrwt>0</asrwt>
<pdfrwt beam="1">  1        2 0.16705305E+00 0.68410828E+03</pdfrwt>
<pdfrwt beam="2">  1       -2 0.39385752E-01 0.68410828E+03</pdfrwt>
<totfact> 0.13789593E+02</totfact>
</mgrwt>
</event>
<event>
 4    5  0.7289609E-008  0.8216451E+03  0.7818608E-02  0.9665812E-01
          2   -1    0    0  501    0  0.00000000000E+00  0.00000000000E+00  0.26870624579E+04  0.26870624579E+04  0.25500000000E-02 0. -1.
         -2   -1    0    0    0  501 -0.00000000000E+00 -0.00000000000E+00 -0.39811843308E+03  0.39811843309E+03  0.25500000000E-02 0.  1.
    8880023    1    1    2    0    0  0.46981470896E+03 -0.14340371901E+03  0.89658743604E+02  0.82652246427E+03  0.65864270000E+03 0.  1.
    8880022    1    1    2    0    0 -0.46981470896E+03  0.14340371901E+03  0.21992852812E+04  0.22586584267E+04  0.15294330000E+03 0.  0.
<mgrwt>
<rscale>  0 0.73089297E+03</rscale>
<asrwt>0</asrwt>
<pdfrwt beam="1">  1        2 0.41339423E+00 0.82164511E+03</pdfrwt>
<pdfrwt beam="2">  1       -2 0.61248990E-01 0.82164511E+03</pdfrwt>
<totfact> 0.69841875E+00</totfact>
</mgrwt>
</event>
<event>
 4    5  0.7289609E-008  0.6982092E+03  0.7818608E-02  0.1000471E+00
         -2   -1    0    0    0  501 -0.00000000000E+00  0.00000000000E+00  0.26915116635E+03  0.26915116636E+03  0.25500000000E-02 0.  1.
          2   -1    0    0  501    0  0.00000000000E+00 -0.00000000000E+00 -0.24798283389E+04  0.24798283389E+04  0.25500000000E-02 0. -1.
    8880023    1    1    2    0    0  0.20685192376E+03 -0.10439432065E+03 -0.20996448538E+03  0.72909614176E+03  0.65864270000E+03 0.  1.
    8880022    1    1    2    0    0 -0.20685192376E+03  0.10439432065E+03 -0.20007126872E+04  0.20198833635E+04  0.15294330000E+03 0.  0.
<mgrwt>
<rscale>  0 0.55444078E+03</rscale>
<asrwt>0</asrwt>
<pdfrwt beam="1">  1        2 0.38151204E+00 0.69820921E+03</pdfrwt>
<pdfrwt beam="2">  1       -2 0.41407873E-01 0.69820921E+03</pdfrwt>
<totfact> 0.20818171E+01</totfact>
</mgrwt>
</event>
<event>
 4    5  0.7289609E-008  0.1322014E+04  0.7818608E-02  0.9046779E-01
         -2   -1    0    0    0  501 -0.00000000000E+00  0.00000000000E+00  0.21487063032E+04  0.21487063032E+04  0.25500000000E-02 0.  1.
          2   -1    0    0  501    0  0.00000000000E+00 -0.00000000000E+00 -0.14447413174E+04  0.14447413174E+04  0.25500000000E-02 0. -1.
    8880023    1    1    2    0    0 -0.97706101546E+03  0.59938451989E+03  0.16394185651E+04  0.21060421336E+04  0.65864270000E+03 0. -1.
    8880022    1    1    2    0    0  0.97706101546E+03 -0.59938451989E+03 -0.93545357935E+03  0.14874054870E+04  0.15294330000E+03 0.  0.
<mgrwt>
<rscale>  0 0.12785145E+04</rscale>
<asrwt>0</asrwt>
<pdfrwt beam="1">  1        2 0.22226789E+00 0.13220137E+04</pdfrwt>
<pdfrwt beam="2">  1       -2 0.33057020E+00 0.13220137E+04</pdfrwt>
<totfact> 0.27040681E-01</totfact>
</mgrwt>
</event>
<event>
 4    5  0.7289609E-008  0.1023119E+04  0.7818608E-02  0.9351917E-01
         -2   -1    0    0    0  501 -0.00000000000E+00  0.00000000000E+00  0.43018975833E+03  0.43018975833E+03  0.25500000000E-02 0.  1.
          2   -1    0    0  501    0  0.00000000000E+00 -0.00000000000E+00 -0.26391406252E+04  0.26391406252E+04  0.25500000000E-02 0. -1.
    8880023    1    1    2    0    0 -0.69615258778E+03 -0.35823688128E+03 -0.41141949974E+03  0.11027412659E+04  0.65864270000E+03 0.  1.
    8880022    1    1    2    0    0  0.69615258778E+03  0.35823688128E+03 -0.17975313671E+04  0.19665891176E+04  0.15294330000E+03 0.  0.
<mgrwt>
<rscale>  0 0.96140618E+03</rscale>
<asrwt>0</asrwt>
<pdfrwt beam="1">  1        2 0.40602162E+00 0.10231189E+04</pdfrwt>
<pdfrwt beam="2">  1       -2 0.66183042E-01 0.10231189E+04</pdfrwt>
<totfact> 0.61268210E+00</totfact>
</mgrwt>
</event>
<event>
 4    5  0.7289609E-008  0.1258375E+04  0.7818608E-02  0.9102366E-01
          2   -1    0    0  501    0  0.00000000000E+00  0.00000000000E+00  0.19544689389E+04  0.19544689389E+04  0.25500000000E-02 0. -1.
         -2   -1    0    0    0  501 -0.00000000000E+00 -0.00000000000E+00 -0.18124091940E+04  0.18124091940E+04  0.25500000000E-02 0.  1.
    8880023    1    1    2    0    0  0.67367724425E+02 -0.10701212248E+04  0.15461986545E+04  0.19935491796E+04  0.65864270000E+03 0. -1.
    8880022    1    1    2    0    0 -0.67367724425E+02  0.10701212248E+04 -0.14041389096E+04  0.17733289533E+04  0.15294330000E+03 0.  0.
<mgrwt>
<rscale>  0 0.12120597E+04</rscale>
<asrwt>0</asrwt>
<pdfrwt beam="1">  1        2 0.30068753E+00 0.12583752E+04</pdfrwt>
<pdfrwt beam="2">  1       -2 0.27883218E+00 0.12583752E+04</pdfrwt>
<totfact> 0.29309244E-01</totfact>
</mgrwt>
</event>
<event>
 4    5  0.7289609E-008  0.1295627E+04  0.7818608E-02  0.9069346E-01
         -2   -1    0    0    0  501 -0.00000000000E+00  0.00000000000E+00  0.56126126349E+03  0.56126126350E+03  0.25500000000E-02 0.  1.
          2   -1    0    0  501    0  0.00000000000E+00 -0.00000000000E+00 -0.32211571880E+04  0.32211571880E+04  0.25500000000E-02 0. -1.
    8880023    1    1    2    0    0  0.59107413362E+03 -0.94629234885E+03 -0.58492602667E+03  0.14215437045E+04  0.65864270000E+03 0.  1.
    8880022    1    1    2    0    0 -0.59107413362E+03  0.94629234885E+03 -0.20749698978E+04  0.23608747470E+04  0.15294330000E+03 0.  0.
<mgrwt>
<rscale>  0 0.12510066E+04</rscale>
<asrwt>0</asrwt>
<pdfrwt beam="1">  1        2 0.49556263E+00 0.12956265E+04</pdfrwt>
<pdfrwt beam="2">  1       -2 0.86347889E-01 0.12956265E+04</pdfrwt>
<totfact> 0.14371699E+00</totfact>
</mgrwt>
</event>
<event>
 4    5  0.7289609E-008  0.7627484E+03  0.7818608E-02  0.9798044E-01
          2   -1    0    0  501    0  0.00000000000E+00  0.00000000000E+00  0.12482409317E+04  0.12482409317E+04  0.25500000000E-02 0. -1.
         -2   -1    0    0    0  501 -0.00000000000E+00 -0.00000000000E+00 -0.28173339771E+03  0.28173339772E+03  0.25500000000E-02 0.  1.
    8880023    1    1    2    0    0 -0.19888676108E+03  0.32927025028E+03  0.53274536605E+03  0.93037770436E+03  0.65864270000E+03 0.  1.
    8880022    1    1    2    0    0  0.19888676108E+03 -0.32927025028E+03  0.43376216794E+03  0.59959662508E+03  0.15294330000E+03 0. -1.
<mgrwt>
<rscale>  0 0.65467642E+03</rscale>
<asrwt>0</asrwt>
<pdfrwt beam="1">  1        2 0.19203706E+00 0.76274835E+03</pdfrwt>
<pdfrwt beam="2">  1       -2 0.43343600E-01 0.76274835E+03</pdfrwt>
<totfact> 0.90826103E+01</totfact>
</mgrwt>
</event>
<event>
 4    5  0.7289609E-008  0.1108693E+04  0.7818608E-02  0.9251439E-01
          2   -1    0    0  501    0  0.00000000000E+00  0.00000000000E+00  0.11526037008E+04  0.11526037008E+04  0.25500000000E-02 0. -1.
         -2   -1    0    0    0  501 -0.00000000000E+00 -0.00000000000E+00 -0.17162297445E+04  0.17162297445E+04  0.25500000000E-02 0.  1.
    8880023    1    1    2    0    0 -0.23890720093E+03 -0.85925177851E+03 -0.12954221925E+04  0.17050862537E+04  0.65864270000E+03 0.  0.
    8880022    1    1    2    0    0  0.23890720093E+03  0.85925177851E+03  0.73179614882E+03  0.11637471916E+04  0.15294330000E+03 0.  0.
<mgrwt>
<rscale>  0 0.10537912E+04</rscale>
<asrwt>0</asrwt>
<pdfrwt beam="1">  1        2 0.17732365E+00 0.11086931E+04</pdfrwt>
<pdfrwt beam="2">  1       -2 0.26403534E+00 0.11086931E+04</pdfrwt>
<totfact> 0.10497902E+00</totfact>
</mgrwt>
</event>
<event>
 4    5  0.7289609E-008  0.8225578E+03  0.7818608E-02  0.9663990E-01
         -2   -1    0    0    0  501 -0.00000000000E+00  0.00000000000E+00  0.32947920272E+03  0.32947920273E+03  0.25500000000E-02 0.  1.
          2   -1    0    0  501    0  0.00000000000E+00 -0.00000000000E+00 -0.24026746646E+04  0.24026746646E+04  0.25500000000E-02 0. -1.
    8880023    1    1    2    0    0  0.12359801475E+03  0.47698502105E+03 -0.28423324790E+03  0.87028152056E+03  0.65864270000E+03 0.  1.
    8880022    1    1    2    0    0 -0.12359801475E+03 -0.47698502105E+03 -0.17889622139E+04  0.18618723467E+04  0.15294330000E+03 0.  0.
<mgrwt>
<rscale>  0 0.73201897E+03</rscale>
<asrwt>0</asrwt>
<pdfrwt beam="1">  1        2 0.36964225E+00 0.82255783E+03</pdfrwt>
<pdfrwt beam="2">  1       -2 0.50689110E-01 0.82255783E+03</pdfrwt>
<totfact> 0.15063923E+01</totfact>
</mgrwt>
</event>
<event>
 4    5  0.7289609E-008  0.1217097E+04  0.7818608E-02  0.9140680E-01
         -2   -1    0    0    0  501 -0.00000000000E+00  0.00000000000E+00  0.45317727187E+03  0.45317727188E+03  0.25500000000E-02 0.  1.
          2   -1    0    0  501    0  0.00000000000E+00 -0.00000000000E+00 -0.32040450419E+04  0.32040450419E+04  0.25500000000E-02 0. -1.
    8880023    1    1    2    0    0  0.91579789074E+03 -0.45697738458E+03 -0.82320947500E+03  0.14693529708E+04  0.65864270000E+03 0.  0.
    8880022    1    1    2    0    0 -0.91579789074E+03  0.45697738458E+03 -0.19276582950E+04  0.21878693430E+04  0.15294330000E+03 0.  0.
<mgrwt>
<rscale>  0 0.11687260E+04</rscale>
<asrwt>0</asrwt>
<pdfrwt beam="1">  1        2 0.49292999E+00 0.12170967E+04</pdfrwt>
<pdfrwt beam="2">  1       -2 0.69719582E-01 0.12170967E+04</pdfrwt>
<totfact> 0.24089050E+00</totfact>
</mgrwt>
</event>
<event>
 4    5  0.7289609E-008  0.7943077E+03  0.7818608E-02  0.9723242E-01
         -2   -1    0    0    0  501 -0.00000000000E+00  0.00000000000E+00  0.50800840419E+03  0.50800840420E+03  0.25500000000E-02 0.  1.
          2   -1    0    0  501    0  0.00000000000E+00 -0.00000000000E+00 -0.97488300154E+03  0.97488300154E+03  0.25500000000E-02 0. -1.
    8880023    1    1    2    0    0  0.41514941621E+03  0.15737057413E+03  0.35659165573E+02  0.79510773970E+03  0.65864270000E+03 0.  1.
    8880022    1    1    2    0    0 -0.41514941621E+03 -0.15737057413E+03 -0.50253376292E+03  0.68778366604E+03  0.15294330000E+03 0.  0.
<mgrwt>
<rscale>  0 0.69649689E+03</rscale>
<asrwt>0</asrwt>
<pdfrwt beam="1">  1        2 0.14998200E+00 0.79430771E+03</pdfrwt>
<pdfrwt beam="2">  1       -2 0.78155139E-01 0.79430771E+03</pdfrwt>
<totfact> 0.38533224E+01</totfact>
</mgrwt>
</event>
<event>
 4    5  0.7289609E-008  0.8826137E+03  0.7818608E-02  0.9554539E-01
         -2   -1    0    0    0  501 -0.00000000000E+00  0.00000000000E+00  0.63721805535E+03  0.63721805536E+03  0.25500000000E-02 0.  1.
          2   -1    0    0  501    0  0.00000000000E+00 -0.00000000000E+00 -0.11148883520E+04  0.11148883520E+04  0.25500000000E-02 0. -1.
    8880023    1    1    2    0    0  0.53624464213E+03  0.24007986126E+03  0.13115611282E+03  0.89230532229E+03  0.65864270000E+03 0.  1.
    8880022    1    1    2    0    0 -0.53624464213E+03 -0.24007986126E+03 -0.60882640943E+03  0.85980108503E+03  0.15294330000E+03 0.  0.
<mgrwt>
<rscale>  0 0.80379569E+03</rscale>
<asrwt>0</asrwt>
<pdfrwt beam="1">  1        2 0.17152129E+00 0.88261365E+03</pdfrwt>
<pdfrwt beam="2">  1       -2 0.98033547E-01 0.88261365E+03</pdfrwt>
<totfact> 0.18547460E+01</totfact>
</mgrwt>
</event>
<event>
 4    5  0.7289609E-008  0.8398389E+03  0.7818608E-02  0.9630484E-01
          2   -1    0    0  501    0  0.00000000000E+00  0.00000000000E+00  0.23007728235E+04  0.23007728235E+04  0.25500000000E-02 0. -1.
         -2   -1    0    0    0  501 -0.00000000000E+00 -0.00000000000E+00 -0.57335086989E+03  0.57335086989E+03  0.25500000000E-02 0.  1.
    8880023    1    1    2    0    0 -0.28671139281E+03  0.43510437294E+03 -0.20695589672E+03  0.86496253535E+03  0.65864270000E+03 0.  1.
    8880022    1    1    2    0    0  0.28671139281E+03 -0.43510437294E+03  0.19343778503E+04  0.20091611580E+04  0.15294330000E+03 0.  0.
<mgrwt>
<rscale>  0 0.75310990E+03</rscale>
<asrwt>0</asrwt>
<pdfrwt beam="1">  1        2 0.35396506E+00 0.83983894E+03</pdfrwt>
<pdfrwt beam="2">  1       -2 0.88207825E-01 0.83983894E+03</pdfrwt>
<totfact> 0.51576990E+00</totfact>
</mgrwt>
</event>
<event>
 4    5  0.7289609E-008  0.8065212E+03  0.7818608E-02  0.9696869E-01
          2   -1    0    0  501    0  0.00000000000E+00  0.00000000000E+00  0.37230574930E+04  0.37230574930E+04  0.25500000000E-02 0. -1.
         -2   -1    0    0    0  501 -0.00000000000E+00 -0.00000000000E+00 -0.40122394403E+03  0.40122394404E+03  0.25500000000E-02 0.  1.
    8880023    1    1    2    0    0  0.45829234411E+03  0.81451822938E+02  0.41530902520E+02  0.80758980569E+03  0.65864270000E+03 0.  0.
    8880022    1    1    2    0    0 -0.45829234411E+03 -0.81451822938E+02  0.32803026465E+04  0.33166916314E+04  0.15294330000E+03 0.  0.
<mgrwt>
<rscale>  0 0.71203502E+03</rscale>
<asrwt>0</asrwt>
<pdfrwt beam="1">  1        2 0.57277806E+00 0.80652122E+03</pdfrwt>
<pdfrwt beam="2">  1       -2 0.61726762E-01 0.80652122E+03</pdfrwt>
<totfact> 0.14833812E+00</totfact>
</mgrwt>
</event>
<event>
 4    5  0.7289609E-008  0.9543302E+03  0.7818608E-02  0.9443911E-01
          2   -1    0    0  501    0  0.00000000000E+00  0.00000000000E+00  0.37411466952E+04  0.37411466952E+04  0.25500000000E-02 0. -1.
         -2   -1    0    0    0  501 -0.00000000000E+00 -0.00000000000E+00 -0.33581820951E+03  0.33581820952E+03  0.25500000000E-02 0.  1.
    8880023    1    1    2    0    0 -0.37767151889E+03 -0.57818691871E+03  0.48174286258E+03  0.10690286624E+04  0.65864270000E+03 0.  1.
    8880022    1    1    2    0    0  0.37767151889E+03  0.57818691871E+03  0.29235856231E+04  0.30079362423E+04  0.15294330000E+03 0.  0.
<mgrwt>
<rscale>  0 0.88548416E+03</rscale>
<asrwt>0</asrwt>
<pdfrwt beam="1">  1        2 0.57556106E+00 0.95433018E+03</pdfrwt>
<pdfrwt beam="2">  1       -2 0.51664337E-01 0.95433018E+03</pdfrwt>
<totfact> 0.20278976E+00</totfact>
</mgrwt>
</event>
<event>
 4    5  0.7289609E-008  0.6983545E+03  0.7818608E-02  0.1000410E+00
          2   -1    0    0  501    0  0.00000000000E+00  0.00000000000E+00  0.12180254336E+04  0.12180254336E+04  0.25500000000E-02 0. -1.
         -2   -1    0    0    0  501 -0.00000000000E+00 -0.00000000000E+00 -0.31507282404E+03  0.31507282405E+03  0.25500000000E-02 0.  1.
    8880023    1    1    2    0    0 -0.84758493881E+02 -0.21611299704E+03  0.12825676720E+03  0.71003438957E+03  0.65864270000E+03 0.  1.
    8880022    1    1    2    0    0  0.84758493881E+02  0.21611299704E+03  0.77469584239E+03  0.82306386812E+03  0.15294330000E+03 0.  0.
<mgrwt>
<rscale>  0 0.55470961E+03</rscale>
<asrwt>0</asrwt>
<pdfrwt beam="1">  1        2 0.18738852E+00 0.69835452E+03</pdfrwt>
<pdfrwt beam="2">  1       -2 0.48472743E-01 0.69835452E+03</pdfrwt>
<totfact> 0.76068107E+01</totfact>
</mgrwt>
</event>
<event>
 4    5  0.7289609E-008  0.7066445E+03  0.7818608E-02  0.9970679E-01
         -2   -1    0    0    0  501 -0.00000000000E+00  0.00000000000E+00  0.41356013051E+03  0.41356013052E+03  0.25500000000E-02 0.  1.
          2   -1    0    0  501    0  0.00000000000E+00 -0.00000000000E+00 -0.88331843101E+03  0.88331843102E+03  0.25500000000E-02 0. -1.
    8880023    1    1    2    0    0 -0.15059749128E+03  0.20701836301E+03  0.38394360964E+02  0.70768675289E+03  0.65864270000E+03 0.  0.
    8880022    1    1    2    0    0  0.15059749128E+03 -0.20701836301E+03 -0.50815266147E+03  0.58919180864E+03  0.15294330000E+03 0.  0.
<mgrwt>
<rscale>  0 0.56954816E+03</rscale>
<asrwt>0</asrwt>
<pdfrwt beam="1">  1        2 0.13589514E+00 0.70664447E+03</pdfrwt>
<pdfrwt beam="2">  1       -2 0.63624636E-01 0.70664447E+03</pdfrwt>
<totfact> 0.69982958E+01</totfact>
</mgrwt>
</event>
<event>
 4    5  0.7289609E-008  0.8331148E+03  0.7818608E-02  0.9643302E-01
         -2   -1    0    0    0  501 -0.00000000000E+00  0.00000000000E+00  0.15959094164E+04  0.15959094164E+04  0.25500000000E-02 0.  1.
          2   -1    0    0  501    0  0.00000000000E+00 -0.00000000000E+00 -0.84320994406E+03  0.84320994406E+03  0.25500000000E-02 0. -1.
    8880023    1    1    2    0    0  0.38696980407E+03 -0.33245208045E+03  0.13826167242E+04  0.16142209351E+04  0.65864270000E+03 0.  1.
    8880022    1    1    2    0    0 -0.38696980407E+03  0.33245208045E+03 -0.62991725182E+03  0.82489842539E+03  0.15294330000E+03 0.  0.
<mgrwt>
<rscale>  0 0.74495272E+03</rscale>
<asrwt>0</asrwt>
<pdfrwt beam="1">  1        2 0.12972461E+00 0.83311477E+03</pdfrwt>
<pdfrwt beam="2">  1       -2 0.24552452E+00 0.83311477E+03</pdfrwt>
<totfact> 0.22376699E+00</totfact>
</mgrwt>
</event>
<event>
 4    5  0.7289609E-008  0.1303533E+04  0.7818608E-02  0.9062515E-01
          2   -1    0    0  501    0  0.00000000000E+00  0.00000000000E+00  0.10896437933E+04  0.10896437933E+04  0.25500000000E-02 0. -1.
         -2   -1    0    0    0  501 -0.00000000000E+00 -0.00000000000E+00 -0.19370964122E+04  0.19370964122E+04  0.25500000000E-02 0.  1.
    8880023    1    1    2    0    0  0.50271471288E+03 -0.10063128132E+04 -0.12656831595E+04  0.18169071598E+04  0.65864270000E+03 0.  0.
    8880022    1    1    2    0    0 -0.50271471288E+03  0.10063128132E+04  0.41823054063E+03  0.12098330458E+04  0.15294330000E+03 0.  0.
<mgrwt>
<rscale>  0 0.12592553E+04</rscale>
<asrwt>0</asrwt>
<pdfrwt beam="1">  1        2 0.16763751E+00 0.13035328E+04</pdfrwt>
<pdfrwt beam="2">  1       -2 0.29801483E+00 0.13035328E+04</pdfrwt>
<totfact> 0.69779450E-01</totfact>
</mgrwt>
</event>
<event>
 4    5  0.7289609E-008  0.9644994E+03  0.7818608E-02  0.9429552E-01
          2   -1    0    0  501    0  0.00000000000E+00  0.00000000000E+00  0.21777122093E+04  0.21777122093E+04  0.25500000000E-02 0. -1.
         -2   -1    0    0    0  501 -0.00000000000E+00 -0.00000000000E+00 -0.45549700950E+03  0.45549700951E+03  0.25500000000E-02 0.  1.
    8880023    1    1    2    0    0  0.35943677072E+03 -0.60601499302E+03  0.25379697199E+03  0.99733247875E+03  0.65864270000E+03 0.  1.
    8880022    1    1    2    0    0 -0.35943677072E+03  0.60601499302E+03  0.14684182278E+04  0.16358767401E+04  0.15294330000E+03 0.  0.
<mgrwt>
<rscale>  0 0.89683028E+03</rscale>
<asrwt>0</asrwt>
<pdfrwt beam="1">  1        2 0.33503266E+00 0.96449944E+03</pdfrwt>
<pdfrwt beam="2">  1       -2 0.70076461E-01 0.96449944E+03</pdfrwt>
<totfact> 0.99526726E+00</totfact>
</mgrwt>
</event>
<event>
 4    5  0.1074182E-007  0.7834485E+03  0.7818608E-02  0.9747798E-01
          2   -1    0    0  501    0  0.00000000000E+00  0.00000000000E+00  0.24617383705E+04  0.24617383705E+04  0.25500000000E-02 0. -1.
         -2   -1    0    0    0  501 -0.00000000000E+00 -0.00000000000E+00 -0.19895523578E+04  0.19895523578E+04  0.25500000000E-02 0.  1.
    8880023    1    1    2    0    0 -0.42343163191E+03  0.26209258674E+02 -0.18902608680E+04  0.20461861175E+04  0.65864270000E+03 0.  1.
    8880022    1    1    2    0    0  0.42343163191E+03 -0.26209258674E+02  0.23624468807E+04  0.24051046109E+04  0.15294330000E+03 0.  0.
<mgrwt>
<rscale>  0 0.68240855E+03</rscale>
<asrwt>0</asrwt>
<pdfrwt beam="1">  1        2 0.37872898E+00 0.78344845E+03</pdfrwt>
<pdfrwt beam="2">  1       -2 0.30608498E+00 0.78344845E+03</pdfrwt>
<totfact> 0.11452321E-01</totfact>
</mgrwt>
</event>
<event>
 4    5  0.7289609E-008  0.8400864E+03  0.7818608E-02  0.9630017E-01
         -2   -1    0    0    0  501 -0.00000000000E+00  0.00000000000E+00  0.54585988178E+03  0.54585988179E+03  0.25500000000E-02 0.  1.
          2   -1    0    0  501    0  0.00000000000E+00 -0.00000000000E+00 -0.10144848269E+04  0.10144848269E+04  0.25500000000E-02 0. -1.
    8880023    1    1    2    0    0 -0.15182386099E+03  0.49888318518E+03  0.40603174172E+01  0.84009619072E+03  0.65864270000E+03 0. -1.
    8880022    1    1    2    0    0  0.15182386099E+03 -0.49888318518E+03 -0.47268526257E+03  0.72024851800E+03  0.15294330000E+03 0.  0.
<mgrwt>
<rscale>  0 0.75340895E+03</rscale>
<asrwt>0</asrwt>
<pdfrwt beam="1">  1        2 0.15607459E+00 0.84008638E+03</pdfrwt>
<pdfrwt beam="2">  1       -2 0.83978444E-01 0.84008638E+03</pdfrwt>
<totfact> 0.30779327E+01</totfact>
</mgrwt>
</event>
<event>
 4    5  0.7289609E-008  0.7321046E+03  0.7818608E-02  0.9883573E-01
         -2   -1    0    0    0  501 -0.00000000000E+00  0.00000000000E+00  0.17643549208E+04  0.17643549208E+04  0.25500000000E-02 0.  1.
          2   -1    0    0  501    0  0.00000000000E+00 -0.00000000000E+00 -0.87400831619E+03  0.87400831619E+03  0.25500000000E-02 0. -1.
    8880023    1    1    2    0    0  0.27734497599E+03 -0.15889208271E+03  0.16472562303E+04  0.18026176034E+04  0.65864270000E+03 0.  1.
    8880022    1    1    2    0    0 -0.27734497599E+03  0.15889208271E+03 -0.75690962566E+03  0.83574563360E+03  0.15294330000E+03 0.  0.
<mgrwt>
<rscale>  0 0.61064056E+03</rscale>
<asrwt>0</asrwt>
<pdfrwt beam="1">  1        2 0.13446282E+00 0.73210459E+03</pdfrwt>
<pdfrwt beam="2">  1       -2 0.27143922E+00 0.73210459E+03</pdfrwt>
<totfact> 0.15100146E+00</totfact>
</mgrwt>
</event>
<event>
 4    5  0.7289609E-008  0.1230604E+04  0.7818608E-02  0.9127932E-01
         -2   -1    0    0    0  501 -0.00000000000E+00  0.00000000000E+00  0.15189280379E+04  0.15189280379E+04  0.25500000000E-02 0.  1.
          2   -1    0    0  501    0  0.00000000000E+00 -0.00000000000E+00 -0.15348266523E+04  0.15348266523E+04  0.25500000000E-02 0. -1.
    8880023    1    1    2    0    0 -0.42759831981E+03  0.94748922930E+03  0.10049420630E+04  0.15888029831E+04  0.65864270000E+03 0.  0.
    8880022    1    1    2    0    0  0.42759831981E+03 -0.94748922930E+03 -0.10208406774E+04  0.14649517072E+04  0.15294330000E+03 0.  0.
<mgrwt>
<rscale>  0 0.11829280E+04</rscale>
<asrwt>0</asrwt>
<pdfrwt beam="1">  1        2 0.23612718E+00 0.12306041E+04</pdfrwt>
<pdfrwt beam="2">  1       -2 0.23368124E+00 0.12306041E+04</pdfrwt>
<totfact> 0.95159603E-01</totfact>
</mgrwt>
</event>
<event>
 4    5  0.7324608E-008  0.1198532E+04  0.7818608E-02  0.9158550E-01
          2   -1    0    0  501    0  0.00000000000E+00  0.00000000000E+00  0.27709922217E+04  0.27709922217E+04  0.25500000000E-02 0. -1.
         -2   -1    0    0    0  501 -0.00000000000E+00 -0.00000000000E+00 -0.14719365341E+04  0.14719365341E+04  0.25500000000E-02 0.  1.
    8880023    1    1    2    0    0 -0.21981784823E+03  0.97690837764E+03 -0.11074996927E+04  0.16318810129E+04  0.65864270000E+03 0.  1.
    8880022    1    1    2    0    0  0.21981784823E+03 -0.97690837764E+03  0.24065553803E+04  0.26110477430E+04  0.15294330000E+03 0.  0.
<mgrwt>
<rscale>  0 0.11491693E+04</rscale>
<asrwt>0</asrwt>
<pdfrwt beam="1">  1        2 0.42630650E+00 0.11985325E+04</pdfrwt>
<pdfrwt beam="2">  1       -2 0.22645177E+00 0.11985325E+04</pdfrwt>
<totfact> 0.21234358E-01</totfact>
</mgrwt>
</event>
<event>
 4    5  0.7289609E-008  0.7112466E+03  0.7818608E-02  0.9953401E-01
          2   -1    0    0  501    0  0.00000000000E+00  0.00000000000E+00  0.12383687274E+04  0.12383687274E+04  0.25500000000E-02 0. -1.
         -2   -1    0    0    0  501 -0.00000000000E+00 -0.00000000000E+00 -0.68003328093E+03  0.68003328094E+03  0.25500000000E-02 0.  1.
    8880023    1    1    2    0    0  0.24186639674E+03 -0.11645674248E+03 -0.46478893699E+03  0.84964727325E+03  0.65864270000E+03 0.  1.
    8880022    1    1    2    0    0 -0.24186639674E+03  0.11645674248E+03  0.10231243835E+04  0.10687547351E+04  0.15294330000E+03 0.  0.
<mgrwt>
<rscale>  0 0.57741619E+03</rscale>
<asrwt>0</asrwt>
<pdfrwt beam="1">  1        2 0.19051827E+00 0.71124660E+03</pdfrwt>
<pdfrwt beam="2">  1       -2 0.10462050E+00 0.71124660E+03</pdfrwt>
<totfact> 0.13657405E+01</totfact>
</mgrwt>
</event>
<event>
 4    5  0.7289609E-008  0.1121129E+04  0.7818608E-02  0.9237889E-01
         -2   -1    0    0    0  501 -0.00000000000E+00  0.00000000000E+00  0.76757900254E+03  0.76757900255E+03  0.25500000000E-02 0.  1.
          2   -1    0    0  501    0  0.00000000000E+00 -0.00000000000E+00 -0.20949468416E+04  0.20949468416E+04  0.25500000000E-02 0. -1.
    8880023    1    1    2    0    0  0.17621544740E+03 -0.88998150426E+03  0.14075324703E+03  0.11299294866E+04  0.65864270000E+03 0.  0.
    8880022    1    1    2    0    0 -0.17621544740E+03  0.88998150426E+03 -0.14681210861E+04  0.17325963576E+04  0.15294330000E+03 0.  0.
<mgrwt>
<rscale>  0 0.10670766E+04</rscale>
<asrwt>0</asrwt>
<pdfrwt beam="1">  1        2 0.32229951E+00 0.11211285E+04</pdfrwt>
<pdfrwt beam="2">  1       -2 0.11808908E+00 0.11211285E+04</pdfrwt>
<totfact> 0.32214888E+00</totfact>
</mgrwt>
</event>
<event>
 4    5  0.7289609E-008  0.9258310E+03  0.7818608E-02  0.9485776E-01
          2   -1    0    0  501    0  0.00000000000E+00  0.00000000000E+00  0.20029748905E+04  0.20029748905E+04  0.25500000000E-02 0. -1.
         -2   -1    0    0    0  501 -0.00000000000E+00 -0.00000000000E+00 -0.78325968890E+03  0.78325968890E+03  0.25500000000E-02 0.  1.
    8880023    1    1    2    0    0  0.39599428636E+03  0.51627644227E+03 -0.41916530313E+03  0.10162984784E+04  0.65864270000E+03 0.  1.
    8880022    1    1    2    0    0 -0.39599428636E+03 -0.51627644227E+03  0.16388805048E+04  0.17699361010E+04  0.15294330000E+03 0.  0.
<mgrwt>
<rscale>  0 0.85340698E+03</rscale>
<asrwt>0</asrwt>
<pdfrwt beam="1">  1        2 0.30814998E+00 0.92583100E+03</pdfrwt>
<pdfrwt beam="2">  1       -2 0.12050149E+00 0.92583100E+03</pdfrwt>
<totfact> 0.35289011E+00</totfact>
</mgrwt>
</event>
<event>
 4    5  0.7289609E-008  0.8575600E+03  0.7818608E-02  0.9597919E-01
         -2   -1    0    0    0  501 -0.00000000000E+00  0.00000000000E+00  0.37120353387E+04  0.37120353387E+04  0.25500000000E-02 0.  1.
          2   -1    0    0  501    0  0.00000000000E+00 -0.00000000000E+00 -0.11179608848E+04  0.11179608848E+04  0.25500000000E-02 0. -1.
    8880023    1    1    2    0    0  0.32550861213E+02  0.54821471771E+03  0.35853520855E+04  0.36864832454E+04  0.65864270000E+03 0.  0.
    8880022    1    1    2    0    0 -0.32550861213E+02 -0.54821471771E+03 -0.99127763161E+03  0.11435129782E+04  0.15294330000E+03 0.  0.
<mgrwt>
<rscale>  0 0.77434096E+03</rscale>
<asrwt>0</asrwt>
<pdfrwt beam="1">  1        2 0.17199398E+00 0.85755999E+03</pdfrwt>
<pdfrwt beam="2">  1       -2 0.57108236E+00 0.85755999E+03</pdfrwt>
<totfact> 0.14479805E-02</totfact>
</mgrwt>
</event>
<event>
 4    5  0.7289609E-008  0.9240455E+03  0.7818608E-02  0.9488484E-01
         -2   -1    0    0    0  501 -0.00000000000E+00  0.00000000000E+00  0.13102582126E+04  0.13102582126E+04  0.25500000000E-02 0.  1.
          2   -1    0    0  501    0  0.00000000000E+00 -0.00000000000E+00 -0.11019722932E+04  0.11019722932E+04  0.25500000000E-02 0. -1.
    8880023    1    1    2    0    0  0.51239937787E+03 -0.39685863126E+03 -0.78764318089E+03  0.12141836279E+04  0.65864270000E+03 0. -1.
    8880022    1    1    2    0    0 -0.51239937787E+03  0.39685863126E+03  0.99592910031E+03  0.11980468778E+04  0.15294330000E+03 0.  0.
<mgrwt>
<rscale>  0 0.85138220E+03</rscale>
<asrwt>0</asrwt>
<pdfrwt beam="1">  1        2 0.16953420E+00 0.92404551E+03</pdfrwt>
<pdfrwt beam="2">  1       -2 0.20157819E+00 0.92404551E+03</pdfrwt>
<totfact> 0.28250937E+00</totfact>
</mgrwt>
</event>
<event>
 4    5  0.7289609E-008  0.1154085E+04  0.7818608E-02  0.9203101E-01
         -2   -1    0    0    0  501 -0.00000000000E+00  0.00000000000E+00  0.96199900207E+03  0.96199900207E+03  0.25500000000E-02 0.  1.
          2   -1    0    0  501    0  0.00000000000E+00 -0.00000000000E+00 -0.12659248975E+04  0.12659248975E+04  0.25500000000E-02 0. -1.
    8880023    1    1    2    0    0  0.38936618236E+03  0.86399968418E+03 -0.48359616567E+03  0.12513100878E+04  0.65864270000E+03 0.  0.
    8880022    1    1    2    0    0 -0.38936618236E+03 -0.86399968418E+03  0.17967027024E+03  0.97661381173E+03  0.15294330000E+03 0.  0.
<mgrwt>
<rscale>  0 0.11021477E+04</rscale>
<asrwt>0</asrwt>
<pdfrwt beam="1">  1        2 0.19475768E+00 0.11540848E+04</pdfrwt>
<pdfrwt beam="2">  1       -2 0.14799985E+00 0.11540848E+04</pdfrwt>
<totfact> 0.52494175E+00</totfact>
</mgrwt>
</event>
<event>
 4    5  0.7289609E-008  0.7382519E+03  0.7818608E-02  0.9865069E-01
          2   -1    0    0  501    0  0.00000000000E+00  0.00000000000E+00  0.13602683401E+04  0.13602683401E+04  0.25500000000E-02 0. -1.
         -2   -1    0    0    0  501 -0.00000000000E+00 -0.00000000000E+00 -0.22668666065E+03  0.22668666067E+03  0.25500000000E-02 0.  1.
    8880023    1    1    2    0    0  0.22101239535E+03  0.24971834441E+03  0.68128391143E+03  0.10045714035E+04  0.65864270000E+03 0.  0.
    8880022    1    1    2    0    0 -0.22101239535E+03 -0.24971834441E+03  0.45229776804E+03  0.58238359732E+03  0.15294330000E+03 0. -1.
<mgrwt>
<rscale>  0 0.61984489E+03</rscale>
<asrwt>0</asrwt>
<pdfrwt beam="1">  1        2 0.20927205E+00 0.73825195E+03</pdfrwt>
<pdfrwt beam="2">  1       -2 0.34874871E-01 0.73825195E+03</pdfrwt>
<totfact> 0.11960301E+02</totfact>
</mgrwt>
</event>
<event>
 4    5  0.7289609E-008  0.8263250E+03  0.7818608E-02  0.9656525E-01
          2   -1    0    0  501    0  0.00000000000E+00  0.00000000000E+00  0.16964750209E+04  0.16964750209E+04  0.25500000000E-02 0. -1.
         -2   -1    0    0    0  501 -0.00000000000E+00 -0.00000000000E+00 -0.24504503138E+04  0.24504503138E+04  0.25500000000E-02 0.  1.
    8880023    1    1    2    0    0 -0.35788397653E+03 -0.34773825733E+03  0.15651007440E+04  0.17698455813E+04  0.65864270000E+03 0.  0.
    8880022    1    1    2    0    0  0.35788397653E+03  0.34773825733E+03 -0.23190760370E+04  0.23770797535E+04  0.15294330000E+03 0.  1.
<mgrwt>
<rscale>  0 0.73665301E+03</rscale>
<asrwt>0</asrwt>
<pdfrwt beam="1">  1        2 0.26099616E+00 0.82632502E+03</pdfrwt>
<pdfrwt beam="2">  1       -2 0.37699236E+00 0.82632502E+03</pdfrwt>
<totfact> 0.10901886E-01</totfact>
</mgrwt>
</event>
<event>
 4    5  0.7289609E-008  0.8671659E+03  0.7818608E-02  0.9580942E-01
         -2   -1    0    0    0  501 -0.00000000000E+00  0.00000000000E+00  0.11684285619E+04  0.11684285619E+04  0.25500000000E-02 0.  1.
          2   -1    0    0  501    0  0.00000000000E+00 -0.00000000000E+00 -0.13463086010E+04  0.13463086010E+04  0.25500000000E-02 0. -1.
    8880023    1    1    2    0    0  0.79098930853E+02  0.55848886875E+03  0.92417243301E+03  0.12673087033E+04  0.65864270000E+03 0.  1.
    8880022    1    1    2    0    0 -0.79098930853E+02 -0.55848886875E+03 -0.11020524721E+04  0.12474284595E+04  0.15294330000E+03 0.  0.
<mgrwt>
<rscale>  0 0.78570535E+03</rscale>
<asrwt>0</asrwt>
<pdfrwt beam="1">  1        2 0.20712440E+00 0.86716588E+03</pdfrwt>
<pdfrwt beam="2">  1       -2 0.17975824E+00 0.86716588E+03</pdfrwt>
<totfact> 0.28534591E+00</totfact>
</mgrwt>
</event>
<event>
 4    5  0.7289609E-008  0.1057762E+04  0.7818608E-02  0.9309608E-01
         -2   -1    0    0    0  501 -0.00000000000E+00  0.00000000000E+00  0.17029762837E+04  0.17029762837E+04  0.25500000000E-02 0.  1.
          2   -1    0    0  501    0  0.00000000000E+00 -0.00000000000E+00 -0.95962409932E+03  0.95962409932E+03  0.25500000000E-02 0. -1.
    8880023    1    1    2    0    0 -0.82060109461E+03 -0.10799879277E+03  0.12829665452E+04  0.16627877971E+04  0.65864270000E+03 0.  1.
    8880022    1    1    2    0    0  0.82060109461E+03  0.10799879277E+03 -0.53961436079E+03  0.99981258598E+03  0.15294330000E+03 0.  0.
<mgrwt>
<rscale>  0 0.99903090E+03</rscale>
<asrwt>0</asrwt>
<pdfrwt beam="1">  1        2 0.14763448E+00 0.10577618E+04</pdfrwt>
<pdfrwt beam="2">  1       -2 0.26199635E+00 0.10577618E+04</pdfrwt>
<totfact> 0.14387299E+00</totfact>
</mgrwt>
</event>
<event>
 4    5  0.7289609E-008  0.1099343E+04  0.7818608E-02  0.9261789E-01
          2   -1    0    0  501    0  0.00000000000E+00  0.00000000000E+00  0.35663442574E+04  0.35663442574E+04  0.25500000000E-02 0. -1.
         -2   -1    0    0    0  501 -0.00000000000E+00 -0.00000000000E+00 -0.38035252994E+03  0.38035252995E+03  0.25500000000E-02 0.  1.
    8880023    1    1    2    0    0  0.20492942757E+03 -0.85600683014E+03  0.69564333259E+03  0.13009510429E+04  0.65864270000E+03 0.  0.
    8880022    1    1    2    0    0 -0.20492942757E+03  0.85600683014E+03  0.24903483949E+04  0.26457457445E+04  0.15294330000E+03 0.  0.
<mgrwt>
<rscale>  0 0.10437809E+04</rscale>
<asrwt>0</asrwt>
<pdfrwt beam="1">  1        2 0.54866833E+00 0.10993425E+04</pdfrwt>
<pdfrwt beam="2">  1       -2 0.58515776E-01 0.10993425E+04</pdfrwt>
<totfact> 0.20383378E+00</totfact>
</mgrwt>
</event>
<event>
 4    5  0.7289609E-008  0.1140863E+04  0.7818608E-02  0.9216869E-01
          2   -1    0    0  501    0  0.00000000000E+00  0.00000000000E+00  0.19393064547E+04  0.19393064547E+04  0.25500000000E-02 0. -1.
         -2   -1    0    0    0  501 -0.00000000000E+00 -0.00000000000E+00 -0.70405851846E+03  0.70405851847E+03  0.25500000000E-02 0.  1.
    8880023    1    1    2    0    0 -0.13857928230E+03  0.92116945076E+03  0.12590591302E+04  0.16990578195E+04  0.65864270000E+03 0.  0.
    8880022    1    1    2    0    0  0.13857928230E+03 -0.92116945076E+03 -0.23811193922E+02  0.94430715367E+03  0.15294330000E+03 0.  0.
<mgrwt>
<rscale>  0 0.10881000E+04</rscale>
<asrwt>0</asrwt>
<pdfrwt beam="1">  1        2 0.29835484E+00 0.11408626E+04</pdfrwt>
<pdfrwt beam="2">  1       -2 0.10831670E+00 0.11408626E+04</pdfrwt>
<totfact> 0.48431840E+00</totfact>
</mgrwt>
</event>
<event>
 4    5  0.7289609E-008  0.8134344E+03  0.7818608E-02  0.9682467E-01
         -2   -1    0    0    0  501 -0.00000000000E+00  0.00000000000E+00  0.22419214446E+03  0.22419214447E+03  0.25500000000E-02 0.  1.
          2   -1    0    0  501    0  0.00000000000E+00 -0.00000000000E+00 -0.31848593709E+04  0.31848593709E+04  0.25500000000E-02 0. -1.
    8880023    1    1    2    0    0 -0.26857870707E+03 -0.39462740289E+03 -0.27456754980E+04  0.28636357058E+04  0.65864270000E+03 0.  0.
    8880022    1    1    2    0    0  0.26857870707E+03  0.39462740289E+03 -0.21499172843E+03  0.54541580955E+03  0.15294330000E+03 0.  0.
<mgrwt>
<rscale>  0 0.72070355E+03</rscale>
<asrwt>0</asrwt>
<pdfrwt beam="1">  1        2 0.48997833E+00 0.81343440E+03</pdfrwt>
<pdfrwt beam="2">  1       -2 0.34491101E-01 0.81343440E+03</pdfrwt>
<totfact> 0.11042634E+01</totfact>
</mgrwt>
</event>
<event>
 4    5  0.7289609E-008  0.1424390E+04  0.7818608E-02  0.8964959E-01
          2   -1    0    0  501    0  0.00000000000E+00  0.00000000000E+00  0.25458939776E+04  0.25458939776E+04  0.25500000000E-02 0. -1.
         -2   -1    0    0    0  501 -0.00000000000E+00 -0.00000000000E+00 -0.97294192502E+03  0.97294192502E+03  0.25500000000E-02 0.  1.
    8880023    1    1    2    0    0 -0.45251252401E+03  0.11791133682E+04 -0.87470950234E+02  0.14270729809E+04  0.65864270000E+03 0.  0.
    8880022    1    1    2    0    0  0.45251252401E+03 -0.11791133682E+04  0.16604230028E+04  0.20917629217E+04  0.15294330000E+03 0.  0.
<mgrwt>
<rscale>  0 0.13847125E+04</rscale>
<asrwt>0</asrwt>
<pdfrwt beam="1">  1        2 0.39167600E+00 0.14243897E+04</pdfrwt>
<pdfrwt beam="2">  1       -2 0.14968337E+00 0.14243897E+04</pdfrwt>
<totfact> 0.93966306E-01</totfact>
</mgrwt>
</event>
<event>
 4    5  0.7289609E-008  0.1246560E+04  0.7818608E-02  0.9113140E-01
          2   -1    0    0  501    0  0.00000000000E+00  0.00000000000E+00  0.29447458112E+04  0.29447458112E+04  0.25500000000E-02 0. -1.
         -2   -1    0    0    0  501 -0.00000000000E+00 -0.00000000000E+00 -0.10973931513E+04  0.10973931513E+04  0.25500000000E-02 0.  1.
    8880023    1    1    2    0    0 -0.87008441143E+03  0.60254076646E+03 -0.59103552936E+03  0.13795780012E+04  0.65864270000E+03 0.  0.
    8880022    1    1    2    0    0  0.87008441143E+03 -0.60254076646E+03  0.24383881892E+04  0.26625609613E+04  0.15294330000E+03 0.  0.
<mgrwt>
<rscale>  0 0.11996766E+04</rscale>
<asrwt>0</asrwt>
<pdfrwt beam="1">  1        2 0.45303781E+00 0.12465603E+04</pdfrwt>
<pdfrwt beam="2">  1       -2 0.16882972E+00 0.12465603E+04</pdfrwt>
<totfact> 0.39978914E-01</totfact>
</mgrwt>
</event>
<event>
 4    5  0.7289609E-008  0.1854407E+04  0.7818608E-02  0.8693023E-01
          2   -1    0    0  501    0  0.00000000000E+00  0.00000000000E+00  0.15527023360E+04  0.15527023360E+04  0.25500000000E-02 0. -1.
         -2   -1    0    0    0  501 -0.00000000000E+00 -0.00000000000E+00 -0.34352784102E+04  0.34352784102E+04  0.25500000000E-02 0.  1.
    8880023    1    1    2    0    0  0.16977168910E+04  0.35038822934E+03 -0.25251339404E+04  0.31329101768E+04  0.65864270000E+03 0.  0.
    8880022    1    1    2    0    0 -0.16977168910E+04 -0.35038822934E+03  0.64255786611E+03  0.18550705694E+04  0.15294330000E+03 0.  0.
<mgrwt>
<rscale>  0 0.18251793E+04</rscale>
<asrwt>0</asrwt>
<pdfrwt beam="1">  1        2 0.23887728E+00 0.18544068E+04</pdfrwt>
<pdfrwt beam="2">  1       -2 0.52850437E+00 0.18544068E+04</pdfrwt>
<totfact> 0.11772366E-02</totfact>
</mgrwt>
</event>
<event>
 4    5  0.7289609E-008  0.8107277E+03  0.7818608E-02  0.9688063E-01
          2   -1    0    0  501    0  0.00000000000E+00  0.00000000000E+00  0.28100744812E+04  0.28100744812E+04  0.25500000000E-02 0. -1.
         -2   -1    0    0    0  501 -0.00000000000E+00 -0.00000000000E+00 -0.67071880516E+03  0.67071880517E+03  0.25500000000E-02 0.  1.
    8880023    1    1    2    0    0  0.47251770023E+03  0.14007809321E+02 -0.39243326820E+03  0.90071264675E+03  0.65864270000E+03 0.  0.
    8880022    1    1    2    0    0 -0.47251770023E+03 -0.14007809321E+02  0.25317889443E+04  0.25800806397E+04  0.15294330000E+03 0.  0.
<mgrwt>
<rscale>  0 0.71731975E+03</rscale>
<asrwt>0</asrwt>
<pdfrwt beam="1">  1        2 0.43231915E+00 0.81072770E+03</pdfrwt>
<pdfrwt beam="2">  1       -2 0.10318751E+00 0.81072770E+03</pdfrwt>
<totfact> 0.18317073E+00</totfact>
</mgrwt>
</event>
<event>
 4    5  0.7289609E-008  0.7309930E+03  0.7818608E-02  0.9887006E-01
         -2   -1    0    0    0  501 -0.00000000000E+00  0.00000000000E+00  0.10986158523E+04  0.10986158523E+04  0.25500000000E-02 0.  1.
          2   -1    0    0  501    0  0.00000000000E+00 -0.00000000000E+00 -0.33909165576E+04  0.33909165576E+04  0.25500000000E-02 0. -1.
    8880023    1    1    2    0    0  0.46633622355E+02  0.31363331573E+03  0.96648112297E+03  0.12117906250E+04  0.65864270000E+03 0.  0.
    8880022    1    1    2    0    0 -0.46633622355E+02 -0.31363331573E+03 -0.32587818282E+04  0.32777417849E+04  0.15294330000E+03 0.  0.
<mgrwt>
<rscale>  0 0.60895182E+03</rscale>
<asrwt>0</asrwt>
<pdfrwt beam="1">  1        2 0.52167947E+00 0.73099299E+03</pdfrwt>
<pdfrwt beam="2">  1       -2 0.16901782E+00 0.73099299E+03</pdfrwt>
<totfact> 0.22902611E-01</totfact>
</mgrwt>
</event>
<event>
 4    5  0.7289609E-008  0.7213906E+03  0.7818608E-02  0.9917908E-01
          2   -1    0    0  501    0  0.00000000000E+00  0.00000000000E+00  0.21582638495E+04  0.21582638495E+04  0.25500000000E-02 0. -1.
         -2   -1    0    0    0  501 -0.00000000000E+00 -0.00000000000E+00 -0.65896319622E+03  0.65896319622E+03  0.25500000000E-02 0.  1.
    8880023    1    1    2    0    0  0.29011508601E+03  0.49269163858E+02 -0.44317404771E+03  0.84664494120E+03  0.65864270000E+03 0.  1.
    8880022    1    1    2    0    0 -0.29011508601E+03 -0.49269163858E+02  0.19424747010E+04  0.19705821045E+04  0.15294330000E+03 0.  0.
<mgrwt>
<rscale>  0 0.59401167E+03</rscale>
<asrwt>0</asrwt>
<pdfrwt beam="1">  1        2 0.33204059E+00 0.72139062E+03</pdfrwt>
<pdfrwt beam="2">  1       -2 0.10137896E+00 0.72139062E+03</pdfrwt>
<totfact> 0.45555258E+00</totfact>
</mgrwt>
</event>
<event>
 4    5  0.7289609E-008  0.7925416E+03  0.7818608E-02  0.9727161E-01
          2   -1    0    0  501    0  0.00000000000E+00  0.00000000000E+00  0.10175129156E+04  0.10175129156E+04  0.25500000000E-02 0. -1.
         -2   -1    0    0    0  501 -0.00000000000E+00 -0.00000000000E+00 -0.47117727079E+03  0.47117727080E+03  0.25500000000E-02 0.  1.
    8880023    1    1    2    0    0 -0.21228985199E+02 -0.44029685495E+03  0.63277596158E+03  0.10141635046E+04  0.65864270000E+03 0.  0.
    8880022    1    1    2    0    0  0.21228985199E+02  0.44029685495E+03 -0.86440316819E+02  0.47452668173E+03  0.15294330000E+03 0.  0.
<mgrwt>
<rscale>  0 0.69422423E+03</rscale>
<asrwt>0</asrwt>
<pdfrwt beam="1">  1        2 0.15654045E+00 0.79254161E+03</pdfrwt>
<pdfrwt beam="2">  1       -2 0.72488812E-01 0.79254161E+03</pdfrwt>
<totfact> 0.42772273E+01</totfact>
</mgrwt>
</event>
<event>
 4    5  0.7289609E-008  0.8235725E+03  0.7818608E-02  0.9661970E-01
          2   -1    0    0  501    0  0.00000000000E+00  0.00000000000E+00  0.16151659170E+04  0.16151659170E+04  0.25500000000E-02 0. -1.
         -2   -1    0    0    0  501 -0.00000000000E+00 -0.00000000000E+00 -0.52239566813E+03  0.52239566814E+03  0.25500000000E-02 0.  1.
    8880023    1    1    2    0    0 -0.36230367375E+03  0.33644847210E+03 -0.10741029600E+03  0.83054723185E+03  0.65864270000E+03 0.  0.
    8880022    1    1    2    0    0  0.36230367375E+03 -0.33644847210E+03  0.12001805448E+04  0.13070143532E+04  0.15294330000E+03 0.  0.
<mgrwt>
<rscale>  0 0.73326929E+03</rscale>
<asrwt>0</asrwt>
<pdfrwt beam="1">  1        2 0.24848706E+00 0.82357254E+03</pdfrwt>
<pdfrwt beam="2">  1       -2 0.80368565E-01 0.82357254E+03</pdfrwt>
<totfact> 0.15216510E+01</totfact>
</mgrwt>
</event>
<event>
 4    5  0.7289609E-008  0.9074534E+03  0.7818608E-02  0.9514171E-01
          2   -1    0    0  501    0  0.00000000000E+00  0.00000000000E+00  0.17208229553E+04  0.17208229553E+04  0.25500000000E-02 0. -1.
         -2   -1    0    0    0  501 -0.00000000000E+00 -0.00000000000E+00 -0.66326981916E+03  0.66326981916E+03  0.25500000000E-02 0.  1.
    8880023    1    1    2    0    0  0.55716314064E+03  0.28147945410E+03 -0.23777574680E+03  0.93808792786E+03  0.65864270000E+03 0.  0.
    8880022    1    1    2    0    0 -0.55716314064E+03 -0.28147945410E+03  0.12953288829E+04  0.14460048466E+04  0.15294330000E+03 0.  0.
<mgrwt>
<rscale>  0 0.83247075E+03</rscale>
<asrwt>0</asrwt>
<pdfrwt beam="1">  1        2 0.26474199E+00 0.90745339E+03</pdfrwt>
<pdfrwt beam="2">  1       -2 0.10204151E+00 0.90745339E+03</pdfrwt>
<totfact> 0.75753901E+00</totfact>
</mgrwt>
</event>
<event>
 4    5  0.7289609E-008  0.1004939E+04  0.7818608E-02  0.9375124E-01
          2   -1    0    0  501    0  0.00000000000E+00  0.00000000000E+00  0.43140887457E+04  0.43140887457E+04  0.25500000000E-02 0. -1.
         -2   -1    0    0    0  501 -0.00000000000E+00 -0.00000000000E+00 -0.11187075163E+04  0.11187075163E+04  0.25500000000E-02 0.  1.
    8880023    1    1    2    0    0  0.53096568736E+02 -0.75714825126E+03 -0.84863530425E+03  0.13153268818E+04  0.65864270000E+03 0.  0.
    8880022    1    1    2    0    0 -0.53096568736E+02  0.75714825126E+03  0.40440165336E+04  0.41174693802E+04  0.15294330000E+03 0.  0.
<mgrwt>
<rscale>  0 0.94151468E+03</rscale>
<asrwt>0</asrwt>
<pdfrwt beam="1">  1        2 0.66370597E+00 0.10049393E+04</pdfrwt>
<pdfrwt beam="2">  1       -2 0.17210885E+00 0.10049393E+04</pdfrwt>
<totfact> 0.40195475E-02</totfact>
</mgrwt>
</event>
<event>
 4    5  0.7289609E-008  0.8374914E+03  0.7818608E-02  0.9634929E-01
          2   -1    0    0  501    0  0.00000000000E+00  0.00000000000E+00  0.10782351071E+04  0.10782351071E+04  0.25500000000E-02 0. -1.
         -2   -1    0    0    0  501 -0.00000000000E+00 -0.00000000000E+00 -0.55425301019E+03  0.55425301019E+03  0.25500000000E-02 0.  1.
    8880023    1    1    2    0    0 -0.60213222456E+02  0.51376654816E+03 -0.57337984766E+02  0.83945193366E+03  0.65864270000E+03 0.  0.
    8880022    1    1    2    0    0  0.60213222456E+02 -0.51376654816E+03  0.58132008168E+03  0.79303618363E+03  0.15294330000E+03 0.  0.
<mgrwt>
<rscale>  0 0.75026888E+03</rscale>
<asrwt>0</asrwt>
<pdfrwt beam="1">  1        2 0.16588232E+00 0.83749144E+03</pdfrwt>
<pdfrwt beam="2">  1       -2 0.85269695E-01 0.83749144E+03</pdfrwt>
<totfact> 0.27117697E+01</totfact>
</mgrwt>
</event>
<event>
 4    5  0.7289609E-008  0.6616553E+03  0.7818608E-02  0.1022521E+00
         -2   -1    0    0    0  501 -0.00000000000E+00  0.00000000000E+00  0.14168614488E+03  0.14168614490E+03  0.25500000000E-02 0.  1.
          2   -1    0    0  501    0  0.00000000000E+00 -0.00000000000E+00 -0.26578718137E+04  0.26578718137E+04  0.25500000000E-02 0. -1.
    8880023    1    1    2    0    0  0.34400432967E+01 -0.62973972057E+02 -0.65497836094E+03  0.93101257490E+03  0.65864270000E+03 0.  1.
    8880022    1    1    2    0    0 -0.34400432967E+01  0.62973972057E+02 -0.18612073079E+04  0.18685453837E+04  0.15294330000E+03 0.  0.
<mgrwt>
<rscale>  0 0.46787693E+03</rscale>
<asrwt>0</asrwt>
<pdfrwt beam="1">  1        2 0.40890332E+00 0.66165532E+03</pdfrwt>
<pdfrwt beam="2">  1       -2 0.21797870E-01 0.66165532E+03</pdfrwt>
<totfact> 0.54560244E+01</totfact>
</mgrwt>
</event>
<event>
 4    5  0.7289609E-008  0.1403143E+04  0.7818608E-02  0.8981244E-01
         -2   -1    0    0    0  501 -0.00000000000E+00  0.00000000000E+00  0.22961359448E+04  0.22961359448E+04  0.25500000000E-02 0.  1.
          2   -1    0    0  501    0  0.00000000000E+00 -0.00000000000E+00 -0.88559000906E+03  0.88559000906E+03  0.25500000000E-02 0. -1.
    8880023    1    1    2    0    0 -0.72191604142E+03  0.10068949851E+04  0.15581046579E+03  0.14117674700E+04  0.65864270000E+03 0.  0.
    8880022    1    1    2    0    0  0.72191604142E+03 -0.10068949851E+04  0.12547354699E+04  0.17699584838E+04  0.15294330000E+03 0.  0.
<mgrwt>
<rscale>  0 0.13627339E+04</rscale>
<asrwt>0</asrwt>
<pdfrwt beam="1">  1        2 0.13624462E+00 0.14031431E+04</pdfrwt>
<pdfrwt beam="2">  1       -2 0.35325168E+00 0.14031431E+04</pdfrwt>
<totfact> 0.42786476E-01</totfact>
</mgrwt>
</event>
<event>
 4    5  0.7289609E-008  0.7401125E+03  0.7818608E-02  0.9859620E-01
          2   -1    0    0  501    0  0.00000000000E+00  0.00000000000E+00  0.52893269577E+03  0.52893269578E+03  0.25500000000E-02 0. -1.
         -2   -1    0    0    0  501 -0.00000000000E+00 -0.00000000000E+00 -0.14907464121E+04  0.14907464121E+04  0.25500000000E-02 0.  1.
    8880023    1    1    2    0    0 -0.33277529314E+03  0.56717546092E+02 -0.13142074907E+04  0.15082797521E+04  0.65864270000E+03 0.  0.
    8880022    1    1    2    0    0  0.33277529314E+03 -0.56717546092E+02  0.35239377442E+03  0.51139935572E+03  0.15294330000E+03 0.  0.
<mgrwt>
<rscale>  0 0.62258845E+03</rscale>
<asrwt>0</asrwt>
<pdfrwt beam="1">  1        2 0.81374262E-01 0.74011248E+03</pdfrwt>
<pdfrwt beam="2">  1       -2 0.22934560E+00 0.74011248E+03</pdfrwt>
<totfact> 0.51064620E+00</totfact>
</mgrwt>
</event>
<event>
 4    5  0.7289609E-008  0.1044424E+04  0.7818608E-02  0.9325614E-01
         -2   -1    0    0    0  501 -0.00000000000E+00  0.00000000000E+00  0.40324190352E+03  0.40324190353E+03  0.25500000000E-02 0.  1.
          2   -1    0    0  501    0  0.00000000000E+00 -0.00000000000E+00 -0.35201928029E+04  0.35201928029E+04  0.25500000000E-02 0. -1.
    8880023    1    1    2    0    0  0.50931323284E+03  0.63056506933E+03 -0.45972959980E+03  0.11411282956E+04  0.65864270000E+03 0.  1.
    8880022    1    1    2    0    0 -0.50931323284E+03 -0.63056506933E+03 -0.26572212996E+04  0.27823064108E+04  0.15294330000E+03 0.  0.
<mgrwt>
<rscale>  0 0.98458594E+03</rscale>
<asrwt>0</asrwt>
<pdfrwt beam="1">  1        2 0.54156810E+00 0.10444245E+04</pdfrwt>
<pdfrwt beam="2">  1       -2 0.62037218E-01 0.10444245E+04</pdfrwt>
<totfact> 0.19548375E+00</totfact>
</mgrwt>
</event>
<event>
 4    5  0.7289609E-008  0.9228034E+03  0.7818608E-02  0.9490374E-01
         -2   -1    0    0    0  501 -0.00000000000E+00  0.00000000000E+00  0.94659274306E+03  0.94659274306E+03  0.25500000000E-02 0.  1.
          2   -1    0    0  501    0  0.00000000000E+00 -0.00000000000E+00 -0.13520013004E+04  0.13520013004E+04  0.25500000000E-02 0. -1.
    8880023    1    1    2    0    0  0.53463317574E+03 -0.36321252704E+03  0.59484104649E+03  0.10979080331E+04  0.65864270000E+03 0.  0.
    8880022    1    1    2    0    0 -0.53463317574E+03  0.36321252704E+03 -0.10002496039E+04  0.12006860103E+04  0.15294330000E+03 0. -1.
<mgrwt>
<rscale>  0 0.84997254E+03</rscale>
<asrwt>0</asrwt>
<pdfrwt beam="1">  1        2 0.20800020E+00 0.92280343E+03</pdfrwt>
<pdfrwt beam="2">  1       -2 0.14562965E+00 0.92280343E+03</pdfrwt>
<totfact> 0.49991788E+00</totfact>
</mgrwt>
</event>
<event>
 4    5  0.7289609E-008  0.1005516E+04  0.7818608E-02  0.9374377E-01
          2   -1    0    0  501    0  0.00000000000E+00  0.00000000000E+00  0.14499953940E+04  0.14499953940E+04  0.25500000000E-02 0. -1.
         -2   -1    0    0    0  501 -0.00000000000E+00 -0.00000000000E+00 -0.11700939237E+04  0.11700939237E+04  0.25500000000E-02 0.  1.
    8880023    1    1    2    0    0 -0.45060158053E+03  0.61172675579E+03 -0.80412882943E+03  0.12875110829E+04  0.65864270000E+03 0.  1.
    8880022    1    1    2    0    0  0.45060158053E+03 -0.61172675579E+03  0.10840302997E+04  0.13325782348E+04  0.15294330000E+03 0.  0.
<mgrwt>
<rscale>  0 0.94214699E+03</rscale>
<asrwt>0</asrwt>
<pdfrwt beam="1">  1        2 0.22307621E+00 0.10055156E+04</pdfrwt>
<pdfrwt beam="2">  1       -2 0.18001445E+00 0.10055156E+04</pdfrwt>
<totfact> 0.24362640E+00</totfact>
</mgrwt>
</event>
<event>
 4    5  0.7289609E-008  0.9392015E+03  0.7818608E-02  0.9465824E-01
          2   -1    0    0  501    0  0.00000000000E+00  0.00000000000E+00  0.78959277938E+03  0.78959277939E+03  0.25500000000E-02 0. -1.
         -2   -1    0    0    0  501 -0.00000000000E+00 -0.00000000000E+00 -0.11054808732E+04  0.11054808732E+04  0.25500000000E-02 0.  1.
    8880023    1    1    2    0    0 -0.60110726797E+03 -0.29488859995E+03  0.28608749959E+03  0.98180726096E+03  0.65864270000E+03 0.  0.
    8880022    1    1    2    0    0  0.60110726797E+03  0.29488859995E+03 -0.60197559338E+03  0.91326639160E+03  0.15294330000E+03 0.  0.
<mgrwt>
<rscale>  0 0.86851058E+03</rscale>
<asrwt>0</asrwt>
<pdfrwt beam="1">  1        2 0.12147581E+00 0.93920149E+03</pdfrwt>
<pdfrwt beam="2">  1       -2 0.17007398E+00 0.93920149E+03</pdfrwt>
<totfact> 0.74428398E+00</totfact>
</mgrwt>
</event>
<event>
 4    5  0.7289609E-008  0.9670964E+03  0.7818608E-02  0.9425931E-01
          2   -1    0    0  501    0  0.00000000000E+00  0.00000000000E+00  0.60932957291E+03  0.60932957292E+03  0.25500000000E-02 0. -1.
         -2   -1    0    0    0  501 -0.00000000000E+00 -0.00000000000E+00 -0.13884682024E+04  0.13884682024E+04  0.25500000000E-02 0.  1.
    8880023    1    1    2    0    0 -0.70770030046E+03 -0.25009126216E+02 -0.82597732712E+03  0.12718152078E+04  0.65864270000E+03 0.  1.
    8880022    1    1    2    0    0  0.70770030046E+03  0.25009126216E+02  0.46838697656E+02  0.72598256747E+03  0.15294330000E+03 0.  0.
<mgrwt>
<rscale>  0 0.89972009E+03</rscale>
<asrwt>0</asrwt>
<pdfrwt beam="1">  1        2 0.93743011E-01 0.96709636E+03</pdfrwt>
<pdfrwt beam="2">  1       -2 0.21361049E+00 0.96709636E+03</pdfrwt>
<totfact> 0.52749466E+00</totfact>
</mgrwt>
</event>
<event>
 4    5  0.9608437E-008  0.8827217E+03  0.7818608E-02  0.9554358E-01
         -2   -1    0    0    0  501 -0.00000000000E+00  0.00000000000E+00  0.10515882919E+04  0.10515882919E+04  0.25500000000E-02 0.  1.
          2   -1    0    0  501    0  0.00000000000E+00 -0.00000000000E+00 -0.24870192727E+04  0.24870192727E+04  0.25500000000E-02 0. -1.
    8880023    1    1    2    0    0  0.30677675362E+03  0.50127376070E+03  0.81880352118E+03  0.12040086263E+04  0.65864270000E+03 0.  1.
    8880022    1    1    2    0    0 -0.30677675362E+03 -0.50127376070E+03 -0.22542345020E+04  0.23345989383E+04  0.15294330000E+03 0.  0.
<mgrwt>
<rscale>  0 0.80392146E+03</rscale>
<asrwt>0</asrwt>
<pdfrwt beam="1">  1        2 0.38261835E+00 0.88272168E+03</pdfrwt>
<pdfrwt beam="2">  1       -2 0.16178281E+00 0.88272168E+03</pdfrwt>
<totfact> 0.88776787E-01</totfact>
</mgrwt>
</event>
<event>
 4    5  0.7289609E-008  0.7196211E+03  0.7818608E-02  0.9923870E-01
          2   -1    0    0  501    0  0.00000000000E+00  0.00000000000E+00  0.50379534644E+03  0.50379534645E+03  0.25500000000E-02 0. -1.
         -2   -1    0    0    0  501 -0.00000000000E+00 -0.00000000000E+00 -0.13604481554E+04  0.13604481554E+04  0.25500000000E-02 0.  1.
    8880023    1    1    2    0    0  0.24088556870E+03  0.16130241305E+03 -0.11938675627E+04  0.13939778654E+04  0.65864270000E+03 0.  1.
    8880022    1    1    2    0    0 -0.24088556870E+03 -0.16130241305E+03  0.33721475375E+03  0.47026563645E+03  0.15294330000E+03 0.  0.
<mgrwt>
<rscale>  0 0.59118259E+03</rscale>
<asrwt>0</asrwt>
<pdfrwt beam="1">  1        2 0.77506977E-01 0.71962110E+03</pdfrwt>
<pdfrwt beam="2">  1       -2 0.20929971E+00 0.71962110E+03</pdfrwt>
<totfact> 0.72361035E+00</totfact>
</mgrwt>
</event>
<event>
 4    5  0.7289609E-008  0.1027382E+04  0.7818608E-02  0.9346579E-01
          2   -1    0    0  501    0  0.00000000000E+00  0.00000000000E+00  0.24409088293E+04  0.24409088293E+04  0.25500000000E-02 0. -1.
         -2   -1    0    0    0  501 -0.00000000000E+00 -0.00000000000E+00 -0.35252165295E+03  0.35252165296E+03  0.25500000000E-02 0.  1.
    8880023    1    1    2    0    0 -0.78244014872E+03 -0.97419639815E+02  0.94333285561E+03  0.13947724744E+04  0.65864270000E+03 0.  1.
    8880022    1    1    2    0    0  0.78244014872E+03  0.97419639815E+02  0.11450543207E+04  0.13986580078E+04  0.15294330000E+03 0. -1.
<mgrwt>
<rscale>  0 0.96605499E+03</rscale>
<asrwt>0</asrwt>
<pdfrwt beam="1">  1        2 0.37552445E+00 0.10273818E+04</pdfrwt>
<pdfrwt beam="2">  1       -2 0.54234098E-01 0.10273818E+04</pdfrwt>
<totfact> 0.12147144E+01</totfact>
</mgrwt>
</event>
<event>
 4    5  0.7289609E-008  0.9231276E+03  0.7818608E-02  0.9489880E-01
          2   -1    0    0  501    0  0.00000000000E+00  0.00000000000E+00  0.10121248327E+04  0.10121248327E+04  0.25500000000E-02 0. -1.
         -2   -1    0    0    0  501 -0.00000000000E+00 -0.00000000000E+00 -0.93871906423E+03  0.93871906423E+03  0.25500000000E-02 0.  1.
    8880023    1    1    2    0    0  0.59181663866E+03  0.26097415830E+03 -0.52028946232E+03  0.10596536113E+04  0.65864270000E+03 0.  1.
    8880022    1    1    2    0    0 -0.59181663866E+03 -0.26097415830E+03  0.59369523077E+03  0.89119028560E+03  0.15294330000E+03 0.  0.
<mgrwt>
<rscale>  0 0.85034059E+03</rscale>
<asrwt>0</asrwt>
<pdfrwt beam="1">  1        2 0.15571151E+00 0.92312765E+03</pdfrwt>
<pdfrwt beam="2">  1       -2 0.14441832E+00 0.92312765E+03</pdfrwt>
<totfact> 0.81832155E+00</totfact>
</mgrwt>
</event>
<event>
 4    5  0.7289609E-008  0.9010519E+03  0.7818608E-02  0.9524345E-01
          2   -1    0    0  501    0  0.00000000000E+00  0.00000000000E+00  0.43465937877E+04  0.43465937877E+04  0.25500000000E-02 0. -1.
         -2   -1    0    0    0  501 -0.00000000000E+00 -0.00000000000E+00 -0.76462435891E+03  0.76462435892E+03  0.25500000000E-02 0.  1.
    8880023    1    1    2    0    0  0.22011055150E+03  0.57413904035E+03 -0.46568059170E+03  0.10142745744E+04  0.65864270000E+03 0.  0.
    8880022    1    1    2    0    0 -0.22011055150E+03 -0.57413904035E+03  0.40476500205E+04  0.40969435722E+04  0.15294330000E+03 0.  0.
<mgrwt>
<rscale>  0 0.82512509E+03</rscale>
<asrwt>0</asrwt>
<pdfrwt beam="1">  1        2 0.66870674E+00 0.90105188E+03</pdfrwt>
<pdfrwt beam="2">  1       -2 0.11763452E+00 0.90105188E+03</pdfrwt>
<totfact> 0.10452829E-01</totfact>
</mgrwt>
</event>
<event>
 4    5  0.7289609E-008  0.1036134E+04  0.7818608E-02  0.9335739E-01
         -2   -1    0    0    0  501 -0.00000000000E+00  0.00000000000E+00  0.12465548511E+04  0.12465548511E+04  0.25500000000E-02 0.  1.
          2   -1    0    0  501    0  0.00000000000E+00 -0.00000000000E+00 -0.18803865448E+04  0.18803865448E+04  0.25500000000E-02 0. -1.
    8880023    1    1    2    0    0  0.50421100556E+03 -0.62091387324E+03  0.91160987145E+03  0.13800744690E+04  0.65864270000E+03 0.  1.
    8880022    1    1    2    0    0 -0.50421100556E+03  0.62091387324E+03 -0.15454415651E+04  0.17468669269E+04  0.15294330000E+03 0.  0.
<mgrwt>
<rscale>  0 0.97558177E+03</rscale>
<asrwt>0</asrwt>
<pdfrwt beam="1">  1        2 0.28929024E+00 0.10361337E+04</pdfrwt>
<pdfrwt beam="2">  1       -2 0.19177767E+00 0.10361337E+04</pdfrwt>
<totfact> 0.11642994E+00</totfact>
</mgrwt>
</event>
<event>
 4    5  0.7289609E-008  0.7702273E+03  0.7818608E-02  0.9779315E-01
         -2   -1    0    0    0  501 -0.00000000000E+00  0.00000000000E+00  0.11669930900E+04  0.11669930900E+04  0.25500000000E-02 0.  1.
          2   -1    0    0  501    0  0.00000000000E+00 -0.00000000000E+00 -0.28735742116E+04  0.28735742116E+04  0.25500000000E-02 0. -1.
    8880023    1    1    2    0    0 -0.39689638496E+03 -0.43739667797E+02  0.10214102705E+04  0.12792689498E+04  0.65864270000E+03 0.  0.
    8880022    1    1    2    0    0  0.39689638496E+03  0.43739667797E+02 -0.27279913921E+04  0.27612983517E+04  0.15294330000E+03 0.  0.
<mgrwt>
<rscale>  0 0.66484526E+03</rscale>
<asrwt>0</asrwt>
<pdfrwt beam="1">  1        2 0.44208834E+00 0.77022731E+03</pdfrwt>
<pdfrwt beam="2">  1       -2 0.17953740E+00 0.77022731E+03</pdfrwt>
<totfact> 0.40497441E-01</totfact>
</mgrwt>
</event>
<event>
 4    5  0.7289609E-008  0.7177071E+03  0.7818608E-02  0.9930422E-01
          2   -1    0    0  501    0  0.00000000000E+00  0.00000000000E+00  0.11064030710E+04  0.11064030710E+04  0.25500000000E-02 0. -1.
         -2   -1    0    0    0  501 -0.00000000000E+00 -0.00000000000E+00 -0.95264122203E+03  0.95264122204E+03  0.25500000000E-02 0.  1.
    8880023    1    1    2    0    0  0.27881675565E+03  0.59619512261E+02 -0.78645529311E+03  0.10647137661E+04  0.65864270000E+03 0.  0.
    8880022    1    1    2    0    0 -0.27881675565E+03 -0.59619512261E+02  0.94021714209E+03  0.99433052692E+03  0.15294330000E+03 0. -1.
<mgrwt>
<rscale>  0 0.58809291E+03</rscale>
<asrwt>0</asrwt>
<pdfrwt beam="1">  1        2 0.17021586E+00 0.71770710E+03</pdfrwt>
<pdfrwt beam="2">  1       -2 0.14656019E+00 0.71770710E+03</pdfrwt>
<totfact> 0.70432266E+00</totfact>
</mgrwt>
</event>
<event>
 4    5  0.7289609E-008  0.1103649E+04  0.7818608E-02  0.9257004E-01
         -2   -1    0    0    0  501 -0.00000000000E+00  0.00000000000E+00  0.57595586246E+03  0.57595586247E+03  0.25500000000E-02 0.  1.
          2   -1    0    0  501    0  0.00000000000E+00 -0.00000000000E+00 -0.20812257959E+04  0.20812257960E+04  0.25500000000E-02 0. -1.
    8880023    1    1    2    0    0  0.43739068113E+03  0.77001312033E+03 -0.28168239994E+03  0.11390285309E+04  0.65864270000E+03 0.  1.
    8880022    1    1    2    0    0 -0.43739068113E+03 -0.77001312033E+03 -0.12235875335E+04  0.15181531276E+04  0.15294330000E+03 0.  0.
<mgrwt>
<rscale>  0 0.10483934E+04</rscale>
<asrwt>0</asrwt>
<pdfrwt beam="1">  1        2 0.32018858E+00 0.11036490E+04</pdfrwt>
<pdfrwt beam="2">  1       -2 0.88608596E-01 0.11036490E+04</pdfrwt>
<totfact> 0.65339052E+00</totfact>
</mgrwt>
</event>
<event>
 4    5  0.7289609E-008  0.6927057E+03  0.7818608E-02  0.1002892E+00
          2   -1    0    0  501    0  0.00000000000E+00  0.00000000000E+00  0.25694764561E+04  0.25694764561E+04  0.25500000000E-02 0. -1.
         -2   -1    0    0    0  501 -0.00000000000E+00 -0.00000000000E+00 -0.62700243903E+03  0.62700243903E+03  0.25500000000E-02 0.  1.
    8880023    1    1    2    0    0  0.18152202380E+02  0.21377887871E+03 -0.42611881172E+03  0.81327631184E+03  0.65864270000E+03 0.  1.
    8880022    1    1    2    0    0 -0.18152202380E+02 -0.21377887871E+03  0.23685928288E+04  0.23832025833E+04  0.15294330000E+03 0.  0.
<mgrwt>
<rscale>  0 0.54400029E+03</rscale>
<asrwt>0</asrwt>
<pdfrwt beam="1">  1        2 0.39530407E+00 0.69270565E+03</pdfrwt>
<pdfrwt beam="2">  1       -2 0.96461913E-01 0.69270565E+03</pdfrwt>
<totfact> 0.30360415E+00</totfact>
</mgrwt>
</event>
<event>
 4    5  0.7289609E-008  0.1056446E+04  0.7818608E-02  0.9311172E-01
         -2   -1    0    0    0  501 -0.00000000000E+00  0.00000000000E+00  0.89284873899E+03  0.89284873900E+03  0.25500000000E-02 0.  1.
          2   -1    0    0  501    0  0.00000000000E+00 -0.00000000000E+00 -0.23472514418E+04  0.23472514418E+04  0.25500000000E-02 0. -1.
    8880023    1    1    2    0    0 -0.56728191212E+03  0.60038310316E+03  0.45790973133E+03  0.11514165913E+04  0.65864270000E+03 0.  0.
    8880022    1    1    2    0    0  0.56728191212E+03 -0.60038310316E+03 -0.19123124342E+04  0.20886835896E+04  0.15294330000E+03 0.  0.
<mgrwt>
<rscale>  0 0.99760826E+03</rscale>
<asrwt>0</asrwt>
<pdfrwt beam="1">  1        2 0.36111560E+00 0.10564463E+04</pdfrwt>
<pdfrwt beam="2">  1       -2 0.13736135E+00 0.10564463E+04</pdfrwt>
<totfact> 0.16005220E+00</totfact>
</mgrwt>
</event>
<event>
 4    5  0.7289609E-008  0.7428183E+03  0.7818608E-02  0.9851812E-01
         -2   -1    0    0    0  501 -0.00000000000E+00  0.00000000000E+00  0.11968467401E+04  0.11968467401E+04  0.25500000000E-02 0.  1.
          2   -1    0    0  501    0  0.00000000000E+00 -0.00000000000E+00 -0.16697889948E+04  0.16697889948E+04  0.25500000000E-02 0. -1.
    8880023    1    1    2    0    0  0.29444763332E+01  0.34345335533E+03  0.10565886374E+04  0.12915721552E+04  0.65864270000E+03 0.  1.
    8880022    1    1    2    0    0 -0.29444763332E+01 -0.34345335533E+03 -0.15295308921E+04  0.15750635797E+04  0.15294330000E+03 0.  0.
<mgrwt>
<rscale>  0 0.62654603E+03</rscale>
<asrwt>0</asrwt>
<pdfrwt beam="1">  1        2 0.25689061E+00 0.74281834E+03</pdfrwt>
<pdfrwt beam="2">  1       -2 0.18413027E+00 0.74281834E+03</pdfrwt>
<totfact> 0.17921116E+00</totfact>
</mgrwt>
</event>
<event>
 4    5  0.7289609E-008  0.2050269E+04  0.7818608E-02  0.8595432E-01
          2   -1    0    0  501    0  0.00000000000E+00  0.00000000000E+00  0.20624132666E+04  0.20624132666E+04  0.25500000000E-02 0. -1.
         -2   -1    0    0    0  501 -0.00000000000E+00 -0.00000000000E+00 -0.21894292966E+04  0.21894292966E+04  0.25500000000E-02 0.  1.
    8880023    1    1    2    0    0  0.17567442390E+04  0.82682785678E+03  0.65609530093E+03  0.21526880583E+04  0.65864270000E+03 0.  1.
    8880022    1    1    2    0    0 -0.17567442390E+04 -0.82682785678E+03 -0.78311133090E+03  0.20991545050E+04  0.15294330000E+03 0.  0.
<mgrwt>
<rscale>  0 0.20241082E+04</rscale>
<asrwt>0</asrwt>
<pdfrwt beam="1">  1        2 0.31729435E+00 0.20502695E+04</pdfrwt>
<pdfrwt beam="2">  1       -2 0.33683528E+00 0.20502695E+04</pdfrwt>
<totfact> 0.10263391E-01</totfact>
</mgrwt>
</event>
<event>
 4    5  0.7289609E-008  0.1150843E+04  0.7818608E-02  0.9206454E-01
         -2   -1    0    0    0  501 -0.00000000000E+00  0.00000000000E+00  0.15447856252E+04  0.15447856252E+04  0.25500000000E-02 0.  1.
          2   -1    0    0  501    0  0.00000000000E+00 -0.00000000000E+00 -0.85443650714E+03  0.85443650714E+03  0.25500000000E-02 0. -1.
    8880023    1    1    2    0    0 -0.22183858928E+03  0.91728810899E+03  0.84897876288E+03  0.14301066326E+04  0.65864270000E+03 0.  0.
    8880022    1    1    2    0    0  0.22183858928E+03 -0.91728810899E+03 -0.15862964482E+03  0.96911549973E+03  0.15294330000E+03 0.  0.
<mgrwt>
<rscale>  0 0.10987064E+04</rscale>
<asrwt>0</asrwt>
<pdfrwt beam="1">  1        2 0.13145177E+00 0.11508432E+04</pdfrwt>
<pdfrwt beam="2">  1       -2 0.23765933E+00 0.11508432E+04</pdfrwt>
<totfact> 0.23652145E+00</totfact>
</mgrwt>
</event>
<event>
 4    5  0.7289609E-008  0.8887446E+03  0.7818608E-02  0.9544347E-01
         -2   -1    0    0    0  501 -0.00000000000E+00  0.00000000000E+00  0.81306068307E+03  0.81306068308E+03  0.25500000000E-02 0.  1.
          2   -1    0    0  501    0  0.00000000000E+00 -0.00000000000E+00 -0.15824332746E+04  0.15824332746E+04  0.25500000000E-02 0. -1.
    8880023    1    1    2    0    0  0.16533702548E+03 -0.57334147482E+03  0.47447721332E+03  0.10074699057E+04  0.65864270000E+03 0.  1.
    8880022    1    1    2    0    0 -0.16533702548E+03  0.57334147482E+03 -0.12438498048E+04  0.13880240519E+04  0.15294330000E+03 0.  0.
<mgrwt>
<rscale>  0 0.81091780E+03</rscale>
<asrwt>0</asrwt>
<pdfrwt beam="1">  1        2 0.24345127E+00 0.88874461E+03</pdfrwt>
<pdfrwt beam="2">  1       -2 0.12508626E+00 0.88874461E+03</pdfrwt>
<totfact> 0.55011605E+00</totfact>
</mgrwt>
</event>
<event>
 4    5  0.7289609E-008  0.6672144E+03  0.7818608E-02  0.1017744E+00
          2   -1    0    0  501    0  0.00000000000E+00  0.00000000000E+00  0.48757257431E+03  0.48757257432E+03  0.25500000000E-02 0. -1.
         -2   -1    0    0    0  501 -0.00000000000E+00 -0.00000000000E+00 -0.22729074905E+04  0.22729074905E+04  0.25500000000E-02 0.  1.
    8880023    1    1    2    0    0  0.99967294157E+02 -0.37032602006E+02 -0.22036809297E+04  0.23024736089E+04  0.65864270000E+03 0.  1.
    8880022    1    1    2    0    0 -0.99967294157E+02  0.37032602006E+02  0.41834601358E+03  0.45800645585E+03  0.15294330000E+03 0.  0.
<mgrwt>
<rscale>  0 0.48509703E+03</rscale>
<asrwt>0</asrwt>
<pdfrwt beam="1">  1        2 0.75011167E-01 0.66721442E+03</pdfrwt>
<pdfrwt beam="2">  1       -2 0.34967807E+00 0.66721442E+03</pdfrwt>
<totfact> 0.10609777E+00</totfact>
</mgrwt>
</event>
<event>
 4    5  0.7289609E-008  0.7449865E+03  0.7818608E-02  0.9845653E-01
          2   -1    0    0  501    0  0.00000000000E+00  0.00000000000E+00  0.17286120339E+04  0.17286120339E+04  0.25500000000E-02 0. -1.
         -2   -1    0    0    0  501 -0.00000000000E+00 -0.00000000000E+00 -0.68010571118E+03  0.68010571118E+03  0.25500000000E-02 0.  1.
    8880023    1    1    2    0    0 -0.23468842178E+03  0.25713040943E+03 -0.44486060008E+03  0.86770148239E+03  0.65864270000E+03 0.  0.
    8880022    1    1    2    0    0  0.23468842178E+03 -0.25713040943E+03  0.14933669228E+04  0.15410162627E+04  0.15294330000E+03 0.  0.
<mgrwt>
<rscale>  0 0.62969062E+03</rscale>
<asrwt>0</asrwt>
<pdfrwt beam="1">  1        2 0.26594031E+00 0.74498652E+03</pdfrwt>
<pdfrwt beam="2">  1       -2 0.10463165E+00 0.74498652E+03</pdfrwt>
<totfact> 0.72206944E+00</totfact>
</mgrwt>
</event>
<event>
 4    5  0.7289609E-008  0.1077788E+04  0.7818608E-02  0.9286199E-01
         -2   -1    0    0    0  501 -0.00000000000E+00  0.00000000000E+00  0.56502376184E+03  0.56502376185E+03  0.25500000000E-02 0.  1.
          2   -1    0    0  501    0  0.00000000000E+00 -0.00000000000E+00 -0.33155377506E+04  0.33155377506E+04  0.25500000000E-02 0. -1.
    8880023    1    1    2    0    0 -0.16325662416E+03 -0.83735564974E+03 -0.88974778422E+02  0.10814545422E+04  0.65864270000E+03 0.  1.
    8880022    1    1    2    0    0  0.16325662416E+03  0.83735564974E+03 -0.26615392104E+04  0.27991069702E+04  0.15294330000E+03 0.  0.
<mgrwt>
<rscale>  0 0.10206343E+04</rscale>
<asrwt>0</asrwt>
<pdfrwt beam="1">  1        2 0.51008272E+00 0.10777882E+04</pdfrwt>
<pdfrwt beam="2">  1       -2 0.86926734E-01 0.10777882E+04</pdfrwt>
<totfact> 0.12651903E+00</totfact>
</mgrwt>
</event>
<event>
 4    5  0.7289609E-008  0.7986440E+03  0.7818608E-02  0.9713736E-01
         -2   -1    0    0    0  501 -0.00000000000E+00  0.00000000000E+00  0.94929120277E+03  0.94929120278E+03  0.25500000000E-02 0.  1.
          2   -1    0    0  501    0  0.00000000000E+00 -0.00000000000E+00 -0.16921134436E+04  0.16921134436E+04  0.25500000000E-02 0. -1.
    8880023    1    1    2    0    0  0.40057922967E+03  0.20870624699E+03  0.73694048318E+03  0.10866984397E+04  0.65864270000E+03 0.  1.
    8880022    1    1    2    0    0 -0.40057922967E+03 -0.20870624699E+03 -0.14797627240E+04  0.15547062067E+04  0.15294330000E+03 0.  0.
<mgrwt>
<rscale>  0 0.70204830E+03</rscale>
<asrwt>0</asrwt>
<pdfrwt beam="1">  1        2 0.26032514E+00 0.79864399E+03</pdfrwt>
<pdfrwt beam="2">  1       -2 0.14604480E+00 0.79864399E+03</pdfrwt>
<totfact> 0.32565993E+00</totfact>
</mgrwt>
</event>
<event>
 4    5  0.7289609E-008  0.8366535E+03  0.7818608E-02  0.9636523E-01
          2   -1    0    0  501    0  0.00000000000E+00  0.00000000000E+00  0.10524205449E+04  0.10524205449E+04  0.25500000000E-02 0. -1.
         -2   -1    0    0    0  501 -0.00000000000E+00 -0.00000000000E+00 -0.51541781412E+03  0.51541781413E+03  0.25500000000E-02 0.  1.
    8880023    1    1    2    0    0  0.51084055070E+03  0.72255603397E+02  0.43648882430E+02  0.83779136524E+03  0.65864270000E+03 0.  0.
    8880022    1    1    2    0    0 -0.51084055070E+03 -0.72255603397E+02  0.49335384838E+03  0.73004699382E+03  0.15294330000E+03 0.  1.
<mgrwt>
<rscale>  0 0.74925310E+03</rscale>
<asrwt>0</asrwt>
<pdfrwt beam="1">  1        2 0.16191085E+00 0.83665354E+03</pdfrwt>
<pdfrwt beam="2">  1       -2 0.79295050E-01 0.83665354E+03</pdfrwt>
<totfact> 0.33175769E+01</totfact>
</mgrwt>
</event>
<event>
 4    5  0.7289609E-008  0.7834672E+03  0.7818608E-02  0.9747755E-01
         -2   -1    0    0    0  501 -0.00000000000E+00  0.00000000000E+00  0.49071561680E+03  0.49071561681E+03  0.25500000000E-02 0.  1.
          2   -1    0    0  501    0  0.00000000000E+00 -0.00000000000E+00 -0.13810859485E+04  0.13810859485E+04  0.25500000000E-02 0. -1.
    8880023    1    1    2    0    0  0.42427628949E+03  0.55983470521E+00  0.93948562442E+02  0.78907998447E+03  0.65864270000E+03 0.  0.
    8880022    1    1    2    0    0 -0.42427628949E+03 -0.55983470521E+00 -0.98431889411E+03  0.10827215808E+04  0.15294330000E+03 0.  0.
<mgrwt>
<rscale>  0 0.68243315E+03</rscale>
<asrwt>0</asrwt>
<pdfrwt beam="1">  1        2 0.21247476E+00 0.78346722E+03</pdfrwt>
<pdfrwt beam="2">  1       -2 0.75494711E-01 0.78346722E+03</pdfrwt>
<totfact> 0.23765714E+01</totfact>
</mgrwt>
</event>
<event>
 4    5  0.7289609E-008  0.1210927E+04  0.7818608E-02  0.9146574E-01
          2   -1    0    0  501    0  0.00000000000E+00  0.00000000000E+00  0.16945734635E+04  0.16945734635E+04  0.25500000000E-02 0. -1.
         -2   -1    0    0    0  501 -0.00000000000E+00 -0.00000000000E+00 -0.90045926839E+03  0.90045926840E+03  0.25500000000E-02 0.  1.
    8880023    1    1    2    0    0  0.34258580207E+03 -0.95664401233E+03 -0.12371784273E+03  0.12172300970E+04  0.65864270000E+03 0.  0.
    8880022    1    1    2    0    0 -0.34258580207E+03  0.95664401233E+03  0.91783203784E+03  0.13778026349E+04  0.15294330000E+03 0.  0.
<mgrwt>
<rscale>  0 0.11622310E+04</rscale>
<asrwt>0</asrwt>
<pdfrwt beam="1">  1        2 0.26070361E+00 0.12109265E+04</pdfrwt>
<pdfrwt beam="2">  1       -2 0.13853220E+00 0.12109265E+04</pdfrwt>
<totfact> 0.35434524E+00</totfact>
</mgrwt>
</event>
<event>
 4    5  0.7289609E-008  0.1532761E+04  0.7818608E-02  0.8886842E-01
          2   -1    0    0  501    0  0.00000000000E+00  0.00000000000E+00  0.24569050088E+04  0.24569050088E+04  0.25500000000E-02 0. -1.
         -2   -1    0    0    0  501 -0.00000000000E+00 -0.00000000000E+00 -0.13203918434E+04  0.13203918434E+04  0.25500000000E-02 0.  1.
    8880023    1    1    2    0    0 -0.11228210049E+04  0.80920884189E+03 -0.51512677045E+03  0.16170070361E+04  0.65864270000E+03 0.  0.
    8880022    1    1    2    0    0  0.11228210049E+04 -0.80920884189E+03  0.16516399359E+04  0.21602898161E+04  0.15294330000E+03 0.  0.
<mgrwt>
<rscale>  0 0.14964124E+04</rscale>
<asrwt>0</asrwt>
<pdfrwt beam="1">  1        2 0.37798538E+00 0.15327610E+04</pdfrwt>
<pdfrwt beam="2">  1       -2 0.20313721E+00 0.15327610E+04</pdfrwt>
<totfact> 0.43772167E-01</totfact>
</mgrwt>
</event>
<event>
 4    5  0.7289609E-008  0.1553835E+04  0.7818608E-02  0.8872528E-01
         -2   -1    0    0    0  501 -0.00000000000E+00  0.00000000000E+00  0.15898718082E+04  0.15898718082E+04  0.25500000000E-02 0.  1.
          2   -1    0    0  501    0  0.00000000000E+00 -0.00000000000E+00 -0.13873527501E+04  0.13873527501E+04  0.25500000000E-02 0. -1.
    8880023    1    1    2    0    0  0.72614118322E+03 -0.12055336231E+04  0.14200736356E+03  0.15603104281E+04  0.65864270000E+03 0.  0.
    8880022    1    1    2    0    0 -0.72614118322E+03  0.12055336231E+04  0.60511694513E+02  0.14169141303E+04  0.15294330000E+03 0.  0.
<mgrwt>
<rscale>  0 0.15180652E+04</rscale>
<asrwt>0</asrwt>
<pdfrwt beam="1">  1        2 0.21343888E+00 0.15538348E+04</pdfrwt>
<pdfrwt beam="2">  1       -2 0.24459566E+00 0.15538348E+04</pdfrwt>
<totfact> 0.95674381E-01</totfact>
</mgrwt>
</event>
<event>
 4    5  0.7289609E-008  0.1179610E+04  0.7818608E-02  0.9177202E-01
         -2   -1    0    0    0  501 -0.00000000000E+00  0.00000000000E+00  0.99031179336E+03  0.99031179336E+03  0.25500000000E-02 0.  1.
          2   -1    0    0  501    0  0.00000000000E+00 -0.00000000000E+00 -0.18690341587E+04  0.18690341587E+04  0.25500000000E-02 0. -1.
    8880023    1    1    2    0    0  0.68714715363E+03 -0.69677745883E+03  0.39666412847E+03  0.12445170449E+04  0.65864270000E+03 0.  0.
    8880022    1    1    2    0    0 -0.68714715363E+03  0.69677745883E+03 -0.12753864938E+04  0.16148289072E+04  0.15294330000E+03 0.  0.
<mgrwt>
<rscale>  0 0.11291872E+04</rscale>
<asrwt>0</asrwt>
<pdfrwt beam="1">  1        2 0.28754372E+00 0.11796102E+04</pdfrwt>
<pdfrwt beam="2">  1       -2 0.15235566E+00 0.11796102E+04</pdfrwt>
<totfact> 0.22134184E+00</totfact>
</mgrwt>
</event>
<event>
 4    5  0.7289609E-008  0.7071976E+03  0.7818608E-02  0.9968558E-01
         -2   -1    0    0    0  501 -0.00000000000E+00  0.00000000000E+00  0.53917587061E+03  0.53917587061E+03  0.25500000000E-02 0.  1.
          2   -1    0    0  501    0  0.00000000000E+00 -0.00000000000E+00 -0.19874447489E+04  0.19874447489E+04  0.25500000000E-02 0. -1.
    8880023    1    1    2    0    0 -0.22821632691E+03 -0.11931304802E+03  0.28881812626E+03  0.76390078650E+03  0.65864270000E+03 0.  1.
    8880022    1    1    2    0    0  0.22821632691E+03  0.11931304802E+03 -0.17370870045E+04  0.17627198330E+04  0.15294330000E+03 0.  0.
<mgrwt>
<rscale>  0 0.57050661E+03</rscale>
<asrwt>0</asrwt>
<pdfrwt beam="1">  1        2 0.30576073E+00 0.70719764E+03</pdfrwt>
<pdfrwt beam="2">  1       -2 0.82950135E-01 0.70719764E+03</pdfrwt>
<totfact> 0.90128205E+00</totfact>
</mgrwt>
</event>
<event>
 4    5  0.7289609E-008  0.6896025E+03  0.7818608E-02  0.1004342E+00
         -2   -1    0    0    0  501 -0.00000000000E+00  0.00000000000E+00  0.96552565396E+03  0.96552565396E+03  0.25500000000E-02 0.  1.
          2   -1    0    0  501    0  0.00000000000E+00 -0.00000000000E+00 -0.33872397947E+03  0.33872397948E+03  0.25500000000E-02 0. -1.
    8880023    1    1    2    0    0  0.80148642754E+02  0.18792977797E+03  0.75171230352E+03  0.10201093078E+04  0.65864270000E+03 0.  1.
    8880022    1    1    2    0    0 -0.80148642754E+02 -0.18792977797E+03 -0.12491062903E+03  0.28414032562E+03  0.15294330000E+03 0.  0.
<mgrwt>
<rscale>  0 0.53786627E+03</rscale>
<asrwt>0</asrwt>
<pdfrwt beam="1">  1        2 0.52111382E-01 0.68960250E+03</pdfrwt>
<pdfrwt beam="2">  1       -2 0.14854241E+00 0.68960250E+03</pdfrwt>
<totfact> 0.29968685E+01</totfact>
</mgrwt>
</event>
<event>
 4    5  0.7289609E-008  0.8408684E+03  0.7818608E-02  0.9628545E-01
          2   -1    0    0  501    0  0.00000000000E+00  0.00000000000E+00  0.26115845360E+04  0.26115845360E+04  0.25500000000E-02 0. -1.
         -2   -1    0    0    0  501 -0.00000000000E+00 -0.00000000000E+00 -0.61458944657E+03  0.61458944658E+03  0.25500000000E-02 0.  1.
    8880023    1    1    2    0    0  0.76876468094E+02  0.51704875036E+03 -0.27897868110E+03  0.88593945186E+03  0.65864270000E+03 0.  0.
    8880022    1    1    2    0    0 -0.76876468094E+02 -0.51704875036E+03  0.22759737706E+04  0.23402345307E+04  0.15294330000E+03 0.  0.
<mgrwt>
<rscale>  0 0.75435351E+03</rscale>
<asrwt>0</asrwt>
<pdfrwt beam="1">  1        2 0.40178225E+00 0.84086837E+03</pdfrwt>
<pdfrwt beam="2">  1       -2 0.94552220E-01 0.84086837E+03</pdfrwt>
<totfact> 0.29265080E+00</totfact>
</mgrwt>
</event>
<event>
 4    5  0.7289609E-008  0.2127916E+04  0.7818608E-02  0.8560014E-01
          2   -1    0    0  501    0  0.00000000000E+00  0.00000000000E+00  0.29694996754E+04  0.29694996754E+04  0.25500000000E-02 0. -1.
         -2   -1    0    0    0  501 -0.00000000000E+00 -0.00000000000E+00 -0.19157520161E+04  0.19157520161E+04  0.25500000000E-02 0.  1.
    8880023    1    1    2    0    0  0.15166723971E+04  0.13393735345E+04 -0.66137336577E+03  0.22283270766E+04  0.65864270000E+03 0.  0.
    8880022    1    1    2    0    0 -0.15166723971E+04 -0.13393735345E+04  0.17151210251E+04  0.26569246148E+04  0.15294330000E+03 0.  0.
<mgrwt>
<rscale>  0 0.21027929E+04</rscale>
<asrwt>0</asrwt>
<pdfrwt beam="1">  1        2 0.45684610E+00 0.21279161E+04</pdfrwt>
<pdfrwt beam="2">  1       -2 0.29473108E+00 0.21279161E+04</pdfrwt>
<totfact> 0.54402180E-02</totfact>
</mgrwt>
</event>
<event>
 4    5  0.7289609E-008  0.6920883E+03  0.7818608E-02  0.1003175E+00
          2   -1    0    0  501    0  0.00000000000E+00  0.00000000000E+00  0.66169097255E+03  0.66169097256E+03  0.25500000000E-02 0. -1.
         -2   -1    0    0    0  501 -0.00000000000E+00 -0.00000000000E+00 -0.73064040898E+03  0.73064040899E+03  0.25500000000E-02 0.  1.
    8880023    1    1    2    0    0  0.12627319612E+03 -0.17097115262E+03 -0.52348211081E+03  0.86776712411E+03  0.65864270000E+03 0.  1.
    8880022    1    1    2    0    0 -0.12627319612E+03  0.17097115262E+03  0.45453267438E+03  0.52456425744E+03  0.15294330000E+03 0.  0.
<mgrwt>
<rscale>  0 0.54279533E+03</rscale>
<asrwt>0</asrwt>
<pdfrwt beam="1">  1        2 0.10179861E+00 0.69208833E+03</pdfrwt>
<pdfrwt beam="2">  1       -2 0.11240622E+00 0.69208833E+03</pdfrwt>
<totfact> 0.27920817E+01</totfact>
</mgrwt>
</event>
<event>
 4    5  0.7289609E-008  0.1020120E+04  0.7818608E-02  0.9355696E-01
          2   -1    0    0  501    0  0.00000000000E+00  0.00000000000E+00  0.35426222245E+04  0.35426222245E+04  0.25500000000E-02 0. -1.
         -2   -1    0    0    0  501 -0.00000000000E+00 -0.00000000000E+00 -0.47676030972E+03  0.47676030973E+03  0.25500000000E-02 0.  1.
    8880023    1    1    2    0    0 -0.76261652709E+03 -0.15890221917E+03  0.19218304778E+03  0.10380647440E+04  0.65864270000E+03 0.  0.
    8880022    1    1    2    0    0  0.76261652709E+03  0.15890221917E+03  0.28736788670E+04  0.29813177902E+04  0.15294330000E+03 0.  0.
<mgrwt>
<rscale>  0 0.95813197E+03</rscale>
<asrwt>0</asrwt>
<pdfrwt beam="1">  1        2 0.54501883E+00 0.10201196E+04</pdfrwt>
<pdfrwt beam="2">  1       -2 0.73347737E-01 0.10201196E+04</pdfrwt>
<totfact> 0.13154154E+00</totfact>
</mgrwt>
</event>
<event>
 4    5  0.7289609E-008  0.1103622E+04  0.7818608E-02  0.9257034E-01
          2   -1    0    0  501    0  0.00000000000E+00  0.00000000000E+00  0.16272932776E+04  0.16272932776E+04  0.25500000000E-02 0. -1.
         -2   -1    0    0    0  501 -0.00000000000E+00 -0.00000000000E+00 -0.84491483998E+03  0.84491483998E+03  0.25500000000E-02 0.  1.
    8880023    1    1    2    0    0  0.78442963457E+03  0.41090269433E+03 -0.22068677288E+03  0.11254704500E+04  0.65864270000E+03 0.  1.
    8880022    1    1    2    0    0 -0.78442963457E+03 -0.41090269433E+03  0.10030652105E+04  0.13467376676E+04  0.15294330000E+03 0.  0.
<mgrwt>
<rscale>  0 0.10483643E+04</rscale>
<asrwt>0</asrwt>
<pdfrwt beam="1">  1        2 0.25035281E+00 0.11036218E+04</pdfrwt>
<pdfrwt beam="2">  1       -2 0.12998690E+00 0.11036218E+04</pdfrwt>
<totfact> 0.45988086E+00</totfact>
</mgrwt>
</event>
<event>
 4    5  0.7289609E-008  0.8344279E+03  0.7818608E-02  0.9640778E-01
          2   -1    0    0  501    0  0.00000000000E+00  0.00000000000E+00  0.27964742179E+04  0.27964742179E+04  0.25500000000E-02 0. -1.
         -2   -1    0    0    0  501 -0.00000000000E+00 -0.00000000000E+00 -0.37572868871E+03  0.37572868872E+03  0.25500000000E-02 0.  1.
    8880023    1    1    2    0    0  0.51042257159E+03  0.43913973294E+02  0.16067865188E+03  0.84975730304E+03  0.65864270000E+03 0.  0.
    8880022    1    1    2    0    0 -0.51042257159E+03 -0.43913973294E+02  0.22600668773E+04  0.23224456036E+04  0.15294330000E+03 0.  0.
<mgrwt>
<rscale>  0 0.74655037E+03</rscale>
<asrwt>0</asrwt>
<pdfrwt beam="1">  1        2 0.43022681E+00 0.83442785E+03</pdfrwt>
<pdfrwt beam="2">  1       -2 0.57804413E-01 0.83442785E+03</pdfrwt>
<totfact> 0.67920253E+00</totfact>
</mgrwt>
</event>
<event>
 4    5  0.7289609E-008  0.1368237E+04  0.7818608E-02  0.9008765E-01
          2   -1    0    0  501    0  0.00000000000E+00  0.00000000000E+00  0.12848451511E+04  0.12848451511E+04  0.25500000000E-02 0. -1.
         -2   -1    0    0    0  501 -0.00000000000E+00 -0.00000000000E+00 -0.13128675110E+04  0.13128675110E+04  0.25500000000E-02 0.  1.
    8880023    1    1    2    0    0  0.80289100243E+03  0.89085798619E+03  0.14704017594E+03  0.13761151598E+04  0.65864270000E+03 0.  0.
    8880022    1    1    2    0    0 -0.80289100243E+03 -0.89085798619E+03 -0.17506253587E+03  0.12215975024E+04  0.15294330000E+03 0.  0.
<mgrwt>
<rscale>  0 0.13265589E+04</rscale>
<asrwt>0</asrwt>
<pdfrwt beam="1">  1        2 0.19766849E+00 0.13682369E+04</pdfrwt>
<pdfrwt beam="2">  1       -2 0.20197962E+00 0.13682369E+04</pdfrwt>
<totfact> 0.20804829E+00</totfact>
</mgrwt>
</event>
<event>
 4    5  0.7289609E-008  0.9760372E+03  0.7818608E-02  0.9413602E-01
          2   -1    0    0  501    0  0.00000000000E+00  0.00000000000E+00  0.15813872957E+04  0.15813872957E+04  0.25500000000E-02 0. -1.
         -2   -1    0    0    0  501 -0.00000000000E+00 -0.00000000000E+00 -0.10699924524E+04  0.10699924524E+04  0.25500000000E-02 0.  1.
    8880023    1    1    2    0    0 -0.56014656533E+03 -0.45285128895E+03 -0.72257593512E+03  0.12143988854E+04  0.65864270000E+03 0.  0.
    8880022    1    1    2    0    0  0.56014656533E+03  0.45285128895E+03  0.12339707784E+04  0.14369808626E+04  0.15294330000E+03 0.  0.
<mgrwt>
<rscale>  0 0.90964669E+03</rscale>
<asrwt>0</asrwt>
<pdfrwt beam="1">  1        2 0.24329035E+00 0.97603723E+03</pdfrwt>
<pdfrwt beam="2">  1       -2 0.16461422E+00 0.97603723E+03</pdfrwt>
<totfact> 0.26515140E+00</totfact>
</mgrwt>
</event>
<event>
 4    5  0.7289609E-008  0.1706340E+04  0.7818608E-02  0.8776195E-01
          2   -1    0    0  501    0  0.00000000000E+00  0.00000000000E+00  0.33226672375E+04  0.33226672375E+04  0.25500000000E-02 0. -1.
         -2   -1    0    0    0  501 -0.00000000000E+00 -0.00000000000E+00 -0.93050008801E+03  0.93050008801E+03  0.25500000000E-02 0.  1.
    8880023    1    1    2    0    0  0.94162151181E+03 -0.12614023661E+04  0.48169095801E+03  0.17730266174E+04  0.65864270000E+03 0.  0.
    8880022    1    1    2    0    0 -0.94162151181E+03  0.12614023661E+04  0.19104761915E+04  0.24801407081E+04  0.15294330000E+03 0.  0.
<mgrwt>
<rscale>  0 0.16742385E+04</rscale>
<asrwt>0</asrwt>
<pdfrwt beam="1">  1        2 0.51117957E+00 0.17063403E+04</pdfrwt>
<pdfrwt beam="2">  1       -2 0.14315386E+00 0.17063403E+04</pdfrwt>
<totfact> 0.33904425E-01</totfact>
</mgrwt>
</event>
<event>
 4    5  0.7289609E-008  0.1492892E+04  0.7818608E-02  0.8914672E-01
         -2   -1    0    0    0  501 -0.00000000000E+00  0.00000000000E+00  0.24094395787E+04  0.24094395787E+04  0.25500000000E-02 0.  1.
          2   -1    0    0  501    0  0.00000000000E+00 -0.00000000000E+00 -0.88328851990E+03  0.88328851991E+03  0.25500000000E-02 0. -1.
    8880023    1    1    2    0    0  0.13323548016E+04  0.14052334338E+03  0.42614928996E+03  0.15525236072E+04  0.65864270000E+03 0.  1.
    8880022    1    1    2    0    0 -0.13323548016E+04 -0.14052334338E+03  0.11000017688E+04  0.17402044914E+04  0.15294330000E+03 0.  0.
<mgrwt>
<rscale>  0 0.14553911E+04</rscale>
<asrwt>0</asrwt>
<pdfrwt beam="1">  1        2 0.13589054E+00 0.14928919E+04</pdfrwt>
<pdfrwt beam="2">  1       -2 0.37068301E+00 0.14928919E+04</pdfrwt>
<totfact> 0.32963342E-01</totfact>
</mgrwt>
</event>
<event>
 4    5  0.7289609E-008  0.1120920E+04  0.7818608E-02  0.9238114E-01
          2   -1    0    0  501    0  0.00000000000E+00  0.00000000000E+00  0.14140815101E+04  0.14140815101E+04  0.25500000000E-02 0. -1.
         -2   -1    0    0    0  501 -0.00000000000E+00 -0.00000000000E+00 -0.14390874482E+04  0.14390874482E+04  0.25500000000E-02 0.  1.
    8880023    1    1    2    0    0  0.63223544916E+03 -0.65033099256E+03 -0.10076097579E+04  0.15072291443E+04  0.65864270000E+03 0.  1.
    8880022    1    1    2    0    0 -0.63223544916E+03  0.65033099256E+03  0.98260381986E+03  0.13459398140E+04  0.15294330000E+03 0.  0.
<mgrwt>
<rscale>  0 0.10668544E+04</rscale>
<asrwt>0</asrwt>
<pdfrwt beam="1">  1        2 0.21755100E+00 0.11209203E+04</pdfrwt>
<pdfrwt beam="2">  1       -2 0.22139807E+00 0.11209203E+04</pdfrwt>
<totfact> 0.13473276E+00</totfact>
</mgrwt>
</event>
<event>
 4    5  0.7289609E-008  0.1158824E+04  0.7818608E-02  0.9198226E-01
          2   -1    0    0  501    0  0.00000000000E+00  0.00000000000E+00  0.12328233672E+04  0.12328233672E+04  0.25500000000E-02 0. -1.
         -2   -1    0    0    0  501 -0.00000000000E+00 -0.00000000000E+00 -0.11507243833E+04  0.11507243833E+04  0.25500000000E-02 0.  1.
    8880023    1    1    2    0    0 -0.95324752883E+03 -0.19564362058E+02 -0.49332587269E+03  0.12594618845E+04  0.65864270000E+03 0.  0.
    8880022    1    1    2    0    0  0.95324752883E+03  0.19564362058E+02  0.57542485659E+03  0.11240858660E+04  0.15294330000E+03 0.  0.
<mgrwt>
<rscale>  0 0.11071761E+04</rscale>
<asrwt>0</asrwt>
<pdfrwt beam="1">  1        2 0.18966513E+00 0.11588243E+04</pdfrwt>
<pdfrwt beam="2">  1       -2 0.17703452E+00 0.11588243E+04</pdfrwt>
<totfact> 0.33571824E+00</totfact>
</mgrwt>
</event>
<event>
 4    5  0.7289609E-008  0.7532718E+03  0.7818608E-02  0.9822848E-01
         -2   -1    0    0    0  501 -0.00000000000E+00  0.00000000000E+00  0.77528649281E+03  0.77528649282E+03  0.25500000000E-02 0.  1.
          2   -1    0    0  501    0  0.00000000000E+00 -0.00000000000E+00 -0.17914672862E+04  0.17914672862E+04  0.25500000000E-02 0. -1.
    8880023    1    1    2    0    0 -0.22380202511E+03  0.28899964165E+03  0.56185453932E+03  0.93973340312E+03  0.65864270000E+03 0.  1.
    8880022    1    1    2    0    0  0.22380202511E+03 -0.28899964165E+03 -0.15780353327E+04  0.16270203759E+04  0.15294330000E+03 0.  0.
<mgrwt>
<rscale>  0 0.64150663E+03</rscale>
<asrwt>0</asrwt>
<pdfrwt beam="1">  1        2 0.27561035E+00 0.75327176E+03</pdfrwt>
<pdfrwt beam="2">  1       -2 0.11927485E+00 0.75327176E+03</pdfrwt>
<totfact> 0.48471960E+00</totfact>
</mgrwt>
</event>
<event>
 4    5  0.7289609E-008  0.1137773E+04  0.7818608E-02  0.9220122E-01
         -2   -1    0    0    0  501 -0.00000000000E+00  0.00000000000E+00  0.11652242367E+04  0.11652242367E+04  0.25500000000E-02 0.  1.
          2   -1    0    0  501    0  0.00000000000E+00 -0.00000000000E+00 -0.16773321024E+04  0.16773321024E+04  0.25500000000E-02 0. -1.
    8880023    1    1    2    0    0 -0.64836484706E+03 -0.66358057971E+03  0.67905015380E+03  0.13250039541E+04  0.65864270000E+03 0.  0.
    8880022    1    1    2    0    0  0.64836484706E+03  0.66358057971E+03 -0.11911580195E+04  0.15175523850E+04  0.15294330000E+03 0.  0.
<mgrwt>
<rscale>  0 0.10848127E+04</rscale>
<asrwt>0</asrwt>
<pdfrwt beam="1">  1        2 0.25805109E+00 0.11377725E+04</pdfrwt>
<pdfrwt beam="2">  1       -2 0.17926527E+00 0.11377725E+04</pdfrwt>
<totfact> 0.18103240E+00</totfact>
</mgrwt>
</event>
<event>
 4    5  0.7289609E-008  0.1092825E+04  0.7818608E-02  0.9269087E-01
         -2   -1    0    0    0  501 -0.00000000000E+00  0.00000000000E+00  0.92342282987E+03  0.92342282987E+03  0.25500000000E-02 0.  1.
          2   -1    0    0  501    0  0.00000000000E+00 -0.00000000000E+00 -0.36290280851E+04  0.36290280851E+04  0.25500000000E-02 0. -1.
    8880023    1    1    2    0    0 -0.50172538126E+03 -0.71325137268E+03  0.51807218515E+03  0.12094068274E+04  0.65864270000E+03 0.  0.
    8880022    1    1    2    0    0  0.50172538126E+03  0.71325137268E+03 -0.32236774403E+04  0.33430440875E+04  0.15294330000E+03 0. -1.
<mgrwt>
<rscale>  0 0.10367925E+04</rscale>
<asrwt>0</asrwt>
<pdfrwt beam="1">  1        2 0.55831201E+00 0.10928248E+04</pdfrwt>
<pdfrwt beam="2">  1       -2 0.14206505E+00 0.10928248E+04</pdfrwt>
<totfact> 0.23129894E-01</totfact>
</mgrwt>
</event>
<event>
 4    5  0.7289609E-008  0.1449733E+04  0.7818608E-02  0.8945972E-01
          2   -1    0    0  501    0  0.00000000000E+00  0.00000000000E+00  0.19629333743E+04  0.19629333743E+04  0.25500000000E-02 0. -1.
         -2   -1    0    0    0  501 -0.00000000000E+00 -0.00000000000E+00 -0.14630093711E+04  0.14630093711E+04  0.25500000000E-02 0.  1.
    8880023    1    1    2    0    0  0.65443891967E+03 -0.11133842274E+04 -0.74122662352E+03  0.16282327386E+04  0.65864270000E+03 0.  0.
    8880022    1    1    2    0    0 -0.65443891967E+03  0.11133842274E+04  0.12411506267E+04  0.17977100068E+04  0.15294330000E+03 0.  0.
<mgrwt>
<rscale>  0 0.14108919E+04</rscale>
<asrwt>0</asrwt>
<pdfrwt beam="1">  1        2 0.30198975E+00 0.14497327E+04</pdfrwt>
<pdfrwt beam="2">  1       -2 0.22507837E+00 0.14497327E+04</pdfrwt>
<totfact> 0.60664712E-01</totfact>
</mgrwt>
</event>
<event>
 4    5  0.7289609E-008  0.7219795E+03  0.7818608E-02  0.9915944E-01
          2   -1    0    0  501    0  0.00000000000E+00  0.00000000000E+00  0.68476614955E+03  0.68476614956E+03  0.25500000000E-02 0. -1.
         -2   -1    0    0    0  501 -0.00000000000E+00 -0.00000000000E+00 -0.48758499540E+03  0.48758499540E+03  0.25500000000E-02 0.  1.
    8880023    1    1    2    0    0 -0.21340824247E+03  0.20469773001E+03 -0.96511382719E+02  0.72840160069E+03  0.65864270000E+03 0.  1.
    8880022    1    1    2    0    0  0.21340824247E+03 -0.20469773001E+03  0.29369253688E+03  0.44394954427E+03  0.15294330000E+03 0.  0.
<mgrwt>
<rscale>  0 0.59494760E+03</rscale>
<asrwt>0</asrwt>
<pdfrwt beam="1">  1        2 0.10534864E+00 0.72197953E+03</pdfrwt>
<pdfrwt beam="2">  1       -2 0.75013076E-01 0.72197953E+03</pdfrwt>
<totfact> 0.68217143E+01</totfact>
</mgrwt>
</event>
<event>
 4    5  0.7289609E-008  0.1534126E+04  0.7818608E-02  0.8885907E-01
         -2   -1    0    0    0  501 -0.00000000000E+00  0.00000000000E+00  0.12150801416E+04  0.12150801416E+04  0.25500000000E-02 0.  1.
          2   -1    0    0  501    0  0.00000000000E+00 -0.00000000000E+00 -0.21766601181E+04  0.21766601181E+04  0.25500000000E-02 0. -1.
    8880023    1    1    2    0    0 -0.26911412480E+03 -0.13591578159E+04  0.23826018969E+03  0.15525174733E+04  0.65864270000E+03 0.  0.
    8880022    1    1    2    0    0  0.26911412480E+03  0.13591578159E+04 -0.11998401662E+04  0.18392227864E+04  0.15294330000E+03 0.  0.
<mgrwt>
<rscale>  0 0.14978156E+04</rscale>
<asrwt>0</asrwt>
<pdfrwt beam="1">  1        2 0.33487079E+00 0.15341260E+04</pdfrwt>
<pdfrwt beam="2">  1       -2 0.18693541E+00 0.15341260E+04</pdfrwt>
<totfact> 0.81062866E-01</totfact>
</mgrwt>
</event>
<event>
 4    5  0.7289609E-008  0.7307285E+03  0.7818608E-02  0.9887827E-01
         -2   -1    0    0    0  501 -0.00000000000E+00  0.00000000000E+00  0.13003876673E+03  0.13003876675E+03  0.25500000000E-02 0.  1.
          2   -1    0    0  501    0  0.00000000000E+00 -0.00000000000E+00 -0.24403519251E+04  0.24403519251E+04  0.25500000000E-02 0. -1.
    8880023    1    1    2    0    0  0.16603616086E+03 -0.26941769401E+03 -0.11921075019E+04  0.13982433275E+04  0.65864270000E+03 0.  0.
    8880022    1    1    2    0    0 -0.16603616086E+03  0.26941769401E+03 -0.11182056566E+04  0.11721473644E+04  0.15294330000E+03 0.  0.
<mgrwt>
<rscale>  0 0.60854881E+03</rscale>
<asrwt>0</asrwt>
<pdfrwt beam="1">  1        2 0.37543872E+00 0.73072848E+03</pdfrwt>
<pdfrwt beam="2">  1       -2 0.20005966E-01 0.73072848E+03</pdfrwt>
<totfact> 0.83564577E+01</totfact>
</mgrwt>
</event>
<event>
 4    5  0.7289609E-008  0.9327479E+03  0.7818608E-02  0.9475383E-01
          2   -1    0    0  501    0  0.00000000000E+00  0.00000000000E+00  0.19256790622E+04  0.19256790622E+04  0.25500000000E-02 0. -1.
         -2   -1    0    0    0  501 -0.00000000000E+00 -0.00000000000E+00 -0.35531808236E+03  0.35531808237E+03  0.25500000000E-02 0.  1.
    8880023    1    1    2    0    0  0.42148956308E+03 -0.50848295138E+03  0.64569545960E+03  0.11344343068E+04  0.65864270000E+03 0.  1.
    8880022    1    1    2    0    0 -0.42148956308E+03  0.50848295138E+03  0.92466552023E+03  0.11465628378E+04  0.15294330000E+03 0.  0.
<mgrwt>
<rscale>  0 0.86123308E+03</rscale>
<asrwt>0</asrwt>
<pdfrwt beam="1">  1        2 0.29625831E+00 0.93274786E+03</pdfrwt>
<pdfrwt beam="2">  1       -2 0.54664321E-01 0.93274786E+03</pdfrwt>
<totfact> 0.23365958E+01</totfact>
</mgrwt>
</event>
<event>
 4    5  0.7289609E-008  0.6597042E+03  0.7818608E-02  0.1024462E+00
          2   -1    0    0  501    0  0.00000000000E+00  0.00000000000E+00  0.26653050145E+04  0.26653050145E+04  0.25500000000E-02 0. -1.
         -2   -1    0    0    0  501 -0.00000000000E+00 -0.00000000000E+00 -0.19724365270E+03  0.19724365272E+03  0.25500000000E-02 0.  1.
    8880023    1    1    2    0    0 -0.29858970068E+02  0.22535413485E+02  0.36567191687E+03  0.75427154262E+03  0.65864270000E+03 0.  1.
    8880022    1    1    2    0    0  0.29858970068E+02 -0.22535413485E+02  0.21023894449E+04  0.21082771246E+04  0.15294330000E+03 0.  0.
<mgrwt>
<rscale>  0 0.46110391E+03</rscale>
<asrwt>0</asrwt>
<pdfrwt beam="1">  1        2 0.41004688E+00 0.65970418E+03</pdfrwt>
<pdfrwt beam="2">  1       -2 0.30345181E-01 0.65970418E+03</pdfrwt>
<totfact> 0.29702841E+01</totfact>
</mgrwt>
</event>
<event>
 4    5  0.7289609E-008  0.6942817E+03  0.7818608E-02  0.1002180E+00
          2   -1    0    0  501    0  0.00000000000E+00  0.00000000000E+00  0.17898564353E+04  0.17898564353E+04  0.25500000000E-02 0. -1.
         -2   -1    0    0    0  501 -0.00000000000E+00 -0.00000000000E+00 -0.49324216240E+03  0.49324216240E+03  0.25500000000E-02 0.  1.
    8880023    1    1    2    0    0 -0.13119464948E+03  0.17608190182E+03 -0.23140064214E+03  0.73182876115E+03  0.65864270000E+03 0.  1.
    8880022    1    1    2    0    0  0.13119464948E+03 -0.17608190182E+03  0.15280149151E+04  0.15512698366E+04  0.15294330000E+03 0.  0.
<mgrwt>
<rscale>  0 0.54704415E+03</rscale>
<asrwt>0</asrwt>
<pdfrwt beam="1">  1        2 0.27536253E+00 0.69428170E+03</pdfrwt>
<pdfrwt beam="2">  1       -2 0.75883408E-01 0.69428170E+03</pdfrwt>
<totfact> 0.14123062E+01</totfact>
</mgrwt>
</event>
<event>
 4    5  0.7289609E-008  0.8308267E+03  0.7818608E-02  0.9647726E-01
          2   -1    0    0  501    0  0.00000000000E+00  0.00000000000E+00  0.23050690984E+04  0.23050690984E+04  0.25500000000E-02 0. -1.
         -2   -1    0    0    0  501 -0.00000000000E+00 -0.00000000000E+00 -0.66660599122E+03  0.66660599122E+03  0.25500000000E-02 0.  1.
    8880023    1    1    2    0    0 -0.42971676307E+03  0.26796706397E+03 -0.35920193305E+03  0.90515141209E+03  0.65864270000E+03 0.  1.
    8880022    1    1    2    0    0  0.42971676307E+03 -0.26796706397E+03  0.19976650402E+04  0.20665236775E+04  0.15294330000E+03 0.  0.
<mgrwt>
<rscale>  0 0.74216314E+03</rscale>
<asrwt>0</asrwt>
<pdfrwt beam="1">  1        2 0.35462602E+00 0.83082673E+03</pdfrwt>
<pdfrwt beam="2">  1       -2 0.10255477E+00 0.83082673E+03</pdfrwt>
<totfact> 0.36084460E+00</totfact>
</mgrwt>
</event>
<event>
 4    5  0.7289609E-008  0.9902410E+03  0.7818608E-02  0.9394438E-01
          2   -1    0    0  501    0  0.00000000000E+00  0.00000000000E+00  0.77746629946E+03  0.77746629946E+03  0.25500000000E-02 0. -1.
         -2   -1    0    0    0  501 -0.00000000000E+00 -0.00000000000E+00 -0.18558078827E+04  0.18558078827E+04  0.25500000000E-02 0.  1.
    8880023    1    1    2    0    0 -0.73598671257E+03 -0.71347736841E+02 -0.14779067994E+04  0.17789844447E+04  0.65864270000E+03 0.  0.
    8880022    1    1    2    0    0  0.73598671257E+03  0.71347736841E+02  0.39956521609E+03  0.85428973748E+03  0.15294330000E+03 0.  0.
<mgrwt>
<rscale>  0 0.92534807E+03</rscale>
<asrwt>0</asrwt>
<pdfrwt beam="1">  1        2 0.11961020E+00 0.99024095E+03</pdfrwt>
<pdfrwt beam="2">  1       -2 0.28550890E+00 0.99024095E+03</pdfrwt>
<totfact> 0.13996291E+00</totfact>
</mgrwt>
</event>
<event>
 4    5  0.7289609E-008  0.1130161E+04  0.7818608E-02  0.9228196E-01
         -2   -1    0    0    0  501 -0.00000000000E+00  0.00000000000E+00  0.25286409187E+04  0.25286409187E+04  0.25500000000E-02 0.  1.
          2   -1    0    0  501    0  0.00000000000E+00 -0.00000000000E+00 -0.85062000745E+03  0.85062000745E+03  0.25500000000E-02 0. -1.
    8880023    1    1    2    0    0  0.28984822067E+03 -0.87145935323E+03 -0.32031504597E+03  0.11746766918E+04  0.65864270000E+03 0.  0.
    8880022    1    1    2    0    0 -0.28984822067E+03  0.87145935323E+03  0.19983359572E+04  0.22045842343E+04  0.15294330000E+03 0.  0.
<mgrwt>
<rscale>  0 0.10767079E+04</rscale>
<asrwt>0</asrwt>
<pdfrwt beam="1">  1        2 0.13086462E+00 0.11301609E+04</pdfrwt>
<pdfrwt beam="2">  1       -2 0.38902167E+00 0.11301609E+04</pdfrwt>
<totfact> 0.27659533E-01</totfact>
</mgrwt>
</event>
<event>
 4    5  0.7289609E-008  0.7562091E+03  0.7818608E-02  0.9815022E-01
          2   -1    0    0  501    0  0.00000000000E+00  0.00000000000E+00  0.34429377601E+04  0.34429377601E+04  0.25500000000E-02 0. -1.
         -2   -1    0    0    0  501 -0.00000000000E+00 -0.00000000000E+00 -0.28444584730E+03  0.28444584731E+03  0.25500000000E-02 0.  1.
    8880023    1    1    2    0    0  0.12701465691E+03  0.34915512958E+03  0.25772188651E+03  0.79891977359E+03  0.65864270000E+03 0.  0.
    8880022    1    1    2    0    0 -0.12701465691E+03 -0.34915512958E+03  0.29007700263E+04  0.29284638339E+04  0.15294330000E+03 0.  0.
<mgrwt>
<rscale>  0 0.64562554E+03</rscale>
<asrwt>0</asrwt>
<pdfrwt beam="1">  1        2 0.52968275E+00 0.75620912E+03</pdfrwt>
<pdfrwt beam="2">  1       -2 0.43760899E-01 0.75620912E+03</pdfrwt>
<totfact> 0.47665617E+00</totfact>
</mgrwt>
</event>
<event>
 4    5  0.7289609E-008  0.8020101E+03  0.7818608E-02  0.9706467E-01
         -2   -1    0    0    0  501 -0.00000000000E+00  0.00000000000E+00  0.66769110314E+03  0.66769110315E+03  0.25500000000E-02 0.  1.
          2   -1    0    0  501    0  0.00000000000E+00 -0.00000000000E+00 -0.87184163768E+03  0.87184163768E+03  0.25500000000E-02 0. -1.
    8880023    1    1    2    0    0 -0.70371695037E+02 -0.45217011463E+03  0.28625572994E+03  0.85156475809E+03  0.65864270000E+03 0.  0.
    8880022    1    1    2    0    0  0.70371695037E+02  0.45217011463E+03 -0.49040626448E+03  0.68796798274E+03  0.15294330000E+03 0.  0.
<mgrwt>
<rscale>  0 0.70633078E+03</rscale>
<asrwt>0</asrwt>
<pdfrwt beam="1">  1        2 0.13412948E+00 0.80201010E+03</pdfrwt>
<pdfrwt beam="2">  1       -2 0.10272171E+00 0.80201010E+03</pdfrwt>
<totfact> 0.23987205E+01</totfact>
</mgrwt>
</event>
<event>
 4    5  0.7289609E-008  0.7164952E+03  0.7818608E-02  0.9934628E-01
          2   -1    0    0  501    0  0.00000000000E+00  0.00000000000E+00  0.17721445905E+04  0.17721445905E+04  0.25500000000E-02 0. -1.
         -2   -1    0    0    0  501 -0.00000000000E+00 -0.00000000000E+00 -0.92982579331E+03  0.92982579331E+03  0.25500000000E-02 0.  1.
    8880023    1    1    2    0    0 -0.25456252766E+03 -0.12146247558E+03 -0.77364412409E+03  0.10544622565E+04  0.65864270000E+03 0.  1.
    8880022    1    1    2    0    0  0.25456252766E+03  0.12146247558E+03  0.16159629213E+04  0.16475081273E+04  0.15294330000E+03 0.  0.
<mgrwt>
<rscale>  0 0.58612011E+03</rscale>
<asrwt>0</asrwt>
<pdfrwt beam="1">  1        2 0.27263763E+00 0.71649523E+03</pdfrwt>
<pdfrwt beam="2">  1       -2 0.14305012E+00 0.71649523E+03</pdfrwt>
<totfact> 0.31509847E+00</totfact>
</mgrwt>
</event>
<event>
 4    5  0.7289609E-008  0.9806193E+03  0.7818608E-02  0.9407364E-01
          2   -1    0    0  501    0  0.00000000000E+00  0.00000000000E+00  0.90558735963E+03  0.90558735964E+03  0.25500000000E-02 0. -1.
         -2   -1    0    0    0  501 -0.00000000000E+00 -0.00000000000E+00 -0.12249000107E+04  0.12249000107E+04  0.25500000000E-02 0.  1.
    8880023    1    1    2    0    0 -0.55634280160E+03  0.46721167499E+03 -0.78324794319E+03  0.12550265371E+04  0.65864270000E+03 0.  1.
    8880022    1    1    2    0    0  0.55634280160E+03 -0.46721167499E+03  0.46393529214E+03  0.87546083319E+03  0.15294330000E+03 0.  0.
<mgrwt>
<rscale>  0 0.91472082E+03</rscale>
<asrwt>0</asrwt>
<pdfrwt beam="1">  1        2 0.13932113E+00 0.98061933E+03</pdfrwt>
<pdfrwt beam="2">  1       -2 0.18844615E+00 0.98061933E+03</pdfrwt>
<totfact> 0.45867711E+00</totfact>
</mgrwt>
</event>
<event>
 4    5  0.7289609E-008  0.1340629E+04  0.7818608E-02  0.9031245E-01
         -2   -1    0    0    0  501 -0.00000000000E+00  0.00000000000E+00  0.15199637503E+04  0.15199637503E+04  0.25500000000E-02 0.  1.
          2   -1    0    0  501    0  0.00000000000E+00 -0.00000000000E+00 -0.15978839454E+04  0.15978839454E+04  0.25500000000E-02 0. -1.
    8880023    1    1    2    0    0 -0.80486545060E+03 -0.84597130156E+03 -0.95794410356E+03  0.16477083930E+04  0.65864270000E+03 0.  0.
    8880022    1    1    2    0    0  0.80486545060E+03  0.84597130156E+03  0.88002390850E+03  0.14701393026E+04  0.15294330000E+03 0.  0.
<mgrwt>
<rscale>  0 0.12978838E+04</rscale>
<asrwt>0</asrwt>
<pdfrwt beam="1">  1        2 0.24582830E+00 0.13406290E+04</pdfrwt>
<pdfrwt beam="2">  1       -2 0.23384058E+00 0.13406290E+04</pdfrwt>
<totfact> 0.86424050E-01</totfact>
</mgrwt>
</event>
<event>
 4    5  0.7289609E-008  0.1202287E+04  0.7818608E-02  0.9154903E-01
         -2   -1    0    0    0  501 -0.00000000000E+00  0.00000000000E+00  0.69634646950E+03  0.69634646950E+03  0.25500000000E-02 0.  1.
          2   -1    0    0  501    0  0.00000000000E+00 -0.00000000000E+00 -0.18200429653E+04  0.18200429653E+04  0.25500000000E-02 0. -1.
    8880023    1    1    2    0    0  0.80009986700E+03  0.60952683613E+03 -0.39704502920E+03  0.12661507504E+04  0.65864270000E+03 0.  0.
    8880022    1    1    2    0    0 -0.80009986700E+03 -0.60952683613E+03 -0.72665146656E+03  0.12502386844E+04  0.15294330000E+03 0.  0.
<mgrwt>
<rscale>  0 0.11531278E+04</rscale>
<asrwt>0</asrwt>
<pdfrwt beam="1">  1        2 0.28000661E+00 0.12022866E+04</pdfrwt>
<pdfrwt beam="2">  1       -2 0.10713023E+00 0.12022866E+04</pdfrwt>
<totfact> 0.57545058E+00</totfact>
</mgrwt>
</event>
<event>
 4    5  0.7289609E-008  0.7227475E+03  0.7818608E-02  0.9913397E-01
          2   -1    0    0  501    0  0.00000000000E+00  0.00000000000E+00  0.15331311206E+04  0.15331311206E+04  0.25500000000E-02 0. -1.
         -2   -1    0    0    0  501 -0.00000000000E+00 -0.00000000000E+00 -0.47192264597E+03  0.47192264597E+03  0.25500000000E-02 0.  1.
    8880023    1    1    2    0    0  0.26921576790E+03 -0.12679350730E+03 -0.15880899360E+03  0.73998934174E+03  0.65864270000E+03 0.  0.
    8880022    1    1    2    0    0 -0.26921576790E+03  0.12679350730E+03  0.12200174682E+04  0.12650644248E+04  0.15294330000E+03 0.  0.
<mgrwt>
<rscale>  0 0.59616395E+03</rscale>
<asrwt>0</asrwt>
<pdfrwt beam="1">  1        2 0.23586632E+00 0.72274749E+03</pdfrwt>
<pdfrwt beam="2">  1       -2 0.72603485E-01 0.72274749E+03</pdfrwt>
<totfact> 0.21444140E+01</totfact>
</mgrwt>
</event>
<event>
 4    5  0.7289609E-008  0.7066386E+03  0.7818608E-02  0.9970702E-01
         -2   -1    0    0    0  501 -0.00000000000E+00  0.00000000000E+00  0.38265141323E+03  0.38265141324E+03  0.25500000000E-02 0.  1.
          2   -1    0    0  501    0  0.00000000000E+00 -0.00000000000E+00 -0.12344331360E+04  0.12344331360E+04  0.25500000000E-02 0. -1.
    8880023    1    1    2    0    0 -0.25399913755E+03 -0.31817201085E+02  0.83935631911E+01  0.70668844219E+03  0.65864270000E+03 0.  1.
    8880022    1    1    2    0    0  0.25399913755E+03  0.31817201085E+02 -0.86017528600E+03  0.91039610710E+03  0.15294330000E+03 0.  0.
<mgrwt>
<rscale>  0 0.56953795E+03</rscale>
<asrwt>0</asrwt>
<pdfrwt beam="1">  1        2 0.18991279E+00 0.70663859E+03</pdfrwt>
<pdfrwt beam="2">  1       -2 0.58869449E-01 0.70663859E+03</pdfrwt>
<totfact> 0.49807844E+01</totfact>
</mgrwt>
</event>
<event>
 4    5  0.7289609E-008  0.6875015E+03  0.7818608E-02  0.1005363E+00
         -2   -1    0    0    0  501 -0.00000000000E+00  0.00000000000E+00  0.13935312111E+03  0.13935312114E+03  0.25500000000E-02 0.  1.
          2   -1    0    0  501    0  0.00000000000E+00 -0.00000000000E+00 -0.28345490333E+04  0.28345490333E+04  0.25500000000E-02 0. -1.
    8880023    1    1    2    0    0  0.79388283912E+02 -0.18040419576E+03 -0.76857721402E+03  0.10311979992E+04  0.65864270000E+03 0.  0.
    8880022    1    1    2    0    0 -0.79388283912E+02  0.18040419576E+03 -0.19266186981E+04  0.19427041552E+04  0.15294330000E+03 0. -1.
<mgrwt>
<rscale>  0 0.53359753E+03</rscale>
<asrwt>0</asrwt>
<pdfrwt beam="1">  1        2 0.43608442E+00 0.68750155E+03</pdfrwt>
<pdfrwt beam="2">  1       -2 0.21438944E-01 0.68750155E+03</pdfrwt>
<totfact> 0.44115843E+01</totfact>
</mgrwt>
</event>
<event>
 4    5  0.7289609E-008  0.7568353E+03  0.7818608E-02  0.9813371E-01
         -2   -1    0    0    0  501 -0.00000000000E+00  0.00000000000E+00  0.16124592465E+04  0.16124592465E+04  0.25500000000E-02 0.  1.
          2   -1    0    0  501    0  0.00000000000E+00 -0.00000000000E+00 -0.75471257303E+03  0.75471257303E+03  0.25500000000E-02 0. -1.
    8880023    1    1    2    0    0  0.33683023949E+03 -0.15979610245E+03  0.14588565747E+04  0.16434908325E+04  0.65864270000E+03 0.  0.
    8880022    1    1    2    0    0 -0.33683023949E+03  0.15979610245E+03 -0.60110990126E+03  0.72368098704E+03  0.15294330000E+03 0. -1.
<mgrwt>
<rscale>  0 0.64649912E+03</rscale>
<asrwt>0</asrwt>
<pdfrwt beam="1">  1        2 0.11610963E+00 0.75683526E+03</pdfrwt>
<pdfrwt beam="2">  1       -2 0.24807065E+00 0.75683526E+03</pdfrwt>
<totfact> 0.25297077E+00</totfact>
</mgrwt>
</event>
<event>
 4    5  0.8971938E-008  0.1093682E+04  0.7818608E-02  0.9268123E-01
          2   -1    0    0  501    0  0.00000000000E+00  0.00000000000E+00  0.22655050829E+04  0.22655050829E+04  0.25500000000E-02 0. -1.
         -2   -1    0    0    0  501 -0.00000000000E+00 -0.00000000000E+00 -0.15168911578E+04  0.15168911578E+04  0.25500000000E-02 0.  1.
    8880023    1    1    2    0    0  0.46880765234E+03 -0.73657996894E+03 -0.12109155256E+04  0.16317037972E+04  0.65864270000E+03 0.  0.
    8880022    1    1    2    0    0 -0.46880765234E+03  0.73657996894E+03  0.19595294507E+04  0.21506924435E+04  0.15294330000E+03 0.  0.
<mgrwt>
<rscale>  0 0.10377124E+04</rscale>
<asrwt>0</asrwt>
<pdfrwt beam="1">  1        2 0.34853924E+00 0.10936823E+04</pdfrwt>
<pdfrwt beam="2">  1       -2 0.23336787E+00 0.10936823E+04</pdfrwt>
<totfact> 0.38234517E-01</totfact>
</mgrwt>
</event>
<event>
 4    5  0.7289609E-008  0.1186585E+04  0.7818608E-02  0.9170274E-01
         -2   -1    0    0    0  501 -0.00000000000E+00  0.00000000000E+00  0.15396461443E+04  0.15396461443E+04  0.25500000000E-02 0.  1.
          2   -1    0    0  501    0  0.00000000000E+00 -0.00000000000E+00 -0.10323778921E+04  0.10323778922E+04  0.25500000000E-02 0. -1.
    8880023    1    1    2    0    0  0.36932716523E+03 -0.91529837331E+03  0.90974474394E+03  0.14951987736E+04  0.65864270000E+03 0.  0.
    8880022    1    1    2    0    0 -0.36932716523E+03  0.91529837331E+03 -0.40247649184E+03  0.10768252628E+04  0.15294330000E+03 0.  0.
<mgrwt>
<rscale>  0 0.11365585E+04</rscale>
<asrwt>0</asrwt>
<pdfrwt beam="1">  1        2 0.15882737E+00 0.11865850E+04</pdfrwt>
<pdfrwt beam="2">  1       -2 0.23686864E+00 0.11865850E+04</pdfrwt>
<totfact> 0.18131253E+00</totfact>
</mgrwt>
</event>
<event>
 4    5  0.7289609E-008  0.1314239E+04  0.7818608E-02  0.9053360E-01
         -2   -1    0    0    0  501 -0.00000000000E+00  0.00000000000E+00  0.89466981407E+03  0.89466981408E+03  0.25500000000E-02 0.  1.
          2   -1    0    0  501    0  0.00000000000E+00 -0.00000000000E+00 -0.17833650220E+04  0.17833650220E+04  0.25500000000E-02 0. -1.
    8880023    1    1    2    0    0 -0.44466187825E+03 -0.10467522867E+04 -0.17289149458E+03  0.13255626017E+04  0.65864270000E+03 0.  0.
    8880022    1    1    2    0    0  0.44466187825E+03  0.10467522867E+04 -0.71580371331E+03  0.13524722344E+04  0.15294330000E+03 0.  0.
<mgrwt>
<rscale>  0 0.12704163E+04</rscale>
<asrwt>0</asrwt>
<pdfrwt beam="1">  1        2 0.27436385E+00 0.13142392E+04</pdfrwt>
<pdfrwt beam="2">  1       -2 0.13764151E+00 0.13142392E+04</pdfrwt>
<totfact> 0.31848704E+00</totfact>
</mgrwt>
</event>
<event>
 4    5  0.7289609E-008  0.2244828E+04  0.7818608E-02  0.8509690E-01
         -2   -1    0    0    0  501 -0.00000000000E+00  0.00000000000E+00  0.27470310550E+04  0.27470310550E+04  0.25500000000E-02 0.  1.
          2   -1    0    0  501    0  0.00000000000E+00 -0.00000000000E+00 -0.21432459224E+04  0.21432459224E+04  0.25500000000E-02 0. -1.
    8880023    1    1    2    0    0  0.54694270381E+03 -0.20751617160E+04  0.13423561201E+04  0.26155635393E+04  0.65864270000E+03 0.  0.
    8880022    1    1    2    0    0 -0.54694270381E+03  0.20751617160E+04 -0.73857098750E+03  0.22747134381E+04  0.15294330000E+03 0.  0.
<mgrwt>
<rscale>  0 0.22211161E+04</rscale>
<asrwt>0</asrwt>
<pdfrwt beam="1">  1        2 0.32973014E+00 0.22448280E+04</pdfrwt>
<pdfrwt beam="2">  1       -2 0.42262016E+00 0.22448280E+04</pdfrwt>
<totfact> 0.25238049E-02</totfact>
</mgrwt>
</event>
<event>
 4    5  0.7289609E-008  0.9656091E+03  0.7818608E-02  0.9428003E-01
         -2   -1    0    0    0  501 -0.00000000000E+00  0.00000000000E+00  0.99334647873E+03  0.99334647873E+03  0.25500000000E-02 0.  1.
          2   -1    0    0  501    0  0.00000000000E+00 -0.00000000000E+00 -0.24827331524E+04  0.24827331524E+04  0.25500000000E-02 0. -1.
    8880023    1    1    2    0    0 -0.50532255994E+03  0.49319357375E+03  0.68559043542E+03  0.11842445871E+04  0.65864270000E+03 0.  1.
    8880022    1    1    2    0    0  0.50532255994E+03 -0.49319357375E+03 -0.21749771091E+04  0.22918350440E+04  0.15294330000E+03 0.  0.
<mgrwt>
<rscale>  0 0.89806550E+03</rscale>
<asrwt>0</asrwt>
<pdfrwt beam="1">  1        2 0.38195894E+00 0.96560913E+03</pdfrwt>
<pdfrwt beam="2">  1       -2 0.15282254E+00 0.96560913E+03</pdfrwt>
<totfact> 0.10267883E+00</totfact>
</mgrwt>
</event>
<event>
 4    5  0.7289609E-008  0.1078285E+04  0.7818608E-02  0.9285627E-01
          2   -1    0    0  501    0  0.00000000000E+00  0.00000000000E+00  0.23784729657E+04  0.23784729657E+04  0.25500000000E-02 0. -1.
         -2   -1    0    0    0  501 -0.00000000000E+00 -0.00000000000E+00 -0.62467826836E+03  0.62467826836E+03  0.25500000000E-02 0.  1.
    8880023    1    1    2    0    0  0.76025572256E+03 -0.38845879938E+03  0.36091613197E+02  0.10788891571E+04  0.65864270000E+03 0.  1.
    8880022    1    1    2    0    0 -0.76025572256E+03  0.38845879938E+03  0.17177030841E+04  0.19242620770E+04  0.15294330000E+03 0.  0.
<mgrwt>
<rscale>  0 0.10211693E+04</rscale>
<asrwt>0</asrwt>
<pdfrwt beam="1">  1        2 0.36591891E+00 0.10782853E+04</pdfrwt>
<pdfrwt beam="2">  1       -2 0.96104351E-01 0.10782853E+04</pdfrwt>
<totfact> 0.36974541E+00</totfact>
</mgrwt>
</event>
<event>
 4    5  0.7289609E-008  0.1340484E+04  0.7818608E-02  0.9031365E-01
          2   -1    0    0  501    0  0.00000000000E+00  0.00000000000E+00  0.31120726395E+04  0.31120726395E+04  0.25500000000E-02 0. -1.
         -2   -1    0    0    0  501 -0.00000000000E+00 -0.00000000000E+00 -0.76725122283E+03  0.76725122284E+03  0.25500000000E-02 0.  1.
    8880023    1    1    2    0    0 -0.34688427189E+02 -0.11669981625E+04  0.99731639727E+02  0.13441891997E+04  0.65864270000E+03 0.  0.
    8880022    1    1    2    0    0  0.34688427189E+02  0.11669981625E+04  0.22450897769E+04  0.25351346626E+04  0.15294330000E+03 0.  0.
<mgrwt>
<rscale>  0 0.12977334E+04</rscale>
<asrwt>0</asrwt>
<pdfrwt beam="1">  1        2 0.47878040E+00 0.13404843E+04</pdfrwt>
<pdfrwt beam="2">  1       -2 0.11803865E+00 0.13404843E+04</pdfrwt>
<totfact> 0.79481706E-01</totfact>
</mgrwt>
</event>
<event>
 4    5  0.7289609E-008  0.1153524E+04  0.7818608E-02  0.9203680E-01
          2   -1    0    0  501    0  0.00000000000E+00  0.00000000000E+00  0.17162429152E+04  0.17162429152E+04  0.25500000000E-02 0. -1.
         -2   -1    0    0    0  501 -0.00000000000E+00 -0.00000000000E+00 -0.96037074184E+03  0.96037074184E+03  0.25500000000E-02 0.  1.
    8880023    1    1    2    0    0 -0.94383881481E+03 -0.77305950893E+02 -0.35686996862E+03  0.12074660654E+04  0.65864270000E+03 0.  1.
    8880022    1    1    2    0    0  0.94383881481E+03  0.77305950893E+02  0.11127421420E+04  0.14691475916E+04  0.15294330000E+03 0.  0.
<mgrwt>
<rscale>  0 0.11015527E+04</rscale>
<asrwt>0</asrwt>
<pdfrwt beam="1">  1        2 0.26403737E+00 0.11535242E+04</pdfrwt>
<pdfrwt beam="2">  1       -2 0.14774935E+00 0.11535242E+04</pdfrwt>
<totfact> 0.29268170E+00</totfact>
</mgrwt>
</event>
<event>
 4    5  0.8237295E-008  0.1565176E+04  0.7818608E-02  0.8864933E-01
         -2   -1    0    0    0  501 -0.00000000000E+00  0.00000000000E+00  0.18745959305E+04  0.18745959305E+04  0.25500000000E-02 0.  1.
          2   -1    0    0  501    0  0.00000000000E+00 -0.00000000000E+00 -0.26470164615E+04  0.26470164615E+04  0.25500000000E-02 0. -1.
    8880023    1    1    2    0    0  0.12835826866E+02 -0.14197893080E+04  0.12795396909E+04  0.20216326235E+04  0.65864270000E+03 0.  0.
    8880022    1    1    2    0    0 -0.12835826866E+02  0.14197893080E+04 -0.20519602218E+04  0.24999797685E+04  0.15294330000E+03 0.  0.
<mgrwt>
<rscale>  0 0.15297100E+04</rscale>
<asrwt>0</asrwt>
<pdfrwt beam="1">  1        2 0.40723330E+00 0.15651762E+04</pdfrwt>
<pdfrwt beam="2">  1       -2 0.28839937E+00 0.15651762E+04</pdfrwt>
<totfact> 0.99434521E-02</totfact>
</mgrwt>
</event>
<event>
 4    5  0.7289609E-008  0.6802689E+03  0.7818608E-02  0.1009172E+00
          2   -1    0    0  501    0  0.00000000000E+00  0.00000000000E+00  0.30225233724E+03  0.30225233725E+03  0.25500000000E-02 0. -1.
         -2   -1    0    0    0  501 -0.00000000000E+00 -0.00000000000E+00 -0.68650689020E+03  0.68650689020E+03  0.25500000000E-02 0.  1.
    8880023    1    1    2    0    0  0.29734121929E+02 -0.16754522871E+03 -0.25886656715E+03  0.72785824686E+03  0.65864270000E+03 0.  0.
    8880022    1    1    2    0    0 -0.29734121929E+02  0.16754522871E+03 -0.12538798581E+03  0.26090098059E+03  0.15294330000E+03 0. -1.
<mgrwt>
<rscale>  0 0.51805050E+03</rscale>
<asrwt>0</asrwt>
<pdfrwt beam="1">  1        2 0.46500360E-01 0.68026886E+03</pdfrwt>
<pdfrwt beam="2">  1       -2 0.10561644E+00 0.68026886E+03</pdfrwt>
<totfact> 0.79987045E+01</totfact>
</mgrwt>
</event>
<event>
 4    5  0.7289609E-008  0.7172586E+03  0.7818608E-02  0.9931973E-01
          2   -1    0    0  501    0  0.00000000000E+00  0.00000000000E+00  0.17295631346E+04  0.17295631346E+04  0.25500000000E-02 0. -1.
         -2   -1    0    0    0  501 -0.00000000000E+00 -0.00000000000E+00 -0.17410707354E+03  0.17410707356E+03  0.25500000000E-02 0.  1.
    8880023    1    1    2    0    0 -0.28203665448E+03 -0.33242717139E+02  0.75856053496E+03  0.10439703272E+04  0.65864270000E+03 0.  0.
    8880022    1    1    2    0    0  0.28203665448E+03  0.33242717139E+02  0.79689552605E+03  0.85969988087E+03  0.15294330000E+03 0.  0.
<mgrwt>
<rscale>  0 0.58736440E+03</rscale>
<asrwt>0</asrwt>
<pdfrwt beam="1">  1        2 0.26608664E+00 0.71725864E+03</pdfrwt>
<pdfrwt beam="2">  1       -2 0.26785703E-01 0.71725864E+03</pdfrwt>
<totfact> 0.12218140E+02</totfact>
</mgrwt>
</event>
<event>
 4    5  0.7289609E-008  0.7800474E+03  0.7818608E-02  0.9755726E-01
          2   -1    0    0  501    0  0.00000000000E+00  0.00000000000E+00  0.13082320433E+04  0.13082320433E+04  0.25500000000E-02 0. -1.
         -2   -1    0    0    0  501 -0.00000000000E+00 -0.00000000000E+00 -0.10438032439E+04  0.10438032439E+04  0.25500000000E-02 0.  1.
    8880023    1    1    2    0    0  0.30168112275E+03 -0.28922699681E+03 -0.84901149986E+03  0.11529503409E+04  0.65864270000E+03 0.  1.
    8880022    1    1    2    0    0 -0.30168112275E+03  0.28922699681E+03  0.11134402992E+04  0.11990849463E+04  0.15294330000E+03 0.  0.
<mgrwt>
<rscale>  0 0.67793661E+03</rscale>
<asrwt>0</asrwt>
<pdfrwt beam="1">  1        2 0.20126647E+00 0.78004741E+03</pdfrwt>
<pdfrwt beam="2">  1       -2 0.16058511E+00 0.78004741E+03</pdfrwt>
<totfact> 0.41568338E+00</totfact>
</mgrwt>
</event>
<event>
 4    5  0.7289609E-008  0.1056678E+04  0.7818608E-02  0.9310896E-01
          2   -1    0    0  501    0  0.00000000000E+00  0.00000000000E+00  0.18551953998E+04  0.18551953998E+04  0.25500000000E-02 0. -1.
         -2   -1    0    0    0  501 -0.00000000000E+00 -0.00000000000E+00 -0.60460546320E+03  0.60460546320E+03  0.25500000000E-02 0.  1.
    8880023    1    1    2    0    0 -0.37417087492E+02 -0.82544425492E+03  0.13818939557E+03  0.10656757348E+04  0.65864270000E+03 0.  0.
    8880022    1    1    2    0    0  0.37417087492E+02  0.82544425492E+03  0.11124005411E+04  0.13941251282E+04  0.15294330000E+03 0.  0.
<mgrwt>
<rscale>  0 0.99785887E+03</rscale>
<asrwt>0</asrwt>
<pdfrwt beam="1">  1        2 0.28541467E+00 0.10566780E+04</pdfrwt>
<pdfrwt beam="2">  1       -2 0.93016226E-01 0.10566780E+04</pdfrwt>
<totfact> 0.78183457E+00</totfact>
</mgrwt>
</event>
<event>
 4    5  0.7289609E-008  0.6702200E+03  0.7818608E-02  0.1015506E+00
         -2   -1    0    0    0  501 -0.00000000000E+00  0.00000000000E+00  0.14953334062E+03  0.14953334064E+03  0.25500000000E-02 0.  1.
          2   -1    0    0  501    0  0.00000000000E+00 -0.00000000000E+00 -0.16501621290E+04  0.16501621290E+04  0.25500000000E-02 0. -1.
    8880023    1    1    2    0    0 -0.31108263588E+01  0.12399608702E+03 -0.67618622437E+03  0.95206235254E+03  0.65864270000E+03 0.  1.
    8880022    1    1    2    0    0  0.31108263588E+01 -0.12399608702E+03 -0.82444256404E+03  0.84763311713E+03  0.15294330000E+03 0.  0.
<mgrwt>
<rscale>  0 0.49343953E+03</rscale>
<asrwt>0</asrwt>
<pdfrwt beam="1">  1        2 0.25387108E+00 0.67022005E+03</pdfrwt>
<pdfrwt beam="2">  1       -2 0.23005130E-01 0.67022005E+03</pdfrwt>
<totfact> 0.17835367E+02</totfact>
</mgrwt>
</event>
<event>
 4    5  0.7289609E-008  0.1669108E+04  0.7818608E-02  0.8798620E-01
          2   -1    0    0  501    0  0.00000000000E+00  0.00000000000E+00  0.13679776764E+04  0.13679776764E+04  0.25500000000E-02 0. -1.
         -2   -1    0    0    0  501 -0.00000000000E+00 -0.00000000000E+00 -0.19833656582E+04  0.19833656582E+04  0.25500000000E-02 0.  1.
    8880023    1    1    2    0    0 -0.15048854909E+04 -0.29568841651E+03 -0.69499697799E+03  0.18080218433E+04  0.65864270000E+03 0.  0.
    8880022    1    1    2    0    0  0.15048854909E+04  0.29568841651E+03  0.79608996181E+02  0.15433214913E+04  0.15294330000E+03 0.  0.
<mgrwt>
<rscale>  0 0.16361866E+04</rscale>
<asrwt>0</asrwt>
<pdfrwt beam="1">  1        2 0.21045810E+00 0.16691082E+04</pdfrwt>
<pdfrwt beam="2">  1       -2 0.30513318E+00 0.16691082E+04</pdfrwt>
<totfact> 0.41365301E-01</totfact>
</mgrwt>
</event>
<event>
 4    5  0.7289609E-008  0.8768819E+03  0.7818608E-02  0.9564212E-01
         -2   -1    0    0    0  501 -0.00000000000E+00  0.00000000000E+00  0.10605302737E+04  0.10605302737E+04  0.25500000000E-02 0.  1.
          2   -1    0    0  501    0  0.00000000000E+00 -0.00000000000E+00 -0.96723816908E+03  0.96723816908E+03  0.25500000000E-02 0. -1.
    8880023    1    1    2    0    0 -0.48275619449E+02 -0.57687180138E+03  0.73930733456E+03  0.11469512421E+04  0.65864270000E+03 0.  1.
    8880022    1    1    2    0    0  0.48275619449E+02  0.57687180138E+03 -0.64601522993E+03  0.88081720066E+03  0.15294330000E+03 0.  0.
<mgrwt>
<rscale>  0 0.79710853E+03</rscale>
<asrwt>0</asrwt>
<pdfrwt beam="1">  1        2 0.14880587E+00 0.87688187E+03</pdfrwt>
<pdfrwt beam="2">  1       -2 0.16315850E+00 0.87688187E+03</pdfrwt>
<totfact> 0.63400797E+00</totfact>
</mgrwt>
</event>
<event>
 4    5  0.7289609E-008  0.6927619E+03  0.7818608E-02  0.1002867E+00
         -2   -1    0    0    0  501 -0.00000000000E+00  0.00000000000E+00  0.89908917420E+03  0.89908917420E+03  0.25500000000E-02 0.  1.
          2   -1    0    0  501    0  0.00000000000E+00 -0.00000000000E+00 -0.13086798871E+04  0.13086798871E+04  0.25500000000E-02 0. -1.
    8880023    1    1    2    0    0  0.17248900223E+03  0.12789214762E+03  0.74859533859E+03  0.10199578641E+04  0.65864270000E+03 0.  1.
    8880022    1    1    2    0    0 -0.17248900223E+03 -0.12789214762E+03 -0.11581860515E+04  0.11878111972E+04  0.15294330000E+03 0.  0.
<mgrwt>
<rscale>  0 0.54410974E+03</rscale>
<asrwt>0</asrwt>
<pdfrwt beam="1">  1        2 0.20133537E+00 0.69276191E+03</pdfrwt>
<pdfrwt beam="2">  1       -2 0.13832141E+00 0.69276191E+03</pdfrwt>
<totfact> 0.62425289E+00</totfact>
</mgrwt>
</event>
<event>
 4    5  0.7289609E-008  0.8487495E+03  0.7818608E-02  0.9613898E-01
         -2   -1    0    0    0  501 -0.00000000000E+00  0.00000000000E+00  0.46620266544E+03  0.46620266545E+03  0.25500000000E-02 0.  1.
          2   -1    0    0  501    0  0.00000000000E+00 -0.00000000000E+00 -0.12244455261E+04  0.12244455261E+04  0.25500000000E-02 0. -1.
    8880023    1    1    2    0    0 -0.46869573585E+03  0.25863060509E+03 -0.14267172868E+03  0.86065725531E+03  0.65864270000E+03 0.  1.
    8880022    1    1    2    0    0  0.46869573585E+03 -0.25863060509E+03 -0.61557113196E+03  0.82999093622E+03  0.15294330000E+03 0.  0.
<mgrwt>
<rscale>  0 0.76383112E+03</rscale>
<asrwt>0</asrwt>
<pdfrwt beam="1">  1        2 0.18837623E+00 0.84874949E+03</pdfrwt>
<pdfrwt beam="2">  1       -2 0.71723488E-01 0.84874949E+03</pdfrwt>
<totfact> 0.32575143E+01</totfact>
</mgrwt>
</event>
<event>
 4    5  0.7289609E-008  0.1478489E+04  0.7818608E-02  0.8924977E-01
          2   -1    0    0  501    0  0.00000000000E+00  0.00000000000E+00  0.21997150516E+04  0.21997150516E+04  0.25500000000E-02 0. -1.
         -2   -1    0    0    0  501 -0.00000000000E+00 -0.00000000000E+00 -0.10657880612E+04  0.10657880612E+04  0.25500000000E-02 0.  1.
    8880023    1    1    2    0    0 -0.71020875758E+03  0.11170152184E+04 -0.55281545001E+02  0.14795221299E+04  0.65864270000E+03 0.  0.
    8880022    1    1    2    0    0  0.71020875758E+03 -0.11170152184E+04  0.11892085354E+04  0.17859809829E+04  0.15294330000E+03 0.  0.
<mgrwt>
<rscale>  0 0.14405522E+04</rscale>
<asrwt>0</asrwt>
<pdfrwt beam="1">  1        2 0.33841770E+00 0.14784890E+04</pdfrwt>
<pdfrwt beam="2">  1       -2 0.16396740E+00 0.14784890E+04</pdfrwt>
<totfact> 0.11493210E+00</totfact>
</mgrwt>
</event>
<event>
 4    5  0.7289609E-008  0.9583708E+03  0.7818608E-02  0.9438171E-01
          2   -1    0    0  501    0  0.00000000000E+00  0.00000000000E+00  0.99895277148E+03  0.99895277149E+03  0.25500000000E-02 0. -1.
         -2   -1    0    0    0  501 -0.00000000000E+00 -0.00000000000E+00 -0.10034141017E+04  0.10034141017E+04  0.25500000000E-02 0.  1.
    8880023    1    1    2    0    0  0.47692254104E+03 -0.50715806538E+03 -0.54981841995E+03  0.11048868334E+04  0.65864270000E+03 0.  0.
    8880022    1    1    2    0    0 -0.47692254104E+03  0.50715806538E+03  0.54535708975E+03  0.89748003977E+03  0.15294330000E+03 0.  0.
<mgrwt>
<rscale>  0 0.88999822E+03</rscale>
<asrwt>0</asrwt>
<pdfrwt beam="1">  1        2 0.15368504E+00 0.95837082E+03</pdfrwt>
<pdfrwt beam="2">  1       -2 0.15437140E+00 0.95837082E+03</pdfrwt>
<totfact> 0.69680221E+00</totfact>
</mgrwt>
</event>
<event>
 4    5  0.7289609E-008  0.7273941E+03  0.7818608E-02  0.9898317E-01
         -2   -1    0    0    0  501 -0.00000000000E+00  0.00000000000E+00  0.14092447422E+04  0.14092447422E+04  0.25500000000E-02 0.  1.
          2   -1    0    0  501    0  0.00000000000E+00 -0.00000000000E+00 -0.12331916175E+04  0.12331916175E+04  0.25500000000E-02 0. -1.
    8880023    1    1    2    0    0  0.20772942676E+03 -0.22834299806E+03  0.12875290153E+04  0.14787945128E+04  0.65864270000E+03 0.  1.
    8880022    1    1    2    0    0 -0.20772942676E+03  0.22834299806E+03 -0.11114758906E+04  0.11636418469E+04  0.15294330000E+03 0.  0.
<mgrwt>
<rscale>  0 0.60342908E+03</rscale>
<asrwt>0</asrwt>
<pdfrwt beam="1">  1        2 0.18972179E+00 0.72739415E+03</pdfrwt>
<pdfrwt beam="2">  1       -2 0.21680688E+00 0.72739415E+03</pdfrwt>
<totfact> 0.19389424E+00</totfact>
</mgrwt>
</event>
<event>
 4    5  0.7289609E-008  0.9196530E+03  0.7818608E-02  0.9495191E-01
         -2   -1    0    0    0  501 -0.00000000000E+00  0.00000000000E+00  0.67081012835E+03  0.67081012835E+03  0.25500000000E-02 0.  1.
          2   -1    0    0  501    0  0.00000000000E+00 -0.00000000000E+00 -0.93462693164E+03  0.93462693165E+03  0.25500000000E-02 0. -1.
    8880023    1    1    2    0    0  0.12087360896E+03  0.63034988294E+03 -0.96177902292E+02  0.92466848082E+03  0.65864270000E+03 0. -1.
    8880022    1    1    2    0    0 -0.12087360896E+03 -0.63034988294E+03 -0.16763890100E+03  0.68076857918E+03  0.15294330000E+03 0.  1.
<mgrwt>
<rscale>  0 0.84639276E+03</rscale>
<asrwt>0</asrwt>
<pdfrwt beam="1">  1        2 0.14378876E+00 0.91965298E+03</pdfrwt>
<pdfrwt beam="2">  1       -2 0.10320156E+00 0.91965298E+03</pdfrwt>
<totfact> 0.21300127E+01</totfact>
</mgrwt>
</event>
<event>
 4    5  0.7289609E-008  0.1084021E+04  0.7818608E-02  0.9279059E-01
          2   -1    0    0  501    0  0.00000000000E+00  0.00000000000E+00  0.36175882670E+04  0.36175882670E+04  0.25500000000E-02 0. -1.
         -2   -1    0    0    0  501 -0.00000000000E+00 -0.00000000000E+00 -0.29125577775E+03  0.29125577776E+03  0.25500000000E-02 0.  1.
    8880023    1    1    2    0    0  0.71950653848E+03  0.47286506613E+03  0.12421630121E+04  0.16486570852E+04  0.65864270000E+03 0.  0.
    8880022    1    1    2    0    0 -0.71950653848E+03 -0.47286506613E+03  0.20841694771E+04  0.22601869595E+04  0.15294330000E+03 0.  0.
<mgrwt>
<rscale>  0 0.10273381E+04</rscale>
<asrwt>0</asrwt>
<pdfrwt beam="1">  1        2 0.55655211E+00 0.10840209E+04</pdfrwt>
<pdfrwt beam="2">  1       -2 0.44808576E-01 0.10840209E+04</pdfrwt>
<totfact> 0.32547789E+00</totfact>
</mgrwt>
</event>
<event>
 4    5  0.7289609E-008  0.9909796E+03  0.7818608E-02  0.9393455E-01
          2   -1    0    0  501    0  0.00000000000E+00  0.00000000000E+00  0.14434889363E+04  0.14434889363E+04  0.25500000000E-02 0. -1.
         -2   -1    0    0    0  501 -0.00000000000E+00 -0.00000000000E+00 -0.59644554531E+03  0.59644554532E+03  0.25500000000E-02 0.  1.
    8880023    1    1    2    0    0 -0.73705906700E+03  0.70528329856E+02  0.13276983653E+03  0.99983416090E+03  0.65864270000E+03 0.  0.
    8880022    1    1    2    0    0  0.73705906700E+03 -0.70528329856E+02  0.71427355448E+03  0.10401003207E+04  0.15294330000E+03 0.  0.
<mgrwt>
<rscale>  0 0.92616239E+03</rscale>
<asrwt>0</asrwt>
<pdfrwt beam="1">  1        2 0.22207522E+00 0.99097958E+03</pdfrwt>
<pdfrwt beam="2">  1       -2 0.91760853E-01 0.99097958E+03</pdfrwt>
<totfact> 0.13762807E+01</totfact>
</mgrwt>
</event>
<event>
 4    5  0.7289609E-008  0.9631452E+03  0.7818608E-02  0.9431448E-01
         -2   -1    0    0    0  501 -0.00000000000E+00  0.00000000000E+00  0.10719321684E+04  0.10719321684E+04  0.25500000000E-02 0.  1.
          2   -1    0    0  501    0  0.00000000000E+00 -0.00000000000E+00 -0.89575002021E+03  0.89575002021E+03  0.25500000000E-02 0. -1.
    8880023    1    1    2    0    0  0.61002280232E+03 -0.34887048343E+03  0.59822210993E+03  0.11338070086E+04  0.65864270000E+03 0.  1.
    8880022    1    1    2    0    0 -0.61002280232E+03  0.34887048343E+03 -0.42203996176E+03  0.83387518005E+03  0.15294330000E+03 0.  0.
<mgrwt>
<rscale>  0 0.89532207E+03</rscale>
<asrwt>0</asrwt>
<pdfrwt beam="1">  1        2 0.13780770E+00 0.96314518E+03</pdfrwt>
<pdfrwt beam="2">  1       -2 0.16491264E+00 0.96314518E+03</pdfrwt>
<totfact> 0.68086716E+00</totfact>
</mgrwt>
</event>
<event>
 4    5  0.7289609E-008  0.8325680E+03  0.7818608E-02  0.9644356E-01
         -2   -1    0    0    0  501 -0.00000000000E+00  0.00000000000E+00  0.67943661286E+03  0.67943661287E+03  0.25500000000E-02 0.  1.
          2   -1    0    0  501    0  0.00000000000E+00 -0.00000000000E+00 -0.10364328136E+04  0.10364328136E+04  0.25500000000E-02 0. -1.
    8880023    1    1    2    0    0 -0.88088894015E+02  0.50159709960E+03  0.28706277500E+03  0.88066710319E+03  0.65864270000E+03 0.  1.
    8880022    1    1    2    0    0  0.88088894015E+02 -0.50159709960E+03 -0.64405897577E+03  0.83520232331E+03  0.15294330000E+03 0.  0.
<mgrwt>
<rscale>  0 0.74428678E+03</rscale>
<asrwt>0</asrwt>
<pdfrwt beam="1">  1        2 0.15945120E+00 0.83256802E+03</pdfrwt>
<pdfrwt beam="2">  1       -2 0.10452871E+00 0.83256802E+03</pdfrwt>
<totfact> 0.17891246E+01</totfact>
</mgrwt>
</event>
<event>
 4    5  0.7289609E-008  0.8675651E+03  0.7818608E-02  0.9580246E-01
          2   -1    0    0  501    0  0.00000000000E+00  0.00000000000E+00  0.11676457313E+04  0.11676457313E+04  0.25500000000E-02 0. -1.
         -2   -1    0    0    0  501 -0.00000000000E+00 -0.00000000000E+00 -0.10826048467E+04  0.10826048467E+04  0.25500000000E-02 0.  1.
    8880023    1    1    2    0    0  0.56022497317E+03  0.70759721201E+02 -0.80608702962E+03  0.11842489030E+04  0.65864270000E+03 0.  1.
    8880022    1    1    2    0    0 -0.56022497317E+03 -0.70759721201E+02  0.89112791419E+03  0.10660016750E+04  0.15294330000E+03 0.  0.
<mgrwt>
<rscale>  0 0.78617563E+03</rscale>
<asrwt>0</asrwt>
<pdfrwt beam="1">  1        2 0.17963780E+00 0.86756508E+03</pdfrwt>
<pdfrwt beam="2">  1       -2 0.16655459E+00 0.86756508E+03</pdfrwt>
<totfact> 0.44970960E+00</totfact>
</mgrwt>
</event>
<event>
 4    5  0.7289609E-008  0.9391185E+03  0.7818608E-02  0.9465946E-01
         -2   -1    0    0    0  501 -0.00000000000E+00  0.00000000000E+00  0.40326675456E+03  0.40326675457E+03  0.25500000000E-02 0.  1.
          2   -1    0    0  501    0  0.00000000000E+00 -0.00000000000E+00 -0.33735608246E+04  0.33735608246E+04  0.25500000000E-02 0. -1.
    8880023    1    1    2    0    0  0.16272907782E+03  0.64934779922E+03 -0.25087236221E+03  0.97204962091E+03  0.65864270000E+03 0.  0.
    8880022    1    1    2    0    0 -0.16272907782E+03 -0.64934779922E+03 -0.27194217078E+04  0.28047779583E+04  0.15294330000E+03 0.  0.
<mgrwt>
<rscale>  0 0.86841712E+03</rscale>
<asrwt>0</asrwt>
<pdfrwt beam="1">  1        2 0.51900934E+00 0.93911848E+03</pdfrwt>
<pdfrwt beam="2">  1       -2 0.62041041E-01 0.93911848E+03</pdfrwt>
<totfact> 0.25008045E+00</totfact>
</mgrwt>
</event>
<event>
 4    5  0.7289609E-008  0.1021913E+04  0.7818608E-02  0.9353434E-01
         -2   -1    0    0    0  501 -0.00000000000E+00  0.00000000000E+00  0.45941585747E+03  0.45941585748E+03  0.25500000000E-02 0.  1.
          2   -1    0    0  501    0  0.00000000000E+00 -0.00000000000E+00 -0.19177135531E+04  0.19177135531E+04  0.25500000000E-02 0. -1.
    8880023    1    1    2    0    0 -0.77296279485E+03 -0.11412735980E+03 -0.52013734704E+03  0.11466689158E+04  0.65864270000E+03 0. -1.
    8880022    1    1    2    0    0  0.77296279485E+03  0.11412735980E+03 -0.93816034859E+03  0.12304604948E+04  0.15294330000E+03 0.  0.
<mgrwt>
<rscale>  0 0.96009037E+03</rscale>
<asrwt>0</asrwt>
<pdfrwt beam="1">  1        2 0.29503285E+00 0.10219133E+04</pdfrwt>
<pdfrwt beam="2">  1       -2 0.70679364E-01 0.10219133E+04</pdfrwt>
<totfact> 0.13504782E+01</totfact>
</mgrwt>
</event>
<event>
 4    5  0.7289609E-008  0.8367969E+03  0.7818608E-02  0.9636250E-01
         -2   -1    0    0    0  501 -0.00000000000E+00  0.00000000000E+00  0.84900349015E+03  0.84900349016E+03  0.25500000000E-02 0.  1.
          2   -1    0    0  501    0  0.00000000000E+00 -0.00000000000E+00 -0.35762721627E+04  0.35762721627E+04  0.25500000000E-02 0. -1.
    8880023    1    1    2    0    0  0.21970320686E+03  0.46706458518E+03  0.61591331059E+03  0.10390275445E+04  0.65864270000E+03 0.  0.
    8880022    1    1    2    0    0 -0.21970320686E+03 -0.46706458518E+03 -0.33431819832E+04  0.33862481084E+04  0.15294330000E+03 0.  0.
<mgrwt>
<rscale>  0 0.74942694E+03</rscale>
<asrwt>0</asrwt>
<pdfrwt beam="1">  1        2 0.55019571E+00 0.83679689E+03</pdfrwt>
<pdfrwt beam="2">  1       -2 0.13061592E+00 0.83679689E+03</pdfrwt>
<totfact> 0.32969860E-01</totfact>
</mgrwt>
</event>
<event>
 4    5  0.7289609E-008  0.8404990E+03  0.7818608E-02  0.9629240E-01
         -2   -1    0    0    0  501 -0.00000000000E+00  0.00000000000E+00  0.13307600024E+04  0.13307600025E+04  0.25500000000E-02 0.  1.
          2   -1    0    0  501    0  0.00000000000E+00 -0.00000000000E+00 -0.65436972189E+03  0.65436972190E+03  0.25500000000E-02 0. -1.
    8880023    1    1    2    0    0  0.30404777611E+03  0.42448005954E+03  0.10351581019E+04  0.13334132417E+04  0.65864270000E+03 0.  1.
    8880022    1    1    2    0    0 -0.30404777611E+03 -0.42448005954E+03 -0.35876782130E+03  0.65171648262E+03  0.15294330000E+03 0.  0.
<mgrwt>
<rscale>  0 0.75390746E+03</rscale>
<asrwt>0</asrwt>
<pdfrwt beam="1">  1        2 0.10067227E+00 0.84049900E+03</pdfrwt>
<pdfrwt beam="2">  1       -2 0.20473231E+00 0.84049900E+03</pdfrwt>
<totfact> 0.55805193E+00</totfact>
</mgrwt>
</event>
<event>
 4    5  0.7289609E-008  0.1049726E+04  0.7818608E-02  0.9319211E-01
          2   -1    0    0  501    0  0.00000000000E+00  0.00000000000E+00  0.27129390700E+04  0.27129390700E+04  0.25500000000E-02 0. -1.
         -2   -1    0    0    0  501 -0.00000000000E+00 -0.00000000000E+00 -0.67014013650E+03  0.67014013651E+03  0.25500000000E-02 0.  1.
    8880023    1    1    2    0    0  0.54891712273E+03  0.60564347484E+03 -0.12890487288E+03  0.10576108447E+04  0.65864270000E+03 0.  0.
    8880022    1    1    2    0    0 -0.54891712273E+03 -0.60564347484E+03  0.21717038064E+04  0.23254683618E+04  0.15294330000E+03 0.  0.
<mgrwt>
<rscale>  0 0.99033327E+03</rscale>
<asrwt>0</asrwt>
<pdfrwt beam="1">  1        2 0.41737524E+00 0.10497258E+04</pdfrwt>
<pdfrwt beam="2">  1       -2 0.10309848E+00 0.10497258E+04</pdfrwt>
<totfact> 0.20141977E+00</totfact>
</mgrwt>
</event>
<event>
 4    5  0.7289609E-008  0.7181073E+03  0.7818608E-02  0.9929043E-01
          2   -1    0    0  501    0  0.00000000000E+00  0.00000000000E+00  0.22227512342E+04  0.22227512342E+04  0.25500000000E-02 0. -1.
         -2   -1    0    0    0  501 -0.00000000000E+00 -0.00000000000E+00 -0.44960867894E+03  0.44960867895E+03  0.25500000000E-02 0.  1.
    8880023    1    1    2    0    0  0.55140841587E+01  0.28607257488E+03 -0.14023415716E+03  0.73167188570E+03  0.65864270000E+03 0.  1.
    8880022    1    1    2    0    0 -0.55140841587E+01 -0.28607257488E+03  0.19133767124E+04  0.19406880274E+04  0.15294330000E+03 0.  0.
<mgrwt>
<rscale>  0 0.58874159E+03</rscale>
<asrwt>0</asrwt>
<pdfrwt beam="1">  1        2 0.34196174E+00 0.71810732E+03</pdfrwt>
<pdfrwt beam="2">  1       -2 0.69170564E-01 0.71810732E+03</pdfrwt>
<totfact> 0.10009232E+01</totfact>
</mgrwt>
</event>
<event>
 4    5  0.7289609E-008  0.1104182E+04  0.7818608E-02  0.9256414E-01
          2   -1    0    0  501    0  0.00000000000E+00  0.00000000000E+00  0.18344101962E+04  0.18344101962E+04  0.25500000000E-02 0. -1.
         -2   -1    0    0    0  501 -0.00000000000E+00 -0.00000000000E+00 -0.11222042211E+04  0.11222042211E+04  0.25500000000E-02 0.  1.
    8880023    1    1    2    0    0  0.86798082573E+03  0.17893367125E+03 -0.68177535870E+03  0.12977040566E+04  0.65864270000E+03 0.  0.
    8880022    1    1    2    0    0 -0.86798082573E+03 -0.17893367125E+03  0.13939813338E+04  0.16589103606E+04  0.15294330000E+03 0.  0.
<mgrwt>
<rscale>  0 0.10489642E+04</rscale>
<asrwt>0</asrwt>
<pdfrwt beam="1">  1        2 0.28221695E+00 0.11041821E+04</pdfrwt>
<pdfrwt beam="2">  1       -2 0.17264680E+00 0.11041821E+04</pdfrwt>
<totfact> 0.16555903E+00</totfact>
</mgrwt>
</event>
<event>
 4    5  0.7289609E-008  0.9288111E+03  0.7818608E-02  0.9481279E-01
         -2   -1    0    0    0  501 -0.00000000000E+00  0.00000000000E+00  0.94465529392E+03  0.94465529392E+03  0.25500000000E-02 0.  1.
          2   -1    0    0  501    0  0.00000000000E+00 -0.00000000000E+00 -0.20794105058E+04  0.20794105059E+04  0.25500000000E-02 0. -1.
    8880023    1    1    2    0    0  0.14639010056E+03  0.63831799844E+03  0.63880605218E+03  0.11272813789E+04  0.65864270000E+03 0.  1.
    8880022    1    1    2    0    0 -0.14639010056E+03 -0.63831799844E+03 -0.17735612641E+04  0.18967844209E+04  0.15294330000E+03 0.  0.
<mgrwt>
<rscale>  0 0.85678228E+03</rscale>
<asrwt>0</asrwt>
<pdfrwt beam="1">  1        2 0.31990931E+00 0.92881114E+03</pdfrwt>
<pdfrwt beam="2">  1       -2 0.14533158E+00 0.92881114E+03</pdfrwt>
<totfact> 0.19833430E+00</totfact>
</mgrwt>
</event>
<event>
 4    5  0.7289609E-008  0.1291428E+04  0.7818608E-02  0.9072998E-01
         -2   -1    0    0    0  501 -0.00000000000E+00  0.00000000000E+00  0.60312294677E+03  0.60312294678E+03  0.25500000000E-02 0.  1.
          2   -1    0    0  501    0  0.00000000000E+00 -0.00000000000E+00 -0.32304335331E+04  0.32304335331E+04  0.25500000000E-02 0. -1.
    8880023    1    1    2    0    0  0.33790476951E+03  0.10582040804E+04 -0.42043260766E+03  0.13581418530E+04  0.65864270000E+03 0.  1.
    8880022    1    1    2    0    0 -0.33790476951E+03 -0.10582040804E+04 -0.22068779787E+04  0.24754146269E+04  0.15294330000E+03 0.  0.
<mgrwt>
<rscale>  0 0.12466236E+04</rscale>
<asrwt>0</asrwt>
<pdfrwt beam="1">  1        2 0.49698976E+00 0.12914278E+04</pdfrwt>
<pdfrwt beam="2">  1       -2 0.92788148E-01 0.12914278E+04</pdfrwt>
<totfact> 0.11999124E+00</totfact>
</mgrwt>
</event>
<event>
 4    5  0.7289609E-008  0.7945477E+03  0.7818608E-02  0.9722711E-01
          2   -1    0    0  501    0  0.00000000000E+00  0.00000000000E+00  0.13922141859E+04  0.13922141859E+04  0.25500000000E-02 0. -1.
         -2   -1    0    0    0  501 -0.00000000000E+00 -0.00000000000E+00 -0.30444862416E+03  0.30444862418E+03  0.25500000000E-02 0.  1.
    8880023    1    1    2    0    0  0.40845092454E+03 -0.17511070813E+03  0.47965910684E+03  0.92810504949E+03  0.65864270000E+03 0.  1.
    8880022    1    1    2    0    0 -0.40845092454E+03  0.17511070813E+03  0.60810645491E+03  0.76855776060E+03  0.15294330000E+03 0. -1.
<mgrwt>
<rscale>  0 0.69680524E+03</rscale>
<asrwt>0</asrwt>
<pdfrwt beam="1">  1        2 0.21418680E+00 0.79454775E+03</pdfrwt>
<pdfrwt beam="2">  1       -2 0.46838250E-01 0.79454775E+03</pdfrwt>
<totfact> 0.64121397E+01</totfact>
</mgrwt>
</event>
<event>
 4    5  0.7289609E-008  0.1767117E+04  0.7818608E-02  0.8740947E-01
          2   -1    0    0  501    0  0.00000000000E+00  0.00000000000E+00  0.25126905435E+04  0.25126905435E+04  0.25500000000E-02 0. -1.
         -2   -1    0    0    0  501 -0.00000000000E+00 -0.00000000000E+00 -0.15872555724E+04  0.15872555724E+04  0.25500000000E-02 0.  1.
    8880023    1    1    2    0    0 -0.72972309103E+03 -0.14684679196E+04 -0.58888814566E+03  0.18626575839E+04  0.65864270000E+03 0.  0.
    8880022    1    1    2    0    0  0.72972309103E+03  0.14684679196E+04  0.15143231168E+04  0.22372885320E+04  0.15294330000E+03 0.  0.
<mgrwt>
<rscale>  0 0.17362649E+04</rscale>
<asrwt>0</asrwt>
<pdfrwt beam="1">  1        2 0.38656777E+00 0.17671174E+04</pdfrwt>
<pdfrwt beam="2">  1       -2 0.24419317E+00 0.17671174E+04</pdfrwt>
<totfact> 0.21746669E-01</totfact>
</mgrwt>
</event>
<event>
 4    5  0.7289609E-008  0.1595427E+04  0.7818608E-02  0.8845034E-01
         -2   -1    0    0    0  501 -0.00000000000E+00  0.00000000000E+00  0.82116032038E+03  0.82116032039E+03  0.25500000000E-02 0.  1.
          2   -1    0    0  501    0  0.00000000000E+00 -0.00000000000E+00 -0.29747433582E+04  0.29747433582E+04  0.25500000000E-02 0. -1.
    8880023    1    1    2    0    0  0.80872650303E+03 -0.12072861406E+04 -0.72503256875E+03  0.17524442399E+04  0.65864270000E+03 0.  0.
    8880022    1    1    2    0    0 -0.80872650303E+03  0.12072861406E+04 -0.14285504690E+04  0.20434594387E+04  0.15294330000E+03 0.  0.
<mgrwt>
<rscale>  0 0.15607443E+04</rscale>
<asrwt>0</asrwt>
<pdfrwt beam="1">  1        2 0.45765282E+00 0.15954274E+04</pdfrwt>
<pdfrwt beam="2">  1       -2 0.12633236E+00 0.15954274E+04</pdfrwt>
<totfact> 0.79401342E-01</totfact>
</mgrwt>
</event>
<event>
 4    5  0.7289609E-008  0.1574116E+04  0.7818608E-02  0.8858999E-01
          2   -1    0    0  501    0  0.00000000000E+00  0.00000000000E+00  0.16544297357E+04  0.16544297357E+04  0.25500000000E-02 0. -1.
         -2   -1    0    0    0  501 -0.00000000000E+00 -0.00000000000E+00 -0.15521477318E+04  0.15521477318E+04  0.25500000000E-02 0.  1.
    8880023    1    1    2    0    0 -0.12103509859E+04 -0.76097449639E+03 -0.49425633329E+03  0.16498882455E+04  0.65864270000E+03 0.  0.
    8880022    1    1    2    0    0  0.12103509859E+04  0.76097449639E+03  0.59653833715E+03  0.15566892220E+04  0.15294330000E+03 0.  0.
<mgrwt>
<rscale>  0 0.15388854E+04</rscale>
<asrwt>0</asrwt>
<pdfrwt beam="1">  1        2 0.25452765E+00 0.15741162E+04</pdfrwt>
<pdfrwt beam="2">  1       -2 0.23879196E+00 0.15741162E+04</pdfrwt>
<totfact> 0.73086324E-01</totfact>
</mgrwt>
</event>
<event>
 4    5  0.7289609E-008  0.7408651E+03  0.7818608E-02  0.9857434E-01
          2   -1    0    0  501    0  0.00000000000E+00  0.00000000000E+00  0.65228556246E+03  0.65228556247E+03  0.25500000000E-02 0. -1.
         -2   -1    0    0    0  501 -0.00000000000E+00 -0.00000000000E+00 -0.60785316248E+03  0.60785316249E+03  0.25500000000E-02 0.  1.
    8880023    1    1    2    0    0  0.18374880250E+03  0.28514426700E+03 -0.25394400734E+03  0.78317854960E+03  0.65864270000E+03 0.  0.
    8880022    1    1    2    0    0 -0.18374880250E+03 -0.28514426700E+03  0.29837640732E+03  0.47696017536E+03  0.15294330000E+03 0.  0.
<mgrwt>
<rscale>  0 0.62369302E+03</rscale>
<asrwt>0</asrwt>
<pdfrwt beam="1">  1        2 0.10035162E+00 0.74086509E+03</pdfrwt>
<pdfrwt beam="2">  1       -2 0.93515872E-01 0.74086509E+03</pdfrwt>
<totfact> 0.43867358E+01</totfact>
</mgrwt>
</event>
<event>
 4    5  0.7289609E-008  0.7669991E+03  0.7818608E-02  0.9787313E-01
         -2   -1    0    0    0  501 -0.00000000000E+00  0.00000000000E+00  0.89523654338E+03  0.89523654339E+03  0.25500000000E-02 0.  1.
          2   -1    0    0  501    0  0.00000000000E+00 -0.00000000000E+00 -0.94487785961E+03  0.94487785961E+03  0.25500000000E-02 0. -1.
    8880023    1    1    2    0    0 -0.39007253633E+03 -0.48175739865E+02  0.66180814607E+03  0.10130536580E+04  0.65864270000E+03 0.  1.
    8880022    1    1    2    0    0  0.39007253633E+03  0.48175739865E+02 -0.71144946230E+03  0.82706074500E+03  0.15294330000E+03 0.  0.
<mgrwt>
<rscale>  0 0.66047858E+03</rscale>
<asrwt>0</asrwt>
<pdfrwt beam="1">  1        2 0.14536583E+00 0.76699915E+03</pdfrwt>
<pdfrwt beam="2">  1       -2 0.13772870E+00 0.76699915E+03</pdfrwt>
<totfact> 0.10407284E+01</totfact>
</mgrwt>
</event>
<event>
 4    5  0.7289609E-008  0.7561078E+03  0.7818608E-02  0.9815290E-01
          2   -1    0    0  501    0  0.00000000000E+00  0.00000000000E+00  0.31937573437E+04  0.31937573437E+04  0.25500000000E-02 0. -1.
         -2   -1    0    0    0  501 -0.00000000000E+00 -0.00000000000E+00 -0.49073954613E+03  0.49073954613E+03  0.25500000000E-02 0.  1.
    8880023    1    1    2    0    0  0.46472281866E+02  0.36841429983E+03 -0.17705354198E+03  0.77656096496E+03  0.65864270000E+03 0.  1.
    8880022    1    1    2    0    0 -0.46472281866E+02 -0.36841429983E+03  0.28800713396E+04  0.29079359249E+04  0.15294330000E+03 0.  0.
<mgrwt>
<rscale>  0 0.64548401E+03</rscale>
<asrwt>0</asrwt>
<pdfrwt beam="1">  1        2 0.49134730E+00 0.75610778E+03</pdfrwt>
<pdfrwt beam="2">  1       -2 0.75498390E-01 0.75610778E+03</pdfrwt>
<totfact> 0.22108177E+00</totfact>
</mgrwt>
</event>
<event>
 4    5  0.7289609E-008  0.8703672E+03  0.7818608E-02  0.9575382E-01
         -2   -1    0    0    0  501 -0.00000000000E+00  0.00000000000E+00  0.60415890289E+03  0.60415890290E+03  0.25500000000E-02 0.  1.
          2   -1    0    0  501    0  0.00000000000E+00 -0.00000000000E+00 -0.10753696463E+04  0.10753696463E+04  0.25500000000E-02 0. -1.
    8880023    1    1    2    0    0  0.55075507167E+03  0.14282043149E+03  0.78286866206E+02  0.87388092113E+03  0.65864270000E+03 0.  0.
    8880022    1    1    2    0    0 -0.55075507167E+03 -0.14282043149E+03 -0.54949760960E+03  0.80564762806E+03  0.15294330000E+03 0.  0.
<mgrwt>
<rscale>  0 0.78947232E+03</rscale>
<asrwt>0</asrwt>
<pdfrwt beam="1">  1        2 0.16544148E+00 0.87036718E+03</pdfrwt>
<pdfrwt beam="2">  1       -2 0.92947523E-01 0.87036718E+03</pdfrwt>
<totfact> 0.22252882E+01</totfact>
</mgrwt>
</event>
<event>
 4    5  0.7289609E-008  0.1492638E+04  0.7818608E-02  0.8914852E-01
          2   -1    0    0  501    0  0.00000000000E+00  0.00000000000E+00  0.21235009320E+04  0.21235009320E+04  0.25500000000E-02 0. -1.
         -2   -1    0    0    0  501 -0.00000000000E+00 -0.00000000000E+00 -0.16163838884E+04  0.16163838884E+04  0.25500000000E-02 0.  1.
    8880023    1    1    2    0    0  0.12582588978E+04  0.45928350244E+03 -0.93851319779E+03  0.17631715794E+04  0.65864270000E+03 0.  0.
    8880022    1    1    2    0    0 -0.12582588978E+04 -0.45928350244E+03  0.14456302413E+04  0.19767132410E+04  0.15294330000E+03 0.  0.
<mgrwt>
<rscale>  0 0.14551291E+04</rscale>
<asrwt>0</asrwt>
<pdfrwt beam="1">  1        2 0.32669245E+00 0.14926376E+04</pdfrwt>
<pdfrwt beam="2">  1       -2 0.24867444E+00 0.14926376E+04</pdfrwt>
<totfact> 0.35019359E-01</totfact>
</mgrwt>
</event>
<event>
 4    5  0.7289609E-008  0.9830484E+03  0.7818608E-02  0.9404079E-01
         -2   -1    0    0    0  501 -0.00000000000E+00  0.00000000000E+00  0.78391418716E+03  0.78391418717E+03  0.25500000000E-02 0.  1.
          2   -1    0    0  501    0  0.00000000000E+00 -0.00000000000E+00 -0.14661546747E+04  0.14661546747E+04  0.25500000000E-02 0. -1.
    8880023    1    1    2    0    0  0.21266374619E+02  0.72946665628E+03  0.28990335373E+03  0.10249039087E+04  0.65864270000E+03 0.  0.
    8880022    1    1    2    0    0 -0.21266374619E+02 -0.72946665628E+03 -0.97214384126E+03  0.12251649532E+04  0.15294330000E+03 0.  0.
<mgrwt>
<rscale>  0 0.91740720E+03</rscale>
<asrwt>0</asrwt>
<pdfrwt beam="1">  1        2 0.22556226E+00 0.98304835E+03</pdfrwt>
<pdfrwt beam="2">  1       -2 0.12060218E+00 0.98304835E+03</pdfrwt>
<totfact> 0.69264883E+00</totfact>
</mgrwt>
</event>
<event>
 4    5  0.7289609E-008  0.7352613E+03  0.7818608E-02  0.9873972E-01
         -2   -1    0    0    0  501 -0.00000000000E+00  0.00000000000E+00  0.77832282225E+03  0.77832282225E+03  0.25500000000E-02 0.  1.
          2   -1    0    0  501    0  0.00000000000E+00 -0.00000000000E+00 -0.99715133942E+03  0.99715133943E+03  0.25500000000E-02 0. -1.
    8880023    1    1    2    0    0  0.20160386347E+03  0.25720589068E+03  0.55529494410E+03  0.92139115970E+03  0.65864270000E+03 0.  0.
    8880022    1    1    2    0    0 -0.20160386347E+03 -0.25720589068E+03 -0.77412346127E+03  0.85408300198E+03  0.15294330000E+03 0.  0.
<mgrwt>
<rscale>  0 0.61539471E+03</rscale>
<asrwt>0</asrwt>
<pdfrwt beam="1">  1        2 0.15340790E+00 0.73526131E+03</pdfrwt>
<pdfrwt beam="2">  1       -2 0.11974197E+00 0.73526131E+03</pdfrwt>
<totfact> 0.13754850E+01</totfact>
</mgrwt>
</event>
<event>
 4    5  0.7289609E-008  0.6801788E+03  0.7818608E-02  0.1009223E+00
          2   -1    0    0  501    0  0.00000000000E+00  0.00000000000E+00  0.91945728553E+03  0.91945728554E+03  0.25500000000E-02 0. -1.
         -2   -1    0    0    0  501 -0.00000000000E+00 -0.00000000000E+00 -0.34352120585E+03  0.34352120586E+03  0.25500000000E-02 0.  1.
    8880023    1    1    2    0    0  0.12301523803E+03  0.11704805847E+03  0.41163355309E+02  0.68142323475E+03  0.65864270000E+03 0.  0.
    8880022    1    1    2    0    0 -0.12301523803E+03 -0.11704805847E+03  0.53477272437E+03  0.58155525664E+03  0.15294330000E+03 0.  0.
<mgrwt>
<rscale>  0 0.51784735E+03</rscale>
<asrwt>0</asrwt>
<pdfrwt beam="1">  1        2 0.14145496E+00 0.68017880E+03</pdfrwt>
<pdfrwt beam="2">  1       -2 0.52849417E-01 0.68017880E+03</pdfrwt>
<totfact> 0.97839160E+01</totfact>
</mgrwt>
</event>
<event>
 4    5  0.7289609E-008  0.9593883E+03  0.7818608E-02  0.9436733E-01
          2   -1    0    0  501    0  0.00000000000E+00  0.00000000000E+00  0.41319839491E+03  0.41319839492E+03  0.25500000000E-02 0. -1.
         -2   -1    0    0    0  501 -0.00000000000E+00 -0.00000000000E+00 -0.30999388122E+04  0.30999388122E+04  0.25500000000E-02 0.  1.
    8880023    1    1    2    0    0 -0.35608898937E+03 -0.59984686629E+03 -0.26267553293E+04  0.27964744586E+04  0.65864270000E+03 0.  1.
    8880022    1    1    2    0    0  0.35608898937E+03  0.59984686629E+03 -0.59985088019E+02  0.71666274854E+03  0.15294330000E+03 0.  0.
<mgrwt>
<rscale>  0 0.89113366E+03</rscale>
<asrwt>0</asrwt>
<pdfrwt beam="1">  1        2 0.63568986E-01 0.95938826E+03</pdfrwt>
<pdfrwt beam="2">  1       -2 0.47691365E+00 0.95938826E+03</pdfrwt>
<totfact> 0.18164762E-01</totfact>
</mgrwt>
</event>
<event>
 4    5  0.7289609E-008  0.6699370E+03  0.7818608E-02  0.1015708E+00
          2   -1    0    0  501    0  0.00000000000E+00  0.00000000000E+00  0.77766081672E+03  0.77766081672E+03  0.25500000000E-02 0. -1.
         -2   -1    0    0    0  501 -0.00000000000E+00 -0.00000000000E+00 -0.15238572918E+04  0.15238572918E+04  0.25500000000E-02 0.  1.
    8880023    1    1    2    0    0  0.95264395732E+02  0.77007139348E+02 -0.14359127367E+04  0.15845065472E+04  0.65864270000E+03 0.  1.
    8880022    1    1    2    0    0 -0.95264395732E+02 -0.77007139348E+02  0.68971626156E+03  0.71701156133E+03  0.15294330000E+03 0.  0.
<mgrwt>
<rscale>  0 0.49267750E+03</rscale>
<asrwt>0</asrwt>
<pdfrwt beam="1">  1        2 0.11964013E+00 0.66993702E+03</pdfrwt>
<pdfrwt beam="2">  1       -2 0.23443958E+00 0.66993702E+03</pdfrwt>
<totfact> 0.29865928E+00</totfact>
</mgrwt>
</event>
<event>
 4    5  0.7289609E-008  0.7452822E+03  0.7818608E-02  0.9844819E-01
         -2   -1    0    0    0  501 -0.00000000000E+00  0.00000000000E+00  0.23797045879E+04  0.23797045879E+04  0.25500000000E-02 0.  1.
          2   -1    0    0  501    0  0.00000000000E+00 -0.00000000000E+00 -0.24765885636E+03  0.24765885638E+03  0.25500000000E-02 0. -1.
    8880023    1    1    2    0    0 -0.31921084704E+03 -0.14049829175E+03  0.21190805162E+04  0.22463187164E+04  0.65864270000E+03 0.  0.
    8880022    1    1    2    0    0  0.31921084704E+03  0.14049829175E+03  0.12965215286E+02  0.38104472792E+03  0.15294330000E+03 0.  0.
<mgrwt>
<rscale>  0 0.63011767E+03</rscale>
<asrwt>0</asrwt>
<pdfrwt beam="1">  1        2 0.38101362E-01 0.74528219E+03</pdfrwt>
<pdfrwt beam="2">  1       -2 0.36610840E+00 0.74528219E+03</pdfrwt>
<totfact> 0.17653733E+00</totfact>
</mgrwt>
</event>
<event>
 4    5  0.7289609E-008  0.1097997E+04  0.7818608E-02  0.9263290E-01
          2   -1    0    0  501    0  0.00000000000E+00  0.00000000000E+00  0.11433320903E+04  0.11433320903E+04  0.25500000000E-02 0. -1.
         -2   -1    0    0    0  501 -0.00000000000E+00 -0.00000000000E+00 -0.93221942299E+03  0.93221942299E+03  0.25500000000E-02 0.  1.
    8880023    1    1    2    0    0 -0.85747830920E+03  0.19109561865E+03 -0.16016927922E+03  0.11096174974E+04  0.65864270000E+03 0.  1.
    8880022    1    1    2    0    0  0.85747830920E+03 -0.19109561865E+03  0.37128194649E+03  0.96593401587E+03  0.15294330000E+03 0.  0.
<mgrwt>
<rscale>  0 0.10423387E+04</rscale>
<asrwt>0</asrwt>
<pdfrwt beam="1">  1        2 0.17589724E+00 0.10979967E+04</pdfrwt>
<pdfrwt beam="2">  1       -2 0.14341837E+00 0.10979967E+04</pdfrwt>
<totfact> 0.67896099E+00</totfact>
</mgrwt>
</event>
<event>
 4    5  0.7289609E-008  0.1167735E+04  0.7818608E-02  0.9189143E-01
          2   -1    0    0  501    0  0.00000000000E+00  0.00000000000E+00  0.27398787681E+04  0.27398787681E+04  0.25500000000E-02 0. -1.
         -2   -1    0    0    0  501 -0.00000000000E+00 -0.00000000000E+00 -0.11070962263E+04  0.11070962263E+04  0.25500000000E-02 0.  1.
    8880023    1    1    2    0    0  0.13242137706E+03 -0.95512250394E+03 -0.66963592506E+03  0.13461117699E+04  0.65864270000E+03 0.  1.
    8880022    1    1    2    0    0 -0.13242137706E+03  0.95512250394E+03  0.23024184668E+04  0.25008632246E+04  0.15294330000E+03 0.  0.
<mgrwt>
<rscale>  0 0.11166200E+04</rscale>
<asrwt>0</asrwt>
<pdfrwt beam="1">  1        2 0.42151980E+00 0.11677348E+04</pdfrwt>
<pdfrwt beam="2">  1       -2 0.17032250E+00 0.11677348E+04</pdfrwt>
<totfact> 0.52447486E-01</totfact>
</mgrwt>
</event>
<event>
 4    5  0.7289609E-008  0.1868052E+04  0.7818608E-02  0.8685798E-01
         -2   -1    0    0    0  501 -0.00000000000E+00  0.00000000000E+00  0.30327427675E+04  0.30327427675E+04  0.25500000000E-02 0.  1.
          2   -1    0    0  501    0  0.00000000000E+00 -0.00000000000E+00 -0.16151340539E+04  0.16151340539E+04  0.25500000000E-02 0. -1.
    8880023    1    1    2    0    0  0.67195712428E+03  0.16137782169E+04  0.20584848321E+04  0.27797439667E+04  0.65864270000E+03 0.  0.
    8880022    1    1    2    0    0 -0.67195712428E+03 -0.16137782169E+04 -0.64087611851E+03  0.18681328546E+04  0.15294330000E+03 0.  0.
<mgrwt>
<rscale>  0 0.18390619E+04</rscale>
<asrwt>0</asrwt>
<pdfrwt beam="1">  1        2 0.24848216E+00 0.18680516E+04</pdfrwt>
<pdfrwt beam="2">  1       -2 0.46657581E+00 0.18680516E+04</pdfrwt>
<totfact> 0.26520099E-02</totfact>
</mgrwt>
</event>
<event>
 4    5  0.7289609E-008  0.2068550E+04  0.7818608E-02  0.8586940E-01
         -2   -1    0    0    0  501 -0.00000000000E+00  0.00000000000E+00  0.21293416596E+04  0.21293416596E+04  0.25500000000E-02 0.  1.
          2   -1    0    0  501    0  0.00000000000E+00 -0.00000000000E+00 -0.24027808861E+04  0.24027808861E+04  0.25500000000E-02 0. -1.
    8880023    1    1    2    0    0 -0.15133998417E+04  0.12468808147E+04  0.88451323057E+03  0.22497254740E+04  0.65864270000E+03 0.  0.
    8880022    1    1    2    0    0  0.15133998417E+04 -0.12468808147E+04 -0.11579524571E+04  0.22823970717E+04  0.15294330000E+03 0.  0.
<mgrwt>
<rscale>  0 0.20426416E+04</rscale>
<asrwt>0</asrwt>
<pdfrwt beam="1">  1        2 0.36965860E+00 0.20685505E+04</pdfrwt>
<pdfrwt beam="2">  1       -2 0.32759102E+00 0.20685505E+04</pdfrwt>
<totfact> 0.74885991E-02</totfact>
</mgrwt>
</event>
<event>
 4    5  0.7289609E-008  0.8541002E+03  0.7818608E-02  0.9604145E-01
         -2   -1    0    0    0  501 -0.00000000000E+00  0.00000000000E+00  0.19139887780E+04  0.19139887780E+04  0.25500000000E-02 0.  1.
          2   -1    0    0  501    0  0.00000000000E+00 -0.00000000000E+00 -0.14369982784E+04  0.14369982784E+04  0.25500000000E-02 0. -1.
    8880023    1    1    2    0    0  0.98297521072E+02  0.53480323233E+03  0.17560557852E+04  0.19527465342E+04  0.65864270000E+03 0.  1.
    8880022    1    1    2    0    0 -0.98297521072E+02 -0.53480323233E+03 -0.12790652856E+04  0.13982405221E+04  0.15294330000E+03 0.  0.
<mgrwt>
<rscale>  0 0.77022411E+03</rscale>
<asrwt>0</asrwt>
<pdfrwt beam="1">  1        2 0.22107666E+00 0.85410017E+03</pdfrwt>
<pdfrwt beam="2">  1       -2 0.29445981E+00 0.85410017E+03</pdfrwt>
<totfact> 0.48783396E-01</totfact>
</mgrwt>
</event>
<event>
 4    5  0.7289609E-008  0.1592831E+04  0.7818608E-02  0.8846722E-01
          2   -1    0    0  501    0  0.00000000000E+00  0.00000000000E+00  0.40465048959E+04  0.40465048959E+04  0.25500000000E-02 0. -1.
         -2   -1    0    0    0  501 -0.00000000000E+00 -0.00000000000E+00 -0.62564695425E+03  0.62564695426E+03  0.25500000000E-02 0.  1.
    8880023    1    1    2    0    0  0.12223784265E+04  0.78044353524E+03  0.11167195389E+04  0.19452953154E+04  0.65864270000E+03 0.  0.
    8880022    1    1    2    0    0 -0.12223784265E+04 -0.78044353524E+03  0.23041384027E+04  0.27268565347E+04  0.15294330000E+03 0.  0.
<mgrwt>
<rscale>  0 0.15580824E+04</rscale>
<asrwt>0</asrwt>
<pdfrwt beam="1">  1        2 0.62253924E+00 0.15928312E+04</pdfrwt>
<pdfrwt beam="2">  1       -2 0.96253374E-01 0.15928312E+04</pdfrwt>
<totfact> 0.27211532E-01</totfact>
</mgrwt>
</event>
<event>
 4    5  0.7289609E-008  0.9024074E+03  0.7818608E-02  0.9522178E-01
         -2   -1    0    0    0  501 -0.00000000000E+00  0.00000000000E+00  0.62269796088E+03  0.62269796089E+03  0.25500000000E-02 0.  1.
          2   -1    0    0  501    0  0.00000000000E+00 -0.00000000000E+00 -0.12438648677E+04  0.12438648677E+04  0.25500000000E-02 0. -1.
    8880023    1    1    2    0    0 -0.61452689816E+03 -0.53717074687E+02  0.96947998122E+02  0.90760010648E+03  0.65864270000E+03 0.  1.
    8880022    1    1    2    0    0  0.61452689816E+03  0.53717074687E+02 -0.71811490490E+03  0.95896272208E+03  0.15294330000E+03 0.  0.
<mgrwt>
<rscale>  0 0.82668290E+03</rscale>
<asrwt>0</asrwt>
<pdfrwt beam="1">  1        2 0.19136383E+00 0.90240736E+03</pdfrwt>
<pdfrwt beam="2">  1       -2 0.95799686E-01 0.90240736E+03</pdfrwt>
<totfact> 0.16357813E+01</totfact>
</mgrwt>
</event>
<event>
 4    5  0.7289609E-008  0.7452429E+03  0.7818608E-02  0.9844930E-01
         -2   -1    0    0    0  501 -0.00000000000E+00  0.00000000000E+00  0.17601302768E+03  0.17601302770E+03  0.25500000000E-02 0.  1.
          2   -1    0    0  501    0  0.00000000000E+00 -0.00000000000E+00 -0.32889966079E+04  0.32889966079E+04  0.25500000000E-02 0. -1.
    8880023    1    1    2    0    0  0.32414546872E+03 -0.12847781237E+03 -0.70089209757E+03  0.10230526731E+04  0.65864270000E+03 0.  1.
    8880022    1    1    2    0    0 -0.32414546872E+03  0.12847781237E+03 -0.24120914827E+04  0.24419569625E+04  0.15294330000E+03 0.  0.
<mgrwt>
<rscale>  0 0.63006101E+03</rscale>
<asrwt>0</asrwt>
<pdfrwt beam="1">  1        2 0.50599944E+00 0.74524294E+03</pdfrwt>
<pdfrwt beam="2">  1       -2 0.27078930E-01 0.74524294E+03</pdfrwt>
<totfact> 0.15034244E+01</totfact>
</mgrwt>
</event>
<event>
 4    5  0.7289609E-008  0.6610945E+03  0.7818608E-02  0.1023062E+00
          2   -1    0    0  501    0  0.00000000000E+00  0.00000000000E+00  0.15669288390E+04  0.15669288390E+04  0.25500000000E-02 0. -1.
         -2   -1    0    0    0  501 -0.00000000000E+00 -0.00000000000E+00 -0.32165645455E+03  0.32165645456E+03  0.25500000000E-02 0.  1.
    8880023    1    1    2    0    0 -0.11867425847E+02  0.55632360947E+02  0.29332524283E+02  0.66174496494E+03  0.65864270000E+03 0.  1.
    8880022    1    1    2    0    0  0.11867425847E+02 -0.55632360947E+02  0.12159398602E+04  0.12268403287E+04  0.15294330000E+03 0.  0.
<mgrwt>
<rscale>  0 0.46597635E+03</rscale>
<asrwt>0</asrwt>
<pdfrwt beam="1">  1        2 0.24106598E+00 0.66109455E+03</pdfrwt>
<pdfrwt beam="2">  1       -2 0.49485608E-01 0.66109455E+03</pdfrwt>
<totfact> 0.46493778E+01</totfact>
</mgrwt>
</event>
<event>
 4    5  0.7289609E-008  0.7484288E+03  0.7818608E-02  0.9836041E-01
         -2   -1    0    0    0  501 -0.00000000000E+00  0.00000000000E+00  0.29651389849E+03  0.29651389850E+03  0.25500000000E-02 0.  1.
          2   -1    0    0  501    0  0.00000000000E+00 -0.00000000000E+00 -0.25840589542E+04  0.25840589542E+04  0.25500000000E-02 0. -1.
    8880023    1    1    2    0    0 -0.13243959639E+03 -0.32984119271E+03 -0.22424244861E+03  0.78130041669E+03  0.65864270000E+03 0.  1.
    8880022    1    1    2    0    0  0.13243959639E+03  0.32984119271E+03 -0.20633026071E+04  0.20992724360E+04  0.15294330000E+03 0.  0.
<mgrwt>
<rscale>  0 0.63463705E+03</rscale>
<asrwt>0</asrwt>
<pdfrwt beam="1">  1        2 0.39754752E+00 0.74842880E+03</pdfrwt>
<pdfrwt beam="2">  1       -2 0.45617525E-01 0.74842880E+03</pdfrwt>
<totfact> 0.14873102E+01</totfact>
</mgrwt>
</event>
<event>
 4    5  0.7289609E-008  0.1118784E+04  0.7818608E-02  0.9240425E-01
         -2   -1    0    0    0  501 -0.00000000000E+00  0.00000000000E+00  0.49232819891E+03  0.49232819892E+03  0.25500000000E-02 0.  1.
          2   -1    0    0  501    0  0.00000000000E+00 -0.00000000000E+00 -0.28741888774E+04  0.28741888774E+04  0.25500000000E-02 0. -1.
    8880023    1    1    2    0    0 -0.24233026890E+02 -0.90403609553E+03 -0.40958730531E+03  0.11914027315E+04  0.65864270000E+03 0.  1.
    8880022    1    1    2    0    0  0.24233026890E+02  0.90403609553E+03 -0.19722733732E+04  0.21751143448E+04  0.15294330000E+03 0.  0.
<mgrwt>
<rscale>  0 0.10645746E+04</rscale>
<asrwt>0</asrwt>
<pdfrwt beam="1">  1        2 0.44218289E+00 0.11187845E+04</pdfrwt>
<pdfrwt beam="2">  1       -2 0.75742801E-01 0.11187845E+04</pdfrwt>
<totfact> 0.32624159E+00</totfact>
</mgrwt>
</event>
<event>
 4    5  0.7289609E-008  0.9187193E+03  0.7818608E-02  0.9496625E-01
          2   -1    0    0  501    0  0.00000000000E+00  0.00000000000E+00  0.16285200219E+04  0.16285200220E+04  0.25500000000E-02 0. -1.
         -2   -1    0    0    0  501 -0.00000000000E+00 -0.00000000000E+00 -0.55487233860E+03  0.55487233860E+03  0.25500000000E-02 0.  1.
    8880023    1    1    2    0    0 -0.57295082470E+02 -0.63792808046E+03 -0.60379781240E+01  0.91873915001E+03  0.65864270000E+03 0.  1.
    8880022    1    1    2    0    0  0.57295082470E+02  0.63792808046E+03  0.10796856615E+04  0.12646532105E+04  0.15294330000E+03 0.  0.
<mgrwt>
<rscale>  0 0.84533067E+03</rscale>
<asrwt>0</asrwt>
<pdfrwt beam="1">  1        2 0.25054154E+00 0.91871931E+03</pdfrwt>
<pdfrwt beam="2">  1       -2 0.85364977E-01 0.91871931E+03</pdfrwt>
<totfact> 0.12905297E+01</totfact>
</mgrwt>
</event>
<event>
 4    5  0.7768523E-008  0.9783064E+03  0.7818608E-02  0.9410506E-01
         -2   -1    0    0    0  501 -0.00000000000E+00  0.00000000000E+00  0.18442359899E+04  0.18442359899E+04  0.25500000000E-02 0.  1.
          2   -1    0    0  501    0  0.00000000000E+00 -0.00000000000E+00 -0.14260165005E+04  0.14260165005E+04  0.25500000000E-02 0. -1.
    8880023    1    1    2    0    0 -0.36748858928E+03 -0.62307733158E+03  0.16005005308E+04  0.18758159237E+04  0.65864270000E+03 0.  1.
    8880022    1    1    2    0    0  0.36748858928E+03  0.62307733158E+03 -0.11822810415E+04  0.13944365667E+04  0.15294330000E+03 0.  0.
<mgrwt>
<rscale>  0 0.91216062E+03</rscale>
<asrwt>0</asrwt>
<pdfrwt beam="1">  1        2 0.21938715E+00 0.97830641E+03</pdfrwt>
<pdfrwt beam="2">  1       -2 0.28372861E+00 0.97830641E+03</pdfrwt>
<totfact> 0.56210897E-01</totfact>
</mgrwt>
</event>
<event>
 4    5  0.7289609E-008  0.9545241E+03  0.7818608E-02  0.9443634E-01
         -2   -1    0    0    0  501 -0.00000000000E+00  0.00000000000E+00  0.39880346552E+03  0.39880346553E+03  0.25500000000E-02 0.  1.
          2   -1    0    0  501    0  0.00000000000E+00 -0.00000000000E+00 -0.23963725598E+04  0.23963725598E+04  0.25500000000E-02 0. -1.
    8880023    1    1    2    0    0 -0.68980070296E+03 -0.38485471802E+02 -0.18360934544E+04  0.20693853002E+04  0.65864270000E+03 0. -1.
    8880022    1    1    2    0    0  0.68980070296E+03  0.38485471802E+02 -0.16147563991E+03  0.72579072510E+03  0.15294330000E+03 0.  0.
<mgrwt>
<rscale>  0 0.88570103E+03</rscale>
<asrwt>0</asrwt>
<pdfrwt beam="1">  1        2 0.36867269E+00 0.95452415E+03</pdfrwt>
<pdfrwt beam="2">  1       -2 0.61354381E-01 0.95452415E+03</pdfrwt>
<totfact> 0.10019596E+01</totfact>
</mgrwt>
</event>
<event>
 4    5  0.7289609E-008  0.1398466E+04  0.7818608E-02  0.8984875E-01
         -2   -1    0    0    0  501 -0.00000000000E+00  0.00000000000E+00  0.10255314788E+04  0.10255314788E+04  0.25500000000E-02 0.  1.
          2   -1    0    0  501    0  0.00000000000E+00 -0.00000000000E+00 -0.22661630504E+04  0.22661630504E+04  0.25500000000E-02 0. -1.
    8880023    1    1    2    0    0  0.11051943907E+04  0.54812739870E+03  0.17312712752E+03  0.14091421132E+04  0.65864270000E+03 0.  0.
    8880022    1    1    2    0    0 -0.11051943907E+04 -0.54812739870E+03 -0.14137586992E+04  0.18825524160E+04  0.15294330000E+03 0.  0.
<mgrwt>
<rscale>  0 0.13578922E+04</rscale>
<asrwt>0</asrwt>
<pdfrwt beam="1">  1        2 0.34864047E+00 0.13984665E+04</pdfrwt>
<pdfrwt beam="2">  1       -2 0.15777407E+00 0.13984665E+04</pdfrwt>
<totfact> 0.11817332E+00</totfact>
</mgrwt>
</event>
<event>
 4    5  0.7289609E-008  0.1144629E+04  0.7818608E-02  0.9212922E-01
          2   -1    0    0  501    0  0.00000000000E+00  0.00000000000E+00  0.20465383092E+04  0.20465383092E+04  0.25500000000E-02 0. -1.
         -2   -1    0    0    0  501 -0.00000000000E+00 -0.00000000000E+00 -0.65910929551E+03  0.65910929551E+03  0.25500000000E-02 0.  1.
    8880023    1    1    2    0    0  0.16654952361E+03  0.92120944558E+03  0.13308964661E+04  0.17554091250E+04  0.65864270000E+03 0. -1.
    8880022    1    1    2    0    0 -0.16654952361E+03 -0.92120944558E+03  0.56532547639E+02  0.95023847975E+03  0.15294330000E+03 0.  1.
<mgrwt>
<rscale>  0 0.10921047E+04</rscale>
<asrwt>0</asrwt>
<pdfrwt beam="1">  1        2 0.31485205E+00 0.11446291E+04</pdfrwt>
<pdfrwt beam="2">  1       -2 0.10140143E+00 0.11446291E+04</pdfrwt>
<totfact> 0.49523805E+00</totfact>
</mgrwt>
</event>
<event>
 4    5  0.7289609E-008  0.1172901E+04  0.7818608E-02  0.9183925E-01
          2   -1    0    0  501    0  0.00000000000E+00  0.00000000000E+00  0.11052117117E+04  0.11052117118E+04  0.25500000000E-02 0. -1.
         -2   -1    0    0    0  501 -0.00000000000E+00 -0.00000000000E+00 -0.18411511949E+04  0.18411511949E+04  0.25500000000E-02 0.  1.
    8880023    1    1    2    0    0  0.71000727167E+03 -0.66164626688E+03 -0.13495448554E+04  0.17880066083E+04  0.65864270000E+03 0.  0.
    8880022    1    1    2    0    0 -0.71000727167E+03  0.66164626688E+03  0.61360537218E+03  0.11583562984E+04  0.15294330000E+03 0.  0.
<mgrwt>
<rscale>  0 0.11220895E+04</rscale>
<asrwt>0</asrwt>
<pdfrwt beam="1">  1        2 0.17003257E+00 0.11729008E+04</pdfrwt>
<pdfrwt beam="2">  1       -2 0.28325403E+00 0.11729008E+04</pdfrwt>
<totfact> 0.85169153E-01</totfact>
</mgrwt>
</event>
<event>
 4    5  0.7289609E-008  0.1960630E+04  0.7818608E-02  0.8638528E-01
          2   -1    0    0  501    0  0.00000000000E+00  0.00000000000E+00  0.20368261838E+04  0.20368261838E+04  0.25500000000E-02 0. -1.
         -2   -1    0    0    0  501 -0.00000000000E+00 -0.00000000000E+00 -0.22038547071E+04  0.22038547071E+04  0.25500000000E-02 0.  1.
    8880023    1    1    2    0    0  0.97523836770E+02  0.18441114807E+04  0.83852466127E+03  0.21324145624E+04  0.65864270000E+03 0.  0.
    8880022    1    1    2    0    0 -0.97523836770E+02 -0.18441114807E+04 -0.10055531846E+04  0.21082663285E+04  0.15294330000E+03 0.  0.
<mgrwt>
<rscale>  0 0.19331527E+04</rscale>
<asrwt>0</asrwt>
<pdfrwt beam="1">  1        2 0.31335787E+00 0.19606296E+04</pdfrwt>
<pdfrwt beam="2">  1       -2 0.33905457E+00 0.19606296E+04</pdfrwt>
<totfact> 0.10362320E-01</totfact>
</mgrwt>
</event>
<event>
 4    5  0.7289609E-008  0.8301424E+03  0.7818608E-02  0.9649055E-01
         -2   -1    0    0    0  501 -0.00000000000E+00  0.00000000000E+00  0.21805645416E+03  0.21805645417E+03  0.25500000000E-02 0.  1.
          2   -1    0    0  501    0  0.00000000000E+00 -0.00000000000E+00 -0.23589640097E+04  0.23589640097E+04  0.25500000000E-02 0. -1.
    8880023    1    1    2    0    0  0.37509157674E+03  0.33857415509E+03 -0.87854690027E+03  0.12087104747E+04  0.65864270000E+03 0.  1.
    8880022    1    1    2    0    0 -0.37509157674E+03 -0.33857415509E+03 -0.12623606552E+04  0.13683099891E+04  0.15294330000E+03 0.  0.
<mgrwt>
<rscale>  0 0.74132735E+03</rscale>
<asrwt>0</asrwt>
<pdfrwt beam="1">  1        2 0.36291752E+00 0.83014237E+03</pdfrwt>
<pdfrwt beam="2">  1       -2 0.33547148E-01 0.83014237E+03</pdfrwt>
<totfact> 0.35843657E+01</totfact>
</mgrwt>
</event>
<event>
 4    5  0.7289609E-008  0.1792333E+04  0.7818608E-02  0.8726789E-01
         -2   -1    0    0    0  501 -0.00000000000E+00  0.00000000000E+00  0.13050459476E+04  0.13050459476E+04  0.25500000000E-02 0.  1.
          2   -1    0    0  501    0  0.00000000000E+00 -0.00000000000E+00 -0.30940863313E+04  0.30940863313E+04  0.25500000000E-02 0. -1.
    8880023    1    1    2    0    0  0.14079963487E+04 -0.89229699558E+03  0.19542309163E+03  0.18029553620E+04  0.65864270000E+03 0.  1.
    8880022    1    1    2    0    0 -0.14079963487E+04  0.89229699558E+03 -0.19844634753E+04  0.25961769170E+04  0.15294330000E+03 0.  0.
<mgrwt>
<rscale>  0 0.17619692E+04</rscale>
<asrwt>0</asrwt>
<pdfrwt beam="1">  1        2 0.47601328E+00 0.17923331E+04</pdfrwt>
<pdfrwt beam="2">  1       -2 0.20077630E+00 0.17923331E+04</pdfrwt>
<totfact> 0.18200604E-01</totfact>
</mgrwt>
</event>
<event>
 4    5  0.7289609E-008  0.7420862E+03  0.7818608E-02  0.9853911E-01
          2   -1    0    0  501    0  0.00000000000E+00  0.00000000000E+00  0.20829974012E+04  0.20829974012E+04  0.25500000000E-02 0. -1.
         -2   -1    0    0    0  501 -0.00000000000E+00 -0.00000000000E+00 -0.16343688425E+03  0.16343688427E+03  0.25500000000E-02 0.  1.
    8880023    1    1    2    0    0 -0.40629012279E+01 -0.34185546649E+03  0.93935866995E+03  0.11971159443E+04  0.65864270000E+03 0. -1.
    8880022    1    1    2    0    0  0.40629012279E+01  0.34185546649E+03  0.98020184696E+03  0.10493183411E+04  0.15294330000E+03 0.  0.
<mgrwt>
<rscale>  0 0.62547886E+03</rscale>
<asrwt>0</asrwt>
<pdfrwt beam="1">  1        2 0.32046109E+00 0.74208616E+03</pdfrwt>
<pdfrwt beam="2">  1       -2 0.25144140E-01 0.74208616E+03</pdfrwt>
<totfact> 0.87703224E+01</totfact>
</mgrwt>
</event>
<event>
 4    5  0.7289609E-008  0.9913131E+03  0.7818608E-02  0.9393012E-01
          2   -1    0    0  501    0  0.00000000000E+00  0.00000000000E+00  0.26538616583E+04  0.26538616583E+04  0.25500000000E-02 0. -1.
         -2   -1    0    0    0  501 -0.00000000000E+00 -0.00000000000E+00 -0.44325563262E+03  0.44325563263E+03  0.25500000000E-02 0.  1.
    8880023    1    1    2    0    0 -0.23397736462E+03 -0.70295520382E+03  0.28994635849E+03  0.10328458369E+04  0.65864270000E+03 0.  0.
    8880022    1    1    2    0    0  0.23397736462E+03  0.70295520382E+03  0.19206596672E+04  0.20642714540E+04  0.15294330000E+03 0.  0.
<mgrwt>
<rscale>  0 0.92653001E+03</rscale>
<asrwt>0</asrwt>
<pdfrwt beam="1">  1        2 0.40828641E+00 0.99131308E+03</pdfrwt>
<pdfrwt beam="2">  1       -2 0.68193175E-01 0.99131308E+03</pdfrwt>
<totfact> 0.56527642E+00</totfact>
</mgrwt>
</event>
<event>
 4    5  0.7289609E-008  0.8620505E+03  0.7818608E-02  0.9589926E-01
          2   -1    0    0  501    0  0.00000000000E+00  0.00000000000E+00  0.10998126957E+04  0.10998126957E+04  0.25500000000E-02 0. -1.
         -2   -1    0    0    0  501 -0.00000000000E+00 -0.00000000000E+00 -0.12331376882E+04  0.12331376882E+04  0.25500000000E-02 0.  1.
    8880023    1    1    2    0    0 -0.18088015673E+02  0.55587198082E+03 -0.98207278895E+03  0.13067509344E+04  0.65864270000E+03 0.  1.
    8880022    1    1    2    0    0  0.18088015673E+02 -0.55587198082E+03  0.84874779643E+03  0.10261994496E+04  0.15294330000E+03 0.  0.
<mgrwt>
<rscale>  0 0.77966522E+03</rscale>
<asrwt>0</asrwt>
<pdfrwt beam="1">  1        2 0.16920195E+00 0.86205049E+03</pdfrwt>
<pdfrwt beam="2">  1       -2 0.18971349E+00 0.86205049E+03</pdfrwt>
<totfact> 0.34203682E+00</totfact>
</mgrwt>
</event>
<event>
 4    5  0.7289609E-008  0.1595427E+04  0.7818608E-02  0.8845034E-01
         -2   -1    0    0    0  501 -0.00000000000E+00  0.00000000000E+00  0.56203690690E+03  0.56203690691E+03  0.25500000000E-02 0.  1.
          2   -1    0    0  501    0  0.00000000000E+00 -0.00000000000E+00 -0.45148387627E+04  0.45148387627E+04  0.25500000000E-02 0. -1.
    8880023    1    1    2    0    0  0.14404598623E+04 -0.19144500092E+03 -0.13410357402E+04  0.20841695866E+04  0.65864270000E+03 0.  0.
    8880022    1    1    2    0    0 -0.14404598623E+04  0.19144500092E+03 -0.26117661157E+04  0.29927060830E+04  0.15294330000E+03 0.  0.
<mgrwt>
<rscale>  0 0.15607435E+04</rscale>
<asrwt>0</asrwt>
<pdfrwt beam="1">  1        2 0.69459056E+00 0.15954266E+04</pdfrwt>
<pdfrwt beam="2">  1       -2 0.86467219E-01 0.15954266E+04</pdfrwt>
<totfact> 0.13389843E-01</totfact>
</mgrwt>
</event>
<event>
 4    5  0.7289609E-008  0.1292397E+04  0.7818608E-02  0.9072153E-01
          2   -1    0    0  501    0  0.00000000000E+00  0.00000000000E+00  0.22585156184E+04  0.22585156184E+04  0.25500000000E-02 0. -1.
         -2   -1    0    0    0  501 -0.00000000000E+00 -0.00000000000E+00 -0.80329250990E+03  0.80329250991E+03  0.25500000000E-02 0.  1.
    8880023    1    1    2    0    0  0.78392744281E+03 -0.78863052080E+03  0.91594958150E+02  0.12956389067E+04  0.65864270000E+03 0.  0.
    8880022    1    1    2    0    0 -0.78392744281E+03  0.78863052080E+03  0.13636281504E+04  0.17661692216E+04  0.15294330000E+03 0.  0.
<mgrwt>
<rscale>  0 0.12476357E+04</rscale>
<asrwt>0</asrwt>
<pdfrwt beam="1">  1        2 0.34746393E+00 0.12923972E+04</pdfrwt>
<pdfrwt beam="2">  1       -2 0.12358347E+00 0.12923972E+04</pdfrwt>
<totfact> 0.22855656E+00</totfact>
</mgrwt>
</event>
<event>
 4    5  0.7289609E-008  0.1667267E+04  0.7818608E-02  0.8799747E-01
         -2   -1    0    0    0  501 -0.00000000000E+00  0.00000000000E+00  0.23101849750E+04  0.23101849750E+04  0.25500000000E-02 0.  1.
          2   -1    0    0  501    0  0.00000000000E+00 -0.00000000000E+00 -0.19230079309E+04  0.19230079309E+04  0.25500000000E-02 0. -1.
    8880023    1    1    2    0    0 -0.11747070536E+04 -0.98286886750E+03  0.15714069287E+04  0.22910909659E+04  0.65864270000E+03 0.  1.
    8880022    1    1    2    0    0  0.11747070536E+04  0.98286886750E+03 -0.11842298846E+04  0.19421019399E+04  0.15294330000E+03 0.  0.
<mgrwt>
<rscale>  0 0.16343033E+04</rscale>
<asrwt>0</asrwt>
<pdfrwt beam="1">  1        2 0.29584737E+00 0.16672666E+04</pdfrwt>
<pdfrwt beam="2">  1       -2 0.35541307E+00 0.16672666E+04</pdfrwt>
<totfact> 0.97624133E-02</totfact>
</mgrwt>
</event>
<event>
 4    5  0.7289609E-008  0.1122355E+04  0.7818608E-02  0.9236566E-01
         -2   -1    0    0    0  501 -0.00000000000E+00  0.00000000000E+00  0.10341799546E+04  0.10341799546E+04  0.25500000000E-02 0.  1.
          2   -1    0    0  501    0  0.00000000000E+00 -0.00000000000E+00 -0.13345443509E+04  0.13345443509E+04  0.25500000000E-02 0. -1.
    8880023    1    1    2    0    0  0.69487526677E+03  0.58567813781E+03  0.42068597313E+03  0.11986064457E+04  0.65864270000E+03 0.  0.
    8880022    1    1    2    0    0 -0.69487526677E+03 -0.58567813781E+03 -0.72105036943E+03  0.11701178598E+04  0.15294330000E+03 0.  0.
<mgrwt>
<rscale>  0 0.10683853E+04</rscale>
<asrwt>0</asrwt>
<pdfrwt beam="1">  1        2 0.20531452E+00 0.11223550E+04</pdfrwt>
<pdfrwt beam="2">  1       -2 0.15910461E+00 0.11223550E+04</pdfrwt>
<totfact> 0.39522987E+00</totfact>
</mgrwt>
</event>
<event>
 4    5  0.7289609E-008  0.1540087E+04  0.7818608E-02  0.8881836E-01
         -2   -1    0    0    0  501 -0.00000000000E+00  0.00000000000E+00  0.83108040771E+03  0.83108040772E+03  0.25500000000E-02 0.  1.
          2   -1    0    0  501    0  0.00000000000E+00 -0.00000000000E+00 -0.26916418971E+04  0.26916418971E+04  0.25500000000E-02 0. -1.
    8880023    1    1    2    0    0  0.83836559958E+03  0.11113954572E+04 -0.65039459102E+03  0.16717894817E+04  0.65864270000E+03 0.  0.
    8880022    1    1    2    0    0 -0.83836559958E+03 -0.11113954572E+04 -0.12101668983E+04  0.18509328231E+04  0.15294330000E+03 0.  0.
<mgrwt>
<rscale>  0 0.15039416E+04</rscale>
<asrwt>0</asrwt>
<pdfrwt beam="1">  1        2 0.41409875E+00 0.15400867E+04</pdfrwt>
<pdfrwt beam="2">  1       -2 0.12785853E+00 0.15400867E+04</pdfrwt>
<totfact> 0.11501556E+00</totfact>
</mgrwt>
</event>
<event>
 4    5  0.7289609E-008  0.2064116E+04  0.7818608E-02  0.8588991E-01
          2   -1    0    0  501    0  0.00000000000E+00  0.00000000000E+00  0.37376419018E+04  0.37376419018E+04  0.25500000000E-02 0. -1.
         -2   -1    0    0    0  501 -0.00000000000E+00 -0.00000000000E+00 -0.14256379114E+04  0.14256379114E+04  0.25500000000E-02 0.  1.
    8880023    1    1    2    0    0 -0.19048341802E+04  0.44538748943E+03  0.24411657670E+04  0.31968521670E+04  0.65864270000E+03 0. -1.
    8880022    1    1    2    0    0  0.19048341802E+04 -0.44538748943E+03 -0.12916177654E+03  0.19664276461E+04  0.15294330000E+03 0.  0.
<mgrwt>
<rscale>  0 0.20381460E+04</rscale>
<asrwt>0</asrwt>
<pdfrwt beam="1">  1        2 0.57502183E+00 0.20641157E+04</pdfrwt>
<pdfrwt beam="2">  1       -2 0.21932891E+00 0.20641157E+04</pdfrwt>
<totfact> 0.48411294E-02</totfact>
</mgrwt>
</event>
<event>
 4    5  0.7289609E-008  0.7630983E+03  0.7818608E-02  0.9797151E-01
         -2   -1    0    0    0  501 -0.00000000000E+00  0.00000000000E+00  0.45871369547E+03  0.45871369548E+03  0.25500000000E-02 0.  1.
          2   -1    0    0  501    0  0.00000000000E+00 -0.00000000000E+00 -0.31426969038E+04  0.31426969038E+04  0.25500000000E-02 0. -1.
    8880023    1    1    2    0    0 -0.35683211726E+03  0.14553236616E+03  0.11515053094E+03  0.77173744275E+03  0.65864270000E+03 0.  1.
    8880022    1    1    2    0    0  0.35683211726E+03 -0.14553236616E+03 -0.27991337392E+04  0.28296731565E+04  0.15294330000E+03 0.  0.
<mgrwt>
<rscale>  0 0.65515643E+03</rscale>
<asrwt>0</asrwt>
<pdfrwt beam="1">  1        2 0.48349182E+00 0.76309831E+03</pdfrwt>
<pdfrwt beam="2">  1       -2 0.70571340E-01 0.76309831E+03</pdfrwt>
<totfact> 0.27593814E+00</totfact>
</mgrwt>
</event>
<event>
 4    5  0.7289609E-008  0.1083285E+04  0.7818608E-02  0.9279898E-01
          2   -1    0    0  501    0  0.00000000000E+00  0.00000000000E+00  0.27715585898E+04  0.27715585898E+04  0.25500000000E-02 0. -1.
         -2   -1    0    0    0  501 -0.00000000000E+00 -0.00000000000E+00 -0.52773442886E+03  0.52773442886E+03  0.25500000000E-02 0.  1.
    8880023    1    1    2    0    0 -0.83448221997E+03 -0.20817313175E+03  0.23461449814E+03  0.11084001070E+04  0.65864270000E+03 0.  0.
    8880022    1    1    2    0    0  0.83448221997E+03  0.20817313175E+03  0.20092096628E+04  0.21908929117E+04  0.15294330000E+03 0.  0.
<mgrwt>
<rscale>  0 0.10265473E+04</rscale>
<asrwt>0</asrwt>
<pdfrwt beam="1">  1        2 0.42639364E+00 0.10832852E+04</pdfrwt>
<pdfrwt beam="2">  1       -2 0.81189910E-01 0.10832852E+04</pdfrwt>
<totfact> 0.32300684E+00</totfact>
</mgrwt>
</event>
<event>
 4    5  0.7289609E-008  0.1214122E+04  0.7818608E-02  0.9143516E-01
         -2   -1    0    0    0  501 -0.00000000000E+00  0.00000000000E+00  0.52637678795E+03  0.52637678795E+03  0.25500000000E-02 0.  1.
          2   -1    0    0  501    0  0.00000000000E+00 -0.00000000000E+00 -0.46627069227E+04  0.46627069227E+04  0.25500000000E-02 0. -1.
    8880023    1    1    2    0    0 -0.63714793730E+03  0.79644449092E+03 -0.34819720334E+03  0.12630648518E+04  0.65864270000E+03 0.  0.
    8880022    1    1    2    0    0  0.63714793730E+03 -0.79644449092E+03 -0.37881329314E+04  0.39260188588E+04  0.15294330000E+03 0.  0.
<mgrwt>
<rscale>  0 0.11655950E+04</rscale>
<asrwt>0</asrwt>
<pdfrwt beam="1">  1        2 0.71733950E+00 0.12141217E+04</pdfrwt>
<pdfrwt beam="2">  1       -2 0.80981047E-01 0.12141217E+04</pdfrwt>
<totfact> 0.11721184E-01</totfact>
</mgrwt>
</event>
<event>
 4    5  0.7289609E-008  0.6809720E+03  0.7818608E-02  0.1008779E+00
         -2   -1    0    0    0  501 -0.00000000000E+00  0.00000000000E+00  0.47719332665E+03  0.47719332666E+03  0.25500000000E-02 0.  1.
          2   -1    0    0  501    0  0.00000000000E+00 -0.00000000000E+00 -0.11126353826E+04  0.11126353827E+04  0.25500000000E-02 0. -1.
    8880023    1    1    2    0    0 -0.14058195550E+03 -0.10074412909E+03  0.21064454750E+03  0.71280712497E+03  0.65864270000E+03 0.  1.
    8880022    1    1    2    0    0  0.14058195550E+03  0.10074412909E+03 -0.84608660350E+03  0.87702158434E+03  0.15294330000E+03 0.  0.
<mgrwt>
<rscale>  0 0.51962764E+03</rscale>
<asrwt>0</asrwt>
<pdfrwt beam="1">  1        2 0.17117467E+00 0.68097201E+03</pdfrwt>
<pdfrwt beam="2">  1       -2 0.73414358E-01 0.68097201E+03</pdfrwt>
<totfact> 0.36701171E+01</totfact>
</mgrwt>
</event>
<event>
 4    5  0.7289609E-008  0.1099524E+04  0.7818608E-02  0.9261586E-01
          2   -1    0    0  501    0  0.00000000000E+00  0.00000000000E+00  0.31140327485E+04  0.31140327485E+04  0.25500000000E-02 0. -1.
         -2   -1    0    0    0  501 -0.00000000000E+00 -0.00000000000E+00 -0.46979028176E+03  0.46979028177E+03  0.25500000000E-02 0.  1.
    8880023    1    1    2    0    0 -0.59051222254E+03  0.65302234366E+03  0.40308392277E+03  0.11710805785E+04  0.65864270000E+03 0.  1.
    8880022    1    1    2    0    0  0.59051222254E+03 -0.65302234366E+03  0.22411585439E+04  0.24127424517E+04  0.15294330000E+03 0.  0.
<mgrwt>
<rscale>  0 0.10439754E+04</rscale>
<asrwt>0</asrwt>
<pdfrwt beam="1">  1        2 0.47908197E+00 0.10995240E+04</pdfrwt>
<pdfrwt beam="2">  1       -2 0.72275427E-01 0.10995240E+04</pdfrwt>
<totfact> 0.25800020E+00</totfact>
</mgrwt>
</event>
<event>
 4    5  0.7289609E-008  0.8158716E+03  0.7818608E-02  0.9677474E-01
         -2   -1    0    0    0  501 -0.00000000000E+00  0.00000000000E+00  0.60017538708E+03  0.60017538708E+03  0.25500000000E-02 0.  1.
          2   -1    0    0  501    0  0.00000000000E+00 -0.00000000000E+00 -0.13784189668E+04  0.13784189668E+04  0.25500000000E-02 0. -1.
    8880023    1    1    2    0    0 -0.22395119418E+03  0.42624183266E+03  0.23273289902E+03  0.84841678781E+03  0.65864270000E+03 0.  1.
    8880022    1    1    2    0    0  0.22395119418E+03 -0.42624183266E+03 -0.10109764788E+04  0.11301775661E+04  0.15294330000E+03 0.  0.
<mgrwt>
<rscale>  0 0.72373966E+03</rscale>
<asrwt>0</asrwt>
<pdfrwt beam="1">  1        2 0.21206446E+00 0.81587159E+03</pdfrwt>
<pdfrwt beam="2">  1       -2 0.92334675E-01 0.81587159E+03</pdfrwt>
<totfact> 0.15039837E+01</totfact>
</mgrwt>
</event>
<event>
 4    5  0.7289609E-008  0.7136242E+03  0.7818608E-02  0.9944781E-01
          2   -1    0    0  501    0  0.00000000000E+00  0.00000000000E+00  0.39946484747E+04  0.39946484747E+04  0.25500000000E-02 0. -1.
         -2   -1    0    0    0  501 -0.00000000000E+00 -0.00000000000E+00 -0.12454958632E+03  0.12454958634E+03  0.25500000000E-02 0.  1.
    8880023    1    1    2    0    0 -0.27386501306E+03  0.21146873553E+02  0.98132337382E+03  0.12133651577E+04  0.65864270000E+03 0.  1.
    8880022    1    1    2    0    0  0.27386501306E+03 -0.21146873553E+02  0.28887755146E+04  0.29058329034E+04  0.15294330000E+03 0.  0.
<mgrwt>
<rscale>  0 0.58139225E+03</rscale>
<asrwt>0</asrwt>
<pdfrwt beam="1">  1        2 0.61456125E+00 0.71362416E+03</pdfrwt>
<pdfrwt beam="2">  1       -2 0.19161477E-01 0.71362416E+03</pdfrwt>
<totfact> 0.88236906E+00</totfact>
</mgrwt>
</event>
<event>
 4    5  0.7289609E-008  0.1034149E+04  0.7818608E-02  0.9338184E-01
         -2   -1    0    0    0  501 -0.00000000000E+00  0.00000000000E+00  0.17204486092E+04  0.17204486092E+04  0.25500000000E-02 0.  1.
          2   -1    0    0  501    0  0.00000000000E+00 -0.00000000000E+00 -0.17665080961E+04  0.17665080961E+04  0.25500000000E-02 0. -1.
    8880023    1    1    2    0    0  0.17412278014E+03 -0.77803255873E+03  0.14522605780E+04  0.17828416637E+04  0.65864270000E+03 0.  0.
    8880022    1    1    2    0    0 -0.17412278014E+03  0.77803255873E+03 -0.14983200649E+04  0.17041150416E+04  0.15294330000E+03 0.  0.
<mgrwt>
<rscale>  0 0.97342309E+03</rscale>
<asrwt>0</asrwt>
<pdfrwt beam="1">  1        2 0.27177048E+00 0.10341487E+04</pdfrwt>
<pdfrwt beam="2">  1       -2 0.26468440E+00 0.10341487E+04</pdfrwt>
<totfact> 0.46894278E-01</totfact>
</mgrwt>
</event>
<event>
 4    5  0.7289609E-008  0.7526512E+03  0.7818608E-02  0.9824518E-01
          2   -1    0    0  501    0  0.00000000000E+00  0.00000000000E+00  0.10970904311E+04  0.10970904311E+04  0.25500000000E-02 0. -1.
         -2   -1    0    0    0  501 -0.00000000000E+00 -0.00000000000E+00 -0.66302717336E+03  0.66302717336E+03  0.25500000000E-02 0.  1.
    8880023    1    1    2    0    0 -0.98111325478E+02 -0.35078171635E+03 -0.38894312227E+03  0.84720753263E+03  0.65864270000E+03 0.  1.
    8880022    1    1    2    0    0  0.98111325478E+02  0.35078171635E+03  0.82300638005E+03  0.91291007188E+03  0.15294330000E+03 0.  0.
<mgrwt>
<rscale>  0 0.64063199E+03</rscale>
<asrwt>0</asrwt>
<pdfrwt beam="1">  1        2 0.16878314E+00 0.75265121E+03</pdfrwt>
<pdfrwt beam="2">  1       -2 0.10200418E+00 0.75265121E+03</pdfrwt>
<totfact> 0.17537963E+01</totfact>
</mgrwt>
</event>
<event>
 4    5  0.7289609E-008  0.8304599E+03  0.7818608E-02  0.9648438E-01
          2   -1    0    0  501    0  0.00000000000E+00  0.00000000000E+00  0.17590042161E+04  0.17590042161E+04  0.25500000000E-02 0. -1.
         -2   -1    0    0    0  501 -0.00000000000E+00 -0.00000000000E+00 -0.80090410622E+03  0.80090410622E+03  0.25500000000E-02 0.  1.
    8880023    1    1    2    0    0  0.49855872753E+03 -0.85396605742E+02 -0.52702209350E+03  0.98357301629E+03  0.65864270000E+03 0.  0.
    8880022    1    1    2    0    0 -0.49855872753E+03  0.85396605742E+02  0.14851222034E+04  0.15763353060E+04  0.15294330000E+03 0.  0.
<mgrwt>
<rscale>  0 0.74171519E+03</rscale>
<asrwt>0</asrwt>
<pdfrwt beam="1">  1        2 0.27061603E+00 0.83045987E+03</pdfrwt>
<pdfrwt beam="2">  1       -2 0.12321602E+00 0.83045987E+03</pdfrwt>
<totfact> 0.46024704E+00</totfact>
</mgrwt>
</event>
<event>
 4    5  0.7289609E-008  0.7298391E+03  0.7818608E-02  0.9890599E-01
          2   -1    0    0  501    0  0.00000000000E+00  0.00000000000E+00  0.69423292619E+03  0.69423292619E+03  0.25500000000E-02 0. -1.
         -2   -1    0    0    0  501 -0.00000000000E+00 -0.00000000000E+00 -0.61317990210E+03  0.61317990210E+03  0.25500000000E-02 0.  1.
    8880023    1    1    2    0    0  0.26566161377E+03 -0.16816302928E+03 -0.30104451263E+03  0.78948901341E+03  0.65864270000E+03 0.  1.
    8880022    1    1    2    0    0 -0.26566161377E+03  0.16816302928E+03  0.38209753672E+03  0.51792381489E+03  0.15294330000E+03 0.  0.
<mgrwt>
<rscale>  0 0.60719043E+03</rscale>
<asrwt>0</asrwt>
<pdfrwt beam="1">  1        2 0.10680507E+00 0.72983909E+03</pdfrwt>
<pdfrwt beam="2">  1       -2 0.94335369E-01 0.72983909E+03</pdfrwt>
<totfact> 0.39806343E+01</totfact>
</mgrwt>
</event>
<event>
 4    5  0.7289609E-008  0.7583711E+03  0.7818608E-02  0.9809343E-01
         -2   -1    0    0    0  501 -0.00000000000E+00  0.00000000000E+00  0.18869279768E+03  0.18869279770E+03  0.25500000000E-02 0.  1.
          2   -1    0    0  501    0  0.00000000000E+00 -0.00000000000E+00 -0.33346017235E+04  0.33346017235E+04  0.25500000000E-02 0. -1.
    8880023    1    1    2    0    0  0.25478300326E+03  0.27640928248E+03 -0.66265084480E+03  0.10070912663E+04  0.65864270000E+03 0.  1.
    8880022    1    1    2    0    0 -0.25478300326E+03 -0.27640928248E+03 -0.24832580810E+04  0.25162032549E+04  0.15294330000E+03 0.  0.
<mgrwt>
<rscale>  0 0.64863547E+03</rscale>
<asrwt>0</asrwt>
<pdfrwt beam="1">  1        2 0.51301561E+00 0.75837107E+03</pdfrwt>
<pdfrwt beam="2">  1       -2 0.29029664E-01 0.75837107E+03</pdfrwt>
<totfact> 0.12326262E+01</totfact>
</mgrwt>
</event>
<event>
 4    5  0.7289609E-008  0.6660639E+03  0.7818608E-02  0.1018657E+00
         -2   -1    0    0    0  501 -0.00000000000E+00  0.00000000000E+00  0.25893627850E+03  0.25893627852E+03  0.25500000000E-02 0.  1.
          2   -1    0    0  501    0  0.00000000000E+00 -0.00000000000E+00 -0.10937476465E+04  0.10937476465E+04  0.25500000000E-02 0. -1.
    8880023    1    1    2    0    0 -0.91470537897E+02  0.38263023791E+02 -0.20480449076E+03  0.69684001320E+03  0.65864270000E+03 0.  1.
    8880022    1    1    2    0    0  0.91470537897E+02 -0.38263023791E+02 -0.63000687721E+03  0.65584391180E+03  0.15294330000E+03 0.  0.
<mgrwt>
<rscale>  0 0.48174374E+03</rscale>
<asrwt>0</asrwt>
<pdfrwt beam="1">  1        2 0.16826887E+00 0.66606390E+03</pdfrwt>
<pdfrwt beam="2">  1       -2 0.39836351E-01 0.66606390E+03</pdfrwt>
<totfact> 0.13357470E+02</totfact>
</mgrwt>
</event>
<event>
 4    5  0.7289609E-008  0.1127805E+04  0.7818608E-02  0.9230712E-01
          2   -1    0    0  501    0  0.00000000000E+00  0.00000000000E+00  0.31676118936E+04  0.31676118936E+04  0.25500000000E-02 0. -1.
         -2   -1    0    0    0  501 -0.00000000000E+00 -0.00000000000E+00 -0.44498899550E+03  0.44498899551E+03  0.25500000000E-02 0.  1.
    8880023    1    1    2    0    0  0.27473498685E+03  0.87330142782E+03  0.55995257180E+03  0.12591631291E+04  0.65864270000E+03 0.  0.
    8880022    1    1    2    0    0 -0.27473498685E+03 -0.87330142782E+03  0.21626703263E+04  0.23534377600E+04  0.15294330000E+03 0.  0.
<mgrwt>
<rscale>  0 0.10741976E+04</rscale>
<asrwt>0</asrwt>
<pdfrwt beam="1">  1        2 0.48732489E+00 0.11278053E+04</pdfrwt>
<pdfrwt beam="2">  1       -2 0.68459847E-01 0.11278053E+04</pdfrwt>
<totfact> 0.26770264E+00</totfact>
</mgrwt>
</event>
<event>
 4    5  0.7289609E-008  0.6963004E+03  0.7818608E-02  0.1001291E+00
         -2   -1    0    0    0  501 -0.00000000000E+00  0.00000000000E+00  0.15083472507E+03  0.15083472510E+03  0.25500000000E-02 0.  1.
          2   -1    0    0  501    0  0.00000000000E+00 -0.00000000000E+00 -0.22833858944E+04  0.22833858944E+04  0.25500000000E-02 0. -1.
    8880023    1    1    2    0    0 -0.21741875669E+03  0.61262993080E+02 -0.74351278851E+03  0.10186488811E+04  0.65864270000E+03 0.  1.
    8880022    1    1    2    0    0  0.21741875669E+03 -0.61262993080E+02 -0.13890383809E+04  0.14155717384E+04  0.15294330000E+03 0.  0.
<mgrwt>
<rscale>  0 0.55087819E+03</rscale>
<asrwt>0</asrwt>
<pdfrwt beam="1">  1        2 0.35129011E+00 0.69630042E+03</pdfrwt>
<pdfrwt beam="2">  1       -2 0.23205344E-01 0.69630042E+03</pdfrwt>
<totfact> 0.79010560E+01</totfact>
</mgrwt>
</event>
<event>
 4    5  0.7289609E-008  0.7841123E+03  0.7818608E-02  0.9746264E-01
         -2   -1    0    0    0  501 -0.00000000000E+00  0.00000000000E+00  0.37844633515E+03  0.37844633516E+03  0.25500000000E-02 0.  1.
          2   -1    0    0  501    0  0.00000000000E+00 -0.00000000000E+00 -0.27716713175E+04  0.27716713175E+04  0.25500000000E-02 0. -1.
    8880023    1    1    2    0    0  0.69503022313E+02 -0.41975143834E+03 -0.74408218928E+02  0.78763489601E+03  0.65864270000E+03 0.  1.
    8880022    1    1    2    0    0 -0.69503022313E+02  0.41975143834E+03 -0.23188167634E+04  0.23624827566E+04  0.15294330000E+03 0.  0.
<mgrwt>
<rscale>  0 0.68327799E+03</rscale>
<asrwt>0</asrwt>
<pdfrwt beam="1">  1        2 0.42641096E+00 0.78411233E+03</pdfrwt>
<pdfrwt beam="2">  1       -2 0.58222515E-01 0.78411233E+03</pdfrwt>
<totfact> 0.69783861E+00</totfact>
</mgrwt>
</event>
<event>
 4    5  0.7289609E-008  0.1168497E+04  0.7818608E-02  0.9188370E-01
          2   -1    0    0  501    0  0.00000000000E+00  0.00000000000E+00  0.20496270737E+04  0.20496270737E+04  0.25500000000E-02 0. -1.
         -2   -1    0    0    0  501 -0.00000000000E+00 -0.00000000000E+00 -0.80862257831E+03  0.80862257832E+03  0.25500000000E-02 0.  1.
    8880023    1    1    2    0    0 -0.42144122424E+03 -0.86831039012E+03  0.14466531654E+04  0.18596212588E+04  0.65864270000E+03 0. -1.
    8880022    1    1    2    0    0  0.42144122424E+03  0.86831039012E+03 -0.20564867005E+03  0.99862839314E+03  0.15294330000E+03 0.  0.
<mgrwt>
<rscale>  0 0.11174275E+04</rscale>
<asrwt>0</asrwt>
<pdfrwt beam="1">  1        2 0.31532724E+00 0.11684973E+04</pdfrwt>
<pdfrwt beam="2">  1       -2 0.12440347E+00 0.11684973E+04</pdfrwt>
<totfact> 0.29798186E+00</totfact>
</mgrwt>
</event>
<event>
 4    5  0.7289609E-008  0.1336760E+04  0.7818608E-02  0.9034448E-01
         -2   -1    0    0    0  501 -0.00000000000E+00  0.00000000000E+00  0.95478001085E+03  0.95478001086E+03  0.25500000000E-02 0.  1.
          2   -1    0    0  501    0  0.00000000000E+00 -0.00000000000E+00 -0.36968976392E+04  0.36968976392E+04  0.25500000000E-02 0. -1.
    8880023    1    1    2    0    0 -0.65228869013E+03  0.96313940150E+03  0.31825146990E+03  0.13741223549E+04  0.65864270000E+03 0.  0.
    8880022    1    1    2    0    0  0.65228869013E+03 -0.96313940150E+03 -0.30603690982E+04  0.32775552951E+04  0.15294330000E+03 0.  0.
<mgrwt>
<rscale>  0 0.12938609E+04</rscale>
<asrwt>0</asrwt>
<pdfrwt beam="1">  1        2 0.56875347E+00 0.13367604E+04</pdfrwt>
<pdfrwt beam="2">  1       -2 0.14688923E+00 0.13367604E+04</pdfrwt>
<totfact> 0.18183873E-01</totfact>
</mgrwt>
</event>
<event>
 4    5  0.8086220E-008  0.1715779E+04  0.7818608E-02  0.8770613E-01
         -2   -1    0    0    0  501 -0.00000000000E+00  0.00000000000E+00  0.22946908737E+04  0.22946908737E+04  0.25500000000E-02 0.  1.
          2   -1    0    0  501    0  0.00000000000E+00 -0.00000000000E+00 -0.25536612857E+04  0.25536612857E+04  0.25500000000E-02 0. -1.
    8880023    1    1    2    0    0  0.41669930436E+03  0.15285447079E+04  0.16379670696E+04  0.23720947623E+04  0.65864270000E+03 0.  0.
    8880022    1    1    2    0    0 -0.41669930436E+03 -0.15285447079E+04 -0.18969374816E+04  0.24762573970E+04  0.15294330000E+03 0.  0.
<mgrwt>
<rscale>  0 0.16838782E+04</rscale>
<asrwt>0</asrwt>
<pdfrwt beam="1">  1        2 0.39287097E+00 0.17157790E+04</pdfrwt>
<pdfrwt beam="2">  1       -2 0.35302937E+00 0.17157790E+04</pdfrwt>
<totfact> 0.44037082E-02</totfact>
</mgrwt>
</event>
<event>
 4    5  0.7289609E-008  0.1132420E+04  0.7818608E-02  0.9225791E-01
         -2   -1    0    0    0  501 -0.00000000000E+00  0.00000000000E+00  0.73229095546E+03  0.73229095546E+03  0.25500000000E-02 0.  1.
          2   -1    0    0  501    0  0.00000000000E+00 -0.00000000000E+00 -0.32170006157E+04  0.32170006157E+04  0.25500000000E-02 0. -1.
    8880023    1    1    2    0    0 -0.28937422571E+03  0.87454424273E+03  0.16083601447E+03  0.11437847284E+04  0.65864270000E+03 0.  0.
    8880022    1    1    2    0    0  0.28937422571E+03 -0.87454424273E+03 -0.26455456747E+04  0.28055068428E+04  0.15294330000E+03 0.  0.
<mgrwt>
<rscale>  0 0.10791145E+04</rscale>
<asrwt>0</asrwt>
<pdfrwt beam="1">  1        2 0.49492316E+00 0.11324201E+04</pdfrwt>
<pdfrwt beam="2">  1       -2 0.11266015E+00 0.11324201E+04</pdfrwt>
<totfact> 0.78571459E-01</totfact>
</mgrwt>
</event>
<event>
 4    5  0.7289609E-008  0.9002840E+03  0.7818608E-02  0.9525576E-01
         -2   -1    0    0    0  501 -0.00000000000E+00  0.00000000000E+00  0.69828439713E+03  0.69828439713E+03  0.25500000000E-02 0.  1.
          2   -1    0    0  501    0  0.00000000000E+00 -0.00000000000E+00 -0.25984958120E+04  0.25984958120E+04  0.25500000000E-02 0. -1.
    8880023    1    1    2    0    0 -0.34129237517E+03 -0.51011817517E+03  0.34503493576E+03  0.96413710184E+03  0.65864270000E+03 0.  0.
    8880022    1    1    2    0    0  0.34129237517E+03  0.51011817517E+03 -0.22452463506E+04  0.23326431073E+04  0.15294330000E+03 0.  0.
<mgrwt>
<rscale>  0 0.82424196E+03</rscale>
<asrwt>0</asrwt>
<pdfrwt beam="1">  1        2 0.39976858E+00 0.90028398E+03</pdfrwt>
<pdfrwt beam="2">  1       -2 0.10742837E+00 0.90028398E+03</pdfrwt>
<totfact> 0.21758932E+00</totfact>
</mgrwt>
</event>
<event>
 4    5  0.7289609E-008  0.8838219E+03  0.7818608E-02  0.9552518E-01
         -2   -1    0    0    0  501 -0.00000000000E+00  0.00000000000E+00  0.28864467351E+03  0.28864467353E+03  0.25500000000E-02 0.  1.
          2   -1    0    0  501    0  0.00000000000E+00 -0.00000000000E+00 -0.20539298155E+04  0.20539298155E+04  0.25500000000E-02 0. -1.
    8880023    1    1    2    0    0 -0.58846881887E+03 -0.32177087520E+02 -0.75210514027E+03  0.11605185324E+04  0.65864270000E+03 0.  1.
    8880022    1    1    2    0    0  0.58846881887E+03  0.32177087520E+02 -0.10131800018E+04  0.11820559567E+04  0.15294330000E+03 0.  0.
<mgrwt>
<rscale>  0 0.80520171E+03</rscale>
<asrwt>0</asrwt>
<pdfrwt beam="1">  1        2 0.31598919E+00 0.88382188E+03</pdfrwt>
<pdfrwt beam="2">  1       -2 0.44406874E-01 0.88382188E+03</pdfrwt>
<totfact> 0.30490841E+01</totfact>
</mgrwt>
</event>
<event>
 4    5  0.7289609E-008  0.8501016E+03  0.7818608E-02  0.9611419E-01
         -2   -1    0    0    0  501 -0.00000000000E+00  0.00000000000E+00  0.48389387620E+03  0.48389387621E+03  0.25500000000E-02 0.  1.
          2   -1    0    0  501    0  0.00000000000E+00 -0.00000000000E+00 -0.21721993589E+04  0.21721993589E+04  0.25500000000E-02 0. -1.
    8880023    1    1    2    0    0  0.49023124683E+03 -0.22030870701E+03  0.28557791285E+02  0.85058118687E+03  0.65864270000E+03 0.  1.
    8880022    1    1    2    0    0 -0.49023124683E+03  0.22030870701E+03 -0.17168632739E+04  0.18055120482E+04  0.15294330000E+03 0.  0.
<mgrwt>
<rscale>  0 0.76544975E+03</rscale>
<asrwt>0</asrwt>
<pdfrwt beam="1">  1        2 0.33418451E+00 0.85010165E+03</pdfrwt>
<pdfrwt beam="2">  1       -2 0.74445213E-01 0.85010165E+03</pdfrwt>
<totfact> 0.89024837E+00</totfact>
</mgrwt>
</event>
<event>
 4    5  0.7289609E-008  0.7190381E+03  0.7818608E-02  0.9925854E-01
         -2   -1    0    0    0  501 -0.00000000000E+00  0.00000000000E+00  0.40624643173E+03  0.40624643174E+03  0.25500000000E-02 0.  1.
          2   -1    0    0  501    0  0.00000000000E+00 -0.00000000000E+00 -0.19481937340E+04  0.19481937340E+04  0.25500000000E-02 0. -1.
    8880023    1    1    2    0    0 -0.18612715942E+03  0.22036846038E+03  0.58138033780E+02  0.72138465124E+03  0.65864270000E+03 0.  1.
    8880022    1    1    2    0    0  0.18612715942E+03 -0.22036846038E+03 -0.16000853361E+04  0.16330555145E+04  0.15294330000E+03 0.  0.
<mgrwt>
<rscale>  0 0.59024480E+03</rscale>
<asrwt>0</asrwt>
<pdfrwt beam="1">  1        2 0.29972211E+00 0.71903810E+03</pdfrwt>
<pdfrwt beam="2">  1       -2 0.62499452E-01 0.71903810E+03</pdfrwt>
<totfact> 0.17594245E+01</totfact>
</mgrwt>
</event>
<event>
 4    5  0.7289609E-008  0.6735694E+03  0.7818608E-02  0.1013224E+00
         -2   -1    0    0    0  501 -0.00000000000E+00  0.00000000000E+00  0.10030304974E+03  0.10030304977E+03  0.25500000000E-02 0.  1.
          2   -1    0    0  501    0  0.00000000000E+00 -0.00000000000E+00 -0.22779915935E+04  0.22779915935E+04  0.25500000000E-02 0. -1.
    8880023    1    1    2    0    0 -0.70946562726E+02  0.12186941694E+03 -0.11760595953E+04  0.13552903554E+04  0.65864270000E+03 0.  1.
    8880022    1    1    2    0    0  0.70946562726E+02 -0.12186941694E+03 -0.10016289484E+04  0.10230042878E+04  0.15294330000E+03 0. -1.
<mgrwt>
<rscale>  0 0.50213350E+03</rscale>
<asrwt>0</asrwt>
<pdfrwt beam="1">  1        2 0.35046021E+00 0.67356943E+03</pdfrwt>
<pdfrwt beam="2">  1       -2 0.15431240E-01 0.67356943E+03</pdfrwt>
<totfact> 0.16198787E+02</totfact>
</mgrwt>
</event>
<event>
 4    5  0.7289609E-008  0.8599312E+03  0.7818608E-02  0.9593686E-01
         -2   -1    0    0    0  501 -0.00000000000E+00  0.00000000000E+00  0.17766354383E+04  0.17766354383E+04  0.25500000000E-02 0.  1.
          2   -1    0    0  501    0  0.00000000000E+00 -0.00000000000E+00 -0.39072312934E+03  0.39072312934E+03  0.25500000000E-02 0. -1.
    8880023    1    1    2    0    0  0.48262268463E+03  0.26971612008E+03  0.13395928456E+04  0.15918513245E+04  0.65864270000E+03 0.  1.
    8880022    1    1    2    0    0 -0.48262268463E+03 -0.26971612008E+03  0.46319463325E+02  0.57550724308E+03  0.15294330000E+03 0.  0.
<mgrwt>
<rscale>  0 0.77715505E+03</rscale>
<asrwt>0</asrwt>
<pdfrwt beam="1">  1        2 0.60111249E-01 0.85993119E+03</pdfrwt>
<pdfrwt beam="2">  1       -2 0.27332854E+00 0.85993119E+03</pdfrwt>
<totfact> 0.38509718E+00</totfact>
</mgrwt>
</event>
<event>
 4    5  0.7289609E-008  0.8185078E+03  0.7818608E-02  0.9672121E-01
          2   -1    0    0  501    0  0.00000000000E+00  0.00000000000E+00  0.17049416284E+04  0.17049416284E+04  0.25500000000E-02 0. -1.
         -2   -1    0    0    0  501 -0.00000000000E+00 -0.00000000000E+00 -0.31720099890E+03  0.31720099891E+03  0.25500000000E-02 0.  1.
    8880023    1    1    2    0    0 -0.28829693002E+03  0.39119008110E+03  0.40057226441E+03  0.91127007231E+03  0.65864270000E+03 0.  0.
    8880022    1    1    2    0    0  0.28829693002E+03 -0.39119008110E+03  0.98716836506E+03  0.11108725550E+04  0.15294330000E+03 0.  0.
<mgrwt>
<rscale>  0 0.72701255E+03</rscale>
<asrwt>0</asrwt>
<pdfrwt beam="1">  1        2 0.26229871E+00 0.81850779E+03</pdfrwt>
<pdfrwt beam="2">  1       -2 0.48800154E-01 0.81850779E+03</pdfrwt>
<totfact> 0.39451675E+01</totfact>
</mgrwt>
</event>
<event>
 4    5  0.7289609E-008  0.8207409E+03  0.7818608E-02  0.9667624E-01
          2   -1    0    0  501    0  0.00000000000E+00  0.00000000000E+00  0.43321979571E+03  0.43321979572E+03  0.25500000000E-02 0. -1.
         -2   -1    0    0    0  501 -0.00000000000E+00 -0.00000000000E+00 -0.21816409706E+04  0.21816409706E+04  0.25500000000E-02 0.  1.
    8880023    1    1    2    0    0  0.45762255956E+03  0.17431879090E+03 -0.19084533501E+04  0.20774527296E+04  0.65864270000E+03 0.  1.
    8880022    1    1    2    0    0 -0.45762255956E+03 -0.17431879090E+03  0.16003217518E+03  0.53740803677E+03  0.15294330000E+03 0.  0.
<mgrwt>
<rscale>  0 0.72977621E+03</rscale>
<asrwt>0</asrwt>
<pdfrwt beam="1">  1        2 0.66649201E-01 0.82074092E+03</pdfrwt>
<pdfrwt beam="2">  1       -2 0.33563707E+00 0.82074092E+03</pdfrwt>
<totfact> 0.14440455E+00</totfact>
</mgrwt>
</event>
<event>
 4    5  0.7289609E-008  0.7464545E+03  0.7818608E-02  0.9841529E-01
         -2   -1    0    0    0  501 -0.00000000000E+00  0.00000000000E+00  0.73500048045E+03  0.73500048046E+03  0.25500000000E-02 0.  1.
          2   -1    0    0  501    0  0.00000000000E+00 -0.00000000000E+00 -0.31196512550E+04  0.31196512550E+04  0.25500000000E-02 0. -1.
    8880023    1    1    2    0    0  0.32700914739E+03  0.12825420058E+03  0.52965286734E+03  0.91527399645E+03  0.65864270000E+03 0.  1.
    8880022    1    1    2    0    0 -0.32700914739E+03 -0.12825420058E+03 -0.29143036419E+04  0.29393777390E+04  0.15294330000E+03 0.  0.
<mgrwt>
<rscale>  0 0.63180681E+03</rscale>
<asrwt>0</asrwt>
<pdfrwt beam="1">  1        2 0.47994634E+00 0.74645451E+03</pdfrwt>
<pdfrwt beam="2">  1       -2 0.11307700E+00 0.74645451E+03</pdfrwt>
<totfact> 0.96432981E-01</totfact>
</mgrwt>
</event>
<event>
 4    5  0.7289609E-008  0.8023187E+03  0.7818608E-02  0.9705805E-01
         -2   -1    0    0    0  501 -0.00000000000E+00  0.00000000000E+00  0.13811228955E+04  0.13811228955E+04  0.25500000000E-02 0.  1.
          2   -1    0    0  501    0  0.00000000000E+00 -0.00000000000E+00 -0.88711058289E+03  0.88711058289E+03  0.25500000000E-02 0. -1.
    8880023    1    1    2    0    0 -0.43664226957E+03  0.13873930185E+03  0.11814195929E+04  0.14280992704E+04  0.65864270000E+03 0.  0.
    8880022    1    1    2    0    0  0.43664226957E+03 -0.13873930185E+03 -0.68740728026E+03  0.84013420798E+03  0.15294330000E+03 0.  0.
<mgrwt>
<rscale>  0 0.70672224E+03</rscale>
<asrwt>0</asrwt>
<pdfrwt beam="1">  1        2 0.13647855E+00 0.80231868E+03</pdfrwt>
<pdfrwt beam="2">  1       -2 0.21248044E+00 0.80231868E+03</pdfrwt>
<totfact> 0.33599549E+00</totfact>
</mgrwt>
</event>
<event>
 4    5  0.7289609E-008  0.1283692E+04  0.7818608E-02  0.9079772E-01
         -2   -1    0    0    0  501 -0.00000000000E+00  0.00000000000E+00  0.11747975577E+04  0.11747975577E+04  0.25500000000E-02 0.  1.
          2   -1    0    0  501    0  0.00000000000E+00 -0.00000000000E+00 -0.16073502451E+04  0.16073502451E+04  0.25500000000E-02 0. -1.
    8880023    1    1    2    0    0 -0.33997112284E+02  0.11013174092E+04  0.45197705943E+03  0.13609369228E+04  0.65864270000E+03 0.  0.
    8880022    1    1    2    0    0  0.33997112284E+02 -0.11013174092E+04 -0.88452974682E+03  0.14212108800E+04  0.15294330000E+03 0.  0.
<mgrwt>
<rscale>  0 0.12385443E+04</rscale>
<asrwt>0</asrwt>
<pdfrwt beam="1">  1        2 0.24728465E+00 0.12836923E+04</pdfrwt>
<pdfrwt beam="2">  1       -2 0.18073809E+00 0.12836923E+04</pdfrwt>
<totfact> 0.19043808E+00</totfact>
</mgrwt>
</event>
<event>
 4    5  0.7289609E-008  0.1368755E+04  0.7818608E-02  0.9008349E-01
         -2   -1    0    0    0  501 -0.00000000000E+00  0.00000000000E+00  0.52399998990E+03  0.52399998990E+03  0.25500000000E-02 0.  1.
          2   -1    0    0  501    0  0.00000000000E+00 -0.00000000000E+00 -0.46463362810E+04  0.46463362810E+04  0.25500000000E-02 0. -1.
    8880023    1    1    2    0    0  0.92866675309E+03 -0.75977502493E+03 -0.69352067390E+03  0.15344253511E+04  0.65864270000E+03 0.  0.
    8880022    1    1    2    0    0 -0.92866675309E+03  0.75977502493E+03 -0.34288156172E+04  0.36359109198E+04  0.15294330000E+03 0.  0.
<mgrwt>
<rscale>  0 0.13270965E+04</rscale>
<asrwt>0</asrwt>
<pdfrwt beam="1">  1        2 0.71482094E+00 0.13687550E+04</pdfrwt>
<pdfrwt beam="2">  1       -2 0.80615386E-01 0.13687550E+04</pdfrwt>
<totfact> 0.11991579E-01</totfact>
</mgrwt>
</event>
<event>
 4    5  0.7289609E-008  0.1194118E+04  0.7818608E-02  0.9162862E-01
          2   -1    0    0  501    0  0.00000000000E+00  0.00000000000E+00  0.10689740560E+04  0.10689740560E+04  0.25500000000E-02 0. -1.
         -2   -1    0    0    0  501 -0.00000000000E+00 -0.00000000000E+00 -0.21558611279E+04  0.21558611279E+04  0.25500000000E-02 0.  1.
    8880023    1    1    2    0    0  0.28247448256E+02 -0.99564487413E+03 -0.16757463934E+04  0.20576789874E+04  0.65864270000E+03 0.  0.
    8880022    1    1    2    0    0 -0.28247448256E+02  0.99564487413E+03  0.58885932148E+03  0.11671561966E+04  0.15294330000E+03 0.  0.
<mgrwt>
<rscale>  0 0.11445117E+04</rscale>
<asrwt>0</asrwt>
<pdfrwt beam="1">  1        2 0.16445755E+00 0.11941176E+04</pdfrwt>
<pdfrwt beam="2">  1       -2 0.33167094E+00 0.11941176E+04</pdfrwt>
<totfact> 0.45294957E-01</totfact>
</mgrwt>
</event>
<event>
 4    5  0.7289609E-008  0.9451978E+03  0.7818608E-02  0.9457057E-01
          2   -1    0    0  501    0  0.00000000000E+00  0.00000000000E+00  0.28884015855E+04  0.28884015855E+04  0.25500000000E-02 0. -1.
         -2   -1    0    0    0  501 -0.00000000000E+00 -0.00000000000E+00 -0.29605120931E+03  0.29605120932E+03  0.25500000000E-02 0.  1.
    8880023    1    1    2    0    0 -0.27946893316E+03  0.61764533106E+03  0.72273841470E+03  0.11898527900E+04  0.65864270000E+03 0.  0.
    8880022    1    1    2    0    0  0.27946893316E+03 -0.61764533106E+03  0.18696119615E+04  0.19946000048E+04  0.15294330000E+03 0. -1.
<mgrwt>
<rscale>  0 0.87525217E+03</rscale>
<asrwt>0</asrwt>
<pdfrwt beam="1">  1        2 0.44436947E+00 0.94519778E+03</pdfrwt>
<pdfrwt beam="2">  1       -2 0.45546340E-01 0.94519778E+03</pdfrwt>
<totfact> 0.95979512E+00</totfact>
</mgrwt>
</event>
<event>
 4    5  0.7289609E-008  0.9078538E+03  0.7818608E-02  0.9513540E-01
          2   -1    0    0  501    0  0.00000000000E+00  0.00000000000E+00  0.16847006115E+04  0.16847006115E+04  0.25500000000E-02 0. -1.
         -2   -1    0    0    0  501 -0.00000000000E+00 -0.00000000000E+00 -0.53020649567E+03  0.53020649567E+03  0.25500000000E-02 0.  1.
    8880023    1    1    2    0    0  0.33469375957E+03 -0.52760627420E+03  0.16865452525E+02  0.90801043112E+03  0.65864270000E+03 0.  1.
    8880022    1    1    2    0    0 -0.33469375957E+03  0.52760627420E+03  0.11376286633E+04  0.13068966760E+04  0.15294330000E+03 0.  0.
<mgrwt>
<rscale>  0 0.83292925E+03</rscale>
<asrwt>0</asrwt>
<pdfrwt beam="1">  1        2 0.25918470E+00 0.90785379E+03</pdfrwt>
<pdfrwt beam="2">  1       -2 0.81570233E-01 0.90785379E+03</pdfrwt>
<totfact> 0.13340679E+01</totfact>
</mgrwt>
</event>
<event>
 4    5  0.7289609E-008  0.8319610E+03  0.7818608E-02  0.9645529E-01
          2   -1    0    0  501    0  0.00000000000E+00  0.00000000000E+00  0.14152499142E+04  0.14152499142E+04  0.25500000000E-02 0. -1.
         -2   -1    0    0    0  501 -0.00000000000E+00 -0.00000000000E+00 -0.41240650027E+03  0.41240650028E+03  0.25500000000E-02 0.  1.
    8880023    1    1    2    0    0  0.17438257462E+03 -0.47743016749E+03  0.18438399008E+03  0.85214817328E+03  0.65864270000E+03 0.  1.
    8880022    1    1    2    0    0 -0.17438257462E+03  0.47743016749E+03  0.81845942382E+03  0.97550824118E+03  0.15294330000E+03 0.  0.
<mgrwt>
<rscale>  0 0.74354691E+03</rscale>
<asrwt>0</asrwt>
<pdfrwt beam="1">  1        2 0.21773075E+00 0.83196097E+03</pdfrwt>
<pdfrwt beam="2">  1       -2 0.63447154E-01 0.83196097E+03</pdfrwt>
<totfact> 0.33036905E+01</totfact>
</mgrwt>
</event>
<event>
 4    5  0.7289609E-008  0.6909617E+03  0.7818608E-02  0.1003699E+00
         -2   -1    0    0    0  501 -0.00000000000E+00  0.00000000000E+00  0.56540603423E+03  0.56540603424E+03  0.25500000000E-02 0.  1.
          2   -1    0    0  501    0  0.00000000000E+00 -0.00000000000E+00 -0.66899217773E+03  0.66899217774E+03  0.25500000000E-02 0. -1.
    8880023    1    1    2    0    0  0.10981011812E+03  0.17765021958E+03  0.30132958184E+03  0.75380871958E+03  0.65864270000E+03 0.  1.
    8880022    1    1    2    0    0 -0.10981011812E+03 -0.17765021958E+03 -0.40491572534E+03  0.48058949240E+03  0.15294330000E+03 0.  0.
<mgrwt>
<rscale>  0 0.54057697E+03</rscale>
<asrwt>0</asrwt>
<pdfrwt beam="1">  1        2 0.10292187E+00 0.69096170E+03</pdfrwt>
<pdfrwt beam="2">  1       -2 0.86985543E-01 0.69096170E+03</pdfrwt>
<totfact> 0.50439079E+01</totfact>
</mgrwt>
</event>
<event>
 4    5  0.7289609E-008  0.8647251E+03  0.7818608E-02  0.9585213E-01
         -2   -1    0    0    0  501 -0.00000000000E+00  0.00000000000E+00  0.56763357324E+03  0.56763357324E+03  0.25500000000E-02 0.  1.
          2   -1    0    0  501    0  0.00000000000E+00 -0.00000000000E+00 -0.36288276028E+04  0.36288276028E+04  0.25500000000E-02 0. -1.
    8880023    1    1    2    0    0  0.49655086463E+03  0.25956983271E+03  0.19701998497E+03  0.88688575361E+03  0.65864270000E+03 0.  1.
    8880022    1    1    2    0    0 -0.49655086463E+03 -0.25956983271E+03 -0.32582140145E+04  0.33095754224E+04  0.15294330000E+03 0.  0.
<mgrwt>
<rscale>  0 0.78282657E+03</rscale>
<asrwt>0</asrwt>
<pdfrwt beam="1">  1        2 0.55828115E+00 0.86472508E+03</pdfrwt>
<pdfrwt beam="2">  1       -2 0.87328244E-01 0.86472508E+03</pdfrwt>
<totfact> 0.79486535E-01</totfact>
</mgrwt>
</event>
<event>
 4    5  0.7289609E-008  0.1081764E+04  0.7818608E-02  0.9281637E-01
          2   -1    0    0  501    0  0.00000000000E+00  0.00000000000E+00  0.12516982661E+04  0.12516982661E+04  0.25500000000E-02 0. -1.
         -2   -1    0    0    0  501 -0.00000000000E+00 -0.00000000000E+00 -0.10106527056E+04  0.10106527056E+04  0.25500000000E-02 0.  1.
    8880023    1    1    2    0    0  0.38518554382E+02  0.85727413013E+03 -0.42817422349E+03  0.11634199522E+04  0.65864270000E+03 0.  1.
    8880022    1    1    2    0    0 -0.38518554382E+02 -0.85727413013E+03  0.66921978403E+03  0.10989310195E+04  0.15294330000E+03 0.  0.
<mgrwt>
<rscale>  0 0.10249114E+04</rscale>
<asrwt>0</asrwt>
<pdfrwt beam="1">  1        2 0.19256896E+00 0.10817638E+04</pdfrwt>
<pdfrwt beam="2">  1       -2 0.15548503E+00 0.10817638E+04</pdfrwt>
<totfact> 0.47228256E+00</totfact>
</mgrwt>
</event>
<event>
 4    5  0.7289609E-008  0.1346585E+04  0.7818608E-02  0.9026340E-01
          2   -1    0    0  501    0  0.00000000000E+00  0.00000000000E+00  0.29141292160E+04  0.29141292160E+04  0.25500000000E-02 0. -1.
         -2   -1    0    0    0  501 -0.00000000000E+00 -0.00000000000E+00 -0.13764316623E+04  0.13764316623E+04  0.25500000000E-02 0.  1.
    8880023    1    1    2    0    0 -0.75957502574E+03 -0.89583821278E+03 -0.87285997419E+03  0.16047352006E+04  0.65864270000E+03 0.  1.
    8880022    1    1    2    0    0  0.75957502574E+03  0.89583821278E+03  0.24105575279E+04  0.26858256778E+04  0.15294330000E+03 0.  0.
<mgrwt>
<rscale>  0 0.13040749E+04</rscale>
<asrwt>0</asrwt>
<pdfrwt beam="1">  1        2 0.44832757E+00 0.13465848E+04</pdfrwt>
<pdfrwt beam="2">  1       -2 0.21175872E+00 0.13465848E+04</pdfrwt>
<totfact> 0.21099965E-01</totfact>
</mgrwt>
</event>
<event>
 4    5  0.7289609E-008  0.8772394E+03  0.7818608E-02  0.9563604E-01
          2   -1    0    0  501    0  0.00000000000E+00  0.00000000000E+00  0.12573642598E+04  0.12573642598E+04  0.25500000000E-02 0. -1.
         -2   -1    0    0    0  501 -0.00000000000E+00 -0.00000000000E+00 -0.79144592478E+03  0.79144592479E+03  0.25500000000E-02 0.  1.
    8880023    1    1    2    0    0  0.10259061241E+03  0.57027524872E+03 -0.42525724795E+03  0.97488082669E+03  0.65864270000E+03 0.  0.
    8880022    1    1    2    0    0 -0.10259061241E+03 -0.57027524872E+03  0.89117558292E+03  0.10739293579E+04  0.15294330000E+03 0. -1.
<mgrwt>
<rscale>  0 0.79752645E+03</rscale>
<asrwt>0</asrwt>
<pdfrwt beam="1">  1        2 0.19344065E+00 0.87723936E+03</pdfrwt>
<pdfrwt beam="2">  1       -2 0.12176091E+00 0.87723936E+03</pdfrwt>
<totfact> 0.90150451E+00</totfact>
</mgrwt>
</event>
<event>
 4    5  0.7289609E-008  0.6921804E+03  0.7818608E-02  0.1003133E+00
         -2   -1    0    0    0  501 -0.00000000000E+00  0.00000000000E+00  0.91754555458E+03  0.91754555459E+03  0.25500000000E-02 0.  1.
          2   -1    0    0  501    0  0.00000000000E+00 -0.00000000000E+00 -0.11641887652E+04  0.11641887652E+04  0.25500000000E-02 0. -1.
    8880023    1    1    2    0    0 -0.20124303289E+03 -0.69316239903E+02  0.76793653669E+03  0.10338472953E+04  0.65864270000E+03 0.  1.
    8880022    1    1    2    0    0  0.20124303289E+03  0.69316239903E+02 -0.10145797473E+04  0.10478870245E+04  0.15294330000E+03 0.  0.
<mgrwt>
<rscale>  0 0.54297550E+03</rscale>
<asrwt>0</asrwt>
<pdfrwt beam="1">  1        2 0.17910597E+00 0.69218040E+03</pdfrwt>
<pdfrwt beam="2">  1       -2 0.14116085E+00 0.69218040E+03</pdfrwt>
<totfact> 0.71950755E+00</totfact>
</mgrwt>
</event>
<event>
 4    5  0.7289609E-008  0.1018147E+04  0.7818608E-02  0.9358192E-01
         -2   -1    0    0    0  501 -0.00000000000E+00  0.00000000000E+00  0.72641874423E+03  0.72641874424E+03  0.25500000000E-02 0.  1.
          2   -1    0    0  501    0  0.00000000000E+00 -0.00000000000E+00 -0.20757379628E+04  0.20757379628E+04  0.25500000000E-02 0. -1.
    8880023    1    1    2    0    0  0.63709899514E+03  0.44375359955E+03  0.22268372585E+03  0.10422142941E+04  0.65864270000E+03 0.  0.
    8880022    1    1    2    0    0 -0.63709899514E+03 -0.44375359955E+03 -0.15720029444E+04  0.17599424130E+04  0.15294330000E+03 0.  0.
<mgrwt>
<rscale>  0 0.95597654E+03</rscale>
<asrwt>0</asrwt>
<pdfrwt beam="1">  1        2 0.31934430E+00 0.10181466E+04</pdfrwt>
<pdfrwt beam="2">  1       -2 0.11175673E+00 0.10181466E+04</pdfrwt>
<totfact> 0.38264030E+00</totfact>
</mgrwt>
</event>
<event>
 4    5  0.7289609E-008  0.8077019E+03  0.7818608E-02  0.9694384E-01
          2   -1    0    0  501    0  0.00000000000E+00  0.00000000000E+00  0.99965648921E+03  0.99965648921E+03  0.25500000000E-02 0. -1.
         -2   -1    0    0    0  501 -0.00000000000E+00 -0.00000000000E+00 -0.48132415643E+03  0.48132415644E+03  0.25500000000E-02 0.  1.
    8880023    1    1    2    0    0  0.21531768728E+03 -0.41498239802E+03  0.62114275982E+02  0.81008671552E+03  0.65864270000E+03 0.  1.
    8880022    1    1    2    0    0 -0.21531768728E+03  0.41498239802E+03  0.45621805679E+03  0.67089393012E+03  0.15294330000E+03 0.  0.
<mgrwt>
<rscale>  0 0.71352156E+03</rscale>
<asrwt>0</asrwt>
<pdfrwt beam="1">  1        2 0.15379330E+00 0.80770187E+03</pdfrwt>
<pdfrwt beam="2">  1       -2 0.74049871E-01 0.80770187E+03</pdfrwt>
<totfact> 0.41836550E+01</totfact>
</mgrwt>
</event>
<event>
 4    5  0.7289609E-008  0.1198800E+04  0.7818608E-02  0.9158290E-01
         -2   -1    0    0    0  501 -0.00000000000E+00  0.00000000000E+00  0.86187271565E+03  0.86187271565E+03  0.25500000000E-02 0.  1.
          2   -1    0    0  501    0  0.00000000000E+00 -0.00000000000E+00 -0.15175811689E+04  0.15175811689E+04  0.25500000000E-02 0. -1.
    8880023    1    1    2    0    0 -0.94494480478E+03  0.33225097841E+03 -0.51895113278E+02  0.11999227916E+04  0.65864270000E+03 0.  0.
    8880022    1    1    2    0    0  0.94494480478E+03 -0.33225097841E+03 -0.60381334000E+03  0.11795310930E+04  0.15294330000E+03 0.  0.
<mgrwt>
<rscale>  0 0.11494516E+04</rscale>
<asrwt>0</asrwt>
<pdfrwt beam="1">  1        2 0.23347403E+00 0.11988001E+04</pdfrwt>
<pdfrwt beam="2">  1       -2 0.13259580E+00 0.11988001E+04</pdfrwt>
<totfact> 0.49896557E+00</totfact>
</mgrwt>
</event>
<event>
 4    5  0.7289609E-008  0.8352992E+03  0.7818608E-02  0.9639109E-01
          2   -1    0    0  501    0  0.00000000000E+00  0.00000000000E+00  0.14269463185E+04  0.14269463185E+04  0.25500000000E-02 0. -1.
         -2   -1    0    0    0  501 -0.00000000000E+00 -0.00000000000E+00 -0.42998958949E+03  0.42998958950E+03  0.25500000000E-02 0.  1.
    8880023    1    1    2    0    0  0.48218013577E+03  0.17724805487E+03  0.14116880791E+03  0.84714425860E+03  0.65864270000E+03 0.  1.
    8880022    1    1    2    0    0 -0.48218013577E+03 -0.17724805487E+03  0.85578792111E+03  0.10097916494E+04  0.15294330000E+03 0.  0.
<mgrwt>
<rscale>  0 0.74760927E+03</rscale>
<asrwt>0</asrwt>
<pdfrwt beam="1">  1        2 0.21953020E+00 0.83529921E+03</pdfrwt>
<pdfrwt beam="2">  1       -2 0.66152244E-01 0.83529921E+03</pdfrwt>
<totfact> 0.29734435E+01</totfact>
</mgrwt>
</event>
<event>
 4    5  0.7289609E-008  0.1392281E+04  0.7818608E-02  0.8989704E-01
         -2   -1    0    0    0  501 -0.00000000000E+00  0.00000000000E+00  0.98575811164E+03  0.98575811164E+03  0.25500000000E-02 0.  1.
          2   -1    0    0  501    0  0.00000000000E+00 -0.00000000000E+00 -0.25238020503E+04  0.25238020503E+04  0.25500000000E-02 0. -1.
    8880023    1    1    2    0    0  0.95820612408E+01  0.12265984612E+04  0.16840706055E+03  0.14024288735E+04  0.65864270000E+03 0.  0.
    8880022    1    1    2    0    0 -0.95820612408E+01 -0.12265984612E+04 -0.17064509992E+04  0.21071312884E+04  0.15294330000E+03 0.  0.
<mgrwt>
<rscale>  0 0.13514859E+04</rscale>
<asrwt>0</asrwt>
<pdfrwt beam="1">  1        2 0.38827724E+00 0.13922808E+04</pdfrwt>
<pdfrwt beam="2">  1       -2 0.15165510E+00 0.13922808E+04</pdfrwt>
<totfact> 0.93777914E-01</totfact>
</mgrwt>
</event>
<event>
 4    5  0.7289609E-008  0.2224435E+04  0.7818608E-02  0.8518225E-01
          2   -1    0    0  501    0  0.00000000000E+00  0.00000000000E+00  0.35693127704E+04  0.35693127704E+04  0.25500000000E-02 0. -1.
         -2   -1    0    0    0  501 -0.00000000000E+00 -0.00000000000E+00 -0.15615633414E+04  0.15615633414E+04  0.25500000000E-02 0.  1.
    8880023    1    1    2    0    0 -0.18668637625E+04 -0.10144547216E+04  0.30762824033E+02  0.22246472187E+04  0.65864270000E+03 0.  0.
    8880022    1    1    2    0    0  0.18668637625E+04  0.10144547216E+04  0.19769866049E+04  0.29062288931E+04  0.15294330000E+03 0.  0.
<mgrwt>
<rscale>  0 0.22004884E+04</rscale>
<asrwt>0</asrwt>
<pdfrwt beam="1">  1        2 0.54912504E+00 0.22244345E+04</pdfrwt>
<pdfrwt beam="2">  1       -2 0.24024052E+00 0.22244345E+04</pdfrwt>
<totfact> 0.46595141E-02</totfact>
</mgrwt>
</event>
<event>
 4    5  0.7289609E-008  0.1101179E+04  0.7818608E-02  0.9259744E-01
          2   -1    0    0  501    0  0.00000000000E+00  0.00000000000E+00  0.49507015369E+03  0.49507015370E+03  0.25500000000E-02 0. -1.
         -2   -1    0    0    0  501 -0.00000000000E+00 -0.00000000000E+00 -0.37555358135E+04  0.37555358135E+04  0.25500000000E-02 0.  1.
    8880023    1    1    2    0    0 -0.83977806229E+03  0.27121599653E+03 -0.31635636140E+04  0.33497358488E+04  0.65864270000E+03 0.  0.
    8880022    1    1    2    0    0  0.83977806229E+03 -0.27121599653E+03 -0.96902045787E+02  0.90087011837E+03  0.15294330000E+03 0.  0.
<mgrwt>
<rscale>  0 0.10457485E+04</rscale>
<asrwt>0</asrwt>
<pdfrwt beam="1">  1        2 0.76164642E-01 0.11011791E+04</pdfrwt>
<pdfrwt beam="2">  1       -2 0.57777472E+00 0.11011791E+04</pdfrwt>
<totfact> 0.38131847E-02</totfact>
</mgrwt>
</event>
<event>
 4    5  0.7289609E-008  0.7008118E+03  0.7818608E-02  0.9993850E-01
          2   -1    0    0  501    0  0.00000000000E+00  0.00000000000E+00  0.29543027425E+04  0.29543027425E+04  0.25500000000E-02 0. -1.
         -2   -1    0    0    0  501 -0.00000000000E+00 -0.00000000000E+00 -0.15840439705E+03  0.15840439707E+03  0.25500000000E-02 0.  1.
    8880023    1    1    2    0    0  0.27227132162E+02 -0.23787732045E+03  0.67551453439E+03  0.97337404360E+03  0.65864270000E+03 0.  1.
    8880022    1    1    2    0    0 -0.27227132162E+02  0.23787732045E+03  0.21203838110E+04  0.21393330960E+04  0.15294330000E+03 0.  0.
<mgrwt>
<rscale>  0 0.55920718E+03</rscale>
<asrwt>0</asrwt>
<pdfrwt beam="1">  1        2 0.45450814E+00 0.70081177E+03</pdfrwt>
<pdfrwt beam="2">  1       -2 0.24369906E-01 0.70081177E+03</pdfrwt>
<totfact> 0.29708436E+01</totfact>
</mgrwt>
</event>
<event>
 4    5  0.7289609E-008  0.6647471E+03  0.7818608E-02  0.1019747E+00
         -2   -1    0    0    0  501 -0.00000000000E+00  0.00000000000E+00  0.20212716317E+03  0.20212716318E+03  0.25500000000E-02 0.  1.
          2   -1    0    0  501    0  0.00000000000E+00 -0.00000000000E+00 -0.97873812531E+03  0.97873812531E+03  0.25500000000E-02 0. -1.
    8880023    1    1    2    0    0  0.24592651413E+02 -0.86450530643E+02 -0.43059137440E+03  0.79202123123E+03  0.65864270000E+03 0.  1.
    8880022    1    1    2    0    0 -0.24592651413E+02  0.86450530643E+02 -0.34601958774E+03  0.38884405726E+03  0.15294330000E+03 0.  0.
<mgrwt>
<rscale>  0 0.47778189E+03</rscale>
<asrwt>0</asrwt>
<pdfrwt beam="1">  1        2 0.15057509E+00 0.66474709E+03</pdfrwt>
<pdfrwt beam="2">  1       -2 0.31096487E-01 0.66474709E+03</pdfrwt>
<totfact> 0.25260164E+02</totfact>
</mgrwt>
</event>
<event>
 4    5  0.7289609E-008  0.1152515E+04  0.7818608E-02  0.9204722E-01
         -2   -1    0    0    0  501 -0.00000000000E+00  0.00000000000E+00  0.70868558200E+03  0.70868558200E+03  0.25500000000E-02 0.  1.
          2   -1    0    0  501    0  0.00000000000E+00 -0.00000000000E+00 -0.20341524389E+04  0.20341524389E+04  0.25500000000E-02 0. -1.
    8880023    1    1    2    0    0 -0.93373750837E+03  0.15038444563E+03 -0.57939141949E+02  0.11539706957E+04  0.65864270000E+03 0.  0.
    8880022    1    1    2    0    0  0.93373750837E+03 -0.15038444563E+03 -0.12675277150E+04  0.15888673253E+04  0.15294330000E+03 0.  0.
<mgrwt>
<rscale>  0 0.11004817E+04</rscale>
<asrwt>0</asrwt>
<pdfrwt beam="1">  1        2 0.31294653E+00 0.11525153E+04</pdfrwt>
<pdfrwt beam="2">  1       -2 0.10902855E+00 0.11525153E+04</pdfrwt>
<totfact> 0.42190808E+00</totfact>
</mgrwt>
</event>
<event>
 4    5  0.7289609E-008  0.7673789E+03  0.7818608E-02  0.9786366E-01
          2   -1    0    0  501    0  0.00000000000E+00  0.00000000000E+00  0.10583505817E+04  0.10583505817E+04  0.25500000000E-02 0. -1.
         -2   -1    0    0    0  501 -0.00000000000E+00 -0.00000000000E+00 -0.50010647269E+03  0.50010647270E+03  0.25500000000E-02 0.  1.
    8880023    1    1    2    0    0  0.28307945340E+03 -0.27372661804E+03 -0.10252192004E+03  0.77419712523E+03  0.65864270000E+03 0.  1.
    8880022    1    1    2    0    0 -0.28307945340E+03  0.27372661804E+03  0.66076602908E+03  0.78425992921E+03  0.15294330000E+03 0.  0.
<mgrwt>
<rscale>  0 0.66099406E+03</rscale>
<asrwt>0</asrwt>
<pdfrwt beam="1">  1        2 0.16282316E+00 0.76737894E+03</pdfrwt>
<pdfrwt beam="2">  1       -2 0.76939459E-01 0.76737894E+03</pdfrwt>
<totfact> 0.35411690E+01</totfact>
</mgrwt>
</event>
<event>
 4    5  0.7289609E-008  0.6930070E+03  0.7818608E-02  0.1002755E+00
         -2   -1    0    0    0  501 -0.00000000000E+00  0.00000000000E+00  0.21762324876E+03  0.21762324878E+03  0.25500000000E-02 0.  1.
          2   -1    0    0  501    0  0.00000000000E+00 -0.00000000000E+00 -0.17819277596E+04  0.17819277596E+04  0.25500000000E-02 0. -1.
    8880023    1    1    2    0    0  0.10740917098E+03  0.18684697143E+03 -0.38862697862E+03  0.79453738460E+03  0.65864270000E+03 0.  1.
    8880022    1    1    2    0    0 -0.10740917098E+03 -0.18684697143E+03 -0.11756775322E+04  0.12050136238E+04  0.15294330000E+03 0.  0.
<mgrwt>
<rscale>  0 0.54458589E+03</rscale>
<asrwt>0</asrwt>
<pdfrwt beam="1">  1        2 0.27414272E+00 0.69300702E+03</pdfrwt>
<pdfrwt beam="2">  1       -2 0.33480501E-01 0.69300702E+03</pdfrwt>
<totfact> 0.75847087E+01</totfact>
</mgrwt>
</event>
<event>
 4    5  0.7289609E-008  0.7386263E+03  0.7818608E-02  0.9863967E-01
         -2   -1    0    0    0  501 -0.00000000000E+00  0.00000000000E+00  0.31918937890E+03  0.31918937891E+03  0.25500000000E-02 0.  1.
          2   -1    0    0  501    0  0.00000000000E+00 -0.00000000000E+00 -0.19576893685E+04  0.19576893685E+04  0.25500000000E-02 0. -1.
    8880023    1    1    2    0    0  0.17865405367E+03  0.28256214933E+03 -0.16316932247E+03  0.75643444738E+03  0.65864270000E+03 0.  0.
    8880022    1    1    2    0    0 -0.17865405367E+03 -0.28256214933E+03 -0.14753306671E+04  0.15204443000E+04  0.15294330000E+03 0. -1.
<mgrwt>
<rscale>  0 0.62039846E+03</rscale>
<asrwt>0</asrwt>
<pdfrwt beam="1">  1        2 0.30118297E+00 0.73862632E+03</pdfrwt>
<pdfrwt beam="2">  1       -2 0.49106060E-01 0.73862632E+03</pdfrwt>
<totfact> 0.28617144E+01</totfact>
</mgrwt>
</event>
<event>
 4    5  0.7289609E-008  0.1067330E+04  0.7818608E-02  0.9298333E-01
          2   -1    0    0  501    0  0.00000000000E+00  0.00000000000E+00  0.10943708765E+04  0.10943708765E+04  0.25500000000E-02 0. -1.
         -2   -1    0    0    0  501 -0.00000000000E+00 -0.00000000000E+00 -0.11971087976E+04  0.11971087976E+04  0.25500000000E-02 0.  1.
    8880023    1    1    2    0    0  0.76148092558E+03 -0.35430095347E+03 -0.67580116559E+03  0.12632892730E+04  0.65864270000E+03 0.  0.
    8880022    1    1    2    0    0 -0.76148092558E+03  0.35430095347E+03  0.57306324455E+03  0.10281904011E+04  0.15294330000E+03 0.  0.
<mgrwt>
<rscale>  0 0.10093645E+04</rscale>
<asrwt>0</asrwt>
<pdfrwt beam="1">  1        2 0.16836475E+00 0.10673296E+04</pdfrwt>
<pdfrwt beam="2">  1       -2 0.18417058E+00 0.10673296E+04</pdfrwt>
<totfact> 0.36698180E+00</totfact>
</mgrwt>
</event>
<event>
 4    5  0.7289609E-008  0.2329837E+04  0.7818608E-02  0.8475146E-01
          2   -1    0    0  501    0  0.00000000000E+00  0.00000000000E+00  0.32289756382E+04  0.32289756382E+04  0.25500000000E-02 0. -1.
         -2   -1    0    0    0  501 -0.00000000000E+00 -0.00000000000E+00 -0.19623800387E+04  0.19623800387E+04  0.25500000000E-02 0.  1.
    8880023    1    1    2    0    0 -0.41967292576E+03 -0.21950405058E+04 -0.44539030598E+03  0.23720267532E+04  0.65864270000E+03 0.  0.
    8880022    1    1    2    0    0  0.41967292576E+03  0.21950405058E+04  0.17119859054E+04  0.28193289237E+04  0.15294330000E+03 0.  0.
<mgrwt>
<rscale>  0 0.23070521E+04</rscale>
<asrwt>0</asrwt>
<pdfrwt beam="1">  1        2 0.49676548E+00 0.23298366E+04</pdfrwt>
<pdfrwt beam="2">  1       -2 0.30190462E+00 0.23298366E+04</pdfrwt>
<totfact> 0.32837500E-02</totfact>
</mgrwt>
</event>
<event>
 4    5  0.7289609E-008  0.2050507E+04  0.7818608E-02  0.8595320E-01
         -2   -1    0    0    0  501 -0.00000000000E+00  0.00000000000E+00  0.18040816338E+04  0.18040816338E+04  0.25500000000E-02 0.  1.
          2   -1    0    0  501    0  0.00000000000E+00 -0.00000000000E+00 -0.28546811058E+04  0.28546811058E+04  0.25500000000E-02 0. -1.
    8880023    1    1    2    0    0  0.18142354213E+04 -0.69232947857E+03 -0.16378155259E+04  0.26243132766E+04  0.65864270000E+03 0.  0.
    8880022    1    1    2    0    0 -0.18142354213E+04  0.69232947857E+03  0.58721605390E+03  0.20344494630E+04  0.15294330000E+03 0.  0.
<mgrwt>
<rscale>  0 0.20243494E+04</rscale>
<asrwt>0</asrwt>
<pdfrwt beam="1">  1        2 0.43918171E+00 0.20505074E+04</pdfrwt>
<pdfrwt beam="2">  1       -2 0.27755102E+00 0.20505074E+04</pdfrwt>
<totfact> 0.82333065E-02</totfact>
</mgrwt>
</event>
<event>
 4    5  0.7289609E-008  0.7555633E+03  0.7818608E-02  0.9816732E-01
          2   -1    0    0  501    0  0.00000000000E+00  0.00000000000E+00  0.15633490771E+04  0.15633490771E+04  0.25500000000E-02 0. -1.
         -2   -1    0    0    0  501 -0.00000000000E+00 -0.00000000000E+00 -0.33376154739E+03  0.33376154740E+03  0.25500000000E-02 0.  1.
    8880023    1    1    2    0    0 -0.33966903301E+03  0.14727750563E+03  0.18432525787E+03  0.77772213714E+03  0.65864270000E+03 0.  1.
    8880022    1    1    2    0    0  0.33966903301E+03 -0.14727750563E+03  0.10452622718E+04  0.11193884874E+04  0.15294330000E+03 0.  0.
<mgrwt>
<rscale>  0 0.64472291E+03</rscale>
<asrwt>0</asrwt>
<pdfrwt beam="1">  1        2 0.24051524E+00 0.75556331E+03</pdfrwt>
<pdfrwt beam="2">  1       -2 0.51347932E-01 0.75556331E+03</pdfrwt>
<totfact> 0.42848568E+01</totfact>
</mgrwt>
</event>
<event>
 4    5  0.7289609E-008  0.1090991E+04  0.7818608E-02  0.9271153E-01
         -2   -1    0    0    0  501 -0.00000000000E+00  0.00000000000E+00  0.47003083164E+03  0.47003083165E+03  0.25500000000E-02 0.  1.
          2   -1    0    0  501    0  0.00000000000E+00 -0.00000000000E+00 -0.28738443138E+04  0.28738443138E+04  0.25500000000E-02 0. -1.
    8880023    1    1    2    0    0 -0.74294373735E+03 -0.45220178012E+03 -0.41399382628E+03  0.11668988565E+04  0.65864270000E+03 0.  0.
    8880022    1    1    2    0    0  0.74294373735E+03  0.45220178012E+03 -0.19898196559E+04  0.21769762890E+04  0.15294330000E+03 0.  0.
<mgrwt>
<rscale>  0 0.10348250E+04</rscale>
<asrwt>0</asrwt>
<pdfrwt beam="1">  1        2 0.44212988E+00 0.10909913E+04</pdfrwt>
<pdfrwt beam="2">  1       -2 0.72312438E-01 0.10909913E+04</pdfrwt>
<totfact> 0.36310524E+00</totfact>
</mgrwt>
</event>
<event>
 4    5  0.7289609E-008  0.1455786E+04  0.7818608E-02  0.8941505E-01
          2   -1    0    0  501    0  0.00000000000E+00  0.00000000000E+00  0.26385329886E+04  0.26385329886E+04  0.25500000000E-02 0. -1.
         -2   -1    0    0    0  501 -0.00000000000E+00 -0.00000000000E+00 -0.75414695290E+03  0.75414695291E+03  0.25500000000E-02 0.  1.
    8880023    1    1    2    0    0 -0.10672056896E+04 -0.73930624353E+03  0.64846159226E+03  0.15936795000E+04  0.65864270000E+03 0.  0.
    8880022    1    1    2    0    0  0.10672056896E+04  0.73930624353E+03  0.12359244434E+04  0.17990004415E+04  0.15294330000E+03 0.  0.
<mgrwt>
<rscale>  0 0.14171390E+04</rscale>
<asrwt>0</asrwt>
<pdfrwt beam="1">  1        2 0.40592816E+00 0.14557857E+04</pdfrwt>
<pdfrwt beam="2">  1       -2 0.11602261E+00 0.14557857E+04</pdfrwt>
<totfact> 0.15919897E+00</totfact>
</mgrwt>
</event>
<event>
 4    5  0.7289609E-008  0.6990847E+03  0.7818608E-02  0.1000102E+00
         -2   -1    0    0    0  501 -0.00000000000E+00  0.00000000000E+00  0.84539760048E+03  0.84539760048E+03  0.25500000000E-02 0.  1.
          2   -1    0    0  501    0  0.00000000000E+00 -0.00000000000E+00 -0.18821405243E+04  0.18821405243E+04  0.25500000000E-02 0. -1.
    8880023    1    1    2    0    0  0.22846538926E+03  0.52083939506E+02  0.68764172102E+03  0.98059701896E+03  0.65864270000E+03 0.  1.
    8880022    1    1    2    0    0 -0.22846538926E+03 -0.52083939506E+02 -0.17243846448E+04  0.17469411058E+04  0.15294330000E+03 0.  0.
<mgrwt>
<rscale>  0 0.55605548E+03</rscale>
<asrwt>0</asrwt>
<pdfrwt beam="1">  1        2 0.28956008E+00 0.69908467E+03</pdfrwt>
<pdfrwt beam="2">  1       -2 0.13006117E+00 0.69908467E+03</pdfrwt>
<totfact> 0.35154845E+00</totfact>
</mgrwt>
</event>
<event>
 4    5  0.7289609E-008  0.1192791E+04  0.7818608E-02  0.9164162E-01
          2   -1    0    0  501    0  0.00000000000E+00  0.00000000000E+00  0.11601724890E+04  0.11601724890E+04  0.25500000000E-02 0. -1.
         -2   -1    0    0    0  501 -0.00000000000E+00 -0.00000000000E+00 -0.16700156843E+04  0.16700156843E+04  0.25500000000E-02 0.  1.
    8880023    1    1    2    0    0  0.99377520249E+03 -0.36750608162E+02 -0.11342907070E+04  0.16460149983E+04  0.65864270000E+03 0.  0.
    8880022    1    1    2    0    0 -0.99377520249E+03  0.36750608162E+02  0.62444751181E+03  0.11841731750E+04  0.15294330000E+03 0.  0.
<mgrwt>
<rscale>  0 0.11431114E+04</rscale>
<asrwt>0</asrwt>
<pdfrwt beam="1">  1        2 0.17848807E+00 0.11927908E+04</pdfrwt>
<pdfrwt beam="2">  1       -2 0.25692549E+00 0.11927908E+04</pdfrwt>
<totfact> 0.11361171E+00</totfact>
</mgrwt>
</event>
<event>
 4    5  0.7289609E-008  0.1476483E+04  0.7818608E-02  0.8926423E-01
          2   -1    0    0  501    0  0.00000000000E+00  0.00000000000E+00  0.13883422355E+04  0.13883422355E+04  0.25500000000E-02 0. -1.
         -2   -1    0    0    0  501 -0.00000000000E+00 -0.00000000000E+00 -0.16949133784E+04  0.16949133784E+04  0.25500000000E-02 0.  1.
    8880023    1    1    2    0    0 -0.21767191127E+01 -0.13214337001E+04 -0.78175989137E+03  0.16706736653E+04  0.65864270000E+03 0.  1.
    8880022    1    1    2    0    0  0.21767191127E+01  0.13214337001E+04  0.47518874852E+03  0.14125819486E+04  0.15294330000E+03 0.  0.
<mgrwt>
<rscale>  0 0.14384846E+04</rscale>
<asrwt>0</asrwt>
<pdfrwt beam="1">  1        2 0.21359111E+00 0.14764830E+04</pdfrwt>
<pdfrwt beam="2">  1       -2 0.26075591E+00 0.14764830E+04</pdfrwt>
<totfact> 0.76556498E-01</totfact>
</mgrwt>
</event>
<event>
 4    5  0.7289609E-008  0.6894545E+03  0.7818608E-02  0.1004413E+00
         -2   -1    0    0    0  501 -0.00000000000E+00  0.00000000000E+00  0.78852922264E+03  0.78852922264E+03  0.25500000000E-02 0.  1.
          2   -1    0    0  501    0  0.00000000000E+00 -0.00000000000E+00 -0.27668799560E+04  0.27668799560E+04  0.25500000000E-02 0. -1.
    8880023    1    1    2    0    0 -0.19541131177E+03  0.57893755405E+02  0.63041902187E+03  0.93422460740E+03  0.65864270000E+03 0.  1.
    8880022    1    1    2    0    0  0.19541131177E+03 -0.57893755405E+02 -0.26087697553E+04  0.26211845713E+04  0.15294330000E+03 0.  0.
<mgrwt>
<rscale>  0 0.53756869E+03</rscale>
<asrwt>0</asrwt>
<pdfrwt beam="1">  1        2 0.42567383E+00 0.68945448E+03</pdfrwt>
<pdfrwt beam="2">  1       -2 0.12131219E+00 0.68945448E+03</pdfrwt>
<totfact> 0.13443024E+00</totfact>
</mgrwt>
</event>
<event>
 4    5  0.7289609E-008  0.1033317E+04  0.7818608E-02  0.9339211E-01
          2   -1    0    0  501    0  0.00000000000E+00  0.00000000000E+00  0.19574863065E+04  0.19574863065E+04  0.25500000000E-02 0. -1.
         -2   -1    0    0    0  501 -0.00000000000E+00 -0.00000000000E+00 -0.94568349096E+03  0.94568349097E+03  0.25500000000E-02 0.  1.
    8880023    1    1    2    0    0 -0.35157329690E+03 -0.71437326094E+03 -0.52991263120E+03  0.11612710889E+04  0.65864270000E+03 0.  1.
    8880022    1    1    2    0    0  0.35157329690E+03  0.71437326094E+03  0.15417154468E+04  0.17418987086E+04  0.15294330000E+03 0.  0.
<mgrwt>
<rscale>  0 0.97251774E+03</rscale>
<asrwt>0</asrwt>
<pdfrwt beam="1">  1        2 0.30115173E+00 0.10333166E+04</pdfrwt>
<pdfrwt beam="2">  1       -2 0.14548977E+00 0.10333166E+04</pdfrwt>
<totfact> 0.22751612E+00</totfact>
</mgrwt>
</event>
<event>
 4    5  0.7289609E-008  0.8591010E+03  0.7818608E-02  0.9595165E-01
         -2   -1    0    0    0  501 -0.00000000000E+00  0.00000000000E+00  0.58930684794E+03  0.58930684795E+03  0.25500000000E-02 0.  1.
          2   -1    0    0  501    0  0.00000000000E+00 -0.00000000000E+00 -0.16093721226E+04  0.16093721226E+04  0.25500000000E-02 0. -1.
    8880023    1    1    2    0    0 -0.41974704912E+03 -0.35785014183E+03  0.17214731314E+03  0.87617875627E+03  0.65864270000E+03 0.  1.
    8880022    1    1    2    0    0  0.41974704912E+03  0.35785014183E+03 -0.11922125878E+04  0.13225002143E+04  0.15294330000E+03 0.  0.
<mgrwt>
<rscale>  0 0.77617046E+03</rscale>
<asrwt>0</asrwt>
<pdfrwt beam="1">  1        2 0.24759571E+00 0.85910099E+03</pdfrwt>
<pdfrwt beam="2">  1       -2 0.90662592E-01 0.85910099E+03</pdfrwt>
<totfact> 0.11591108E+01</totfact>
</mgrwt>
</event>
<event>
 4    5  0.7289609E-008  0.7544888E+03  0.7818608E-02  0.9819590E-01
         -2   -1    0    0    0  501 -0.00000000000E+00  0.00000000000E+00  0.48253887358E+03  0.48253887359E+03  0.25500000000E-02 0.  1.
          2   -1    0    0  501    0  0.00000000000E+00 -0.00000000000E+00 -0.17746118732E+04  0.17746118732E+04  0.25500000000E-02 0. -1.
    8880023    1    1    2    0    0  0.17245114658E+03 -0.32512118930E+03  0.14286462161E+03  0.76789562576E+03  0.65864270000E+03 0.  1.
    8880022    1    1    2    0    0 -0.17245114658E+03  0.32512118930E+03 -0.14349376213E+04  0.14892551211E+04  0.15294330000E+03 0.  0.
<mgrwt>
<rscale>  0 0.64321747E+03</rscale>
<asrwt>0</asrwt>
<pdfrwt beam="1">  1        2 0.27301721E+00 0.75448883E+03</pdfrwt>
<pdfrwt beam="2">  1       -2 0.74236751E-01 0.75448883E+03</pdfrwt>
<totfact> 0.14983531E+01</totfact>
</mgrwt>
</event>
<event>
 4    5  0.7289609E-008  0.1177737E+04  0.7818608E-02  0.9179073E-01
          2   -1    0    0  501    0  0.00000000000E+00  0.00000000000E+00  0.39082819876E+04  0.39082819876E+04  0.25500000000E-02 0. -1.
         -2   -1    0    0    0  501 -0.00000000000E+00 -0.00000000000E+00 -0.74767938517E+03  0.74767938518E+03  0.25500000000E-02 0.  1.
    8880023    1    1    2    0    0 -0.79711179137E+03 -0.56379716317E+03 -0.16261764377E+03  0.11889109107E+04  0.65864270000E+03 0.  0.
    8880022    1    1    2    0    0  0.79711179137E+03  0.56379716317E+03  0.33232202462E+04  0.34670504622E+04  0.15294330000E+03 0.  0.
<mgrwt>
<rscale>  0 0.11272063E+04</rscale>
<asrwt>0</asrwt>
<pdfrwt beam="1">  1        2 0.60127414E+00 0.11777371E+04</pdfrwt>
<pdfrwt beam="2">  1       -2 0.11502760E+00 0.11777371E+04</pdfrwt>
<totfact> 0.24166746E-01</totfact>
</mgrwt>
</event>
<event>
 4    5  0.7289609E-008  0.1605508E+04  0.7818608E-02  0.8838516E-01
         -2   -1    0    0    0  501 -0.00000000000E+00  0.00000000000E+00  0.24056703169E+04  0.24056703169E+04  0.25500000000E-02 0.  1.
          2   -1    0    0  501    0  0.00000000000E+00 -0.00000000000E+00 -0.21468265809E+04  0.21468265809E+04  0.25500000000E-02 0. -1.
    8880023    1    1    2    0    0  0.47841646493E+03  0.13838218874E+04  0.18062724507E+04  0.24166662373E+04  0.65864270000E+03 0.  0.
    8880022    1    1    2    0    0 -0.47841646493E+03 -0.13838218874E+04 -0.15474287148E+04  0.21358306605E+04  0.15294330000E+03 0.  0.
<mgrwt>
<rscale>  0 0.15710776E+04</rscale>
<asrwt>0</asrwt>
<pdfrwt beam="1">  1        2 0.33028101E+00 0.16055079E+04</pdfrwt>
<pdfrwt beam="2">  1       -2 0.37010313E+00 0.16055079E+04</pdfrwt>
<totfact> 0.59410486E-02</totfact>
</mgrwt>
</event>
<event>
 4    5  0.7289609E-008  0.7102868E+03  0.7818608E-02  0.9956937E-01
         -2   -1    0    0    0  501 -0.00000000000E+00  0.00000000000E+00  0.11736149068E+03  0.11736149071E+03  0.25500000000E-02 0.  1.
          2   -1    0    0  501    0  0.00000000000E+00 -0.00000000000E+00 -0.25578787652E+04  0.25578787652E+04  0.25500000000E-02 0. -1.
    8880023    1    1    2    0    0  0.20427738025E+03  0.17019957283E+03 -0.11743264816E+04  0.13724248738E+04  0.65864270000E+03 0.  0.
    8880022    1    1    2    0    0 -0.20427738025E+03 -0.17019957283E+03 -0.12661907929E+04  0.13028153821E+04  0.15294330000E+03 0.  0.
<mgrwt>
<rscale>  0 0.57579455E+03</rscale>
<asrwt>0</asrwt>
<pdfrwt beam="1">  1        2 0.39351977E+00 0.71028681E+03</pdfrwt>
<pdfrwt beam="2">  1       -2 0.18055616E-01 0.71028681E+03</pdfrwt>
<totfact> 0.85900859E+01</totfact>
</mgrwt>
</event>
<event>
 4    5  0.7289609E-008  0.1110169E+04  0.7818608E-02  0.9249818E-01
         -2   -1    0    0    0  501 -0.00000000000E+00  0.00000000000E+00  0.54528628114E+03  0.54528628114E+03  0.25500000000E-02 0.  1.
          2   -1    0    0  501    0  0.00000000000E+00 -0.00000000000E+00 -0.26179395814E+04  0.26179395814E+04  0.25500000000E-02 0. -1.
    8880023    1    1    2    0    0 -0.70039403577E+03  0.55507902172E+03 -0.26564301290E+03  0.11415081876E+04  0.65864270000E+03 0.  0.
    8880022    1    1    2    0    0  0.70039403577E+03 -0.55507902172E+03 -0.18070102874E+04  0.20217176750E+04  0.15294330000E+03 0.  0.
<mgrwt>
<rscale>  0 0.10553693E+04</rscale>
<asrwt>0</asrwt>
<pdfrwt beam="1">  1        2 0.40275993E+00 0.11101688E+04</pdfrwt>
<pdfrwt beam="2">  1       -2 0.83890199E-01 0.11101688E+04</pdfrwt>
<totfact> 0.36792580E+00</totfact>
</mgrwt>
</event>
<event>
 4    5  0.7289609E-008  0.9284643E+03  0.7818608E-02  0.9481801E-01
          2   -1    0    0  501    0  0.00000000000E+00  0.00000000000E+00  0.33830221470E+04  0.33830221470E+04  0.25500000000E-02 0. -1.
         -2   -1    0    0    0  501 -0.00000000000E+00 -0.00000000000E+00 -0.72510413712E+03  0.72510413712E+03  0.25500000000E-02 0.  1.
    8880023    1    1    2    0    0  0.64056449015E+03  0.13383871567E+03 -0.37523064197E+03  0.10014209449E+04  0.65864270000E+03 0.  0.
    8880022    1    1    2    0    0 -0.64056449015E+03 -0.13383871567E+03  0.30331486519E+04  0.31067053393E+04  0.15294330000E+03 0.  0.
<mgrwt>
<rscale>  0 0.85638966E+03</rscale>
<asrwt>0</asrwt>
<pdfrwt beam="1">  1        2 0.52046494E+00 0.92846426E+03</pdfrwt>
<pdfrwt beam="2">  1       -2 0.11155448E+00 0.92846426E+03</pdfrwt>
<totfact> 0.64842388E-01</totfact>
</mgrwt>
</event>
<event>
 4    5  0.7289609E-008  0.6795038E+03  0.7818608E-02  0.1009606E+00
          2   -1    0    0  501    0  0.00000000000E+00  0.00000000000E+00  0.12098044298E+04  0.12098044298E+04  0.25500000000E-02 0. -1.
         -2   -1    0    0    0  501 -0.00000000000E+00 -0.00000000000E+00 -0.81026316926E+03  0.81026316927E+03  0.25500000000E-02 0.  1.
    8880023    1    1    2    0    0 -0.15624829006E+03  0.59174516872E+02 -0.65361084910E+03  0.94283216954E+03  0.65864270000E+03 0.  1.
    8880022    1    1    2    0    0  0.15624829006E+03 -0.59174516872E+02  0.10531521096E+04  0.10772354295E+04  0.15294330000E+03 0.  0.
<mgrwt>
<rscale>  0 0.51631622E+03</rscale>
<asrwt>0</asrwt>
<pdfrwt beam="1">  1        2 0.18612376E+00 0.67950376E+03</pdfrwt>
<pdfrwt beam="2">  1       -2 0.12465587E+00 0.67950376E+03</pdfrwt>
<totfact> 0.92916873E+00</totfact>
</mgrwt>
</event>
<event>
 4    5  0.7289609E-008  0.7301241E+03  0.7818608E-02  0.9889709E-01
          2   -1    0    0  501    0  0.00000000000E+00  0.00000000000E+00  0.13253410894E+04  0.13253410894E+04  0.25500000000E-02 0. -1.
         -2   -1    0    0    0  501 -0.00000000000E+00 -0.00000000000E+00 -0.35265270002E+03  0.35265270003E+03  0.25500000000E-02 0.  1.
    8880023    1    1    2    0    0 -0.29354191691E+03  0.11447357269E+03  0.99106148457E+02  0.73681971387E+03  0.65864270000E+03 0.  1.
    8880022    1    1    2    0    0  0.29354191691E+03 -0.11447357269E+03  0.87358224094E+03  0.94117407557E+03  0.15294330000E+03 0.  0.
<mgrwt>
<rscale>  0 0.60762635E+03</rscale>
<asrwt>0</asrwt>
<pdfrwt beam="1">  1        2 0.20389863E+00 0.73012414E+03</pdfrwt>
<pdfrwt beam="2">  1       -2 0.54254262E-01 0.73012414E+03</pdfrwt>
<totfact> 0.52190393E+01</totfact>
</mgrwt>
</event>
<event>
 4    5  0.7289609E-008  0.7951928E+03  0.7818608E-02  0.9721288E-01
         -2   -1    0    0    0  501 -0.00000000000E+00  0.00000000000E+00  0.15248625138E+04  0.15248625138E+04  0.25500000000E-02 0.  1.
          2   -1    0    0  501    0  0.00000000000E+00 -0.00000000000E+00 -0.47012875335E+03  0.47012875335E+03  0.25500000000E-02 0. -1.
    8880023    1    1    2    0    0 -0.25440638871E+03 -0.36578520839E+03  0.12528891067E+04  0.14839348872E+04  0.65864270000E+03 0.  1.
    8880022    1    1    2    0    0  0.25440638871E+03  0.36578520839E+03 -0.19815534626E+03  0.51105638002E+03  0.15294330000E+03 0.  0.
<mgrwt>
<rscale>  0 0.69763330E+03</rscale>
<asrwt>0</asrwt>
<pdfrwt beam="1">  1        2 0.72327500E-01 0.79519283E+03</pdfrwt>
<pdfrwt beam="2">  1       -2 0.23459423E+00 0.79519283E+03</pdfrwt>
<totfact> 0.53989861E+00</totfact>
</mgrwt>
</event>
<event>
 4    5  0.7781005E-008  0.9210687E+03  0.7818608E-02  0.9493022E-01
         -2   -1    0    0    0  501 -0.00000000000E+00  0.00000000000E+00  0.15309704682E+04  0.15309704682E+04  0.25500000000E-02 0.  1.
          2   -1    0    0  501    0  0.00000000000E+00 -0.00000000000E+00 -0.16779957036E+04  0.16779957036E+04  0.25500000000E-02 0. -1.
    8880023    1    1    2    0    0  0.50141669235E+03 -0.40390419987E+03  0.13142207036E+04  0.16048500136E+04  0.65864270000E+03 0.  1.
    8880022    1    1    2    0    0 -0.50141669235E+03  0.40390419987E+03 -0.14612459389E+04  0.16041161582E+04  0.15294330000E+03 0.  0.
<mgrwt>
<rscale>  0 0.84800214E+03</rscale>
<asrwt>0</asrwt>
<pdfrwt beam="1">  1        2 0.25815319E+00 0.92106868E+03</pdfrwt>
<pdfrwt beam="2">  1       -2 0.23553392E+00 0.92106868E+03</pdfrwt>
<totfact> 0.80492024E-01</totfact>
</mgrwt>
</event>
<event>
 4    5  0.7289609E-008  0.1142330E+04  0.7818608E-02  0.9215329E-01
         -2   -1    0    0    0  501 -0.00000000000E+00  0.00000000000E+00  0.96123211891E+03  0.96123211891E+03  0.25500000000E-02 0.  1.
          2   -1    0    0  501    0  0.00000000000E+00 -0.00000000000E+00 -0.15722911815E+04  0.15722911815E+04  0.25500000000E-02 0. -1.
    8880023    1    1    2    0    0  0.92779633850E+03  0.10149643619E+03  0.34039795671E+03  0.11919683500E+04  0.65864270000E+03 0.  1.
    8880022    1    1    2    0    0 -0.92779633850E+03 -0.10149643619E+03 -0.95145701932E+03  0.13415549504E+04  0.15294330000E+03 0.  0.
<mgrwt>
<rscale>  0 0.10896604E+04</rscale>
<asrwt>0</asrwt>
<pdfrwt beam="1">  1        2 0.24189095E+00 0.11423300E+04</pdfrwt>
<pdfrwt beam="2">  1       -2 0.14788186E+00 0.11423300E+04</pdfrwt>
<totfact> 0.35161824E+00</totfact>
</mgrwt>
</event>
<event>
 4    5  0.7289609E-008  0.2402118E+04  0.7818608E-02  0.8447005E-01
         -2   -1    0    0    0  501 -0.00000000000E+00  0.00000000000E+00  0.22235195133E+04  0.22235195133E+04  0.25500000000E-02 0.  1.
          2   -1    0    0  501    0  0.00000000000E+00 -0.00000000000E+00 -0.27219152234E+04  0.27219152234E+04  0.25500000000E-02 0. -1.
    8880023    1    1    2    0    0 -0.23067859135E+04  0.12288058803E+03 -0.95629295556E+03  0.25854723578E+04  0.65864270000E+03 0.  0.
    8880022    1    1    2    0    0  0.23067859135E+04 -0.12288058803E+03  0.45789724540E+03  0.23599623789E+04  0.15294330000E+03 0.  0.
<mgrwt>
<rscale>  0 0.23800652E+04</rscale>
<asrwt>0</asrwt>
<pdfrwt beam="1">  1        2 0.41875619E+00 0.24021180E+04</pdfrwt>
<pdfrwt beam="2">  1       -2 0.34207992E+00 0.24021180E+04</pdfrwt>
<totfact> 0.38194204E-02</totfact>
</mgrwt>
</event>
<event>
 4    5  0.7289609E-008  0.8701956E+03  0.7818608E-02  0.9575678E-01
          2   -1    0    0  501    0  0.00000000000E+00  0.00000000000E+00  0.80926972163E+03  0.80926972164E+03  0.25500000000E-02 0. -1.
         -2   -1    0    0    0  501 -0.00000000000E+00 -0.00000000000E+00 -0.80522556185E+03  0.80522556185E+03  0.25500000000E-02 0.  1.
    8880023    1    1    2    0    0  0.32676131344E+03  0.46546461112E+03 -0.33790915503E+03  0.93350043572E+03  0.65864270000E+03 0.  1.
    8880022    1    1    2    0    0 -0.32676131344E+03 -0.46546461112E+03  0.34195331481E+03  0.68099484777E+03  0.15294330000E+03 0.  0.
<mgrwt>
<rscale>  0 0.78927073E+03</rscale>
<asrwt>0</asrwt>
<pdfrwt beam="1">  1        2 0.12450303E+00 0.87019565E+03</pdfrwt>
<pdfrwt beam="2">  1       -2 0.12388086E+00 0.87019565E+03</pdfrwt>
<totfact> 0.16693431E+01</totfact>
</mgrwt>
</event>
<event>
 4    5  0.7289609E-008  0.9158298E+03  0.7818608E-02  0.9501083E-01
          2   -1    0    0  501    0  0.00000000000E+00  0.00000000000E+00  0.21150283544E+04  0.21150283544E+04  0.25500000000E-02 0. -1.
         -2   -1    0    0    0  501 -0.00000000000E+00 -0.00000000000E+00 -0.57966195924E+03  0.57966195925E+03  0.25500000000E-02 0.  1.
    8880023    1    1    2    0    0 -0.42102321004E+02  0.63494991339E+03 -0.11145620118E+03  0.92258695470E+03  0.65864270000E+03 0.  1.
    8880022    1    1    2    0    0  0.42102321004E+02 -0.63494991339E+03  0.16468225963E+04  0.17721033589E+04  0.15294330000E+03 0. -1.
<mgrwt>
<rscale>  0 0.84204022E+03</rscale>
<asrwt>0</asrwt>
<pdfrwt beam="1">  1        2 0.32538898E+00 0.91582979E+03</pdfrwt>
<pdfrwt beam="2">  1       -2 0.89178763E-01 0.91582979E+03</pdfrwt>
<totfact> 0.63062552E+00</totfact>
</mgrwt>
</event>
<event>
 4    5  0.7289609E-008  0.1186824E+04  0.7818608E-02  0.9170038E-01
          2   -1    0    0  501    0  0.00000000000E+00  0.00000000000E+00  0.45061243741E+04  0.45061243741E+04  0.25500000000E-02 0. -1.
         -2   -1    0    0    0  501 -0.00000000000E+00 -0.00000000000E+00 -0.47975266198E+03  0.47975266199E+03  0.25500000000E-02 0.  1.
    8880023    1    1    2    0    0 -0.59580342702E+03  0.78724820619E+03  0.44458020863E+03  0.12673607340E+04  0.65864270000E+03 0.  0.
    8880022    1    1    2    0    0  0.59580342702E+03 -0.78724820619E+03  0.35817915035E+04  0.37185163021E+04  0.15294330000E+03 0.  0.
<mgrwt>
<rscale>  0 0.11368112E+04</rscale>
<asrwt>0</asrwt>
<pdfrwt beam="1">  1        2 0.69324991E+00 0.11868242E+04</pdfrwt>
<pdfrwt beam="2">  1       -2 0.73808101E-01 0.11868242E+04</pdfrwt>
<totfact> 0.20818408E-01</totfact>
</mgrwt>
</event>
<event>
 4    5  0.7289609E-008  0.7336909E+03  0.7818608E-02  0.9878721E-01
          2   -1    0    0  501    0  0.00000000000E+00  0.00000000000E+00  0.57123782052E+03  0.57123782053E+03  0.25500000000E-02 0. -1.
         -2   -1    0    0    0  501 -0.00000000000E+00 -0.00000000000E+00 -0.14326951569E+04  0.14326951569E+04  0.25500000000E-02 0.  1.
    8880023    1    1    2    0    0 -0.25392327631E+03  0.20003791089E+03 -0.12664671080E+04  0.14636397569E+04  0.65864270000E+03 0.  1.
    8880022    1    1    2    0    0  0.25392327631E+03 -0.20003791089E+03  0.40500977162E+03  0.54029322055E+03  0.15294330000E+03 0.  0.
<mgrwt>
<rscale>  0 0.61303720E+03</rscale>
<asrwt>0</asrwt>
<pdfrwt beam="1">  1        2 0.87882742E-01 0.73369094E+03</pdfrwt>
<pdfrwt beam="2">  1       -2 0.22041464E+00 0.73369094E+03</pdfrwt>
<totfact> 0.53017072E+00</totfact>
</mgrwt>
</event>
<event>
 4    5  0.7289609E-008  0.8315998E+03  0.7818608E-02  0.9646228E-01
         -2   -1    0    0    0  501 -0.00000000000E+00  0.00000000000E+00  0.50192566707E+03  0.50192566708E+03  0.25500000000E-02 0.  1.
          2   -1    0    0  501    0  0.00000000000E+00 -0.00000000000E+00 -0.25951574074E+04  0.25951574074E+04  0.25500000000E-02 0. -1.
    8880023    1    1    2    0    0 -0.20896151938E+03 -0.46269108167E+03  0.10281606197E+03  0.83793156194E+03  0.65864270000E+03 0.  0.
    8880022    1    1    2    0    0  0.20896151938E+03  0.46269108167E+03 -0.21960478023E+04  0.22591515125E+04  0.15294330000E+03 0.  0.
<mgrwt>
<rscale>  0 0.74310643E+03</rscale>
<asrwt>0</asrwt>
<pdfrwt beam="1">  1        2 0.39925498E+00 0.83159976E+03</pdfrwt>
<pdfrwt beam="2">  1       -2 0.77219335E-01 0.83159976E+03</pdfrwt>
<totfact> 0.47582286E+00</totfact>
</mgrwt>
</event>
<event>
 4    5  0.7289609E-008  0.7427087E+03  0.7818608E-02  0.9852126E-01
          2   -1    0    0  501    0  0.00000000000E+00  0.00000000000E+00  0.22835806693E+04  0.22835806693E+04  0.25500000000E-02 0. -1.
         -2   -1    0    0    0  501 -0.00000000000E+00 -0.00000000000E+00 -0.47935779001E+03  0.47935779001E+03  0.25500000000E-02 0.  1.
    8880023    1    1    2    0    0  0.33534497349E+03  0.73141641211E+02 -0.16280331022E+03  0.76034273522E+03  0.65864270000E+03 0.  1.
    8880022    1    1    2    0    0 -0.33534497349E+03 -0.73141641211E+02  0.19670261895E+04  0.20025957241E+04  0.15294330000E+03 0.  0.
<mgrwt>
<rscale>  0 0.62638635E+03</rscale>
<asrwt>0</asrwt>
<pdfrwt beam="1">  1        2 0.35132010E+00 0.74270866E+03</pdfrwt>
<pdfrwt beam="2">  1       -2 0.73747353E-01 0.74270866E+03</pdfrwt>
<totfact> 0.80171186E+00</totfact>
</mgrwt>
</event>
<event>
 4    5  0.7289609E-008  0.8663552E+03  0.7818608E-02  0.9582357E-01
         -2   -1    0    0    0  501 -0.00000000000E+00  0.00000000000E+00  0.12841743719E+04  0.12841743719E+04  0.25500000000E-02 0.  1.
          2   -1    0    0  501    0  0.00000000000E+00 -0.00000000000E+00 -0.44746715461E+03  0.44746715462E+03  0.25500000000E-02 0. -1.
    8880023    1    1    2    0    0  0.20913515944E+03  0.52251662735E+03  0.74220930136E+03  0.11408093592E+04  0.65864270000E+03 0.  0.
    8880022    1    1    2    0    0 -0.20913515944E+03 -0.52251662735E+03  0.94497915900E+02  0.59083216728E+03  0.15294330000E+03 0.  0.
<mgrwt>
<rscale>  0 0.78474986E+03</rscale>
<asrwt>0</asrwt>
<pdfrwt beam="1">  1        2 0.68841101E-01 0.86635521E+03</pdfrwt>
<pdfrwt beam="2">  1       -2 0.19756529E+00 0.86635521E+03</pdfrwt>
<totfact> 0.97290129E+00</totfact>
</mgrwt>
</event>
<event>
 4    5  0.7289609E-008  0.1042124E+04  0.7818608E-02  0.9328410E-01
         -2   -1    0    0    0  501 -0.00000000000E+00  0.00000000000E+00  0.41515585737E+03  0.41515585737E+03  0.25500000000E-02 0.  1.
          2   -1    0    0  501    0  0.00000000000E+00 -0.00000000000E+00 -0.29803954846E+04  0.29803954846E+04  0.25500000000E-02 0. -1.
    8880023    1    1    2    0    0  0.80664705027E+03  0.39137475491E+02 -0.46683557695E+03  0.11419093081E+04  0.65864270000E+03 0.  1.
    8880022    1    1    2    0    0 -0.80664705027E+03 -0.39137475491E+02 -0.20984040502E+04  0.22536420339E+04  0.15294330000E+03 0.  0.
<mgrwt>
<rscale>  0 0.98208896E+03</rscale>
<asrwt>0</asrwt>
<pdfrwt beam="1">  1        2 0.45852237E+00 0.10421235E+04</pdfrwt>
<pdfrwt beam="2">  1       -2 0.63870134E-01 0.10421235E+04</pdfrwt>
<totfact> 0.41248115E+00</totfact>
</mgrwt>
</event>
<event>
 4    5  0.7289609E-008  0.1965800E+04  0.7818608E-02  0.8635974E-01
          2   -1    0    0  501    0  0.00000000000E+00  0.00000000000E+00  0.21325629440E+04  0.21325629441E+04  0.25500000000E-02 0. -1.
         -2   -1    0    0    0  501 -0.00000000000E+00 -0.00000000000E+00 -0.23944822635E+04  0.23944822635E+04  0.25500000000E-02 0.  1.
    8880023    1    1    2    0    0  0.12643094065E+04 -0.13535438843E+04 -0.13394738229E+04  0.23787727194E+04  0.65864270000E+03 0.  0.
    8880022    1    1    2    0    0 -0.12643094065E+04  0.13535438843E+04  0.10775545035E+04  0.21482724881E+04  0.15294330000E+03 0.  0.
<mgrwt>
<rscale>  0 0.19384027E+04</rscale>
<asrwt>0</asrwt>
<pdfrwt beam="1">  1        2 0.32808661E+00 0.19658000E+04</pdfrwt>
<pdfrwt beam="2">  1       -2 0.36838188E+00 0.19658000E+04</pdfrwt>
<totfact> 0.59583908E-02</totfact>
</mgrwt>
</event>
<event>
 4    5  0.8655737E-008  0.1070047E+04  0.7818608E-02  0.9295162E-01
          2   -1    0    0  501    0  0.00000000000E+00  0.00000000000E+00  0.31942394935E+04  0.31942394935E+04  0.25500000000E-02 0. -1.
         -2   -1    0    0    0  501 -0.00000000000E+00 -0.00000000000E+00 -0.16076004651E+04  0.16076004651E+04  0.25500000000E-02 0.  1.
    8880023    1    1    2    0    0  0.42283715300E+03  0.72965640606E+03 -0.13614847390E+04  0.17316583467E+04  0.65864270000E+03 0.  0.
    8880022    1    1    2    0    0 -0.42283715300E+03 -0.72965640606E+03  0.29481237675E+04  0.30701816119E+04  0.15294330000E+03 0.  0.
<mgrwt>
<rscale>  0 0.10122949E+04</rscale>
<asrwt>0</asrwt>
<pdfrwt beam="1">  1        2 0.49142145E+00 0.10700467E+04</pdfrwt>
<pdfrwt beam="2">  1       -2 0.24732315E+00 0.10700467E+04</pdfrwt>
<totfact> 0.88378954E-02</totfact>
</mgrwt>
</event>
<event>
 4    5  0.7289609E-008  0.7844512E+03  0.7818608E-02  0.9745483E-01
         -2   -1    0    0    0  501 -0.00000000000E+00  0.00000000000E+00  0.80934784573E+03  0.80934784573E+03  0.25500000000E-02 0.  1.
          2   -1    0    0  501    0  0.00000000000E+00 -0.00000000000E+00 -0.75858803508E+03  0.75858803508E+03  0.25500000000E-02 0. -1.
    8880023    1    1    2    0    0  0.11940644312E+03 -0.40901778248E+03  0.49992575516E+03  0.93020933772E+03  0.65864270000E+03 0.  1.
    8880022    1    1    2    0    0 -0.11940644312E+03  0.40901778248E+03 -0.44916594451E+03  0.63772654310E+03  0.15294330000E+03 0.  0.
<mgrwt>
<rscale>  0 0.68372133E+03</rscale>
<asrwt>0</asrwt>
<pdfrwt beam="1">  1        2 0.11670585E+00 0.78445118E+03</pdfrwt>
<pdfrwt beam="2">  1       -2 0.12451505E+00 0.78445118E+03</pdfrwt>
<totfact> 0.18088182E+01</totfact>
</mgrwt>
</event>
<event>
 4    5  0.7289609E-008  0.7278014E+03  0.7818608E-02  0.9897022E-01
          2   -1    0    0  501    0  0.00000000000E+00  0.00000000000E+00  0.60979223486E+03  0.60979223487E+03  0.25500000000E-02 0. -1.
         -2   -1    0    0    0  501 -0.00000000000E+00 -0.00000000000E+00 -0.63648676652E+03  0.63648676652E+03  0.25500000000E-02 0.  1.
    8880023    1    1    2    0    0 -0.23271411615E+03  0.20427618586E+03 -0.31821502595E+03  0.79432715487E+03  0.65864270000E+03 0.  1.
    8880022    1    1    2    0    0  0.23271411615E+03 -0.20427618586E+03  0.29152049429E+03  0.45195184652E+03  0.15294330000E+03 0.  0.
<mgrwt>
<rscale>  0 0.60405837E+03</rscale>
<asrwt>0</asrwt>
<pdfrwt beam="1">  1        2 0.93814190E-01 0.72780136E+03</pdfrwt>
<pdfrwt beam="2">  1       -2 0.97921041E-01 0.72780136E+03</pdfrwt>
<totfact> 0.42812188E+01</totfact>
</mgrwt>
</event>
<event>
 4    5  0.7289609E-008  0.7493055E+03  0.7818608E-02  0.9833625E-01
          2   -1    0    0  501    0  0.00000000000E+00  0.00000000000E+00  0.85267260732E+03  0.85267260732E+03  0.25500000000E-02 0. -1.
         -2   -1    0    0    0  501 -0.00000000000E+00 -0.00000000000E+00 -0.79819169238E+03  0.79819169239E+03  0.25500000000E-02 0.  1.
    8880023    1    1    2    0    0 -0.43012579783E+02 -0.35468069311E+03 -0.55190721229E+03  0.93062358305E+03  0.65864270000E+03 0.  1.
    8880022    1    1    2    0    0  0.43012579783E+02  0.35468069311E+03  0.60638812722E+03  0.72024071666E+03  0.15294330000E+03 0.  0.
<mgrwt>
<rscale>  0 0.63588813E+03</rscale>
<asrwt>0</asrwt>
<pdfrwt beam="1">  1        2 0.13118040E+00 0.74930547E+03</pdfrwt>
<pdfrwt beam="2">  1       -2 0.12279872E+00 0.74930547E+03</pdfrwt>
<totfact> 0.16086792E+01</totfact>
</mgrwt>
</event>
<event>
 4    5  0.7289609E-008  0.9372440E+03  0.7818608E-02  0.9468710E-01
          2   -1    0    0  501    0  0.00000000000E+00  0.00000000000E+00  0.12115498228E+04  0.12115498228E+04  0.25500000000E-02 0. -1.
         -2   -1    0    0    0  501 -0.00000000000E+00 -0.00000000000E+00 -0.11483181551E+04  0.11483181551E+04  0.25500000000E-02 0.  1.
    8880023    1    1    2    0    0  0.31693168929E+03  0.58666044455E+03  0.88607190582E+03  0.12897867271E+04  0.65864270000E+03 0.  0.
    8880022    1    1    2    0    0 -0.31693168929E+03 -0.58666044455E+03 -0.82284023814E+03  0.10700812508E+04  0.15294330000E+03 0.  0.
<mgrwt>
<rscale>  0 0.86630566E+03</rscale>
<asrwt>0</asrwt>
<pdfrwt beam="1">  1        2 0.18639228E+00 0.93724403E+03</pdfrwt>
<pdfrwt beam="2">  1       -2 0.17666433E+00 0.93724403E+03</pdfrwt>
<totfact> 0.35608249E+00</totfact>
</mgrwt>
</event>
<event>
 4    5  0.7289609E-008  0.1088875E+04  0.7818608E-02  0.9273544E-01
          2   -1    0    0  501    0  0.00000000000E+00  0.00000000000E+00  0.18725361185E+04  0.18725361185E+04  0.25500000000E-02 0. -1.
         -2   -1    0    0    0  501 -0.00000000000E+00 -0.00000000000E+00 -0.73318679713E+03  0.73318679713E+03  0.25500000000E-02 0.  1.
    8880023    1    1    2    0    0  0.37659986856E+03  0.78103229972E+03 -0.91123771660E+02  0.10926814093E+04  0.65864270000E+03 0.  0.
    8880022    1    1    2    0    0 -0.37659986856E+03 -0.78103229972E+03  0.12304730930E+04  0.15130415063E+04  0.15294330000E+03 0.  0.
<mgrwt>
<rscale>  0 0.10325532E+04</rscale>
<asrwt>0</asrwt>
<pdfrwt beam="1">  1        2 0.28808248E+00 0.10888752E+04</pdfrwt>
<pdfrwt beam="2">  1       -2 0.11279797E+00 0.10888752E+04</pdfrwt>
<totfact> 0.48024927E+00</totfact>
</mgrwt>
</event>
<event>
 4    5  0.7289609E-008  0.6594880E+03  0.7818608E-02  0.1024687E+00
          2   -1    0    0  501    0  0.00000000000E+00  0.00000000000E+00  0.12571268233E+04  0.12571268233E+04  0.25500000000E-02 0. -1.
         -2   -1    0    0    0  501 -0.00000000000E+00 -0.00000000000E+00 -0.17229973721E+04  0.17229973721E+04  0.25500000000E-02 0.  1.
    8880023    1    1    2    0    0  0.31925965919E+02 -0.97460624333E+01 -0.16545712917E+04  0.17811599082E+04  0.65864270000E+03 0.  1.
    8880022    1    1    2    0    0 -0.31925965919E+02  0.97460624333E+01  0.11887007428E+04  0.11989642872E+04  0.15294330000E+03 0.  0.
<mgrwt>
<rscale>  0 0.46032444E+03</rscale>
<asrwt>0</asrwt>
<pdfrwt beam="1">  1        2 0.19340413E+00 0.65948803E+03</pdfrwt>
<pdfrwt beam="2">  1       -2 0.26507652E+00 0.65948803E+03</pdfrwt>
<totfact> 0.96565650E-01</totfact>
</mgrwt>
</event>
<event>
 4    5  0.7289609E-008  0.8629679E+03  0.7818608E-02  0.9588306E-01
         -2   -1    0    0    0  501 -0.00000000000E+00  0.00000000000E+00  0.10862123244E+04  0.10862123244E+04  0.25500000000E-02 0.  1.
          2   -1    0    0  501    0  0.00000000000E+00 -0.00000000000E+00 -0.13186471144E+04  0.13186471144E+04  0.25500000000E-02 0. -1.
    8880023    1    1    2    0    0 -0.54672161079E+03  0.10953905309E+03  0.82869659902E+03  0.11964328579E+04  0.65864270000E+03 0.  1.
    8880022    1    1    2    0    0  0.54672161079E+03 -0.10953905309E+03 -0.10611313890E+04  0.12084265810E+04  0.15294330000E+03 0.  0.
<mgrwt>
<rscale>  0 0.78075037E+03</rscale>
<asrwt>0</asrwt>
<pdfrwt beam="1">  1        2 0.20286879E+00 0.86296786E+03</pdfrwt>
<pdfrwt beam="2">  1       -2 0.16710959E+00 0.86296786E+03</pdfrwt>
<totfact> 0.36341438E+00</totfact>
</mgrwt>
</event>
<event>
 4    5  0.8134252E-008  0.1189994E+04  0.7818608E-02  0.9166911E-01
         -2   -1    0    0    0  501 -0.00000000000E+00  0.00000000000E+00  0.12992886097E+04  0.12992886097E+04  0.25500000000E-02 0.  1.
          2   -1    0    0  501    0  0.00000000000E+00 -0.00000000000E+00 -0.36173888579E+04  0.36173888579E+04  0.25500000000E-02 0. -1.
    8880023    1    1    2    0    0  0.70819302599E+03  0.69335284083E+03  0.93445136405E+03  0.15130383610E+04  0.65864270000E+03 0.  0.
    8880022    1    1    2    0    0 -0.70819302599E+03 -0.69335284083E+03 -0.32525516123E+04  0.34036391066E+04  0.15294330000E+03 0.  0.
<mgrwt>
<rscale>  0 0.11401589E+04</rscale>
<asrwt>0</asrwt>
<pdfrwt beam="1">  1        2 0.55652136E+00 0.11899940E+04</pdfrwt>
<pdfrwt beam="2">  1       -2 0.19989056E+00 0.11899940E+04</pdfrwt>
<totfact> 0.89119584E-02</totfact>
</mgrwt>
</event>
<event>
 4    5  0.7289609E-008  0.1994149E+04  0.7818608E-02  0.8622121E-01
          2   -1    0    0  501    0  0.00000000000E+00  0.00000000000E+00  0.29058679686E+04  0.29058679686E+04  0.25500000000E-02 0. -1.
         -2   -1    0    0    0  501 -0.00000000000E+00 -0.00000000000E+00 -0.21236090840E+04  0.21236090840E+04  0.25500000000E-02 0.  1.
    8880023    1    1    2    0    0  0.17798106276E+04 -0.61244789049E+03 -0.11710425876E+04  0.23125676718E+04  0.65864270000E+03 0.  0.
    8880022    1    1    2    0    0 -0.17798106276E+04  0.61244789049E+03  0.19533014722E+04  0.27169093807E+04  0.15294330000E+03 0.  0.
<mgrwt>
<rscale>  0 0.19671795E+04</rscale>
<asrwt>0</asrwt>
<pdfrwt beam="1">  1        2 0.44705661E+00 0.19941486E+04</pdfrwt>
<pdfrwt beam="2">  1       -2 0.32670909E+00 0.19941486E+04</pdfrwt>
<totfact> 0.38326023E-02</totfact>
</mgrwt>
</event>
<event>
 4    5  0.7289609E-008  0.1320949E+04  0.7818608E-02  0.9047677E-01
          2   -1    0    0  501    0  0.00000000000E+00  0.00000000000E+00  0.17768317209E+04  0.17768317209E+04  0.25500000000E-02 0. -1.
         -2   -1    0    0    0  501 -0.00000000000E+00 -0.00000000000E+00 -0.98150427908E+03  0.98150427908E+03  0.25500000000E-02 0.  1.
    8880023    1    1    2    0    0 -0.96779385910E+03  0.61194022651E+03 -0.57874128203E+02  0.13222161002E+04  0.65864270000E+03 0.  1.
    8880022    1    1    2    0    0  0.96779385910E+03 -0.61194022651E+03  0.85320156998E+03  0.14361198998E+04  0.15294330000E+03 0.  0.
<mgrwt>
<rscale>  0 0.12774056E+04</rscale>
<asrwt>0</asrwt>
<pdfrwt beam="1">  1        2 0.27335872E+00 0.13209489E+04</pdfrwt>
<pdfrwt beam="2">  1       -2 0.15100066E+00 0.13209489E+04</pdfrwt>
<totfact> 0.25132430E+00</totfact>
</mgrwt>
</event>
<event>
 4    5  0.7289609E-008  0.9322321E+03  0.7818608E-02  0.9476153E-01
          2   -1    0    0  501    0  0.00000000000E+00  0.00000000000E+00  0.83526330323E+03  0.83526330323E+03  0.25500000000E-02 0. -1.
         -2   -1    0    0    0  501 -0.00000000000E+00 -0.00000000000E+00 -0.14397534935E+04  0.14397534935E+04  0.25500000000E-02 0.  1.
    8880023    1    1    2    0    0 -0.41385177583E+03 -0.51378326713E+03 -0.10955411026E+04  0.14384947173E+04  0.65864270000E+03 0.  0.
    8880022    1    1    2    0    0  0.41385177583E+03  0.51378326713E+03  0.49105091230E+03  0.83652207946E+03  0.15294330000E+03 0.  0.
<mgrwt>
<rscale>  0 0.86065050E+03</rscale>
<asrwt>0</asrwt>
<pdfrwt beam="1">  1        2 0.12850205E+00 0.93223213E+03</pdfrwt>
<pdfrwt beam="2">  1       -2 0.22150054E+00 0.93223213E+03</pdfrwt>
<totfact> 0.31490561E+00</totfact>
</mgrwt>
</event>
<event>
 4    5  0.7289609E-008  0.1814284E+04  0.7818608E-02  0.8714676E-01
         -2   -1    0    0    0  501 -0.00000000000E+00  0.00000000000E+00  0.10303581571E+04  0.10303581571E+04  0.25500000000E-02 0.  1.
          2   -1    0    0  501    0  0.00000000000E+00 -0.00000000000E+00 -0.46669434336E+04  0.46669434336E+04  0.25500000000E-02 0. -1.
    8880023    1    1    2    0    0  0.54234149855E+03 -0.16011504001E+04 -0.15121578164E+03  0.18205749981E+04  0.65864270000E+03 0.  0.
    8880022    1    1    2    0    0 -0.54234149855E+03  0.16011504001E+04 -0.34853694949E+04  0.38767265926E+04  0.15294330000E+03 0.  0.
<mgrwt>
<rscale>  0 0.17843327E+04</rscale>
<asrwt>0</asrwt>
<pdfrwt beam="1">  1        2 0.71799129E+00 0.18142842E+04</pdfrwt>
<pdfrwt beam="2">  1       -2 0.15851664E+00 0.18142842E+04</pdfrwt>
<totfact> 0.20006706E-02</totfact>
</mgrwt>
</event>
<event>
 4    5  0.7289609E-008  0.6884887E+03  0.7818608E-02  0.1004879E+00
         -2   -1    0    0    0  501 -0.00000000000E+00  0.00000000000E+00  0.13103055519E+03  0.13103055521E+03  0.25500000000E-02 0.  1.
          2   -1    0    0  501    0  0.00000000000E+00 -0.00000000000E+00 -0.30253214464E+04  0.30253214464E+04  0.25500000000E-02 0. -1.
    8880023    1    1    2    0    0 -0.41058064595E+02  0.19626689596E+03 -0.83754981568E+03  0.10842077103E+04  0.65864270000E+03 0.  0.
    8880022    1    1    2    0    0  0.41058064595E+02 -0.19626689596E+03 -0.20567410755E+04  0.20721442913E+04  0.15294330000E+03 0.  0.
<mgrwt>
<rscale>  0 0.53561549E+03</rscale>
<asrwt>0</asrwt>
<pdfrwt beam="1">  1        2 0.46543402E+00 0.68848868E+03</pdfrwt>
<pdfrwt beam="2">  1       -2 0.20158549E-01 0.68848868E+03</pdfrwt>
<totfact> 0.37715271E+01</totfact>
</mgrwt>
</event>
<event>
 4    5  0.7289609E-008  0.1125541E+04  0.7818608E-02  0.9233138E-01
          2   -1    0    0  501    0  0.00000000000E+00  0.00000000000E+00  0.34086509281E+04  0.34086509281E+04  0.25500000000E-02 0. -1.
         -2   -1    0    0    0  501 -0.00000000000E+00 -0.00000000000E+00 -0.68076768177E+03  0.68076768178E+03  0.25500000000E-02 0.  1.
    8880023    1    1    2    0    0 -0.57347082297E+03 -0.71004491842E+03 -0.84480259552E+02  0.11287070884E+04  0.65864270000E+03 0.  0.
    8880022    1    1    2    0    0  0.57347082297E+03  0.71004491842E+03  0.28123635059E+04  0.29607115214E+04  0.15294330000E+03 0. -1.
<mgrwt>
<rscale>  0 0.10717837E+04</rscale>
<asrwt>0</asrwt>
<pdfrwt beam="1">  1        2 0.52440784E+00 0.11255411E+04</pdfrwt>
<pdfrwt beam="2">  1       -2 0.10473349E+00 0.11255411E+04</pdfrwt>
<totfact> 0.70190029E-01</totfact>
</mgrwt>
</event>
<event>
 4    5  0.7289609E-008  0.8767594E+03  0.7818608E-02  0.9564420E-01
         -2   -1    0    0    0  501 -0.00000000000E+00  0.00000000000E+00  0.52007256552E+03  0.52007256553E+03  0.25500000000E-02 0.  1.
          2   -1    0    0  501    0  0.00000000000E+00 -0.00000000000E+00 -0.14107118390E+04  0.14107118390E+04  0.25500000000E-02 0. -1.
    8880023    1    1    2    0    0  0.54182615975E+03 -0.20327650795E+03 -0.23448853455E+02  0.87707296222E+03  0.65864270000E+03 0.  0.
    8880022    1    1    2    0    0 -0.54182615975E+03  0.20327650795E+03 -0.86719042005E+03  0.10537114423E+04  0.15294330000E+03 0.  0.
<mgrwt>
<rscale>  0 0.79696539E+03</rscale>
<asrwt>0</asrwt>
<pdfrwt beam="1">  1        2 0.21703259E+00 0.87675945E+03</pdfrwt>
<pdfrwt beam="2">  1       -2 0.80011164E-01 0.87675945E+03</pdfrwt>
<totfact> 0.19878811E+01</totfact>
</mgrwt>
</event>
<event>
 4    5  0.7289609E-008  0.1079447E+04  0.7818608E-02  0.9284291E-01
         -2   -1    0    0    0  501 -0.00000000000E+00  0.00000000000E+00  0.11254228794E+04  0.11254228794E+04  0.25500000000E-02 0.  1.
          2   -1    0    0  501    0  0.00000000000E+00 -0.00000000000E+00 -0.11612082846E+04  0.11612082846E+04  0.25500000000E-02 0. -1.
    8880023    1    1    2    0    0 -0.50385442925E+03 -0.69103356290E+03  0.57651748130E+03  0.12237562190E+04  0.65864270000E+03 0.  1.
    8880022    1    1    2    0    0  0.50385442925E+03  0.69103356290E+03 -0.61230288656E+03  0.10628749451E+04  0.15294330000E+03 0.  0.
<mgrwt>
<rscale>  0 0.10224199E+04</rscale>
<asrwt>0</asrwt>
<pdfrwt beam="1">  1        2 0.17864743E+00 0.10794475E+04</pdfrwt>
<pdfrwt beam="2">  1       -2 0.17314198E+00 0.10794475E+04</pdfrwt>
<totfact> 0.39785386E+00</totfact>
</mgrwt>
</event>
<event>
 4    5  0.7289609E-008  0.6629458E+03  0.7818608E-02  0.1021323E+00
         -2   -1    0    0    0  501 -0.00000000000E+00  0.00000000000E+00  0.79748756771E+03  0.79748756772E+03  0.25500000000E-02 0.  1.
          2   -1    0    0  501    0  0.00000000000E+00 -0.00000000000E+00 -0.10424189828E+04  0.10424189828E+04  0.25500000000E-02 0. -1.
    8880023    1    1    2    0    0  0.75402460845E+02  0.11692719998E+01  0.65025898576E+03  0.92861932627E+03  0.65864270000E+03 0.  1.
    8880022    1    1    2    0    0 -0.75402460845E+02 -0.11692719998E+01 -0.89519040082E+03  0.91128722423E+03  0.15294330000E+03 0.  0.
<mgrwt>
<rscale>  0 0.47212294E+03</rscale>
<asrwt>0</asrwt>
<pdfrwt beam="1">  1        2 0.16037215E+00 0.66294578E+03</pdfrwt>
<pdfrwt beam="2">  1       -2 0.12269039E+00 0.66294578E+03</pdfrwt>
<totfact> 0.12232053E+01</totfact>
</mgrwt>
</event>
<event>
 4    5  0.7289609E-008  0.8932252E+03  0.7818608E-02  0.9536996E-01
          2   -1    0    0  501    0  0.00000000000E+00  0.00000000000E+00  0.35430588673E+03  0.35430588674E+03  0.25500000000E-02 0. -1.
         -2   -1    0    0    0  501 -0.00000000000E+00 -0.00000000000E+00 -0.20898621202E+04  0.20898621202E+04  0.25500000000E-02 0.  1.
    8880023    1    1    2    0    0  0.14263139047E+03  0.58625705427E+03 -0.15596974442E+04  0.17973612244E+04  0.65864270000E+03 0.  0.
    8880022    1    1    2    0    0 -0.14263139047E+03 -0.58625705427E+03 -0.17585878933E+03  0.64680678261E+03  0.15294330000E+03 0.  0.
<mgrwt>
<rscale>  0 0.81610353E+03</rscale>
<asrwt>0</asrwt>
<pdfrwt beam="1">  1        2 0.54508599E-01 0.89322520E+03</pdfrwt>
<pdfrwt beam="2">  1       -2 0.32151724E+00 0.89322520E+03</pdfrwt>
<totfact> 0.21896425E+00</totfact>
</mgrwt>
</event>
<event>
 4    5  0.7874731E-008  0.7279264E+03  0.7818608E-02  0.9896625E-01
          2   -1    0    0  501    0  0.00000000000E+00  0.00000000000E+00  0.23147057774E+04  0.23147057774E+04  0.25500000000E-02 0. -1.
         -2   -1    0    0    0  501 -0.00000000000E+00 -0.00000000000E+00 -0.11203718105E+04  0.11203718105E+04  0.25500000000E-02 0.  1.
    8880023    1    1    2    0    0 -0.20471542527E+02 -0.30926927152E+03 -0.98707587193E+03  0.12264565013E+04  0.65864270000E+03 0.  0.
    8880022    1    1    2    0    0  0.20471542527E+02  0.30926927152E+03  0.21814098388E+04  0.22086210866E+04  0.15294330000E+03 0. -1.
<mgrwt>
<rscale>  0 0.60425129E+03</rscale>
<asrwt>0</asrwt>
<pdfrwt beam="1">  1        2 0.35610858E+00 0.72792635E+03</pdfrwt>
<pdfrwt beam="2">  1       -2 0.17236489E+00 0.72792635E+03</pdfrwt>
<totfact> 0.96094055E-01</totfact>
</mgrwt>
</event>
<event>
 4    5  0.7289609E-008  0.8248948E+03  0.7818608E-02  0.9659348E-01
         -2   -1    0    0    0  501 -0.00000000000E+00  0.00000000000E+00  0.16926877348E+03  0.16926877350E+03  0.25500000000E-02 0.  1.
          2   -1    0    0  501    0  0.00000000000E+00 -0.00000000000E+00 -0.38869505683E+04  0.38869505683E+04  0.25500000000E-02 0. -1.
    8880023    1    1    2    0    0 -0.37982696940E+03  0.31995723335E+03 -0.10341844919E+04  0.13228714704E+04  0.65864270000E+03 0.  1.
    8880022    1    1    2    0    0  0.37982696940E+03 -0.31995723335E+03 -0.26834973029E+04  0.27333478713E+04  0.15294330000E+03 0.  0.
<mgrwt>
<rscale>  0 0.73489616E+03</rscale>
<asrwt>0</asrwt>
<pdfrwt beam="1">  1        2 0.59799233E+00 0.82489476E+03</pdfrwt>
<pdfrwt beam="2">  1       -2 0.26041353E-01 0.82489476E+03</pdfrwt>
<totfact> 0.60595281E+00</totfact>
</mgrwt>
</event>
<event>
 4    5  0.7289609E-008  0.8612812E+03  0.7818608E-02  0.9591288E-01
         -2   -1    0    0    0  501 -0.00000000000E+00  0.00000000000E+00  0.67617668519E+03  0.67617668520E+03  0.25500000000E-02 0.  1.
          2   -1    0    0  501    0  0.00000000000E+00 -0.00000000000E+00 -0.24428475884E+04  0.24428475884E+04  0.25500000000E-02 0. -1.
    8880023    1    1    2    0    0  0.52152072325E+03  0.18976642206E+03  0.34685746972E+03  0.92850173413E+03  0.65864270000E+03 0.  0.
    8880022    1    1    2    0    0 -0.52152072325E+03 -0.18976642206E+03 -0.21135283730E+04  0.21905225395E+04  0.15294330000E+03 0.  0.
<mgrwt>
<rscale>  0 0.77875463E+03</rscale>
<asrwt>0</asrwt>
<pdfrwt beam="1">  1        2 0.37582270E+00 0.86128124E+03</pdfrwt>
<pdfrwt beam="2">  1       -2 0.10402718E+00 0.86128124E+03</pdfrwt>
<totfact> 0.29037247E+00</totfact>
</mgrwt>
</event>
<event>
 4    5  0.7289609E-008  0.9421096E+03  0.7818608E-02  0.9461559E-01
         -2   -1    0    0    0  501 -0.00000000000E+00  0.00000000000E+00  0.10764360211E+04  0.10764360211E+04  0.25500000000E-02 0.  1.
          2   -1    0    0  501    0  0.00000000000E+00 -0.00000000000E+00 -0.85237033813E+03  0.85237033813E+03  0.25500000000E-02 0. -1.
    8880023    1    1    2    0    0 -0.32576122034E+03 -0.58960998650E+03 -0.37544759193E+03  0.10141653758E+04  0.65864270000E+03 0.  0.
    8880022    1    1    2    0    0  0.32576122034E+03  0.58960998650E+03  0.59951327492E+03  0.91464098349E+03  0.15294330000E+03 0.  0.
<mgrwt>
<rscale>  0 0.87178253E+03</rscale>
<asrwt>0</asrwt>
<pdfrwt beam="1">  1        2 0.13113390E+00 0.94210961E+03</pdfrwt>
<pdfrwt beam="2">  1       -2 0.16560554E+00 0.94210961E+03</pdfrwt>
<totfact> 0.72247406E+00</totfact>
</mgrwt>
</event>
<event>
 4    5  0.7289609E-008  0.8801481E+03  0.7818608E-02  0.9558683E-01
          2   -1    0    0  501    0  0.00000000000E+00  0.00000000000E+00  0.28368431450E+04  0.28368431450E+04  0.25500000000E-02 0. -1.
         -2   -1    0    0    0  501 -0.00000000000E+00 -0.00000000000E+00 -0.21752263885E+03  0.21752263886E+03  0.25500000000E-02 0.  1.
    8880023    1    1    2    0    0 -0.58354710269E+03  0.17976942976E+02  0.20218819752E+04  0.22051456458E+04  0.65864270000E+03 0.  0.
    8880022    1    1    2    0    0  0.58354710269E+03 -0.17976942976E+02  0.59743853098E+03  0.84922013804E+03  0.15294330000E+03 0.  0.
<mgrwt>
<rscale>  0 0.80092262E+03</rscale>
<asrwt>0</asrwt>
<pdfrwt beam="1">  1        2 0.43643736E+00 0.88014805E+03</pdfrwt>
<pdfrwt beam="2">  1       -2 0.33465025E-01 0.88014805E+03</pdfrwt>
<totfact> 0.18959022E+01</totfact>
</mgrwt>
</event>
<event>
 4    5  0.7289609E-008  0.9824107E+03  0.7818608E-02  0.9404940E-01
          2   -1    0    0  501    0  0.00000000000E+00  0.00000000000E+00  0.20592621046E+04  0.20592621046E+04  0.25500000000E-02 0. -1.
         -2   -1    0    0    0  501 -0.00000000000E+00 -0.00000000000E+00 -0.62993552870E+03  0.62993552871E+03  0.25500000000E-02 0.  1.
    8880023    1    1    2    0    0  0.53693508723E+02  0.72693708089E+03 -0.10066573361E+03  0.98755471172E+03  0.65864270000E+03 0.  0.
    8880022    1    1    2    0    0 -0.53693508723E+02 -0.72693708089E+03  0.15299923095E+04  0.17016429216E+04  0.15294330000E+03 0.  0.
<mgrwt>
<rscale>  0 0.91670218E+03</rscale>
<asrwt>0</asrwt>
<pdfrwt beam="1">  1        2 0.31680955E+00 0.98241067E+03</pdfrwt>
<pdfrwt beam="2">  1       -2 0.96913160E-01 0.98241067E+03</pdfrwt>
<totfact> 0.55279297E+00</totfact>
</mgrwt>
</event>
<event>
 4    5  0.7289609E-008  0.1192564E+04  0.7818608E-02  0.9164384E-01
          2   -1    0    0  501    0  0.00000000000E+00  0.00000000000E+00  0.15208488291E+04  0.15208488291E+04  0.25500000000E-02 0. -1.
         -2   -1    0    0    0  501 -0.00000000000E+00 -0.00000000000E+00 -0.19227881031E+04  0.19227881031E+04  0.25500000000E-02 0.  1.
    8880023    1    1    2    0    0  0.93792796542E+03  0.32968311158E+03 -0.15250249890E+04  0.19359522840E+04  0.65864270000E+03 0.  1.
    8880022    1    1    2    0    0 -0.93792796542E+03 -0.32968311158E+03  0.11230857150E+04  0.15076846482E+04  0.15294330000E+03 0.  0.
<mgrwt>
<rscale>  0 0.11428725E+04</rscale>
<asrwt>0</asrwt>
<pdfrwt beam="1">  1        2 0.23397674E+00 0.11925645E+04</pdfrwt>
<pdfrwt beam="2">  1       -2 0.29581356E+00 0.11925645E+04</pdfrwt>
<totfact> 0.40662470E-01</totfact>
</mgrwt>
</event>
<event>
 4    5  0.7289609E-008  0.6921584E+03  0.7818608E-02  0.1003143E+00
          2   -1    0    0  501    0  0.00000000000E+00  0.00000000000E+00  0.15391261747E+04  0.15391261747E+04  0.25500000000E-02 0. -1.
         -2   -1    0    0    0  501 -0.00000000000E+00 -0.00000000000E+00 -0.16336667057E+03  0.16336667059E+03  0.25500000000E-02 0.  1.
    8880023    1    1    2    0    0 -0.19048012319E+03  0.94817591701E+02  0.73190330146E+03  0.10073557971E+04  0.65864270000E+03 0.  1.
    8880022    1    1    2    0    0  0.19048012319E+03 -0.94817591701E+02  0.64385620266E+03  0.69513704817E+03  0.15294330000E+03 0. -1.
<mgrwt>
<rscale>  0 0.54293247E+03</rscale>
<asrwt>0</asrwt>
<pdfrwt beam="1">  1        2 0.23678863E+00 0.69215841E+03</pdfrwt>
<pdfrwt beam="2">  1       -2 0.25133335E-01 0.69215841E+03</pdfrwt>
<totfact> 0.17483563E+02</totfact>
</mgrwt>
</event>
<event>
 4    5  0.7289609E-008  0.1669295E+04  0.7818608E-02  0.8798507E-01
          2   -1    0    0  501    0  0.00000000000E+00  0.00000000000E+00  0.21215167019E+04  0.21215167019E+04  0.25500000000E-02 0. -1.
         -2   -1    0    0    0  501 -0.00000000000E+00 -0.00000000000E+00 -0.28886070577E+04  0.28886070577E+04  0.25500000000E-02 0.  1.
    8880023    1    1    2    0    0 -0.24941887116E+02  0.15336597706E+04  0.15162845434E+04  0.22551415505E+04  0.65864270000E+03 0.  0.
    8880022    1    1    2    0    0  0.24941887116E+02 -0.15336597706E+04 -0.22833748991E+04  0.27549822092E+04  0.15294330000E+03 0.  0.
<mgrwt>
<rscale>  0 0.16363773E+04</rscale>
<asrwt>0</asrwt>
<pdfrwt beam="1">  1        2 0.32638719E+00 0.16692946E+04</pdfrwt>
<pdfrwt beam="2">  1       -2 0.44440108E+00 0.16692946E+04</pdfrwt>
<totfact> 0.19800532E-02</totfact>
</mgrwt>
</event>
<event>
 4    5  0.7289609E-008  0.9323241E+03  0.7818608E-02  0.9476015E-01
         -2   -1    0    0    0  501 -0.00000000000E+00  0.00000000000E+00  0.10116764291E+04  0.10116764291E+04  0.25500000000E-02 0.  1.
          2   -1    0    0  501    0  0.00000000000E+00 -0.00000000000E+00 -0.11433133207E+04  0.11433133207E+04  0.25500000000E-02 0. -1.
    8880023    1    1    2    0    0  0.60291810099E+03 -0.26815639868E+03  0.63800845912E+03  0.11297269984E+04  0.65864270000E+03 0.  1.
    8880022    1    1    2    0    0 -0.60291810099E+03  0.26815639868E+03 -0.76964535070E+03  0.10252627515E+04  0.15294330000E+03 0.  0.
<mgrwt>
<rscale>  0 0.86075445E+03</rscale>
<asrwt>0</asrwt>
<pdfrwt beam="1">  1        2 0.17589436E+00 0.93232414E+03</pdfrwt>
<pdfrwt beam="2">  1       -2 0.15564253E+00 0.93232414E+03</pdfrwt>
<totfact> 0.55541833E+00</totfact>
</mgrwt>
</event>
<event>
 4    5  0.7289609E-008  0.9938527E+03  0.7818608E-02  0.9389645E-01
          2   -1    0    0  501    0  0.00000000000E+00  0.00000000000E+00  0.15373127069E+04  0.15373127069E+04  0.25500000000E-02 0. -1.
         -2   -1    0    0    0  501 -0.00000000000E+00 -0.00000000000E+00 -0.77954518250E+03  0.77954518250E+03  0.25500000000E-02 0.  1.
    8880023    1    1    2    0    0 -0.38468540856E+03 -0.63714213168E+03 -0.27825933388E+03  0.10320714232E+04  0.65864270000E+03 0.  1.
    8880022    1    1    2    0    0  0.38468540856E+03  0.63714213168E+03  0.10360268583E+04  0.12847864661E+04  0.15294330000E+03 0.  0.
<mgrwt>
<rscale>  0 0.92932800E+03</rscale>
<asrwt>0</asrwt>
<pdfrwt beam="1">  1        2 0.23650965E+00 0.99385269E+03</pdfrwt>
<pdfrwt beam="2">  1       -2 0.11993003E+00 0.99385269E+03</pdfrwt>
<totfact> 0.63983634E+00</totfact>
</mgrwt>
</event>
<event>
 4    5  0.7289609E-008  0.9222586E+03  0.7818608E-02  0.9491205E-01
          2   -1    0    0  501    0  0.00000000000E+00  0.00000000000E+00  0.11274704420E+04  0.11274704420E+04  0.25500000000E-02 0. -1.
         -2   -1    0    0    0  501 -0.00000000000E+00 -0.00000000000E+00 -0.32407929876E+04  0.32407929876E+04  0.25500000000E-02 0.  1.
    8880023    1    1    2    0    0  0.53222610112E+02 -0.64336464681E+03 -0.30691694026E+04  0.32047405110E+04  0.65864270000E+03 0.  1.
    8880022    1    1    2    0    0 -0.53222610112E+02  0.64336464681E+03  0.95584685704E+03  0.11635229186E+04  0.15294330000E+03 0.  0.
<mgrwt>
<rscale>  0 0.84935389E+03</rscale>
<asrwt>0</asrwt>
<pdfrwt beam="1">  1        2 0.17345699E+00 0.92225860E+03</pdfrwt>
<pdfrwt beam="2">  1       -2 0.49858353E+00 0.92225860E+03</pdfrwt>
<totfact> 0.36157690E-02</totfact>
</mgrwt>
</event>
<event>
 4    5  0.7289609E-008  0.1049289E+04  0.7818608E-02  0.9319737E-01
          2   -1    0    0  501    0  0.00000000000E+00  0.00000000000E+00  0.57986916481E+03  0.57986916482E+03  0.25500000000E-02 0. -1.
         -2   -1    0    0    0  501 -0.00000000000E+00 -0.00000000000E+00 -0.19443697805E+04  0.19443697805E+04  0.25500000000E-02 0.  1.
    8880023    1    1    2    0    0 -0.55982520380E+03 -0.59480476520E+03 -0.13278795548E+04  0.16924158135E+04  0.65864270000E+03 0.  1.
    8880022    1    1    2    0    0  0.55982520380E+03  0.59480476520E+03 -0.36621060886E+02  0.83182313182E+03  0.15294330000E+03 0.  0.
<mgrwt>
<rscale>  0 0.98985990E+03</rscale>
<asrwt>0</asrwt>
<pdfrwt beam="1">  1        2 0.89210642E-01 0.10492889E+04</pdfrwt>
<pdfrwt beam="2">  1       -2 0.29913381E+00 0.10492889E+04</pdfrwt>
<totfact> 0.16632479E+00</totfact>
</mgrwt>
</event>
<event>
 4    5  0.7289609E-008  0.7886114E+03  0.7818608E-02  0.9735984E-01
          2   -1    0    0  501    0  0.00000000000E+00  0.00000000000E+00  0.15912121990E+04  0.15912121990E+04  0.25500000000E-02 0. -1.
         -2   -1    0    0    0  501 -0.00000000000E+00 -0.00000000000E+00 -0.38329967010E+03  0.38329967010E+03  0.25500000000E-02 0.  1.
    8880023    1    1    2    0    0  0.43023405910E+03 -0.54739946290E+02  0.12855152290E+04  0.15081304379E+04  0.65864270000E+03 0.  0.
    8880022    1    1    2    0    0 -0.43023405910E+03  0.54739946290E+02 -0.77602700102E+02  0.46638143124E+03  0.15294330000E+03 0.  0.
<mgrwt>
<rscale>  0 0.68914149E+03</rscale>
<asrwt>0</asrwt>
<pdfrwt beam="1">  1        2 0.24480188E+00 0.78861145E+03</pdfrwt>
<pdfrwt beam="2">  1       -2 0.58969180E-01 0.78861145E+03</pdfrwt>
<totfact> 0.30915307E+01</totfact>
</mgrwt>
</event>
<event>
 4    5  0.7289609E-008  0.7455197E+03  0.7818608E-02  0.9844151E-01
          2   -1    0    0  501    0  0.00000000000E+00  0.00000000000E+00  0.11003329461E+04  0.11003329461E+04  0.25500000000E-02 0. -1.
         -2   -1    0    0    0  501 -0.00000000000E+00 -0.00000000000E+00 -0.57798212695E+03  0.57798212695E+03  0.25500000000E-02 0.  1.
    8880023    1    1    2    0    0 -0.15611125774E+03  0.31243986025E+03 -0.27489282105E+03  0.79458521280E+03  0.65864270000E+03 0.  0.
    8880022    1    1    2    0    0  0.15611125774E+03 -0.31243986025E+03  0.79724364022E+03  0.88372986028E+03  0.15294330000E+03 0.  0.
<mgrwt>
<rscale>  0 0.63046039E+03</rscale>
<asrwt>0</asrwt>
<pdfrwt beam="1">  1        2 0.16928199E+00 0.74551968E+03</pdfrwt>
<pdfrwt beam="2">  1       -2 0.88920327E-01 0.74551968E+03</pdfrwt>
<totfact> 0.24089658E+01</totfact>
</mgrwt>
</event>
<event>
 4    5  0.7289609E-008  0.1190150E+04  0.7818608E-02  0.9166757E-01
          2   -1    0    0  501    0  0.00000000000E+00  0.00000000000E+00  0.41446896888E+04  0.41446896888E+04  0.25500000000E-02 0. -1.
         -2   -1    0    0    0  501 -0.00000000000E+00 -0.00000000000E+00 -0.73427678798E+03  0.73427678798E+03  0.25500000000E-02 0.  1.
    8880023    1    1    2    0    0 -0.37948407397E+03  0.91577213416E+03 -0.13185473479E+03  0.11974316855E+04  0.65864270000E+03 0.  0.
    8880022    1    1    2    0    0  0.37948407397E+03 -0.91577213416E+03  0.35422676356E+04  0.36815347913E+04  0.15294330000E+03 0.  0.
<mgrwt>
<rscale>  0 0.11403235E+04</rscale>
<asrwt>0</asrwt>
<pdfrwt beam="1">  1        2 0.63764459E+00 0.11901500E+04</pdfrwt>
<pdfrwt beam="2">  1       -2 0.11296566E+00 0.11901500E+04</pdfrwt>
<totfact> 0.16265057E-01</totfact>
</mgrwt>
</event>
<event>
 4    5  0.7289609E-008  0.7508701E+03  0.7818608E-02  0.9829344E-01
         -2   -1    0    0    0  501 -0.00000000000E+00  0.00000000000E+00  0.92092529034E+03  0.92092529035E+03  0.25500000000E-02 0.  1.
          2   -1    0    0  501    0  0.00000000000E+00 -0.00000000000E+00 -0.14364859177E+04  0.14364859177E+04  0.25500000000E-02 0. -1.
    8880023    1    1    2    0    0  0.14731632455E+02 -0.36024809493E+03  0.73271870828E+03  0.10491342253E+04  0.65864270000E+03 0.  1.
    8880022    1    1    2    0    0 -0.14731632455E+02  0.36024809493E+03 -0.12482793357E+04  0.13082769828E+04  0.15294330000E+03 0.  0.
<mgrwt>
<rscale>  0 0.63811258E+03</rscale>
<asrwt>0</asrwt>
<pdfrwt beam="1">  1        2 0.22099783E+00 0.75087011E+03</pdfrwt>
<pdfrwt beam="2">  1       -2 0.14168081E+00 0.75087011E+03</pdfrwt>
<totfact> 0.49205928E+00</totfact>
</mgrwt>
</event>
<event>
 4    5  0.7289609E-008  0.9120519E+03  0.7818608E-02  0.9506955E-01
         -2   -1    0    0    0  501 -0.00000000000E+00  0.00000000000E+00  0.92956009816E+03  0.92956009817E+03  0.25500000000E-02 0.  1.
          2   -1    0    0  501    0  0.00000000000E+00 -0.00000000000E+00 -0.22494397234E+04  0.22494397234E+04  0.25500000000E-02 0. -1.
    8880023    1    1    2    0    0  0.53365497191E+03  0.33651274196E+03  0.64013597591E+03  0.11142767737E+04  0.65864270000E+03 0.  0.
    8880022    1    1    2    0    0 -0.53365497191E+03 -0.33651274196E+03 -0.19600156012E+04  0.20647230479E+04  0.15294330000E+03 0.  0.
<mgrwt>
<rscale>  0 0.83773000E+03</rscale>
<asrwt>0</asrwt>
<pdfrwt beam="1">  1        2 0.34606765E+00 0.91205190E+03</pdfrwt>
<pdfrwt beam="2">  1       -2 0.14300925E+00 0.91205190E+03</pdfrwt>
<totfact> 0.16700677E+00</totfact>
</mgrwt>
</event>
<event>
 4    5  0.7289609E-008  0.1068146E+04  0.7818608E-02  0.9297379E-01
          2   -1    0    0  501    0  0.00000000000E+00  0.00000000000E+00  0.16612530788E+04  0.16612530788E+04  0.25500000000E-02 0. -1.
         -2   -1    0    0    0  501 -0.00000000000E+00 -0.00000000000E+00 -0.10681910118E+04  0.10681910118E+04  0.25500000000E-02 0.  1.
    8880023    1    1    2    0    0 -0.82875597460E+03  0.14243683391E+03 -0.62791817489E+03  0.12390384004E+04  0.65864270000E+03 0. -1.
    8880022    1    1    2    0    0  0.82875597460E+03 -0.14243683391E+03  0.12209802419E+04  0.14904056901E+04  0.15294330000E+03 0.  0.
<mgrwt>
<rscale>  0 0.10102447E+04</rscale>
<asrwt>0</asrwt>
<pdfrwt beam="1">  1        2 0.25557740E+00 0.10681456E+04</pdfrwt>
<pdfrwt beam="2">  1       -2 0.16433708E+00 0.10681456E+04</pdfrwt>
<totfact> 0.23778404E+00</totfact>
</mgrwt>
</event>
<event>
 4    5  0.7289609E-008  0.1456728E+04  0.7818608E-02  0.8940812E-01
         -2   -1    0    0    0  501 -0.00000000000E+00  0.00000000000E+00  0.83707241813E+03  0.83707241813E+03  0.25500000000E-02 0.  1.
          2   -1    0    0  501    0  0.00000000000E+00 -0.00000000000E+00 -0.23183005988E+04  0.23183005988E+04  0.25500000000E-02 0. -1.
    8880023    1    1    2    0    0 -0.87195686735E+03 -0.96329575341E+03 -0.97317579723E+03  0.17518929264E+04  0.65864270000E+03 0.  0.
    8880022    1    1    2    0    0  0.87195686735E+03  0.96329575341E+03 -0.50805238341E+03  0.14034800905E+04  0.15294330000E+03 0.  0.
<mgrwt>
<rscale>  0 0.14181118E+04</rscale>
<asrwt>0</asrwt>
<pdfrwt beam="1">  1        2 0.35666163E+00 0.14567284E+04</pdfrwt>
<pdfrwt beam="2">  1       -2 0.12878037E+00 0.14567284E+04</pdfrwt>
<totfact> 0.18735940E+00</totfact>
</mgrwt>
</event>
<event>
 4    5  0.7289609E-008  0.1195011E+04  0.7818608E-02  0.9161988E-01
          2   -1    0    0  501    0  0.00000000000E+00  0.00000000000E+00  0.19230811793E+04  0.19230811793E+04  0.25500000000E-02 0. -1.
         -2   -1    0    0    0  501 -0.00000000000E+00 -0.00000000000E+00 -0.13151923320E+04  0.13151923320E+04  0.25500000000E-02 0.  1.
    8880023    1    1    2    0    0  0.95433202129E+03 -0.28894718959E+03  0.14817840134E+04  0.19036108200E+04  0.65864270000E+03 0. -1.
    8880022    1    1    2    0    0 -0.95433202129E+03  0.28894718959E+03 -0.87389516611E+03  0.13346626913E+04  0.15294330000E+03 0.  0.
<mgrwt>
<rscale>  0 0.11454540E+04</rscale>
<asrwt>0</asrwt>
<pdfrwt beam="1">  1        2 0.29585864E+00 0.11950106E+04</pdfrwt>
<pdfrwt beam="2">  1       -2 0.20233728E+00 0.11950106E+04</pdfrwt>
<totfact> 0.91966658E-01</totfact>
</mgrwt>
</event>
<event>
 4    5  0.9838791E-008  0.1102163E+04  0.7818608E-02  0.9258652E-01
          2   -1    0    0  501    0  0.00000000000E+00  0.00000000000E+00  0.26770999630E+04  0.26770999630E+04  0.25500000000E-02 0. -1.
         -2   -1    0    0    0  501 -0.00000000000E+00 -0.00000000000E+00 -0.19576479875E+04  0.19576479875E+04  0.25500000000E-02 0.  1.
    8880023    1    1    2    0    0 -0.62557649371E+03  0.62418485300E+03 -0.17159698159E+04  0.20394399466E+04  0.65864270000E+03 0.  1.
    8880022    1    1    2    0    0  0.62557649371E+03 -0.62418485300E+03  0.24354217914E+04  0.25953080039E+04  0.15294330000E+03 0.  0.
<mgrwt>
<rscale>  0 0.10468021E+04</rscale>
<asrwt>0</asrwt>
<pdfrwt beam="1">  1        2 0.41186153E+00 0.11021628E+04</pdfrwt>
<pdfrwt beam="2">  1       -2 0.30117661E+00 0.11021628E+04</pdfrwt>
<totfact> 0.85786558E-02</totfact>
</mgrwt>
</event>
<event>
 4    5  0.7289609E-008  0.9619935E+03  0.7818608E-02  0.9433064E-01
          2   -1    0    0  501    0  0.00000000000E+00  0.00000000000E+00  0.27961907105E+04  0.27961907105E+04  0.25500000000E-02 0. -1.
         -2   -1    0    0    0  501 -0.00000000000E+00 -0.00000000000E+00 -0.54429983649E+03  0.54429983649E+03  0.25500000000E-02 0.  1.
    8880023    1    1    2    0    0  0.65075017101E+03  0.26104711467E+03 -0.15625677539E+02  0.96212044423E+03  0.65864270000E+03 0.  0.
    8880022    1    1    2    0    0 -0.65075017101E+03 -0.26104711467E+03  0.22675165516E+04  0.23783701028E+04  0.15294330000E+03 0.  0.
<mgrwt>
<rscale>  0 0.89403886E+03</rscale>
<asrwt>0</asrwt>
<pdfrwt beam="1">  1        2 0.43018319E+00 0.96199355E+03</pdfrwt>
<pdfrwt beam="2">  1       -2 0.83738435E-01 0.96199355E+03</pdfrwt>
<totfact> 0.29614415E+00</totfact>
</mgrwt>
</event>
<event>
 4    5  0.7289609E-008  0.8027801E+03  0.7818608E-02  0.9704817E-01
         -2   -1    0    0    0  501 -0.00000000000E+00  0.00000000000E+00  0.15934408512E+03  0.15934408514E+03  0.25500000000E-02 0.  1.
          2   -1    0    0  501    0  0.00000000000E+00 -0.00000000000E+00 -0.26807926274E+04  0.26807926274E+04  0.25500000000E-02 0. -1.
    8880023    1    1    2    0    0 -0.45061437811E+03  0.87134512289E+02 -0.18071187193E+04  0.19774058796E+04  0.65864270000E+03 0.  0.
    8880022    1    1    2    0    0  0.45061437811E+03 -0.87134512289E+02 -0.71432982299E+03  0.86273083289E+03  0.15294330000E+03 0.  0.
<mgrwt>
<rscale>  0 0.70730727E+03</rscale>
<asrwt>0</asrwt>
<pdfrwt beam="1">  1        2 0.41242960E+00 0.80278014E+03</pdfrwt>
<pdfrwt beam="2">  1       -2 0.24514477E-01 0.80278014E+03</pdfrwt>
<totfact> 0.42064590E+01</totfact>
</mgrwt>
</event>
<event>
 4    5  0.7289609E-008  0.6755081E+03  0.7818608E-02  0.1011988E+00
          2   -1    0    0  501    0  0.00000000000E+00  0.00000000000E+00  0.19960920391E+04  0.19960920391E+04  0.25500000000E-02 0. -1.
         -2   -1    0    0    0  501 -0.00000000000E+00 -0.00000000000E+00 -0.15610673445E+03  0.15610673447E+03  0.25500000000E-02 0.  1.
    8880023    1    1    2    0    0  0.14991369495E+03  0.51809113936E+01  0.63098769683E+03  0.92436823701E+03  0.65864270000E+03 0.  1.
    8880022    1    1    2    0    0 -0.14991369495E+03 -0.51809113936E+01  0.12089976078E+04  0.12278305366E+04  0.15294330000E+03 0.  0.
<mgrwt>
<rscale>  0 0.50692155E+03</rscale>
<asrwt>0</asrwt>
<pdfrwt beam="1">  1        2 0.30709108E+00 0.67550808E+03</pdfrwt>
<pdfrwt beam="2">  1       -2 0.24016421E-01 0.67550808E+03</pdfrwt>
<totfact> 0.10703786E+02</totfact>
</mgrwt>
</event>
<event>
 4    5  0.7289609E-008  0.8658604E+03  0.7818608E-02  0.9583223E-01
          2   -1    0    0  501    0  0.00000000000E+00  0.00000000000E+00  0.25347585843E+04  0.25347585843E+04  0.25500000000E-02 0. -1.
         -2   -1    0    0    0  501 -0.00000000000E+00 -0.00000000000E+00 -0.62204002125E+03  0.62204002126E+03  0.25500000000E-02 0.  1.
    8880023    1    1    2    0    0 -0.43227883844E+03  0.35921999464E+03 -0.26262943034E+03  0.90481402656E+03  0.65864270000E+03 0.  0.
    8880022    1    1    2    0    0  0.43227883844E+03 -0.35921999464E+03  0.21753479934E+04  0.22519845790E+04  0.15294330000E+03 0.  0.
<mgrwt>
<rscale>  0 0.78416633E+03</rscale>
<asrwt>0</asrwt>
<pdfrwt beam="1">  1        2 0.38996287E+00 0.86586038E+03</pdfrwt>
<pdfrwt beam="2">  1       -2 0.95698463E-01 0.86586038E+03</pdfrwt>
<totfact> 0.31360743E+00</totfact>
</mgrwt>
</event>
<event>
 4    5  0.7289609E-008  0.1681080E+04  0.7818608E-02  0.8791338E-01
          2   -1    0    0  501    0  0.00000000000E+00  0.00000000000E+00  0.15752242779E+04  0.15752242779E+04  0.25500000000E-02 0. -1.
         -2   -1    0    0    0  501 -0.00000000000E+00 -0.00000000000E+00 -0.19648830504E+04  0.19648830504E+04  0.25500000000E-02 0.  1.
    8880023    1    1    2    0    0 -0.11479060452E+04  0.10365953249E+04  0.49410567538E+03  0.17521897103E+04  0.65864270000E+03 0.  0.
    8880022    1    1    2    0    0  0.11479060452E+04 -0.10365953249E+04 -0.88376444784E+03  0.17879176180E+04  0.15294330000E+03 0.  0.
<mgrwt>
<rscale>  0 0.16484263E+04</rscale>
<asrwt>0</asrwt>
<pdfrwt beam="1">  1        2 0.24234220E+00 0.16810795E+04</pdfrwt>
<pdfrwt beam="2">  1       -2 0.30228970E+00 0.16810795E+04</pdfrwt>
<totfact> 0.32702788E-01</totfact>
</mgrwt>
</event>
<event>
 4    5  0.7289609E-008  0.8098678E+03  0.7818608E-02  0.9689852E-01
          2   -1    0    0  501    0  0.00000000000E+00  0.00000000000E+00  0.13041583923E+04  0.13041583923E+04  0.25500000000E-02 0. -1.
         -2   -1    0    0    0  501 -0.00000000000E+00 -0.00000000000E+00 -0.21353607484E+04  0.21353607484E+04  0.25500000000E-02 0.  1.
    8880023    1    1    2    0    0 -0.30149133985E+03 -0.36218591417E+03 -0.20066543004E+04  0.21639194422E+04  0.65864270000E+03 0.  1.
    8880022    1    1    2    0    0  0.30149133985E+03  0.36218591417E+03  0.11754519443E+04  0.12755996985E+04  0.15294330000E+03 0.  0.
<mgrwt>
<rscale>  0 0.71624205E+03</rscale>
<asrwt>0</asrwt>
<pdfrwt beam="1">  1        2 0.20063975E+00 0.80986781E+03</pdfrwt>
<pdfrwt beam="2">  1       -2 0.32851704E+00 0.80986781E+03</pdfrwt>
<totfact> 0.36421767E-01</totfact>
</mgrwt>
</event>
<event>
 4    5  0.7289609E-008  0.6673352E+03  0.7818608E-02  0.1017650E+00
          2   -1    0    0  501    0  0.00000000000E+00  0.00000000000E+00  0.16117763810E+04  0.16117763810E+04  0.25500000000E-02 0. -1.
         -2   -1    0    0    0  501 -0.00000000000E+00 -0.00000000000E+00 -0.38550463172E+03  0.38550463173E+03  0.25500000000E-02 0.  1.
    8880023    1    1    2    0    0 -0.92325840071E+02  0.54790520611E+02 -0.85031346673E+02  0.67273070249E+03  0.65864270000E+03 0.  1.
    8880022    1    1    2    0    0  0.92325840071E+02 -0.54790520611E+02  0.13113030959E+04  0.13245503102E+04  0.15294330000E+03 0.  0.
<mgrwt>
<rscale>  0 0.48544357E+03</rscale>
<asrwt>0</asrwt>
<pdfrwt beam="1">  1        2 0.24796559E+00 0.66733520E+03</pdfrwt>
<pdfrwt beam="2">  1       -2 0.59308406E-01 0.66733520E+03</pdfrwt>
<totfact> 0.30200481E+01</totfact>
</mgrwt>
</event>
<event>
 4    5  0.7289609E-008  0.1693706E+04  0.7818608E-02  0.8783732E-01
         -2   -1    0    0    0  501 -0.00000000000E+00  0.00000000000E+00  0.17856688101E+04  0.17856688102E+04  0.25500000000E-02 0.  1.
          2   -1    0    0  501    0  0.00000000000E+00 -0.00000000000E+00 -0.23469339130E+04  0.23469339130E+04  0.25500000000E-02 0. -1.
    8880023    1    1    2    0    0  0.14825313521E+03  0.15533349766E+04  0.96096770040E+03  0.19473309090E+04  0.65864270000E+03 0.  0.
    8880022    1    1    2    0    0 -0.14825313521E+03 -0.15533349766E+04 -0.15222328032E+04  0.21852718142E+04  0.15294330000E+03 0.  0.
<mgrwt>
<rscale>  0 0.16613305E+04</rscale>
<asrwt>0</asrwt>
<pdfrwt beam="1">  1        2 0.36106676E+00 0.16937056E+04</pdfrwt>
<pdfrwt beam="2">  1       -2 0.27471828E+00 0.16937056E+04</pdfrwt>
<totfact> 0.17725762E-01</totfact>
</mgrwt>
</event>
<event>
 4    5  0.7289609E-008  0.1049735E+04  0.7818608E-02  0.9319200E-01
          2   -1    0    0  501    0  0.00000000000E+00  0.00000000000E+00  0.28372388758E+04  0.28372388758E+04  0.25500000000E-02 0. -1.
         -2   -1    0    0    0  501 -0.00000000000E+00 -0.00000000000E+00 -0.91010565922E+03  0.91010565922E+03  0.25500000000E-02 0.  1.
    8880023    1    1    2    0    0 -0.77379173144E+03  0.26340021140E+03 -0.51373898837E+03  0.11687049540E+04  0.65864270000E+03 0.  0.
    8880022    1    1    2    0    0  0.77379173144E+03 -0.26340021140E+03  0.24408722049E+04  0.25786395810E+04  0.15294330000E+03 0.  0.
<mgrwt>
<rscale>  0 0.99034322E+03</rscale>
<asrwt>0</asrwt>
<pdfrwt beam="1">  1        2 0.43649829E+00 0.10497350E+04</pdfrwt>
<pdfrwt beam="2">  1       -2 0.14001625E+00 0.10497350E+04</pdfrwt>
<totfact> 0.79203952E-01</totfact>
</mgrwt>
</event>
<event>
 4    5  0.7289609E-008  0.1469936E+04  0.7818608E-02  0.8931162E-01
          2   -1    0    0  501    0  0.00000000000E+00  0.00000000000E+00  0.41777004218E+04  0.41777004218E+04  0.25500000000E-02 0. -1.
         -2   -1    0    0    0  501 -0.00000000000E+00 -0.00000000000E+00 -0.87720378380E+03  0.87720378380E+03  0.25500000000E-02 0.  1.
    8880023    1    1    2    0    0 -0.81273316427E+03 -0.10326504042E+04 -0.31071772793E+02  0.14702645051E+04  0.65864270000E+03 0.  0.
    8880022    1    1    2    0    0  0.81273316427E+03  0.10326504042E+04  0.33315684108E+04  0.35846397005E+04  0.15294330000E+03 0.  0.
<mgrwt>
<rscale>  0 0.14317352E+04</rscale>
<asrwt>0</asrwt>
<pdfrwt beam="1">  1        2 0.64272312E+00 0.14699361E+04</pdfrwt>
<pdfrwt beam="2">  1       -2 0.13495443E+00 0.14699361E+04</pdfrwt>
<totfact> 0.93207143E-02</totfact>
</mgrwt>
</event>
<event>
 4    5  0.7289609E-008  0.1514803E+04  0.7818608E-02  0.8899253E-01
          2   -1    0    0  501    0  0.00000000000E+00  0.00000000000E+00  0.22376705041E+04  0.22376705041E+04  0.25500000000E-02 0. -1.
         -2   -1    0    0    0  501 -0.00000000000E+00 -0.00000000000E+00 -0.11548035322E+04  0.11548035322E+04  0.25500000000E-02 0.  1.
    8880023    1    1    2    0    0 -0.73606057284E+03  0.11484909221E+04 -0.18225557933E+03  0.15257273241E+04  0.65864270000E+03 0.  0.
    8880022    1    1    2    0    0  0.73606057284E+03 -0.11484909221E+04  0.12651225512E+04  0.18667467123E+04  0.15294330000E+03 0.  0.
<mgrwt>
<rscale>  0 0.14779445E+04</rscale>
<asrwt>0</asrwt>
<pdfrwt beam="1">  1        2 0.34425700E+00 0.15148026E+04</pdfrwt>
<pdfrwt beam="2">  1       -2 0.17766208E+00 0.15148026E+04</pdfrwt>
<totfact> 0.86972506E-01</totfact>
</mgrwt>
</event>
<event>
 4    5  0.7289609E-008  0.8574013E+03  0.7818608E-02  0.9598203E-01
          2   -1    0    0  501    0  0.00000000000E+00  0.00000000000E+00  0.15394343723E+04  0.15394343723E+04  0.25500000000E-02 0. -1.
         -2   -1    0    0    0  501 -0.00000000000E+00 -0.00000000000E+00 -0.52969731852E+03  0.52969731852E+03  0.25500000000E-02 0.  1.
    8880023    1    1    2    0    0  0.26579389813E+03  0.48029190384E+03 -0.57462424174E+02  0.85932464507E+03  0.65864270000E+03 0.  1.
    8880022    1    1    2    0    0 -0.26579389813E+03 -0.48029190384E+03  0.10671994780E+04  0.12098070457E+04  0.15294330000E+03 0.  0.
<mgrwt>
<rscale>  0 0.77415236E+03</rscale>
<asrwt>0</asrwt>
<pdfrwt beam="1">  1        2 0.23683606E+00 0.85740126E+03</pdfrwt>
<pdfrwt beam="2">  1       -2 0.81491894E-01 0.85740126E+03</pdfrwt>
<totfact> 0.16180538E+01</totfact>
</mgrwt>
</event>
<event>
 4    5  0.7289609E-008  0.8270229E+03  0.7818608E-02  0.9655153E-01
         -2   -1    0    0    0  501 -0.00000000000E+00  0.00000000000E+00  0.87854911059E+03  0.87854911059E+03  0.25500000000E-02 0.  1.
          2   -1    0    0  501    0  0.00000000000E+00 -0.00000000000E+00 -0.17090418840E+04  0.17090418840E+04  0.25500000000E-02 0. -1.
    8880023    1    1    2    0    0 -0.32386871509E+03 -0.38113740369E+03  0.62781826294E+03  0.10383268477E+04  0.65864270000E+03 0.  0.
    8880022    1    1    2    0    0  0.32386871509E+03  0.38113740369E+03 -0.14583110364E+04  0.15492641469E+04  0.15294330000E+03 0.  0.
<mgrwt>
<rscale>  0 0.73750914E+03</rscale>
<asrwt>0</asrwt>
<pdfrwt beam="1">  1        2 0.26292952E+00 0.82702290E+03</pdfrwt>
<pdfrwt beam="2">  1       -2 0.13516140E+00 0.82702290E+03</pdfrwt>
<totfact> 0.38810656E+00</totfact>
</mgrwt>
</event>
<event>
 4    5  0.7289609E-008  0.1098848E+04  0.7818608E-02  0.9262340E-01
         -2   -1    0    0    0  501 -0.00000000000E+00  0.00000000000E+00  0.13203324888E+04  0.13203324888E+04  0.25500000000E-02 0.  1.
          2   -1    0    0  501    0  0.00000000000E+00 -0.00000000000E+00 -0.13337230536E+04  0.13337230536E+04  0.25500000000E-02 0. -1.
    8880023    1    1    2    0    0  0.87642682346E+03  0.74384687192E+02  0.86738459402E+03  0.13999368910E+04  0.65864270000E+03 0.  0.
    8880022    1    1    2    0    0 -0.87642682346E+03 -0.74384687192E+02 -0.88077515877E+03  0.12541186514E+04  0.15294330000E+03 0.  0.
<mgrwt>
<rscale>  0 0.10432511E+04</rscale>
<asrwt>0</asrwt>
<pdfrwt beam="1">  1        2 0.20518816E+00 0.10988482E+04</pdfrwt>
<pdfrwt beam="2">  1       -2 0.20312807E+00 0.10988482E+04</pdfrwt>
<totfact> 0.19670278E+00</totfact>
</mgrwt>
</event>
<event>
 4    5  0.7289609E-008  0.9633869E+03  0.7818608E-02  0.9431109E-01
         -2   -1    0    0    0  501 -0.00000000000E+00  0.00000000000E+00  0.40659553209E+03  0.40659553210E+03  0.25500000000E-02 0.  1.
          2   -1    0    0  501    0  0.00000000000E+00 -0.00000000000E+00 -0.25043131020E+04  0.25043131020E+04  0.25500000000E-02 0. -1.
    8880023    1    1    2    0    0 -0.69113387638E+03 -0.12898874464E+03 -0.35709746872E+03  0.10274399933E+04  0.65864270000E+03 0.  1.
    8880022    1    1    2    0    0  0.69113387638E+03  0.12898874464E+03 -0.17406201012E+04  0.18834686408E+04  0.15294330000E+03 0.  0.
<mgrwt>
<rscale>  0 0.89559134E+03</rscale>
<asrwt>0</asrwt>
<pdfrwt beam="1">  1        2 0.38527893E+00 0.96338691E+03</pdfrwt>
<pdfrwt beam="2">  1       -2 0.62553160E-01 0.96338691E+03</pdfrwt>
<totfact> 0.83389447E+00</totfact>
</mgrwt>
</event>
<event>
 4    5  0.7289609E-008  0.1071450E+04  0.7818608E-02  0.9293529E-01
         -2   -1    0    0    0  501 -0.00000000000E+00  0.00000000000E+00  0.99736254971E+03  0.99736254972E+03  0.25500000000E-02 0.  1.
          2   -1    0    0  501    0  0.00000000000E+00 -0.00000000000E+00 -0.13554594097E+04  0.13554594098E+04  0.25500000000E-02 0. -1.
    8880023    1    1    2    0    0 -0.82827266101E+03  0.16780726258E+03  0.46063232729E+03  0.11662706485E+04  0.65864270000E+03 0.  0.
    8880022    1    1    2    0    0  0.82827266101E+03 -0.16780726258E+03 -0.81872918732E+03  0.11865513110E+04  0.15294330000E+03 0.  0.
<mgrwt>
<rscale>  0 0.10138076E+04</rscale>
<asrwt>0</asrwt>
<pdfrwt beam="1">  1        2 0.20853222E+00 0.10714500E+04</pdfrwt>
<pdfrwt beam="2">  1       -2 0.15344039E+00 0.10714500E+04</pdfrwt>
<totfact> 0.42615058E+00</totfact>
</mgrwt>
</event>
<event>
 4    5  0.7289609E-008  0.8305152E+03  0.7818608E-02  0.9648331E-01
          2   -1    0    0  501    0  0.00000000000E+00  0.00000000000E+00  0.41142291309E+04  0.41142291309E+04  0.25500000000E-02 0. -1.
         -2   -1    0    0    0  501 -0.00000000000E+00 -0.00000000000E+00 -0.18980068781E+03  0.18980068782E+03  0.25500000000E-02 0.  1.
    8880023    1    1    2    0    0 -0.44243890210E+03 -0.24534279487E+03  0.86451947906E+03  0.11988116637E+04  0.65864270000E+03 0.  0.
    8880022    1    1    2    0    0  0.44243890210E+03  0.24534279487E+03  0.30599089640E+04  0.31052181550E+04  0.15294330000E+03 0. -1.
<mgrwt>
<rscale>  0 0.74178274E+03</rscale>
<asrwt>0</asrwt>
<pdfrwt beam="1">  1        2 0.63295832E+00 0.83051519E+03</pdfrwt>
<pdfrwt beam="2">  1       -2 0.29200106E-01 0.83051519E+03</pdfrwt>
<totfact> 0.32430302E+00</totfact>
</mgrwt>
</event>
<event>
 4    5  0.7289609E-008  0.8612716E+03  0.7818608E-02  0.9591305E-01
         -2   -1    0    0    0  501 -0.00000000000E+00  0.00000000000E+00  0.65208183113E+03  0.65208183113E+03  0.25500000000E-02 0.  1.
          2   -1    0    0  501    0  0.00000000000E+00 -0.00000000000E+00 -0.89295186669E+03  0.89295186670E+03  0.25500000000E-02 0. -1.
    8880023    1    1    2    0    0 -0.54625289976E+03 -0.97910101702E+02  0.11401270651E+03  0.86878519901E+03  0.65864270000E+03 0.  0.
    8880022    1    1    2    0    0  0.54625289976E+03  0.97910101702E+02 -0.35488274208E+03  0.67624849882E+03  0.15294330000E+03 0.  0.
<mgrwt>
<rscale>  0 0.77874326E+03</rscale>
<asrwt>0</asrwt>
<pdfrwt beam="1">  1        2 0.13737721E+00 0.86127163E+03</pdfrwt>
<pdfrwt beam="2">  1       -2 0.10032028E+00 0.86127163E+03</pdfrwt>
<totfact> 0.24426167E+01</totfact>
</mgrwt>
</event>
<event>
 4    5  0.7289609E-008  0.7406018E+03  0.7818608E-02  0.9858198E-01
          2   -1    0    0  501    0  0.00000000000E+00  0.00000000000E+00  0.84292502916E+03  0.84292502916E+03  0.25500000000E-02 0. -1.
         -2   -1    0    0    0  501 -0.00000000000E+00 -0.00000000000E+00 -0.81743774760E+03  0.81743774760E+03  0.25500000000E-02 0.  1.
    8880023    1    1    2    0    0  0.76784620651E+02 -0.32982560851E+03 -0.58629208771E+03  0.94457896884E+03  0.65864270000E+03 0.  1.
    8880022    1    1    2    0    0 -0.76784620651E+02  0.32982560851E+03  0.61177936927E+03  0.71578380792E+03  0.15294330000E+03 0.  0.
<mgrwt>
<rscale>  0 0.62330693E+03</rscale>
<asrwt>0</asrwt>
<pdfrwt beam="1">  1        2 0.12968077E+00 0.74060179E+03</pdfrwt>
<pdfrwt beam="2">  1       -2 0.12575965E+00 0.74060179E+03</pdfrwt>
<totfact> 0.15407577E+01</totfact>
</mgrwt>
</event>
<event>
 4    5  0.7289609E-008  0.8637436E+03  0.7818608E-02  0.9586939E-01
          2   -1    0    0  501    0  0.00000000000E+00  0.00000000000E+00  0.11743754898E+04  0.11743754898E+04  0.25500000000E-02 0. -1.
         -2   -1    0    0    0  501 -0.00000000000E+00 -0.00000000000E+00 -0.13184338089E+04  0.13184338089E+04  0.25500000000E-02 0.  1.
    8880023    1    1    2    0    0 -0.59817193733E+02  0.55557608234E+03 -0.10856088977E+04  0.13872994503E+04  0.65864270000E+03 0.  0.
    8880022    1    1    2    0    0  0.59817193733E+02 -0.55557608234E+03  0.94155057853E+03  0.11055098484E+04  0.15294330000E+03 0.  0.
<mgrwt>
<rscale>  0 0.78166736E+03</rscale>
<asrwt>0</asrwt>
<pdfrwt beam="1">  1        2 0.18067315E+00 0.86374365E+03</pdfrwt>
<pdfrwt beam="2">  1       -2 0.20283597E+00 0.86374365E+03</pdfrwt>
<totfact> 0.25253204E+00</totfact>
</mgrwt>
</event>
<event>
 4    5  0.7289609E-008  0.1269931E+04  0.7818608E-02  0.9091971E-01
         -2   -1    0    0    0  501 -0.00000000000E+00  0.00000000000E+00  0.95629874870E+03  0.95629874871E+03  0.25500000000E-02 0.  1.
          2   -1    0    0  501    0  0.00000000000E+00 -0.00000000000E+00 -0.22006152564E+04  0.22006152564E+04  0.25500000000E-02 0. -1.
    8880023    1    1    2    0    0  0.11700932330E+03  0.10794555619E+04  0.25912250151E+03  0.12960980553E+04  0.65864270000E+03 0.  0.
    8880022    1    1    2    0    0 -0.11700932330E+03 -0.10794555619E+04 -0.15034390092E+04  0.18608159498E+04  0.15294330000E+03 0.  0.
<mgrwt>
<rscale>  0 0.12241570E+04</rscale>
<asrwt>0</asrwt>
<pdfrwt beam="1">  1        2 0.33855619E+00 0.12699314E+04</pdfrwt>
<pdfrwt beam="2">  1       -2 0.14712288E+00 0.12699314E+04</pdfrwt>
<totfact> 0.15737712E+00</totfact>
</mgrwt>
</event>
<event>
 4    5  0.7289609E-008  0.1035846E+04  0.7818608E-02  0.9336094E-01
          2   -1    0    0  501    0  0.00000000000E+00  0.00000000000E+00  0.13668779619E+04  0.13668779619E+04  0.25500000000E-02 0. -1.
         -2   -1    0    0    0  501 -0.00000000000E+00 -0.00000000000E+00 -0.77548378792E+03  0.77548378793E+03  0.25500000000E-02 0.  1.
    8880023    1    1    2    0    0 -0.78446818171E+03  0.15419295792E+03 -0.14347540544E+03  0.10457347630E+04  0.65864270000E+03 0.  0.
    8880022    1    1    2    0    0  0.78446818171E+03 -0.15419295792E+03  0.73486957940E+03  0.10966269868E+04  0.15294330000E+03 0.  0.
<mgrwt>
<rscale>  0 0.97526850E+03</rscale>
<asrwt>0</asrwt>
<pdfrwt beam="1">  1        2 0.21028892E+00 0.10358455E+04</pdfrwt>
<pdfrwt beam="2">  1       -2 0.11930520E+00 0.10358455E+04</pdfrwt>
<totfact> 0.80616422E+00</totfact>
</mgrwt>
</event>
<event>
 4    5  0.7289609E-008  0.9061203E+03  0.7818608E-02  0.9516277E-01
         -2   -1    0    0    0  501 -0.00000000000E+00  0.00000000000E+00  0.11176625446E+04  0.11176625446E+04  0.25500000000E-02 0.  1.
          2   -1    0    0  501    0  0.00000000000E+00 -0.00000000000E+00 -0.87243983300E+03  0.87243983301E+03  0.25500000000E-02 0. -1.
    8880023    1    1    2    0    0 -0.18990820919E+03  0.59260329529E+03  0.74849802724E+03  0.11752886014E+04  0.65864270000E+03 0.  0.
    8880022    1    1    2    0    0  0.18990820919E+03 -0.59260329529E+03 -0.50327531567E+03  0.81481377620E+03  0.15294330000E+03 0.  0.
<mgrwt>
<rscale>  0 0.83094341E+03</rscale>
<asrwt>0</asrwt>
<pdfrwt beam="1">  1        2 0.13422151E+00 0.90612030E+03</pdfrwt>
<pdfrwt beam="2">  1       -2 0.17194808E+00 0.90612030E+03</pdfrwt>
<totfact> 0.63269481E+00</totfact>
</mgrwt>
</event>
<event>
 4    5  0.7289609E-008  0.7549067E+03  0.7818608E-02  0.9818476E-01
         -2   -1    0    0    0  501 -0.00000000000E+00  0.00000000000E+00  0.78511199411E+03  0.78511199412E+03  0.25500000000E-02 0.  1.
          2   -1    0    0  501    0  0.00000000000E+00 -0.00000000000E+00 -0.12263500484E+04  0.12263500484E+04  0.25500000000E-02 0. -1.
    8880023    1    1    2    0    0  0.10705310650E+03 -0.35300647054E+03  0.55579028704E+03  0.93743638999E+03  0.65864270000E+03 0.  1.
    8880022    1    1    2    0    0 -0.10705310650E+03  0.35300647054E+03 -0.99702834131E+03  0.10740256525E+04  0.15294330000E+03 0.  0.
<mgrwt>
<rscale>  0 0.64380351E+03</rscale>
<asrwt>0</asrwt>
<pdfrwt beam="1">  1        2 0.18866924E+00 0.75490671E+03</pdfrwt>
<pdfrwt beam="2">  1       -2 0.12078646E+00 0.75490671E+03</pdfrwt>
<totfact> 0.97307555E+00</totfact>
</mgrwt>
</event>
<event>
 4    5  0.7289609E-008  0.1182489E+04  0.7818608E-02  0.9174335E-01
         -2   -1    0    0    0  501 -0.00000000000E+00  0.00000000000E+00  0.86760165872E+03  0.86760165873E+03  0.25500000000E-02 0.  1.
          2   -1    0    0  501    0  0.00000000000E+00 -0.00000000000E+00 -0.29243453506E+04  0.29243453506E+04  0.25500000000E-02 0. -1.
    8880023    1    1    2    0    0  0.60243158943E+03  0.77559411258E+03  0.31214885586E+03  0.12229951602E+04  0.65864270000E+03 0.  1.
    8880022    1    1    2    0    0 -0.60243158943E+03 -0.77559411258E+03 -0.23688925478E+04  0.25689518491E+04  0.15294330000E+03 0.  0.
<mgrwt>
<rscale>  0 0.11322305E+04</rscale>
<asrwt>0</asrwt>
<pdfrwt beam="1">  1        2 0.44989928E+00 0.11824890E+04</pdfrwt>
<pdfrwt beam="2">  1       -2 0.13347718E+00 0.11824890E+04</pdfrwt>
<totfact> 0.77835406E-01</totfact>
</mgrwt>
</event>
<event>
 4    5  0.7289609E-008  0.1115743E+04  0.7818608E-02  0.9243728E-01
         -2   -1    0    0    0  501 -0.00000000000E+00  0.00000000000E+00  0.27411710421E+03  0.27411710423E+03  0.25500000000E-02 0.  1.
          2   -1    0    0  501    0  0.00000000000E+00 -0.00000000000E+00 -0.44083618729E+04  0.44083618729E+04  0.25500000000E-02 0. -1.
    8880023    1    1    2    0    0  0.71714085282E+02 -0.89773504763E+03 -0.13454712480E+04  0.17479056643E+04  0.65864270000E+03 0.  0.
    8880022    1    1    2    0    0 -0.71714085282E+02  0.89773504763E+03 -0.27887735207E+04  0.29345733129E+04  0.15294330000E+03 0.  0.
<mgrwt>
<rscale>  0 0.10613261E+04</rscale>
<asrwt>0</asrwt>
<pdfrwt beam="1">  1        2 0.67820947E+00 0.11157425E+04</pdfrwt>
<pdfrwt beam="2">  1       -2 0.42171865E-01 0.11157425E+04</pdfrwt>
<totfact> 0.84312877E-01</totfact>
</mgrwt>
</event>
<event>
 4    5  0.7289609E-008  0.1439764E+04  0.7818608E-02  0.8953385E-01
          2   -1    0    0  501    0  0.00000000000E+00  0.00000000000E+00  0.13948691358E+04  0.13948691358E+04  0.25500000000E-02 0. -1.
         -2   -1    0    0    0  501 -0.00000000000E+00 -0.00000000000E+00 -0.14926026845E+04  0.14926026845E+04  0.25500000000E-02 0.  1.
    8880023    1    1    2    0    0  0.12702489762E+04  0.15993288455E+03 -0.51987041726E+03  0.15307470222E+04  0.65864270000E+03 0.  1.
    8880022    1    1    2    0    0 -0.12702489762E+04 -0.15993288455E+03  0.42213686861E+03  0.13567247981E+04  0.15294330000E+03 0.  0.
<mgrwt>
<rscale>  0 0.14005991E+04</rscale>
<asrwt>0</asrwt>
<pdfrwt beam="1">  1        2 0.21459525E+00 0.14397643E+04</pdfrwt>
<pdfrwt beam="2">  1       -2 0.22963118E+00 0.14397643E+04</pdfrwt>
<totfact> 0.11861591E+00</totfact>
</mgrwt>
</event>
<event>
 4    5  0.7289609E-008  0.6649675E+03  0.7818608E-02  0.1019561E+00
         -2   -1    0    0    0  501 -0.00000000000E+00  0.00000000000E+00  0.36850537274E+03  0.36850537275E+03  0.25500000000E-02 0.  1.
          2   -1    0    0  501    0  0.00000000000E+00 -0.00000000000E+00 -0.10590295324E+04  0.10590295324E+04  0.25500000000E-02 0. -1.
    8880023    1    1    2    0    0 -0.74210500551E+02  0.53519967356E+02  0.49064979482E+02  0.66677519733E+03  0.65864270000E+03 0.  1.
    8880022    1    1    2    0    0  0.74210500551E+02 -0.53519967356E+02 -0.73958913917E+03  0.76075970785E+03  0.15294330000E+03 0.  0.
<mgrwt>
<rscale>  0 0.47845480E+03</rscale>
<asrwt>0</asrwt>
<pdfrwt beam="1">  1        2 0.16292762E+00 0.66496751E+03</pdfrwt>
<pdfrwt beam="2">  1       -2 0.56693135E-01 0.66496751E+03</pdfrwt>
<totfact> 0.68972187E+01</totfact>
</mgrwt>
</event>
<event>
 4    5  0.7289609E-008  0.1160494E+04  0.7818608E-02  0.9196515E-01
          2   -1    0    0  501    0  0.00000000000E+00  0.00000000000E+00  0.17411487431E+04  0.17411487431E+04  0.25500000000E-02 0. -1.
         -2   -1    0    0    0  501 -0.00000000000E+00 -0.00000000000E+00 -0.99089945742E+03  0.99089945742E+03  0.25500000000E-02 0.  1.
    8880023    1    1    2    0    0  0.93067799338E+03 -0.21627531130E+03 -0.40130200349E+03  0.12279210243E+04  0.65864270000E+03 0.  0.
    8880022    1    1    2    0    0 -0.93067799338E+03  0.21627531130E+03  0.11515512892E+04  0.15041271762E+04  0.15294330000E+03 0.  0.
<mgrwt>
<rscale>  0 0.11089469E+04</rscale>
<asrwt>0</asrwt>
<pdfrwt beam="1">  1        2 0.26786903E+00 0.11604942E+04</pdfrwt>
<pdfrwt beam="2">  1       -2 0.15244607E+00 0.11604942E+04</pdfrwt>
<totfact> 0.26064342E+00</totfact>
</mgrwt>
</event>
<event>
 4    5  0.7289609E-008  0.8414663E+03  0.7818608E-02  0.9627421E-01
          2   -1    0    0  501    0  0.00000000000E+00  0.00000000000E+00  0.22958344846E+04  0.22958344846E+04  0.25500000000E-02 0. -1.
         -2   -1    0    0    0  501 -0.00000000000E+00 -0.00000000000E+00 -0.88541902889E+03  0.88541902889E+03  0.25500000000E-02 0.  1.
    8880023    1    1    2    0    0  0.49876896672E+03 -0.15963999523E+03 -0.64146288621E+03  0.10580832911E+04  0.65864270000E+03 0.  1.
    8880022    1    1    2    0    0 -0.49876896672E+03  0.15963999523E+03  0.20518783419E+04  0.21231702224E+04  0.15294330000E+03 0.  0.
<mgrwt>
<rscale>  0 0.75507530E+03</rscale>
<asrwt>0</asrwt>
<pdfrwt beam="1">  1        2 0.35320530E+00 0.84146635E+03</pdfrwt>
<pdfrwt beam="2">  1       -2 0.13621831E+00 0.84146635E+03</pdfrwt>
<totfact> 0.18064259E+00</totfact>
</mgrwt>
</event>
<event>
 4    5  0.7289609E-008  0.7420163E+03  0.7818608E-02  0.9854112E-01
         -2   -1    0    0    0  501 -0.00000000000E+00  0.00000000000E+00  0.21402087874E+03  0.21402087876E+03  0.25500000000E-02 0.  1.
          2   -1    0    0  501    0  0.00000000000E+00 -0.00000000000E+00 -0.31793892766E+04  0.31793892766E+04  0.25500000000E-02 0. -1.
    8880023    1    1    2    0    0  0.10287682181E+03 -0.32587480922E+03 -0.48844306110E+03  0.88834951565E+03  0.65864270000E+03 0.  1.
    8880022    1    1    2    0    0 -0.10287682181E+03  0.32587480922E+03 -0.24769253367E+04  0.25050606397E+04  0.15294330000E+03 0.  0.
<mgrwt>
<rscale>  0 0.62537694E+03</rscale>
<asrwt>0</asrwt>
<pdfrwt beam="1">  1        2 0.48913678E+00 0.74201633E+03</pdfrwt>
<pdfrwt beam="2">  1       -2 0.32926291E-01 0.74201633E+03</pdfrwt>
<totfact> 0.12305615E+01</totfact>
</mgrwt>
</event>
<event>
 4    5  0.7289609E-008  0.1216926E+04  0.7818608E-02  0.9140842E-01
          2   -1    0    0  501    0  0.00000000000E+00  0.00000000000E+00  0.16687440782E+04  0.16687440782E+04  0.25500000000E-02 0. -1.
         -2   -1    0    0    0  501 -0.00000000000E+00 -0.00000000000E+00 -0.10598421935E+04  0.10598421935E+04  0.25500000000E-02 0.  1.
    8880023    1    1    2    0    0  0.16765884495E+03  0.10094502504E+04 -0.40245687207E+03  0.12817492096E+04  0.65864270000E+03 0.  0.
    8880022    1    1    2    0    0 -0.16765884495E+03 -0.10094502504E+04  0.10113587568E+04  0.14468370621E+04  0.15294330000E+03 0.  0.
<mgrwt>
<rscale>  0 0.11685467E+04</rscale>
<asrwt>0</asrwt>
<pdfrwt beam="1">  1        2 0.25672986E+00 0.12169263E+04</pdfrwt>
<pdfrwt beam="2">  1       -2 0.16305265E+00 0.12169263E+04</pdfrwt>
<totfact> 0.23673306E+00</totfact>
</mgrwt>
</event>
<event>
 4    5  0.7289609E-008  0.6897693E+03  0.7818608E-02  0.1004262E+00
         -2   -1    0    0    0  501 -0.00000000000E+00  0.00000000000E+00  0.12863730779E+04  0.12863730779E+04  0.25500000000E-02 0.  1.
          2   -1    0    0  501    0  0.00000000000E+00 -0.00000000000E+00 -0.62117582958E+03  0.62117582959E+03  0.25500000000E-02 0. -1.
    8880023    1    1    2    0    0 -0.18050570616E+03 -0.96897387297E+02  0.11605798339E+04  0.13500841347E+04  0.65864270000E+03 0.  1.
    8880022    1    1    2    0    0  0.18050570616E+03  0.96897387297E+02 -0.49538258567E+03  0.55746477272E+03  0.15294330000E+03 0.  0.
<mgrwt>
<rscale>  0 0.53820091E+03</rscale>
<asrwt>0</asrwt>
<pdfrwt beam="1">  1        2 0.95565512E-01 0.68976925E+03</pdfrwt>
<pdfrwt beam="2">  1       -2 0.19790355E+00 0.68976925E+03</pdfrwt>
<totfact> 0.67086588E+00</totfact>
</mgrwt>
</event>
<event>
 4    5  0.7289609E-008  0.1230828E+04  0.7818608E-02  0.9127723E-01
          2   -1    0    0  501    0  0.00000000000E+00  0.00000000000E+00  0.28787646954E+04  0.28787646954E+04  0.25500000000E-02 0. -1.
         -2   -1    0    0    0  501 -0.00000000000E+00 -0.00000000000E+00 -0.79845440777E+03  0.79845440778E+03  0.25500000000E-02 0.  1.
    8880023    1    1    2    0    0 -0.92146374475E+03 -0.48169680580E+03 -0.12213617964E+03  0.12368729515E+04  0.65864270000E+03 0.  0.
    8880022    1    1    2    0    0  0.92146374475E+03  0.48169680580E+03  0.22024464672E+04  0.24403461516E+04  0.15294330000E+03 0.  0.
<mgrwt>
<rscale>  0 0.11831632E+04</rscale>
<asrwt>0</asrwt>
<pdfrwt beam="1">  1        2 0.44288688E+00 0.12308280E+04</pdfrwt>
<pdfrwt beam="2">  1       -2 0.12283914E+00 0.12308280E+04</pdfrwt>
<totfact> 0.10179620E+00</totfact>
</mgrwt>
</event>
<event>
 4    5  0.7289609E-008  0.2122385E+04  0.7818608E-02  0.8562482E-01
          2   -1    0    0  501    0  0.00000000000E+00  0.00000000000E+00  0.24199785585E+04  0.24199785585E+04  0.25500000000E-02 0. -1.
         -2   -1    0    0    0  501 -0.00000000000E+00 -0.00000000000E+00 -0.22098283172E+04  0.22098283172E+04  0.25500000000E-02 0.  1.
    8880023    1    1    2    0    0  0.18187249790E+04  0.87346764540E+03  0.11330381226E+04  0.24058869197E+04  0.65864270000E+03 0. -1.
    8880022    1    1    2    0    0 -0.18187249790E+04 -0.87346764540E+03 -0.92288788123E+03  0.22239199561E+04  0.15294330000E+03 0.  0.
<mgrwt>
<rscale>  0 0.20971903E+04</rscale>
<asrwt>0</asrwt>
<pdfrwt beam="1">  1        2 0.37230439E+00 0.21223846E+04</pdfrwt>
<pdfrwt beam="2">  1       -2 0.33997359E+00 0.21223846E+04</pdfrwt>
<totfact> 0.60906220E-02</totfact>
</mgrwt>
</event>
<event>
 4    5  0.7289609E-008  0.2351800E+04  0.7818608E-02  0.8466479E-01
         -2   -1    0    0    0  501 -0.00000000000E+00  0.00000000000E+00  0.25242544130E+04  0.25242544130E+04  0.25500000000E-02 0.  1.
          2   -1    0    0  501    0  0.00000000000E+00 -0.00000000000E+00 -0.25012626485E+04  0.25012626485E+04  0.25500000000E-02 0. -1.
    8880023    1    1    2    0    0 -0.60631358574E+03 -0.21747496920E+04 -0.98318316324E+03  0.25490413347E+04  0.65864270000E+03 0.  0.
    8880022    1    1    2    0    0  0.60631358574E+03  0.21747496920E+04  0.10061749277E+04  0.24764757268E+04  0.15294330000E+03 0.  0.
<mgrwt>
<rscale>  0 0.23292429E+04</rscale>
<asrwt>0</asrwt>
<pdfrwt beam="1">  1        2 0.38480964E+00 0.23517999E+04</pdfrwt>
<pdfrwt beam="2">  1       -2 0.38834683E+00 0.23517999E+04</pdfrwt>
<totfact> 0.26174691E-02</totfact>
</mgrwt>
</event>
<event>
 4    5  0.7289609E-008  0.6718897E+03  0.7818608E-02  0.1014343E+00
         -2   -1    0    0    0  501 -0.00000000000E+00  0.00000000000E+00  0.76528825399E+03  0.76528825399E+03  0.25500000000E-02 0.  1.
          2   -1    0    0  501    0  0.00000000000E+00 -0.00000000000E+00 -0.22416490337E+04  0.22416490337E+04  0.25500000000E-02 0. -1.
    8880023    1    1    2    0    0 -0.18276720470E+02 -0.13149711704E+03  0.61196691521E+03  0.90881199479E+03  0.65864270000E+03 0.  1.
    8880022    1    1    2    0    0  0.18276720470E+02  0.13149711704E+03 -0.20883276949E+04  0.20981252929E+04  0.15294330000E+03 0.  0.
<mgrwt>
<rscale>  0 0.49784506E+03</rscale>
<asrwt>0</asrwt>
<pdfrwt beam="1">  1        2 0.34486908E+00 0.67188968E+03</pdfrwt>
<pdfrwt beam="2">  1       -2 0.11773665E+00 0.67188968E+03</pdfrwt>
<totfact> 0.28836008E+00</totfact>
</mgrwt>
</event>
<event>
 4    5  0.7289609E-008  0.9741266E+03  0.7818608E-02  0.9416219E-01
         -2   -1    0    0    0  501 -0.00000000000E+00  0.00000000000E+00  0.53667741081E+03  0.53667741081E+03  0.25500000000E-02 0.  1.
          2   -1    0    0  501    0  0.00000000000E+00 -0.00000000000E+00 -0.15994211319E+04  0.15994211319E+04  0.25500000000E-02 0. -1.
    8880023    1    1    2    0    0 -0.39154986995E+03  0.60149901281E+03 -0.10055901538E+04  0.14000479016E+04  0.65864270000E+03 0. -1.
    8880022    1    1    2    0    0  0.39154986995E+03 -0.60149901281E+03 -0.57153567334E+02  0.73605064115E+03  0.15294330000E+03 0.  0.
<mgrwt>
<rscale>  0 0.90752826E+03</rscale>
<asrwt>0</asrwt>
<pdfrwt beam="1">  1        2 0.24606479E+00 0.97412657E+03</pdfrwt>
<pdfrwt beam="2">  1       -2 0.82565756E-01 0.97412657E+03</pdfrwt>
<totfact> 0.14367902E+01</totfact>
</mgrwt>
</event>
<event>
 4    5  0.7289609E-008  0.1435754E+04  0.7818608E-02  0.8956387E-01
          2   -1    0    0  501    0  0.00000000000E+00  0.00000000000E+00  0.25945084618E+04  0.25945084618E+04  0.25500000000E-02 0. -1.
         -2   -1    0    0    0  501 -0.00000000000E+00 -0.00000000000E+00 -0.75380941914E+03  0.75380941914E+03  0.25500000000E-02 0.  1.
    8880023    1    1    2    0    0 -0.78330447807E+03 -0.10069822531E+04  0.58078129407E+03  0.15487725079E+04  0.65864270000E+03 0.  0.
    8880022    1    1    2    0    0  0.78330447807E+03  0.10069822531E+04  0.12599177485E+04  0.17995453730E+04  0.15294330000E+03 0.  0.
<mgrwt>
<rscale>  0 0.13964566E+04</rscale>
<asrwt>0</asrwt>
<pdfrwt beam="1">  1        2 0.39915514E+00 0.14357539E+04</pdfrwt>
<pdfrwt beam="2">  1       -2 0.11597068E+00 0.14357539E+04</pdfrwt>
<totfact> 0.16948096E+00</totfact>
</mgrwt>
</event>
<event>
 4    5  0.7289609E-008  0.7868313E+03  0.7818608E-02  0.9740028E-01
         -2   -1    0    0    0  501 -0.00000000000E+00  0.00000000000E+00  0.25260929353E+03  0.25260929354E+03  0.25500000000E-02 0.  1.
          2   -1    0    0  501    0  0.00000000000E+00 -0.00000000000E+00 -0.37512088360E+04  0.37512088360E+04  0.25500000000E-02 0. -1.
    8880023    1    1    2    0    0 -0.35466651024E+03  0.24393632586E+03 -0.42077176037E+03  0.89227369408E+03  0.65864270000E+03 0.  0.
    8880022    1    1    2    0    0  0.35466651024E+03 -0.24393632586E+03 -0.30778277821E+04  0.31115444355E+04  0.15294330000E+03 0.  0.
<mgrwt>
<rscale>  0 0.68682738E+03</rscale>
<asrwt>0</asrwt>
<pdfrwt beam="1">  1        2 0.57710901E+00 0.78683128E+03</pdfrwt>
<pdfrwt beam="2">  1       -2 0.38862971E-01 0.78683128E+03</pdfrwt>
<totfact> 0.36360387E+00</totfact>
</mgrwt>
</event>
<event>
 4    5  0.7289609E-008  0.1124930E+04  0.7818608E-02  0.9233795E-01
         -2   -1    0    0    0  501 -0.00000000000E+00  0.00000000000E+00  0.15336008006E+04  0.15336008006E+04  0.25500000000E-02 0.  1.
          2   -1    0    0  501    0  0.00000000000E+00 -0.00000000000E+00 -0.10406473919E+04  0.10406473919E+04  0.25500000000E-02 0. -1.
    8880023    1    1    2    0    0  0.77571751826E+03  0.47949894091E+03 -0.48795606831E+03  0.12262007313E+04  0.65864270000E+03 0. -1.
    8880022    1    1    2    0    0 -0.77571751826E+03 -0.47949894091E+03  0.98090947710E+03  0.13480474612E+04  0.15294330000E+03 0.  0.
<mgrwt>
<rscale>  0 0.10711318E+04</rscale>
<asrwt>0</asrwt>
<pdfrwt beam="1">  1        2 0.16009960E+00 0.11249298E+04</pdfrwt>
<pdfrwt beam="2">  1       -2 0.23593858E+00 0.11249298E+04</pdfrwt>
<totfact> 0.18271146E+00</totfact>
</mgrwt>
</event>
<event>
 4    5  0.7289609E-008  0.1165616E+04  0.7818608E-02  0.9191292E-01
         -2   -1    0    0    0  501 -0.00000000000E+00  0.00000000000E+00  0.90239221786E+03  0.90239221787E+03  0.25500000000E-02 0.  1.
          2   -1    0    0  501    0  0.00000000000E+00 -0.00000000000E+00 -0.17631886419E+04  0.17631886419E+04  0.25500000000E-02 0. -1.
    8880023    1    1    2    0    0 -0.25755023736E+03  0.92656311254E+03  0.24610104583E+03  0.11913132490E+04  0.65864270000E+03 0.  0.
    8880022    1    1    2    0    0  0.25755023736E+03 -0.92656311254E+03 -0.11068974699E+04  0.14742676107E+04  0.15294330000E+03 0.  0.
<mgrwt>
<rscale>  0 0.11143758E+04</rscale>
<asrwt>0</asrwt>
<pdfrwt beam="1">  1        2 0.27125979E+00 0.11656164E+04</pdfrwt>
<pdfrwt beam="2">  1       -2 0.13882957E+00 0.11656164E+04</pdfrwt>
<totfact> 0.32428944E+00</totfact>
</mgrwt>
</event>
<event>
 4    5  0.7289609E-008  0.7644563E+03  0.7818608E-02  0.9793704E-01
         -2   -1    0    0    0  501 -0.00000000000E+00  0.00000000000E+00  0.20697770498E+03  0.20697770500E+03  0.25500000000E-02 0.  1.
          2   -1    0    0  501    0  0.00000000000E+00 -0.00000000000E+00 -0.21665685449E+04  0.21665685449E+04  0.25500000000E-02 0. -1.
    8880023    1    1    2    0    0 -0.38804682462E+03  0.16871768645E+01 -0.66432580479E+03  0.10127794261E+04  0.65864270000E+03 0.  1.
    8880022    1    1    2    0    0  0.38804682462E+03 -0.16871768645E+01 -0.12952650351E+04  0.13607668239E+04  0.15294330000E+03 0.  0.
<mgrwt>
<rscale>  0 0.65701501E+03</rscale>
<asrwt>0</asrwt>
<pdfrwt beam="1">  1        2 0.33331822E+00 0.76445627E+03</pdfrwt>
<pdfrwt beam="2">  1       -2 0.31842725E-01 0.76445627E+03</pdfrwt>
<totfact> 0.50974629E+01</totfact>
</mgrwt>
</event>
<event>
 4    5  0.7289609E-008  0.1071414E+04  0.7818608E-02  0.9293571E-01
         -2   -1    0    0    0  501 -0.00000000000E+00  0.00000000000E+00  0.49717129421E+03  0.49717129422E+03  0.25500000000E-02 0.  1.
          2   -1    0    0  501    0  0.00000000000E+00 -0.00000000000E+00 -0.35413732729E+04  0.35413732729E+04  0.25500000000E-02 0. -1.
    8880023    1    1    2    0    0 -0.37157944682E+03  0.75897720628E+03 -0.22946108861E+03  0.10957099445E+04  0.65864270000E+03 0.  0.
    8880022    1    1    2    0    0  0.37157944682E+03 -0.75897720628E+03 -0.28147408901E+04  0.29428346227E+04  0.15294330000E+03 0.  0.
<mgrwt>
<rscale>  0 0.10137688E+04</rscale>
<asrwt>0</asrwt>
<pdfrwt beam="1">  1        2 0.54482664E+00 0.10714140E+04</pdfrwt>
<pdfrwt beam="2">  1       -2 0.76487894E-01 0.10714140E+04</pdfrwt>
<totfact> 0.11905525E+00</totfact>
</mgrwt>
</event>
<event>
 4    5  0.7289609E-008  0.7522681E+03  0.7818608E-02  0.9825552E-01
         -2   -1    0    0    0  501 -0.00000000000E+00  0.00000000000E+00  0.13379847952E+04  0.13379847952E+04  0.25500000000E-02 0.  1.
          2   -1    0    0  501    0  0.00000000000E+00 -0.00000000000E+00 -0.12177164834E+04  0.12177164834E+04  0.25500000000E-02 0. -1.
    8880023    1    1    2    0    0  0.88704473543E+02  0.35246083456E+03  0.11943544597E+04  0.14115204232E+04  0.65864270000E+03 0.  0.
    8880022    1    1    2    0    0 -0.88704473543E+02 -0.35246083456E+03 -0.10740861480E+04  0.11441808554E+04  0.15294330000E+03 0. -1.
<mgrwt>
<rscale>  0 0.64009123E+03</rscale>
<asrwt>0</asrwt>
<pdfrwt beam="1">  1        2 0.18734100E+00 0.75226812E+03</pdfrwt>
<pdfrwt beam="2">  1       -2 0.20584382E+00 0.75226812E+03</pdfrwt>
<totfact> 0.23145858E+00</totfact>
</mgrwt>
</event>
<event>
 4    5  0.7289609E-008  0.7185682E+03  0.7818608E-02  0.9927461E-01
          2   -1    0    0  501    0  0.00000000000E+00  0.00000000000E+00  0.13569514014E+04  0.13569514014E+04  0.25500000000E-02 0. -1.
         -2   -1    0    0    0  501 -0.00000000000E+00 -0.00000000000E+00 -0.53677237587E+03  0.53677237588E+03  0.25500000000E-02 0.  1.
    8880023    1    1    2    0    0  0.20466778650E+03  0.20159660000E+03 -0.26109372822E+03  0.76453268939E+03  0.65864270000E+03 0.  1.
    8880022    1    1    2    0    0 -0.20466778650E+03 -0.20159660000E+03  0.10812727537E+04  0.11291910879E+04  0.15294330000E+03 0.  0.
<mgrwt>
<rscale>  0 0.58948689E+03</rscale>
<asrwt>0</asrwt>
<pdfrwt beam="1">  1        2 0.20876175E+00 0.71856823E+03</pdfrwt>
<pdfrwt beam="2">  1       -2 0.82580367E-01 0.71856823E+03</pdfrwt>
<totfact> 0.20210279E+01</totfact>
</mgrwt>
</event>
<event>
 4    5  0.7289609E-008  0.7034050E+03  0.7818608E-02  0.9983359E-01
          2   -1    0    0  501    0  0.00000000000E+00  0.00000000000E+00  0.62904463160E+03  0.62904463161E+03  0.25500000000E-02 0. -1.
         -2   -1    0    0    0  501 -0.00000000000E+00 -0.00000000000E+00 -0.92691889984E+03  0.92691889984E+03  0.25500000000E-02 0.  1.
    8880023    1    1    2    0    0  0.12828186037E+03  0.21097889241E+03 -0.74383962271E+03  0.10237557909E+04  0.65864270000E+03 0.  1.
    8880022    1    1    2    0    0 -0.12828186037E+03 -0.21097889241E+03  0.44596535447E+03  0.53220774059E+03  0.15294330000E+03 0.  0.
<mgrwt>
<rscale>  0 0.56385979E+03</rscale>
<asrwt>0</asrwt>
<pdfrwt beam="1">  1        2 0.96776097E-01 0.70340496E+03</pdfrwt>
<pdfrwt beam="2">  1       -2 0.14260291E+00 0.70340496E+03</pdfrwt>
<totfact> 0.16328457E+01</totfact>
</mgrwt>
</event>
<event>
 4    5  0.7289609E-008  0.8289558E+03  0.7818608E-02  0.9651368E-01
         -2   -1    0    0    0  501 -0.00000000000E+00  0.00000000000E+00  0.39601421494E+03  0.39601421495E+03  0.25500000000E-02 0.  1.
          2   -1    0    0  501    0  0.00000000000E+00 -0.00000000000E+00 -0.14590260638E+04  0.14590260638E+04  0.25500000000E-02 0. -1.
    8880023    1    1    2    0    0  0.28574409096E+03  0.41437634218E+03 -0.21379515600E+03  0.85608177966E+03  0.65864270000E+03 0.  0.
    8880022    1    1    2    0    0 -0.28574409096E+03 -0.41437634218E+03 -0.84921669289E+03  0.99895849913E+03  0.15294330000E+03 0.  0.
<mgrwt>
<rscale>  0 0.73987659E+03</rscale>
<asrwt>0</asrwt>
<pdfrwt beam="1">  1        2 0.22446555E+00 0.82895576E+03</pdfrwt>
<pdfrwt beam="2">  1       -2 0.60925264E-01 0.82895576E+03</pdfrwt>
<totfact> 0.34039318E+01</totfact>
</mgrwt>
</event>
<event>
 4    5  0.7289609E-008  0.1102304E+04  0.7818608E-02  0.9258495E-01
         -2   -1    0    0    0  501 -0.00000000000E+00  0.00000000000E+00  0.79627831041E+03  0.79627831041E+03  0.25500000000E-02 0.  1.
          2   -1    0    0  501    0  0.00000000000E+00 -0.00000000000E+00 -0.15125647545E+04  0.15125647545E+04  0.25500000000E-02 0. -1.
    8880023    1    1    2    0    0 -0.10464427164E+03 -0.87767538051E+03  0.85633892911E+02  0.11056255546E+04  0.65864270000E+03 0.  0.
    8880022    1    1    2    0    0  0.10464427164E+03  0.87767538051E+03 -0.80192033696E+03  0.12032175103E+04  0.15294330000E+03 0.  0.
<mgrwt>
<rscale>  0 0.10469535E+04</rscale>
<asrwt>0</asrwt>
<pdfrwt beam="1">  1        2 0.23270227E+00 0.11023043E+04</pdfrwt>
<pdfrwt beam="2">  1       -2 0.12250436E+00 0.11023043E+04</pdfrwt>
<totfact> 0.61949541E+00</totfact>
</mgrwt>
</event>
<event>
 4    5  0.7289609E-008  0.1257888E+04  0.7818608E-02  0.9102807E-01
          2   -1    0    0  501    0  0.00000000000E+00  0.00000000000E+00  0.17932570173E+04  0.17932570173E+04  0.25500000000E-02 0. -1.
         -2   -1    0    0    0  501 -0.00000000000E+00 -0.00000000000E+00 -0.15876308471E+04  0.15876308471E+04  0.25500000000E-02 0.  1.
    8880023    1    1    2    0    0 -0.65434880973E+03  0.84870480430E+03 -0.11096749515E+04  0.16773970651E+04  0.65864270000E+03 0.  1.
    8880022    1    1    2    0    0  0.65434880973E+03 -0.84870480430E+03  0.13153011217E+04  0.17034907994E+04  0.15294330000E+03 0.  0.
<mgrwt>
<rscale>  0 0.12115495E+04</rscale>
<asrwt>0</asrwt>
<pdfrwt beam="1">  1        2 0.27588570E+00 0.12578881E+04</pdfrwt>
<pdfrwt beam="2">  1       -2 0.24425090E+00 0.12578881E+04</pdfrwt>
<totfact> 0.58530014E-01</totfact>
</mgrwt>
</event>
<event>
 4    5  0.7289609E-008  0.6804374E+03  0.7818608E-02  0.1009077E+00
         -2   -1    0    0    0  501 -0.00000000000E+00  0.00000000000E+00  0.40905982254E+03  0.40905982255E+03  0.25500000000E-02 0.  1.
          2   -1    0    0  501    0  0.00000000000E+00 -0.00000000000E+00 -0.96666014076E+03  0.96666014076E+03  0.25500000000E-02 0. -1.
    8880023    1    1    2    0    0  0.18925273171E+02 -0.16978406308E+03  0.92195196906E+02  0.68665490214E+03  0.65864270000E+03 0.  0.
    8880022    1    1    2    0    0 -0.18925273171E+02  0.16978406308E+03 -0.64979551512E+03  0.68906506117E+03  0.15294330000E+03 0.  0.
<mgrwt>
<rscale>  0 0.51842987E+03</rscale>
<asrwt>0</asrwt>
<pdfrwt beam="1">  1        2 0.14871694E+00 0.68043736E+03</pdfrwt>
<pdfrwt beam="2">  1       -2 0.62932281E-01 0.68043736E+03</pdfrwt>
<totfact> 0.63232399E+01</totfact>
</mgrwt>
</event>
<event>
 4    5  0.7289609E-008  0.7852692E+03  0.7818608E-02  0.9743602E-01
         -2   -1    0    0    0  501 -0.00000000000E+00  0.00000000000E+00  0.82362785048E+03  0.82362785048E+03  0.25500000000E-02 0.  1.
          2   -1    0    0  501    0  0.00000000000E+00 -0.00000000000E+00 -0.12244478715E+04  0.12244478715E+04  0.25500000000E-02 0. -1.
    8880023    1    1    2    0    0 -0.24622792490E+03 -0.34958448265E+03  0.57398557741E+03  0.97268039501E+03  0.65864270000E+03 0.  1.
    8880022    1    1    2    0    0  0.24622792490E+03  0.34958448265E+03 -0.97480559839E+03  0.10753953269E+04  0.15294330000E+03 0.  0.
<mgrwt>
<rscale>  0 0.68479042E+03</rscale>
<asrwt>0</asrwt>
<pdfrwt beam="1">  1        2 0.18837660E+00 0.78526919E+03</pdfrwt>
<pdfrwt beam="2">  1       -2 0.12671198E+00 0.78526919E+03</pdfrwt>
<totfact> 0.86211679E+00</totfact>
</mgrwt>
</event>
<event>
 4    5  0.7289609E-008  0.7734020E+03  0.7818608E-02  0.9771570E-01
         -2   -1    0    0    0  501 -0.00000000000E+00  0.00000000000E+00  0.23330364935E+03  0.23330364937E+03  0.25500000000E-02 0.  1.
          2   -1    0    0  501    0  0.00000000000E+00 -0.00000000000E+00 -0.23937502848E+04  0.23937502848E+04  0.25500000000E-02 0. -1.
    8880023    1    1    2    0    0  0.96235847603E+02  0.39380076740E+03 -0.52394879996E+03  0.93416964948E+03  0.65864270000E+03 0.  1.
    8880022    1    1    2    0    0 -0.96235847603E+02 -0.39380076740E+03 -0.16364978355E+04  0.16928842847E+04  0.15294330000E+03 0.  0.
<mgrwt>
<rscale>  0 0.66910804E+03</rscale>
<asrwt>0</asrwt>
<pdfrwt beam="1">  1        2 0.36826926E+00 0.77340196E+03</pdfrwt>
<pdfrwt beam="2">  1       -2 0.35892871E-01 0.77340196E+03</pdfrwt>
<totfact> 0.30355150E+01</totfact>
</mgrwt>
</event>
<event>
 4    5  0.7289609E-008  0.1863160E+04  0.7818608E-02  0.8688380E-01
          2   -1    0    0  501    0  0.00000000000E+00  0.00000000000E+00  0.25831834266E+04  0.25831834266E+04  0.25500000000E-02 0. -1.
         -2   -1    0    0    0  501 -0.00000000000E+00 -0.00000000000E+00 -0.21992365775E+04  0.21992365775E+04  0.25500000000E-02 0.  1.
    8880023    1    1    2    0    0 -0.89047248352E+03 -0.14982031974E+04  0.17550583324E+04  0.25596081772E+04  0.65864270000E+03 0.  0.
    8880022    1    1    2    0    0  0.89047248352E+03  0.14982031974E+04 -0.13711114832E+04  0.22228118268E+04  0.15294330000E+03 0.  0.
<mgrwt>
<rscale>  0 0.18340853E+04</rscale>
<asrwt>0</asrwt>
<pdfrwt beam="1">  1        2 0.39741283E+00 0.18631598E+04</pdfrwt>
<pdfrwt beam="2">  1       -2 0.33834409E+00 0.18631598E+04</pdfrwt>
<totfact> 0.51444495E-02</totfact>
</mgrwt>
</event>
<event>
 4    5  0.7289609E-008  0.1209908E+04  0.7818608E-02  0.9147551E-01
          2   -1    0    0  501    0  0.00000000000E+00  0.00000000000E+00  0.17536166732E+04  0.17536166732E+04  0.25500000000E-02 0. -1.
         -2   -1    0    0    0  501 -0.00000000000E+00 -0.00000000000E+00 -0.12877877910E+04  0.12877877910E+04  0.25500000000E-02 0.  1.
    8880023    1    1    2    0    0 -0.15172412056E+03 -0.10035167428E+04 -0.77060672871E+03  0.14344723763E+04  0.65864270000E+03 0.  0.
    8880022    1    1    2    0    0  0.15172412056E+03  0.10035167428E+04  0.12364356109E+04  0.16069320878E+04  0.15294330000E+03 0.  0.
<mgrwt>
<rscale>  0 0.11611579E+04</rscale>
<asrwt>0</asrwt>
<pdfrwt beam="1">  1        2 0.26978718E+00 0.12099075E+04</pdfrwt>
<pdfrwt beam="2">  1       -2 0.19812120E+00 0.12099075E+04</pdfrwt>
<totfact> 0.12143768E+00</totfact>
</mgrwt>
</event>
<event>
 4    5  0.7289609E-008  0.8274314E+03  0.7818608E-02  0.9654351E-01
          2   -1    0    0  501    0  0.00000000000E+00  0.00000000000E+00  0.19251427406E+04  0.19251427406E+04  0.25500000000E-02 0. -1.
         -2   -1    0    0    0  501 -0.00000000000E+00 -0.00000000000E+00 -0.92248913345E+03  0.92248913345E+03  0.25500000000E-02 0.  1.
    8880023    1    1    2    0    0 -0.34495613268E+03 -0.36309481596E+03 -0.68902663729E+03  0.10767546109E+04  0.65864270000E+03 0.  1.
    8880022    1    1    2    0    0  0.34495613268E+03  0.36309481596E+03  0.16916802444E+04  0.17708772632E+04  0.15294330000E+03 0.  0.
<mgrwt>
<rscale>  0 0.73800999E+03</rscale>
<asrwt>0</asrwt>
<pdfrwt beam="1">  1        2 0.29617580E+00 0.82743144E+03</pdfrwt>
<pdfrwt beam="2">  1       -2 0.14192141E+00 0.82743144E+03</pdfrwt>
<totfact> 0.26052609E+00</totfact>
</mgrwt>
</event>
<event>
 4    5  0.7289609E-008  0.1291420E+04  0.7818608E-02  0.9073005E-01
         -2   -1    0    0    0  501 -0.00000000000E+00  0.00000000000E+00  0.67856638317E+03  0.67856638317E+03  0.25500000000E-02 0.  1.
          2   -1    0    0  501    0  0.00000000000E+00 -0.00000000000E+00 -0.31805720916E+04  0.31805720916E+04  0.25500000000E-02 0. -1.
    8880023    1    1    2    0    0  0.10482151673E+04 -0.36769722497E+03 -0.21113915753E+03  0.13085664814E+04  0.65864270000E+03 0.  0.
    8880022    1    1    2    0    0 -0.10482151673E+04  0.36769722497E+03 -0.22908665508E+04  0.25505719933E+04  0.15294330000E+03 0.  0.
<mgrwt>
<rscale>  0 0.12466159E+04</rscale>
<asrwt>0</asrwt>
<pdfrwt beam="1">  1        2 0.48931878E+00 0.12914203E+04</pdfrwt>
<pdfrwt beam="2">  1       -2 0.10439483E+00 0.12914203E+04</pdfrwt>
<totfact> 0.97640499E-01</totfact>
</mgrwt>
</event>
<event>
 4    5  0.7289609E-008  0.1514871E+04  0.7818608E-02  0.8899206E-01
          2   -1    0    0  501    0  0.00000000000E+00  0.00000000000E+00  0.47318409263E+04  0.47318409263E+04  0.25500000000E-02 0. -1.
         -2   -1    0    0    0  501 -0.00000000000E+00 -0.00000000000E+00 -0.11592660090E+04  0.11592660090E+04  0.25500000000E-02 0.  1.
    8880023    1    1    2    0    0 -0.99266419050E+03 -0.93575690083E+03 -0.49853010433E+03  0.15947932919E+04  0.65864270000E+03 0.  0.
    8880022    1    1    2    0    0  0.99266419050E+03  0.93575690083E+03  0.40711050216E+04  0.42963136434E+04  0.15294330000E+03 0.  0.
<mgrwt>
<rscale>  0 0.14780147E+04</rscale>
<asrwt>0</asrwt>
<pdfrwt beam="1">  1        2 0.72797553E+00 0.15148707E+04</pdfrwt>
<pdfrwt beam="2">  1       -2 0.17834862E+00 0.15148707E+04</pdfrwt>
<totfact> 0.12818433E-02</totfact>
</mgrwt>
</event>
<event>
 4    5  0.7289609E-008  0.8246456E+03  0.7818608E-02  0.9659842E-01
          2   -1    0    0  501    0  0.00000000000E+00  0.00000000000E+00  0.34204646720E+04  0.34204646720E+04  0.25500000000E-02 0. -1.
         -2   -1    0    0    0  501 -0.00000000000E+00 -0.00000000000E+00 -0.49366956856E+03  0.49366956857E+03  0.25500000000E-02 0.  1.
    8880023    1    1    2    0    0 -0.49124930170E+03  0.70030137454E+02 -0.11117713943E+03  0.83210615860E+03  0.65864270000E+03 0.  1.
    8880022    1    1    2    0    0  0.49124930170E+03 -0.70030137454E+02  0.30379722429E+04  0.30820280820E+04  0.15294330000E+03 0.  0.
<mgrwt>
<rscale>  0 0.73458974E+03</rscale>
<asrwt>0</asrwt>
<pdfrwt beam="1">  1        2 0.52622534E+00 0.82464556E+03</pdfrwt>
<pdfrwt beam="2">  1       -2 0.75949163E-01 0.82464556E+03</pdfrwt>
<totfact> 0.15296787E+00</totfact>
</mgrwt>
</event>
<event>
 4    5  0.7289609E-008  0.1085205E+04  0.7818608E-02  0.9277710E-01
         -2   -1    0    0    0  501 -0.00000000000E+00  0.00000000000E+00  0.96420936248E+03  0.96420936249E+03  0.25500000000E-02 0.  1.
          2   -1    0    0  501    0  0.00000000000E+00 -0.00000000000E+00 -0.15554052561E+04  0.15554052561E+04  0.25500000000E-02 0. -1.
    8880023    1    1    2    0    0 -0.79273425470E+03  0.33975395364E+03  0.43612549332E+03  0.11695623112E+04  0.65864270000E+03 0.  0.
    8880022    1    1    2    0    0  0.79273425470E+03 -0.33975395364E+03 -0.10273213869E+04  0.13500523074E+04  0.15294330000E+03 0.  0.
<mgrwt>
<rscale>  0 0.10286110E+04</rscale>
<asrwt>0</asrwt>
<pdfrwt beam="1">  1        2 0.23929312E+00 0.10852053E+04</pdfrwt>
<pdfrwt beam="2">  1       -2 0.14833990E+00 0.10852053E+04</pdfrwt>
<totfact> 0.35857145E+00</totfact>
</mgrwt>
</event>
<event>
 4    5  0.7289609E-008  0.1081600E+04  0.7818608E-02  0.9281824E-01
          2   -1    0    0  501    0  0.00000000000E+00  0.00000000000E+00  0.25319378231E+04  0.25319378231E+04  0.25500000000E-02 0. -1.
         -2   -1    0    0    0  501 -0.00000000000E+00 -0.00000000000E+00 -0.40032729327E+03  0.40032729328E+03  0.25500000000E-02 0.  1.
    8880023    1    1    2    0    0  0.85745775485E+03 -0.28527220384E+02  0.15284414363E+04  0.18724291800E+04  0.65864270000E+03 0.  0.
    8880022    1    1    2    0    0 -0.85745775485E+03  0.28527220384E+02  0.60316909357E+03  0.10598359364E+04  0.15294330000E+03 0.  0.
<mgrwt>
<rscale>  0 0.10247349E+04</rscale>
<asrwt>0</asrwt>
<pdfrwt beam="1">  1        2 0.38952890E+00 0.10815997E+04</pdfrwt>
<pdfrwt beam="2">  1       -2 0.61588814E-01 0.10815997E+04</pdfrwt>
<totfact> 0.81916618E+00</totfact>
</mgrwt>
</event>
<event>
 4    5  0.7289609E-008  0.1090840E+04  0.7818608E-02  0.9271324E-01
         -2   -1    0    0    0  501 -0.00000000000E+00  0.00000000000E+00  0.13315653600E+04  0.13315653600E+04  0.25500000000E-02 0.  1.
          2   -1    0    0  501    0  0.00000000000E+00 -0.00000000000E+00 -0.19871057068E+04  0.19871057068E+04  0.25500000000E-02 0. -1.
    8880023    1    1    2    0    0 -0.21499814308E+03 -0.84255383631E+03  0.97588970516E+03  0.14636570949E+04  0.65864270000E+03 0.  0.
    8880022    1    1    2    0    0  0.21499814308E+03  0.84255383631E+03 -0.16314300519E+04  0.18550139719E+04  0.15294330000E+03 0.  0.
<mgrwt>
<rscale>  0 0.10346623E+04</rscale>
<asrwt>0</asrwt>
<pdfrwt beam="1">  1        2 0.30570857E+00 0.10908398E+04</pdfrwt>
<pdfrwt beam="2">  1       -2 0.20485621E+00 0.10908398E+04</pdfrwt>
<totfact> 0.82758108E-01</totfact>
</mgrwt>
</event>
<event>
 4    5  0.7289609E-008  0.1440761E+04  0.7818608E-02  0.8952641E-01
          2   -1    0    0  501    0  0.00000000000E+00  0.00000000000E+00  0.11898466927E+04  0.11898466927E+04  0.25500000000E-02 0. -1.
         -2   -1    0    0    0  501 -0.00000000000E+00 -0.00000000000E+00 -0.19949328252E+04  0.19949328252E+04  0.25500000000E-02 0.  1.
    8880023    1    1    2    0    0  0.12290379233E+04 -0.36255716193E+03 -0.11562605519E+04  0.18473577301E+04  0.65864270000E+03 0.  0.
    8880022    1    1    2    0    0 -0.12290379233E+04  0.36255716193E+03  0.35117441941E+03  0.13374217878E+04  0.15294330000E+03 0.  0.
<mgrwt>
<rscale>  0 0.14016285E+04</rscale>
<asrwt>0</asrwt>
<pdfrwt beam="1">  1        2 0.18305334E+00 0.14407610E+04</pdfrwt>
<pdfrwt beam="2">  1       -2 0.30691274E+00 0.14407610E+04</pdfrwt>
<totfact> 0.52639723E-01</totfact>
</mgrwt>
</event>
<event>
 4    5  0.7289609E-008  0.1396201E+04  0.7818608E-02  0.8986640E-01
         -2   -1    0    0    0  501 -0.00000000000E+00  0.00000000000E+00  0.10752454864E+04  0.10752454864E+04  0.25500000000E-02 0.  1.
          2   -1    0    0  501    0  0.00000000000E+00 -0.00000000000E+00 -0.24879033953E+04  0.24879033953E+04  0.25500000000E-02 0. -1.
    8880023    1    1    2    0    0  0.10133385502E+04 -0.69907907417E+03  0.31977782823E+03  0.14323528319E+04  0.65864270000E+03 0.  0.
    8880022    1    1    2    0    0 -0.10133385502E+04  0.69907907417E+03 -0.17324357372E+04  0.21307960498E+04  0.15294330000E+03 0.  0.
<mgrwt>
<rscale>  0 0.13555460E+04</rscale>
<asrwt>0</asrwt>
<pdfrwt beam="1">  1        2 0.38275437E+00 0.13962008E+04</pdfrwt>
<pdfrwt beam="2">  1       -2 0.16542238E+00 0.13962008E+04</pdfrwt>
<totfact> 0.77553728E-01</totfact>
</mgrwt>
</event>
<event>
 4    5  0.7289609E-008  0.7669656E+03  0.7818608E-02  0.9787397E-01
         -2   -1    0    0    0  501 -0.00000000000E+00  0.00000000000E+00  0.60648985585E+03  0.60648985586E+03  0.25500000000E-02 0.  1.
          2   -1    0    0  501    0  0.00000000000E+00 -0.00000000000E+00 -0.14519220353E+04  0.14519220353E+04  0.25500000000E-02 0. -1.
    8880023    1    1    2    0    0 -0.99305945561E+02 -0.38021610517E+03  0.31090495115E+03  0.82758567676E+03  0.65864270000E+03 0.  1.
    8880022    1    1    2    0    0  0.99305945561E+02  0.38021610517E+03 -0.11563371306E+04  0.12308262144E+04  0.15294330000E+03 0.  0.
<mgrwt>
<rscale>  0 0.66043296E+03</rscale>
<asrwt>0</asrwt>
<pdfrwt beam="1">  1        2 0.22337262E+00 0.76696556E+03</pdfrwt>
<pdfrwt beam="2">  1       -2 0.93306132E-01 0.76696556E+03</pdfrwt>
<totfact> 0.13417629E+01</totfact>
</mgrwt>
</event>
<event>
 4    5  0.7289609E-008  0.1014865E+04  0.7818608E-02  0.9362363E-01
         -2   -1    0    0    0  501 -0.00000000000E+00  0.00000000000E+00  0.11190922621E+04  0.11190922621E+04  0.25500000000E-02 0.  1.
          2   -1    0    0  501    0  0.00000000000E+00 -0.00000000000E+00 -0.13635244212E+04  0.13635244212E+04  0.25500000000E-02 0. -1.
    8880023    1    1    2    0    0 -0.70640213609E+03  0.31166870487E+03  0.71514130280E+03  0.12415227137E+04  0.65864270000E+03 0.  1.
    8880022    1    1    2    0    0  0.70640213609E+03 -0.31166870487E+03 -0.95957346195E+03  0.12410939696E+04  0.15294330000E+03 0.  0.
<mgrwt>
<rscale>  0 0.95238897E+03</rscale>
<asrwt>0</asrwt>
<pdfrwt beam="1">  1        2 0.20977299E+00 0.10148653E+04</pdfrwt>
<pdfrwt beam="2">  1       -2 0.17216804E+00 0.10148653E+04</pdfrwt>
<totfact> 0.30932365E+00</totfact>
</mgrwt>
</event>
<event>
 4    5  0.7289609E-008  0.7059311E+03  0.7818608E-02  0.9973433E-01
          2   -1    0    0  501    0  0.00000000000E+00  0.00000000000E+00  0.21427028226E+03  0.21427028227E+03  0.25500000000E-02 0. -1.
         -2   -1    0    0    0  501 -0.00000000000E+00 -0.00000000000E+00 -0.14822898697E+04  0.14822898697E+04  0.25500000000E-02 0.  1.
    8880023    1    1    2    0    0  0.11262135879E+03 -0.22769468831E+03 -0.12001610643E+04  0.13923811361E+04  0.65864270000E+03 0.  0.
    8880022    1    1    2    0    0 -0.11262135879E+03  0.22769468831E+03 -0.67858523129E+02  0.30417901590E+03  0.15294330000E+03 0.  0.
<mgrwt>
<rscale>  0 0.56830664E+03</rscale>
<asrwt>0</asrwt>
<pdfrwt beam="1">  1        2 0.32964660E-01 0.70593105E+03</pdfrwt>
<pdfrwt beam="2">  1       -2 0.22804459E+00 0.70593105E+03</pdfrwt>
<totfact> 0.14435184E+01</totfact>
</mgrwt>
</event>
<event>
 4    5  0.7289609E-008  0.7113301E+03  0.7818608E-02  0.9953095E-01
          2   -1    0    0  501    0  0.00000000000E+00  0.00000000000E+00  0.57065965191E+03  0.57065965192E+03  0.25500000000E-02 0. -1.
         -2   -1    0    0    0  501 -0.00000000000E+00 -0.00000000000E+00 -0.86361282591E+03  0.86361282591E+03  0.25500000000E-02 0.  1.
    8880023    1    1    2    0    0 -0.32538510044E+02 -0.26668610643E+03 -0.64888379521E+03  0.96282948644E+03  0.65864270000E+03 0.  1.
    8880022    1    1    2    0    0  0.32538510044E+02  0.26668610643E+03  0.35593062122E+03  0.47144299140E+03  0.15294330000E+03 0.  0.
<mgrwt>
<rscale>  0 0.57755671E+03</rscale>
<asrwt>0</asrwt>
<pdfrwt beam="1">  1        2 0.87793793E-01 0.71133005E+03</pdfrwt>
<pdfrwt beam="2">  1       -2 0.13286351E+00 0.71133005E+03</pdfrwt>
<totfact> 0.22009881E+01</totfact>
</mgrwt>
</event>
<event>
 4    5  0.7289609E-008  0.8745317E+03  0.7818608E-02  0.9568219E-01
         -2   -1    0    0    0  501 -0.00000000000E+00  0.00000000000E+00  0.11132670959E+04  0.11132670959E+04  0.25500000000E-02 0.  1.
          2   -1    0    0  501    0  0.00000000000E+00 -0.00000000000E+00 -0.13541344594E+04  0.13541344594E+04  0.25500000000E-02 0. -1.
    8880023    1    1    2    0    0 -0.57104523759E+03 -0.70019824950E+02  0.85324910241E+03  0.12218181846E+04  0.65864270000E+03 0.  1.
    8880022    1    1    2    0    0  0.57104523759E+03  0.70019824950E+02 -0.10941164660E+04  0.12455833707E+04  0.15294330000E+03 0.  0.
<mgrwt>
<rscale>  0 0.79435822E+03</rscale>
<asrwt>0</asrwt>
<pdfrwt beam="1">  1        2 0.20832838E+00 0.87453167E+03</pdfrwt>
<pdfrwt beam="2">  1       -2 0.17127186E+00 0.87453167E+03</pdfrwt>
<totfact> 0.32336581E+00</totfact>
</mgrwt>
</event>
<event>
 4    5  0.7289609E-008  0.6777011E+03  0.7818608E-02  0.1010655E+00
          2   -1    0    0  501    0  0.00000000000E+00  0.00000000000E+00  0.89140707021E+03  0.89140707021E+03  0.25500000000E-02 0. -1.
         -2   -1    0    0    0  501 -0.00000000000E+00 -0.00000000000E+00 -0.89686043511E+03  0.89686043511E+03  0.25500000000E-02 0.  1.
    8880023    1    1    2    0    0 -0.12122260166E+03 -0.10379643612E+03 -0.75045322631E+03  0.10111670833E+04  0.65864270000E+03 0.  1.
    8880022    1    1    2    0    0  0.12122260166E+03  0.10379643612E+03  0.74499986141E+03  0.77710042197E+03  0.15294330000E+03 0.  0.
<mgrwt>
<rscale>  0 0.51215114E+03</rscale>
<asrwt>0</asrwt>
<pdfrwt beam="1">  1        2 0.13713955E+00 0.67770113E+03</pdfrwt>
<pdfrwt beam="2">  1       -2 0.13797853E+00 0.67770113E+03</pdfrwt>
<totfact> 0.11363412E+01</totfact>
</mgrwt>
</event>
<event>
 4    5  0.7289609E-008  0.2118589E+04  0.7818608E-02  0.8564180E-01
         -2   -1    0    0    0  501 -0.00000000000E+00  0.00000000000E+00  0.17184171450E+04  0.17184171450E+04  0.25500000000E-02 0.  1.
          2   -1    0    0  501    0  0.00000000000E+00 -0.00000000000E+00 -0.30766810480E+04  0.30766810480E+04  0.25500000000E-02 0. -1.
    8880023    1    1    2    0    0  0.12577409599E+04  0.15724814897E+04 -0.17380382402E+04  0.27402914970E+04  0.65864270000E+03 0.  0.
    8880022    1    1    2    0    0 -0.12577409599E+04 -0.15724814897E+04  0.37977433722E+03  0.20548066960E+04  0.15294330000E+03 0.  0.
<mgrwt>
<rscale>  0 0.20933460E+04</rscale>
<asrwt>0</asrwt>
<pdfrwt beam="1">  1        2 0.47333555E+00 0.21185893E+04</pdfrwt>
<pdfrwt beam="2">  1       -2 0.26437187E+00 0.21185893E+04</pdfrwt>
<totfact> 0.71602277E-02</totfact>
</mgrwt>
</event>
<event>
 4    5  0.7289609E-008  0.1603822E+04  0.7818608E-02  0.8839602E-01
         -2   -1    0    0    0  501 -0.00000000000E+00  0.00000000000E+00  0.14742838762E+04  0.14742838762E+04  0.25500000000E-02 0.  1.
          2   -1    0    0  501    0  0.00000000000E+00 -0.00000000000E+00 -0.22676832591E+04  0.22676832591E+04  0.25500000000E-02 0. -1.
    8880023    1    1    2    0    0  0.14580316495E+04 -0.11215081769E+03  0.60375626504E+03  0.17136994867E+04  0.65864270000E+03 0.  0.
    8880022    1    1    2    0    0 -0.14580316495E+04  0.11215081769E+03 -0.13971556479E+04  0.20282676486E+04  0.15294330000E+03 0.  0.
<mgrwt>
<rscale>  0 0.15693495E+04</rscale>
<asrwt>0</asrwt>
<pdfrwt beam="1">  1        2 0.34887435E+00 0.16038218E+04</pdfrwt>
<pdfrwt beam="2">  1       -2 0.22681290E+00 0.16038218E+04</pdfrwt>
<totfact> 0.39263794E-01</totfact>
</mgrwt>
</event>
<event>
 4    5  0.7289609E-008  0.6775894E+03  0.7818608E-02  0.1010721E+00
          2   -1    0    0  501    0  0.00000000000E+00  0.00000000000E+00  0.21109351896E+04  0.21109351896E+04  0.25500000000E-02 0. -1.
         -2   -1    0    0    0  501 -0.00000000000E+00 -0.00000000000E+00 -0.35704671695E+03  0.35704671696E+03  0.25500000000E-02 0.  1.
    8880023    1    1    2    0    0  0.15619131212E+03 -0.30355641476E+02 -0.22473666586E+02  0.67796199223E+03  0.65864270000E+03 0.  1.
    8880022    1    1    2    0    0 -0.15619131212E+03  0.30355641476E+02  0.17763621392E+04  0.17900199143E+04  0.15294330000E+03 0.  0.
<mgrwt>
<rscale>  0 0.51188916E+03</rscale>
<asrwt>0</asrwt>
<pdfrwt beam="1">  1        2 0.32475926E+00 0.67758940E+03</pdfrwt>
<pdfrwt beam="2">  1       -2 0.54930264E-01 0.67758940E+03</pdfrwt>
<totfact> 0.18928776E+01</totfact>
</mgrwt>
</event>
<event>
 4    5  0.7289609E-008  0.8018930E+03  0.7818608E-02  0.9706718E-01
         -2   -1    0    0    0  501 -0.00000000000E+00  0.00000000000E+00  0.37760523769E+03  0.37760523770E+03  0.25500000000E-02 0.  1.
          2   -1    0    0  501    0  0.00000000000E+00 -0.00000000000E+00 -0.18817393988E+04  0.18817393988E+04  0.25500000000E-02 0. -1.
    8880023    1    1    2    0    0  0.45682305805E+03  0.23128574413E+02 -0.14203063580E+03  0.81437408179E+03  0.65864270000E+03 0.  1.
    8880022    1    1    2    0    0 -0.45682305805E+03 -0.23128574413E+02 -0.13621035253E+04  0.14449705547E+04  0.15294330000E+03 0.  0.
<mgrwt>
<rscale>  0 0.70618223E+03</rscale>
<asrwt>0</asrwt>
<pdfrwt beam="1">  1        2 0.28949836E+00 0.80189304E+03</pdfrwt>
<pdfrwt beam="2">  1       -2 0.58093115E-01 0.80189304E+03</pdfrwt>
<totfact> 0.22076218E+01</totfact>
</mgrwt>
</event>
<event>
 4    5  0.7289609E-008  0.8117145E+03  0.7818608E-02  0.9686017E-01
         -2   -1    0    0    0  501 -0.00000000000E+00  0.00000000000E+00  0.53231552042E+03  0.53231552042E+03  0.25500000000E-02 0.  1.
          2   -1    0    0  501    0  0.00000000000E+00 -0.00000000000E+00 -0.13101165288E+04  0.13101165288E+04  0.25500000000E-02 0. -1.
    8880023    1    1    2    0    0 -0.38128524112E+03 -0.28229727270E+03  0.11508647087E+03  0.81983247515E+03  0.65864270000E+03 0.  0.
    8880022    1    1    2    0    0  0.38128524112E+03  0.28229727270E+03 -0.89288747922E+03  0.10225995740E+04  0.15294330000E+03 0. -1.
<mgrwt>
<rscale>  0 0.71855486E+03</rscale>
<asrwt>0</asrwt>
<pdfrwt beam="1">  1        2 0.20155639E+00 0.81171448E+03</pdfrwt>
<pdfrwt beam="2">  1       -2 0.81894695E-01 0.81171448E+03</pdfrwt>
<totfact> 0.21678114E+01</totfact>
</mgrwt>
</event>
<event>
 4    5  0.7289609E-008  0.1010033E+04  0.7818608E-02  0.9368547E-01
          2   -1    0    0  501    0  0.00000000000E+00  0.00000000000E+00  0.97412585219E+03  0.97412585219E+03  0.25500000000E-02 0. -1.
         -2   -1    0    0    0  501 -0.00000000000E+00 -0.00000000000E+00 -0.10119700315E+04  0.10119700315E+04  0.25500000000E-02 0.  1.
    8880023    1    1    2    0    0 -0.72646153384E+03 -0.24209625989E+03 -0.44700625030E+03  0.11045278418E+04  0.65864270000E+03 0. -1.
    8880022    1    1    2    0    0  0.72646153384E+03  0.24209625989E+03  0.40916207097E+03  0.88156804193E+03  0.15294330000E+03 0.  0.
<mgrwt>
<rscale>  0 0.94709950E+03</rscale>
<asrwt>0</asrwt>
<pdfrwt beam="1">  1        2 0.14986551E+00 0.10100332E+04</pdfrwt>
<pdfrwt beam="2">  1       -2 0.15568770E+00 0.10100332E+04</pdfrwt>
<totfact> 0.70326960E+00</totfact>
</mgrwt>
</event>
<event>
 4    5  0.7289609E-008  0.7010222E+03  0.7818608E-02  0.9992987E-01
          2   -1    0    0  501    0  0.00000000000E+00  0.00000000000E+00  0.90541006428E+03  0.90541006428E+03  0.25500000000E-02 0. -1.
         -2   -1    0    0    0  501 -0.00000000000E+00 -0.00000000000E+00 -0.41232102485E+03  0.41232102486E+03  0.25500000000E-02 0.  1.
    8880023    1    1    2    0    0  0.22377923628E+03  0.86860709533E+02 -0.51849591067E+02  0.70293706390E+03  0.65864270000E+03 0.  0.
    8880022    1    1    2    0    0 -0.22377923628E+03 -0.86860709533E+02  0.54493863050E+03  0.61479402524E+03  0.15294330000E+03 0.  0.
<mgrwt>
<rscale>  0 0.55958822E+03</rscale>
<asrwt>0</asrwt>
<pdfrwt beam="1">  1        2 0.13929385E+00 0.70102221E+03</pdfrwt>
<pdfrwt beam="2">  1       -2 0.63434005E-01 0.70102221E+03</pdfrwt>
<totfact> 0.68091136E+01</totfact>
</mgrwt>
</event>
<event>
 4    5  0.7289609E-008  0.1159645E+04  0.7818608E-02  0.9197384E-01
          2   -1    0    0  501    0  0.00000000000E+00  0.00000000000E+00  0.17687846701E+04  0.17687846701E+04  0.25500000000E-02 0. -1.
         -2   -1    0    0    0  501 -0.00000000000E+00 -0.00000000000E+00 -0.16585247350E+04  0.16585247350E+04  0.25500000000E-02 0.  1.
    8880023    1    1    2    0    0 -0.86055849370E+03 -0.41280256607E+03  0.13984963781E+04  0.18167468743E+04  0.65864270000E+03 0.  0.
    8880022    1    1    2    0    0  0.86055849370E+03  0.41280256607E+03 -0.12882364430E+04  0.16105625308E+04  0.15294330000E+03 0.  0.
<mgrwt>
<rscale>  0 0.11080467E+04</rscale>
<asrwt>0</asrwt>
<pdfrwt beam="1">  1        2 0.27212072E+00 0.11596452E+04</pdfrwt>
<pdfrwt beam="2">  1       -2 0.25515765E+00 0.11596452E+04</pdfrwt>
<totfact> 0.52447392E-01</totfact>
</mgrwt>
</event>
<event>
 4    5  0.7289609E-008  0.9035835E+03  0.7818608E-02  0.9520303E-01
          2   -1    0    0  501    0  0.00000000000E+00  0.00000000000E+00  0.68453785039E+03  0.68453785039E+03  0.25500000000E-02 0. -1.
         -2   -1    0    0    0  501 -0.00000000000E+00 -0.00000000000E+00 -0.15243732965E+04  0.15243732965E+04  0.25500000000E-02 0.  1.
    8880023    1    1    2    0    0 -0.33485263035E+03  0.52012181092E+03 -0.11802841646E+04  0.14864500993E+04  0.65864270000E+03 0.  1.
    8880022    1    1    2    0    0  0.33485263035E+03 -0.52012181092E+03  0.34044871854E+03  0.72246104754E+03  0.15294330000E+03 0.  0.
<mgrwt>
<rscale>  0 0.82803358E+03</rscale>
<asrwt>0</asrwt>
<pdfrwt beam="1">  1        2 0.10531352E+00 0.90358353E+03</pdfrwt>
<pdfrwt beam="2">  1       -2 0.23451897E+00 0.90358353E+03</pdfrwt>
<totfact> 0.34009340E+00</totfact>
</mgrwt>
</event>
<event>
 4    5  0.7289609E-008  0.9094389E+03  0.7818608E-02  0.9511046E-01
         -2   -1    0    0    0  501 -0.00000000000E+00  0.00000000000E+00  0.52227406417E+03  0.52227406417E+03  0.25500000000E-02 0.  1.
          2   -1    0    0  501    0  0.00000000000E+00 -0.00000000000E+00 -0.22428938451E+04  0.22428938451E+04  0.25500000000E-02 0. -1.
    8880023    1    1    2    0    0 -0.62495654535E+03 -0.51944419447E+02  0.19015774461E+02  0.90963768185E+03  0.65864270000E+03 0.  1.
    8880022    1    1    2    0    0  0.62495654535E+03  0.51944419447E+02 -0.17396355554E+04  0.18555302274E+04  0.15294330000E+03 0.  0.
<mgrwt>
<rscale>  0 0.83474330E+03</rscale>
<asrwt>0</asrwt>
<pdfrwt beam="1">  1        2 0.34506059E+00 0.90943890E+03</pdfrwt>
<pdfrwt beam="2">  1       -2 0.80349857E-01 0.90943890E+03</pdfrwt>
<totfact> 0.68021748E+00</totfact>
</mgrwt>
</event>
<event>
 4    5  0.7289609E-008  0.8640038E+03  0.7818608E-02  0.9586481E-01
          2   -1    0    0  501    0  0.00000000000E+00  0.00000000000E+00  0.14464260595E+04  0.14464260595E+04  0.25500000000E-02 0. -1.
         -2   -1    0    0    0  501 -0.00000000000E+00 -0.00000000000E+00 -0.10213267407E+04  0.10213267407E+04  0.25500000000E-02 0.  1.
    8880023    1    1    2    0    0  0.17559228462E+02 -0.55891329191E+03 -0.75856206602E+03  0.11497473673E+04  0.65864270000E+03 0.  1.
    8880022    1    1    2    0    0 -0.17559228462E+02  0.55891329191E+03  0.11836613848E+04  0.13180054329E+04  0.15294330000E+03 0.  0.
<mgrwt>
<rscale>  0 0.78197476E+03</rscale>
<asrwt>0</asrwt>
<pdfrwt beam="1">  1        2 0.22252708E+00 0.86400382E+03</pdfrwt>
<pdfrwt beam="2">  1       -2 0.15712719E+00 0.86400382E+03</pdfrwt>
<totfact> 0.36354738E+00</totfact>
</mgrwt>
</event>
<event>
 4    5  0.7289609E-008  0.8757270E+03  0.7818608E-02  0.9566178E-01
          2   -1    0    0  501    0  0.00000000000E+00  0.00000000000E+00  0.21738876670E+04  0.21738876670E+04  0.25500000000E-02 0. -1.
         -2   -1    0    0    0  501 -0.00000000000E+00 -0.00000000000E+00 -0.82571766150E+03  0.82571766150E+03  0.25500000000E-02 0.  1.
    8880023    1    1    2    0    0 -0.20440841943E+03 -0.53972656671E+03 -0.53353116646E+03  0.10254527198E+04  0.65864270000E+03 0.  0.
    8880022    1    1    2    0    0  0.20440841943E+03  0.53972656671E+03  0.18817011720E+04  0.19741526087E+04  0.15294330000E+03 0.  0.
<mgrwt>
<rscale>  0 0.79575767E+03</rscale>
<asrwt>0</asrwt>
<pdfrwt beam="1">  1        2 0.33444425E+00 0.87572700E+03</pdfrwt>
<pdfrwt beam="2">  1       -2 0.12703349E+00 0.87572700E+03</pdfrwt>
<totfact> 0.25067765E+00</totfact>
</mgrwt>
</event>
<event>
 4    5  0.7289609E-008  0.8077991E+03  0.7818608E-02  0.9694180E-01
          2   -1    0    0  501    0  0.00000000000E+00  0.00000000000E+00  0.15603582861E+04  0.15603582861E+04  0.25500000000E-02 0. -1.
         -2   -1    0    0    0  501 -0.00000000000E+00 -0.00000000000E+00 -0.13087912919E+04  0.13087912919E+04  0.25500000000E-02 0.  1.
    8880023    1    1    2    0    0  0.22807075054E+02  0.46712842441E+03 -0.11377016045E+04  0.13953151166E+04  0.65864270000E+03 0.  1.
    8880022    1    1    2    0    0 -0.22807075054E+02 -0.46712842441E+03  0.13892685986E+04  0.14738344614E+04  0.15294330000E+03 0.  0.
<mgrwt>
<rscale>  0 0.71364384E+03</rscale>
<asrwt>0</asrwt>
<pdfrwt beam="1">  1        2 0.24005512E+00 0.80779907E+03</pdfrwt>
<pdfrwt beam="2">  1       -2 0.20135251E+00 0.80779907E+03</pdfrwt>
<totfact> 0.15653005E+00</totfact>
</mgrwt>
</event>
<event>
 4    5  0.7289609E-008  0.7872137E+03  0.7818608E-02  0.9739157E-01
          2   -1    0    0  501    0  0.00000000000E+00  0.00000000000E+00  0.27544128148E+04  0.27544128148E+04  0.25500000000E-02 0. -1.
         -2   -1    0    0    0  501 -0.00000000000E+00 -0.00000000000E+00 -0.35755418946E+03  0.35755418947E+03  0.25500000000E-02 0.  1.
    8880023    1    1    2    0    0 -0.24767471200E+03  0.35291977435E+03  0.12812910010E+03  0.79757281965E+03  0.65864270000E+03 0.  1.
    8880022    1    1    2    0    0  0.24767471200E+03 -0.35291977435E+03  0.22687295252E+04  0.23143941846E+04  0.15294330000E+03 0.  0.
<mgrwt>
<rscale>  0 0.68732508E+03</rscale>
<asrwt>0</asrwt>
<pdfrwt beam="1">  1        2 0.42375582E+00 0.78721365E+03</pdfrwt>
<pdfrwt beam="2">  1       -2 0.55008337E-01 0.78721365E+03</pdfrwt>
<totfact> 0.80387883E+00</totfact>
</mgrwt>
</event>
<event>
 4    5  0.7289609E-008  0.7799815E+03  0.7818608E-02  0.9755880E-01
          2   -1    0    0  501    0  0.00000000000E+00  0.00000000000E+00  0.15048338177E+04  0.15048338177E+04  0.25500000000E-02 0. -1.
         -2   -1    0    0    0  501 -0.00000000000E+00 -0.00000000000E+00 -0.83879749981E+03  0.83879749981E+03  0.25500000000E-02 0.  1.
    8880023    1    1    2    0    0  0.25491017599E+03  0.33103143685E+03 -0.61132389151E+03  0.99100359061E+03  0.65864270000E+03 0.  1.
    8880022    1    1    2    0    0 -0.25491017599E+03 -0.33103143685E+03  0.12773602094E+04  0.13526277269E+04  0.15294330000E+03 0.  0.
<mgrwt>
<rscale>  0 0.67784971E+03</rscale>
<asrwt>0</asrwt>
<pdfrwt beam="1">  1        2 0.23151289E+00 0.77998155E+03</pdfrwt>
<pdfrwt beam="2">  1       -2 0.12904577E+00 0.77998155E+03</pdfrwt>
<totfact> 0.56992827E+00</totfact>
</mgrwt>
</event>
<event>
 4    5  0.7289609E-008  0.1032279E+04  0.7818608E-02  0.9340495E-01
         -2   -1    0    0    0  501 -0.00000000000E+00  0.00000000000E+00  0.19815470111E+04  0.19815470111E+04  0.25500000000E-02 0.  1.
          2   -1    0    0  501    0  0.00000000000E+00 -0.00000000000E+00 -0.94349694918E+03  0.94349694918E+03  0.25500000000E-02 0. -1.
    8880023    1    1    2    0    0  0.42868604390E+02  0.79369460427E+03  0.16250300594E+04  0.19251809635E+04  0.65864270000E+03 0.  1.
    8880022    1    1    2    0    0 -0.42868604390E+02 -0.79369460427E+03 -0.58697999739E+03  0.99986299683E+03  0.15294330000E+03 0.  0.
<mgrwt>
<rscale>  0 0.97138816E+03</rscale>
<asrwt>0</asrwt>
<pdfrwt beam="1">  1        2 0.14515338E+00 0.10322786E+04</pdfrwt>
<pdfrwt beam="2">  1       -2 0.30485338E+00 0.10322786E+04</pdfrwt>
<totfact> 0.81393927E-01</totfact>
</mgrwt>
</event>
<event>
 4    5  0.7289609E-008  0.1151760E+04  0.7818608E-02  0.9205504E-01
          2   -1    0    0  501    0  0.00000000000E+00  0.00000000000E+00  0.42647963616E+04  0.42647963616E+04  0.25500000000E-02 0. -1.
         -2   -1    0    0    0  501 -0.00000000000E+00 -0.00000000000E+00 -0.30957054412E+03  0.30957054413E+03  0.25500000000E-02 0.  1.
    8880023    1    1    2    0    0  0.79548177348E+03  0.50985284604E+03  0.12259079677E+04  0.16820825569E+04  0.65864270000E+03 0.  0.
    8880022    1    1    2    0    0 -0.79548177348E+03 -0.50985284604E+03  0.27293178497E+04  0.28922843488E+04  0.15294330000E+03 0.  0.
<mgrwt>
<rscale>  0 0.10996800E+04</rscale>
<asrwt>0</asrwt>
<pdfrwt beam="1">  1        2 0.65612244E+00 0.11517601E+04</pdfrwt>
<pdfrwt beam="2">  1       -2 0.47626243E-01 0.11517601E+04</pdfrwt>
<totfact> 0.88414737E-01</totfact>
</mgrwt>
</event>
<event>
 4    5  0.7289609E-008  0.6990462E+03  0.7818608E-02  0.1000118E+00
         -2   -1    0    0    0  501 -0.00000000000E+00  0.00000000000E+00  0.15185971526E+03  0.15185971528E+03  0.25500000000E-02 0.  1.
          2   -1    0    0  501    0  0.00000000000E+00 -0.00000000000E+00 -0.30908477991E+04  0.30908477991E+04  0.25500000000E-02 0. -1.
    8880023    1    1    2    0    0  0.22342237752E+02  0.23314414711E+03 -0.71050217644E+03  0.99673412599E+03  0.65864270000E+03 0.  1.
    8880022    1    1    2    0    0 -0.22342237752E+02 -0.23314414711E+03 -0.22284859074E+04  0.22459733884E+04  0.15294330000E+03 0.  0.
<mgrwt>
<rscale>  0 0.55598475E+03</rscale>
<asrwt>0</asrwt>
<pdfrwt beam="1">  1        2 0.47551500E+00 0.69904619E+03</pdfrwt>
<pdfrwt beam="2">  1       -2 0.23363035E-01 0.69904619E+03</pdfrwt>
<totfact> 0.26429045E+01</totfact>
</mgrwt>
</event>
<event>
 4    5  0.7289609E-008  0.9811556E+03  0.7818608E-02  0.9406638E-01
          2   -1    0    0  501    0  0.00000000000E+00  0.00000000000E+00  0.14178732897E+04  0.14178732897E+04  0.25500000000E-02 0. -1.
         -2   -1    0    0    0  501 -0.00000000000E+00 -0.00000000000E+00 -0.85146088860E+03  0.85146088860E+03  0.25500000000E-02 0.  1.
    8880023    1    1    2    0    0 -0.35652282553E+03  0.63383553442E+03 -0.39200226446E+03  0.10565661321E+04  0.65864270000E+03 0.  0.
    8880022    1    1    2    0    0  0.35652282553E+03 -0.63383553442E+03  0.95841466556E+03  0.12127680462E+04  0.15294330000E+03 0.  0.
<mgrwt>
<rscale>  0 0.91531406E+03</rscale>
<asrwt>0</asrwt>
<pdfrwt beam="1">  1        2 0.21813435E+00 0.98115555E+03</pdfrwt>
<pdfrwt beam="2">  1       -2 0.13099398E+00 0.98115555E+03</pdfrwt>
<totfact> 0.59902954E+00</totfact>
</mgrwt>
</event>
<event>
 4    5  0.7289609E-008  0.9837973E+03  0.7818608E-02  0.9403069E-01
         -2   -1    0    0    0  501 -0.00000000000E+00  0.00000000000E+00  0.97769396879E+03  0.97769396880E+03  0.25500000000E-02 0.  1.
          2   -1    0    0  501    0  0.00000000000E+00 -0.00000000000E+00 -0.26525899053E+04  0.26525899053E+04  0.25500000000E-02 0. -1.
    8880023    1    1    2    0    0 -0.25372560151E+03 -0.68532497157E+03  0.65618505745E+03  0.11825548754E+04  0.65864270000E+03 0.  1.
    8880022    1    1    2    0    0  0.25372560151E+03  0.68532497157E+03 -0.23310809940E+04  0.24477289987E+04  0.15294330000E+03 0.  0.
<mgrwt>
<rscale>  0 0.91823505E+03</rscale>
<asrwt>0</asrwt>
<pdfrwt beam="1">  1        2 0.40809075E+00 0.98379734E+03</pdfrwt>
<pdfrwt beam="2">  1       -2 0.15041446E+00 0.98379734E+03</pdfrwt>
<totfact> 0.85246695E-01</totfact>
</mgrwt>
</event>
<event>
 4    5  0.7289609E-008  0.8077085E+03  0.7818608E-02  0.9694370E-01
         -2   -1    0    0    0  501 -0.00000000000E+00  0.00000000000E+00  0.13929865685E+04  0.13929865685E+04  0.25500000000E-02 0.  1.
          2   -1    0    0  501    0  0.00000000000E+00 -0.00000000000E+00 -0.16005193772E+04  0.16005193772E+04  0.25500000000E-02 0. -1.
    8880023    1    1    2    0    0 -0.15969110248E+03  0.43941038719E+03  0.12314845873E+04  0.14727346100E+04  0.65864270000E+03 0.  1.
    8880022    1    1    2    0    0  0.15969110248E+03 -0.43941038719E+03 -0.14390173960E+04  0.15207713357E+04  0.15294330000E+03 0.  0.
<mgrwt>
<rscale>  0 0.71352985E+03</rscale>
<asrwt>0</asrwt>
<pdfrwt beam="1">  1        2 0.24623375E+00 0.80770845E+03</pdfrwt>
<pdfrwt beam="2">  1       -2 0.21430563E+00 0.80770845E+03</pdfrwt>
<totfact> 0.12285125E+00</totfact>
</mgrwt>
</event>
<event>
 4    5  0.7289609E-008  0.1335939E+04  0.7818608E-02  0.9035129E-01
         -2   -1    0    0    0  501 -0.00000000000E+00  0.00000000000E+00  0.13833948479E+04  0.13833948479E+04  0.25500000000E-02 0.  1.
          2   -1    0    0  501    0  0.00000000000E+00 -0.00000000000E+00 -0.14868892216E+04  0.14868892216E+04  0.25500000000E-02 0. -1.
    8880023    1    1    2    0    0 -0.10670049637E+04  0.46089527672E+03  0.64078034034E+03  0.14816658529E+04  0.65864270000E+03 0.  0.
    8880022    1    1    2    0    0  0.10670049637E+04 -0.46089527672E+03 -0.74427471403E+03  0.13886182167E+04  0.15294330000E+03 0.  0.
<mgrwt>
<rscale>  0 0.12930071E+04</rscale>
<asrwt>0</asrwt>
<pdfrwt beam="1">  1        2 0.22875219E+00 0.13359395E+04</pdfrwt>
<pdfrwt beam="2">  1       -2 0.21282998E+00 0.13359395E+04</pdfrwt>
<totfact> 0.13560124E+00</totfact>
</mgrwt>
</event>
<event>
 4    5  0.1056408E-007  0.1039006E+04  0.7818608E-02  0.9332215E-01
         -2   -1    0    0    0  501 -0.00000000000E+00  0.00000000000E+00  0.17194871138E+04  0.17194871138E+04  0.25500000000E-02 0.  1.
          2   -1    0    0  501    0  0.00000000000E+00 -0.00000000000E+00 -0.26387444696E+04  0.26387444696E+04  0.25500000000E-02 0. -1.
    8880023    1    1    2    0    0 -0.28082791962E+03 -0.75290097256E+03  0.14885329676E+04  0.18152864228E+04  0.65864270000E+03 0.  1.
    8880022    1    1    2    0    0  0.28082791962E+03  0.75290097256E+03 -0.24077903235E+04  0.25429451606E+04  0.15294330000E+03 0.  0.
<mgrwt>
<rscale>  0 0.97870396E+03</rscale>
<asrwt>0</asrwt>
<pdfrwt beam="1">  1        2 0.40596069E+00 0.10390064E+04</pdfrwt>
<pdfrwt beam="2">  1       -2 0.26453648E+00 0.10390064E+04</pdfrwt>
<totfact> 0.15238190E-01</totfact>
</mgrwt>
</event>
<event>
 4    5  0.7289609E-008  0.6870089E+03  0.7818608E-02  0.1005608E+00
         -2   -1    0    0    0  501 -0.00000000000E+00  0.00000000000E+00  0.34926275587E+04  0.34926275587E+04  0.25500000000E-02 0.  1.
          2   -1    0    0  501    0  0.00000000000E+00 -0.00000000000E+00 -0.10584819772E+03  0.10584819775E+03  0.25500000000E-02 0. -1.
    8880023    1    1    2    0    0  0.60034147731E+02 -0.18592184169E+03  0.32360287906E+04  0.33081510803E+04  0.65864270000E+03 0.  1.
    8880022    1    1    2    0    0 -0.60034147731E+02  0.18592184169E+03  0.15075057037E+03  0.29032467617E+03  0.15294330000E+03 0.  0.
<mgrwt>
<rscale>  0 0.53258198E+03</rscale>
<asrwt>0</asrwt>
<pdfrwt beam="1">  1        2 0.16284337E-01 0.68700891E+03</pdfrwt>
<pdfrwt beam="2">  1       -2 0.53732737E+00 0.68700891E+03</pdfrwt>
<totfact> 0.38031979E-01</totfact>
</mgrwt>
</event>
<event>
 4    5  0.7289609E-008  0.7684899E+03  0.7818608E-02  0.9783604E-01
          2   -1    0    0  501    0  0.00000000000E+00  0.00000000000E+00  0.19021893675E+04  0.19021893675E+04  0.25500000000E-02 0. -1.
         -2   -1    0    0    0  501 -0.00000000000E+00 -0.00000000000E+00 -0.60168305249E+03  0.60168305249E+03  0.25500000000E-02 0.  1.
    8880023    1    1    2    0    0  0.30866448892E+03  0.24797731651E+03 -0.31722200715E+03  0.83138831138E+03  0.65864270000E+03 0.  1.
    8880022    1    1    2    0    0 -0.30866448892E+03 -0.24797731651E+03  0.16177283222E+04  0.16724841086E+04  0.15294330000E+03 0.  0.
<mgrwt>
<rscale>  0 0.66249921E+03</rscale>
<asrwt>0</asrwt>
<pdfrwt beam="1">  1        2 0.29264452E+00 0.76848990E+03</pdfrwt>
<pdfrwt beam="2">  1       -2 0.92566624E-01 0.76848990E+03</pdfrwt>
<totfact> 0.77259370E+00</totfact>
</mgrwt>
</event>
<event>
 4    5  0.1254199E-007  0.1554482E+04  0.7818608E-02  0.8872092E-01
         -2   -1    0    0    0  501 -0.00000000000E+00  0.00000000000E+00  0.44184693716E+04  0.44184693716E+04  0.25500000000E-02 0.  1.
          2   -1    0    0  501    0  0.00000000000E+00 -0.00000000000E+00 -0.38008286997E+04  0.38008286997E+04  0.25500000000E-02 0. -1.
    8880023    1    1    2    0    0  0.11899691513E+04 -0.75271340171E+03  0.41403394184E+04  0.44225360091E+04  0.65864270000E+03 0.  0.
    8880022    1    1    2    0    0 -0.11899691513E+04  0.75271340171E+03 -0.35226987464E+04  0.37967620622E+04  0.15294330000E+03 0.  0.
<mgrwt>
<rscale>  0 0.15187298E+04</rscale>
<asrwt>0</asrwt>
<pdfrwt beam="1">  1        2 0.58474288E+00 0.15544820E+04</pdfrwt>
<pdfrwt beam="2">  1       -2 0.67976452E+00 0.15544820E+04</pdfrwt>
<totfact> 0.12070714E-04</totfact>
</mgrwt>
</event>
<event>
 4    5  0.7289609E-008  0.6865561E+03  0.7818608E-02  0.1005834E+00
         -2   -1    0    0    0  501 -0.00000000000E+00  0.00000000000E+00  0.56859122012E+03  0.56859122013E+03  0.25500000000E-02 0.  1.
          2   -1    0    0  501    0  0.00000000000E+00 -0.00000000000E+00 -0.10607452249E+04  0.10607452249E+04  0.25500000000E-02 0. -1.
    8880023    1    1    2    0    0 -0.16349733073E+03 -0.10400833081E+03  0.33657662217E+03  0.76461960404E+03  0.65864270000E+03 0.  1.
    8880022    1    1    2    0    0  0.16349733073E+03  0.10400833081E+03 -0.82873062698E+03  0.86471684102E+03  0.15294330000E+03 0.  0.
<mgrwt>
<rscale>  0 0.53164352E+03</rscale>
<asrwt>0</asrwt>
<pdfrwt beam="1">  1        2 0.16319157E+00 0.68655613E+03</pdfrwt>
<pdfrwt beam="2">  1       -2 0.87475573E-01 0.68655613E+03</pdfrwt>
<totfact> 0.26625184E+01</totfact>
</mgrwt>
</event>
<event>
 4    5  0.7289609E-008  0.6628329E+03  0.7818608E-02  0.1021425E+00
          2   -1    0    0  501    0  0.00000000000E+00  0.00000000000E+00  0.18237339859E+04  0.18237339859E+04  0.25500000000E-02 0. -1.
         -2   -1    0    0    0  501 -0.00000000000E+00 -0.00000000000E+00 -0.17590212065E+03  0.17590212067E+03  0.25500000000E-02 0.  1.
    8880023    1    1    2    0    0 -0.57748267468E+02 -0.46930043339E+02  0.47727218164E+03  0.81678407979E+03  0.65864270000E+03 0.  1.
    8880022    1    1    2    0    0  0.57748267468E+02  0.46930043339E+02  0.11705596836E+04  0.11828520268E+04  0.15294330000E+03 0.  0.
<mgrwt>
<rscale>  0 0.47175839E+03</rscale>
<asrwt>0</asrwt>
<pdfrwt beam="1">  1        2 0.28057446E+00 0.66283293E+03</pdfrwt>
<pdfrwt beam="2">  1       -2 0.27061865E-01 0.66283293E+03</pdfrwt>
<totfact> 0.10718099E+02</totfact>
</mgrwt>
</event>
<event>
 4    5  0.7289609E-008  0.7091030E+03  0.7818608E-02  0.9961347E-01
         -2   -1    0    0    0  501 -0.00000000000E+00  0.00000000000E+00  0.31277233201E+03  0.31277233202E+03  0.25500000000E-02 0.  1.
          2   -1    0    0  501    0  0.00000000000E+00 -0.00000000000E+00 -0.24474641744E+04  0.24474641744E+04  0.25500000000E-02 0. -1.
    8880023    1    1    2    0    0 -0.26259852862E+03  0.76695128659E+01 -0.11569020073E+03  0.71847841823E+03  0.65864270000E+03 0.  1.
    8880022    1    1    2    0    0  0.26259852862E+03 -0.76695128659E+01 -0.20190016417E+04  0.20417580882E+04  0.15294330000E+03 0.  0.
<mgrwt>
<rscale>  0 0.57378071E+03</rscale>
<asrwt>0</asrwt>
<pdfrwt beam="1">  1        2 0.37653294E+00 0.70910296E+03</pdfrwt>
<pdfrwt beam="2">  1       -2 0.48118822E-01 0.70910296E+03</pdfrwt>
<totfact> 0.16074552E+01</totfact>
</mgrwt>
</event>
<event>
 4    5  0.7289609E-008  0.1144359E+04  0.7818608E-02  0.9213204E-01
         -2   -1    0    0    0  501 -0.00000000000E+00  0.00000000000E+00  0.59917855551E+03  0.59917855551E+03  0.25500000000E-02 0.  1.
          2   -1    0    0  501    0  0.00000000000E+00 -0.00000000000E+00 -0.25329414863E+04  0.25329414863E+04  0.25500000000E-02 0. -1.
    8880023    1    1    2    0    0 -0.55607454672E+03 -0.75268088116E+03 -0.20814223261E+03  0.11631340446E+04  0.65864270000E+03 0.  0.
    8880022    1    1    2    0    0  0.55607454672E+03  0.75268088116E+03 -0.17256206982E+04  0.19689859973E+04  0.15294330000E+03 0.  0.
<mgrwt>
<rscale>  0 0.10918176E+04</rscale>
<asrwt>0</asrwt>
<pdfrwt beam="1">  1        2 0.38968330E+00 0.11443590E+04</pdfrwt>
<pdfrwt beam="2">  1       -2 0.92181317E-01 0.11443590E+04</pdfrwt>
<totfact> 0.33013669E+00</totfact>
</mgrwt>
</event>
<event>
 4    5  0.7289609E-008  0.7835455E+03  0.7818608E-02  0.9747573E-01
         -2   -1    0    0    0  501 -0.00000000000E+00  0.00000000000E+00  0.11865581935E+04  0.11865581935E+04  0.25500000000E-02 0.  1.
          2   -1    0    0  501    0  0.00000000000E+00 -0.00000000000E+00 -0.70694715617E+03  0.70694715617E+03  0.25500000000E-02 0. -1.
    8880023    1    1    2    0    0  0.29027452432E+03  0.30963542579E+03  0.95688522935E+03  0.12367590488E+04  0.65864270000E+03 0.  1.
    8880022    1    1    2    0    0 -0.29027452432E+03 -0.30963542579E+03 -0.47727419200E+03  0.65674630090E+03  0.15294330000E+03 0.  0.
<mgrwt>
<rscale>  0 0.68253576E+03</rscale>
<asrwt>0</asrwt>
<pdfrwt beam="1">  1        2 0.10876110E+00 0.78354553E+03</pdfrwt>
<pdfrwt beam="2">  1       -2 0.18254741E+00 0.78354553E+03</pdfrwt>
<totfact> 0.71490087E+00</totfact>
</mgrwt>
</event>
<event>
 4    5  0.7289609E-008  0.9618628E+03  0.7818608E-02  0.9433248E-01
          2   -1    0    0  501    0  0.00000000000E+00  0.00000000000E+00  0.12880822221E+04  0.12880822221E+04  0.25500000000E-02 0. -1.
         -2   -1    0    0    0  501 -0.00000000000E+00 -0.00000000000E+00 -0.30198528580E+04  0.30198528580E+04  0.25500000000E-02 0.  1.
    8880023    1    1    2    0    0 -0.13405980255E+03  0.68803904707E+03 -0.28339915260E+04  0.29927726170E+04  0.65864270000E+03 0.  1.
    8880022    1    1    2    0    0  0.13405980255E+03 -0.68803904707E+03  0.11022208901E+04  0.13151624631E+04  0.15294330000E+03 0.  0.
<mgrwt>
<rscale>  0 0.89389309E+03</rscale>
<asrwt>0</asrwt>
<pdfrwt beam="1">  1        2 0.19816650E+00 0.96186276E+03</pdfrwt>
<pdfrwt beam="2">  1       -2 0.46459275E+00 0.96186276E+03</pdfrwt>
<totfact> 0.47860930E-02</totfact>
</mgrwt>
</event>
<event>
 4    5  0.7289609E-008  0.8864470E+03  0.7818608E-02  0.9548148E-01
         -2   -1    0    0    0  501 -0.00000000000E+00  0.00000000000E+00  0.60930102811E+03  0.60930102812E+03  0.25500000000E-02 0.  1.
          2   -1    0    0  501    0  0.00000000000E+00 -0.00000000000E+00 -0.17121139261E+04  0.17121139261E+04  0.25500000000E-02 0. -1.
    8880023    1    1    2    0    0  0.45084321200E+03 -0.38564026266E+03  0.17569172996E+03  0.90369010409E+03  0.65864270000E+03 0.  1.
    8880022    1    1    2    0    0 -0.45084321200E+03  0.38564026266E+03 -0.12785046280E+04  0.14177248502E+04  0.15294330000E+03 0.  0.
<mgrwt>
<rscale>  0 0.80825233E+03</rscale>
<asrwt>0</asrwt>
<pdfrwt beam="1">  1        2 0.26340214E+00 0.88644696E+03</pdfrwt>
<pdfrwt beam="2">  1       -2 0.93738621E-01 0.88644696E+03</pdfrwt>
<totfact> 0.93831370E+00</totfact>
</mgrwt>
</event>
<event>
 4    5  0.7289609E-008  0.1158203E+04  0.7818608E-02  0.9198863E-01
          2   -1    0    0  501    0  0.00000000000E+00  0.00000000000E+00  0.24293326926E+04  0.24293326926E+04  0.25500000000E-02 0. -1.
         -2   -1    0    0    0  501 -0.00000000000E+00 -0.00000000000E+00 -0.71870901694E+03  0.71870901695E+03  0.25500000000E-02 0.  1.
    8880023    1    1    2    0    0  0.60393229705E+03  0.73680993704E+03 -0.29198302251E+02  0.11585706063E+04  0.65864270000E+03 0.  0.
    8880022    1    1    2    0    0 -0.60393229705E+03 -0.73680993704E+03  0.17398219779E+04  0.19894711032E+04  0.15294330000E+03 0.  0.
<mgrwt>
<rscale>  0 0.11065167E+04</rscale>
<asrwt>0</asrwt>
<pdfrwt beam="1">  1        2 0.37374350E+00 0.11582026E+04</pdfrwt>
<pdfrwt beam="2">  1       -2 0.11057062E+00 0.11582026E+04</pdfrwt>
<totfact> 0.24465665E+00</totfact>
</mgrwt>
</event>
<event>
 4    5  0.7289609E-008  0.1478150E+04  0.7818608E-02  0.8925221E-01
         -2   -1    0    0    0  501 -0.00000000000E+00  0.00000000000E+00  0.14715700712E+04  0.14715700712E+04  0.25500000000E-02 0.  1.
          2   -1    0    0  501    0  0.00000000000E+00 -0.00000000000E+00 -0.27420034381E+04  0.27420034381E+04  0.25500000000E-02 0. -1.
    8880023    1    1    2    0    0  0.61701807032E+03  0.11706430489E+04 -0.21559401037E+04  0.26140016037E+04  0.65864270000E+03 0.  0.
    8880022    1    1    2    0    0 -0.61701807032E+03 -0.11706430489E+04  0.88550673684E+03  0.15995719056E+04  0.15294330000E+03 0.  0.
<mgrwt>
<rscale>  0 0.14402025E+04</rscale>
<asrwt>0</asrwt>
<pdfrwt beam="1">  1        2 0.42184668E+00 0.14781497E+04</pdfrwt>
<pdfrwt beam="2">  1       -2 0.22639539E+00 0.14781497E+04</pdfrwt>
<totfact> 0.21263629E-01</totfact>
</mgrwt>
</event>
<event>
 4    5  0.7289609E-008  0.1565158E+04  0.7818608E-02  0.8864945E-01
          2   -1    0    0  501    0  0.00000000000E+00  0.00000000000E+00  0.32749327730E+04  0.32749327730E+04  0.25500000000E-02 0. -1.
         -2   -1    0    0    0  501 -0.00000000000E+00 -0.00000000000E+00 -0.89842400180E+03  0.89842400181E+03  0.25500000000E-02 0.  1.
    8880023    1    1    2    0    0 -0.14195072595E+04 -0.30147976412E+02  0.22484701095E+04  0.27395871587E+04  0.65864270000E+03 0.  0.
    8880022    1    1    2    0    0  0.14195072595E+04  0.30147976412E+02  0.12803866166E+03  0.14337696161E+04  0.15294330000E+03 0.  0.
<mgrwt>
<rscale>  0 0.15296915E+04</rscale>
<asrwt>0</asrwt>
<pdfrwt beam="1">  1        2 0.50383581E+00 0.15651581E+04</pdfrwt>
<pdfrwt beam="2">  1       -2 0.13821908E+00 0.15651581E+04</pdfrwt>
<totfact> 0.40614833E-01</totfact>
</mgrwt>
</event>
<event>
 4    5  0.7289609E-008  0.1127931E+04  0.7818608E-02  0.9230578E-01
          2   -1    0    0  501    0  0.00000000000E+00  0.00000000000E+00  0.33983562894E+04  0.33983562894E+04  0.25500000000E-02 0. -1.
         -2   -1    0    0    0  501 -0.00000000000E+00 -0.00000000000E+00 -0.57119282273E+03  0.57119282273E+03  0.25500000000E-02 0.  1.
    8880023    1    1    2    0    0  0.86968177059E+03 -0.28648093156E+03  0.15229498640E+03  0.11381659261E+04  0.65864270000E+03 0.  0.
    8880022    1    1    2    0    0 -0.86968177059E+03  0.28648093156E+03  0.26748684802E+04  0.28313831860E+04  0.15294330000E+03 0.  0.
<mgrwt>
<rscale>  0 0.10743313E+04</rscale>
<asrwt>0</asrwt>
<pdfrwt beam="1">  1        2 0.52282404E+00 0.11279308E+04</pdfrwt>
<pdfrwt beam="2">  1       -2 0.87875819E-01 0.11279308E+04</pdfrwt>
<totfact> 0.10785670E+00</totfact>
</mgrwt>
</event>
<event>
 4    5  0.7289609E-008  0.6768434E+03  0.7818608E-02  0.1011169E+00
         -2   -1    0    0    0  501 -0.00000000000E+00  0.00000000000E+00  0.47780388880E+03  0.47780388880E+03  0.25500000000E-02 0.  1.
          2   -1    0    0  501    0  0.00000000000E+00 -0.00000000000E+00 -0.98801740690E+03  0.98801740691E+03  0.25500000000E-02 0. -1.
    8880023    1    1    2    0    0  0.84000562263E+02 -0.13134178429E+03  0.21362245466E+03  0.70975454783E+03  0.65864270000E+03 0.  0.
    8880022    1    1    2    0    0 -0.84000562263E+02  0.13134178429E+03 -0.72383597277E+03  0.75606674788E+03  0.15294330000E+03 0. -1.
<mgrwt>
<rscale>  0 0.51012796E+03</rscale>
<asrwt>0</asrwt>
<pdfrwt beam="1">  1        2 0.15200268E+00 0.67684338E+03</pdfrwt>
<pdfrwt beam="2">  1       -2 0.73508291E-01 0.67684338E+03</pdfrwt>
<totfact> 0.43772475E+01</totfact>
</mgrwt>
</event>
<event>
 4    5  0.7289609E-008  0.6767847E+03  0.7818608E-02  0.1011204E+00
         -2   -1    0    0    0  501 -0.00000000000E+00  0.00000000000E+00  0.31448994160E+03  0.31448994161E+03  0.25500000000E-02 0.  1.
          2   -1    0    0  501    0  0.00000000000E+00 -0.00000000000E+00 -0.13520527830E+04  0.13520527830E+04  0.25500000000E-02 0. -1.
    8880023    1    1    2    0    0 -0.40386188024E+02  0.15032081301E+03 -0.76589861434E+02  0.68110469397E+03  0.65864270000E+03 0.  0.
    8880022    1    1    2    0    0  0.40386188024E+02 -0.15032081301E+03 -0.96097297996E+03  0.98543803064E+03  0.15294330000E+03 0.  0.
<mgrwt>
<rscale>  0 0.50998865E+03</rscale>
<asrwt>0</asrwt>
<pdfrwt beam="1">  1        2 0.20800812E+00 0.67678475E+03</pdfrwt>
<pdfrwt beam="2">  1       -2 0.48383069E-01 0.67678475E+03</pdfrwt>
<totfact> 0.64030401E+01</totfact>
</mgrwt>
</event>
<event>
 4    5  0.7289609E-008  0.1312547E+04  0.7818608E-02  0.9054800E-01
          2   -1    0    0  501    0  0.00000000000E+00  0.00000000000E+00  0.12440948635E+04  0.12440948635E+04  0.25500000000E-02 0. -1.
         -2   -1    0    0    0  501 -0.00000000000E+00 -0.00000000000E+00 -0.22403133879E+04  0.22403133879E+04  0.25500000000E-02 0.  1.
    8880023    1    1    2    0    0  0.10421890242E+04 -0.45034698630E+03 -0.16940385009E+04  0.21430228695E+04  0.65864270000E+03 0.  0.
    8880022    1    1    2    0    0 -0.10421890242E+04  0.45034698630E+03  0.69781997649E+03  0.13413853819E+04  0.15294330000E+03 0.  0.
<mgrwt>
<rscale>  0 0.12686533E+04</rscale>
<asrwt>0</asrwt>
<pdfrwt beam="1">  1        2 0.19139921E+00 0.13125474E+04</pdfrwt>
<pdfrwt beam="2">  1       -2 0.34466360E+00 0.13125474E+04</pdfrwt>
<totfact> 0.28954392E-01</totfact>
</mgrwt>
</event>
<event>
 4    5  0.7289609E-008  0.8260338E+03  0.7818608E-02  0.9657099E-01
         -2   -1    0    0    0  501 -0.00000000000E+00  0.00000000000E+00  0.12332539755E+04  0.12332539755E+04  0.25500000000E-02 0.  1.
          2   -1    0    0  501    0  0.00000000000E+00 -0.00000000000E+00 -0.71110952964E+03  0.71110952965E+03  0.25500000000E-02 0. -1.
    8880023    1    1    2    0    0 -0.49537260355E+03 -0.55924596828E+02  0.95785314868E+03  0.12648377120E+04  0.65864270000E+03 0.  1.
    8880022    1    1    2    0    0  0.49537260355E+03  0.55924596828E+02 -0.43570870282E+03  0.67952579319E+03  0.15294330000E+03 0.  0.
<mgrwt>
<rscale>  0 0.73629549E+03</rscale>
<asrwt>0</asrwt>
<pdfrwt beam="1">  1        2 0.10940147E+00 0.82603377E+03</pdfrwt>
<pdfrwt beam="2">  1       -2 0.18973138E+00 0.82603377E+03</pdfrwt>
<totfact> 0.63164816E+00</totfact>
</mgrwt>
</event>
<event>
 4    5  0.7289609E-008  0.1273045E+04  0.7818608E-02  0.9089193E-01
          2   -1    0    0  501    0  0.00000000000E+00  0.00000000000E+00  0.17230306723E+04  0.17230306723E+04  0.25500000000E-02 0. -1.
         -2   -1    0    0    0  501 -0.00000000000E+00 -0.00000000000E+00 -0.36306821629E+04  0.36306821629E+04  0.25500000000E-02 0.  1.
    8880023    1    1    2    0    0  0.25269347695E+03  0.10597076917E+04 -0.33245081037E+04  0.35599155500E+04  0.65864270000E+03 0.  0.
    8880022    1    1    2    0    0 -0.25269347695E+03 -0.10597076917E+04  0.14168566131E+04  0.17937972852E+04  0.15294330000E+03 0.  0.
<mgrwt>
<rscale>  0 0.12274144E+04</rscale>
<asrwt>0</asrwt>
<pdfrwt beam="1">  1        2 0.26508164E+00 0.12730454E+04</pdfrwt>
<pdfrwt beam="2">  1       -2 0.55856649E+00 0.12730454E+04</pdfrwt>
<totfact> 0.69655461E-03</totfact>
</mgrwt>
</event>
<event>
 4    5  0.7289609E-008  0.1091391E+04  0.7818608E-02  0.9270703E-01
          2   -1    0    0  501    0  0.00000000000E+00  0.00000000000E+00  0.12366498966E+04  0.12366498966E+04  0.25500000000E-02 0. -1.
         -2   -1    0    0    0  501 -0.00000000000E+00 -0.00000000000E+00 -0.16017274312E+04  0.16017274312E+04  0.25500000000E-02 0.  1.
    8880023    1    1    2    0    0  0.33887677304E+03 -0.80155215120E+03 -0.12004542578E+04  0.16224130022E+04  0.65864270000E+03 0.  1.
    8880022    1    1    2    0    0 -0.33887677304E+03  0.80155215120E+03  0.83537672324E+03  0.12159643256E+04  0.15294330000E+03 0.  0.
<mgrwt>
<rscale>  0 0.10352536E+04</rscale>
<asrwt>0</asrwt>
<pdfrwt beam="1">  1        2 0.19025383E+00 0.10913906E+04</pdfrwt>
<pdfrwt beam="2">  1       -2 0.24641961E+00 0.10913906E+04</pdfrwt>
<totfact> 0.11993168E+00</totfact>
</mgrwt>
</event>
<event>
 4    5  0.7289609E-008  0.9111791E+03  0.7818608E-02  0.9508319E-01
         -2   -1    0    0    0  501 -0.00000000000E+00  0.00000000000E+00  0.95935017909E+03  0.95935017910E+03  0.25500000000E-02 0.  1.
          2   -1    0    0  501    0  0.00000000000E+00 -0.00000000000E+00 -0.87792695889E+03  0.87792695889E+03  0.25500000000E-02 0. -1.
    8880023    1    1    2    0    0 -0.42033566314E+03 -0.46878034616E+03  0.52541395384E+03  0.10518113480E+04  0.65864270000E+03 0.  0.
    8880022    1    1    2    0    0  0.42033566314E+03  0.46878034616E+03 -0.44399073363E+03  0.78546578997E+03  0.15294330000E+03 0.  0.
<mgrwt>
<rscale>  0 0.83673285E+03</rscale>
<asrwt>0</asrwt>
<pdfrwt beam="1">  1        2 0.13506569E+00 0.91117907E+03</pdfrwt>
<pdfrwt beam="2">  1       -2 0.14759234E+00 0.91117907E+03</pdfrwt>
<totfact> 0.94906238E+00</totfact>
</mgrwt>
</event>
<event>
 4    5  0.7289609E-008  0.6809178E+03  0.7818608E-02  0.1008809E+00
          2   -1    0    0  501    0  0.00000000000E+00  0.00000000000E+00  0.13355232635E+04  0.13355232635E+04  0.25500000000E-02 0. -1.
         -2   -1    0    0    0  501 -0.00000000000E+00 -0.00000000000E+00 -0.17453986069E+03  0.17453986071E+03  0.25500000000E-02 0.  1.
    8880023    1    1    2    0    0  0.11811767498E+03  0.12604402050E+03  0.61581220728E+03  0.91808156563E+03  0.65864270000E+03 0.  1.
    8880022    1    1    2    0    0 -0.11811767498E+03 -0.12604402050E+03  0.54517119550E+03  0.59198155855E+03  0.15294330000E+03 0.  0.
<mgrwt>
<rscale>  0 0.51950667E+03</rscale>
<asrwt>0</asrwt>
<pdfrwt beam="1">  1        2 0.20546512E+00 0.68091783E+03</pdfrwt>
<pdfrwt beam="2">  1       -2 0.26852287E-01 0.68091783E+03</pdfrwt>
<totfact> 0.20189403E+02</totfact>
</mgrwt>
</event>
<event>
 4    5  0.7289609E-008  0.6781548E+03  0.7818608E-02  0.1010387E+00
         -2   -1    0    0    0  501 -0.00000000000E+00  0.00000000000E+00  0.39897175311E+03  0.39897175312E+03  0.25500000000E-02 0.  1.
          2   -1    0    0  501    0  0.00000000000E+00 -0.00000000000E+00 -0.18826547136E+04  0.18826547136E+04  0.25500000000E-02 0. -1.
    8880023    1    1    2    0    0  0.30700992525E+02 -0.15855973802E+03  0.97276777747E+02  0.68509613867E+03  0.65864270000E+03 0.  1.
    8880022    1    1    2    0    0 -0.30700992525E+02  0.15855973802E+03 -0.15809597382E+04  0.15965303280E+04  0.15294330000E+03 0.  0.
<mgrwt>
<rscale>  0 0.51321022E+03</rscale>
<asrwt>0</asrwt>
<pdfrwt beam="1">  1        2 0.28963918E+00 0.67815481E+03</pdfrwt>
<pdfrwt beam="2">  1       -2 0.61380271E-01 0.67815481E+03</pdfrwt>
<totfact> 0.19967115E+01</totfact>
</mgrwt>
</event>
<event>
 4    5  0.7289609E-008  0.1114162E+04  0.7818608E-02  0.9245450E-01
         -2   -1    0    0    0  501 -0.00000000000E+00  0.00000000000E+00  0.11049356165E+04  0.11049356166E+04  0.25500000000E-02 0.  1.
          2   -1    0    0  501    0  0.00000000000E+00 -0.00000000000E+00 -0.10808275054E+04  0.10808275054E+04  0.25500000000E-02 0. -1.
    8880023    1    1    2    0    0 -0.24059713030E+02 -0.89831364918E+03  0.42166437648E+03  0.11912839018E+04  0.65864270000E+03 0.  0.
    8880022    1    1    2    0    0  0.24059713030E+02  0.89831364918E+03 -0.39755626528E+03  0.99447922009E+03  0.15294330000E+03 0.  0.
<mgrwt>
<rscale>  0 0.10596374E+04</rscale>
<asrwt>0</asrwt>
<pdfrwt beam="1">  1        2 0.16628115E+00 0.11141618E+04</pdfrwt>
<pdfrwt beam="2">  1       -2 0.16999010E+00 0.11141618E+04</pdfrwt>
<totfact> 0.46780373E+00</totfact>
</mgrwt>
</event>
<event>
 4    5  0.7289609E-008  0.9360053E+03  0.7818608E-02  0.9470542E-01
          2   -1    0    0  501    0  0.00000000000E+00  0.00000000000E+00  0.13486880197E+04  0.13486880197E+04  0.25500000000E-02 0. -1.
         -2   -1    0    0    0  501 -0.00000000000E+00 -0.00000000000E+00 -0.95299336773E+03  0.95299336774E+03  0.25500000000E-02 0.  1.
    8880023    1    1    2    0    0 -0.36478288830E+03 -0.55608369953E+03 -0.58732416804E+03  0.11050138104E+04  0.65864270000E+03 0.  0.
    8880022    1    1    2    0    0  0.36478288830E+03  0.55608369953E+03  0.98301881998E+03  0.11966675770E+04  0.15294330000E+03 0.  0.
<mgrwt>
<rscale>  0 0.86490920E+03</rscale>
<asrwt>0</asrwt>
<pdfrwt beam="1">  1        2 0.20749046E+00 0.93600526E+03</pdfrwt>
<pdfrwt beam="2">  1       -2 0.14661437E+00 0.93600526E+03</pdfrwt>
<totfact> 0.49252193E+00</totfact>
</mgrwt>
</event>
<event>
 4    5  0.7289609E-008  0.8037799E+03  0.7818608E-02  0.9702682E-01
         -2   -1    0    0    0  501 -0.00000000000E+00  0.00000000000E+00  0.11553573865E+04  0.11553573865E+04  0.25500000000E-02 0.  1.
          2   -1    0    0  501    0  0.00000000000E+00 -0.00000000000E+00 -0.96242737035E+03  0.96242737036E+03  0.25500000000E-02 0. -1.
    8880023    1    1    2    0    0  0.29441540599E+03  0.35436057071E+03  0.93377319247E+03  0.12320691647E+04  0.65864270000E+03 0.  1.
    8880022    1    1    2    0    0 -0.29441540599E+03 -0.35436057071E+03 -0.74084317630E+03  0.88571559219E+03  0.15294330000E+03 0.  0.
<mgrwt>
<rscale>  0 0.70857328E+03</rscale>
<asrwt>0</asrwt>
<pdfrwt beam="1">  1        2 0.14806575E+00 0.80377985E+03</pdfrwt>
<pdfrwt beam="2">  1       -2 0.17774729E+00 0.80377985E+03</pdfrwt>
<totfact> 0.50759220E+00</totfact>
</mgrwt>
</event>
<event>
 4    5  0.7289609E-008  0.1276332E+04  0.7818608E-02  0.9086273E-01
         -2   -1    0    0    0  501 -0.00000000000E+00  0.00000000000E+00  0.72369152578E+03  0.72369152579E+03  0.25500000000E-02 0.  1.
          2   -1    0    0  501    0  0.00000000000E+00 -0.00000000000E+00 -0.29584597577E+04  0.29584597578E+04  0.25500000000E-02 0. -1.
    8880023    1    1    2    0    0 -0.62638747676E+03  0.89601996632E+03 -0.10171718034E+03  0.12803787104E+04  0.65864270000E+03 0.  0.
    8880022    1    1    2    0    0  0.62638747676E+03 -0.89601996632E+03 -0.21330510516E+04  0.24017725731E+04  0.15294330000E+03 0.  0.
<mgrwt>
<rscale>  0 0.12308513E+04</rscale>
<asrwt>0</asrwt>
<pdfrwt beam="1">  1        2 0.45514765E+00 0.12763320E+04</pdfrwt>
<pdfrwt beam="2">  1       -2 0.11133716E+00 0.12763320E+04</pdfrwt>
<totfact> 0.11541011E+00</totfact>
</mgrwt>
</event>
<event>
 4    5  0.7289609E-008  0.1180545E+04  0.7818608E-02  0.9176270E-01
         -2   -1    0    0    0  501 -0.00000000000E+00  0.00000000000E+00  0.85066530065E+03  0.85066530065E+03  0.25500000000E-02 0.  1.
          2   -1    0    0  501    0  0.00000000000E+00 -0.00000000000E+00 -0.15013052318E+04  0.15013052318E+04  0.25500000000E-02 0. -1.
    8880023    1    1    2    0    0 -0.96351246305E+03  0.17753715531E+03 -0.27569304058E+02  0.11808666228E+04  0.65864270000E+03 0.  0.
    8880022    1    1    2    0    0  0.96351246305E+03 -0.17753715531E+03 -0.62307062713E+03  0.11711039097E+04  0.15294330000E+03 0.  0.
<mgrwt>
<rscale>  0 0.11301753E+04</rscale>
<asrwt>0</asrwt>
<pdfrwt beam="1">  1        2 0.23097004E+00 0.11805448E+04</pdfrwt>
<pdfrwt beam="2">  1       -2 0.13087158E+00 0.11805448E+04</pdfrwt>
<totfact> 0.52787142E+00</totfact>
</mgrwt>
</event>
<event>
 4    5  0.7289609E-008  0.9239932E+03  0.7818608E-02  0.9488563E-01
         -2   -1    0    0    0  501 -0.00000000000E+00  0.00000000000E+00  0.50224910021E+03  0.50224910022E+03  0.25500000000E-02 0.  1.
          2   -1    0    0  501    0  0.00000000000E+00 -0.00000000000E+00 -0.30554007311E+04  0.30554007311E+04  0.25500000000E-02 0. -1.
    8880023    1    1    2    0    0 -0.55686707705E+03  0.33143960996E+03 -0.50681488100E+01  0.92400706109E+03  0.65864270000E+03 0.  0.
    8880022    1    1    2    0    0  0.55686707705E+03 -0.33143960996E+03 -0.25480834821E+04  0.26336427703E+04  0.15294330000E+03 0.  0.
<mgrwt>
<rscale>  0 0.85132281E+03</rscale>
<asrwt>0</asrwt>
<pdfrwt beam="1">  1        2 0.47006164E+00 0.92399316E+03</pdfrwt>
<pdfrwt beam="2">  1       -2 0.77269094E-01 0.92399316E+03</pdfrwt>
<totfact> 0.24854950E+00</totfact>
</mgrwt>
</event>
<event>
 4    5  0.7289609E-008  0.1033072E+04  0.7818608E-02  0.9339514E-01
         -2   -1    0    0    0  501 -0.00000000000E+00  0.00000000000E+00  0.12513633190E+04  0.12513633190E+04  0.25500000000E-02 0.  1.
          2   -1    0    0  501    0  0.00000000000E+00 -0.00000000000E+00 -0.28065627624E+04  0.28065627624E+04  0.25500000000E-02 0. -1.
    8880023    1    1    2    0    0  0.71503779207E+03  0.34949709796E+03  0.96313437058E+03  0.14123970007E+04  0.65864270000E+03 0.  0.
    8880022    1    1    2    0    0 -0.71503779207E+03 -0.34949709796E+03 -0.25183338140E+04  0.26455290808E+04  0.15294330000E+03 0.  0.
<mgrwt>
<rscale>  0 0.97225146E+03</rscale>
<asrwt>0</asrwt>
<pdfrwt beam="1">  1        2 0.43177889E+00 0.10330719E+04</pdfrwt>
<pdfrwt beam="2">  1       -2 0.19251743E+00 0.10330719E+04</pdfrwt>
<totfact> 0.34390394E-01</totfact>
</mgrwt>
</event>
<event>
 4    5  0.7289609E-008  0.9726191E+03  0.7818608E-02  0.9418291E-01
         -2   -1    0    0    0  501 -0.00000000000E+00  0.00000000000E+00  0.25288654132E+03  0.25288654134E+03  0.25500000000E-02 0.  1.
          2   -1    0    0  501    0  0.00000000000E+00 -0.00000000000E+00 -0.45589695459E+04  0.45589695459E+04  0.25500000000E-02 0. -1.
    8880023    1    1    2    0    0  0.51421316331E+03  0.49775743252E+03 -0.89033884883E+03  0.13185943694E+04  0.65864270000E+03 0.  0.
    8880022    1    1    2    0    0 -0.51421316331E+03 -0.49775743252E+03 -0.34157441558E+04  0.34932617179E+04  0.15294330000E+03 0.  0.
<mgrwt>
<rscale>  0 0.90585574E+03</rscale>
<asrwt>0</asrwt>
<pdfrwt beam="1">  1        2 0.70137987E+00 0.97261906E+03</pdfrwt>
<pdfrwt beam="2">  1       -2 0.38905625E-01 0.97261906E+03</pdfrwt>
<totfact> 0.72888687E-01</totfact>
</mgrwt>
</event>
<event>
 4    5  0.7289609E-008  0.1209719E+04  0.7818608E-02  0.9147732E-01
         -2   -1    0    0    0  501 -0.00000000000E+00  0.00000000000E+00  0.52965700407E+03  0.52965700408E+03  0.25500000000E-02 0.  1.
          2   -1    0    0  501    0  0.00000000000E+00 -0.00000000000E+00 -0.37586454701E+04  0.37586454701E+04  0.25500000000E-02 0. -1.
    8880023    1    1    2    0    0 -0.73724947188E+03 -0.69718961327E+03 -0.39233855854E+03  0.12717507191E+04  0.65864270000E+03 0.  0.
    8880022    1    1    2    0    0  0.73724947188E+03  0.69718961327E+03 -0.28366499075E+04  0.30165517552E+04  0.15294330000E+03 0.  0.
<mgrwt>
<rscale>  0 0.11609594E+04</rscale>
<asrwt>0</asrwt>
<pdfrwt beam="1">  1        2 0.57825313E+00 0.12097191E+04</pdfrwt>
<pdfrwt beam="2">  1       -2 0.81485695E-01 0.12097191E+04</pdfrwt>
<totfact> 0.70560058E-01</totfact>
</mgrwt>
</event>
<event>
 4    5  0.7289609E-008  0.1004839E+04  0.7818608E-02  0.9375254E-01
          2   -1    0    0  501    0  0.00000000000E+00  0.00000000000E+00  0.20190350134E+04  0.20190350134E+04  0.25500000000E-02 0. -1.
         -2   -1    0    0    0  501 -0.00000000000E+00 -0.00000000000E+00 -0.60722933769E+03  0.60722933770E+03  0.25500000000E-02 0.  1.
    8880023    1    1    2    0    0 -0.58139427341E+03  0.48772122746E+03 -0.12790101911E+02  0.10049204396E+04  0.65864270000E+03 0.  0.
    8880022    1    1    2    0    0  0.58139427341E+03 -0.48772122746E+03  0.14245957776E+04  0.16213439116E+04  0.15294330000E+03 0.  0.
<mgrwt>
<rscale>  0 0.94140471E+03</rscale>
<asrwt>0</asrwt>
<pdfrwt beam="1">  1        2 0.31062077E+00 0.10048390E+04</pdfrwt>
<pdfrwt beam="2">  1       -2 0.93419898E-01 0.10048390E+04</pdfrwt>
<totfact> 0.63240193E+00</totfact>
</mgrwt>
</event>
<event>
 4    5  0.7289609E-008  0.9178397E+03  0.7818608E-02  0.9497979E-01
          2   -1    0    0  501    0  0.00000000000E+00  0.00000000000E+00  0.13999914194E+04  0.13999914194E+04  0.25500000000E-02 0. -1.
         -2   -1    0    0    0  501 -0.00000000000E+00 -0.00000000000E+00 -0.74563588617E+03  0.74563588617E+03  0.25500000000E-02 0.  1.
    8880023    1    1    2    0    0 -0.60910639958E+03 -0.19393022968E+03 -0.31851607133E+03  0.97153601783E+03  0.65864270000E+03 0.  0.
    8880022    1    1    2    0    0  0.60910639958E+03  0.19393022968E+03  0.97287160459E+03  0.11740912878E+04  0.15294330000E+03 0.  0.
<mgrwt>
<rscale>  0 0.84432959E+03</rscale>
<asrwt>0</asrwt>
<pdfrwt beam="1">  1        2 0.21538329E+00 0.91783972E+03</pdfrwt>
<pdfrwt beam="2">  1       -2 0.11471321E+00 0.91783972E+03</pdfrwt>
<totfact> 0.86054172E+00</totfact>
</mgrwt>
</event>
<event>
 4    5  0.7289609E-008  0.1093291E+04  0.7818608E-02  0.9268563E-01
         -2   -1    0    0    0  501 -0.00000000000E+00  0.00000000000E+00  0.90316411055E+03  0.90316411055E+03  0.25500000000E-02 0.  1.
          2   -1    0    0  501    0  0.00000000000E+00 -0.00000000000E+00 -0.24744342745E+04  0.24744342745E+04  0.25500000000E-02 0. -1.
    8880023    1    1    2    0    0 -0.36092819351E+03 -0.79448428401E+03  0.44104428421E+03  0.11788997859E+04  0.65864270000E+03 0.  0.
    8880022    1    1    2    0    0  0.36092819351E+03  0.79448428401E+03 -0.20123144481E+04  0.21986985991E+04  0.15294330000E+03 0.  0.
<mgrwt>
<rscale>  0 0.10372924E+04</rscale>
<asrwt>0</asrwt>
<pdfrwt beam="1">  1        2 0.38068220E+00 0.10932907E+04</pdfrwt>
<pdfrwt beam="2">  1       -2 0.13894832E+00 0.10932907E+04</pdfrwt>
<totfact> 0.13089389E+00</totfact>
</mgrwt>
</event>
<event>
 4    5  0.7289609E-008  0.1093102E+04  0.7818608E-02  0.9268775E-01
         -2   -1    0    0    0  501 -0.00000000000E+00  0.00000000000E+00  0.44239065019E+03  0.44239065019E+03  0.25500000000E-02 0.  1.
          2   -1    0    0  501    0  0.00000000000E+00 -0.00000000000E+00 -0.24636590469E+04  0.24636590469E+04  0.25500000000E-02 0. -1.
    8880023    1    1    2    0    0  0.71553869135E+02 -0.86944894267E+03 -0.64438247324E+03  0.12688973159E+04  0.65864270000E+03 0.  0.
    8880022    1    1    2    0    0 -0.71553869135E+02  0.86944894267E+03 -0.13768859234E+04  0.16371523812E+04  0.15294330000E+03 0.  0.
<mgrwt>
<rscale>  0 0.10370897E+04</rscale>
<asrwt>0</asrwt>
<pdfrwt beam="1">  1        2 0.37902446E+00 0.10931018E+04</pdfrwt>
<pdfrwt beam="2">  1       -2 0.68060101E-01 0.10931018E+04</pdfrwt>
<totfact> 0.72162984E+00</totfact>
</mgrwt>
</event>
<event>
 4    5  0.7289609E-008  0.8421018E+03  0.7818608E-02  0.9626230E-01
         -2   -1    0    0    0  501 -0.00000000000E+00  0.00000000000E+00  0.61292595667E+03  0.61292595668E+03  0.25500000000E-02 0.  1.
          2   -1    0    0  501    0  0.00000000000E+00 -0.00000000000E+00 -0.23738573683E+04  0.23738573683E+04  0.25500000000E-02 0. -1.
    8880023    1    1    2    0    0 -0.30093969877E+03 -0.42983773261E+03  0.26942376705E+03  0.88415188242E+03  0.65864270000E+03 0.  1.
    8880022    1    1    2    0    0  0.30093969877E+03  0.42983773261E+03 -0.20303551787E+04  0.21026314426E+04  0.15294330000E+03 0.  0.
<mgrwt>
<rscale>  0 0.75584178E+03</rscale>
<asrwt>0</asrwt>
<pdfrwt beam="1">  1        2 0.36520882E+00 0.84210177E+03</pdfrwt>
<pdfrwt beam="2">  1       -2 0.94296303E-01 0.84210177E+03</pdfrwt>
<totfact> 0.40198417E+00</totfact>
</mgrwt>
</event>
<event>
 4    5  0.7289609E-008  0.1519860E+04  0.7818608E-02  0.8895738E-01
          2   -1    0    0  501    0  0.00000000000E+00  0.00000000000E+00  0.38754005632E+04  0.38754005632E+04  0.25500000000E-02 0. -1.
         -2   -1    0    0    0  501 -0.00000000000E+00 -0.00000000000E+00 -0.18010256170E+04  0.18010256170E+04  0.25500000000E-02 0.  1.
    8880023    1    1    2    0    0 -0.13649213715E+04  0.11468463867E+03  0.34247815481E+04  0.37468789379E+04  0.65864270000E+03 0.  0.
    8880022    1    1    2    0    0  0.13649213715E+04 -0.11468463867E+03 -0.13504066019E+04  0.19295472423E+04  0.15294330000E+03 0.  0.
<mgrwt>
<rscale>  0 0.14831466E+04</rscale>
<asrwt>0</asrwt>
<pdfrwt beam="1">  1        2 0.59621548E+00 0.15198596E+04</pdfrwt>
<pdfrwt beam="2">  1       -2 0.27708086E+00 0.15198596E+04</pdfrwt>
<totfact> 0.17883631E-02</totfact>
</mgrwt>
</event>
<event>
 4    5  0.7289609E-008  0.6969556E+03  0.7818608E-02  0.1001007E+00
         -2   -1    0    0    0  501 -0.00000000000E+00  0.00000000000E+00  0.21036546551E+03  0.21036546553E+03  0.25500000000E-02 0.  1.
          2   -1    0    0  501    0  0.00000000000E+00 -0.00000000000E+00 -0.21257048513E+04  0.21257048513E+04  0.25500000000E-02 0. -1.
    8880023    1    1    2    0    0 -0.73328803757E+02 -0.21577733438E+03 -0.41568086696E+03  0.81150339550E+03  0.65864270000E+03 0.  1.
    8880022    1    1    2    0    0  0.73328803757E+02  0.21577733438E+03 -0.14996585188E+04  0.15245669213E+04  0.15294330000E+03 0.  0.
<mgrwt>
<rscale>  0 0.55210777E+03</rscale>
<asrwt>0</asrwt>
<pdfrwt beam="1">  1        2 0.32703150E+00 0.69695565E+03</pdfrwt>
<pdfrwt beam="2">  1       -2 0.32363919E-01 0.69695565E+03</pdfrwt>
<totfact> 0.52512371E+01</totfact>
</mgrwt>
</event>
<event>
 4    5  0.7289609E-008  0.1182229E+04  0.7818608E-02  0.9174593E-01
         -2   -1    0    0    0  501 -0.00000000000E+00  0.00000000000E+00  0.93477100506E+03  0.93477100506E+03  0.25500000000E-02 0.  1.
          2   -1    0    0  501    0  0.00000000000E+00 -0.00000000000E+00 -0.23780764643E+04  0.23780764643E+04  0.25500000000E-02 0. -1.
    8880023    1    1    2    0    0 -0.64262614407E+03  0.74221761701E+03  0.37542133520E+03  0.12404058760E+04  0.65864270000E+03 0.  0.
    8880022    1    1    2    0    0  0.64262614407E+03 -0.74221761701E+03 -0.18187267944E+04  0.20724415933E+04  0.15294330000E+03 0.  0.
<mgrwt>
<rscale>  0 0.11319558E+04</rscale>
<asrwt>0</asrwt>
<pdfrwt beam="1">  1        2 0.36585791E+00 0.11822291E+04</pdfrwt>
<pdfrwt beam="2">  1       -2 0.14381093E+00 0.11822291E+04</pdfrwt>
<totfact> 0.13415519E+00</totfact>
</mgrwt>
</event>
<event>
 4    5  0.7289609E-008  0.1164705E+04  0.7818608E-02  0.9192219E-01
          2   -1    0    0  501    0  0.00000000000E+00  0.00000000000E+00  0.15715511504E+04  0.15715511504E+04  0.25500000000E-02 0. -1.
         -2   -1    0    0    0  501 -0.00000000000E+00 -0.00000000000E+00 -0.14228911025E+04  0.14228911025E+04  0.25500000000E-02 0.  1.
    8880023    1    1    2    0    0 -0.77790029744E+03  0.56355995073E+03 -0.96735096770E+03  0.15140365887E+04  0.65864270000E+03 0.  0.
    8880022    1    1    2    0    0  0.77790029744E+03 -0.56355995073E+03  0.11160110155E+04  0.14804056642E+04  0.15294330000E+03 0.  0.
<mgrwt>
<rscale>  0 0.11134107E+04</rscale>
<asrwt>0</asrwt>
<pdfrwt beam="1">  1        2 0.24177710E+00 0.11647055E+04</pdfrwt>
<pdfrwt beam="2">  1       -2 0.21890632E+00 0.11647055E+04</pdfrwt>
<totfact> 0.11320703E+00</totfact>
</mgrwt>
</event>
<event>
 4    5  0.7289609E-008  0.8342522E+03  0.7818608E-02  0.9641115E-01
         -2   -1    0    0    0  501 -0.00000000000E+00  0.00000000000E+00  0.58710154655E+03  0.58710154656E+03  0.25500000000E-02 0.  1.
          2   -1    0    0  501    0  0.00000000000E+00 -0.00000000000E+00 -0.11525222214E+04  0.11525222214E+04  0.25500000000E-02 0. -1.
    8880023    1    1    2    0    0 -0.39356125160E+03  0.32753028502E+03  0.14900708849E+03  0.84745493393E+03  0.65864270000E+03 0.  1.
    8880022    1    1    2    0    0  0.39356125160E+03 -0.32753028502E+03 -0.71442776332E+03  0.89216883401E+03  0.15294330000E+03 0.  0.
<mgrwt>
<rscale>  0 0.74633680E+03</rscale>
<asrwt>0</asrwt>
<pdfrwt beam="1">  1        2 0.17731111E+00 0.83425221E+03</pdfrwt>
<pdfrwt beam="2">  1       -2 0.90323315E-01 0.83425221E+03</pdfrwt>
<totfact> 0.21407033E+01</totfact>
</mgrwt>
</event>
<event>
 4    5  0.7289609E-008  0.7970522E+03  0.7818608E-02  0.9717206E-01
         -2   -1    0    0    0  501 -0.00000000000E+00  0.00000000000E+00  0.20193352518E+03  0.20193352520E+03  0.25500000000E-02 0.  1.
          2   -1    0    0  501    0  0.00000000000E+00 -0.00000000000E+00 -0.29600399286E+04  0.29600399286E+04  0.25500000000E-02 0. -1.
    8880023    1    1    2    0    0 -0.44763722978E+03  0.33211061299E+02 -0.73560549711E+03  0.10846233068E+04  0.65864270000E+03 0.  1.
    8880022    1    1    2    0    0  0.44763722978E+03 -0.33211061299E+02 -0.20225009063E+04  0.20773501470E+04  0.15294330000E+03 0.  0.
<mgrwt>
<rscale>  0 0.70001513E+03</rscale>
<asrwt>0</asrwt>
<pdfrwt beam="1">  1        2 0.45539073E+00 0.79705224E+03</pdfrwt>
<pdfrwt beam="2">  1       -2 0.31066698E-01 0.79705224E+03</pdfrwt>
<totfact> 0.18604177E+01</totfact>
</mgrwt>
</event>
<event>
 4    5  0.7289609E-008  0.8041731E+03  0.7818608E-02  0.9701845E-01
         -2   -1    0    0    0  501 -0.00000000000E+00  0.00000000000E+00  0.35993903741E+03  0.35993903742E+03  0.25500000000E-02 0.  1.
          2   -1    0    0  501    0  0.00000000000E+00 -0.00000000000E+00 -0.17206980466E+04  0.17206980466E+04  0.25500000000E-02 0. -1.
    8880023    1    1    2    0    0 -0.15797404160E+03  0.43350703971E+03 -0.20956922759E+03  0.83103165927E+03  0.65864270000E+03 0.  0.
    8880022    1    1    2    0    0  0.15797404160E+03 -0.43350703971E+03 -0.11511897816E+04  0.12496054248E+04  0.15294330000E+03 0.  0.
<mgrwt>
<rscale>  0 0.70907073E+03</rscale>
<asrwt>0</asrwt>
<pdfrwt beam="1">  1        2 0.26472277E+00 0.80417309E+03</pdfrwt>
<pdfrwt beam="2">  1       -2 0.55375237E-01 0.80417309E+03</pdfrwt>
<totfact> 0.29878050E+01</totfact>
</mgrwt>
</event>
<event>
 4    5  0.7289609E-008  0.8232839E+03  0.7818608E-02  0.9662544E-01
         -2   -1    0    0    0  501 -0.00000000000E+00  0.00000000000E+00  0.31586196053E+03  0.31586196054E+03  0.25500000000E-02 0.  1.
          2   -1    0    0  501    0  0.00000000000E+00 -0.00000000000E+00 -0.14447909815E+04  0.14447909815E+04  0.25500000000E-02 0. -1.
    8880023    1    1    2    0    0 -0.32313418852E+03  0.37359122676E+03 -0.79912516494E+03  0.11473436033E+04  0.65864270000E+03 0.  1.
    8880022    1    1    2    0    0  0.32313418852E+03 -0.37359122676E+03 -0.32980385599E+03  0.61330933871E+03  0.15294330000E+03 0.  0.
<mgrwt>
<rscale>  0 0.73291374E+03</rscale>
<asrwt>0</asrwt>
<pdfrwt beam="1">  1        2 0.22227553E+00 0.82328386E+03</pdfrwt>
<pdfrwt beam="2">  1       -2 0.48594149E-01 0.82328386E+03</pdfrwt>
<totfact> 0.55448251E+01</totfact>
</mgrwt>
</event>
<event>
 4    5  0.7289609E-008  0.7627226E+03  0.7818608E-02  0.9798109E-01
          2   -1    0    0  501    0  0.00000000000E+00  0.00000000000E+00  0.26600968985E+04  0.26600968985E+04  0.25500000000E-02 0. -1.
         -2   -1    0    0    0  501 -0.00000000000E+00 -0.00000000000E+00 -0.22490196323E+03  0.22490196325E+03  0.25500000000E-02 0.  1.
    8880023    1    1    2    0    0  0.31541151582E+03 -0.22011627438E+03  0.51407162050E+03  0.91979097398E+03  0.65864270000E+03 0.  0.
    8880022    1    1    2    0    0 -0.31541151582E+03  0.22011627438E+03  0.19211233147E+04  0.19652078877E+04  0.15294330000E+03 0.  0.
<mgrwt>
<rscale>  0 0.65464112E+03</rscale>
<asrwt>0</asrwt>
<pdfrwt beam="1">  1        2 0.40924568E+00 0.76272263E+03</pdfrwt>
<pdfrwt beam="2">  1       -2 0.34600302E-01 0.76272263E+03</pdfrwt>
<totfact> 0.22993077E+01</totfact>
</mgrwt>
</event>
<event>
 4    5  0.7289609E-008  0.8439178E+03  0.7818608E-02  0.9622837E-01
          2   -1    0    0  501    0  0.00000000000E+00  0.00000000000E+00  0.13886488475E+04  0.13886488475E+04  0.25500000000E-02 0. -1.
         -2   -1    0    0    0  501 -0.00000000000E+00 -0.00000000000E+00 -0.55758289861E+03  0.55758289861E+03  0.25500000000E-02 0.  1.
    8880023    1    1    2    0    0  0.43782100367E+03 -0.29444827966E+03 -0.11552199999E+03  0.85178786056E+03  0.65864270000E+03 0.  1.
    8880022    1    1    2    0    0 -0.43782100367E+03  0.29444827966E+03  0.94658794887E+03  0.10944438855E+04  0.15294330000E+03 0.  0.
<mgrwt>
<rscale>  0 0.75802961E+03</rscale>
<asrwt>0</asrwt>
<pdfrwt beam="1">  1        2 0.21363828E+00 0.84391778E+03</pdfrwt>
<pdfrwt beam="2">  1       -2 0.85781985E-01 0.84391778E+03</pdfrwt>
<totfact> 0.17529221E+01</totfact>
</mgrwt>
</event>
<event>
 4    5  0.7289609E-008  0.9846037E+03  0.7818608E-02  0.9401984E-01
          2   -1    0    0  501    0  0.00000000000E+00  0.00000000000E+00  0.33192093998E+04  0.33192093998E+04  0.25500000000E-02 0. -1.
         -2   -1    0    0    0  501 -0.00000000000E+00 -0.00000000000E+00 -0.93166091019E+03  0.93166091019E+03  0.25500000000E-02 0.  1.
    8880023    1    1    2    0    0  0.45058667716E+02  0.73048201772E+03 -0.61215738834E+03  0.11593882594E+04  0.65864270000E+03 0.  0.
    8880022    1    1    2    0    0 -0.45058667716E+02 -0.73048201772E+03  0.29997058780E+04  0.30914820506E+04  0.15294330000E+03 0.  0.
<mgrwt>
<rscale>  0 0.91912609E+03</rscale>
<asrwt>0</asrwt>
<pdfrwt beam="1">  1        2 0.51064760E+00 0.98460371E+03</pdfrwt>
<pdfrwt beam="2">  1       -2 0.14333245E+00 0.98460371E+03</pdfrwt>
<totfact> 0.37563091E-01</totfact>
</mgrwt>
</event>
<event>
 4    5  0.7289609E-008  0.1258760E+04  0.7818608E-02  0.9102017E-01
          2   -1    0    0  501    0  0.00000000000E+00  0.00000000000E+00  0.14902116501E+04  0.14902116501E+04  0.25500000000E-02 0. -1.
         -2   -1    0    0    0  501 -0.00000000000E+00 -0.00000000000E+00 -0.17655370702E+04  0.17655370702E+04  0.25500000000E-02 0.  1.
    8880023    1    1    2    0    0 -0.78688481283E+03 -0.72902563654E+03 -0.12676660544E+04  0.17864639708E+04  0.65864270000E+03 0.  0.
    8880022    1    1    2    0    0  0.78688481283E+03  0.72902563654E+03  0.99234063430E+03  0.14692847494E+04  0.15294330000E+03 0.  0.
<mgrwt>
<rscale>  0 0.12124626E+04</rscale>
<asrwt>0</asrwt>
<pdfrwt beam="1">  1        2 0.22926333E+00 0.12587598E+04</pdfrwt>
<pdfrwt beam="2">  1       -2 0.27162109E+00 0.12587598E+04</pdfrwt>
<totfact> 0.58838138E-01</totfact>
</mgrwt>
</event>
<event>
 4    5  0.7289609E-008  0.9173780E+03  0.7818608E-02  0.9498691E-01
          2   -1    0    0  501    0  0.00000000000E+00  0.00000000000E+00  0.17900903997E+04  0.17900903997E+04  0.25500000000E-02 0. -1.
         -2   -1    0    0    0  501 -0.00000000000E+00 -0.00000000000E+00 -0.12881519120E+04  0.12881519120E+04  0.25500000000E-02 0.  1.
    8880023    1    1    2    0    0  0.28872597602E+03  0.56956952740E+03 -0.10492859112E+04  0.13937658575E+04  0.65864270000E+03 0.  0.
    8880022    1    1    2    0    0 -0.28872597602E+03 -0.56956952740E+03  0.15512243989E+04  0.16844764542E+04  0.15294330000E+03 0.  0.
<mgrwt>
<rscale>  0 0.84380387E+03</rscale>
<asrwt>0</asrwt>
<pdfrwt beam="1">  1        2 0.27539852E+00 0.91737797E+03</pdfrwt>
<pdfrwt beam="2">  1       -2 0.19817722E+00 0.91737797E+03</pdfrwt>
<totfact> 0.12049517E+00</totfact>
</mgrwt>
</event>
<event>
 4    5  0.7289609E-008  0.1090345E+04  0.7818608E-02  0.9271883E-01
         -2   -1    0    0    0  501 -0.00000000000E+00  0.00000000000E+00  0.49825232683E+03  0.49825232683E+03  0.25500000000E-02 0.  1.
          2   -1    0    0  501    0  0.00000000000E+00 -0.00000000000E+00 -0.26476506857E+04  0.26476506857E+04  0.25500000000E-02 0. -1.
    8880023    1    1    2    0    0 -0.51528591887E+03  0.69965878496E+03 -0.35560025518E+03  0.11468669240E+04  0.65864270000E+03 0.  0.
    8880022    1    1    2    0    0  0.51528591887E+03 -0.69965878496E+03 -0.17937981037E+04  0.19990360886E+04  0.15294330000E+03 0.  0.
<mgrwt>
<rscale>  0 0.10341312E+04</rscale>
<asrwt>0</asrwt>
<pdfrwt beam="1">  1        2 0.40733087E+00 0.10903450E+04</pdfrwt>
<pdfrwt beam="2">  1       -2 0.76654206E-01 0.10903450E+04</pdfrwt>
<totfact> 0.43461382E+00</totfact>
</mgrwt>
</event>
<event>
 4    5  0.7289609E-008  0.6651841E+03  0.7818608E-02  0.1019379E+00
          2   -1    0    0  501    0  0.00000000000E+00  0.00000000000E+00  0.14520300392E+04  0.14520300392E+04  0.25500000000E-02 0. -1.
         -2   -1    0    0    0  501 -0.00000000000E+00 -0.00000000000E+00 -0.12366537558E+03  0.12366537561E+03  0.25500000000E-02 0.  1.
    8880023    1    1    2    0    0  0.74360048012E+02  0.55948750382E+02  0.98688051581E+03  0.11901273201E+04  0.65864270000E+03 0.  0.
    8880022    1    1    2    0    0 -0.74360048012E+02 -0.55948750382E+02  0.34148414785E+03  0.38556809471E+03  0.15294330000E+03 0. -1.
<mgrwt>
<rscale>  0 0.47911212E+03</rscale>
<asrwt>0</asrwt>
<pdfrwt beam="1">  1        2 0.22338924E+00 0.66518410E+03</pdfrwt>
<pdfrwt beam="2">  1       -2 0.19025443E-01 0.66518410E+03</pdfrwt>
<totfact> 0.32044952E+02</totfact>
</mgrwt>
</event>
<event>
 4    5  0.7289609E-008  0.9188733E+03  0.7818608E-02  0.9496389E-01
          2   -1    0    0  501    0  0.00000000000E+00  0.00000000000E+00  0.13447181795E+04  0.13447181795E+04  0.25500000000E-02 0. -1.
         -2   -1    0    0    0  501 -0.00000000000E+00 -0.00000000000E+00 -0.87310724705E+03  0.87310724705E+03  0.25500000000E-02 0.  1.
    8880023    1    1    2    0    0 -0.13657938087E+03  0.62599044553E+03 -0.49836626523E+03  0.10453215322E+04  0.65864270000E+03 0.  0.
    8880022    1    1    2    0    0  0.13657938087E+03 -0.62599044553E+03  0.96997719768E+03  0.11725038943E+04  0.15294330000E+03 0.  0.
<mgrwt>
<rscale>  0 0.84550589E+03</rscale>
<asrwt>0</asrwt>
<pdfrwt beam="1">  1        2 0.20687972E+00 0.91887332E+03</pdfrwt>
<pdfrwt beam="2">  1       -2 0.13432419E+00 0.91887332E+03</pdfrwt>
<totfact> 0.62297015E+00</totfact>
</mgrwt>
</event>
<event>
 4    5  0.7289609E-008  0.7312208E+03  0.7818608E-02  0.9886300E-01
         -2   -1    0    0    0  501 -0.00000000000E+00  0.00000000000E+00  0.41474973914E+03  0.41474973915E+03  0.25500000000E-02 0.  1.
          2   -1    0    0  501    0  0.00000000000E+00 -0.00000000000E+00 -0.93876241483E+03  0.93876241483E+03  0.25500000000E-02 0. -1.
    8880023    1    1    2    0    0  0.27700977671E+03 -0.15536783556E+03 -0.11301575829E+02  0.73130808323E+03  0.65864270000E+03 0.  0.
    8880022    1    1    2    0    0 -0.27700977671E+03  0.15536783556E+03 -0.51271109986E+03  0.62220407075E+03  0.15294330000E+03 0.  0.
<mgrwt>
<rscale>  0 0.60929847E+03</rscale>
<asrwt>0</asrwt>
<pdfrwt beam="1">  1        2 0.14442499E+00 0.73122075E+03</pdfrwt>
<pdfrwt beam="2">  1       -2 0.63807652E-01 0.73122075E+03</pdfrwt>
<totfact> 0.63743381E+01</totfact>
</mgrwt>
</event>
<event>
 4    5  0.7289609E-008  0.1455286E+04  0.7818608E-02  0.8941873E-01
         -2   -1    0    0    0  501 -0.00000000000E+00  0.00000000000E+00  0.11420226707E+04  0.11420226707E+04  0.25500000000E-02 0.  1.
          2   -1    0    0  501    0  0.00000000000E+00 -0.00000000000E+00 -0.21394391851E+04  0.21394391851E+04  0.25500000000E-02 0. -1.
    8880023    1    1    2    0    0 -0.45487650704E+03  0.12153737674E+04  0.24807535148E+03  0.14762782995E+04  0.65864270000E+03 0.  1.
    8880022    1    1    2    0    0  0.45487650704E+03 -0.12153737674E+04 -0.12454918659E+04  0.18051835564E+04  0.15294330000E+03 0.  0.
<mgrwt>
<rscale>  0 0.14166230E+04</rscale>
<asrwt>0</asrwt>
<pdfrwt beam="1">  1        2 0.32914449E+00 0.14552856E+04</pdfrwt>
<pdfrwt beam="2">  1       -2 0.17569580E+00 0.14552856E+04</pdfrwt>
<totfact> 0.10258268E+00</totfact>
</mgrwt>
</event>
<event>
 4    5  0.7289609E-008  0.1067557E+04  0.7818608E-02  0.9298068E-01
         -2   -1    0    0    0  501 -0.00000000000E+00  0.00000000000E+00  0.16074281499E+04  0.16074281499E+04  0.25500000000E-02 0.  1.
          2   -1    0    0  501    0  0.00000000000E+00 -0.00000000000E+00 -0.15885822171E+04  0.15885822171E+04  0.25500000000E-02 0. -1.
    8880023    1    1    2    0    0 -0.48042064588E+03  0.68924819268E+03  0.12838671438E+04  0.16697281567E+04  0.65864270000E+03 0.  0.
    8880022    1    1    2    0    0  0.48042064588E+03 -0.68924819268E+03 -0.12650212110E+04  0.15262822103E+04  0.15294330000E+03 0.  0.
<mgrwt>
<rscale>  0 0.10096095E+04</rscale>
<asrwt>0</asrwt>
<pdfrwt beam="1">  1        2 0.24439727E+00 0.10675567E+04</pdfrwt>
<pdfrwt beam="2">  1       -2 0.24729664E+00 0.10675567E+04</pdfrwt>
<totfact> 0.74717810E-01</totfact>
</mgrwt>
</event>
<event>
 4    5  0.7289609E-008  0.7177379E+03  0.7818608E-02  0.9930316E-01
         -2   -1    0    0    0  501 -0.00000000000E+00  0.00000000000E+00  0.73127385921E+03  0.73127385922E+03  0.25500000000E-02 0.  1.
          2   -1    0    0  501    0  0.00000000000E+00 -0.00000000000E+00 -0.24712620114E+04  0.24712620114E+04  0.25500000000E-02 0. -1.
    8880023    1    1    2    0    0 -0.27809152361E+03  0.63265930326E+02  0.54094486722E+03  0.89875971710E+03  0.65864270000E+03 0.  1.
    8880022    1    1    2    0    0  0.27809152361E+03 -0.63265930326E+02 -0.22809330194E+04  0.23037761535E+04  0.15294330000E+03 0.  0.
<mgrwt>
<rscale>  0 0.58814288E+03</rscale>
<asrwt>0</asrwt>
<pdfrwt beam="1">  1        2 0.38019415E+00 0.71773789E+03</pdfrwt>
<pdfrwt beam="2">  1       -2 0.11250367E+00 0.71773789E+03</pdfrwt>
<totfact> 0.23770371E+00</totfact>
</mgrwt>
</event>
<event>
 4    5  0.7289609E-008  0.9629776E+03  0.7818608E-02  0.9431683E-01
          2   -1    0    0  501    0  0.00000000000E+00  0.00000000000E+00  0.18578082149E+04  0.18578082149E+04  0.25500000000E-02 0. -1.
         -2   -1    0    0    0  501 -0.00000000000E+00 -0.00000000000E+00 -0.40649562389E+03  0.40649562390E+03  0.25500000000E-02 0.  1.
    8880023    1    1    2    0    0 -0.24976037939E+03  0.65660894913E+03  0.54176408238E+03  0.11049136104E+04  0.65864270000E+03 0.  0.
    8880022    1    1    2    0    0  0.24976037939E+03 -0.65660894913E+03  0.90954850864E+03  0.11593902284E+04  0.15294330000E+03 0.  0.
<mgrwt>
<rscale>  0 0.89513533E+03</rscale>
<asrwt>0</asrwt>
<pdfrwt beam="1">  1        2 0.28581665E+00 0.96297755E+03</pdfrwt>
<pdfrwt beam="2">  1       -2 0.62537789E-01 0.96297755E+03</pdfrwt>
<totfact> 0.19111015E+01</totfact>
</mgrwt>
</event>
<event>
 4    5  0.7289609E-008  0.1005671E+04  0.7818608E-02  0.9374176E-01
         -2   -1    0    0    0  501 -0.00000000000E+00  0.00000000000E+00  0.11205857569E+04  0.11205857569E+04  0.25500000000E-02 0.  1.
          2   -1    0    0  501    0  0.00000000000E+00 -0.00000000000E+00 -0.14861818878E+04  0.14861818878E+04  0.25500000000E-02 0. -1.
    8880023    1    1    2    0    0 -0.12573444041E+03  0.74950272194E+03  0.74557697746E+03  0.12519020390E+04  0.65864270000E+03 0.  1.
    8880022    1    1    2    0    0  0.12573444041E+03 -0.74950272194E+03 -0.11111731084E+04  0.13548656057E+04  0.15294330000E+03 0.  0.
<mgrwt>
<rscale>  0 0.94231721E+03</rscale>
<asrwt>0</asrwt>
<pdfrwt beam="1">  1        2 0.22864337E+00 0.10056708E+04</pdfrwt>
<pdfrwt beam="2">  1       -2 0.17239781E+00 0.10056708E+04</pdfrwt>
<totfact> 0.26272284E+00</totfact>
</mgrwt>
</event>
<event>
 4    5  0.7289609E-008  0.7001404E+03  0.7818608E-02  0.9996619E-01
          2   -1    0    0  501    0  0.00000000000E+00  0.00000000000E+00  0.68184095802E+03  0.68184095802E+03  0.25500000000E-02 0. -1.
         -2   -1    0    0    0  501 -0.00000000000E+00 -0.00000000000E+00 -0.53869462401E+03  0.53869462401E+03  0.25500000000E-02 0.  1.
    8880023    1    1    2    0    0 -0.12596099296E+03 -0.20129624240E+03 -0.24388320279E+03  0.74140108701E+03  0.65864270000E+03 0.  1.
    8880022    1    1    2    0    0  0.12596099296E+03  0.20129624240E+03  0.38702953681E+03  0.47913449503E+03  0.15294330000E+03 0.  0.
<mgrwt>
<rscale>  0 0.55798720E+03</rscale>
<asrwt>0</asrwt>
<pdfrwt beam="1">  1        2 0.10489861E+00 0.70014038E+03</pdfrwt>
<pdfrwt beam="2">  1       -2 0.82876096E-01 0.70014038E+03</pdfrwt>
<totfact> 0.54949177E+01</totfact>
</mgrwt>
</event>
<event>
 4    5  0.7289609E-008  0.8216611E+03  0.7818608E-02  0.9665780E-01
         -2   -1    0    0    0  501 -0.00000000000E+00  0.00000000000E+00  0.32910987219E+03  0.32910987220E+03  0.25500000000E-02 0.  1.
          2   -1    0    0  501    0  0.00000000000E+00 -0.00000000000E+00 -0.25440188744E+04  0.25440188744E+04  0.25500000000E-02 0. -1.
    8880023    1    1    2    0    0 -0.28943510041E+03 -0.39691829450E+03 -0.27547370151E+03  0.86660993322E+03  0.65864270000E+03 0.  0.
    8880022    1    1    2    0    0  0.28943510041E+03  0.39691829450E+03 -0.19394353007E+04  0.20065188133E+04  0.15294330000E+03 0.  0.
<mgrwt>
<rscale>  0 0.73091275E+03</rscale>
<asrwt>0</asrwt>
<pdfrwt beam="1">  1        2 0.39138751E+00 0.82166113E+03</pdfrwt>
<pdfrwt beam="2">  1       -2 0.50632290E-01 0.82166113E+03</pdfrwt>
<totfact> 0.12556312E+01</totfact>
</mgrwt>
</event>
<event>
 4    5  0.7289609E-008  0.6751769E+03  0.7818608E-02  0.1012195E+00
         -2   -1    0    0    0  501 -0.00000000000E+00  0.00000000000E+00  0.36998797950E+03  0.36998797951E+03  0.25500000000E-02 0.  1.
          2   -1    0    0  501    0  0.00000000000E+00 -0.00000000000E+00 -0.17612366564E+04  0.17612366564E+04  0.25500000000E-02 0. -1.
    8880023    1    1    2    0    0 -0.14820010649E+03 -0.95028091661E+01  0.47427064751E+02  0.67684053342E+03  0.65864270000E+03 0.  1.
    8880022    1    1    2    0    0  0.14820010649E+03  0.95028091661E+01 -0.14386757416E+04  0.14543841024E+04  0.15294330000E+03 0.  0.
<mgrwt>
<rscale>  0 0.50611498E+03</rscale>
<asrwt>0</asrwt>
<pdfrwt beam="1">  1        2 0.27095948E+00 0.67517685E+03</pdfrwt>
<pdfrwt beam="2">  1       -2 0.56921229E-01 0.67517685E+03</pdfrwt>
<totfact> 0.27247900E+01</totfact>
</mgrwt>
</event>
<event>
 4    5  0.7289609E-008  0.7143513E+03  0.7818608E-02  0.9942184E-01
         -2   -1    0    0    0  501 -0.00000000000E+00  0.00000000000E+00  0.19580396835E+03  0.19580396837E+03  0.25500000000E-02 0.  1.
          2   -1    0    0  501    0  0.00000000000E+00 -0.00000000000E+00 -0.29226331644E+04  0.29226331644E+04  0.25500000000E-02 0. -1.
    8880023    1    1    2    0    0 -0.17044169111E+03  0.21780092350E+03 -0.50641576711E+03  0.87564533219E+03  0.65864270000E+03 0.  1.
    8880022    1    1    2    0    0  0.17044169111E+03 -0.21780092350E+03 -0.22204134289E+04  0.22427918005E+04  0.15294330000E+03 0.  0.
<mgrwt>
<rscale>  0 0.58259709E+03</rscale>
<asrwt>0</asrwt>
<pdfrwt beam="1">  1        2 0.44963584E+00 0.71435133E+03</pdfrwt>
<pdfrwt beam="2">  1       -2 0.30123689E-01 0.71435133E+03</pdfrwt>
<totfact> 0.21037668E+01</totfact>
</mgrwt>
</event>
<event>
 4    5  0.7289609E-008  0.8698966E+03  0.7818608E-02  0.9576196E-01
         -2   -1    0    0    0  501 -0.00000000000E+00  0.00000000000E+00  0.80806403408E+03  0.80806403408E+03  0.25500000000E-02 0.  1.
          2   -1    0    0  501    0  0.00000000000E+00 -0.00000000000E+00 -0.12033137388E+04  0.12033137388E+04  0.25500000000E-02 0. -1.
    8880023    1    1    2    0    0  0.51269699950E+03  0.24505438824E+03  0.45160295149E+03  0.98013534705E+03  0.65864270000E+03 0.  1.
    8880022    1    1    2    0    0 -0.51269699950E+03 -0.24505438824E+03 -0.84685265622E+03  0.10312424258E+04  0.15294330000E+03 0.  0.
<mgrwt>
<rscale>  0 0.78891919E+03</rscale>
<asrwt>0</asrwt>
<pdfrwt beam="1">  1        2 0.18512519E+00 0.86989659E+03</pdfrwt>
<pdfrwt beam="2">  1       -2 0.12431754E+00 0.86989659E+03</pdfrwt>
<totfact> 0.92172206E+00</totfact>
</mgrwt>
</event>
<event>
 4    5  0.7289609E-008  0.9053572E+03  0.7818608E-02  0.9517486E-01
          2   -1    0    0  501    0  0.00000000000E+00  0.00000000000E+00  0.18892314588E+04  0.18892314588E+04  0.25500000000E-02 0. -1.
         -2   -1    0    0    0  501 -0.00000000000E+00 -0.00000000000E+00 -0.60455421667E+03  0.60455421668E+03  0.25500000000E-02 0.  1.
    8880023    1    1    2    0    0  0.60777295052E+03 -0.12834925830E+03 -0.15485570772E+03  0.91850530100E+03  0.65864270000E+03 0.  1.
    8880022    1    1    2    0    0 -0.60777295052E+03  0.12834925830E+03  0.14395329498E+04  0.15752803744E+04  0.15294330000E+03 0.  0.
<mgrwt>
<rscale>  0 0.83006859E+03</rscale>
<asrwt>0</asrwt>
<pdfrwt beam="1">  1        2 0.29065099E+00 0.90535722E+03</pdfrwt>
<pdfrwt beam="2">  1       -2 0.93008344E-01 0.90535722E+03</pdfrwt>
<totfact> 0.76220512E+00</totfact>
</mgrwt>
</event>
<event>
 4    5  0.7289609E-008  0.8463457E+03  0.7818608E-02  0.9618329E-01
          2   -1    0    0  501    0  0.00000000000E+00  0.00000000000E+00  0.17840867796E+04  0.17840867796E+04  0.25500000000E-02 0. -1.
         -2   -1    0    0    0  501 -0.00000000000E+00 -0.00000000000E+00 -0.27442607621E+03  0.27442607622E+03  0.25500000000E-02 0.  1.
    8880023    1    1    2    0    0 -0.53134945146E+03  0.12596244497E+02  0.90818878635E+03  0.12414137033E+04  0.65864270000E+03 0.  1.
    8880022    1    1    2    0    0  0.53134945146E+03 -0.12596244497E+02  0.60147191699E+03  0.81709915242E+03  0.15294330000E+03 0. -1.
<mgrwt>
<rscale>  0 0.76094838E+03</rscale>
<asrwt>0</asrwt>
<pdfrwt beam="1">  1        2 0.27447488E+00 0.84634574E+03</pdfrwt>
<pdfrwt beam="2">  1       -2 0.42219398E-01 0.84634574E+03</pdfrwt>
<totfact> 0.47563904E+01</totfact>
</mgrwt>
</event>
<event>
 4    5  0.7289609E-008  0.6900490E+03  0.7818608E-02  0.1004129E+00
          2   -1    0    0  501    0  0.00000000000E+00  0.00000000000E+00  0.11210044019E+04  0.11210044019E+04  0.25500000000E-02 0. -1.
         -2   -1    0    0    0  501 -0.00000000000E+00 -0.00000000000E+00 -0.21652927292E+03  0.21652927293E+03  0.25500000000E-02 0.  1.
    8880023    1    1    2    0    0  0.29151519239E+02  0.20373417796E+03  0.47635845516E+03  0.83850164604E+03  0.65864270000E+03 0.  0.
    8880022    1    1    2    0    0 -0.29151519239E+02 -0.20373417796E+03  0.42811667381E+03  0.49903202878E+03  0.15294330000E+03 0.  1.
<mgrwt>
<rscale>  0 0.53876101E+03</rscale>
<asrwt>0</asrwt>
<pdfrwt beam="1">  1        2 0.17246222E+00 0.69004901E+03</pdfrwt>
<pdfrwt beam="2">  1       -2 0.33312195E-01 0.69004901E+03</pdfrwt>
<totfact> 0.18076248E+02</totfact>
</mgrwt>
</event>
<event>
 4    5  0.7289609E-008  0.7342941E+03  0.7818608E-02  0.9876891E-01
         -2   -1    0    0    0  501 -0.00000000000E+00  0.00000000000E+00  0.19828571667E+04  0.19828571667E+04  0.25500000000E-02 0.  1.
          2   -1    0    0  501    0  0.00000000000E+00 -0.00000000000E+00 -0.55691419489E+03  0.55691419490E+03  0.25500000000E-02 0. -1.
    8880023    1    1    2    0    0 -0.17010962486E+01 -0.32461482557E+03  0.18463699178E+04  0.19870253542E+04  0.65864270000E+03 0.  1.
    8880022    1    1    2    0    0  0.17010962486E+01  0.32461482557E+03 -0.42042694601E+03  0.55274600736E+03  0.15294330000E+03 0.  0.
<mgrwt>
<rscale>  0 0.61394448E+03</rscale>
<asrwt>0</asrwt>
<pdfrwt beam="1">  1        2 0.85679108E-01 0.73429414E+03</pdfrwt>
<pdfrwt beam="2">  1       -2 0.30505494E+00 0.73429414E+03</pdfrwt>
<totfact> 0.16789681E+00</totfact>
</mgrwt>
</event>
<event>
 4    5  0.7289609E-008  0.7891917E+03  0.7818608E-02  0.9734672E-01
          2   -1    0    0  501    0  0.00000000000E+00  0.00000000000E+00  0.50488828632E+03  0.50488828632E+03  0.25500000000E-02 0. -1.
         -2   -1    0    0    0  501 -0.00000000000E+00 -0.00000000000E+00 -0.15131951543E+04  0.15131951543E+04  0.25500000000E-02 0.  1.
    8880023    1    1    2    0    0 -0.46307222240E+02 -0.43228352570E+03 -0.12646675209E+04  0.14907070638E+04  0.65864270000E+03 0.  1.
    8880022    1    1    2    0    0  0.46307222240E+02  0.43228352570E+03  0.25636065294E+03  0.52737637680E+03  0.15294330000E+03 0.  0.
<mgrwt>
<rscale>  0 0.68989422E+03</rscale>
<asrwt>0</asrwt>
<pdfrwt beam="1">  1        2 0.77675121E-01 0.78919175E+03</pdfrwt>
<pdfrwt beam="2">  1       -2 0.23279925E+00 0.78919175E+03</pdfrwt>
<totfact> 0.51026504E+00</totfact>
</mgrwt>
</event>
<event>
 4    5  0.7289609E-008  0.6796948E+03  0.7818608E-02  0.1009497E+00
          2   -1    0    0  501    0  0.00000000000E+00  0.00000000000E+00  0.15277438686E+04  0.15277438686E+04  0.25500000000E-02 0. -1.
         -2   -1    0    0    0  501 -0.00000000000E+00 -0.00000000000E+00 -0.16403575431E+03  0.16403575433E+03  0.25500000000E-02 0.  1.
    8880023    1    1    2    0    0  0.10897556500E+03  0.12766827717E+03  0.64114112820E+03  0.93436984931E+03  0.65864270000E+03 0.  1.
    8880022    1    1    2    0    0 -0.10897556500E+03 -0.12766827717E+03  0.72256698610E+03  0.75740977362E+03  0.15294330000E+03 0.  0.
<mgrwt>
<rscale>  0 0.51675115E+03</rscale>
<asrwt>0</asrwt>
<pdfrwt beam="1">  1        2 0.23503753E+00 0.67969484E+03</pdfrwt>
<pdfrwt beam="2">  1       -2 0.25236269E-01 0.67969484E+03</pdfrwt>
<totfact> 0.17627615E+02</totfact>
</mgrwt>
</event>
<event>
 4    5  0.7289609E-008  0.6778365E+03  0.7818608E-02  0.1010575E+00
          2   -1    0    0  501    0  0.00000000000E+00  0.00000000000E+00  0.28787237020E+04  0.28787237020E+04  0.25500000000E-02 0. -1.
         -2   -1    0    0    0  501 -0.00000000000E+00 -0.00000000000E+00 -0.16100501959E+03  0.16100501961E+03  0.25500000000E-02 0.  1.
    8880023    1    1    2    0    0 -0.88524082164E+02 -0.13347497573E+03  0.58449330903E+03  0.89503894711E+03  0.65864270000E+03 0.  1.
    8880022    1    1    2    0    0  0.88524082164E+02  0.13347497573E+03  0.21332253733E+04  0.21446897745E+04  0.15294330000E+03 0.  0.
<mgrwt>
<rscale>  0 0.51246787E+03</rscale>
<asrwt>0</asrwt>
<pdfrwt beam="1">  1        2 0.44288052E+00 0.67783648E+03</pdfrwt>
<pdfrwt beam="2">  1       -2 0.24770006E-01 0.67783648E+03</pdfrwt>
<totfact> 0.32158920E+01</totfact>
</mgrwt>
</event>
<event>
 4    5  0.7289609E-008  0.1050973E+04  0.7818608E-02  0.9317713E-01
          2   -1    0    0  501    0  0.00000000000E+00  0.00000000000E+00  0.15683440826E+04  0.15683440826E+04  0.25500000000E-02 0. -1.
         -2   -1    0    0    0  501 -0.00000000000E+00 -0.00000000000E+00 -0.99549934903E+03  0.99549934903E+03  0.25500000000E-02 0.  1.
    8880023    1    1    2    0    0 -0.36431196614E+03  0.73349200734E+03 -0.53370049236E+03  0.11787197102E+04  0.65864270000E+03 0.  1.
    8880022    1    1    2    0    0  0.36431196614E+03 -0.73349200734E+03  0.11065452259E+04  0.13851237214E+04  0.15294330000E+03 0.  0.
<mgrwt>
<rscale>  0 0.99168413E+03</rscale>
<asrwt>0</asrwt>
<pdfrwt beam="1">  1        2 0.24128370E+00 0.10509729E+04</pdfrwt>
<pdfrwt beam="2">  1       -2 0.15315375E+00 0.10509729E+04</pdfrwt>
<totfact> 0.32509898E+00</totfact>
</mgrwt>
</event>
<event>
 4    5  0.7289609E-008  0.1491510E+04  0.7818608E-02  0.8915654E-01
          2   -1    0    0  501    0  0.00000000000E+00  0.00000000000E+00  0.11619415205E+04  0.11619415205E+04  0.25500000000E-02 0. -1.
         -2   -1    0    0    0  501 -0.00000000000E+00 -0.00000000000E+00 -0.35808835359E+04  0.35808835359E+04  0.25500000000E-02 0.  1.
    8880023    1    1    2    0    0  0.11828044160E+04  0.62591135256E+03 -0.29415478588E+04  0.32980760027E+04  0.65864270000E+03 0.  0.
    8880022    1    1    2    0    0 -0.11828044160E+04 -0.62591135256E+03  0.52260584340E+03  0.14447490538E+04  0.15294330000E+03 0.  0.
<mgrwt>
<rscale>  0 0.14539676E+04</rscale>
<asrwt>0</asrwt>
<pdfrwt beam="1">  1        2 0.17876024E+00 0.14915098E+04</pdfrwt>
<pdfrwt beam="2">  1       -2 0.55090515E+00 0.14915098E+04</pdfrwt>
<totfact> 0.15608842E-02</totfact>
</mgrwt>
</event>
<event>
 4    5  0.7289609E-008  0.8018595E+03  0.7818608E-02  0.9706790E-01
         -2   -1    0    0    0  501 -0.00000000000E+00  0.00000000000E+00  0.38204365276E+03  0.38204365277E+03  0.25500000000E-02 0.  1.
          2   -1    0    0  501    0  0.00000000000E+00 -0.00000000000E+00 -0.13778403897E+04  0.13778403897E+04  0.25500000000E-02 0. -1.
    8880023    1    1    2    0    0  0.45637418855E+03  0.29851131506E+02 -0.19522114888E+03  0.82528176598E+03  0.65864270000E+03 0.  0.
    8880022    1    1    2    0    0 -0.45637418855E+03 -0.29851131506E+02 -0.80057558805E+03  0.93460227649E+03  0.15294330000E+03 0.  1.
<mgrwt>
<rscale>  0 0.70613970E+03</rscale>
<asrwt>0</asrwt>
<pdfrwt beam="1">  1        2 0.21197544E+00 0.80185952E+03</pdfrwt>
<pdfrwt beam="2">  1       -2 0.58775947E-01 0.80185952E+03</pdfrwt>
<totfact> 0.40925628E+01</totfact>
</mgrwt>
</event>
<event>
 4    5  0.7289609E-008  0.8436307E+03  0.7818608E-02  0.9623372E-01
         -2   -1    0    0    0  501 -0.00000000000E+00  0.00000000000E+00  0.14350608464E+04  0.14350608464E+04  0.25500000000E-02 0.  1.
          2   -1    0    0  501    0  0.00000000000E+00 -0.00000000000E+00 -0.42189808628E+03  0.42189808628E+03  0.25500000000E-02 0. -1.
    8880023    1    1    2    0    0 -0.21998076889E+03  0.47907308910E+03  0.99942410280E+03  0.13078842865E+04  0.65864270000E+03 0.  0.
    8880022    1    1    2    0    0  0.21998076889E+03 -0.47907308910E+03  0.13738657347E+02  0.54907464620E+03  0.15294330000E+03 0.  0.
<mgrwt>
<rscale>  0 0.75768403E+03</rscale>
<asrwt>0</asrwt>
<pdfrwt beam="1">  1        2 0.64907398E-01 0.84363071E+03</pdfrwt>
<pdfrwt beam="2">  1       -2 0.22077859E+00 0.84363071E+03</pdfrwt>
<totfact> 0.74047493E+00</totfact>
</mgrwt>
</event>
<event>
 4    5  0.7289609E-008  0.6717760E+03  0.7818608E-02  0.1014420E+00
         -2   -1    0    0    0  501 -0.00000000000E+00  0.00000000000E+00  0.21966179648E+03  0.21966179650E+03  0.25500000000E-02 0.  1.
          2   -1    0    0  501    0  0.00000000000E+00 -0.00000000000E+00 -0.28919267272E+04  0.28919267272E+04  0.25500000000E-02 0. -1.
    8880023    1    1    2    0    0  0.75569164290E+02 -0.10845327043E+03 -0.30855306041E+03  0.73924827210E+03  0.65864270000E+03 0.  1.
    8880022    1    1    2    0    0 -0.75569164290E+02  0.10845327043E+03 -0.23637118703E+04  0.23723402516E+04  0.15294330000E+03 0.  0.
<mgrwt>
<rscale>  0 0.49754985E+03</rscale>
<asrwt>0</asrwt>
<pdfrwt beam="1">  1        2 0.44491178E+00 0.67177602E+03</pdfrwt>
<pdfrwt beam="2">  1       -2 0.33794125E-01 0.67177602E+03</pdfrwt>
<totfact> 0.17834081E+01</totfact>
</mgrwt>
</event>
<event>
 4    5  0.7289609E-008  0.1814267E+04  0.7818608E-02  0.8714685E-01
         -2   -1    0    0    0  501 -0.00000000000E+00  0.00000000000E+00  0.12404182560E+04  0.12404182560E+04  0.25500000000E-02 0.  1.
          2   -1    0    0  501    0  0.00000000000E+00 -0.00000000000E+00 -0.29147398789E+04  0.29147398789E+04  0.25500000000E-02 0. -1.
    8880023    1    1    2    0    0 -0.11860767177E+04 -0.12045643636E+04 -0.16579062071E+04  0.24576851881E+04  0.65864270000E+03 0.  0.
    8880022    1    1    2    0    0  0.11860767177E+04  0.12045643636E+04 -0.16415415808E+02  0.16974729468E+04  0.15294330000E+03 0.  0.
<mgrwt>
<rscale>  0 0.17843148E+04</rscale>
<asrwt>0</asrwt>
<pdfrwt beam="1">  1        2 0.44842152E+00 0.18142667E+04</pdfrwt>
<pdfrwt beam="2">  1       -2 0.19083358E+00 0.18142667E+04</pdfrwt>
<totfact> 0.27426215E-01</totfact>
</mgrwt>
</event>
<event>
 4    5  0.7289609E-008  0.6606334E+03  0.7818608E-02  0.1023517E+00
          2   -1    0    0  501    0  0.00000000000E+00  0.00000000000E+00  0.27146621266E+04  0.27146621266E+04  0.25500000000E-02 0. -1.
         -2   -1    0    0    0  501 -0.00000000000E+00 -0.00000000000E+00 -0.21875008345E+03  0.21875008347E+03  0.25500000000E-02 0.  1.
    8880023    1    1    2    0    0 -0.16282051825E+02  0.48592106297E+02  0.28978413875E+03  0.72139541955E+03  0.65864270000E+03 0.  1.
    8880022    1    1    2    0    0  0.16282051825E+02 -0.48592106297E+02  0.22061279044E+04  0.22120167906E+04  0.15294330000E+03 0.  0.
<mgrwt>
<rscale>  0 0.46438645E+03</rscale>
<asrwt>0</asrwt>
<pdfrwt beam="1">  1        2 0.41764033E+00 0.66063341E+03</pdfrwt>
<pdfrwt beam="2">  1       -2 0.33653859E-01 0.66063341E+03</pdfrwt>
<totfact> 0.22910125E+01</totfact>
</mgrwt>
</event>
<event>
 4    5  0.7289609E-008  0.1113282E+04  0.7818608E-02  0.9246410E-01
          2   -1    0    0  501    0  0.00000000000E+00  0.00000000000E+00  0.16522379110E+04  0.16522379110E+04  0.25500000000E-02 0. -1.
         -2   -1    0    0    0  501 -0.00000000000E+00 -0.00000000000E+00 -0.14452946130E+04  0.14452946130E+04  0.25500000000E-02 0.  1.
    8880023    1    1    2    0    0  0.73426294952E+03  0.51618348010E+03 -0.10601065133E+04  0.15372779482E+04  0.65864270000E+03 0.  0.
    8880022    1    1    2    0    0 -0.73426294952E+03 -0.51618348010E+03  0.12670498112E+04  0.15602545758E+04  0.15294330000E+03 0.  0.
<mgrwt>
<rscale>  0 0.10586977E+04</rscale>
<asrwt>0</asrwt>
<pdfrwt beam="1">  1        2 0.25419045E+00 0.11132824E+04</pdfrwt>
<pdfrwt beam="2">  1       -2 0.22235302E+00 0.11132824E+04</pdfrwt>
<totfact> 0.97692223E-01</totfact>
</mgrwt>
</event>
<event>
 4    5  0.7289609E-008  0.7860895E+03  0.7818608E-02  0.9741722E-01
         -2   -1    0    0    0  501 -0.00000000000E+00  0.00000000000E+00  0.84195364031E+03  0.84195364031E+03  0.25500000000E-02 0.  1.
          2   -1    0    0  501    0  0.00000000000E+00 -0.00000000000E+00 -0.12180354038E+04  0.12180354038E+04  0.25500000000E-02 0. -1.
    8880023    1    1    2    0    0  0.45745691499E+02 -0.42665417823E+03  0.59598453115E+03  0.98647565795E+03  0.65864270000E+03 0.  1.
    8880022    1    1    2    0    0 -0.45745691499E+02  0.42665417823E+03 -0.97206629468E+03  0.10735133862E+04  0.15294330000E+03 0.  0.
<mgrwt>
<rscale>  0 0.68586081E+03</rscale>
<asrwt>0</asrwt>
<pdfrwt beam="1">  1        2 0.18739006E+00 0.78608947E+03</pdfrwt>
<pdfrwt beam="2">  1       -2 0.12953133E+00 0.78608947E+03</pdfrwt>
<totfact> 0.82259729E+00</totfact>
</mgrwt>
</event>
<event>
 4    5  0.7289609E-008  0.8410337E+03  0.7818608E-02  0.9628234E-01
         -2   -1    0    0    0  501 -0.00000000000E+00  0.00000000000E+00  0.12341474193E+04  0.12341474193E+04  0.25500000000E-02 0.  1.
          2   -1    0    0  501    0  0.00000000000E+00 -0.00000000000E+00 -0.12301288968E+04  0.12301288968E+04  0.25500000000E-02 0. -1.
    8880023    1    1    2    0    0  0.16969766614E+03 -0.49470214894E+03  0.10135644549E+04  0.13170613595E+04  0.65864270000E+03 0.  0.
    8880022    1    1    2    0    0 -0.16969766614E+03  0.49470214894E+03 -0.10095459324E+04  0.11472149566E+04  0.15294330000E+03 0.  0.
<mgrwt>
<rscale>  0 0.75455315E+03</rscale>
<asrwt>0</asrwt>
<pdfrwt beam="1">  1        2 0.18925060E+00 0.84103372E+03</pdfrwt>
<pdfrwt beam="2">  1       -2 0.18986883E+00 0.84103372E+03</pdfrwt>
<totfact> 0.28570883E+00</totfact>
</mgrwt>
</event>
<event>
 4    5  0.7289609E-008  0.1106100E+04  0.7818608E-02  0.9254295E-01
         -2   -1    0    0    0  501 -0.00000000000E+00  0.00000000000E+00  0.19452375089E+04  0.19452375089E+04  0.25500000000E-02 0.  1.
          2   -1    0    0  501    0  0.00000000000E+00 -0.00000000000E+00 -0.11038298592E+04  0.11038298592E+04  0.25500000000E-02 0. -1.
    8880023    1    1    2    0    0  0.33487656066E+03  0.82310641498E+03  0.15486564116E+04  0.19031009876E+04  0.65864270000E+03 0.  0.
    8880022    1    1    2    0    0 -0.33487656066E+03 -0.82310641498E+03 -0.70724876194E+03  0.11459663806E+04  0.15294330000E+03 0.  0.
<mgrwt>
<rscale>  0 0.10510166E+04</rscale>
<asrwt>0</asrwt>
<pdfrwt beam="1">  1        2 0.16981998E+00 0.11060998E+04</pdfrwt>
<pdfrwt beam="2">  1       -2 0.29926731E+00 0.11060998E+04</pdfrwt>
<totfact> 0.68813457E-01</totfact>
</mgrwt>
</event>
<event>
 4    5  0.7289609E-008  0.1877015E+04  0.7818608E-02  0.8681089E-01
          2   -1    0    0  501    0  0.00000000000E+00  0.00000000000E+00  0.23314040795E+04  0.23314040795E+04  0.25500000000E-02 0. -1.
         -2   -1    0    0    0  501 -0.00000000000E+00 -0.00000000000E+00 -0.22827376137E+04  0.22827376137E+04  0.25500000000E-02 0.  1.
    8880023    1    1    2    0    0  0.80210285751E+03  0.15639716305E+04 -0.13916043354E+04  0.23366105982E+04  0.65864270000E+03 0.  0.
    8880022    1    1    2    0    0 -0.80210285751E+03 -0.15639716305E+04  0.14402708011E+04  0.22775310950E+04  0.15294330000E+03 0.  0.
<mgrwt>
<rscale>  0 0.18481797E+04</rscale>
<asrwt>0</asrwt>
<pdfrwt beam="1">  1        2 0.35867755E+00 0.18770153E+04</pdfrwt>
<pdfrwt beam="2">  1       -2 0.35119040E+00 0.18770153E+04</pdfrwt>
<totfact> 0.59663411E-02</totfact>
</mgrwt>
</event>
<event>
 4    5  0.7289609E-008  0.7665426E+03  0.7818608E-02  0.9788455E-01
          2   -1    0    0  501    0  0.00000000000E+00  0.00000000000E+00  0.16357241099E+04  0.16357241099E+04  0.25500000000E-02 0. -1.
         -2   -1    0    0    0  501 -0.00000000000E+00 -0.00000000000E+00 -0.12204729020E+04  0.12204729020E+04  0.25500000000E-02 0.  1.
    8880023    1    1    2    0    0  0.29766827902E+03  0.25528612827E+03 -0.10678671290E+04  0.13145066843E+04  0.65864270000E+03 0.  1.
    8880022    1    1    2    0    0 -0.29766827902E+03 -0.25528612827E+03  0.14831183369E+04  0.15416903275E+04  0.15294330000E+03 0.  0.
<mgrwt>
<rscale>  0 0.65985836E+03</rscale>
<asrwt>0</asrwt>
<pdfrwt beam="1">  1        2 0.25164986E+00 0.76654264E+03</pdfrwt>
<pdfrwt beam="2">  1       -2 0.18776506E+00 0.76654264E+03</pdfrwt>
<totfact> 0.17608929E+00</totfact>
</mgrwt>
</event>
<event>
 4    5  0.8514389E-008  0.1214958E+04  0.7818608E-02  0.9142718E-01
         -2   -1    0    0    0  501 -0.00000000000E+00  0.00000000000E+00  0.16592751496E+04  0.16592751496E+04  0.25500000000E-02 0.  1.
          2   -1    0    0  501    0  0.00000000000E+00 -0.00000000000E+00 -0.24395148875E+04  0.24395148875E+04  0.25500000000E-02 0. -1.
    8880023    1    1    2    0    0  0.84469872457E+02  0.10174362829E+04  0.12982319184E+04  0.17780686346E+04  0.65864270000E+03 0.  0.
    8880022    1    1    2    0    0 -0.84469872457E+02 -0.10174362829E+04 -0.20784716563E+04  0.23207214025E+04  0.15294330000E+03 0.  0.
<mgrwt>
<rscale>  0 0.11664749E+04</rscale>
<asrwt>0</asrwt>
<pdfrwt beam="1">  1        2 0.37530998E+00 0.12149576E+04</pdfrwt>
<pdfrwt beam="2">  1       -2 0.25527310E+00 0.12149576E+04</pdfrwt>
<totfact> 0.21935097E-01</totfact>
</mgrwt>
</event>
<event>
 4    5  0.7289609E-008  0.8848171E+03  0.7818608E-02  0.9550858E-01
         -2   -1    0    0    0  501 -0.00000000000E+00  0.00000000000E+00  0.29416650063E+03  0.29416650064E+03  0.25500000000E-02 0.  1.
          2   -1    0    0  501    0  0.00000000000E+00 -0.00000000000E+00 -0.27939520410E+04  0.27939520410E+04  0.25500000000E-02 0. -1.
    8880023    1    1    2    0    0 -0.11788666876E+01 -0.59083817206E+03 -0.54249801228E+03  0.10378850779E+04  0.65864270000E+03 0.  0.
    8880022    1    1    2    0    0  0.11788666876E+01  0.59083817206E+03 -0.19572875281E+04  0.20502334638E+04  0.15294330000E+03 0.  0.
<mgrwt>
<rscale>  0 0.80635896E+03</rscale>
<asrwt>0</asrwt>
<pdfrwt beam="1">  1        2 0.42983876E+00 0.88481712E+03</pdfrwt>
<pdfrwt beam="2">  1       -2 0.45256387E-01 0.88481712E+03</pdfrwt>
<totfact> 0.11167181E+01</totfact>
</mgrwt>
</event>
<event>
 4    5  0.7289609E-008  0.9682788E+03  0.7818608E-02  0.9424289E-01
         -2   -1    0    0    0  501 -0.00000000000E+00  0.00000000000E+00  0.50645428139E+03  0.50645428139E+03  0.25500000000E-02 0.  1.
          2   -1    0    0  501    0  0.00000000000E+00 -0.00000000000E+00 -0.23406489858E+04  0.23406489858E+04  0.25500000000E-02 0. -1.
    8880023    1    1    2    0    0 -0.70870167910E+03 -0.38671264033E+02 -0.10781509863E+03  0.97426271528E+03  0.65864270000E+03 0.  0.
    8880022    1    1    2    0    0  0.70870167910E+03  0.38671264033E+02 -0.17263796057E+04  0.18728405519E+04  0.15294330000E+03 0. -1.
<mgrwt>
<rscale>  0 0.90103484E+03</rscale>
<asrwt>0</asrwt>
<pdfrwt beam="1">  1        2 0.36009984E+00 0.96827875E+03</pdfrwt>
<pdfrwt beam="2">  1       -2 0.77916044E-01 0.96827875E+03</pdfrwt>
<totfact> 0.63779285E+00</totfact>
</mgrwt>
</event>
<event>
 4    5  0.7289609E-008  0.7033241E+03  0.7818608E-02  0.9983681E-01
          2   -1    0    0  501    0  0.00000000000E+00  0.00000000000E+00  0.10077492627E+04  0.10077492627E+04  0.25500000000E-02 0. -1.
         -2   -1    0    0    0  501 -0.00000000000E+00 -0.00000000000E+00 -0.96444729419E+03  0.96444729420E+03  0.25500000000E-02 0.  1.
    8880023    1    1    2    0    0  0.24142365537E+03  0.50686876543E+02 -0.80890896164E+03  0.10719134551E+04  0.65864270000E+03 0.  1.
    8880022    1    1    2    0    0 -0.24142365537E+03 -0.50686876543E+02  0.85221093010E+03  0.90028310171E+03  0.15294330000E+03 0.  0.
<mgrwt>
<rscale>  0 0.56371605E+03</rscale>
<asrwt>0</asrwt>
<pdfrwt beam="1">  1        2 0.15503835E+00 0.70332407E+03</pdfrwt>
<pdfrwt beam="2">  1       -2 0.14837651E+00 0.70332407E+03</pdfrwt>
<totfact> 0.78681817E+00</totfact>
</mgrwt>
</event>
<event>
 4    5  0.7289609E-008  0.1722710E+04  0.7818608E-02  0.8766540E-01
         -2   -1    0    0    0  501 -0.00000000000E+00  0.00000000000E+00  0.23014537878E+04  0.23014537878E+04  0.25500000000E-02 0.  1.
          2   -1    0    0  501    0  0.00000000000E+00 -0.00000000000E+00 -0.27792263970E+04  0.27792263970E+04  0.25500000000E-02 0. -1.
    8880023    1    1    2    0    0 -0.95244080000E+03  0.12754515156E+04 -0.21578738479E+04  0.27611863023E+04  0.65864270000E+03 0.  0.
    8880022    1    1    2    0    0  0.95244080000E+03 -0.12754515156E+04  0.16801012387E+04  0.23194938826E+04  0.15294330000E+03 0.  0.
<mgrwt>
<rscale>  0 0.16909553E+04</rscale>
<asrwt>0</asrwt>
<pdfrwt beam="1">  1        2 0.42757329E+00 0.17227101E+04</pdfrwt>
<pdfrwt beam="2">  1       -2 0.35406981E+00 0.17227101E+04</pdfrwt>
<totfact> 0.31843167E-02</totfact>
</mgrwt>
</event>
<event>
 4    5  0.7289609E-008  0.8529245E+03  0.7818608E-02  0.9606275E-01
          2   -1    0    0  501    0  0.00000000000E+00  0.00000000000E+00  0.20211266255E+04  0.20211266255E+04  0.25500000000E-02 0. -1.
         -2   -1    0    0    0  501 -0.00000000000E+00 -0.00000000000E+00 -0.76126677197E+03  0.76126677197E+03  0.25500000000E-02 0.  1.
    8880023    1    1    2    0    0 -0.27405589124E+02  0.54121987825E+03 -0.46255334129E+03  0.97027615798E+03  0.65864270000E+03 0.  1.
    8880022    1    1    2    0    0  0.27405589124E+02 -0.54121987825E+03  0.17224131948E+04  0.18121172394E+04  0.15294330000E+03 0.  0.
<mgrwt>
<rscale>  0 0.76882220E+03</rscale>
<asrwt>0</asrwt>
<pdfrwt beam="1">  1        2 0.31094256E+00 0.85292452E+03</pdfrwt>
<pdfrwt beam="2">  1       -2 0.11711796E+00 0.85292452E+03</pdfrwt>
<totfact> 0.37397895E+00</totfact>
</mgrwt>
</event>
<event>
 4    5  0.7289609E-008  0.6960362E+03  0.7818608E-02  0.1001406E+00
         -2   -1    0    0    0  501 -0.00000000000E+00  0.00000000000E+00  0.69112631325E+03  0.69112631325E+03  0.25500000000E-02 0.  1.
          2   -1    0    0  501    0  0.00000000000E+00 -0.00000000000E+00 -0.18637535315E+04  0.18637535315E+04  0.25500000000E-02 0. -1.
    8880023    1    1    2    0    0 -0.11106732688E+03 -0.19575555899E+03  0.50206958142E+03  0.85821923820E+03  0.65864270000E+03 0.  0.
    8880022    1    1    2    0    0  0.11106732688E+03  0.19575555899E+03 -0.16746967996E+04  0.16966606065E+04  0.15294330000E+03 0.  0.
<mgrwt>
<rscale>  0 0.55038035E+03</rscale>
<asrwt>0</asrwt>
<pdfrwt beam="1">  1        2 0.28673131E+00 0.69603620E+03</pdfrwt>
<pdfrwt beam="2">  1       -2 0.10632713E+00 0.69603620E+03</pdfrwt>
<totfact> 0.59102730E+00</totfact>
</mgrwt>
</event>
<event>
 4    5  0.7289609E-008  0.7246592E+03  0.7818608E-02  0.9907125E-01
          2   -1    0    0  501    0  0.00000000000E+00  0.00000000000E+00  0.10748634427E+04  0.10748634427E+04  0.25500000000E-02 0. -1.
         -2   -1    0    0    0  501 -0.00000000000E+00 -0.00000000000E+00 -0.46290317645E+03  0.46290317646E+03  0.25500000000E-02 0.  1.
    8880023    1    1    2    0    0  0.26649589014E+03  0.14248061177E+03 -0.11692718857E+03  0.73403198696E+03  0.65864270000E+03 0.  1.
    8880022    1    1    2    0    0 -0.26649589014E+03 -0.14248061177E+03  0.72888745478E+03  0.80373463217E+03  0.15294330000E+03 0.  0.
<mgrwt>
<rscale>  0 0.59917224E+03</rscale>
<asrwt>0</asrwt>
<pdfrwt beam="1">  1        2 0.16536360E+00 0.72465922E+03</pdfrwt>
<pdfrwt beam="2">  1       -2 0.71215874E-01 0.72465922E+03</pdfrwt>
<totfact> 0.41196985E+01</totfact>
</mgrwt>
</event>
<event>
 4    5  0.7289609E-008  0.6637789E+03  0.7818608E-02  0.1020581E+00
         -2   -1    0    0    0  501 -0.00000000000E+00  0.00000000000E+00  0.10742013679E+03  0.10742013682E+03  0.25500000000E-02 0.  1.
          2   -1    0    0  501    0  0.00000000000E+00 -0.00000000000E+00 -0.22032622262E+04  0.22032622262E+04  0.25500000000E-02 0. -1.
    8880023    1    1    2    0    0 -0.97657589628E+01  0.81834280501E+02 -0.99418748333E+03  0.11954125555E+04  0.65864270000E+03 0.  1.
    8880022    1    1    2    0    0  0.97657589628E+01 -0.81834280501E+02 -0.11016546060E+04  0.11152698075E+04  0.15294330000E+03 0.  0.
<mgrwt>
<rscale>  0 0.47477676E+03</rscale>
<asrwt>0</asrwt>
<pdfrwt beam="1">  1        2 0.33896339E+00 0.66377890E+03</pdfrwt>
<pdfrwt beam="2">  1       -2 0.16526177E-01 0.66377890E+03</pdfrwt>
<totfact> 0.15867954E+02</totfact>
</mgrwt>
</event>
<event>
 4    5  0.7289609E-008  0.7134044E+03  0.7818608E-02  0.9945570E-01
          2   -1    0    0  501    0  0.00000000000E+00  0.00000000000E+00  0.46118782353E+04  0.46118782353E+04  0.25500000000E-02 0. -1.
         -2   -1    0    0    0  501 -0.00000000000E+00 -0.00000000000E+00 -0.20663288421E+03  0.20663288422E+03  0.25500000000E-02 0.  1.
    8880023    1    1    2    0    0  0.80744010811E+02  0.26194670865E+03  0.43434809390E+03  0.83522700291E+03  0.65864270000E+03 0.  1.
    8880022    1    1    2    0    0 -0.80744010811E+02 -0.26194670865E+03  0.39708972572E+04  0.39832841166E+04  0.15294330000E+03 0.  0.
<mgrwt>
<rscale>  0 0.58102717E+03</rscale>
<asrwt>0</asrwt>
<pdfrwt beam="1">  1        2 0.70951971E+00 0.71340443E+03</pdfrwt>
<pdfrwt beam="2">  1       -2 0.31789675E-01 0.71340443E+03</pdfrwt>
<totfact> 0.10105075E+00</totfact>
</mgrwt>
</event>
<event>
 4    5  0.7289609E-008  0.1322531E+04  0.7818608E-02  0.9046343E-01
         -2   -1    0    0    0  501 -0.00000000000E+00  0.00000000000E+00  0.13054175943E+04  0.13054175943E+04  0.25500000000E-02 0.  1.
          2   -1    0    0  501    0  0.00000000000E+00 -0.00000000000E+00 -0.21060833815E+04  0.21060833815E+04  0.25500000000E-02 0. -1.
    8880023    1    1    2    0    0  0.11364749785E+04 -0.15395784251E+03  0.71599155550E+03  0.15039057510E+04  0.65864270000E+03 0.  1.
    8880022    1    1    2    0    0 -0.11364749785E+04  0.15395784251E+03 -0.15166573426E+04  0.19075952249E+04  0.15294330000E+03 0.  0.
<mgrwt>
<rscale>  0 0.12790532E+04</rscale>
<asrwt>0</asrwt>
<pdfrwt beam="1">  1        2 0.32401283E+00 0.13225311E+04</pdfrwt>
<pdfrwt beam="2">  1       -2 0.20083348E+00 0.13225311E+04</pdfrwt>
<totfact> 0.73317564E-01</totfact>
</mgrwt>
</event>
<event>
 4    5  0.7289609E-008  0.7059130E+03  0.7818608E-02  0.9973503E-01
         -2   -1    0    0    0  501 -0.00000000000E+00  0.00000000000E+00  0.30297570661E+03  0.30297570662E+03  0.25500000000E-02 0.  1.
          2   -1    0    0  501    0  0.00000000000E+00 -0.00000000000E+00 -0.14646752480E+04  0.14646752480E+04  0.25500000000E-02 0. -1.
    8880023    1    1    2    0    0  0.10453410363E+03  0.23146393771E+03 -0.16111102521E+03  0.72406484653E+03  0.65864270000E+03 0.  0.
    8880022    1    1    2    0    0 -0.10453410363E+03 -0.23146393771E+03 -0.10005885161E+04  0.10435861081E+04  0.15294330000E+03 0.  0.
<mgrwt>
<rscale>  0 0.56827512E+03</rscale>
<asrwt>0</asrwt>
<pdfrwt beam="1">  1        2 0.22533465E+00 0.70591298E+03</pdfrwt>
<pdfrwt beam="2">  1       -2 0.46611648E-01 0.70591298E+03</pdfrwt>
<totfact> 0.59460307E+01</totfact>
</mgrwt>
</event>
<event>
 4    5  0.7289609E-008  0.8812456E+03  0.7818608E-02  0.9556835E-01
         -2   -1    0    0    0  501 -0.00000000000E+00  0.00000000000E+00  0.83400788758E+03  0.83400788758E+03  0.25500000000E-02 0.  1.
          2   -1    0    0  501    0  0.00000000000E+00 -0.00000000000E+00 -0.11654620018E+04  0.11654620018E+04  0.25500000000E-02 0. -1.
    8880023    1    1    2    0    0 -0.57142194612E+03  0.12751656387E+03  0.46722263691E+03  0.99744208518E+03  0.65864270000E+03 0.  0.
    8880022    1    1    2    0    0  0.57142194612E+03 -0.12751656387E+03 -0.79867675111E+03  0.10020278042E+04  0.15294330000E+03 0.  0.
<mgrwt>
<rscale>  0 0.80220214E+03</rscale>
<asrwt>0</asrwt>
<pdfrwt beam="1">  1        2 0.17930185E+00 0.88124555E+03</pdfrwt>
<pdfrwt beam="2">  1       -2 0.12830891E+00 0.88124555E+03</pdfrwt>
<totfact> 0.89560903E+00</totfact>
</mgrwt>
</event>
<event>
 4    5  0.7289609E-008  0.7806115E+03  0.7818608E-02  0.9754403E-01
          2   -1    0    0  501    0  0.00000000000E+00  0.00000000000E+00  0.33273255743E+04  0.33273255743E+04  0.25500000000E-02 0. -1.
         -2   -1    0    0    0  501 -0.00000000000E+00 -0.00000000000E+00 -0.52058553128E+03  0.52058553128E+03  0.25500000000E-02 0.  1.
    8880023    1    1    2    0    0  0.36289658357E+03  0.20940419611E+03 -0.20197351894E+03  0.80631728019E+03  0.65864270000E+03 0.  1.
    8880022    1    1    2    0    0 -0.36289658357E+03 -0.20940419611E+03  0.30087135620E+04  0.30415938254E+04  0.15294330000E+03 0.  0.
<mgrwt>
<rscale>  0 0.67868036E+03</rscale>
<asrwt>0</asrwt>
<pdfrwt beam="1">  1        2 0.51189624E+00 0.78061146E+03</pdfrwt>
<pdfrwt beam="2">  1       -2 0.80090082E-01 0.78061146E+03</pdfrwt>
<totfact> 0.15804185E+00</totfact>
</mgrwt>
</event>
<event>
 4    5  0.7289609E-008  0.1116947E+04  0.7818608E-02  0.9242418E-01
         -2   -1    0    0    0  501 -0.00000000000E+00  0.00000000000E+00  0.15626135501E+04  0.15626135501E+04  0.25500000000E-02 0.  1.
          2   -1    0    0  501    0  0.00000000000E+00 -0.00000000000E+00 -0.80961100096E+03  0.80961100096E+03  0.25500000000E-02 0. -1.
    8880023    1    1    2    0    0 -0.82338465385E+03  0.36850881242E+03  0.91394861133E+03  0.14432163051E+04  0.65864270000E+03 0.  1.
    8880022    1    1    2    0    0  0.82338465385E+03 -0.36850881242E+03 -0.16094606218E+03  0.92900824592E+03  0.15294330000E+03 0.  0.
<mgrwt>
<rscale>  0 0.10626129E+04</rscale>
<asrwt>0</asrwt>
<pdfrwt beam="1">  1        2 0.12455554E+00 0.11169473E+04</pdfrwt>
<pdfrwt beam="2">  1       -2 0.24040208E+00 0.11169473E+04</pdfrwt>
<totfact> 0.24566923E+00</totfact>
</mgrwt>
</event>
<event>
 4    5  0.7289609E-008  0.6744452E+03  0.7818608E-02  0.1012658E+00
         -2   -1    0    0    0  501 -0.00000000000E+00  0.00000000000E+00  0.42245308893E+03  0.42245308894E+03  0.25500000000E-02 0.  1.
          2   -1    0    0  501    0  0.00000000000E+00 -0.00000000000E+00 -0.34100126133E+04  0.34100126133E+04  0.25500000000E-02 0. -1.
    8880023    1    1    2    0    0  0.12936893947E+03  0.65800891038E+02  0.14744879894E+03  0.69037485060E+03  0.65864270000E+03 0.  1.
    8880022    1    1    2    0    0 -0.12936893947E+03 -0.65800891038E+02 -0.31350083233E+04  0.31420908516E+04  0.15294330000E+03 0.  0.
<mgrwt>
<rscale>  0 0.50431676E+03</rscale>
<asrwt>0</asrwt>
<pdfrwt beam="1">  1        2 0.52461731E+00 0.67444517E+03</pdfrwt>
<pdfrwt beam="2">  1       -2 0.64992785E-01 0.67444517E+03</pdfrwt>
<totfact> 0.22597506E+00</totfact>
</mgrwt>
</event>
<event>
 4    5  0.7289609E-008  0.1344378E+04  0.7818608E-02  0.9028154E-01
          2   -1    0    0  501    0  0.00000000000E+00  0.00000000000E+00  0.38361615152E+04  0.38361615152E+04  0.25500000000E-02 0. -1.
         -2   -1    0    0    0  501 -0.00000000000E+00 -0.00000000000E+00 -0.76489434814E+03  0.76489434815E+03  0.25500000000E-02 0.  1.
    8880023    1    1    2    0    0 -0.96595519348E+03 -0.66368013172E+03  0.37181932962E+02  0.13448916148E+04  0.65864270000E+03 0.  0.
    8880022    1    1    2    0    0  0.96595519348E+03  0.66368013172E+03  0.30340852341E+04  0.32561642486E+04  0.15294330000E+03 0.  0.
<mgrwt>
<rscale>  0 0.13017808E+04</rscale>
<asrwt>0</asrwt>
<pdfrwt beam="1">  1        2 0.59017870E+00 0.13443775E+04</pdfrwt>
<pdfrwt beam="2">  1       -2 0.11767605E+00 0.13443775E+04</pdfrwt>
<totfact> 0.25281254E-01</totfact>
</mgrwt>
</event>
<event>
 4    5  0.7289609E-008  0.9474461E+03  0.7818608E-02  0.9453798E-01
          2   -1    0    0  501    0  0.00000000000E+00  0.00000000000E+00  0.13286330514E+04  0.13286330514E+04  0.25500000000E-02 0. -1.
         -2   -1    0    0    0  501 -0.00000000000E+00 -0.00000000000E+00 -0.65107693834E+03  0.65107693834E+03  0.25500000000E-02 0.  1.
    8880023    1    1    2    0    0  0.24495027114E+03  0.63548665367E+03 -0.78512134716E+02  0.95069358044E+03  0.65864270000E+03 0.  1.
    8880022    1    1    2    0    0 -0.24495027114E+03 -0.63548665367E+03  0.75606824778E+03  0.10290164093E+04  0.15294330000E+03 0.  0.
<mgrwt>
<rscale>  0 0.87777511E+03</rscale>
<asrwt>0</asrwt>
<pdfrwt beam="1">  1        2 0.20440508E+00 0.94744611E+03</pdfrwt>
<pdfrwt beam="2">  1       -2 0.10016568E+00 0.94744611E+03</pdfrwt>
<totfact> 0.13083102E+01</totfact>
</mgrwt>
</event>
<event>
 4    5  0.7289609E-008  0.8397864E+03  0.7818608E-02  0.9630583E-01
          2   -1    0    0  501    0  0.00000000000E+00  0.00000000000E+00  0.16624266259E+04  0.16624266259E+04  0.25500000000E-02 0. -1.
         -2   -1    0    0    0  501 -0.00000000000E+00 -0.00000000000E+00 -0.98575627495E+03  0.98575627496E+03  0.25500000000E-02 0.  1.
    8880023    1    1    2    0    0 -0.39239210392E+03 -0.34272366534E+03  0.14663750896E+04  0.16898216426E+04  0.65864270000E+03 0.  0.
    8880022    1    1    2    0    0  0.39239210392E+03  0.34272366534E+03 -0.78970473869E+03  0.95836125826E+03  0.15294330000E+03 0.  0.
<mgrwt>
<rscale>  0 0.75304645E+03</rscale>
<asrwt>0</asrwt>
<pdfrwt beam="1">  1        2 0.25575794E+00 0.83978645E+03</pdfrwt>
<pdfrwt beam="2">  1       -2 0.15165481E+00 0.83978645E+03</pdfrwt>
<totfact> 0.30416936E+00</totfact>
</mgrwt>
</event>
<event>
 4    5  0.7289609E-008  0.9019756E+03  0.7818608E-02  0.9522868E-01
         -2   -1    0    0    0  501 -0.00000000000E+00  0.00000000000E+00  0.68507990306E+03  0.68507990307E+03  0.25500000000E-02 0.  1.
          2   -1    0    0  501    0  0.00000000000E+00 -0.00000000000E+00 -0.14268944175E+04  0.14268944175E+04  0.25500000000E-02 0. -1.
    8880023    1    1    2    0    0  0.31990775301E+03 -0.52669604241E+03  0.24851406012E+03  0.93558491644E+03  0.65864270000E+03 0.  1.
    8880022    1    1    2    0    0 -0.31990775301E+03  0.52669604241E+03 -0.99032857452E+03  0.11763894041E+04  0.15294330000E+03 0.  0.
<mgrwt>
<rscale>  0 0.82618678E+03</rscale>
<asrwt>0</asrwt>
<pdfrwt beam="1">  1        2 0.21952222E+00 0.90197555E+03</pdfrwt>
<pdfrwt beam="2">  1       -2 0.10539691E+00 0.90197555E+03</pdfrwt>
<totfact> 0.10223031E+01</totfact>
</mgrwt>
</event>
<event>
 4    5  0.7289609E-008  0.7434510E+03  0.7818608E-02  0.9850006E-01
         -2   -1    0    0    0  501 -0.00000000000E+00  0.00000000000E+00  0.26086972174E+04  0.26086972174E+04  0.25500000000E-02 0.  1.
          2   -1    0    0  501    0  0.00000000000E+00 -0.00000000000E+00 -0.15396215721E+03  0.15396215723E+03  0.25500000000E-02 0. -1.
    8880023    1    1    2    0    0  0.27439164559E+03  0.20885025780E+03  0.21587193169E+04  0.22831531925E+04  0.65864270000E+03 0.  1.
    8880022    1    1    2    0    0 -0.27439164559E+03 -0.20885025780E+03  0.29601574335E+03  0.47950618211E+03  0.15294330000E+03 0.  0.
<mgrwt>
<rscale>  0 0.62746602E+03</rscale>
<asrwt>0</asrwt>
<pdfrwt beam="1">  1        2 0.23686488E-01 0.74345101E+03</pdfrwt>
<pdfrwt beam="2">  1       -2 0.40133800E+00 0.74345101E+03</pdfrwt>
<totfact> 0.18018578E+00</totfact>
</mgrwt>
</event>
<event>
 4    5  0.7289609E-008  0.7546095E+03  0.7818608E-02  0.9819268E-01
         -2   -1    0    0    0  501 -0.00000000000E+00  0.00000000000E+00  0.45370478619E+03  0.45370478619E+03  0.25500000000E-02 0.  1.
          2   -1    0    0  501    0  0.00000000000E+00 -0.00000000000E+00 -0.99892000427E+03  0.99892000427E+03  0.25500000000E-02 0. -1.
    8880023    1    1    2    0    0  0.33140396411E+03  0.16061333480E+03  0.27087388875E+02  0.75509546658E+03  0.65864270000E+03 0.  1.
    8880022    1    1    2    0    0 -0.33140396411E+03 -0.16061333480E+03 -0.57230260696E+03  0.69752932389E+03  0.15294330000E+03 0.  0.
<mgrwt>
<rscale>  0 0.64338671E+03</rscale>
<asrwt>0</asrwt>
<pdfrwt beam="1">  1        2 0.15368000E+00 0.75460946E+03</pdfrwt>
<pdfrwt beam="2">  1       -2 0.69800736E-01 0.75460946E+03</pdfrwt>
<totfact> 0.47905312E+01</totfact>
</mgrwt>
</event>
<event>
 4    5  0.7289609E-008  0.1144419E+04  0.7818608E-02  0.9213141E-01
         -2   -1    0    0    0  501 -0.00000000000E+00  0.00000000000E+00  0.15218978320E+04  0.15218978320E+04  0.25500000000E-02 0.  1.
          2   -1    0    0  501    0  0.00000000000E+00 -0.00000000000E+00 -0.21173748440E+04  0.21173748440E+04  0.25500000000E-02 0. -1.
    8880023    1    1    2    0    0  0.52865320121E+03 -0.77227638652E+03  0.11691156443E+04  0.16360093583E+04  0.65864270000E+03 0.  1.
    8880022    1    1    2    0    0 -0.52865320121E+03  0.77227638652E+03 -0.17645926563E+04  0.20032633177E+04  0.15294330000E+03 0.  0.
<mgrwt>
<rscale>  0 0.10918815E+04</rscale>
<asrwt>0</asrwt>
<pdfrwt beam="1">  1        2 0.32574998E+00 0.11444192E+04</pdfrwt>
<pdfrwt beam="2">  1       -2 0.23413813E+00 0.11444192E+04</pdfrwt>
<totfact> 0.45391938E-01</totfact>
</mgrwt>
</event>
<event>
 4    5  0.7289609E-008  0.7331439E+03  0.7818608E-02  0.9880388E-01
         -2   -1    0    0    0  501 -0.00000000000E+00  0.00000000000E+00  0.42754893644E+03  0.42754893645E+03  0.25500000000E-02 0.  1.
          2   -1    0    0  501    0  0.00000000000E+00 -0.00000000000E+00 -0.10254140910E+04  0.10254140910E+04  0.25500000000E-02 0. -1.
    8880023    1    1    2    0    0 -0.17242353825E+03 -0.27195566741E+03  0.26912821237E+02  0.73363769518E+03  0.65864270000E+03 0.  1.
    8880022    1    1    2    0    0  0.17242353825E+03  0.27195566741E+03 -0.62477797576E+03  0.71932533223E+03  0.15294330000E+03 0.  0.
<mgrwt>
<rscale>  0 0.61221247E+03</rscale>
<asrwt>0</asrwt>
<pdfrwt beam="1">  1        2 0.15775601E+00 0.73314389E+03</pdfrwt>
<pdfrwt beam="2">  1       -2 0.65776760E-01 0.73314389E+03</pdfrwt>
<totfact> 0.52515134E+01</totfact>
</mgrwt>
</event>
<event>
 4    5  0.7289609E-008  0.7208850E+03  0.7818608E-02  0.9919603E-01
          2   -1    0    0  501    0  0.00000000000E+00  0.00000000000E+00  0.14030773459E+04  0.14030773459E+04  0.25500000000E-02 0. -1.
         -2   -1    0    0    0  501 -0.00000000000E+00 -0.00000000000E+00 -0.27440184232E+03  0.27440184233E+03  0.25500000000E-02 0.  1.
    8880023    1    1    2    0    0  0.27204676007E+03  0.10888298116E+03  0.29182054782E+03  0.77771098851E+03  0.65864270000E+03 0.  1.
    8880022    1    1    2    0    0 -0.27204676007E+03 -0.10888298116E+03  0.83685495580E+03  0.89976819977E+03  0.15294330000E+03 0.  0.
<mgrwt>
<rscale>  0 0.59320587E+03</rscale>
<asrwt>0</asrwt>
<pdfrwt beam="1">  1        2 0.21585805E+00 0.72088498E+03</pdfrwt>
<pdfrwt beam="2">  1       -2 0.42215668E-01 0.72088498E+03</pdfrwt>
<totfact> 0.78275216E+01</totfact>
</mgrwt>
</event>
<event>
 4    5  0.7289609E-008  0.6949673E+03  0.7818608E-02  0.1001876E+00
          2   -1    0    0  501    0  0.00000000000E+00  0.00000000000E+00  0.21814048279E+04  0.21814048279E+04  0.25500000000E-02 0. -1.
         -2   -1    0    0    0  501 -0.00000000000E+00 -0.00000000000E+00 -0.39363045193E+03  0.39363045194E+03  0.25500000000E-02 0.  1.
    8880023    1    1    2    0    0 -0.10642891317E+03 -0.19453088752E+03 -0.69403075434E+02  0.69842420698E+03  0.65864270000E+03 0.  0.
    8880022    1    1    2    0    0  0.10642891317E+03  0.19453088752E+03  0.18571774514E+04  0.18766110728E+04  0.15294330000E+03 0.  0.
<mgrwt>
<rscale>  0 0.54835426E+03</rscale>
<asrwt>0</asrwt>
<pdfrwt beam="1">  1        2 0.33560075E+00 0.69496733E+03</pdfrwt>
<pdfrwt beam="2">  1       -2 0.60558530E-01 0.69496733E+03</pdfrwt>
<totfact> 0.14081773E+01</totfact>
</mgrwt>
</event>
<event>
 4    5  0.7289609E-008  0.9686153E+03  0.7818608E-02  0.9423822E-01
         -2   -1    0    0    0  501 -0.00000000000E+00  0.00000000000E+00  0.28064602410E+03  0.28064602411E+03  0.25500000000E-02 0.  1.
          2   -1    0    0  501    0  0.00000000000E+00 -0.00000000000E+00 -0.33346202852E+04  0.33346202852E+04  0.25500000000E-02 0. -1.
    8880023    1    1    2    0    0  0.32454122316E+03 -0.63172648689E+03 -0.82981980191E+03  0.12754671574E+04  0.65864270000E+03 0.  1.
    8880022    1    1    2    0    0 -0.32454122316E+03  0.63172648689E+03 -0.22241544592E+04  0.23397991519E+04  0.15294330000E+03 0.  0.
<mgrwt>
<rscale>  0 0.90140892E+03</rscale>
<asrwt>0</asrwt>
<pdfrwt beam="1">  1        2 0.51301848E+00 0.96861528E+03</pdfrwt>
<pdfrwt beam="2">  1       -2 0.43176314E-01 0.96861528E+03</pdfrwt>
<totfact> 0.55693076E+00</totfact>
</mgrwt>
</event>
<event>
 4    5  0.7289609E-008  0.8692117E+03  0.7818608E-02  0.9577383E-01
         -2   -1    0    0    0  501 -0.00000000000E+00  0.00000000000E+00  0.19212286095E+03  0.19212286097E+03  0.25500000000E-02 0.  1.
          2   -1    0    0  501    0  0.00000000000E+00 -0.00000000000E+00 -0.29731956075E+04  0.29731956075E+04  0.25500000000E-02 0. -1.
    8880023    1    1    2    0    0 -0.56702062189E+03  0.14363986420E+02 -0.20555941212E+04  0.22318145325E+04  0.65864270000E+03 0.  0.
    8880022    1    1    2    0    0  0.56702062189E+03 -0.14363986420E+02 -0.72547862533E+03  0.93350393603E+03  0.15294330000E+03 0.  0.
<mgrwt>
<rscale>  0 0.78811376E+03</rscale>
<asrwt>0</asrwt>
<pdfrwt beam="1">  1        2 0.45741467E+00 0.86921166E+03</pdfrwt>
<pdfrwt beam="2">  1       -2 0.29557365E-01 0.86921166E+03</pdfrwt>
<totfact> 0.19824236E+01</totfact>
</mgrwt>
</event>
<event>
 4    5  0.7289609E-008  0.8355130E+03  0.7818608E-02  0.9638700E-01
         -2   -1    0    0    0  501 -0.00000000000E+00  0.00000000000E+00  0.68174366881E+03  0.68174366881E+03  0.25500000000E-02 0.  1.
          2   -1    0    0  501    0  0.00000000000E+00 -0.00000000000E+00 -0.30259621364E+04  0.30259621364E+04  0.25500000000E-02 0. -1.
    8880023    1    1    2    0    0  0.16322762393E+03 -0.48747155749E+03  0.38952024902E+03  0.92185031715E+03  0.65864270000E+03 0.  0.
    8880022    1    1    2    0    0 -0.16322762393E+03  0.48747155749E+03 -0.27337387166E+04  0.27858554880E+04  0.15294330000E+03 0.  0.
<mgrwt>
<rscale>  0 0.74786893E+03</rscale>
<asrwt>0</asrwt>
<pdfrwt beam="1">  1        2 0.46553263E+00 0.83551301E+03</pdfrwt>
<pdfrwt beam="2">  1       -2 0.10488364E+00 0.83551301E+03</pdfrwt>
<totfact> 0.12978811E+00</totfact>
</mgrwt>
</event>
<event>
 4    5  0.7289609E-008  0.9392512E+03  0.7818608E-02  0.9465751E-01
         -2   -1    0    0    0  501 -0.00000000000E+00  0.00000000000E+00  0.98137498370E+03  0.98137498370E+03  0.25500000000E-02 0.  1.
          2   -1    0    0  501    0  0.00000000000E+00 -0.00000000000E+00 -0.20179466096E+04  0.20179466096E+04  0.25500000000E-02 0. -1.
    8880023    1    1    2    0    0 -0.46418072917E+03 -0.48261665165E+03  0.67396288283E+03  0.11560357933E+04  0.65864270000E+03 0.  0.
    8880022    1    1    2    0    0  0.46418072917E+03  0.48261665165E+03 -0.17105345088E+04  0.18432858000E+04  0.15294330000E+03 0. -1.
<mgrwt>
<rscale>  0 0.86856653E+03</rscale>
<asrwt>0</asrwt>
<pdfrwt beam="1">  1        2 0.31045333E+00 0.93925118E+03</pdfrwt>
<pdfrwt beam="2">  1       -2 0.15098077E+00 0.93925118E+03</pdfrwt>
<totfact> 0.19354116E+00</totfact>
</mgrwt>
</event>
<event>
 4    5  0.7289609E-008  0.1288390E+04  0.7818608E-02  0.9075651E-01
          2   -1    0    0  501    0  0.00000000000E+00  0.00000000000E+00  0.19203394439E+04  0.19203394439E+04  0.25500000000E-02 0. -1.
         -2   -1    0    0    0  501 -0.00000000000E+00 -0.00000000000E+00 -0.11425795263E+04  0.11425795263E+04  0.25500000000E-02 0.  1.
    8880023    1    1    2    0    0 -0.67490119530E+03 -0.87786507157E+03  0.12989685867E+04  0.18295541268E+04  0.65864270000E+03 0.  0.
    8880022    1    1    2    0    0  0.67490119530E+03  0.87786507157E+03 -0.52120866906E+03  0.12333648434E+04  0.15294330000E+03 0.  0.
<mgrwt>
<rscale>  0 0.12434516E+04</rscale>
<asrwt>0</asrwt>
<pdfrwt beam="1">  1        2 0.29543684E+00 0.12883900E+04</pdfrwt>
<pdfrwt beam="2">  1       -2 0.17578147E+00 0.12883900E+04</pdfrwt>
<totfact> 0.13805716E+00</totfact>
</mgrwt>
</event>
<event>
 4    5  0.7289609E-008  0.1227548E+04  0.7818608E-02  0.9130798E-01
          2   -1    0    0  501    0  0.00000000000E+00  0.00000000000E+00  0.16272197016E+04  0.16272197016E+04  0.25500000000E-02 0. -1.
         -2   -1    0    0    0  501 -0.00000000000E+00 -0.00000000000E+00 -0.10394691299E+04  0.10394691299E+04  0.25500000000E-02 0.  1.
    8880023    1    1    2    0    0  0.59321993247E+02 -0.10341876845E+04 -0.33345217301E+03  0.12720313768E+04  0.65864270000E+03 0.  0.
    8880022    1    1    2    0    0 -0.59321993247E+02  0.10341876845E+04  0.92120274474E+03  0.13946574546E+04  0.15294330000E+03 0.  0.
<mgrwt>
<rscale>  0 0.11797165E+04</rscale>
<asrwt>0</asrwt>
<pdfrwt beam="1">  1        2 0.25034149E+00 0.12275477E+04</pdfrwt>
<pdfrwt beam="2">  1       -2 0.15991833E+00 0.12275477E+04</pdfrwt>
<totfact> 0.26308579E+00</totfact>
</mgrwt>
</event>
<event>
 4    5  0.7289609E-008  0.7797648E+03  0.7818608E-02  0.9756390E-01
          2   -1    0    0  501    0  0.00000000000E+00  0.00000000000E+00  0.18271582724E+04  0.18271582724E+04  0.25500000000E-02 0. -1.
         -2   -1    0    0    0  501 -0.00000000000E+00 -0.00000000000E+00 -0.17438786217E+04  0.17438786217E+04  0.25500000000E-02 0.  1.
    8880023    1    1    2    0    0  0.92896799377E+02  0.40693133187E+03 -0.16268513062E+04  0.18040726989E+04  0.65864270000E+03 0.  1.
    8880022    1    1    2    0    0 -0.92896799377E+02 -0.40693133187E+03  0.17101309569E+04  0.17669641952E+04  0.15294330000E+03 0.  0.
<mgrwt>
<rscale>  0 0.67756363E+03</rscale>
<asrwt>0</asrwt>
<pdfrwt beam="1">  1        2 0.28110127E+00 0.77976479E+03</pdfrwt>
<pdfrwt beam="2">  1       -2 0.26828902E+00 0.77976479E+03</pdfrwt>
<totfact> 0.43321068E-01</totfact>
</mgrwt>
</event>
<event>
 4    5  0.7289609E-008  0.1278856E+04  0.7818608E-02  0.9084037E-01
         -2   -1    0    0    0  501 -0.00000000000E+00  0.00000000000E+00  0.24973422979E+04  0.24973422979E+04  0.25500000000E-02 0.  1.
          2   -1    0    0  501    0  0.00000000000E+00 -0.00000000000E+00 -0.73939024592E+03  0.73939024593E+03  0.25500000000E-02 0. -1.
    8880023    1    1    2    0    0  0.56824454990E+02  0.10947300281E+04  0.17014428510E+04  0.21284691293E+04  0.65864270000E+03 0. -1.
    8880022    1    1    2    0    0 -0.56824454990E+02 -0.10947300281E+04  0.56509200969E+02  0.11082634145E+04  0.15294330000E+03 0.  0.
<mgrwt>
<rscale>  0 0.12334902E+04</rscale>
<asrwt>0</asrwt>
<pdfrwt beam="1">  1        2 0.11375235E+00 0.12788562E+04</pdfrwt>
<pdfrwt beam="2">  1       -2 0.38420651E+00 0.12788562E+04</pdfrwt>
<totfact> 0.35170942E-01</totfact>
</mgrwt>
</event>
<event>
 4    5  0.7289609E-008  0.9650591E+03  0.7818608E-02  0.9428771E-01
         -2   -1    0    0    0  501 -0.00000000000E+00  0.00000000000E+00  0.36415945867E+03  0.36415945868E+03  0.25500000000E-02 0.  1.
          2   -1    0    0  501    0  0.00000000000E+00 -0.00000000000E+00 -0.19921619684E+04  0.19921619684E+04  0.25500000000E-02 0. -1.
    8880023    1    1    2    0    0  0.39628015900E+03 -0.58351591653E+03 -0.76636035990E+03  0.12323340443E+04  0.65864270000E+03 0. -1.
    8880022    1    1    2    0    0 -0.39628015900E+03  0.58351591653E+03 -0.86164214983E+03  0.11239873828E+04  0.15294330000E+03 0.  0.
<mgrwt>
<rscale>  0 0.89745327E+03</rscale>
<asrwt>0</asrwt>
<pdfrwt beam="1">  1        2 0.30648645E+00 0.96505906E+03</pdfrwt>
<pdfrwt beam="2">  1       -2 0.56024533E-01 0.96505906E+03</pdfrwt>
<totfact> 0.20338311E+01</totfact>
</mgrwt>
</event>
<event>
 4    5  0.7289609E-008  0.7395493E+03  0.7818608E-02  0.9861262E-01
         -2   -1    0    0    0  501 -0.00000000000E+00  0.00000000000E+00  0.25439669727E+03  0.25439669729E+03  0.25500000000E-02 0.  1.
          2   -1    0    0  501    0  0.00000000000E+00 -0.00000000000E+00 -0.13097921671E+04  0.13097921671E+04  0.25500000000E-02 0. -1.
    8880023    1    1    2    0    0  0.11809821937E+02 -0.33613006934E+03 -0.48436512500E+03  0.88404902352E+03  0.65864270000E+03 0.  1.
    8880022    1    1    2    0    0 -0.11809821937E+02  0.33613006934E+03 -0.57103034484E+03  0.68013984088E+03  0.15294330000E+03 0.  0.
<mgrwt>
<rscale>  0 0.62175988E+03</rscale>
<asrwt>0</asrwt>
<pdfrwt beam="1">  1        2 0.20150648E+00 0.73954926E+03</pdfrwt>
<pdfrwt beam="2">  1       -2 0.39137954E-01 0.73954926E+03</pdfrwt>
<totfact> 0.10240039E+02</totfact>
</mgrwt>
</event>
<event>
 4    5  0.7289609E-008  0.9347317E+03  0.7818608E-02  0.9472431E-01
          2   -1    0    0  501    0  0.00000000000E+00  0.00000000000E+00  0.70157009719E+03  0.70157009719E+03  0.25500000000E-02 0. -1.
         -2   -1    0    0    0  501 -0.00000000000E+00 -0.00000000000E+00 -0.13972811528E+04  0.13972811528E+04  0.25500000000E-02 0.  1.
    8880023    1    1    2    0    0  0.19214128423E+03  0.63481874452E+03 -0.98620009644E+03  0.13587913556E+04  0.65864270000E+03 0.  0.
    8880022    1    1    2    0    0 -0.19214128423E+03 -0.63481874452E+03  0.29048904082E+03  0.74005989443E+03  0.15294330000E+03 0.  0.
<mgrwt>
<rscale>  0 0.86347261E+03</rscale>
<asrwt>0</asrwt>
<pdfrwt beam="1">  1        2 0.10793386E+00 0.93473168E+03</pdfrwt>
<pdfrwt beam="2">  1       -2 0.21496633E+00 0.93473168E+03</pdfrwt>
<totfact> 0.43527123E+00</totfact>
</mgrwt>
</event>
<event>
 4    5  0.7289609E-008  0.8991425E+03  0.7818608E-02  0.9527410E-01
         -2   -1    0    0    0  501 -0.00000000000E+00  0.00000000000E+00  0.10095164271E+04  0.10095164271E+04  0.25500000000E-02 0.  1.
          2   -1    0    0  501    0  0.00000000000E+00 -0.00000000000E+00 -0.15100926574E+04  0.15100926574E+04  0.25500000000E-02 0. -1.
    8880023    1    1    2    0    0 -0.44630450606E+03 -0.41887868613E+03  0.71585143741E+03  0.11493043777E+04  0.65864270000E+03 0.  0.
    8880022    1    1    2    0    0  0.44630450606E+03  0.41887868613E+03 -0.12164276677E+04  0.13703047068E+04  0.15294330000E+03 0.  0.
<mgrwt>
<rscale>  0 0.82292843E+03</rscale>
<asrwt>0</asrwt>
<pdfrwt beam="1">  1        2 0.23232195E+00 0.89914252E+03</pdfrwt>
<pdfrwt beam="2">  1       -2 0.15531022E+00 0.89914252E+03</pdfrwt>
<totfact> 0.34387732E+00</totfact>
</mgrwt>
</event>
<event>
 4    5  0.7289609E-008  0.9560240E+03  0.7818608E-02  0.9441499E-01
         -2   -1    0    0    0  501 -0.00000000000E+00  0.00000000000E+00  0.65095416333E+03  0.65095416333E+03  0.25500000000E-02 0.  1.
          2   -1    0    0  501    0  0.00000000000E+00 -0.00000000000E+00 -0.39849070428E+04  0.39849070428E+04  0.25500000000E-02 0. -1.
    8880023    1    1    2    0    0 -0.32438421014E+03  0.61232885915E+03  0.24525862908E+03  0.98698214216E+03  0.65864270000E+03 0.  1.
    8880022    1    1    2    0    0  0.32438421014E+03 -0.61232885915E+03 -0.35792115085E+04  0.36488790640E+04  0.15294330000E+03 0.  0.
<mgrwt>
<rscale>  0 0.88737743E+03</rscale>
<asrwt>0</asrwt>
<pdfrwt beam="1">  1        2 0.61306261E+00 0.95602403E+03</pdfrwt>
<pdfrwt beam="2">  1       -2 0.10014680E+00 0.95602403E+03</pdfrwt>
<totfact> 0.30704226E-01</totfact>
</mgrwt>
</event>
<event>
 4    5  0.7289609E-008  0.1032269E+04  0.7818608E-02  0.9340506E-01
          2   -1    0    0  501    0  0.00000000000E+00  0.00000000000E+00  0.21554250175E+04  0.21554250175E+04  0.25500000000E-02 0. -1.
         -2   -1    0    0    0  501 -0.00000000000E+00 -0.00000000000E+00 -0.43062004092E+03  0.43062004093E+03  0.25500000000E-02 0.  1.
    8880023    1    1    2    0    0 -0.57415275666E+03  0.54965242074E+03  0.58016925498E+03  0.11841350186E+04  0.65864270000E+03 0.  0.
    8880022    1    1    2    0    0  0.57415275666E+03 -0.54965242074E+03  0.11446357216E+04  0.14019100399E+04  0.15294330000E+03 0.  0.
<mgrwt>
<rscale>  0 0.97137779E+03</rscale>
<asrwt>0</asrwt>
<pdfrwt beam="1">  1        2 0.33160385E+00 0.10322690E+04</pdfrwt>
<pdfrwt beam="2">  1       -2 0.66249236E-01 0.10322690E+04</pdfrwt>
<totfact> 0.11483136E+01</totfact>
</mgrwt>
</event>
<event>
 4    5  0.7289609E-008  0.6879475E+03  0.7818608E-02  0.1005144E+00
          2   -1    0    0  501    0  0.00000000000E+00  0.00000000000E+00  0.32394987920E+04  0.32394987920E+04  0.25500000000E-02 0. -1.
         -2   -1    0    0    0  501 -0.00000000000E+00 -0.00000000000E+00 -0.10178769343E+03  0.10178769346E+03  0.25500000000E-02 0.  1.
    8880023    1    1    2    0    0  0.60446920875E+02  0.18922939251E+03  0.11669120937E+04  0.13546053425E+04  0.65864270000E+03 0.  1.
    8880022    1    1    2    0    0 -0.60446920875E+02 -0.18922939251E+03  0.19707990049E+04  0.19866811430E+04  0.15294330000E+03 0.  0.
<mgrwt>
<rscale>  0 0.53451199E+03</rscale>
<asrwt>0</asrwt>
<pdfrwt beam="1">  1        2 0.49838429E+00 0.68794753E+03</pdfrwt>
<pdfrwt beam="2">  1       -2 0.15659649E-01 0.68794753E+03</pdfrwt>
<totfact> 0.42784439E+01</totfact>
</mgrwt>
</event>
<event>
 4    5  0.7289609E-008  0.7109598E+03  0.7818608E-02  0.9954454E-01
          2   -1    0    0  501    0  0.00000000000E+00  0.00000000000E+00  0.23778239330E+04  0.23778239330E+04  0.25500000000E-02 0. -1.
         -2   -1    0    0    0  501 -0.00000000000E+00 -0.00000000000E+00 -0.84657587511E+03  0.84657587511E+03  0.25500000000E-02 0.  1.
    8880023    1    1    2    0    0 -0.19294688930E+03 -0.18554017674E+03 -0.68473182290E+03  0.98707726892E+03  0.65864270000E+03 0.  0.
    8880022    1    1    2    0    0  0.19294688930E+03  0.18554017674E+03  0.22159798808E+04  0.22373225392E+04  0.15294330000E+03 0.  0.
<mgrwt>
<rscale>  0 0.57693267E+03</rscale>
<asrwt>0</asrwt>
<pdfrwt beam="1">  1        2 0.36581907E+00 0.71095982E+03</pdfrwt>
<pdfrwt beam="2">  1       -2 0.13024244E+00 0.71095982E+03</pdfrwt>
<totfact> 0.18679899E+00</totfact>
</mgrwt>
</event>
<event>
 4    5  0.7289609E-008  0.6641285E+03  0.7818608E-02  0.1020276E+00
         -2   -1    0    0    0  501 -0.00000000000E+00  0.00000000000E+00  0.51612982246E+03  0.51612982247E+03  0.25500000000E-02 0.  1.
          2   -1    0    0  501    0  0.00000000000E+00 -0.00000000000E+00 -0.52511511935E+03  0.52511511936E+03  0.25500000000E-02 0. -1.
    8880023    1    1    2    0    0 -0.60896588743E+02 -0.59566026431E+02  0.26587150088E+03  0.71537009112E+03  0.65864270000E+03 0.  0.
    8880022    1    1    2    0    0  0.60896588743E+02  0.59566026431E+02 -0.27485679777E+03  0.32587485070E+03  0.15294330000E+03 0.  0.
<mgrwt>
<rscale>  0 0.47587146E+03</rscale>
<asrwt>0</asrwt>
<pdfrwt beam="1">  1        2 0.80786942E-01 0.66412854E+03</pdfrwt>
<pdfrwt beam="2">  1       -2 0.79404588E-01 0.66412854E+03</pdfrwt>
<totfact> 0.83103860E+01</totfact>
</mgrwt>
</event>
<event>
 4    5  0.7289609E-008  0.7351212E+03  0.7818608E-02  0.9874393E-01
         -2   -1    0    0    0  501 -0.00000000000E+00  0.00000000000E+00  0.26269287597E+03  0.26269287599E+03  0.25500000000E-02 0.  1.
          2   -1    0    0  501    0  0.00000000000E+00 -0.00000000000E+00 -0.26719089096E+04  0.26719089096E+04  0.25500000000E-02 0. -1.
    8880023    1    1    2    0    0 -0.93709320369E+02 -0.31274841168E+03 -0.29866125960E+03  0.79347448603E+03  0.65864270000E+03 0.  1.
    8880022    1    1    2    0    0  0.93709320369E+02  0.31274841168E+03 -0.21105547740E+04  0.21411272996E+04  0.15294330000E+03 0.  0.
<mgrwt>
<rscale>  0 0.61518499E+03</rscale>
<asrwt>0</asrwt>
<pdfrwt beam="1">  1        2 0.41106289E+00 0.73512122E+03</pdfrwt>
<pdfrwt beam="2">  1       -2 0.40414291E-01 0.73512122E+03</pdfrwt>
<totfact> 0.16852115E+01</totfact>
</mgrwt>
</event>
<event>
 4    5  0.7289609E-008  0.7581737E+03  0.7818608E-02  0.9809859E-01
         -2   -1    0    0    0  501 -0.00000000000E+00  0.00000000000E+00  0.43183641592E+03  0.43183641592E+03  0.25500000000E-02 0.  1.
          2   -1    0    0  501    0  0.00000000000E+00 -0.00000000000E+00 -0.17088932789E+04  0.17088932789E+04  0.25500000000E-02 0. -1.
    8880023    1    1    2    0    0 -0.13011668544E+03 -0.35225953971E+03  0.43405577014E+02  0.75941516019E+03  0.65864270000E+03 0.  1.
    8880022    1    1    2    0    0  0.13011668544E+03  0.35225953971E+03 -0.13204624400E+04  0.13813145346E+04  0.15294330000E+03 0.  0.
<mgrwt>
<rscale>  0 0.64836141E+03</rscale>
<asrwt>0</asrwt>
<pdfrwt beam="1">  1        2 0.26290666E+00 0.75817369E+03</pdfrwt>
<pdfrwt beam="2">  1       -2 0.66436372E-01 0.75817369E+03</pdfrwt>
<totfact> 0.20733086E+01</totfact>
</mgrwt>
</event>
<event>
 4    5  0.7289609E-008  0.1133156E+04  0.7818608E-02  0.9225009E-01
          2   -1    0    0  501    0  0.00000000000E+00  0.00000000000E+00  0.10640942243E+04  0.10640942243E+04  0.25500000000E-02 0. -1.
         -2   -1    0    0    0  501 -0.00000000000E+00 -0.00000000000E+00 -0.11026987014E+04  0.11026987015E+04  0.25500000000E-02 0.  1.
    8880023    1    1    2    0    0 -0.75500899121E+03 -0.52933325220E+03 -0.34277753354E+03  0.11838660872E+04  0.65864270000E+03 0.  0.
    8880022    1    1    2    0    0  0.75500899121E+03  0.52933325220E+03  0.30417305640E+03  0.98292683855E+03  0.15294330000E+03 0.  0.
<mgrwt>
<rscale>  0 0.10798982E+04</rscale>
<asrwt>0</asrwt>
<pdfrwt beam="1">  1        2 0.16370680E+00 0.11331560E+04</pdfrwt>
<pdfrwt beam="2">  1       -2 0.16964595E+00 0.11331560E+04</pdfrwt>
<totfact> 0.48112071E+00</totfact>
</mgrwt>
</event>
<event>
 4    5  0.7289609E-008  0.8450046E+03  0.7818608E-02  0.9620815E-01
         -2   -1    0    0    0  501 -0.00000000000E+00  0.00000000000E+00  0.87877481811E+03  0.87877481812E+03  0.25500000000E-02 0.  1.
          2   -1    0    0  501    0  0.00000000000E+00 -0.00000000000E+00 -0.13120445610E+04  0.13120445610E+04  0.25500000000E-02 0. -1.
    8880023    1    1    2    0    0  0.41162784921E+03 -0.33284393499E+03  0.58864152499E+03  0.10298211605E+04  0.65864270000E+03 0.  1.
    8880022    1    1    2    0    0 -0.41162784921E+03  0.33284393499E+03 -0.10219112679E+04  0.11609982186E+04  0.15294330000E+03 0.  0.
<mgrwt>
<rscale>  0 0.75933701E+03</rscale>
<asrwt>0</asrwt>
<pdfrwt beam="1">  1        2 0.20185301E+00 0.84500460E+03</pdfrwt>
<pdfrwt beam="2">  1       -2 0.13519613E+00 0.84500460E+03</pdfrwt>
<totfact> 0.64549918E+00</totfact>
</mgrwt>
</event>
<event>
 4    5  0.7289609E-008  0.7021678E+03  0.7818608E-02  0.9988324E-01
         -2   -1    0    0    0  501 -0.00000000000E+00  0.00000000000E+00  0.76026905013E+03  0.76026905013E+03  0.25500000000E-02 0.  1.
          2   -1    0    0  501    0  0.00000000000E+00 -0.00000000000E+00 -0.10685151578E+04  0.10685151578E+04  0.25500000000E-02 0. -1.
    8880023    1    1    2    0    0 -0.17152960316E+03 -0.17264721665E+03  0.57018771953E+03  0.90451849508E+03  0.65864270000E+03 0.  1.
    8880022    1    1    2    0    0  0.17152960316E+03  0.17264721665E+03 -0.87843382719E+03  0.92426571285E+03  0.15294330000E+03 0.  0.
<mgrwt>
<rscale>  0 0.56165171E+03</rscale>
<asrwt>0</asrwt>
<pdfrwt beam="1">  1        2 0.16438695E+00 0.70216784E+03</pdfrwt>
<pdfrwt beam="2">  1       -2 0.11696447E+00 0.70216784E+03</pdfrwt>
<totfact> 0.13196839E+01</totfact>
</mgrwt>
</event>
<event>
 4    5  0.7289609E-008  0.1235954E+04  0.7818608E-02  0.9122941E-01
         -2   -1    0    0    0  501 -0.00000000000E+00  0.00000000000E+00  0.79578909083E+03  0.79578909083E+03  0.25500000000E-02 0.  1.
          2   -1    0    0  501    0  0.00000000000E+00 -0.00000000000E+00 -0.30114838143E+04  0.30114838143E+04  0.25500000000E-02 0. -1.
    8880023    1    1    2    0    0 -0.10171495457E+04  0.24326797941E+03  0.12177701718E+03  0.12419389503E+04  0.65864270000E+03 0.  0.
    8880022    1    1    2    0    0  0.10171495457E+04 -0.24326797941E+03 -0.23374717407E+04  0.25653339548E+04  0.15294330000E+03 0.  0.
<mgrwt>
<rscale>  0 0.11885471E+04</rscale>
<asrwt>0</asrwt>
<pdfrwt beam="1">  1        2 0.46330520E+00 0.12359542E+04</pdfrwt>
<pdfrwt beam="2">  1       -2 0.12242909E+00 0.12359542E+04</pdfrwt>
<totfact> 0.85027543E-01</totfact>
</mgrwt>
</event>
<event>
 4    5  0.7289609E-008  0.7959370E+03  0.7818608E-02  0.9719651E-01
          2   -1    0    0  501    0  0.00000000000E+00  0.00000000000E+00  0.12142549384E+04  0.12142549385E+04  0.25500000000E-02 0. -1.
         -2   -1    0    0    0  501 -0.00000000000E+00 -0.00000000000E+00 -0.12211509335E+04  0.12211509335E+04  0.25500000000E-02 0.  1.
    8880023    1    1    2    0    0 -0.28950490368E+03 -0.34042983743E+03 -0.10340217340E+04  0.13048818783E+04  0.65864270000E+03 0.  1.
    8880022    1    1    2    0    0  0.28950490368E+03  0.34042983743E+03  0.10271257390E+04  0.11305239937E+04  0.15294330000E+03 0.  0.
<mgrwt>
<rscale>  0 0.69858749E+03</rscale>
<asrwt>0</asrwt>
<pdfrwt beam="1">  1        2 0.18680845E+00 0.79593704E+03</pdfrwt>
<pdfrwt beam="2">  1       -2 0.18786937E+00 0.79593704E+03</pdfrwt>
<totfact> 0.30303071E+00</totfact>
</mgrwt>
</event>
<event>
 4    5  0.7289609E-008  0.7592964E+03  0.7818608E-02  0.9806932E-01
          2   -1    0    0  501    0  0.00000000000E+00  0.00000000000E+00  0.27307049238E+04  0.27307049238E+04  0.25500000000E-02 0. -1.
         -2   -1    0    0    0  501 -0.00000000000E+00 -0.00000000000E+00 -0.16224102350E+03  0.16224102352E+03  0.25500000000E-02 0.  1.
    8880023    1    1    2    0    0  0.35559010417E+03  0.12757946000E+03  0.91017402125E+03  0.11853049380E+04  0.65864270000E+03 0.  1.
    8880022    1    1    2    0    0 -0.35559010417E+03 -0.12757946000E+03  0.16582898790E+04  0.17076410093E+04  0.15294330000E+03 0. -1.
<mgrwt>
<rscale>  0 0.64991835E+03</rscale>
<asrwt>0</asrwt>
<pdfrwt beam="1">  1        2 0.42010844E+00 0.75929642E+03</pdfrwt>
<pdfrwt beam="2">  1       -2 0.24960158E-01 0.75929642E+03</pdfrwt>
<totfact> 0.38306856E+01</totfact>
</mgrwt>
</event>
<event>
 4    5  0.7289609E-008  0.7085020E+03  0.7818608E-02  0.9963606E-01
          2   -1    0    0  501    0  0.00000000000E+00  0.00000000000E+00  0.14790877004E+04  0.14790877004E+04  0.25500000000E-02 0. -1.
         -2   -1    0    0    0  501 -0.00000000000E+00 -0.00000000000E+00 -0.38167992019E+03  0.38167992020E+03  0.25500000000E-02 0.  1.
    8880023    1    1    2    0    0 -0.14173004893E+03  0.21926574761E+03 -0.14270408858E+02  0.70864569827E+03  0.65864270000E+03 0.  1.
    8880022    1    1    2    0    0  0.14173004893E+03 -0.21926574761E+03  0.11116781890E+04  0.11521219223E+04  0.15294330000E+03 0.  0.
<mgrwt>
<rscale>  0 0.57275247E+03</rscale>
<asrwt>0</asrwt>
<pdfrwt beam="1">  1        2 0.22755195E+00 0.70850200E+03</pdfrwt>
<pdfrwt beam="2">  1       -2 0.58719989E-01 0.70850200E+03</pdfrwt>
<totfact> 0.36323762E+01</totfact>
</mgrwt>
</event>
<event>
 4    5  0.7289609E-008  0.1057211E+04  0.7818608E-02  0.9310263E-01
          2   -1    0    0  501    0  0.00000000000E+00  0.00000000000E+00  0.14823983255E+04  0.14823983255E+04  0.25500000000E-02 0. -1.
         -2   -1    0    0    0  501 -0.00000000000E+00 -0.00000000000E+00 -0.88969106939E+03  0.88969106939E+03  0.25500000000E-02 0.  1.
    8880023    1    1    2    0    0 -0.82553923941E+03  0.48676600484E+02 -0.34539701499E+03  0.11122022080E+04  0.65864270000E+03 0.  0.
    8880022    1    1    2    0    0  0.82553923941E+03 -0.48676600484E+02  0.93810427110E+03  0.12598871869E+04  0.15294330000E+03 0.  0.
<mgrwt>
<rscale>  0 0.99843504E+03</rscale>
<asrwt>0</asrwt>
<pdfrwt beam="1">  1        2 0.22806128E+00 0.10572108E+04</pdfrwt>
<pdfrwt beam="2">  1       -2 0.13687555E+00 0.10572108E+04</pdfrwt>
<totfact> 0.48810500E+00</totfact>
</mgrwt>
</event>
<event>
 4    5  0.7289609E-008  0.1106980E+04  0.7818608E-02  0.9253325E-01
          2   -1    0    0  501    0  0.00000000000E+00  0.00000000000E+00  0.26257640896E+04  0.26257640896E+04  0.25500000000E-02 0. -1.
         -2   -1    0    0    0  501 -0.00000000000E+00 -0.00000000000E+00 -0.42440070786E+03  0.42440070787E+03  0.25500000000E-02 0.  1.
    8880023    1    1    2    0    0  0.59118342627E+03 -0.66490309848E+03  0.73695702931E+03  0.13298533164E+04  0.65864270000E+03 0.  0.
    8880022    1    1    2    0    0 -0.59118342627E+03  0.66490309848E+03  0.14644063525E+04  0.17203114811E+04  0.15294330000E+03 0.  0.
<mgrwt>
<rscale>  0 0.10519582E+04</rscale>
<asrwt>0</asrwt>
<pdfrwt beam="1">  1        2 0.40396371E+00 0.11069798E+04</pdfrwt>
<pdfrwt beam="2">  1       -2 0.65292416E-01 0.11069798E+04</pdfrwt>
<totfact> 0.63575611E+00</totfact>
</mgrwt>
</event>
<event>
 4    5  0.7289609E-008  0.1387692E+04  0.7818608E-02  0.8993306E-01
         -2   -1    0    0    0  501 -0.00000000000E+00  0.00000000000E+00  0.13000009944E+04  0.13000009944E+04  0.25500000000E-02 0.  1.
          2   -1    0    0  501    0  0.00000000000E+00 -0.00000000000E+00 -0.32680129868E+04  0.32680129868E+04  0.25500000000E-02 0. -1.
    8880023    1    1    2    0    0 -0.29899599942E+03 -0.11842633760E+04  0.75493514152E+03  0.15797517607E+04  0.65864270000E+03 0.  0.
    8880022    1    1    2    0    0  0.29899599942E+03  0.11842633760E+04 -0.27229471339E+04  0.29882622205E+04  0.15294330000E+03 0.  0.
<mgrwt>
<rscale>  0 0.13467315E+04</rscale>
<asrwt>0</asrwt>
<pdfrwt beam="1">  1        2 0.50277123E+00 0.13876918E+04</pdfrwt>
<pdfrwt beam="2">  1       -2 0.20000015E+00 0.13876918E+04</pdfrwt>
<totfact> 0.14932562E-01</totfact>
</mgrwt>
</event>
<event>
 4    5  0.7289609E-008  0.8251343E+03  0.7818608E-02  0.9658875E-01
          2   -1    0    0  501    0  0.00000000000E+00  0.00000000000E+00  0.11492651388E+04  0.11492651388E+04  0.25500000000E-02 0. -1.
         -2   -1    0    0    0  501 -0.00000000000E+00 -0.00000000000E+00 -0.11024710307E+04  0.11024710307E+04  0.25500000000E-02 0.  1.
    8880023    1    1    2    0    0  0.48805361437E+03 -0.94021625874E+02 -0.86916264056E+03  0.11984532943E+04  0.65864270000E+03 0.  1.
    8880022    1    1    2    0    0 -0.48805361437E+03  0.94021625874E+02  0.91595674866E+03  0.10532828751E+04  0.15294330000E+03 0.  0.
<mgrwt>
<rscale>  0 0.73519060E+03</rscale>
<asrwt>0</asrwt>
<pdfrwt beam="1">  1        2 0.17681002E+00 0.82513429E+03</pdfrwt>
<pdfrwt beam="2">  1       -2 0.16961093E+00 0.82513429E+03</pdfrwt>
<totfact> 0.44107726E+00</totfact>
</mgrwt>
</event>
<event>
 4    5  0.7289609E-008  0.6607246E+03  0.7818608E-02  0.1023426E+00
          2   -1    0    0  501    0  0.00000000000E+00  0.00000000000E+00  0.66903381351E+03  0.66903381352E+03  0.25500000000E-02 0. -1.
         -2   -1    0    0    0  501 -0.00000000000E+00 -0.00000000000E+00 -0.47606839712E+03  0.47606839713E+03  0.25500000000E-02 0.  1.
    8880023    1    1    2    0    0 -0.48014511450E+01  0.52189111697E+02 -0.22418165191E+03  0.69772084434E+03  0.65864270000E+03 0.  1.
    8880022    1    1    2    0    0  0.48014511450E+01 -0.52189111697E+02  0.41714706830E+03  0.44738136631E+03  0.15294330000E+03 0.  0.
<mgrwt>
<rscale>  0 0.46470275E+03</rscale>
<asrwt>0</asrwt>
<pdfrwt beam="1">  1        2 0.10292828E+00 0.66072457E+03</pdfrwt>
<pdfrwt beam="2">  1       -2 0.73241292E-01 0.66072457E+03</pdfrwt>
<totfact> 0.74359333E+01</totfact>
</mgrwt>
</event>
<event>
 4    5  0.7289609E-008  0.8775015E+03  0.7818608E-02  0.9563159E-01
         -2   -1    0    0    0  501 -0.00000000000E+00  0.00000000000E+00  0.10504546052E+04  0.10504546052E+04  0.25500000000E-02 0.  1.
          2   -1    0    0  501    0  0.00000000000E+00 -0.00000000000E+00 -0.84810274771E+03  0.84810274772E+03  0.25500000000E-02 0. -1.
    8880023    1    1    2    0    0  0.15836770186E+03 -0.55777983954E+03  0.69745951533E+03  0.11209186680E+04  0.65864270000E+03 0.  1.
    8880022    1    1    2    0    0 -0.15836770186E+03  0.55777983954E+03 -0.49510765788E+03  0.77763868492E+03  0.15294330000E+03 0.  0.
<mgrwt>
<rscale>  0 0.79783283E+03</rscale>
<asrwt>0</asrwt>
<pdfrwt beam="1">  1        2 0.13047735E+00 0.87750150E+03</pdfrwt>
<pdfrwt beam="2">  1       -2 0.16160840E+00 0.87750150E+03</pdfrwt>
<totfact> 0.78288005E+00</totfact>
</mgrwt>
</event>
<event>
 4    5  0.7289609E-008  0.2788899E+04  0.7818608E-02  0.8312623E-01
          2   -1    0    0  501    0  0.00000000000E+00  0.00000000000E+00  0.44182172849E+04  0.44182172849E+04  0.25500000000E-02 0. -1.
         -2   -1    0    0    0  501 -0.00000000000E+00 -0.00000000000E+00 -0.23414448400E+04  0.23414448400E+04  0.25500000000E-02 0.  1.
    8880023    1    1    2    0    0  0.61294443565E+03 -0.26397814695E+04 -0.70126818881E+03  0.28757145837E+04  0.65864270000E+03 0.  1.
    8880022    1    1    2    0    0 -0.61294443565E+03  0.26397814695E+04  0.27780406337E+04  0.38839475413E+04  0.15294330000E+03 0.  0.
<mgrwt>
<rscale>  0 0.27700645E+04</rscale>
<asrwt>0</asrwt>
<pdfrwt beam="1">  1        2 0.67972573E+00 0.27888989E+04</pdfrwt>
<pdfrwt beam="2">  1       -2 0.36022229E+00 0.27888989E+04</pdfrwt>
<totfact> 0.15963643E-03</totfact>
</mgrwt>
</event>
<event>
 4    5  0.7289609E-008  0.9101151E+03  0.7818608E-02  0.9509985E-01
          2   -1    0    0  501    0  0.00000000000E+00  0.00000000000E+00  0.14834938120E+04  0.14834938120E+04  0.25500000000E-02 0. -1.
         -2   -1    0    0    0  501 -0.00000000000E+00 -0.00000000000E+00 -0.54636656292E+03  0.54636656293E+03  0.25500000000E-02 0.  1.
    8880023    1    1    2    0    0  0.62442124505E+03 -0.67804013695E+02  0.23192358204E+02  0.91041054876E+03  0.65864270000E+03 0.  1.
    8880022    1    1    2    0    0 -0.62442124505E+03  0.67804013695E+02  0.91393489085E+03  0.11194498262E+04  0.15294330000E+03 0.  0.
<mgrwt>
<rscale>  0 0.83551664E+03</rscale>
<asrwt>0</asrwt>
<pdfrwt beam="1">  1        2 0.22822981E+00 0.91011509E+03</pdfrwt>
<pdfrwt beam="2">  1       -2 0.84056396E-01 0.91011509E+03</pdfrwt>
<totfact> 0.16117414E+01</totfact>
</mgrwt>
</event>
<event>
 4    5  0.7289609E-008  0.7345142E+03  0.7818608E-02  0.9876225E-01
         -2   -1    0    0    0  501 -0.00000000000E+00  0.00000000000E+00  0.51880985298E+03  0.51880985299E+03  0.25500000000E-02 0.  1.
          2   -1    0    0  501    0  0.00000000000E+00 -0.00000000000E+00 -0.13193135826E+04  0.13193135826E+04  0.25500000000E-02 0. -1.
    8880023    1    1    2    0    0  0.31775539757E+03  0.68792994710E+02  0.21139597293E+03  0.76432940048E+03  0.65864270000E+03 0.  1.
    8880022    1    1    2    0    0 -0.31775539757E+03 -0.68792994710E+02 -0.10118997025E+04  0.10737940351E+04  0.15294330000E+03 0.  0.
<mgrwt>
<rscale>  0 0.61427501E+03</rscale>
<asrwt>0</asrwt>
<pdfrwt beam="1">  1        2 0.20297132E+00 0.73451424E+03</pdfrwt>
<pdfrwt beam="2">  1       -2 0.79816901E-01 0.73451424E+03</pdfrwt>
<totfact> 0.22887112E+01</totfact>
</mgrwt>
</event>
<event>
 4    5  0.7289609E-008  0.9417676E+03  0.7818608E-02  0.9462059E-01
          2   -1    0    0  501    0  0.00000000000E+00  0.00000000000E+00  0.12007312911E+04  0.12007312911E+04  0.25500000000E-02 0. -1.
         -2   -1    0    0    0  501 -0.00000000000E+00 -0.00000000000E+00 -0.99528790099E+03  0.99528790099E+03  0.25500000000E-02 0.  1.
    8880023    1    1    2    0    0  0.63461621083E+03  0.22445097233E+03  0.83733441786E+03  0.12601805853E+04  0.65864270000E+03 0.  0.
    8880022    1    1    2    0    0 -0.63461621083E+03 -0.22445097233E+03 -0.63189102773E+03  0.93583860679E+03  0.15294330000E+03 0.  0.
<mgrwt>
<rscale>  0 0.87139795E+03</rscale>
<asrwt>0</asrwt>
<pdfrwt beam="1">  1        2 0.18472789E+00 0.94176758E+03</pdfrwt>
<pdfrwt beam="2">  1       -2 0.15312122E+00 0.94176758E+03</pdfrwt>
<totfact> 0.53535776E+00</totfact>
</mgrwt>
</event>
<event>
 4    5  0.7289609E-008  0.9755240E+03  0.7818608E-02  0.9414304E-01
         -2   -1    0    0    0  501 -0.00000000000E+00  0.00000000000E+00  0.15190819776E+04  0.15190819776E+04  0.25500000000E-02 0.  1.
          2   -1    0    0  501    0  0.00000000000E+00 -0.00000000000E+00 -0.53164093365E+03  0.53164093366E+03  0.25500000000E-02 0. -1.
    8880023    1    1    2    0    0 -0.68480226799E+03 -0.22109443551E+03  0.86725376589E+03  0.13052877830E+04  0.65864270000E+03 0.  0.
    8880022    1    1    2    0    0  0.68480226799E+03  0.22109443551E+03  0.12018727805E+03  0.74543512829E+03  0.15294330000E+03 0.  0.
<mgrwt>
<rscale>  0 0.90907782E+03</rscale>
<asrwt>0</asrwt>
<pdfrwt beam="1">  1        2 0.81790913E-01 0.97552401E+03</pdfrwt>
<pdfrwt beam="2">  1       -2 0.23370492E+00 0.97552401E+03</pdfrwt>
<totfact> 0.46462974E+00</totfact>
</mgrwt>
</event>
<event>
 4    5  0.7289609E-008  0.9254060E+03  0.7818608E-02  0.9486419E-01
          2   -1    0    0  501    0  0.00000000000E+00  0.00000000000E+00  0.49961124262E+03  0.49961124263E+03  0.25500000000E-02 0. -1.
         -2   -1    0    0    0  501 -0.00000000000E+00 -0.00000000000E+00 -0.29582548926E+04  0.29582548926E+04  0.25500000000E-02 0.  1.
    8880023    1    1    2    0    0 -0.44585583299E+03 -0.47305245523E+03 -0.26133676442E+04  0.27723756418E+04  0.65864270000E+03 0.  1.
    8880022    1    1    2    0    0  0.44585583299E+03  0.47305245523E+03  0.15472399420E+03  0.68549049345E+03  0.15294330000E+03 0.  0.
<mgrwt>
<rscale>  0 0.85292519E+03</rscale>
<asrwt>0</asrwt>
<pdfrwt beam="1">  1        2 0.76863270E-01 0.92540599E+03</pdfrwt>
<pdfrwt beam="2">  1       -2 0.45511613E+00 0.92540599E+03</pdfrwt>
<totfact> 0.20435609E-01</totfact>
</mgrwt>
</event>
<event>
 4    5  0.7289609E-008  0.8880982E+03  0.7818608E-02  0.9545414E-01
         -2   -1    0    0    0  501 -0.00000000000E+00  0.00000000000E+00  0.54269048125E+03  0.54269048125E+03  0.25500000000E-02 0.  1.
          2   -1    0    0  501    0  0.00000000000E+00 -0.00000000000E+00 -0.18638470262E+04  0.18638470262E+04  0.25500000000E-02 0. -1.
    8880023    1    1    2    0    0  0.51833759715E+03 -0.29365680234E+03  0.64572163808E+02  0.89044256007E+03  0.65864270000E+03 0.  0.
    8880022    1    1    2    0    0 -0.51833759715E+03  0.29365680234E+03 -0.13857287088E+04  0.15160949474E+04  0.15294330000E+03 0.  0.
<mgrwt>
<rscale>  0 0.81016832E+03</rscale>
<asrwt>0</asrwt>
<pdfrwt beam="1">  1        2 0.28674569E+00 0.88809819E+03</pdfrwt>
<pdfrwt beam="2">  1       -2 0.83490844E-01 0.88809819E+03</pdfrwt>
<totfact> 0.10112267E+01</totfact>
</mgrwt>
</event>
<event>
 4    5  0.7289609E-008  0.1718567E+04  0.7818608E-02  0.8768972E-01
          2   -1    0    0  501    0  0.00000000000E+00  0.00000000000E+00  0.27709212888E+04  0.27709212888E+04  0.25500000000E-02 0. -1.
         -2   -1    0    0    0  501 -0.00000000000E+00 -0.00000000000E+00 -0.16461223304E+04  0.16461223304E+04  0.25500000000E-02 0.  1.
    8880023    1    1    2    0    0 -0.13554475089E+04  0.82609015735E+03  0.19683198992E+04  0.26129975755E+04  0.65864270000E+03 0.  0.
    8880022    1    1    2    0    0  0.13554475089E+04 -0.82609015735E+03 -0.84352094082E+03  0.18040460438E+04  0.15294330000E+03 0.  0.
<mgrwt>
<rscale>  0 0.16867252E+04</rscale>
<asrwt>0</asrwt>
<pdfrwt beam="1">  1        2 0.42629558E+00 0.17185672E+04</pdfrwt>
<pdfrwt beam="2">  1       -2 0.25324959E+00 0.17185672E+04</pdfrwt>
<totfact> 0.13517101E-01</totfact>
</mgrwt>
</event>
<event>
 4    5  0.7289609E-008  0.1115854E+04  0.7818608E-02  0.9243607E-01
         -2   -1    0    0    0  501 -0.00000000000E+00  0.00000000000E+00  0.86331109972E+03  0.86331109972E+03  0.25500000000E-02 0.  1.
          2   -1    0    0  501    0  0.00000000000E+00 -0.00000000000E+00 -0.25104539335E+04  0.25104539335E+04  0.25500000000E-02 0. -1.
    8880023    1    1    2    0    0 -0.85959783820E+03  0.26909446889E+03  0.35669277751E+03  0.11714777934E+04  0.65864270000E+03 0.  0.
    8880022    1    1    2    0    0  0.85959783820E+03 -0.26909446889E+03 -0.20038356113E+04  0.22022872398E+04  0.15294330000E+03 0.  0.
<mgrwt>
<rscale>  0 0.10614454E+04</rscale>
<asrwt>0</asrwt>
<pdfrwt beam="1">  1        2 0.38622368E+00 0.11158541E+04</pdfrwt>
<pdfrwt beam="2">  1       -2 0.13281709E+00 0.11158541E+04</pdfrwt>
<totfact> 0.13979468E+00</totfact>
</mgrwt>
</event>
<event>
 4    5  0.7289609E-008  0.6604774E+03  0.7818608E-02  0.1023673E+00
         -2   -1    0    0    0  501 -0.00000000000E+00  0.00000000000E+00  0.92820085450E+02  0.92820085485E+02  0.25500000000E-02 0.  1.
          2   -1    0    0  501    0  0.00000000000E+00 -0.00000000000E+00 -0.34569186361E+04  0.34569186361E+04  0.25500000000E-02 0. -1.
    8880023    1    1    2    0    0 -0.17134452318E+02 -0.46115620430E+02 -0.11225475706E+04  0.13024375204E+04  0.65864270000E+03 0.  1.
    8880022    1    1    2    0    0  0.17134452318E+02  0.46115620430E+02 -0.22415509800E+04  0.22473012012E+04  0.15294330000E+03 0.  0.
<mgrwt>
<rscale>  0 0.46384296E+03</rscale>
<asrwt>0</asrwt>
<pdfrwt beam="1">  1        2 0.53183354E+00 0.66047744E+03</pdfrwt>
<pdfrwt beam="2">  1       -2 0.14280016E-01 0.66047744E+03</pdfrwt>
<totfact> 0.36172548E+01</totfact>
</mgrwt>
</event>
<event>
 4    5  0.7289609E-008  0.6692727E+03  0.7818608E-02  0.1016190E+00
          2   -1    0    0  501    0  0.00000000000E+00  0.00000000000E+00  0.40897099436E+04  0.40897099436E+04  0.25500000000E-02 0. -1.
         -2   -1    0    0    0  501 -0.00000000000E+00 -0.00000000000E+00 -0.13105415215E+03  0.13105415217E+03  0.25500000000E-02 0.  1.
    8880023    1    1    2    0    0  0.77187599881E+02  0.90320485069E+02  0.74577290022E+03  0.10020494701E+04  0.65864270000E+03 0.  1.
    8880022    1    1    2    0    0 -0.77187599881E+02 -0.90320485069E+02  0.32128828912E+04  0.32187146256E+04  0.15294330000E+03 0.  0.
<mgrwt>
<rscale>  0 0.49087046E+03</rscale>
<asrwt>0</asrwt>
<pdfrwt beam="1">  1        2 0.62918603E+00 0.66927268E+03</pdfrwt>
<pdfrwt beam="2">  1       -2 0.20162181E-01 0.66927268E+03</pdfrwt>
<totfact> 0.68499718E+00</totfact>
</mgrwt>
</event>
<event>
 4    5  0.7289609E-008  0.9304665E+03  0.7818608E-02  0.9478794E-01
          2   -1    0    0  501    0  0.00000000000E+00  0.00000000000E+00  0.12215507764E+04  0.12215507764E+04  0.25500000000E-02 0. -1.
         -2   -1    0    0    0  501 -0.00000000000E+00 -0.00000000000E+00 -0.70105075519E+03  0.70105075520E+03  0.25500000000E-02 0.  1.
    8880023    1    1    2    0    0  0.42795638548E+03  0.49880959952E+03 -0.18244908916E+03  0.94818540425E+03  0.65864270000E+03 0.  1.
    8880022    1    1    2    0    0 -0.42795638548E+03 -0.49880959952E+03  0.70294911035E+03  0.97441612733E+03  0.15294330000E+03 0.  0.
<mgrwt>
<rscale>  0 0.85865488E+03</rscale>
<asrwt>0</asrwt>
<pdfrwt beam="1">  1        2 0.18793089E+00 0.93046649E+03</pdfrwt>
<pdfrwt beam="2">  1       -2 0.10785396E+00 0.93046649E+03</pdfrwt>
<totfact> 0.12672456E+01</totfact>
</mgrwt>
</event>
<event>
 4    5  0.7289609E-008  0.7700529E+03  0.7818608E-02  0.9779744E-01
         -2   -1    0    0    0  501 -0.00000000000E+00  0.00000000000E+00  0.39671978389E+03  0.39671978390E+03  0.25500000000E-02 0.  1.
          2   -1    0    0  501    0  0.00000000000E+00 -0.00000000000E+00 -0.17717594143E+04  0.17717594143E+04  0.25500000000E-02 0. -1.
    8880023    1    1    2    0    0  0.23196679310E+03  0.32459610913E+03 -0.44857731888E+02  0.77135831462E+03  0.65864270000E+03 0.  1.
    8880022    1    1    2    0    0 -0.23196679310E+03 -0.32459610913E+03 -0.13301818985E+04  0.13971208836E+04  0.15294330000E+03 0.  0.
<mgrwt>
<rscale>  0 0.66461015E+03</rscale>
<asrwt>0</asrwt>
<pdfrwt beam="1">  1        2 0.27257837E+00 0.77005288E+03</pdfrwt>
<pdfrwt beam="2">  1       -2 0.61033814E-01 0.77005288E+03</pdfrwt>
<totfact> 0.22932295E+01</totfact>
</mgrwt>
</event>
<event>
 4    5  0.7289609E-008  0.7665870E+03  0.7818608E-02  0.9788344E-01
          2   -1    0    0  501    0  0.00000000000E+00  0.00000000000E+00  0.29990793974E+04  0.29990793974E+04  0.25500000000E-02 0. -1.
         -2   -1    0    0    0  501 -0.00000000000E+00 -0.00000000000E+00 -0.80818001629E+03  0.80818001630E+03  0.25500000000E-02 0.  1.
    8880023    1    1    2    0    0  0.16706230943E+03  0.35487400007E+03 -0.60703607918E+03  0.97782839949E+03  0.65864270000E+03 0.  1.
    8880022    1    1    2    0    0 -0.16706230943E+03 -0.35487400007E+03  0.27979354602E+04  0.28294310142E+04  0.15294330000E+03 0.  0.
<mgrwt>
<rscale>  0 0.65991862E+03</rscale>
<asrwt>0</asrwt>
<pdfrwt beam="1">  1        2 0.46139683E+00 0.76658697E+03</pdfrwt>
<pdfrwt beam="2">  1       -2 0.12433539E+00 0.76658697E+03</pdfrwt>
<totfact> 0.90185187E-01</totfact>
</mgrwt>
</event>
<event>
 4    5  0.7289609E-008  0.1172189E+04  0.7818608E-02  0.9184642E-01
         -2   -1    0    0    0  501 -0.00000000000E+00  0.00000000000E+00  0.17746058891E+04  0.17746058891E+04  0.25500000000E-02 0.  1.
          2   -1    0    0  501    0  0.00000000000E+00 -0.00000000000E+00 -0.16172973013E+04  0.16172973013E+04  0.25500000000E-02 0. -1.
    8880023    1    1    2    0    0 -0.99910178433E+02  0.96448666126E+03  0.13885969764E+04  0.18172034373E+04  0.65864270000E+03 0.  0.
    8880022    1    1    2    0    0  0.99910178433E+02 -0.96448666126E+03 -0.12312883886E+04  0.15746997531E+04  0.15294330000E+03 0.  0.
<mgrwt>
<rscale>  0 0.11213360E+04</rscale>
<asrwt>0</asrwt>
<pdfrwt beam="1">  1        2 0.24881497E+00 0.11721889E+04</pdfrwt>
<pdfrwt beam="2">  1       -2 0.27301629E+00 0.11721889E+04</pdfrwt>
<totfact> 0.49496780E-01</totfact>
</mgrwt>
</event>
<event>
 4    5  0.7289609E-008  0.1072488E+04  0.7818608E-02  0.9292323E-01
          2   -1    0    0  501    0  0.00000000000E+00  0.00000000000E+00  0.31480683218E+04  0.31480683218E+04  0.25500000000E-02 0. -1.
         -2   -1    0    0    0  501 -0.00000000000E+00 -0.00000000000E+00 -0.64301754128E+03  0.64301754129E+03  0.25500000000E-02 0.  1.
    8880023    1    1    2    0    0  0.80498275099E+03 -0.26157977115E+03 -0.71392369817E+02  0.10748619831E+04  0.65864270000E+03 0.  1.
    8880022    1    1    2    0    0 -0.80498275099E+03  0.26157977115E+03  0.25764431504E+04  0.27162238800E+04  0.15294330000E+03 0.  0.
<mgrwt>
<rscale>  0 0.10149267E+04</rscale>
<asrwt>0</asrwt>
<pdfrwt beam="1">  1        2 0.48431820E+00 0.10724884E+04</pdfrwt>
<pdfrwt beam="2">  1       -2 0.98925776E-01 0.10724884E+04</pdfrwt>
<totfact> 0.12015066E+00</totfact>
</mgrwt>
</event>
<event>
 4    5  0.7289609E-008  0.7469281E+03  0.7818608E-02  0.9840207E-01
         -2   -1    0    0    0  501 -0.00000000000E+00  0.00000000000E+00  0.84561321091E+03  0.84561321092E+03  0.25500000000E-02 0.  1.
          2   -1    0    0  501    0  0.00000000000E+00 -0.00000000000E+00 -0.75680311340E+03  0.75680311341E+03  0.25500000000E-02 0. -1.
    8880023    1    1    2    0    0 -0.19485346124E+03 -0.29346818494E+03  0.60348157479E+03  0.96025604101E+03  0.65864270000E+03 0.  1.
    8880022    1    1    2    0    0  0.19485346124E+03  0.29346818494E+03 -0.51467147727E+03  0.64216028331E+03  0.15294330000E+03 0.  0.
<mgrwt>
<rscale>  0 0.63248743E+03</rscale>
<asrwt>0</asrwt>
<pdfrwt beam="1">  1        2 0.11643125E+00 0.74692814E+03</pdfrwt>
<pdfrwt beam="2">  1       -2 0.13009434E+00 0.74692814E+03</pdfrwt>
<totfact> 0.16306613E+01</totfact>
</mgrwt>
</event>
<event>
 4    5  0.7289609E-008  0.1060499E+04  0.7818608E-02  0.9306365E-01
         -2   -1    0    0    0  501 -0.00000000000E+00  0.00000000000E+00  0.12374327731E+04  0.12374327731E+04  0.25500000000E-02 0.  1.
          2   -1    0    0  501    0  0.00000000000E+00 -0.00000000000E+00 -0.12772803291E+04  0.12772803291E+04  0.25500000000E-02 0. -1.
    8880023    1    1    2    0    0  0.81936391890E+03  0.13961170130E+03  0.79605111710E+03  0.13260302583E+04  0.65864270000E+03 0.  0.
    8880022    1    1    2    0    0 -0.81936391890E+03 -0.13961170130E+03 -0.83589867304E+03  0.11886828439E+04  0.15294330000E+03 0. -1.
<mgrwt>
<rscale>  0 0.10019899E+04</rscale>
<asrwt>0</asrwt>
<pdfrwt beam="1">  1        2 0.19650467E+00 0.10604993E+04</pdfrwt>
<pdfrwt beam="2">  1       -2 0.19037427E+00 0.10604993E+04</pdfrwt>
<totfact> 0.25875735E+00</totfact>
</mgrwt>
</event>
<event>
 4    5  0.7289609E-008  0.7263293E+03  0.7818608E-02  0.9901724E-01
          2   -1    0    0  501    0  0.00000000000E+00  0.00000000000E+00  0.22785363872E+04  0.22785363872E+04  0.25500000000E-02 0. -1.
         -2   -1    0    0    0  501 -0.00000000000E+00 -0.00000000000E+00 -0.55729397498E+03  0.55729397499E+03  0.25500000000E-02 0.  1.
    8880023    1    1    2    0    0  0.20537449254E+03 -0.22708017415E+03 -0.29997830106E+03  0.78583794452E+03  0.65864270000E+03 0.  1.
    8880022    1    1    2    0    0 -0.20537449254E+03  0.22708017415E+03  0.20212207133E+04  0.20499924177E+04  0.15294330000E+03 0.  0.
<mgrwt>
<rscale>  0 0.60177808E+03</rscale>
<asrwt>0</asrwt>
<pdfrwt beam="1">  1        2 0.35054406E+00 0.72632933E+03</pdfrwt>
<pdfrwt beam="2">  1       -2 0.85737534E-01 0.72632933E+03</pdfrwt>
<totfact> 0.57698982E+00</totfact>
</mgrwt>
</event>
<event>
 4    5  0.7289609E-008  0.8512379E+03  0.7818608E-02  0.9609344E-01
         -2   -1    0    0    0  501 -0.00000000000E+00  0.00000000000E+00  0.10887617121E+04  0.10887617121E+04  0.25500000000E-02 0.  1.
          2   -1    0    0  501    0  0.00000000000E+00 -0.00000000000E+00 -0.30033961329E+04  0.30033961329E+04  0.25500000000E-02 0. -1.
    8880023    1    1    2    0    0  0.53466048727E+03  0.70241988999E+02  0.89030145511E+03  0.12317640443E+04  0.65864270000E+03 0.  1.
    8880022    1    1    2    0    0 -0.53466048727E+03 -0.70241988999E+02 -0.28049358759E+04  0.28603938006E+04  0.15294330000E+03 0.  0.
<mgrwt>
<rscale>  0 0.76680832E+03</rscale>
<asrwt>0</asrwt>
<pdfrwt beam="1">  1        2 0.46206094E+00 0.85123791E+03</pdfrwt>
<pdfrwt beam="2">  1       -2 0.16750180E+00 0.85123791E+03</pdfrwt>
<totfact> 0.40283326E-01</totfact>
</mgrwt>
</event>
<event>
 4    5  0.7289609E-008  0.9548425E+03  0.7818608E-02  0.9443181E-01
         -2   -1    0    0    0  501 -0.00000000000E+00  0.00000000000E+00  0.58244894450E+03  0.58244894450E+03  0.25500000000E-02 0.  1.
          2   -1    0    0  501    0  0.00000000000E+00 -0.00000000000E+00 -0.13033838535E+04  0.13033838535E+04  0.25500000000E-02 0. -1.
    8880023    1    1    2    0    0  0.24169418231E+02  0.69089055019E+03 -0.13009775884E+03  0.96366464407E+03  0.65864270000E+03 0.  0.
    8880022    1    1    2    0    0 -0.24169418231E+02 -0.69089055019E+03 -0.59083715018E+03  0.92216815395E+03  0.15294330000E+03 0.  0.
<mgrwt>
<rscale>  0 0.88605689E+03</rscale>
<asrwt>0</asrwt>
<pdfrwt beam="1">  1        2 0.20052059E+00 0.95484246E+03</pdfrwt>
<pdfrwt beam="2">  1       -2 0.89607531E-01 0.95484246E+03</pdfrwt>
<totfact> 0.17555960E+01</totfact>
</mgrwt>
</event>
<event>
 4    5  0.7289609E-008  0.1197584E+04  0.7818608E-02  0.9159475E-01
         -2   -1    0    0    0  501 -0.00000000000E+00  0.00000000000E+00  0.11244062488E+04  0.11244062488E+04  0.25500000000E-02 0.  1.
          2   -1    0    0  501    0  0.00000000000E+00 -0.00000000000E+00 -0.49639342922E+04  0.49639342922E+04  0.25500000000E-02 0. -1.
    8880023    1    1    2    0    0  0.99735321633E+03 -0.75385481897E+02  0.73373461846E+03  0.14044832166E+04  0.65864270000E+03 0.  0.
    8880022    1    1    2    0    0 -0.99735321633E+03  0.75385481897E+02 -0.45732626618E+04  0.46838573245E+04  0.15294330000E+03 0.  0.
<mgrwt>
<rscale>  0 0.11481686E+04</rscale>
<asrwt>0</asrwt>
<pdfrwt beam="1">  1        2 0.76368219E+00 0.11975837E+04</pdfrwt>
<pdfrwt beam="2">  1       -2 0.17298558E+00 0.11975837E+04</pdfrwt>
<totfact> 0.80654789E-03</totfact>
</mgrwt>
</event>
<event>
 4    5  0.7289609E-008  0.9748904E+03  0.7818608E-02  0.9415172E-01
          2   -1    0    0  501    0  0.00000000000E+00  0.00000000000E+00  0.16127465253E+04  0.16127465253E+04  0.25500000000E-02 0. -1.
         -2   -1    0    0    0  501 -0.00000000000E+00 -0.00000000000E+00 -0.28967586810E+04  0.28967586810E+04  0.25500000000E-02 0.  1.
    8880023    1    1    2    0    0 -0.65084701818E+03  0.30495767747E+03 -0.27238135343E+04  0.28930211548E+04  0.65864270000E+03 0.  0.
    8880022    1    1    2    0    0  0.65084701818E+03 -0.30495767747E+03  0.14398013786E+04  0.16164840515E+04  0.15294330000E+03 0.  0.
<mgrwt>
<rscale>  0 0.90837531E+03</rscale>
<asrwt>0</asrwt>
<pdfrwt beam="1">  1        2 0.24811485E+00 0.97489037E+03</pdfrwt>
<pdfrwt beam="2">  1       -2 0.44565518E+00 0.97489037E+03</pdfrwt>
<totfact> 0.41717653E-02</totfact>
</mgrwt>
</event>
<event>
 4    5  0.7289609E-008  0.7708246E+03  0.7818608E-02  0.9777849E-01
          2   -1    0    0  501    0  0.00000000000E+00  0.00000000000E+00  0.11977921762E+04  0.11977921762E+04  0.25500000000E-02 0. -1.
         -2   -1    0    0    0  501 -0.00000000000E+00 -0.00000000000E+00 -0.72534203296E+03  0.72534203296E+03  0.25500000000E-02 0.  1.
    8880023    1    1    2    0    0  0.45037186095E+01  0.40042488046E+03 -0.45945394777E+03  0.89736754162E+03  0.65864270000E+03 0.  1.
    8880022    1    1    2    0    0 -0.45037186095E+01 -0.40042488046E+03  0.93190409099E+03  0.10257666675E+04  0.15294330000E+03 0.  0.
<mgrwt>
<rscale>  0 0.66564963E+03</rscale>
<asrwt>0</asrwt>
<pdfrwt beam="1">  1        2 0.18427572E+00 0.77082461E+03</pdfrwt>
<pdfrwt beam="2">  1       -2 0.11159108E+00 0.77082461E+03</pdfrwt>
<totfact> 0.12260074E+01</totfact>
</mgrwt>
</event>
<event>
 4    5  0.7289609E-008  0.8083541E+03  0.7818608E-02  0.9693016E-01
         -2   -1    0    0    0  501 -0.00000000000E+00  0.00000000000E+00  0.39737214205E+03  0.39737214206E+03  0.25500000000E-02 0.  1.
          2   -1    0    0  501    0  0.00000000000E+00 -0.00000000000E+00 -0.31769825836E+04  0.31769825836E+04  0.25500000000E-02 0. -1.
    8880023    1    1    2    0    0 -0.46652135712E+03  0.44541792907E+02 -0.60166186305E+02  0.81059010863E+03  0.65864270000E+03 0.  0.
    8880022    1    1    2    0    0  0.46652135712E+03 -0.44541792907E+02 -0.27194442552E+04  0.27637646170E+04  0.15294330000E+03 0.  0.
<mgrwt>
<rscale>  0 0.71434169E+03</rscale>
<asrwt>0</asrwt>
<pdfrwt beam="1">  1        2 0.48876653E+00 0.80835410E+03</pdfrwt>
<pdfrwt beam="2">  1       -2 0.61134178E-01 0.80835410E+03</pdfrwt>
<totfact> 0.35449177E+00</totfact>
</mgrwt>
</event>
<event>
 4    5  0.7289609E-008  0.6984001E+03  0.7818608E-02  0.1000390E+00
          2   -1    0    0  501    0  0.00000000000E+00  0.00000000000E+00  0.14910887622E+04  0.14910887622E+04  0.25500000000E-02 0. -1.
         -2   -1    0    0    0  501 -0.00000000000E+00 -0.00000000000E+00 -0.44161525513E+03  0.44161525514E+03  0.25500000000E-02 0.  1.
    8880023    1    1    2    0    0  0.17092855788E+02  0.23164686863E+03 -0.13902296854E+03  0.71210254143E+03  0.65864270000E+03 0.  1.
    8880022    1    1    2    0    0 -0.17092855788E+02 -0.23164686863E+03  0.11884964756E+04  0.12206014759E+04  0.15294330000E+03 0.  0.
<mgrwt>
<rscale>  0 0.55479379E+03</rscale>
<asrwt>0</asrwt>
<pdfrwt beam="1">  1        2 0.22939827E+00 0.69840006E+03</pdfrwt>
<pdfrwt beam="2">  1       -2 0.67940810E-01 0.69840006E+03</pdfrwt>
<totfact> 0.26237242E+01</totfact>
</mgrwt>
</event>
<event>
 4    5  0.7289609E-008  0.1081481E+04  0.7818608E-02  0.9281961E-01
         -2   -1    0    0    0  501 -0.00000000000E+00  0.00000000000E+00  0.14756188229E+04  0.14756188229E+04  0.25500000000E-02 0.  1.
          2   -1    0    0  501    0  0.00000000000E+00 -0.00000000000E+00 -0.15956651177E+04  0.15956651177E+04  0.25500000000E-02 0. -1.
    8880023    1    1    2    0    0 -0.85746933736E+03  0.23165221916E+02  0.11192273274E+04  0.15563644524E+04  0.65864270000E+03 0.  1.
    8880022    1    1    2    0    0  0.85746933736E+03 -0.23165221916E+02 -0.12392736222E+04  0.15149194882E+04  0.15294330000E+03 0.  0.
<mgrwt>
<rscale>  0 0.10246070E+04</rscale>
<asrwt>0</asrwt>
<pdfrwt beam="1">  1        2 0.24548694E+00 0.10814807E+04</pdfrwt>
<pdfrwt beam="2">  1       -2 0.22701828E+00 0.10814807E+04</pdfrwt>
<totfact> 0.98614277E-01</totfact>
</mgrwt>
</event>
<event>
 4    5  0.7289609E-008  0.1980657E+04  0.7818608E-02  0.8628682E-01
          2   -1    0    0  501    0  0.00000000000E+00  0.00000000000E+00  0.28344966383E+04  0.28344966383E+04  0.25500000000E-02 0. -1.
         -2   -1    0    0    0  501 -0.00000000000E+00 -0.00000000000E+00 -0.14441935193E+04  0.14441935193E+04  0.25500000000E-02 0.  1.
    8880023    1    1    2    0    0  0.13354573361E+04 -0.13060412505E+04  0.62187146248E+02  0.19816325321E+04  0.65864270000E+03 0.  0.
    8880022    1    1    2    0    0 -0.13354573361E+04  0.13060412505E+04  0.13281159728E+04  0.22970576255E+04  0.15294330000E+03 0.  0.
<mgrwt>
<rscale>  0 0.19534854E+04</rscale>
<asrwt>0</asrwt>
<pdfrwt beam="1">  1        2 0.43607640E+00 0.19806565E+04</pdfrwt>
<pdfrwt beam="2">  1       -2 0.22218362E+00 0.19806565E+04</pdfrwt>
<totfact> 0.18839155E-01</totfact>
</mgrwt>
</event>
<event>
 4    5  0.7289609E-008  0.9715133E+03  0.7818608E-02  0.9419814E-01
         -2   -1    0    0    0  501 -0.00000000000E+00  0.00000000000E+00  0.76807844896E+03  0.76807844896E+03  0.25500000000E-02 0.  1.
          2   -1    0    0  501    0  0.00000000000E+00 -0.00000000000E+00 -0.21463879715E+04  0.21463879715E+04  0.25500000000E-02 0. -1.
    8880023    1    1    2    0    0  0.55415616225E+02  0.71200911026E+03  0.35438746090E+03  0.10341317819E+04  0.65864270000E+03 0.  0.
    8880022    1    1    2    0    0 -0.55415616225E+02 -0.71200911026E+03 -0.17326969834E+04  0.18803346386E+04  0.15294330000E+03 0.  0.
<mgrwt>
<rscale>  0 0.90462830E+03</rscale>
<asrwt>0</asrwt>
<pdfrwt beam="1">  1        2 0.33021353E+00 0.97151329E+03</pdfrwt>
<pdfrwt beam="2">  1       -2 0.11816592E+00 0.97151329E+03</pdfrwt>
<totfact> 0.30688584E+00</totfact>
</mgrwt>
</event>
<event>
 4    5  0.7289609E-008  0.6940788E+03  0.7818608E-02  0.1002271E+00
          2   -1    0    0  501    0  0.00000000000E+00  0.00000000000E+00  0.29528209903E+04  0.29528209903E+04  0.25500000000E-02 0. -1.
         -2   -1    0    0    0  501 -0.00000000000E+00 -0.00000000000E+00 -0.87732344904E+02  0.87732344941E+02  0.25500000000E-02 0.  1.
    8880023    1    1    2    0    0 -0.51112770352E+02  0.21289123935E+03  0.15453651163E+04  0.16940775496E+04  0.65864270000E+03 0.  1.
    8880022    1    1    2    0    0  0.51112770352E+02 -0.21289123935E+03  0.13197235291E+04  0.13464757856E+04  0.15294330000E+03 0.  0.
<mgrwt>
<rscale>  0 0.54665487E+03</rscale>
<asrwt>0</asrwt>
<pdfrwt beam="1">  1        2 0.45428019E+00 0.69407881E+03</pdfrwt>
<pdfrwt beam="2">  1       -2 0.13497283E-01 0.69407881E+03</pdfrwt>
<totfact> 0.82769677E+01</totfact>
</mgrwt>
</event>
<event>
 4    5  0.7289609E-008  0.9904219E+03  0.7818608E-02  0.9394197E-01
          2   -1    0    0  501    0  0.00000000000E+00  0.00000000000E+00  0.28644064230E+04  0.28644064230E+04  0.25500000000E-02 0. -1.
         -2   -1    0    0    0  501 -0.00000000000E+00 -0.00000000000E+00 -0.50072658239E+03  0.50072658240E+03  0.25500000000E-02 0.  1.
    8880023    1    1    2    0    0 -0.70874146535E+03 -0.21168570144E+03  0.11992638103E+03  0.99765617526E+03  0.65864270000E+03 0.  1.
    8880022    1    1    2    0    0  0.70874146535E+03  0.21168570144E+03  0.22437534595E+04  0.23674768301E+04  0.15294330000E+03 0.  0.
<mgrwt>
<rscale>  0 0.92554756E+03</rscale>
<asrwt>0</asrwt>
<pdfrwt beam="1">  1        2 0.44067790E+00 0.99042188E+03</pdfrwt>
<pdfrwt beam="2">  1       -2 0.77034861E-01 0.99042188E+03</pdfrwt>
<totfact> 0.32410255E+00</totfact>
</mgrwt>
</event>
<event>
 4    5  0.7289609E-008  0.1390082E+04  0.7818608E-02  0.8991428E-01
          2   -1    0    0  501    0  0.00000000000E+00  0.00000000000E+00  0.13596267618E+04  0.13596267618E+04  0.25500000000E-02 0. -1.
         -2   -1    0    0    0  501 -0.00000000000E+00 -0.00000000000E+00 -0.18160369247E+04  0.18160369247E+04  0.25500000000E-02 0.  1.
    8880023    1    1    2    0    0 -0.10789909130E+04 -0.57818463425E+03 -0.11106236272E+04  0.17792734217E+04  0.65864270000E+03 0.  0.
    8880022    1    1    2    0    0  0.10789909130E+04  0.57818463425E+03  0.65421346426E+03  0.13963902648E+04  0.15294330000E+03 0.  0.
<mgrwt>
<rscale>  0 0.13492084E+04</rscale>
<asrwt>0</asrwt>
<pdfrwt beam="1">  1        2 0.20917335E+00 0.13900824E+04</pdfrwt>
<pdfrwt beam="2">  1       -2 0.27939030E+00 0.13900824E+04</pdfrwt>
<totfact> 0.61781122E-01</totfact>
</mgrwt>
</event>
<event>
 4    5  0.7289609E-008  0.8068684E+03  0.7818608E-02  0.9696137E-01
         -2   -1    0    0    0  501 -0.00000000000E+00  0.00000000000E+00  0.93337251462E+03  0.93337251462E+03  0.25500000000E-02 0.  1.
          2   -1    0    0  501    0  0.00000000000E+00 -0.00000000000E+00 -0.17210856587E+04  0.17210856587E+04  0.25500000000E-02 0. -1.
    8880023    1    1    2    0    0  0.16742158970E+03 -0.43496719612E+03  0.71228935642E+03  0.10762865715E+04  0.65864270000E+03 0.  1.
    8880022    1    1    2    0    0 -0.16742158970E+03  0.43496719612E+03 -0.15000025005E+04  0.15781716019E+04  0.15294330000E+03 0.  0.
<mgrwt>
<rscale>  0 0.71247245E+03</rscale>
<asrwt>0</asrwt>
<pdfrwt beam="1">  1        2 0.26478241E+00 0.80686843E+03</pdfrwt>
<pdfrwt beam="2">  1       -2 0.14359577E+00 0.80686843E+03</pdfrwt>
<totfact> 0.32776867E+00</totfact>
</mgrwt>
</event>
<event>
 4    5  0.7289609E-008  0.1003546E+04  0.7818608E-02  0.9376933E-01
         -2   -1    0    0    0  501 -0.00000000000E+00  0.00000000000E+00  0.67595656254E+03  0.67595656254E+03  0.25500000000E-02 0.  1.
          2   -1    0    0  501    0  0.00000000000E+00 -0.00000000000E+00 -0.25151041300E+04  0.25151041300E+04  0.25500000000E-02 0. -1.
    8880023    1    1    2    0    0 -0.67944631002E+03 -0.33413744298E+03  0.18864498981E+03  0.10211230374E+04  0.65864270000E+03 0.  0.
    8880022    1    1    2    0    0  0.67944631002E+03  0.33413744298E+03 -0.20277925573E+04  0.21699376552E+04  0.15294330000E+03 0.  0.
<mgrwt>
<rscale>  0 0.93998600E+03</rscale>
<asrwt>0</asrwt>
<pdfrwt beam="1">  1        2 0.38693909E+00 0.10035464E+04</pdfrwt>
<pdfrwt beam="2">  1       -2 0.10399332E+00 0.10035464E+04</pdfrwt>
<totfact> 0.25871625E+00</totfact>
</mgrwt>
</event>
<event>
 4    5  0.7289609E-008  0.1483645E+04  0.7818608E-02  0.8921272E-01
          2   -1    0    0  501    0  0.00000000000E+00  0.00000000000E+00  0.45101068209E+04  0.45101068209E+04  0.25500000000E-02 0. -1.
         -2   -1    0    0    0  501 -0.00000000000E+00 -0.00000000000E+00 -0.54193005995E+03  0.54193005996E+03  0.25500000000E-02 0.  1.
    8880023    1    1    2    0    0 -0.31732462489E+03 -0.12910059089E+04  0.98052826443E+03  0.17783804593E+04  0.65864270000E+03 0.  0.
    8880022    1    1    2    0    0  0.31732462489E+03  0.12910059089E+04  0.29876484965E+04  0.32736564215E+04  0.15294330000E+03 0.  0.
<mgrwt>
<rscale>  0 0.14458651E+04</rscale>
<asrwt>0</asrwt>
<pdfrwt beam="1">  1        2 0.69386259E+00 0.14836446E+04</pdfrwt>
<pdfrwt beam="2">  1       -2 0.83373855E-01 0.14836446E+04</pdfrwt>
<totfact> 0.14944324E-01</totfact>
</mgrwt>
</event>
<event>
 4    5  0.7289609E-008  0.1362242E+04  0.7818608E-02  0.9013591E-01
          2   -1    0    0  501    0  0.00000000000E+00  0.00000000000E+00  0.12385881007E+04  0.12385881007E+04  0.25500000000E-02 0. -1.
         -2   -1    0    0    0  501 -0.00000000000E+00 -0.00000000000E+00 -0.27471379145E+04  0.27471379145E+04  0.25500000000E-02 0.  1.
    8880023    1    1    2    0    0  0.57289977261E+03  0.10457910649E+04 -0.22083298874E+04  0.25946915421E+04  0.65864270000E+03 0.  0.
    8880022    1    1    2    0    0 -0.57289977261E+03 -0.10457910649E+04  0.69978007359E+03  0.13910344731E+04  0.15294330000E+03 0.  0.
<mgrwt>
<rscale>  0 0.13203373E+04</rscale>
<asrwt>0</asrwt>
<pdfrwt beam="1">  1        2 0.19055202E+00 0.13622420E+04</pdfrwt>
<pdfrwt beam="2">  1       -2 0.42263660E+00 0.13622420E+04</pdfrwt>
<totfact> 0.91032039E-02</totfact>
</mgrwt>
</event>
<event>
 4    5  0.7289609E-008  0.8064229E+03  0.7818608E-02  0.9697077E-01
          2   -1    0    0  501    0  0.00000000000E+00  0.00000000000E+00  0.26694672366E+03  0.26694672368E+03  0.25500000000E-02 0. -1.
         -2   -1    0    0    0  501 -0.00000000000E+00 -0.00000000000E+00 -0.24508472380E+04  0.24508472380E+04  0.25500000000E-02 0.  1.
    8880023    1    1    2    0    0 -0.40244612656E+03  0.23354819000E+03 -0.20605105967E+04  0.22126955885E+04  0.65864270000E+03 0.  1.
    8880022    1    1    2    0    0  0.40244612656E+03 -0.23354819000E+03 -0.12338991764E+03  0.50509837322E+03  0.15294330000E+03 0.  0.
<mgrwt>
<rscale>  0 0.71191107E+03</rscale>
<asrwt>0</asrwt>
<pdfrwt beam="1">  1        2 0.41068729E-01 0.80642287E+03</pdfrwt>
<pdfrwt beam="2">  1       -2 0.37705340E+00 0.80642287E+03</pdfrwt>
<totfact> 0.13711402E+00</totfact>
</mgrwt>
</event>
<event>
 4    5  0.7289609E-008  0.8329196E+03  0.7818608E-02  0.9643678E-01
          2   -1    0    0  501    0  0.00000000000E+00  0.00000000000E+00  0.26128001285E+04  0.26128001285E+04  0.25500000000E-02 0. -1.
         -2   -1    0    0    0  501 -0.00000000000E+00 -0.00000000000E+00 -0.68333858407E+03  0.68333858408E+03  0.25500000000E-02 0.  1.
    8880023    1    1    2    0    0 -0.98589043338E+02  0.50022503266E+03 -0.38762379842E+03  0.91869869823E+03  0.65864270000E+03 0.  0.
    8880022    1    1    2    0    0  0.98589043338E+02 -0.50022503266E+03  0.23170853429E+04  0.23774400144E+04  0.15294330000E+03 0.  0.
<mgrwt>
<rscale>  0 0.74471507E+03</rscale>
<asrwt>0</asrwt>
<pdfrwt beam="1">  1        2 0.40196926E+00 0.83291962E+03</pdfrwt>
<pdfrwt beam="2">  1       -2 0.10512901E+00 0.83291962E+03</pdfrwt>
<totfact> 0.22751971E+00</totfact>
</mgrwt>
</event>
<event>
 4    5  0.7289609E-008  0.1000408E+04  0.7818608E-02  0.9381024E-01
         -2   -1    0    0    0  501 -0.00000000000E+00  0.00000000000E+00  0.88052204917E+03  0.88052204918E+03  0.25500000000E-02 0.  1.
          2   -1    0    0  501    0  0.00000000000E+00 -0.00000000000E+00 -0.14051952223E+04  0.14051952223E+04  0.25500000000E-02 0. -1.
    8880023    1    1    2    0    0 -0.72195020122E+03  0.21399457083E+03  0.40529150900E+03  0.10793874110E+04  0.65864270000E+03 0.  0.
    8880022    1    1    2    0    0  0.72195020122E+03 -0.21399457083E+03 -0.92996468214E+03  0.12063298605E+04  0.15294330000E+03 0.  0.
<mgrwt>
<rscale>  0 0.93653905E+03</rscale>
<asrwt>0</asrwt>
<pdfrwt beam="1">  1        2 0.21618388E+00 0.10004079E+04</pdfrwt>
<pdfrwt beam="2">  1       -2 0.13546493E+00 0.10004079E+04</pdfrwt>
<totfact> 0.55784769E+00</totfact>
</mgrwt>
</event>
<event>
 4    5  0.7289609E-008  0.7538407E+03  0.7818608E-02  0.9821322E-01
          2   -1    0    0  501    0  0.00000000000E+00  0.00000000000E+00  0.28502249198E+04  0.28502249198E+04  0.25500000000E-02 0. -1.
         -2   -1    0    0    0  501 -0.00000000000E+00 -0.00000000000E+00 -0.11542790582E+04  0.11542790582E+04  0.25500000000E-02 0.  1.
    8880023    1    1    2    0    0  0.36550134473E+03  0.29569707505E+02 -0.10151560558E+04  0.12644436028E+04  0.65864270000E+03 0.  0.
    8880022    1    1    2    0    0 -0.36550134473E+03 -0.29569707505E+02  0.27111019174E+04  0.27400603753E+04  0.15294330000E+03 0.  0.
<mgrwt>
<rscale>  0 0.64230715E+03</rscale>
<asrwt>0</asrwt>
<pdfrwt beam="1">  1        2 0.43849614E+00 0.75384070E+03</pdfrwt>
<pdfrwt beam="2">  1       -2 0.17758140E+00 0.75384070E+03</pdfrwt>
<totfact> 0.43307285E-01</totfact>
</mgrwt>
</event>
<event>
 4    5  0.7289609E-008  0.7244511E+03  0.7818608E-02  0.9907803E-01
          2   -1    0    0  501    0  0.00000000000E+00  0.00000000000E+00  0.32706840447E+04  0.32706840447E+04  0.25500000000E-02 0. -1.
         -2   -1    0    0    0  501 -0.00000000000E+00 -0.00000000000E+00 -0.30995803254E+03  0.30995803255E+03  0.25500000000E-02 0.  1.
    8880023    1    1    2    0    0  0.28259360400E+03  0.10564080385E+03  0.13769650502E+03  0.73742095049E+03  0.65864270000E+03 0.  1.
    8880022    1    1    2    0    0 -0.28259360400E+03 -0.10564080385E+03  0.28230295072E+04  0.28432211268E+04  0.15294330000E+03 0.  0.
<mgrwt>
<rscale>  0 0.59884600E+03</rscale>
<asrwt>0</asrwt>
<pdfrwt beam="1">  1        2 0.50318216E+00 0.72445105E+03</pdfrwt>
<pdfrwt beam="2">  1       -2 0.47685852E-01 0.72445105E+03</pdfrwt>
<totfact> 0.52472193E+00</totfact>
</mgrwt>
</event>
<event>
 4    5  0.7289609E-008  0.7311230E+03  0.7818608E-02  0.9886603E-01
          2   -1    0    0  501    0  0.00000000000E+00  0.00000000000E+00  0.68811418784E+03  0.68811418785E+03  0.25500000000E-02 0. -1.
         -2   -1    0    0    0  501 -0.00000000000E+00 -0.00000000000E+00 -0.12760016136E+04  0.12760016136E+04  0.25500000000E-02 0.  1.
    8880023    1    1    2    0    0 -0.18472271914E+03 -0.25808548359E+03 -0.11130659239E+04  0.13317118896E+04  0.65864270000E+03 0.  0.
    8880022    1    1    2    0    0  0.18472271914E+03  0.25808548359E+03  0.52517849811E+03  0.63240391183E+03  0.15294330000E+03 0.  0.
<mgrwt>
<rscale>  0 0.60914969E+03</rscale>
<asrwt>0</asrwt>
<pdfrwt beam="1">  1        2 0.10586372E+00 0.73112298E+03</pdfrwt>
<pdfrwt beam="2">  1       -2 0.19630794E+00 0.73112298E+03</pdfrwt>
<totfact> 0.60239773E+00</totfact>
</mgrwt>
</event>
<event>
 4    5  0.7289609E-008  0.7311463E+03  0.7818608E-02  0.9886531E-01
         -2   -1    0    0    0  501 -0.00000000000E+00  0.00000000000E+00  0.81921515078E+03  0.81921515079E+03  0.25500000000E-02 0.  1.
          2   -1    0    0  501    0  0.00000000000E+00 -0.00000000000E+00 -0.69085948102E+03  0.69085948103E+03  0.25500000000E-02 0. -1.
    8880023    1    1    2    0    0  0.15431683767E+02  0.31705927041E+03  0.58281923157E+03  0.93501506981E+03  0.65864270000E+03 0.  1.
    8880022    1    1    2    0    0 -0.15431683767E+02 -0.31705927041E+03 -0.45446356181E+03  0.57505956200E+03  0.15294330000E+03 0.  0.
<mgrwt>
<rscale>  0 0.60918520E+03</rscale>
<asrwt>0</asrwt>
<pdfrwt beam="1">  1        2 0.10628607E+00 0.73114631E+03</pdfrwt>
<pdfrwt beam="2">  1       -2 0.12603310E+00 0.73114631E+03</pdfrwt>
<totfact> 0.19873426E+01</totfact>
</mgrwt>
</event>
<event>
 4    5  0.7289609E-008  0.8612483E+03  0.7818608E-02  0.9591347E-01
         -2   -1    0    0    0  501 -0.00000000000E+00  0.00000000000E+00  0.12832627481E+04  0.12832627481E+04  0.25500000000E-02 0.  1.
          2   -1    0    0  501    0  0.00000000000E+00 -0.00000000000E+00 -0.18024585003E+04  0.18024585003E+04  0.25500000000E-02 0. -1.
    8880023    1    1    2    0    0 -0.55464671934E+03  0.17474965692E+02  0.10827444784E+04  0.13835043077E+04  0.65864270000E+03 0.  1.
    8880022    1    1    2    0    0  0.55464671934E+03 -0.17474965692E+02 -0.16019402306E+04  0.17022169407E+04  0.15294330000E+03 0.  0.
<mgrwt>
<rscale>  0 0.77871558E+03</rscale>
<asrwt>0</asrwt>
<pdfrwt beam="1">  1        2 0.27730131E+00 0.86124826E+03</pdfrwt>
<pdfrwt beam="2">  1       -2 0.19742504E+00 0.86124826E+03</pdfrwt>
<totfact> 0.12107824E+00</totfact>
</mgrwt>
</event>
<event>
 4    5  0.7289609E-008  0.8090285E+03  0.7818608E-02  0.9691604E-01
         -2   -1    0    0    0  501 -0.00000000000E+00  0.00000000000E+00  0.16453861410E+04  0.16453861410E+04  0.25500000000E-02 0.  1.
          2   -1    0    0  501    0  0.00000000000E+00 -0.00000000000E+00 -0.10791929042E+04  0.10791929042E+04  0.25500000000E-02 0. -1.
    8880023    1    1    2    0    0  0.21214886585E+03  0.41917741171E+03  0.14794683151E+04  0.16862246426E+04  0.65864270000E+03 0.  1.
    8880022    1    1    2    0    0 -0.21214886585E+03 -0.41917741171E+03 -0.91327507831E+03  0.10383544026E+04  0.15294330000E+03 0.  0.
<mgrwt>
<rscale>  0 0.71518881E+03</rscale>
<asrwt>0</asrwt>
<pdfrwt beam="1">  1        2 0.16602968E+00 0.80902846E+03</pdfrwt>
<pdfrwt beam="2">  1       -2 0.25313633E+00 0.80902846E+03</pdfrwt>
<totfact> 0.14147418E+00</totfact>
</mgrwt>
</event>
<event>
 4    5  0.7289609E-008  0.1331903E+04  0.7818608E-02  0.9038488E-01
          2   -1    0    0  501    0  0.00000000000E+00  0.00000000000E+00  0.16206238983E+04  0.16206238983E+04  0.25500000000E-02 0. -1.
         -2   -1    0    0    0  501 -0.00000000000E+00 -0.00000000000E+00 -0.19927444117E+04  0.19927444117E+04  0.25500000000E-02 0.  1.
    8880023    1    1    2    0    0 -0.55289692399E+03 -0.10170836788E+04 -0.14888259076E+04  0.19976403600E+04  0.65864270000E+03 0.  1.
    8880022    1    1    2    0    0  0.55289692399E+03  0.10170836788E+04  0.11167053942E+04  0.16157279500E+04  0.15294330000E+03 0.  0.
<mgrwt>
<rscale>  0 0.12888075E+04</rscale>
<asrwt>0</asrwt>
<pdfrwt beam="1">  1        2 0.24932676E+00 0.13319026E+04</pdfrwt>
<pdfrwt beam="2">  1       -2 0.30657606E+00 0.13319026E+04</pdfrwt>
<totfact> 0.30167918E-01</totfact>
</mgrwt>
</event>
<event>
 4    5  0.7289609E-008  0.7937434E+03  0.7818608E-02  0.9724491E-01
         -2   -1    0    0    0  501 -0.00000000000E+00  0.00000000000E+00  0.74753989201E+03  0.74753989202E+03  0.25500000000E-02 0.  1.
          2   -1    0    0  501    0  0.00000000000E+00 -0.00000000000E+00 -0.20165372138E+04  0.20165372138E+04  0.25500000000E-02 0. -1.
    8880023    1    1    2    0    0 -0.15172467553E+03  0.41617064632E+03  0.49730536366E+03  0.93666494277E+03  0.65864270000E+03 0.  1.
    8880022    1    1    2    0    0  0.15172467553E+03 -0.41617064632E+03 -0.17663026855E+04  0.18274121631E+04  0.15294330000E+03 0.  0.
<mgrwt>
<rscale>  0 0.69577148E+03</rscale>
<asrwt>0</asrwt>
<pdfrwt beam="1">  1        2 0.31023649E+00 0.79374340E+03</pdfrwt>
<pdfrwt beam="2">  1       -2 0.11500614E+00 0.79374340E+03</pdfrwt>
<totfact> 0.39693897E+00</totfact>
</mgrwt>
</event>
<event>
 4    5  0.7289609E-008  0.9783852E+03  0.7818608E-02  0.9410399E-01
         -2   -1    0    0    0  501 -0.00000000000E+00  0.00000000000E+00  0.32894118952E+03  0.32894118953E+03  0.25500000000E-02 0.  1.
          2   -1    0    0  501    0  0.00000000000E+00 -0.00000000000E+00 -0.34999998888E+04  0.34999998888E+04  0.25500000000E-02 0. -1.
    8880023    1    1    2    0    0  0.68810938720E+03  0.22345649111E+03 -0.58657380246E+03  0.11407481598E+04  0.65864270000E+03 0.  0.
    8880022    1    1    2    0    0 -0.68810938720E+03 -0.22345649111E+03 -0.25844848968E+04  0.26881929185E+04  0.15294330000E+03 0.  0.
<mgrwt>
<rscale>  0 0.91224784E+03</rscale>
<asrwt>0</asrwt>
<pdfrwt beam="1">  1        2 0.53846149E+00 0.97838517E+03</pdfrwt>
<pdfrwt beam="2">  1       -2 0.50606339E-01 0.97838517E+03</pdfrwt>
<totfact> 0.31239249E+00</totfact>
</mgrwt>
</event>
<event>
 4    5  0.7289609E-008  0.8992532E+03  0.7818608E-02  0.9527232E-01
         -2   -1    0    0    0  501 -0.00000000000E+00  0.00000000000E+00  0.15313182710E+04  0.15313182710E+04  0.25500000000E-02 0.  1.
          2   -1    0    0  501    0  0.00000000000E+00 -0.00000000000E+00 -0.60859330672E+03  0.60859330672E+03  0.25500000000E-02 0. -1.
    8880023    1    1    2    0    0 -0.41715536986E+02  0.61082391007E+03  0.11582289382E+04  0.14663391540E+04  0.65864270000E+03 0.  1.
    8880022    1    1    2    0    0  0.41715536986E+02 -0.61082391007E+03 -0.23550397395E+03  0.67357242365E+03  0.15294330000E+03 0.  0.
<mgrwt>
<rscale>  0 0.82305579E+03</rscale>
<asrwt>0</asrwt>
<pdfrwt beam="1">  1        2 0.93629742E-01 0.89925316E+03</pdfrwt>
<pdfrwt beam="2">  1       -2 0.23558742E+00 0.89925316E+03</pdfrwt>
<totfact> 0.38770461E+00</totfact>
</mgrwt>
</event>
<event>
 4    5  0.7289609E-008  0.9348721E+03  0.7818608E-02  0.9472222E-01
          2   -1    0    0  501    0  0.00000000000E+00  0.00000000000E+00  0.32963347116E+04  0.32963347116E+04  0.25500000000E-02 0. -1.
         -2   -1    0    0    0  501 -0.00000000000E+00 -0.00000000000E+00 -0.26591913815E+03  0.26591913816E+03  0.25500000000E-02 0.  1.
    8880023    1    1    2    0    0  0.56293029325E+03  0.35111978040E+03  0.80068032587E+03  0.12308837499E+04  0.65864270000E+03 0.  0.
    8880022    1    1    2    0    0 -0.56293029325E+03 -0.35111978040E+03  0.22297352476E+04  0.23313700999E+04  0.15294330000E+03 0.  0.
<mgrwt>
<rscale>  0 0.86363104E+03</rscale>
<asrwt>0</asrwt>
<pdfrwt beam="1">  1        2 0.50712842E+00 0.93487209E+03</pdfrwt>
<pdfrwt beam="2">  1       -2 0.40910636E-01 0.93487209E+03</pdfrwt>
<totfact> 0.65984518E+00</totfact>
</mgrwt>
</event>
<event>
 4    5  0.7289609E-008  0.8645701E+03  0.7818608E-02  0.9585485E-01
         -2   -1    0    0    0  501 -0.00000000000E+00  0.00000000000E+00  0.12163906309E+04  0.12163906309E+04  0.25500000000E-02 0.  1.
          2   -1    0    0  501    0  0.00000000000E+00 -0.00000000000E+00 -0.10498128891E+04  0.10498128891E+04  0.25500000000E-02 0. -1.
    8880023    1    1    2    0    0 -0.29685701754E+03  0.47491806063E+03  0.95426724603E+03  0.12876752060E+04  0.65864270000E+03 0.  1.
    8880022    1    1    2    0    0  0.29685701754E+03 -0.47491806063E+03 -0.78768950422E+03  0.97852831397E+03  0.15294330000E+03 0.  0.
<mgrwt>
<rscale>  0 0.78264358E+03</rscale>
<asrwt>0</asrwt>
<pdfrwt beam="1">  1        2 0.16150968E+00 0.86457010E+03</pdfrwt>
<pdfrwt beam="2">  1       -2 0.18713702E+00 0.86457010E+03</pdfrwt>
<totfact> 0.38217044E+00</totfact>
</mgrwt>
</event>
<event>
 4    5  0.7289609E-008  0.7917674E+03  0.7818608E-02  0.9728888E-01
         -2   -1    0    0    0  501 -0.00000000000E+00  0.00000000000E+00  0.10908580288E+04  0.10908580288E+04  0.25500000000E-02 0.  1.
          2   -1    0    0  501    0  0.00000000000E+00 -0.00000000000E+00 -0.14116383755E+04  0.14116383755E+04  0.25500000000E-02 0. -1.
    8880023    1    1    2    0    0 -0.43590905983E+03 -0.55395438946E+02  0.89842841731E+03  0.11975262796E+04  0.65864270000E+03 0.  0.
    8880022    1    1    2    0    0  0.43590905983E+03  0.55395438946E+02 -0.12192087640E+04  0.13049701247E+04  0.15294330000E+03 0.  0.
<mgrwt>
<rscale>  0 0.69322573E+03</rscale>
<asrwt>0</asrwt>
<pdfrwt beam="1">  1        2 0.21717514E+00 0.79176737E+03</pdfrwt>
<pdfrwt beam="2">  1       -2 0.16782431E+00 0.79176737E+03</pdfrwt>
<totfact> 0.32105615E+00</totfact>
</mgrwt>
</event>
<event>
 4    5  0.7289609E-008  0.8271753E+03  0.7818608E-02  0.9654854E-01
          2   -1    0    0  501    0  0.00000000000E+00  0.00000000000E+00  0.19486166196E+04  0.19486166196E+04  0.25500000000E-02 0. -1.
         -2   -1    0    0    0  501 -0.00000000000E+00 -0.00000000000E+00 -0.89351239717E+03  0.89351239718E+03  0.25500000000E-02 0.  1.
    8880023    1    1    2    0    0  0.50040819595E+03 -0.58750781446E+00 -0.65414900973E+03  0.10545756687E+04  0.65864270000E+03 0.  0.
    8880022    1    1    2    0    0 -0.50040819595E+03  0.58750781446E+00  0.17092532322E+04  0.17875533481E+04  0.15294330000E+03 0.  0.
<mgrwt>
<rscale>  0 0.73769596E+03</rscale>
<asrwt>0</asrwt>
<pdfrwt beam="1">  1        2 0.29978717E+00 0.82717526E+03</pdfrwt>
<pdfrwt beam="2">  1       -2 0.13746345E+00 0.82717526E+03</pdfrwt>
<totfact> 0.27479598E+00</totfact>
</mgrwt>
</event>
<event>
 4    5  0.7289609E-008  0.1088619E+04  0.7818608E-02  0.9273835E-01
          2   -1    0    0  501    0  0.00000000000E+00  0.00000000000E+00  0.17766025661E+04  0.17766025661E+04  0.25500000000E-02 0. -1.
         -2   -1    0    0    0  501 -0.00000000000E+00 -0.00000000000E+00 -0.54756926408E+03  0.54756926409E+03  0.25500000000E-02 0.  1.
    8880023    1    1    2    0    0  0.36619127835E+03  0.78561064238E+03  0.60714376473E+03  0.12464806020E+04  0.65864270000E+03 0.  0.
    8880022    1    1    2    0    0 -0.36619127835E+03 -0.78561064238E+03  0.62188953724E+03  0.10776912282E+04  0.15294330000E+03 0.  0.
<mgrwt>
<rscale>  0 0.10322776E+04</rscale>
<asrwt>0</asrwt>
<pdfrwt beam="1">  1        2 0.27332347E+00 0.10886185E+04</pdfrwt>
<pdfrwt beam="2">  1       -2 0.84241425E-01 0.10886185E+04</pdfrwt>
<totfact> 0.10827027E+01</totfact>
</mgrwt>
</event>
<event>
 4    5  0.7289609E-008  0.8564049E+03  0.7818608E-02  0.9599991E-01
         -2   -1    0    0    0  501 -0.00000000000E+00  0.00000000000E+00  0.17335896992E+04  0.17335896992E+04  0.25500000000E-02 0.  1.
          2   -1    0    0  501    0  0.00000000000E+00 -0.00000000000E+00 -0.34634630913E+03  0.34634630914E+03  0.25500000000E-02 0. -1.
    8880023    1    1    2    0    0  0.34025892170E+03 -0.42876909838E+03  0.12141986534E+04  0.14858356738E+04  0.65864270000E+03 0.  1.
    8880022    1    1    2    0    0 -0.34025892170E+03  0.42876909838E+03  0.17304473667E+03  0.59410033448E+03  0.15294330000E+03 0.  0.
<mgrwt>
<rscale>  0 0.77296790E+03</rscale>
<asrwt>0</asrwt>
<pdfrwt beam="1">  1        2 0.53284048E-01 0.85640486E+03</pdfrwt>
<pdfrwt beam="2">  1       -2 0.26670611E+00 0.85640486E+03</pdfrwt>
<totfact> 0.48362905E+00</totfact>
</mgrwt>
</event>
<event>
 4    5  0.7289609E-008  0.1032584E+04  0.7818608E-02  0.9340117E-01
          2   -1    0    0  501    0  0.00000000000E+00  0.00000000000E+00  0.77976333832E+03  0.77976333832E+03  0.25500000000E-02 0. -1.
         -2   -1    0    0    0  501 -0.00000000000E+00 -0.00000000000E+00 -0.13905556570E+04  0.13905556570E+04  0.25500000000E-02 0.  1.
    8880023    1    1    2    0    0  0.11209798847E+03 -0.78730748855E+03 -0.83732033420E+03  0.13294113693E+04  0.65864270000E+03 0.  1.
    8880022    1    1    2    0    0 -0.11209798847E+03  0.78730748855E+03  0.22652801556E+03  0.84090762596E+03  0.15294330000E+03 0.  0.
<mgrwt>
<rscale>  0 0.97172032E+03</rscale>
<asrwt>0</asrwt>
<pdfrwt beam="1">  1        2 0.11996359E+00 0.10325838E+04</pdfrwt>
<pdfrwt beam="2">  1       -2 0.21393164E+00 0.10325838E+04</pdfrwt>
<totfact> 0.38140486E+00</totfact>
</mgrwt>
</event>
<event>
 4    5  0.7289609E-008  0.1966128E+04  0.7818608E-02  0.8635812E-01
          2   -1    0    0  501    0  0.00000000000E+00  0.00000000000E+00  0.30996479967E+04  0.30996479967E+04  0.25500000000E-02 0. -1.
         -2   -1    0    0    0  501 -0.00000000000E+00 -0.00000000000E+00 -0.11956745178E+04  0.11956745178E+04  0.25500000000E-02 0.  1.
    8880023    1    1    2    0    0  0.17908820877E+04  0.47391068507E+03  0.12241760818E+04  0.23160887882E+04  0.65864270000E+03 0.  0.
    8880022    1    1    2    0    0 -0.17908820877E+04 -0.47391068507E+03  0.67979739708E+03  0.19792337263E+04  0.15294330000E+03 0.  0.
<mgrwt>
<rscale>  0 0.19387360E+04</rscale>
<asrwt>0</asrwt>
<pdfrwt beam="1">  1        2 0.47686892E+00 0.19661282E+04</pdfrwt>
<pdfrwt beam="2">  1       -2 0.18394993E+00 0.19661282E+04</pdfrwt>
<totfact> 0.23057800E-01</totfact>
</mgrwt>
</event>
<event>
 4    5  0.7289609E-008  0.1380075E+04  0.7818608E-02  0.8999322E-01
          2   -1    0    0  501    0  0.00000000000E+00  0.00000000000E+00  0.15536517186E+04  0.15536517186E+04  0.25500000000E-02 0. -1.
         -2   -1    0    0    0  501 -0.00000000000E+00 -0.00000000000E+00 -0.13415340824E+04  0.13415340824E+04  0.25500000000E-02 0.  1.
    8880023    1    1    2    0    0 -0.10897648062E+04 -0.53217346703E+03 -0.51484732765E+03  0.14729812996E+04  0.65864270000E+03 0.  0.
    8880022    1    1    2    0    0  0.10897648062E+04  0.53217346703E+03  0.72696496385E+03  0.14222045013E+04  0.15294330000E+03 0.  0.
<mgrwt>
<rscale>  0 0.13388366E+04</rscale>
<asrwt>0</asrwt>
<pdfrwt beam="1">  1        2 0.23902334E+00 0.13800747E+04</pdfrwt>
<pdfrwt beam="2">  1       -2 0.20638986E+00 0.13800747E+04</pdfrwt>
<totfact> 0.13619072E+00</totfact>
</mgrwt>
</event>
<event>
 4    5  0.7289609E-008  0.1639536E+04  0.7818608E-02  0.8816913E-01
          2   -1    0    0  501    0  0.00000000000E+00  0.00000000000E+00  0.13068375789E+04  0.13068375789E+04  0.25500000000E-02 0. -1.
         -2   -1    0    0    0  501 -0.00000000000E+00 -0.00000000000E+00 -0.26597501235E+04  0.26597501235E+04  0.25500000000E-02 0.  1.
    8880023    1    1    2    0    0  0.12230461159E+04 -0.87087669412E+03  0.36524674972E+03  0.16797271839E+04  0.65864270000E+03 0. -1.
    8880022    1    1    2    0    0 -0.12230461159E+04  0.87087669412E+03 -0.17181592943E+04  0.22868605186E+04  0.15294330000E+03 0.  0.
<mgrwt>
<rscale>  0 0.16059308E+04</rscale>
<asrwt>0</asrwt>
<pdfrwt beam="1">  1        2 0.20105194E+00 0.16395360E+04</pdfrwt>
<pdfrwt beam="2">  1       -2 0.40919233E+00 0.16395360E+04</pdfrwt>
<totfact> 0.98393203E-02</totfact>
</mgrwt>
</event>
<event>
 4    5  0.7289609E-008  0.7071951E+03  0.7818608E-02  0.9968568E-01
         -2   -1    0    0    0  501 -0.00000000000E+00  0.00000000000E+00  0.86902085929E+03  0.86902085930E+03  0.25500000000E-02 0.  1.
          2   -1    0    0  501    0  0.00000000000E+00 -0.00000000000E+00 -0.81914863736E+03  0.81914863737E+03  0.25500000000E-02 0. -1.
    8880023    1    1    2    0    0  0.13098410862E+03 -0.22171563330E+03  0.68587943112E+03  0.98516773143E+03  0.65864270000E+03 0.  1.
    8880022    1    1    2    0    0 -0.13098410862E+03  0.22171563330E+03 -0.63600720919E+03  0.70300176523E+03  0.15294330000E+03 0.  0.
<mgrwt>
<rscale>  0 0.57050216E+03</rscale>
<asrwt>0</asrwt>
<pdfrwt beam="1">  1        2 0.12602287E+00 0.70719507E+03</pdfrwt>
<pdfrwt beam="2">  1       -2 0.13369552E+00 0.70719507E+03</pdfrwt>
<totfact> 0.13768414E+01</totfact>
</mgrwt>
</event>
<event>
 4    5  0.7289609E-008  0.7830042E+03  0.7818608E-02  0.9748827E-01
         -2   -1    0    0    0  501 -0.00000000000E+00  0.00000000000E+00  0.55322035578E+03  0.55322035579E+03  0.25500000000E-02 0.  1.
          2   -1    0    0  501    0  0.00000000000E+00 -0.00000000000E+00 -0.12194823212E+04  0.12194823212E+04  0.25500000000E-02 0. -1.
    8880023    1    1    2    0    0  0.25276217472E+02 -0.42266598596E+03  0.18962209117E+03  0.80563773905E+03  0.65864270000E+03 0.  1.
    8880022    1    1    2    0    0 -0.25276217472E+02  0.42266598596E+03 -0.85588405655E+03  0.96706493791E+03  0.15294330000E+03 0.  0.
<mgrwt>
<rscale>  0 0.68182616E+03</rscale>
<asrwt>0</asrwt>
<pdfrwt beam="1">  1        2 0.18761266E+00 0.78300423E+03</pdfrwt>
<pdfrwt beam="2">  1       -2 0.85110824E-01 0.78300423E+03</pdfrwt>
<totfact> 0.22499931E+01</totfact>
</mgrwt>
</event>
<event>
 4    5  0.7289609E-008  0.7170383E+03  0.7818608E-02  0.9932738E-01
         -2   -1    0    0    0  501 -0.00000000000E+00  0.00000000000E+00  0.77632887591E+03  0.77632887591E+03  0.25500000000E-02 0.  1.
          2   -1    0    0  501    0  0.00000000000E+00 -0.00000000000E+00 -0.37507437262E+03  0.37507437263E+03  0.25500000000E-02 0. -1.
    8880023    1    1    2    0    0  0.52688408643E+00  0.28343143389E+03  0.12659769084E+03  0.72812831075E+03  0.65864270000E+03 0.  1.
    8880022    1    1    2    0    0 -0.52688408643E+00 -0.28343143389E+03  0.27465681245E+03  0.42327493779E+03  0.15294330000E+03 0.  0.
<mgrwt>
<rscale>  0 0.58700573E+03</rscale>
<asrwt>0</asrwt>
<pdfrwt beam="1">  1        2 0.57703749E-01 0.71703826E+03</pdfrwt>
<pdfrwt beam="2">  1       -2 0.11943521E+00 0.71703826E+03</pdfrwt>
<totfact> 0.46545602E+01</totfact>
</mgrwt>
</event>
<event>
 4    5  0.7289609E-008  0.7788763E+03  0.7818608E-02  0.9758483E-01
         -2   -1    0    0    0  501 -0.00000000000E+00  0.00000000000E+00  0.10754938934E+04  0.10754938934E+04  0.25500000000E-02 0.  1.
          2   -1    0    0  501    0  0.00000000000E+00 -0.00000000000E+00 -0.44991557528E+03  0.44991557529E+03  0.25500000000E-02 0. -1.
    8880023    1    1    2    0    0 -0.16065606439E+03 -0.38344184657E+03  0.73304615075E+03  0.10695816407E+04  0.65864270000E+03 0.  1.
    8880022    1    1    2    0    0  0.16065606439E+03  0.38344184657E+03 -0.10746783261E+03  0.45582782801E+03  0.15294330000E+03 0.  0.
<mgrwt>
<rscale>  0 0.67638962E+03</rscale>
<asrwt>0</asrwt>
<pdfrwt beam="1">  1        2 0.69217782E-01 0.77887626E+03</pdfrwt>
<pdfrwt beam="2">  1       -2 0.16546060E+00 0.77887626E+03</pdfrwt>
<totfact> 0.16173504E+01</totfact>
</mgrwt>
</event>
<event>
 4    5  0.7289609E-008  0.8994264E+03  0.7818608E-02  0.9526953E-01
         -2   -1    0    0    0  501 -0.00000000000E+00  0.00000000000E+00  0.67751453215E+03  0.67751453215E+03  0.25500000000E-02 0.  1.
          2   -1    0    0  501    0  0.00000000000E+00 -0.00000000000E+00 -0.28969348703E+04  0.28969348703E+04  0.25500000000E-02 0. -1.
    8880023    1    1    2    0    0  0.13557834220E+02 -0.61235109775E+03  0.32235468145E+03  0.95544776346E+03  0.65864270000E+03 0.  0.
    8880022    1    1    2    0    0 -0.13557834220E+02  0.61235109775E+03 -0.25417750196E+04  0.26190016390E+04  0.15294330000E+03 0.  0.
<mgrwt>
<rscale>  0 0.82325522E+03</rscale>
<asrwt>0</asrwt>
<pdfrwt beam="1">  1        2 0.44568228E+00 0.89942642E+03</pdfrwt>
<pdfrwt beam="2">  1       -2 0.10423301E+00 0.89942642E+03</pdfrwt>
<totfact> 0.15606264E+00</totfact>
</mgrwt>
</event>
<event>
 4    5  0.7289609E-008  0.6766233E+03  0.7818608E-02  0.1011302E+00
         -2   -1    0    0    0  501 -0.00000000000E+00  0.00000000000E+00  0.82000890460E+03  0.82000890461E+03  0.25500000000E-02 0.  1.
          2   -1    0    0  501    0  0.00000000000E+00 -0.00000000000E+00 -0.10646247945E+04  0.10646247945E+04  0.25500000000E-02 0. -1.
    8880023    1    1    2    0    0  0.14288939881E+03  0.59929453336E+02  0.66536976230E+03  0.94896577731E+03  0.65864270000E+03 0.  1.
    8880022    1    1    2    0    0 -0.14288939881E+03 -0.59929453336E+02 -0.90998565224E+03  0.93566792184E+03  0.15294330000E+03 0.  0.
<mgrwt>
<rscale>  0 0.50960440E+03</rscale>
<asrwt>0</asrwt>
<pdfrwt beam="1">  1        2 0.16378843E+00 0.67662333E+03</pdfrwt>
<pdfrwt beam="2">  1       -2 0.12615522E+00 0.67662333E+03</pdfrwt>
<totfact> 0.11032865E+01</totfact>
</mgrwt>
</event>
<event>
 4    5  0.7289609E-008  0.9679184E+03  0.7818608E-02  0.9424789E-01
         -2   -1    0    0    0  501 -0.00000000000E+00  0.00000000000E+00  0.27489702511E+03  0.27489702512E+03  0.25500000000E-02 0.  1.
          2   -1    0    0  501    0  0.00000000000E+00 -0.00000000000E+00 -0.27337672847E+04  0.27337672847E+04  0.25500000000E-02 0. -1.
    8880023    1    1    2    0    0 -0.15411625540E+03  0.69231781411E+03 -0.10779920541E+04  0.14487694264E+04  0.65864270000E+03 0.  0.
    8880022    1    1    2    0    0  0.15411625540E+03 -0.69231781411E+03 -0.13808782055E+04  0.15598948834E+04  0.15294330000E+03 0.  0.
<mgrwt>
<rscale>  0 0.90063419E+03</rscale>
<asrwt>0</asrwt>
<pdfrwt beam="1">  1        2 0.42057956E+00 0.96791838E+03</pdfrwt>
<pdfrwt beam="2">  1       -2 0.42291852E-01 0.96791838E+03</pdfrwt>
<totfact> 0.13715794E+01</totfact>
</mgrwt>
</event>
<event>
 4    5  0.7289609E-008  0.9363734E+03  0.7818608E-02  0.9469997E-01
         -2   -1    0    0    0  501 -0.00000000000E+00  0.00000000000E+00  0.86187192905E+03  0.86187192906E+03  0.25500000000E-02 0.  1.
          2   -1    0    0  501    0  0.00000000000E+00 -0.00000000000E+00 -0.10437010950E+04  0.10437010950E+04  0.25500000000E-02 0. -1.
    8880023    1    1    2    0    0 -0.60507171177E+03 -0.27725997981E+03  0.39050436584E+03  0.10145386827E+04  0.65864270000E+03 0.  0.
    8880022    1    1    2    0    0  0.60507171177E+03  0.27725997981E+03 -0.57233353179E+03  0.89103434132E+03  0.15294330000E+03 0.  0.
<mgrwt>
<rscale>  0 0.86532425E+03</rscale>
<asrwt>0</asrwt>
<pdfrwt beam="1">  1        2 0.16056940E+00 0.93637337E+03</pdfrwt>
<pdfrwt beam="2">  1       -2 0.13259568E+00 0.93637337E+03</pdfrwt>
<totfact> 0.97353469E+00</totfact>
</mgrwt>
</event>
<event>
 4    5  0.7289609E-008  0.1848796E+04  0.7818608E-02  0.8696014E-01
          2   -1    0    0  501    0  0.00000000000E+00  0.00000000000E+00  0.27793977321E+04  0.27793977321E+04  0.25500000000E-02 0. -1.
         -2   -1    0    0    0  501 -0.00000000000E+00 -0.00000000000E+00 -0.21714173229E+04  0.21714173229E+04  0.25500000000E-02 0.  1.
    8880023    1    1    2    0    0  0.60153649596E+01  0.17274835312E+04  0.20024931582E+04  0.27254402562E+04  0.65864270000E+03 0. -1.
    8880022    1    1    2    0    0 -0.60153649596E+01 -0.17274835312E+04 -0.13945127490E+04  0.22253747988E+04  0.15294330000E+03 0.  1.
<mgrwt>
<rscale>  0 0.18194692E+04</rscale>
<asrwt>0</asrwt>
<pdfrwt beam="1">  1        2 0.42759965E+00 0.18487958E+04</pdfrwt>
<pdfrwt beam="2">  1       -2 0.33406420E+00 0.18487958E+04</pdfrwt>
<totfact> 0.41872568E-02</totfact>
</mgrwt>
</event>
<event>
 4    5  0.7289609E-008  0.1793070E+04  0.7818608E-02  0.8726380E-01
         -2   -1    0    0    0  501 -0.00000000000E+00  0.00000000000E+00  0.26296811666E+04  0.26296811666E+04  0.25500000000E-02 0.  1.
          2   -1    0    0  501    0  0.00000000000E+00 -0.00000000000E+00 -0.17686835865E+04  0.17686835865E+04  0.25500000000E-02 0. -1.
    8880023    1    1    2    0    0 -0.67047622390E+03  0.15270068128E+04  0.17472578157E+04  0.25035990601E+04  0.65864270000E+03 0.  0.
    8880022    1    1    2    0    0  0.67047622390E+03 -0.15270068128E+04 -0.88626023548E+03  0.18947656930E+04  0.15294330000E+03 0.  0.
<mgrwt>
<rscale>  0 0.17627197E+04</rscale>
<asrwt>0</asrwt>
<pdfrwt beam="1">  1        2 0.27210517E+00 0.17930695E+04</pdfrwt>
<pdfrwt beam="2">  1       -2 0.40456633E+00 0.17930695E+04</pdfrwt>
<totfact> 0.56509159E-02</totfact>
</mgrwt>
</event>
<event>
 4    5  0.7289609E-008  0.7674962E+03  0.7818608E-02  0.9786073E-01
          2   -1    0    0  501    0  0.00000000000E+00  0.00000000000E+00  0.10460111233E+04  0.10460111233E+04  0.25500000000E-02 0. -1.
         -2   -1    0    0    0  501 -0.00000000000E+00 -0.00000000000E+00 -0.38709246392E+03  0.38709246393E+03  0.25500000000E-02 0.  1.
    8880023    1    1    2    0    0  0.16656350490E+02  0.39365312234E+03  0.65723819133E+03  0.10104516125E+04  0.65864270000E+03 0.  0.
    8880022    1    1    2    0    0 -0.16656350490E+02 -0.39365312234E+03  0.16804680083E+01  0.42265197471E+03  0.15294330000E+03 0. -1.
<mgrwt>
<rscale>  0 0.66115311E+03</rscale>
<asrwt>0</asrwt>
<pdfrwt beam="1">  1        2 0.16092479E+00 0.76749620E+03</pdfrwt>
<pdfrwt beam="2">  1       -2 0.59552686E-01 0.76749620E+03</pdfrwt>
<totfact> 0.62815964E+01</totfact>
</mgrwt>
</event>
<event>
 4    5  0.7289609E-008  0.9714349E+03  0.7818608E-02  0.9419922E-01
          2   -1    0    0  501    0  0.00000000000E+00  0.00000000000E+00  0.91738791000E+03  0.91738791001E+03  0.25500000000E-02 0. -1.
         -2   -1    0    0    0  501 -0.00000000000E+00 -0.00000000000E+00 -0.14280209388E+04  0.14280209388E+04  0.25500000000E-02 0.  1.
    8880023    1    1    2    0    0  0.68062122042E+03 -0.21594045354E+03 -0.10553449245E+04  0.14343774402E+04  0.65864270000E+03 0.  1.
    8880022    1    1    2    0    0 -0.68062122042E+03  0.21594045354E+03  0.54471189566E+03  0.91103140859E+03  0.15294330000E+03 0. -1.
<mgrwt>
<rscale>  0 0.90454125E+03</rscale>
<asrwt>0</asrwt>
<pdfrwt beam="1">  1        2 0.14113660E+00 0.97143488E+03</pdfrwt>
<pdfrwt beam="2">  1       -2 0.21969553E+00 0.97143488E+03</pdfrwt>
<totfact> 0.28250305E+00</totfact>
</mgrwt>
</event>
<event>
 4    5  0.7289609E-008  0.7134271E+03  0.7818608E-02  0.9945488E-01
         -2   -1    0    0    0  501 -0.00000000000E+00  0.00000000000E+00  0.54426709608E+03  0.54426709608E+03  0.25500000000E-02 0.  1.
          2   -1    0    0  501    0  0.00000000000E+00 -0.00000000000E+00 -0.21833647031E+04  0.21833647031E+04  0.25500000000E-02 0. -1.
    8880023    1    1    2    0    0 -0.16565398621E+03  0.21846474999E+03  0.29222723015E+03  0.77095722997E+03  0.65864270000E+03 0.  0.
    8880022    1    1    2    0    0  0.16565398621E+03 -0.21846474999E+03 -0.19313248372E+04  0.19566745692E+04  0.15294330000E+03 0.  0.
<mgrwt>
<rscale>  0 0.58106494E+03</rscale>
<asrwt>0</asrwt>
<pdfrwt beam="1">  1        2 0.33590226E+00 0.71342715E+03</pdfrwt>
<pdfrwt beam="2">  1       -2 0.83733401E-01 0.71342715E+03</pdfrwt>
<totfact> 0.68868738E+00</totfact>
</mgrwt>
</event>
<event>
 4    5  0.7289609E-008  0.1336269E+04  0.7818608E-02  0.9034855E-01
          2   -1    0    0  501    0  0.00000000000E+00  0.00000000000E+00  0.20704674699E+04  0.20704674699E+04  0.25500000000E-02 0. -1.
         -2   -1    0    0    0  501 -0.00000000000E+00 -0.00000000000E+00 -0.88493274058E+03  0.88493274058E+03  0.25500000000E-02 0.  1.
    8880023    1    1    2    0    0 -0.28309738648E+03 -0.11276794484E+04  0.71924024604E+02  0.13382034002E+04  0.65864270000E+03 0.  1.
    8880022    1    1    2    0    0  0.28309738648E+03  0.11276794484E+04  0.11136107048E+04  0.16171968104E+04  0.15294330000E+03 0.  0.
<mgrwt>
<rscale>  0 0.12933500E+04</rscale>
<asrwt>0</asrwt>
<pdfrwt beam="1">  1        2 0.31853345E+00 0.13362692E+04</pdfrwt>
<pdfrwt beam="2">  1       -2 0.13614350E+00 0.13362692E+04</pdfrwt>
<totfact> 0.22648976E+00</totfact>
</mgrwt>
</event>
<event>
 4    5  0.7289609E-008  0.1525557E+04  0.7818608E-02  0.8891797E-01
          2   -1    0    0  501    0  0.00000000000E+00  0.00000000000E+00  0.26390388864E+04  0.26390388864E+04  0.25500000000E-02 0. -1.
         -2   -1    0    0    0  501 -0.00000000000E+00 -0.00000000000E+00 -0.13087260969E+04  0.13087260969E+04  0.25500000000E-02 0.  1.
    8880023    1    1    2    0    0 -0.11645141031E+04 -0.73308993921E+03 -0.54214900052E+03  0.16190273933E+04  0.65864270000E+03 0.  0.
    8880022    1    1    2    0    0  0.11645141031E+04  0.73308993921E+03  0.18724617900E+04  0.23287375901E+04  0.15294330000E+03 0.  0.
<mgrwt>
<rscale>  0 0.14890059E+04</rscale>
<asrwt>0</asrwt>
<pdfrwt beam="1">  1        2 0.40600598E+00 0.15255570E+04</pdfrwt>
<pdfrwt beam="2">  1       -2 0.20134248E+00 0.15255570E+04</pdfrwt>
<totfact> 0.35259202E-01</totfact>
</mgrwt>
</event>
<event>
 4    5  0.7289609E-008  0.6864940E+03  0.7818608E-02  0.1005866E+00
          2   -1    0    0  501    0  0.00000000000E+00  0.00000000000E+00  0.76826088810E+03  0.76826088811E+03  0.25500000000E-02 0. -1.
         -2   -1    0    0    0  501 -0.00000000000E+00 -0.00000000000E+00 -0.63891170571E+03  0.63891170572E+03  0.25500000000E-02 0.  1.
    8880023    1    1    2    0    0 -0.86322992999E+02  0.17323996599E+03 -0.42013578915E+03  0.80485280177E+03  0.65864270000E+03 0.  1.
    8880022    1    1    2    0    0  0.86322992999E+02 -0.17323996599E+03  0.54948497154E+03  0.60231979205E+03  0.15294330000E+03 0.  0.
<mgrwt>
<rscale>  0 0.53151427E+03</rscale>
<asrwt>0</asrwt>
<pdfrwt beam="1">  1        2 0.11819398E+00 0.68649396E+03</pdfrwt>
<pdfrwt beam="2">  1       -2 0.98294109E-01 0.68649396E+03</pdfrwt>
<totfact> 0.31879683E+01</totfact>
</mgrwt>
</event>
<event>
 4    5  0.7289609E-008  0.7030605E+03  0.7818608E-02  0.9984734E-01
          2   -1    0    0  501    0  0.00000000000E+00  0.00000000000E+00  0.11342014652E+04  0.11342014652E+04  0.25500000000E-02 0. -1.
         -2   -1    0    0    0  501 -0.00000000000E+00 -0.00000000000E+00 -0.25592900395E+03  0.25592900397E+03  0.25500000000E-02 0.  1.
    8880023    1    1    2    0    0  0.13269232914E+03  0.20706655435E+03  0.34467286715E+03  0.78300281210E+03  0.65864270000E+03 0.  0.
    8880022    1    1    2    0    0 -0.13269232914E+03 -0.20706655435E+03  0.53359959412E+03  0.60712765709E+03  0.15294330000E+03 0.  0.
<mgrwt>
<rscale>  0 0.56324699E+03</rscale>
<asrwt>0</asrwt>
<pdfrwt beam="1">  1        2 0.17449253E+00 0.70306047E+03</pdfrwt>
<pdfrwt beam="2">  1       -2 0.39373694E-01 0.70306047E+03</pdfrwt>
<totfact> 0.12875660E+02</totfact>
</mgrwt>
</event>
<event>
 4    5  0.9132733E-008  0.7955558E+03  0.7818608E-02  0.9720489E-01
         -2   -1    0    0    0  501 -0.00000000000E+00  0.00000000000E+00  0.10971163312E+04  0.10971163312E+04  0.25500000000E-02 0.  1.
          2   -1    0    0  501    0  0.00000000000E+00 -0.00000000000E+00 -0.19148507996E+04  0.19148507996E+04  0.25500000000E-02 0. -1.
    8880023    1    1    2    0    0  0.35715275945E+03 -0.26747101500E+03  0.91714365278E+03  0.12141093540E+04  0.65864270000E+03 0.  1.
    8880022    1    1    2    0    0 -0.35715275945E+03  0.26747101500E+03 -0.17348781211E+04  0.17978577768E+04  0.15294330000E+03 0.  0.
<mgrwt>
<rscale>  0 0.69809885E+03</rscale>
<asrwt>0</asrwt>
<pdfrwt beam="1">  1        2 0.29459243E+00 0.79555581E+03</pdfrwt>
<pdfrwt beam="2">  1       -2 0.16878713E+00 0.79555581E+03</pdfrwt>
<totfact> 0.16668239E+00</totfact>
</mgrwt>
</event>
<event>
 4    5  0.7289609E-008  0.9102568E+03  0.7818608E-02  0.9509763E-01
          2   -1    0    0  501    0  0.00000000000E+00  0.00000000000E+00  0.72805643522E+03  0.72805643523E+03  0.25500000000E-02 0. -1.
         -2   -1    0    0    0  501 -0.00000000000E+00 -0.00000000000E+00 -0.22237053471E+04  0.22237053471E+04  0.25500000000E-02 0.  1.
    8880023    1    1    2    0    0  0.61103240089E+02  0.62531882411E+03 -0.19563774654E+04  0.21577720526E+04  0.65864270000E+03 0.  0.
    8880022    1    1    2    0    0 -0.61103240089E+02 -0.62531882411E+03  0.46072855356E+03  0.79398972966E+03  0.15294330000E+03 0.  0.
<mgrwt>
<rscale>  0 0.83567867E+03</rscale>
<asrwt>0</asrwt>
<pdfrwt beam="1">  1        2 0.11200868E+00 0.91025680E+03</pdfrwt>
<pdfrwt beam="2">  1       -2 0.34210851E+00 0.91025680E+03</pdfrwt>
<totfact> 0.69670474E-01</totfact>
</mgrwt>
</event>
<event>
 4    5  0.7289609E-008  0.1166330E+04  0.7818608E-02  0.9190568E-01
         -2   -1    0    0    0  501 -0.00000000000E+00  0.00000000000E+00  0.28646367336E+03  0.28646367337E+03  0.25500000000E-02 0.  1.
          2   -1    0    0  501    0  0.00000000000E+00 -0.00000000000E+00 -0.45196476181E+04  0.45196476181E+04  0.25500000000E-02 0. -1.
    8880023    1    1    2    0    0 -0.96130882718E+03  0.48997533852E+02 -0.14726008493E+04  0.18785310451E+04  0.65864270000E+03 0.  0.
    8880022    1    1    2    0    0  0.96130882718E+03 -0.48997533852E+02 -0.27605830954E+04  0.29275802464E+04  0.15294330000E+03 0.  0.
<mgrwt>
<rscale>  0 0.11151318E+04</rscale>
<asrwt>0</asrwt>
<pdfrwt beam="1">  1        2 0.69533035E+00 0.11663300E+04</pdfrwt>
<pdfrwt beam="2">  1       -2 0.44071338E-01 0.11663300E+04</pdfrwt>
<totfact> 0.60056298E-01</totfact>
</mgrwt>
</event>
<event>
 4    5  0.1056615E-007  0.2011298E+04  0.7818608E-02  0.8613863E-01
          2   -1    0    0  501    0  0.00000000000E+00  0.00000000000E+00  0.32208218115E+04  0.32208218115E+04  0.25500000000E-02 0. -1.
         -2   -1    0    0    0  501 -0.00000000000E+00 -0.00000000000E+00 -0.22579866537E+04  0.22579866537E+04  0.25500000000E-02 0.  1.
    8880023    1    1    2    0    0  0.18944377839E+04 -0.15038869226E+03 -0.13941665521E+04  0.24472478127E+04  0.65864270000E+03 0.  0.
    8880022    1    1    2    0    0 -0.18944377839E+04  0.15038869226E+03  0.23570017100E+04  0.30315606525E+04  0.15294330000E+03 0. -1.
<mgrwt>
<rscale>  0 0.19845817E+04</rscale>
<asrwt>0</asrwt>
<pdfrwt beam="1">  1        2 0.49551105E+00 0.20112985E+04</pdfrwt>
<pdfrwt beam="2">  1       -2 0.34738256E+00 0.20112985E+04</pdfrwt>
<totfact> 0.17892276E-02</totfact>
</mgrwt>
</event>
<event>
 4    5  0.7289609E-008  0.1277905E+04  0.7818608E-02  0.9084879E-01
         -2   -1    0    0    0  501 -0.00000000000E+00  0.00000000000E+00  0.10145270601E+04  0.10145270601E+04  0.25500000000E-02 0.  1.
          2   -1    0    0  501    0  0.00000000000E+00 -0.00000000000E+00 -0.23928836605E+04  0.23928836605E+04  0.25500000000E-02 0. -1.
    8880023    1    1    2    0    0 -0.39025613303E+02  0.10943983403E+04  0.37741761333E+03  0.13324732593E+04  0.65864270000E+03 0.  1.
    8880022    1    1    2    0    0  0.39025613303E+02 -0.10943983403E+04 -0.17557742137E+04  0.20749374613E+04  0.15294330000E+03 0.  0.
<mgrwt>
<rscale>  0 0.12324958E+04</rscale>
<asrwt>0</asrwt>
<pdfrwt beam="1">  1        2 0.36813595E+00 0.12779049E+04</pdfrwt>
<pdfrwt beam="2">  1       -2 0.15608109E+00 0.12779049E+04</pdfrwt>
<totfact> 0.10453135E+00</totfact>
</mgrwt>
</event>
<event>
 4    5  0.7289609E-008  0.7828776E+03  0.7818608E-02  0.9749120E-01
          2   -1    0    0  501    0  0.00000000000E+00  0.00000000000E+00  0.26564169628E+04  0.26564169628E+04  0.25500000000E-02 0. -1.
         -2   -1    0    0    0  501 -0.00000000000E+00 -0.00000000000E+00 -0.12447432738E+04  0.12447432738E+04  0.25500000000E-02 0.  1.
    8880023    1    1    2    0    0  0.50072672917E+02 -0.42021409593E+03 -0.10996387879E+04  0.13498528916E+04  0.65864270000E+03 0.  1.
    8880022    1    1    2    0    0 -0.50072672917E+02  0.42021409593E+03  0.25113124768E+04  0.25513073449E+04  0.15294330000E+03 0.  0.
<mgrwt>
<rscale>  0 0.68166007E+03</rscale>
<asrwt>0</asrwt>
<pdfrwt beam="1">  1        2 0.40867953E+00 0.78287762E+03</pdfrwt>
<pdfrwt beam="2">  1       -2 0.19149897E+00 0.78287762E+03</pdfrwt>
<totfact> 0.44999565E-01</totfact>
</mgrwt>
</event>
<event>
 4    5  0.7289609E-008  0.6858707E+03  0.7818608E-02  0.1006180E+00
          2   -1    0    0  501    0  0.00000000000E+00  0.00000000000E+00  0.16697190541E+04  0.16697190541E+04  0.25500000000E-02 0. -1.
         -2   -1    0    0    0  501 -0.00000000000E+00 -0.00000000000E+00 -0.37428600170E+03  0.37428600171E+03  0.25500000000E-02 0.  1.
    8880023    1    1    2    0    0  0.10311560918E+03  0.16116953271E+03 -0.39286500632E+02  0.68699496543E+03  0.65864270000E+03 0.  0.
    8880022    1    1    2    0    0 -0.10311560918E+03 -0.16116953271E+03  0.13347195530E+04  0.13570100904E+04  0.15294330000E+03 0. -1.
<mgrwt>
<rscale>  0 0.53021340E+03</rscale>
<asrwt>0</asrwt>
<pdfrwt beam="1">  1        2 0.25687986E+00 0.68587073E+03</pdfrwt>
<pdfrwt beam="2">  1       -2 0.57582461E-01 0.68587073E+03</pdfrwt>
<totfact> 0.29793303E+01</totfact>
</mgrwt>
</event>
<event>
 4    5  0.7289609E-008  0.1296165E+04  0.7818608E-02  0.9068879E-01
          2   -1    0    0  501    0  0.00000000000E+00  0.00000000000E+00  0.20399914295E+04  0.20399914295E+04  0.25500000000E-02 0. -1.
         -2   -1    0    0    0  501 -0.00000000000E+00 -0.00000000000E+00 -0.16915677469E+04  0.16915677469E+04  0.25500000000E-02 0.  1.
    8880023    1    1    2    0    0 -0.89270664987E+03 -0.67030433894E+03 -0.12335504789E+04  0.17893267057E+04  0.65864270000E+03 0.  0.
    8880022    1    1    2    0    0  0.89270664987E+03  0.67030433894E+03  0.15819741615E+04  0.19422324707E+04  0.15294330000E+03 0.  0.
<mgrwt>
<rscale>  0 0.12515684E+04</rscale>
<asrwt>0</asrwt>
<pdfrwt beam="1">  1        2 0.31384484E+00 0.12961648E+04</pdfrwt>
<pdfrwt beam="2">  1       -2 0.26024119E+00 0.12961648E+04</pdfrwt>
<totfact> 0.33917929E-01</totfact>
</mgrwt>
</event>
<event>
 4    5  0.8691347E-008  0.8772640E+03  0.7818608E-02  0.9563563E-01
         -2   -1    0    0    0  501 -0.00000000000E+00  0.00000000000E+00  0.11407933616E+04  0.11407933616E+04  0.25500000000E-02 0.  1.
          2   -1    0    0  501    0  0.00000000000E+00 -0.00000000000E+00 -0.19281877423E+04  0.19281877423E+04  0.25500000000E-02 0. -1.
    8880023    1    1    2    0    0 -0.28854456103E+03  0.50251757008E+03  0.91294158214E+03  0.12661178502E+04  0.65864270000E+03 0.  1.
    8880022    1    1    2    0    0  0.28854456103E+03 -0.50251757008E+03 -0.17003359628E+04  0.18028632537E+04  0.15294330000E+03 0.  0.
<mgrwt>
<rscale>  0 0.79755522E+03</rscale>
<asrwt>0</asrwt>
<pdfrwt beam="1">  1        2 0.29664427E+00 0.87726397E+03</pdfrwt>
<pdfrwt beam="2">  1       -2 0.17550667E+00 0.87726397E+03</pdfrwt>
<totfact> 0.14494561E+00</totfact>
</mgrwt>
</event>
<event>
 4    5  0.7289609E-008  0.1142759E+04  0.7818608E-02  0.9214879E-01
          2   -1    0    0  501    0  0.00000000000E+00  0.00000000000E+00  0.28312814038E+04  0.28312814038E+04  0.25500000000E-02 0. -1.
         -2   -1    0    0    0  501 -0.00000000000E+00 -0.00000000000E+00 -0.42074369905E+03  0.42074369906E+03  0.25500000000E-02 0.  1.
    8880023    1    1    2    0    0  0.75949627913E+03 -0.54337134066E+03  0.83940109200E+03  0.14179179847E+04  0.65864270000E+03 0.  1.
    8880022    1    1    2    0    0 -0.75949627913E+03  0.54337134066E+03  0.15711366127E+04  0.18341071181E+04  0.15294330000E+03 0.  0.
<mgrwt>
<rscale>  0 0.10901162E+04</rscale>
<asrwt>0</asrwt>
<pdfrwt beam="1">  1        2 0.43558174E+00 0.11427586E+04</pdfrwt>
<pdfrwt beam="2">  1       -2 0.64729802E-01 0.11427586E+04</pdfrwt>
<totfact> 0.48749780E+00</totfact>
</mgrwt>
</event>
<event>
 4    5  0.7289609E-008  0.1421244E+04  0.7818608E-02  0.8967349E-01
         -2   -1    0    0    0  501 -0.00000000000E+00  0.00000000000E+00  0.78800855855E+03  0.78800855856E+03  0.25500000000E-02 0.  1.
          2   -1    0    0  501    0  0.00000000000E+00 -0.00000000000E+00 -0.26241713550E+04  0.26241713550E+04  0.25500000000E-02 0. -1.
    8880023    1    1    2    0    0 -0.39608797346E+02 -0.12587913463E+04 -0.36073142980E+03  0.14663089310E+04  0.65864270000E+03 0.  0.
    8880022    1    1    2    0    0  0.39608797346E+02  0.12587913463E+04 -0.14754313667E+04  0.19458709826E+04  0.15294330000E+03 0.  0.
<mgrwt>
<rscale>  0 0.13814603E+04</rscale>
<asrwt>0</asrwt>
<pdfrwt beam="1">  1        2 0.40371867E+00 0.14212441E+04</pdfrwt>
<pdfrwt beam="2">  1       -2 0.12123209E+00 0.14212441E+04</pdfrwt>
<totfact> 0.14600565E+00</totfact>
</mgrwt>
</event>
<event>
 4    5  0.7289609E-008  0.7194755E+03  0.7818608E-02  0.9924365E-01
          2   -1    0    0  501    0  0.00000000000E+00  0.00000000000E+00  0.21087279698E+04  0.21087279698E+04  0.25500000000E-02 0. -1.
         -2   -1    0    0    0  501 -0.00000000000E+00 -0.00000000000E+00 -0.20679693069E+03  0.20679693071E+03  0.25500000000E-02 0.  1.
    8880023    1    1    2    0    0 -0.53791193414E+02 -0.28450172965E+03  0.18487049354E+04  0.19837728880E+04  0.65864270000E+03 0. -1.
    8880022    1    1    2    0    0  0.53791193414E+02  0.28450172965E+03  0.53226103675E+02  0.33175201249E+03  0.15294330000E+03 0.  0.
<mgrwt>
<rscale>  0 0.59094858E+03</rscale>
<asrwt>0</asrwt>
<pdfrwt beam="1">  1        2 0.32441969E+00 0.71947546E+03</pdfrwt>
<pdfrwt beam="2">  1       -2 0.31814912E-01 0.71947546E+03</pdfrwt>
<totfact> 0.55234738E+01</totfact>
</mgrwt>
</event>
<event>
 4    5  0.7289609E-008  0.1053364E+04  0.7818608E-02  0.9314848E-01
         -2   -1    0    0    0  501 -0.00000000000E+00  0.00000000000E+00  0.11803259209E+04  0.11803259209E+04  0.25500000000E-02 0.  1.
          2   -1    0    0  501    0  0.00000000000E+00 -0.00000000000E+00 -0.14667328333E+04  0.14667328333E+04  0.25500000000E-02 0. -1.
    8880023    1    1    2    0    0 -0.27497242999E+03  0.77469709137E+03  0.76635290549E+03  0.13026405501E+04  0.65864270000E+03 0.  1.
    8880022    1    1    2    0    0  0.27497242999E+03 -0.77469709137E+03 -0.10527598179E+04  0.13444182042E+04  0.15294330000E+03 0.  0.
<mgrwt>
<rscale>  0 0.99427309E+03</rscale>
<asrwt>0</asrwt>
<pdfrwt beam="1">  1        2 0.22565121E+00 0.10533640E+04</pdfrwt>
<pdfrwt beam="2">  1       -2 0.18158860E+00 0.10533640E+04</pdfrwt>
<totfact> 0.23114611E+00</totfact>
</mgrwt>
</event>
<event>
 4    5  0.7289609E-008  0.1024159E+04  0.7818608E-02  0.9350611E-01
         -2   -1    0    0    0  501 -0.00000000000E+00  0.00000000000E+00  0.18935641594E+04  0.18935641594E+04  0.25500000000E-02 0.  1.
          2   -1    0    0  501    0  0.00000000000E+00 -0.00000000000E+00 -0.79675907172E+03  0.79675907172E+03  0.25500000000E-02 0. -1.
    8880023    1    1    2    0    0 -0.45684581573E+03  0.63748169777E+03  0.14834489229E+04  0.18026430394E+04  0.65864270000E+03 0.  0.
    8880022    1    1    2    0    0  0.45684581573E+03 -0.63748169777E+03 -0.38664383527E+03  0.88768019168E+03  0.15294330000E+03 0.  0.
<mgrwt>
<rscale>  0 0.96254072E+03</rscale>
<asrwt>0</asrwt>
<pdfrwt beam="1">  1        2 0.12257832E+00 0.10241588E+04</pdfrwt>
<pdfrwt beam="2">  1       -2 0.29131756E+00 0.10241588E+04</pdfrwt>
<totfact> 0.12440943E+00</totfact>
</mgrwt>
</event>
<event>
 4    5  0.7289609E-008  0.9565609E+03  0.7818608E-02  0.9440737E-01
          2   -1    0    0  501    0  0.00000000000E+00  0.00000000000E+00  0.20690797782E+04  0.20690797783E+04  0.25500000000E-02 0. -1.
         -2   -1    0    0    0  501 -0.00000000000E+00 -0.00000000000E+00 -0.43631789524E+03  0.43631789525E+03  0.25500000000E-02 0.  1.
    8880023    1    1    2    0    0  0.69081329966E+03  0.63051790033E+02  0.15055836681E+04  0.17837575315E+04  0.65864270000E+03 0. -1.
    8880022    1    1    2    0    0 -0.69081329966E+03 -0.63051790033E+02  0.12717821491E+03  0.72164014202E+03  0.15294330000E+03 0.  0.
<mgrwt>
<rscale>  0 0.88797721E+03</rscale>
<asrwt>0</asrwt>
<pdfrwt beam="1">  1        2 0.31831996E+00 0.95656090E+03</pdfrwt>
<pdfrwt beam="2">  1       -2 0.67125831E-01 0.95656090E+03</pdfrwt>
<totfact> 0.12565073E+01</totfact>
</mgrwt>
</event>
<event>
 4    5  0.7289609E-008  0.1808063E+04  0.7818608E-02  0.8718089E-01
          2   -1    0    0  501    0  0.00000000000E+00  0.00000000000E+00  0.25678819011E+04  0.25678819011E+04  0.25500000000E-02 0. -1.
         -2   -1    0    0    0  501 -0.00000000000E+00 -0.00000000000E+00 -0.14948004825E+04  0.14948004825E+04  0.25500000000E-02 0.  1.
    8880023    1    1    2    0    0  0.16797278813E+04  0.11745128996E+03 -0.36324540827E+03  0.18441903355E+04  0.65864270000E+03 0.  0.
    8880022    1    1    2    0    0 -0.16797278813E+04 -0.11745128996E+03  0.14363268269E+04  0.22184920481E+04  0.15294330000E+03 0.  0.
<mgrwt>
<rscale>  0 0.17779955E+04</rscale>
<asrwt>0</asrwt>
<pdfrwt beam="1">  1        2 0.39505875E+00 0.18080627E+04</pdfrwt>
<pdfrwt beam="2">  1       -2 0.22996931E+00 0.18080627E+04</pdfrwt>
<totfact> 0.24674799E-01</totfact>
</mgrwt>
</event>
<event>
 4    5  0.7289609E-008  0.1726629E+04  0.7818608E-02  0.8764247E-01
          2   -1    0    0  501    0  0.00000000000E+00  0.00000000000E+00  0.45227194458E+04  0.45227194458E+04  0.25500000000E-02 0. -1.
         -2   -1    0    0    0  501 -0.00000000000E+00 -0.00000000000E+00 -0.12133919227E+04  0.12133919227E+04  0.25500000000E-02 0.  1.
    8880023    1    1    2    0    0  0.13051592916E+04 -0.91869248740E+03  0.37024296387E+04  0.40852456595E+04  0.65864270000E+03 0.  0.
    8880022    1    1    2    0    0 -0.13051592916E+04  0.91869248740E+03 -0.39310211557E+03  0.16508657090E+04  0.15294330000E+03 0.  0.
<mgrwt>
<rscale>  0 0.16949557E+04</rscale>
<asrwt>0</asrwt>
<pdfrwt beam="1">  1        2 0.69580299E+00 0.17266288E+04</pdfrwt>
<pdfrwt beam="2">  1       -2 0.18667568E+00 0.17266288E+04</pdfrwt>
<totfact> 0.17839633E-02</totfact>
</mgrwt>
</event>
<event>
 4    5  0.7289609E-008  0.1059599E+04  0.7818608E-02  0.9307430E-01
          2   -1    0    0  501    0  0.00000000000E+00  0.00000000000E+00  0.10023639653E+04  0.10023639653E+04  0.25500000000E-02 0. -1.
         -2   -1    0    0    0  501 -0.00000000000E+00 -0.00000000000E+00 -0.13624620171E+04  0.13624620171E+04  0.25500000000E-02 0.  1.
    8880023    1    1    2    0    0 -0.62998870754E+03 -0.54042014962E+03 -0.87670990562E+03  0.13752709459E+04  0.65864270000E+03 0.  0.
    8880022    1    1    2    0    0  0.62998870754E+03  0.54042014962E+03  0.51661185388E+03  0.98955503653E+03  0.15294330000E+03 0.  0.
<mgrwt>
<rscale>  0 0.10010169E+04</rscale>
<asrwt>0</asrwt>
<pdfrwt beam="1">  1        2 0.15420984E+00 0.10595989E+04</pdfrwt>
<pdfrwt beam="2">  1       -2 0.20960954E+00 0.10595989E+04</pdfrwt>
<totfact> 0.28513734E+00</totfact>
</mgrwt>
</event>
<event>
 4    5  0.7289609E-008  0.1317109E+04  0.7818608E-02  0.9050924E-01
         -2   -1    0    0    0  501 -0.00000000000E+00  0.00000000000E+00  0.78320305601E+03  0.78320305602E+03  0.25500000000E-02 0.  1.
          2   -1    0    0  501    0  0.00000000000E+00 -0.00000000000E+00 -0.20776910983E+04  0.20776910983E+04  0.25500000000E-02 0. -1.
    8880023    1    1    2    0    0 -0.73064111360E+03 -0.87585927771E+03 -0.32615580266E+03  0.13568911987E+04  0.65864270000E+03 0. -1.
    8880022    1    1    2    0    0  0.73064111360E+03  0.87585927771E+03 -0.96833223967E+03  0.15040029557E+04  0.15294330000E+03 0.  0.
<mgrwt>
<rscale>  0 0.12734062E+04</rscale>
<asrwt>0</asrwt>
<pdfrwt beam="1">  1        2 0.31964478E+00 0.13171090E+04</pdfrwt>
<pdfrwt beam="2">  1       -2 0.12049278E+00 0.13171090E+04</pdfrwt>
<totfact> 0.30675515E+00</totfact>
</mgrwt>
</event>
<event>
 4    5  0.7289609E-008  0.1067527E+04  0.7818608E-02  0.9298103E-01
          2   -1    0    0  501    0  0.00000000000E+00  0.00000000000E+00  0.17176419131E+04  0.17176419131E+04  0.25500000000E-02 0. -1.
         -2   -1    0    0    0  501 -0.00000000000E+00 -0.00000000000E+00 -0.14285923315E+04  0.14285923315E+04  0.25500000000E-02 0.  1.
    8880023    1    1    2    0    0 -0.68099096686E+03 -0.49199026170E+03 -0.10890554968E+04  0.15250099002E+04  0.65864270000E+03 0.  0.
    8880022    1    1    2    0    0  0.68099096686E+03  0.49199026170E+03  0.13781050784E+04  0.16212243443E+04  0.15294330000E+03 0.  0.
<mgrwt>
<rscale>  0 0.10095771E+04</rscale>
<asrwt>0</asrwt>
<pdfrwt beam="1">  1        2 0.26425260E+00 0.10675267E+04</pdfrwt>
<pdfrwt beam="2">  1       -2 0.21978344E+00 0.10675267E+04</pdfrwt>
<totfact> 0.93847738E-01</totfact>
</mgrwt>
</event>
<event>
 4    5  0.7289609E-008  0.9943302E+03  0.7818608E-02  0.9389013E-01
          2   -1    0    0  501    0  0.00000000000E+00  0.00000000000E+00  0.18220109420E+04  0.18220109420E+04  0.25500000000E-02 0. -1.
         -2   -1    0    0    0  501 -0.00000000000E+00 -0.00000000000E+00 -0.92396772492E+03  0.92396772492E+03  0.25500000000E-02 0.  1.
    8880023    1    1    2    0    0  0.37022471433E+03  0.64638690764E+03  0.14837542941E+04  0.17861185249E+04  0.65864270000E+03 0.  0.
    8880022    1    1    2    0    0 -0.37022471433E+03 -0.64638690764E+03 -0.58571107703E+03  0.95986014202E+03  0.15294330000E+03 0.  0.
<mgrwt>
<rscale>  0 0.92985384E+03</rscale>
<asrwt>0</asrwt>
<pdfrwt beam="1">  1        2 0.28030937E+00 0.99433022E+03</pdfrwt>
<pdfrwt beam="2">  1       -2 0.14214888E+00 0.99433022E+03</pdfrwt>
<totfact> 0.28857393E+00</totfact>
</mgrwt>
</event>
<event>
 4    5  0.7289609E-008  0.7517494E+03  0.7818608E-02  0.9826956E-01
          2   -1    0    0  501    0  0.00000000000E+00  0.00000000000E+00  0.77357361523E+03  0.77357361524E+03  0.25500000000E-02 0. -1.
         -2   -1    0    0    0  501 -0.00000000000E+00 -0.00000000000E+00 -0.99099858479E+03  0.99099858479E+03  0.25500000000E-02 0.  1.
    8880023    1    1    2    0    0 -0.29637713468E+03  0.20851263582E+03 -0.77664380898E+03  0.10808805381E+04  0.65864270000E+03 0.  1.
    8880022    1    1    2    0    0  0.29637713468E+03 -0.20851263582E+03  0.55921883943E+03  0.68369166197E+03  0.15294330000E+03 0.  0.
<mgrwt>
<rscale>  0 0.63935801E+03</rscale>
<asrwt>0</asrwt>
<pdfrwt beam="1">  1        2 0.11901132E+00 0.75174938E+03</pdfrwt>
<pdfrwt beam="2">  1       -2 0.15246132E+00 0.75174938E+03</pdfrwt>
<totfact> 0.10497211E+01</totfact>
</mgrwt>
</event>
<event>
 4    5  0.7289609E-008  0.7186616E+03  0.7818608E-02  0.9927141E-01
         -2   -1    0    0    0  501 -0.00000000000E+00  0.00000000000E+00  0.24143175114E+03  0.24143175115E+03  0.25500000000E-02 0.  1.
          2   -1    0    0  501    0  0.00000000000E+00 -0.00000000000E+00 -0.25602922551E+04  0.25602922551E+04  0.25500000000E-02 0. -1.
    8880023    1    1    2    0    0  0.10741833487E+03  0.26669381195E+03 -0.33783260826E+03  0.79410664615E+03  0.65864270000E+03 0.  1.
    8880022    1    1    2    0    0 -0.10741833487E+03 -0.26669381195E+03 -0.19810278957E+04  0.20076173601E+04  0.15294330000E+03 0.  0.
<mgrwt>
<rscale>  0 0.58963765E+03</rscale>
<asrwt>0</asrwt>
<pdfrwt beam="1">  1        2 0.39389110E+00 0.71866160E+03</pdfrwt>
<pdfrwt beam="2">  1       -2 0.37143348E-01 0.71866160E+03</pdfrwt>
<totfact> 0.23067040E+01</totfact>
</mgrwt>
</event>
<event>
 4    5  0.7289609E-008  0.7234202E+03  0.7818608E-02  0.9911178E-01
         -2   -1    0    0    0  501 -0.00000000000E+00  0.00000000000E+00  0.90378930923E+03  0.90378930923E+03  0.25500000000E-02 0.  1.
          2   -1    0    0  501    0  0.00000000000E+00 -0.00000000000E+00 -0.84322854552E+03  0.84322854552E+03  0.25500000000E-02 0. -1.
    8880023    1    1    2    0    0  0.11117735697E+03  0.27778810996E+03  0.71136395476E+03  0.10145814512E+04  0.65864270000E+03 0.  0.
    8880022    1    1    2    0    0 -0.11117735697E+03 -0.27778810996E+03 -0.65080319105E+03  0.73243640354E+03  0.15294330000E+03 0. -1.
<mgrwt>
<rscale>  0 0.59722576E+03</rscale>
<asrwt>0</asrwt>
<pdfrwt beam="1">  1        2 0.12972747E+00 0.72342024E+03</pdfrwt>
<pdfrwt beam="2">  1       -2 0.13904451E+00 0.72342024E+03</pdfrwt>
<totfact> 0.11953643E+01</totfact>
</mgrwt>
</event>
<event>
 4    5  0.7289609E-008  0.1092235E+04  0.7818608E-02  0.9269751E-01
          2   -1    0    0  501    0  0.00000000000E+00  0.00000000000E+00  0.27085812912E+04  0.27085812912E+04  0.25500000000E-02 0. -1.
         -2   -1    0    0    0  501 -0.00000000000E+00 -0.00000000000E+00 -0.41938691132E+03  0.41938691132E+03  0.25500000000E-02 0.  1.
    8880023    1    1    2    0    0  0.83105614292E+03 -0.26175017626E+03  0.66572531833E+03  0.12791277783E+04  0.65864270000E+03 0.  0.
    8880022    1    1    2    0    0 -0.83105614292E+03  0.26175017626E+03  0.16234690616E+04  0.18488404243E+04  0.15294330000E+03 0.  0.
<mgrwt>
<rscale>  0 0.10361599E+04</rscale>
<asrwt>0</asrwt>
<pdfrwt beam="1">  1        2 0.41670481E+00 0.10922352E+04</pdfrwt>
<pdfrwt beam="2">  1       -2 0.64521064E-01 0.10922352E+04</pdfrwt>
<totfact> 0.58434622E+00</totfact>
</mgrwt>
</event>
<event>
 4    5  0.7289609E-008  0.7529495E+03  0.7818608E-02  0.9823715E-01
          2   -1    0    0  501    0  0.00000000000E+00  0.00000000000E+00  0.17010191604E+04  0.17010191604E+04  0.25500000000E-02 0. -1.
         -2   -1    0    0    0  501 -0.00000000000E+00 -0.00000000000E+00 -0.40698832645E+03  0.40698832646E+03  0.25500000000E-02 0.  1.
    8880023    1    1    2    0    0 -0.24665347779E+03  0.26885838997E+03 -0.19863613044E+01  0.75295213915E+03  0.65864270000E+03 0.  1.
    8880022    1    1    2    0    0  0.24665347779E+03 -0.26885838997E+03  0.12960171953E+04  0.13550553478E+04  0.15294330000E+03 0.  0.
<mgrwt>
<rscale>  0 0.64105264E+03</rscale>
<asrwt>0</asrwt>
<pdfrwt beam="1">  1        2 0.26169526E+00 0.75294952E+03</pdfrwt>
<pdfrwt beam="2">  1       -2 0.62613589E-01 0.75294952E+03</pdfrwt>
<totfact> 0.23793596E+01</totfact>
</mgrwt>
</event>
<event>
 4    5  0.7289609E-008  0.1018893E+04  0.7818608E-02  0.9357247E-01
         -2   -1    0    0    0  501 -0.00000000000E+00  0.00000000000E+00  0.22240001809E+03  0.22240001811E+03  0.25500000000E-02 0.  1.
          2   -1    0    0  501    0  0.00000000000E+00 -0.00000000000E+00 -0.43256131831E+04  0.43256131831E+04  0.25500000000E-02 0. -1.
    8880023    1    1    2    0    0  0.65382472656E+03  0.42053082008E+03 -0.14028518919E+04  0.17338213808E+04  0.65864270000E+03 0.  1.
    8880022    1    1    2    0    0 -0.65382472656E+03 -0.42053082008E+03 -0.27003612731E+04  0.28141918204E+04  0.15294330000E+03 0. -1.
<mgrwt>
<rscale>  0 0.95679216E+03</rscale>
<asrwt>0</asrwt>
<pdfrwt beam="1">  1        2 0.66547889E+00 0.10188931E+04</pdfrwt>
<pdfrwt beam="2">  1       -2 0.34215391E-01 0.10188931E+04</pdfrwt>
<totfact> 0.15307521E+00</totfact>
</mgrwt>
</event>
<event>
 4    5  0.9034729E-008  0.8864735E+03  0.7818608E-02  0.9548104E-01
         -2   -1    0    0    0  501 -0.00000000000E+00  0.00000000000E+00  0.14339993418E+04  0.14339993418E+04  0.25500000000E-02 0.  1.
          2   -1    0    0  501    0  0.00000000000E+00 -0.00000000000E+00 -0.33446286805E+04  0.33446286805E+04  0.25500000000E-02 0. -1.
    8880023    1    1    2    0    0  0.47918029776E+03 -0.34987320750E+03  0.12648567429E+04  0.15445704275E+04  0.65864270000E+03 0.  1.
    8880022    1    1    2    0    0 -0.47918029776E+03  0.34987320750E+03 -0.31754860817E+04  0.32340575949E+04  0.15294330000E+03 0.  0.
<mgrwt>
<rscale>  0 0.80828311E+03</rscale>
<asrwt>0</asrwt>
<pdfrwt beam="1">  1        2 0.51455826E+00 0.88647348E+03</pdfrwt>
<pdfrwt beam="2">  1       -2 0.22061528E+00 0.88647348E+03</pdfrwt>
<totfact> 0.10744840E-01</totfact>
</mgrwt>
</event>
<event>
 4    5  0.7289609E-008  0.8760261E+03  0.7818608E-02  0.9565668E-01
          2   -1    0    0  501    0  0.00000000000E+00  0.00000000000E+00  0.29765675801E+04  0.29765675801E+04  0.25500000000E-02 0. -1.
         -2   -1    0    0    0  501 -0.00000000000E+00 -0.00000000000E+00 -0.27276622421E+03  0.27276622422E+03  0.25500000000E-02 0.  1.
    8880023    1    1    2    0    0  0.40692091889E+03 -0.40991078196E+03  0.59866763802E+03  0.10610488351E+04  0.65864270000E+03 0.  1.
    8880022    1    1    2    0    0 -0.40692091889E+03  0.40991078196E+03  0.21051337179E+04  0.21882849692E+04  0.15294330000E+03 0.  0.
<mgrwt>
<rscale>  0 0.79610762E+03</rscale>
<asrwt>0</asrwt>
<pdfrwt beam="1">  1        2 0.45793351E+00 0.87602608E+03</pdfrwt>
<pdfrwt beam="2">  1       -2 0.41964032E-01 0.87602608E+03</pdfrwt>
<totfact> 0.10084775E+01</totfact>
</mgrwt>
</event>
<event>
 4    5  0.7289609E-008  0.7073197E+03  0.7818608E-02  0.9968092E-01
         -2   -1    0    0    0  501 -0.00000000000E+00  0.00000000000E+00  0.14622863730E+03  0.14622863732E+03  0.25500000000E-02 0.  1.
          2   -1    0    0  501    0  0.00000000000E+00 -0.00000000000E+00 -0.32655643621E+04  0.32655643621E+04  0.25500000000E-02 0. -1.
    8880023    1    1    2    0    0  0.25769655836E+03 -0.91347866591E+01 -0.77850626098E+03  0.10518427474E+04  0.65864270000E+03 0.  1.
    8880022    1    1    2    0    0 -0.25769655836E+03  0.91347866591E+01 -0.23408294638E+04  0.23599502520E+04  0.15294330000E+03 0.  0.
<mgrwt>
<rscale>  0 0.57071762E+03</rscale>
<asrwt>0</asrwt>
<pdfrwt beam="1">  1        2 0.50239446E+00 0.70731971E+03</pdfrwt>
<pdfrwt beam="2">  1       -2 0.22496716E-01 0.70731971E+03</pdfrwt>
<totfact> 0.21883758E+01</totfact>
</mgrwt>
</event>
<event>
 4    5  0.7289609E-008  0.1380335E+04  0.7818608E-02  0.8999115E-01
          2   -1    0    0  501    0  0.00000000000E+00  0.00000000000E+00  0.15053222039E+04  0.15053222039E+04  0.25500000000E-02 0. -1.
         -2   -1    0    0    0  501 -0.00000000000E+00 -0.00000000000E+00 -0.12147195741E+04  0.12147195741E+04  0.25500000000E-02 0.  1.
    8880023    1    1    2    0    0  0.68466069865E+03  0.10013766036E+04 -0.21496744669E+03  0.13969740813E+04  0.65864270000E+03 0.  0.
    8880022    1    1    2    0    0 -0.68466069865E+03 -0.10013766036E+04  0.50557007645E+03  0.13230676966E+04  0.15294330000E+03 0.  0.
<mgrwt>
<rscale>  0 0.13391068E+04</rscale>
<asrwt>0</asrwt>
<pdfrwt beam="1">  1        2 0.23158803E+00 0.13803353E+04</pdfrwt>
<pdfrwt beam="2">  1       -2 0.18687993E+00 0.13803353E+04</pdfrwt>
<totfact> 0.19550602E+00</totfact>
</mgrwt>
</event>
<event>
 4    5  0.7289609E-008  0.9326250E+03  0.7818608E-02  0.9475566E-01
          2   -1    0    0  501    0  0.00000000000E+00  0.00000000000E+00  0.25973456188E+04  0.25973456188E+04  0.25500000000E-02 0. -1.
         -2   -1    0    0    0  501 -0.00000000000E+00 -0.00000000000E+00 -0.29871749232E+03  0.29871749233E+03  0.25500000000E-02 0.  1.
    8880023    1    1    2    0    0  0.68680607555E+01  0.66025144147E+03  0.72041018703E+03  0.11784651798E+04  0.65864270000E+03 0.  1.
    8880022    1    1    2    0    0 -0.68680607555E+01 -0.66025144147E+03  0.15782179394E+04  0.17175979313E+04  0.15294330000E+03 0.  0.
<mgrwt>
<rscale>  0 0.86109428E+03</rscale>
<asrwt>0</asrwt>
<pdfrwt beam="1">  1        2 0.39959162E+00 0.93262497E+03</pdfrwt>
<pdfrwt beam="2">  1       -2 0.45956539E-01 0.93262497E+03</pdfrwt>
<totfact> 0.14022501E+01</totfact>
</mgrwt>
</event>
<event>
 4    5  0.7289609E-008  0.6724240E+03  0.7818608E-02  0.1013982E+00
          2   -1    0    0  501    0  0.00000000000E+00  0.00000000000E+00  0.18169331571E+04  0.18169331571E+04  0.25500000000E-02 0. -1.
         -2   -1    0    0    0  501 -0.00000000000E+00 -0.00000000000E+00 -0.53423329067E+03  0.53423329068E+03  0.25500000000E-02 0.  1.
    8880023    1    1    2    0    0  0.62909401795E+02  0.11994245548E+03 -0.31352290981E+03  0.74192358549E+03  0.65864270000E+03 0.  1.
    8880022    1    1    2    0    0 -0.62909401795E+02 -0.11994245548E+03  0.15962227762E+04  0.16092428623E+04  0.15294330000E+03 0.  0.
<mgrwt>
<rscale>  0 0.49922406E+03</rscale>
<asrwt>0</asrwt>
<pdfrwt beam="1">  1        2 0.27952817E+00 0.67242397E+03</pdfrwt>
<pdfrwt beam="2">  1       -2 0.82189739E-01 0.67242397E+03</pdfrwt>
<totfact> 0.11456626E+01</totfact>
</mgrwt>
</event>
<event>
 4    5  0.7289609E-008  0.7496671E+03  0.7818608E-02  0.9832632E-01
         -2   -1    0    0    0  501 -0.00000000000E+00  0.00000000000E+00  0.46842439822E+03  0.46842439823E+03  0.25500000000E-02 0.  1.
          2   -1    0    0  501    0  0.00000000000E+00 -0.00000000000E+00 -0.17514317890E+04  0.17514317890E+04  0.25500000000E-02 0. -1.
    8880023    1    1    2    0    0 -0.32182521160E+03 -0.15690485249E+03  0.12410843005E+03  0.75987084971E+03  0.65864270000E+03 0.  1.
    8880022    1    1    2    0    0  0.32182521160E+03  0.15690485249E+03 -0.14071158208E+04  0.14599853375E+04  0.15294330000E+03 0.  0.
<mgrwt>
<rscale>  0 0.63640326E+03</rscale>
<asrwt>0</asrwt>
<pdfrwt beam="1">  1        2 0.26945104E+00 0.74966713E+03</pdfrwt>
<pdfrwt beam="2">  1       -2 0.72065293E-01 0.74966713E+03</pdfrwt>
<totfact> 0.16480545E+01</totfact>
</mgrwt>
</event>
<event>
 4    5  0.7289609E-008  0.7317135E+03  0.7818608E-02  0.9884778E-01
          2   -1    0    0  501    0  0.00000000000E+00  0.00000000000E+00  0.14105119248E+04  0.14105119248E+04  0.25500000000E-02 0. -1.
         -2   -1    0    0    0  501 -0.00000000000E+00 -0.00000000000E+00 -0.10134301319E+04  0.10134301319E+04  0.25500000000E-02 0.  1.
    8880023    1    1    2    0    0 -0.31390041513E+03  0.55326103105E+02 -0.85357615774E+03  0.11242761723E+04  0.65864270000E+03 0.  0.
    8880022    1    1    2    0    0  0.31390041513E+03 -0.55326103105E+02  0.12506579507E+04  0.12996658844E+04  0.15294330000E+03 0.  0.
<mgrwt>
<rscale>  0 0.61004731E+03</rscale>
<asrwt>0</asrwt>
<pdfrwt beam="1">  1        2 0.21700183E+00 0.73171351E+03</pdfrwt>
<pdfrwt beam="2">  1       -2 0.15591233E+00 0.73171351E+03</pdfrwt>
<totfact> 0.39653273E+00</totfact>
</mgrwt>
</event>
<event>
 4    5  0.7289609E-008  0.7372769E+03  0.7818608E-02  0.9867951E-01
         -2   -1    0    0    0  501 -0.00000000000E+00  0.00000000000E+00  0.15337369570E+04  0.15337369570E+04  0.25500000000E-02 0.  1.
          2   -1    0    0  501    0  0.00000000000E+00 -0.00000000000E+00 -0.10689404597E+04  0.10689404597E+04  0.25500000000E-02 0. -1.
    8880023    1    1    2    0    0  0.33100254667E+03 -0.14293640776E+02  0.14090960860E+04  0.15903235456E+04  0.65864270000E+03 0.  1.
    8880022    1    1    2    0    0 -0.33100254667E+03  0.14293640776E+02 -0.94429958868E+03  0.10123538711E+04  0.15294330000E+03 0.  0.
<mgrwt>
<rscale>  0 0.61839951E+03</rscale>
<asrwt>0</asrwt>
<pdfrwt beam="1">  1        2 0.16445238E+00 0.73727688E+03</pdfrwt>
<pdfrwt beam="2">  1       -2 0.23595953E+00 0.73727688E+03</pdfrwt>
<totfact> 0.18484135E+00</totfact>
</mgrwt>
</event>
<event>
 4    5  0.7289609E-008  0.7138707E+03  0.7818608E-02  0.9943899E-01
          2   -1    0    0  501    0  0.00000000000E+00  0.00000000000E+00  0.28557592821E+04  0.28557592821E+04  0.25500000000E-02 0. -1.
         -2   -1    0    0    0  501 -0.00000000000E+00 -0.00000000000E+00 -0.34875664678E+03  0.34875664679E+03  0.25500000000E-02 0.  1.
    8880023    1    1    2    0    0 -0.11545116774E+03  0.24994426341E+03  0.37334159695E+02  0.71484624409E+03  0.65864270000E+03 0.  1.
    8880022    1    1    2    0    0  0.11545116774E+03 -0.24994426341E+03  0.24696684757E+04  0.24896696848E+04  0.15294330000E+03 0.  0.
<mgrwt>
<rscale>  0 0.58180124E+03</rscale>
<asrwt>0</asrwt>
<pdfrwt beam="1">  1        2 0.43934760E+00 0.71387066E+03</pdfrwt>
<pdfrwt beam="2">  1       -2 0.53654866E-01 0.71387066E+03</pdfrwt>
<totfact> 0.74699973E+00</totfact>
</mgrwt>
</event>
<event>
 4    5  0.7289609E-008  0.1261310E+04  0.7818608E-02  0.9099713E-01
         -2   -1    0    0    0  501 -0.00000000000E+00  0.00000000000E+00  0.14972257629E+04  0.14972257629E+04  0.25500000000E-02 0.  1.
          2   -1    0    0  501    0  0.00000000000E+00 -0.00000000000E+00 -0.99081084281E+03  0.99081084281E+03  0.25500000000E-02 0. -1.
    8880023    1    1    2    0    0  0.83661691658E+03 -0.67613927627E+03  0.60148269083E+03  0.13973846355E+04  0.65864270000E+03 0.  0.
    8880022    1    1    2    0    0 -0.83661691658E+03  0.67613927627E+03 -0.95067770725E+02  0.10906519702E+04  0.15294330000E+03 0.  0.
<mgrwt>
<rscale>  0 0.12151330E+04</rscale>
<asrwt>0</asrwt>
<pdfrwt beam="1">  1        2 0.15243244E+00 0.12613098E+04</pdfrwt>
<pdfrwt beam="2">  1       -2 0.23034242E+00 0.12613098E+04</pdfrwt>
<totfact> 0.21019680E+00</totfact>
</mgrwt>
</event>
<event>
 4    5  0.7289609E-008  0.1419644E+04  0.7818608E-02  0.8968567E-01
         -2   -1    0    0    0  501 -0.00000000000E+00  0.00000000000E+00  0.26919232856E+04  0.26919232856E+04  0.25500000000E-02 0.  1.
          2   -1    0    0  501    0  0.00000000000E+00 -0.00000000000E+00 -0.10545898814E+04  0.10545898814E+04  0.25500000000E-02 0. -1.
    8880023    1    1    2    0    0 -0.63251787276E+01  0.12575930206E+04  0.19779177823E+04  0.24346558634E+04  0.65864270000E+03 0.  1.
    8880022    1    1    2    0    0  0.63251787276E+01 -0.12575930206E+04 -0.34058437804E+03  0.13118573036E+04  0.15294330000E+03 0.  0.
<mgrwt>
<rscale>  0 0.13798063E+04</rscale>
<asrwt>0</asrwt>
<pdfrwt beam="1">  1        2 0.16224460E+00 0.14196445E+04</pdfrwt>
<pdfrwt beam="2">  1       -2 0.41414203E+00 0.14196445E+04</pdfrwt>
<totfact> 0.13345440E-01</totfact>
</mgrwt>
</event>
<event>
 4    5  0.7289609E-008  0.8925736E+03  0.7818608E-02  0.9538060E-01
         -2   -1    0    0    0  501 -0.00000000000E+00  0.00000000000E+00  0.25884185821E+03  0.25884185822E+03  0.25500000000E-02 0.  1.
          2   -1    0    0  501    0  0.00000000000E+00 -0.00000000000E+00 -0.39538476745E+04  0.39538476745E+04  0.25500000000E-02 0. -1.
    8880023    1    1    2    0    0 -0.52034625372E+03 -0.30350808749E+03 -0.64812107421E+03  0.11030632421E+04  0.65864270000E+03 0.  1.
    8880022    1    1    2    0    0  0.52034625372E+03  0.30350808749E+03 -0.30468847421E+04  0.31096262907E+04  0.15294330000E+03 0.  0.
<mgrwt>
<rscale>  0 0.81535034E+03</rscale>
<asrwt>0</asrwt>
<pdfrwt beam="1">  1        2 0.60828422E+00 0.89257358E+03</pdfrwt>
<pdfrwt beam="2">  1       -2 0.39821827E-01 0.89257358E+03</pdfrwt>
<totfact> 0.23868532E+00</totfact>
</mgrwt>
</event>
<event>
 4    5  0.7289609E-008  0.1321557E+04  0.7818608E-02  0.9047164E-01
         -2   -1    0    0    0  501 -0.00000000000E+00  0.00000000000E+00  0.10833480403E+04  0.10833480403E+04  0.25500000000E-02 0.  1.
          2   -1    0    0  501    0  0.00000000000E+00 -0.00000000000E+00 -0.18662687764E+04  0.18662687764E+04  0.25500000000E-02 0. -1.
    8880023    1    1    2    0    0 -0.23782164456E+03 -0.11207782042E+04  0.31154039767E+03  0.13577814785E+04  0.65864270000E+03 0.  1.
    8880022    1    1    2    0    0  0.23782164456E+03  0.11207782042E+04 -0.10944611338E+04  0.15918353382E+04  0.15294330000E+03 0.  0.
<mgrwt>
<rscale>  0 0.12780390E+04</rscale>
<asrwt>0</asrwt>
<pdfrwt beam="1">  1        2 0.28711827E+00 0.13215571E+04</pdfrwt>
<pdfrwt beam="2">  1       -2 0.16666893E+00 0.13215571E+04</pdfrwt>
<totfact> 0.17120715E+00</totfact>
</mgrwt>
</event>
<event>
 4    5  0.7289609E-008  0.7760149E+03  0.7818608E-02  0.9765283E-01
          2   -1    0    0  501    0  0.00000000000E+00  0.00000000000E+00  0.14724309924E+04  0.14724309924E+04  0.25500000000E-02 0. -1.
         -2   -1    0    0    0  501 -0.00000000000E+00 -0.00000000000E+00 -0.82657738636E+03  0.82657738637E+03  0.25500000000E-02 0.  1.
    8880023    1    1    2    0    0  0.41032294227E+03  0.49058342008E+01 -0.59839868125E+03  0.97993886143E+03  0.65864270000E+03 0.  1.
    8880022    1    1    2    0    0 -0.41032294227E+03 -0.49058342008E+01  0.12442522873E+04  0.13190695173E+04  0.15294330000E+03 0.  0.
<mgrwt>
<rscale>  0 0.67259426E+03</rscale>
<asrwt>0</asrwt>
<pdfrwt beam="1">  1        2 0.22652784E+00 0.77601494E+03</pdfrwt>
<pdfrwt beam="2">  1       -2 0.12716575E+00 0.77601494E+03</pdfrwt>
<totfact> 0.61693160E+00</totfact>
</mgrwt>
</event>
<event>
 4    5  0.7289609E-008  0.1120210E+04  0.7818608E-02  0.9238881E-01
         -2   -1    0    0    0  501 -0.00000000000E+00  0.00000000000E+00  0.10526631684E+04  0.10526631684E+04  0.25500000000E-02 0.  1.
          2   -1    0    0  501    0  0.00000000000E+00 -0.00000000000E+00 -0.17587030126E+04  0.17587030126E+04  0.25500000000E-02 0. -1.
    8880023    1    1    2    0    0 -0.35281399037E+03  0.83461551745E+03  0.55568957041E+03  0.12504646651E+04  0.65864270000E+03 0.  1.
    8880022    1    1    2    0    0  0.35281399037E+03 -0.83461551745E+03 -0.12617294146E+04  0.15609015160E+04  0.15294330000E+03 0.  0.
<mgrwt>
<rscale>  0 0.10660966E+04</rscale>
<asrwt>0</asrwt>
<pdfrwt beam="1">  1        2 0.27056969E+00 0.11202102E+04</pdfrwt>
<pdfrwt beam="2">  1       -2 0.16194818E+00 0.11202102E+04</pdfrwt>
<totfact> 0.21729477E+00</totfact>
</mgrwt>
</event>
<event>
 4    5  0.7289609E-008  0.7756566E+03  0.7818608E-02  0.9766140E-01
         -2   -1    0    0    0  501 -0.00000000000E+00  0.00000000000E+00  0.14543211110E+04  0.14543211110E+04  0.25500000000E-02 0.  1.
          2   -1    0    0  501    0  0.00000000000E+00 -0.00000000000E+00 -0.45050657478E+03  0.45050657478E+03  0.25500000000E-02 0. -1.
    8880023    1    1    2    0    0 -0.28383338040E+03  0.29541757350E+03  0.11973388785E+04  0.14266266249E+04  0.65864270000E+03 0.  1.
    8880022    1    1    2    0    0  0.28383338040E+03 -0.29541757350E+03 -0.19352434229E+03  0.47820106089E+03  0.15294330000E+03 0.  0.
<mgrwt>
<rscale>  0 0.67211731E+03</rscale>
<asrwt>0</asrwt>
<pdfrwt beam="1">  1        2 0.69308704E-01 0.77565658E+03</pdfrwt>
<pdfrwt beam="2">  1       -2 0.22374171E+00 0.77565658E+03</pdfrwt>
<totfact> 0.66323754E+00</totfact>
</mgrwt>
</event>
<event>
 4    5  0.7289609E-008  0.8696806E+03  0.7818608E-02  0.9576570E-01
          2   -1    0    0  501    0  0.00000000000E+00  0.00000000000E+00  0.24009345201E+04  0.24009345201E+04  0.25500000000E-02 0. -1.
         -2   -1    0    0    0  501 -0.00000000000E+00 -0.00000000000E+00 -0.71768810107E+03  0.71768810108E+03  0.25500000000E-02 0.  1.
    8880023    1    1    2    0    0  0.16456562151E+03 -0.54355521256E+03 -0.39759522623E+03  0.95625638982E+03  0.65864270000E+03 0.  1.
    8880022    1    1    2    0    0 -0.16456562151E+03  0.54355521256E+03  0.20808416453E+04  0.21623662314E+04  0.15294330000E+03 0.  0.
<mgrwt>
<rscale>  0 0.78866523E+03</rscale>
<asrwt>0</asrwt>
<pdfrwt beam="1">  1        2 0.36937454E+00 0.86968058E+03</pdfrwt>
<pdfrwt beam="2">  1       -2 0.11041355E+00 0.86968058E+03</pdfrwt>
<totfact> 0.26517609E+00</totfact>
</mgrwt>
</event>
<event>
 4    5  0.7289609E-008  0.8593584E+03  0.7818608E-02  0.9594706E-01
          2   -1    0    0  501    0  0.00000000000E+00  0.00000000000E+00  0.52108443509E+03  0.52108443510E+03  0.25500000000E-02 0. -1.
         -2   -1    0    0    0  501 -0.00000000000E+00 -0.00000000000E+00 -0.17457169873E+04  0.17457169873E+04  0.25500000000E-02 0.  1.
    8880023    1    1    2    0    0 -0.96254876100E+02 -0.54352699561E+03 -0.14215513856E+04  0.16611156324E+04  0.65864270000E+03 0.  1.
    8880022    1    1    2    0    0  0.96254876100E+02  0.54352699561E+03  0.19691883345E+03  0.60568578992E+03  0.15294330000E+03 0.  0.
<mgrwt>
<rscale>  0 0.77647578E+03</rscale>
<asrwt>0</asrwt>
<pdfrwt beam="1">  1        2 0.80166837E-01 0.85935837E+03</pdfrwt>
<pdfrwt beam="2">  1       -2 0.26857184E+00 0.85935837E+03</pdfrwt>
<totfact> 0.29556324E+00</totfact>
</mgrwt>
</event>
<event>
 4    5  0.7289609E-008  0.8838849E+03  0.7818608E-02  0.9552413E-01
          2   -1    0    0  501    0  0.00000000000E+00  0.00000000000E+00  0.11283051608E+04  0.11283051608E+04  0.25500000000E-02 0. -1.
         -2   -1    0    0    0  501 -0.00000000000E+00 -0.00000000000E+00 -0.68526101533E+03  0.68526101533E+03  0.25500000000E-02 0.  1.
    8880023    1    1    2    0    0 -0.95906138818E+02 -0.58158770287E+03 -0.22250749187E+03  0.91146148235E+03  0.65864270000E+03 0.  1.
    8880022    1    1    2    0    0  0.95906138818E+02  0.58158770287E+03  0.66555163739E+03  0.90210469384E+03  0.15294330000E+03 0.  0.
<mgrwt>
<rscale>  0 0.80527497E+03</rscale>
<asrwt>0</asrwt>
<pdfrwt beam="1">  1        2 0.17358541E+00 0.88388486E+03</pdfrwt>
<pdfrwt beam="2">  1       -2 0.10542477E+00 0.88388486E+03</pdfrwt>
<totfact> 0.15299875E+01</totfact>
</mgrwt>
</event>
<event>
 4    5  0.7289609E-008  0.7139256E+03  0.7818608E-02  0.9943703E-01
          2   -1    0    0  501    0  0.00000000000E+00  0.00000000000E+00  0.20549906670E+04  0.20549906670E+04  0.25500000000E-02 0. -1.
         -2   -1    0    0    0  501 -0.00000000000E+00 -0.00000000000E+00 -0.25344307759E+03  0.25344307760E+03  0.25500000000E-02 0.  1.
    8880023    1    1    2    0    0 -0.20063910550E+03  0.18874194693E+03  0.30035608514E+03  0.77453441327E+03  0.65864270000E+03 0.  0.
    8880022    1    1    2    0    0  0.20063910550E+03 -0.18874194693E+03  0.15011915043E+04  0.15338993314E+04  0.15294330000E+03 0.  0.
<mgrwt>
<rscale>  0 0.58189235E+03</rscale>
<asrwt>0</asrwt>
<pdfrwt beam="1">  1        2 0.31615241E+00 0.71392561E+03</pdfrwt>
<pdfrwt beam="2">  1       -2 0.38991243E-01 0.71392561E+03</pdfrwt>
<totfact> 0.40140724E+01</totfact>
</mgrwt>
</event>
<event>
 4    5  0.7289609E-008  0.8674815E+03  0.7818608E-02  0.9580391E-01
         -2   -1    0    0    0  501 -0.00000000000E+00  0.00000000000E+00  0.82658969742E+03  0.82658969742E+03  0.25500000000E-02 0.  1.
          2   -1    0    0  501    0  0.00000000000E+00 -0.00000000000E+00 -0.86843073802E+03  0.86843073802E+03  0.25500000000E-02 0. -1.
    8880023    1    1    2    0    0 -0.37195090190E+03 -0.42469568809E+03  0.40655391199E+03  0.95802410748E+03  0.65864270000E+03 0.  1.
    8880022    1    1    2    0    0  0.37195090190E+03  0.42469568809E+03 -0.44839495259E+03  0.73699632796E+03  0.15294330000E+03 0.  0.
<mgrwt>
<rscale>  0 0.78607715E+03</rscale>
<asrwt>0</asrwt>
<pdfrwt beam="1">  1        2 0.13360473E+00 0.86748147E+03</pdfrwt>
<pdfrwt beam="2">  1       -2 0.12716764E+00 0.86748147E+03</pdfrwt>
<totfact> 0.14204852E+01</totfact>
</mgrwt>
</event>
<event>
 4    5  0.7289609E-008  0.6646863E+03  0.7818608E-02  0.1019798E+00
         -2   -1    0    0    0  501 -0.00000000000E+00  0.00000000000E+00  0.79839240939E+02  0.79839240980E+02  0.25500000000E-02 0.  1.
          2   -1    0    0  501    0  0.00000000000E+00 -0.00000000000E+00 -0.32308555939E+04  0.32308555939E+04  0.25500000000E-02 0. -1.
    8880023    1    1    2    0    0 -0.77991422692E+02 -0.43760856284E+02 -0.13895744042E+04  0.15403651858E+04  0.65864270000E+03 0.  1.
    8880022    1    1    2    0    0  0.77991422692E+02  0.43760856284E+02 -0.17614419487E+04  0.17703296490E+04  0.15294330000E+03 0.  0.
<mgrwt>
<rscale>  0 0.47759558E+03</rscale>
<asrwt>0</asrwt>
<pdfrwt beam="1">  1        2 0.49705460E+00 0.66468630E+03</pdfrwt>
<pdfrwt beam="2">  1       -2 0.12282963E-01 0.66468630E+03</pdfrwt>
<totfact> 0.65340967E+01</totfact>
</mgrwt>
</event>
<event>
 4    5  0.7289609E-008  0.8209248E+03  0.7818608E-02  0.9667255E-01
          2   -1    0    0  501    0  0.00000000000E+00  0.00000000000E+00  0.18948027137E+04  0.18948027137E+04  0.25500000000E-02 0. -1.
         -2   -1    0    0    0  501 -0.00000000000E+00 -0.00000000000E+00 -0.24716901329E+03  0.24716901330E+03  0.25500000000E-02 0.  1.
    8880023    1    1    2    0    0  0.38628938624E+02 -0.48848247229E+03  0.77161444527E+03  0.11266349804E+04  0.65864270000E+03 0.  0.
    8880022    1    1    2    0    0 -0.38628938624E+02  0.48848247229E+03  0.87601925512E+03  0.10153367466E+04  0.15294330000E+03 0.  0.
<mgrwt>
<rscale>  0 0.73000343E+03</rscale>
<asrwt>0</asrwt>
<pdfrwt beam="1">  1        2 0.29150812E+00 0.82092480E+03</pdfrwt>
<pdfrwt beam="2">  1       -2 0.38026001E-01 0.82092480E+03</pdfrwt>
<totfact> 0.50891249E+01</totfact>
</mgrwt>
</event>
<event>
 4    5  0.7289609E-008  0.7820683E+03  0.7818608E-02  0.9751001E-01
          2   -1    0    0  501    0  0.00000000000E+00  0.00000000000E+00  0.20522413522E+04  0.20522413522E+04  0.25500000000E-02 0. -1.
         -2   -1    0    0    0  501 -0.00000000000E+00 -0.00000000000E+00 -0.20302555231E+03  0.20302555232E+03  0.25500000000E-02 0.  1.
    8880023    1    1    2    0    0  0.34567485113E+03 -0.24151498157E+03  0.82313584069E+03  0.11354221275E+04  0.65864270000E+03 0.  1.
    8880022    1    1    2    0    0 -0.34567485113E+03  0.24151498157E+03  0.10260799592E+04  0.11198447771E+04  0.15294330000E+03 0. -1.
<mgrwt>
<rscale>  0 0.68059743E+03</rscale>
<asrwt>0</asrwt>
<pdfrwt beam="1">  1        2 0.31572944E+00 0.78206828E+03</pdfrwt>
<pdfrwt beam="2">  1       -2 0.31234700E-01 0.78206828E+03</pdfrwt>
<totfact> 0.60937594E+01</totfact>
</mgrwt>
</event>
<event>
 4    5  0.7289609E-008  0.1081690E+04  0.7818608E-02  0.9281721E-01
         -2   -1    0    0    0  501 -0.00000000000E+00  0.00000000000E+00  0.79090711132E+03  0.79090711133E+03  0.25500000000E-02 0.  1.
          2   -1    0    0  501    0  0.00000000000E+00 -0.00000000000E+00 -0.12578147199E+04  0.12578147199E+04  0.25500000000E-02 0. -1.
    8880023    1    1    2    0    0  0.69348514246E+03 -0.50529283289E+03 -0.46435449708E+03  0.11771481619E+04  0.65864270000E+03 0. -1.
    8880022    1    1    2    0    0 -0.69348514246E+03  0.50529283289E+03 -0.25531115371E+01  0.87157366939E+03  0.15294330000E+03 0.  0.
<mgrwt>
<rscale>  0 0.10248318E+04</rscale>
<asrwt>0</asrwt>
<pdfrwt beam="1">  1        2 0.19350996E+00 0.10816897E+04</pdfrwt>
<pdfrwt beam="2">  1       -2 0.12167802E+00 0.10816897E+04</pdfrwt>
<totfact> 0.88445015E+00</totfact>
</mgrwt>
</event>
<event>
 4    5  0.7289609E-008  0.7016910E+03  0.7818608E-02  0.9990257E-01
          2   -1    0    0  501    0  0.00000000000E+00  0.00000000000E+00  0.11978156211E+04  0.11978156211E+04  0.25500000000E-02 0. -1.
         -2   -1    0    0    0  501 -0.00000000000E+00 -0.00000000000E+00 -0.12174936868E+04  0.12174936868E+04  0.25500000000E-02 0.  1.
    8880023    1    1    2    0    0 -0.20636897913E+03  0.12638014354E+03 -0.10961044760E+04  0.13014666053E+04  0.65864270000E+03 0.  1.
    8880022    1    1    2    0    0  0.20636897913E+03 -0.12638014354E+03  0.10764264103E+04  0.11138427026E+04  0.15294330000E+03 0.  0.
<mgrwt>
<rscale>  0 0.56079512E+03</rscale>
<asrwt>0</asrwt>
<pdfrwt beam="1">  1        2 0.18427933E+00 0.70169103E+03</pdfrwt>
<pdfrwt beam="2">  1       -2 0.18730672E+00 0.70169103E+03</pdfrwt>
<totfact> 0.31720837E+00</totfact>
</mgrwt>
</event>
<event>
 4    5  0.7289609E-008  0.1549077E+04  0.7818608E-02  0.8875736E-01
          2   -1    0    0  501    0  0.00000000000E+00  0.00000000000E+00  0.35914560944E+04  0.35914560945E+04  0.25500000000E-02 0. -1.
         -2   -1    0    0    0  501 -0.00000000000E+00 -0.00000000000E+00 -0.74494954321E+03  0.74494954321E+03  0.25500000000E-02 0.  1.
    8880023    1    1    2    0    0  0.14020752362E+04  0.39760379796E+01  0.55472713124E+03  0.16454066893E+04  0.65864270000E+03 0.  0.
    8880022    1    1    2    0    0 -0.14020752362E+04 -0.39760379796E+01  0.22917794200E+04  0.26909989483E+04  0.15294330000E+03 0.  0.
<mgrwt>
<rscale>  0 0.15131789E+04</rscale>
<asrwt>0</asrwt>
<pdfrwt beam="1">  1        2 0.55253169E+00 0.15490775E+04</pdfrwt>
<pdfrwt beam="2">  1       -2 0.11460762E+00 0.15490775E+04</pdfrwt>
<totfact> 0.39747229E-01</totfact>
</mgrwt>
</event>
<event>
 4    5  0.7289609E-008  0.1085309E+04  0.7818608E-02  0.9277591E-01
          2   -1    0    0  501    0  0.00000000000E+00  0.00000000000E+00  0.16107536138E+04  0.16107536138E+04  0.25500000000E-02 0. -1.
         -2   -1    0    0    0  501 -0.00000000000E+00 -0.00000000000E+00 -0.21344904486E+04  0.21344904486E+04  0.25500000000E-02 0.  1.
    8880023    1    1    2    0    0 -0.96762578164E+02  0.85715980864E+03 -0.18564249712E+04  0.21503975945E+04  0.65864270000E+03 0.  1.
    8880022    1    1    2    0    0  0.96762578164E+02 -0.85715980864E+03  0.13326881365E+04  0.15948464679E+04  0.15294330000E+03 0.  0.
<mgrwt>
<rscale>  0 0.10287227E+04</rscale>
<asrwt>0</asrwt>
<pdfrwt beam="1">  1        2 0.24780825E+00 0.10853092E+04</pdfrwt>
<pdfrwt beam="2">  1       -2 0.32838315E+00 0.10853092E+04</pdfrwt>
<totfact> 0.23267986E-01</totfact>
</mgrwt>
</event>
<event>
 4    5  0.7289609E-008  0.1025678E+04  0.7818608E-02  0.9348708E-01
         -2   -1    0    0    0  501 -0.00000000000E+00  0.00000000000E+00  0.12802150079E+04  0.12802150079E+04  0.25500000000E-02 0.  1.
          2   -1    0    0  501    0  0.00000000000E+00 -0.00000000000E+00 -0.12019954648E+04  0.12019954648E+04  0.25500000000E-02 0. -1.
    8880023    1    1    2    0    0 -0.63220387653E+03  0.46746422643E+03  0.87810455492E+03  0.13502156717E+04  0.65864270000E+03 0.  1.
    8880022    1    1    2    0    0  0.63220387653E+03 -0.46746422643E+03 -0.79988501183E+03  0.11319948011E+04  0.15294330000E+03 0.  0.
<mgrwt>
<rscale>  0 0.96419729E+03</rscale>
<asrwt>0</asrwt>
<pdfrwt beam="1">  1        2 0.18492238E+00 0.10256777E+04</pdfrwt>
<pdfrwt beam="2">  1       -2 0.19695615E+00 0.10256777E+04</pdfrwt>
<totfact> 0.26024707E+00</totfact>
</mgrwt>
</event>
<event>
 4    5  0.7289609E-008  0.8962789E+03  0.7818608E-02  0.9532032E-01
          2   -1    0    0  501    0  0.00000000000E+00  0.00000000000E+00  0.30154874301E+04  0.30154874301E+04  0.25500000000E-02 0. -1.
         -2   -1    0    0    0  501 -0.00000000000E+00 -0.00000000000E+00 -0.54088944528E+03  0.54088944528E+03  0.25500000000E-02 0.  1.
    8880023    1    1    2    0    0  0.46779592827E+03 -0.38816580075E+03 -0.10436365193E+03  0.90233458179E+03  0.65864270000E+03 0.  1.
    8880022    1    1    2    0    0 -0.46779592827E+03  0.38816580075E+03  0.25789616368E+04  0.26540422936E+04  0.15294330000E+03 0.  0.
<mgrwt>
<rscale>  0 0.81962894E+03</rscale>
<asrwt>0</asrwt>
<pdfrwt beam="1">  1        2 0.46392115E+00 0.89627893E+03</pdfrwt>
<pdfrwt beam="2">  1       -2 0.83213759E-01 0.89627893E+03</pdfrwt>
<totfact> 0.22363256E+00</totfact>
</mgrwt>
</event>
<event>
 4    5  0.7289609E-008  0.1109207E+04  0.7818608E-02  0.9250874E-01
         -2   -1    0    0    0  501 -0.00000000000E+00  0.00000000000E+00  0.15605831232E+04  0.15605831232E+04  0.25500000000E-02 0.  1.
          2   -1    0    0  501    0  0.00000000000E+00 -0.00000000000E+00 -0.18946494374E+04  0.18946494375E+04  0.25500000000E-02 0. -1.
    8880023    1    1    2    0    0 -0.88582008917E+03 -0.10886721737E+03  0.12248288193E+04  0.16524361241E+04  0.65864270000E+03 0. -1.
    8880022    1    1    2    0    0  0.88582008917E+03  0.10886721737E+03 -0.15588951335E+04  0.18027964366E+04  0.15294330000E+03 0.  0.
<mgrwt>
<rscale>  0 0.10543404E+04</rscale>
<asrwt>0</asrwt>
<pdfrwt beam="1">  1        2 0.29148453E+00 0.11092067E+04</pdfrwt>
<pdfrwt beam="2">  1       -2 0.24008971E+00 0.11092067E+04</pdfrwt>
<totfact> 0.55670257E-01</totfact>
</mgrwt>
</event>
<event>
 4    5  0.1427042E-007  0.7999311E+03  0.7818608E-02  0.9710945E-01
         -2   -1    0    0    0  501 -0.00000000000E+00  0.00000000000E+00  0.17535018204E+04  0.17535018204E+04  0.25500000000E-02 0.  1.
          2   -1    0    0  501    0  0.00000000000E+00 -0.00000000000E+00 -0.33754625738E+04  0.33754625738E+04  0.25500000000E-02 0. -1.
    8880023    1    1    2    0    0 -0.42934167166E+03 -0.14746272530E+03  0.16438808291E+04  0.18281777574E+04  0.65864270000E+03 0.  1.
    8880022    1    1    2    0    0  0.42934167166E+03  0.14746272530E+03 -0.32658415825E+04  0.33007866368E+04  0.15294330000E+03 0.  0.
<mgrwt>
<rscale>  0 0.70368849E+03</rscale>
<asrwt>0</asrwt>
<pdfrwt beam="1">  1        2 0.51930194E+00 0.79993108E+03</pdfrwt>
<pdfrwt beam="2">  1       -2 0.26976951E+00 0.79993108E+03</pdfrwt>
<totfact> 0.52532351E-02</totfact>
</mgrwt>
</event>
<event>
 4    5  0.7289609E-008  0.1235323E+04  0.7818608E-02  0.9123527E-01
         -2   -1    0    0    0  501 -0.00000000000E+00  0.00000000000E+00  0.62762595094E+03  0.62762595095E+03  0.25500000000E-02 0.  1.
          2   -1    0    0  501    0  0.00000000000E+00 -0.00000000000E+00 -0.27093469821E+04  0.27093469821E+04  0.25500000000E-02 0. -1.
    8880023    1    1    2    0    0  0.54142381345E+03  0.89390939318E+03 -0.30889897112E+03  0.12733587592E+04  0.65864270000E+03 0.  0.
    8880022    1    1    2    0    0 -0.54142381345E+03 -0.89390939318E+03 -0.17728220601E+04  0.20636141739E+04  0.15294330000E+03 0.  0.
<mgrwt>
<rscale>  0 0.11878848E+04</rscale>
<asrwt>0</asrwt>
<pdfrwt beam="1">  1        2 0.41682261E+00 0.12353234E+04</pdfrwt>
<pdfrwt beam="2">  1       -2 0.96557840E-01 0.12353234E+04</pdfrwt>
<totfact> 0.23105260E+00</totfact>
</mgrwt>
</event>
<event>
 4    5  0.7289609E-008  0.6796050E+03  0.7818608E-02  0.1009548E+00
         -2   -1    0    0    0  501 -0.00000000000E+00  0.00000000000E+00  0.87094112411E+03  0.87094112411E+03  0.25500000000E-02 0.  1.
          2   -1    0    0  501    0  0.00000000000E+00 -0.00000000000E+00 -0.16988125396E+04  0.16988125397E+04  0.25500000000E-02 0. -1.
    8880023    1    1    2    0    0 -0.14684591668E+03  0.80554826571E+02  0.72888429377E+03  0.99656175087E+03  0.65864270000E+03 0.  1.
    8880022    1    1    2    0    0  0.14684591668E+03 -0.80554826571E+02 -0.15567557093E+04  0.15731919129E+04  0.15294330000E+03 0.  0.
<mgrwt>
<rscale>  0 0.51654691E+03</rscale>
<asrwt>0</asrwt>
<pdfrwt beam="1">  1        2 0.26135578E+00 0.67960504E+03</pdfrwt>
<pdfrwt beam="2">  1       -2 0.13399094E+00 0.67960504E+03</pdfrwt>
<totfact> 0.41163991E+00</totfact>
</mgrwt>
</event>
<event>
 4    5  0.7289609E-008  0.8027120E+03  0.7818608E-02  0.9704963E-01
          2   -1    0    0  501    0  0.00000000000E+00  0.00000000000E+00  0.15763555360E+04  0.15763555360E+04  0.25500000000E-02 0. -1.
         -2   -1    0    0    0  501 -0.00000000000E+00 -0.00000000000E+00 -0.11748500849E+04  0.11748500849E+04  0.25500000000E-02 0.  1.
    8880023    1    1    2    0    0  0.15127032163E+03  0.43319000517E+03 -0.99203447511E+03  0.12761186845E+04  0.65864270000E+03 0.  1.
    8880022    1    1    2    0    0 -0.15127032163E+03 -0.43319000517E+03  0.13935399262E+04  0.14750869364E+04  0.15294330000E+03 0.  0.
<mgrwt>
<rscale>  0 0.70722086E+03</rscale>
<asrwt>0</asrwt>
<pdfrwt beam="1">  1        2 0.24251624E+00 0.80271196E+03</pdfrwt>
<pdfrwt beam="2">  1       -2 0.18074617E+00 0.80271196E+03</pdfrwt>
<totfact> 0.21057200E+00</totfact>
</mgrwt>
</event>
<event>
 4    5  0.7289609E-008  0.1103002E+04  0.7818608E-02  0.9257721E-01
         -2   -1    0    0    0  501 -0.00000000000E+00  0.00000000000E+00  0.41098287070E+03  0.41098287071E+03  0.25500000000E-02 0.  1.
          2   -1    0    0  501    0  0.00000000000E+00 -0.00000000000E+00 -0.26218663391E+04  0.26218663391E+04  0.25500000000E-02 0. -1.
    8880023    1    1    2    0    0  0.23327004187E+03 -0.85345626580E+03 -0.80821786882E+03  0.13674168493E+04  0.65864270000E+03 0.  0.
    8880022    1    1    2    0    0 -0.23327004187E+03  0.85345626580E+03 -0.14026655996E+04  0.16654323605E+04  0.15294330000E+03 0.  0.
<mgrwt>
<rscale>  0 0.10477003E+04</rscale>
<asrwt>0</asrwt>
<pdfrwt beam="1">  1        2 0.40336404E+00 0.11030017E+04</pdfrwt>
<pdfrwt beam="2">  1       -2 0.63228136E-01 0.11030017E+04</pdfrwt>
<totfact> 0.68520985E+00</totfact>
</mgrwt>
</event>
<event>
 4    5  0.7289609E-008  0.1317226E+04  0.7818608E-02  0.9050825E-01
          2   -1    0    0  501    0  0.00000000000E+00  0.00000000000E+00  0.34659316147E+04  0.34659316147E+04  0.25500000000E-02 0. -1.
         -2   -1    0    0    0  501 -0.00000000000E+00 -0.00000000000E+00 -0.48946744152E+03  0.48946744153E+03  0.25500000000E-02 0.  1.
    8880023    1    1    2    0    0 -0.11350388437E+04 -0.11384926956E+03  0.22094158244E+04  0.25722759036E+04  0.65864270000E+03 0.  0.
    8880022    1    1    2    0    0  0.11350388437E+04  0.11384926956E+03  0.76704834882E+03  0.13831231527E+04  0.15294330000E+03 0.  0.
<mgrwt>
<rscale>  0 0.12735283E+04</rscale>
<asrwt>0</asrwt>
<pdfrwt beam="1">  1        2 0.53322027E+00 0.13172263E+04</pdfrwt>
<pdfrwt beam="2">  1       -2 0.75302680E-01 0.13172263E+04</pdfrwt>
<totfact> 0.13426733E+00</totfact>
</mgrwt>
</event>
<event>
 4    5  0.7289609E-008  0.6857922E+03  0.7818608E-02  0.1006220E+00
         -2   -1    0    0    0  501 -0.00000000000E+00  0.00000000000E+00  0.15661476081E+04  0.15661476081E+04  0.25500000000E-02 0.  1.
          2   -1    0    0  501    0  0.00000000000E+00 -0.00000000000E+00 -0.27490642042E+03  0.27490642043E+03  0.25500000000E-02 0. -1.
    8880023    1    1    2    0    0  0.22670016037E+02 -0.18970174720E+03  0.14108226200E+04  0.15686718439E+04  0.65864270000E+03 0.  1.
    8880022    1    1    2    0    0 -0.22670016037E+02  0.18970174720E+03 -0.11958143234E+03  0.27238218461E+03  0.15294330000E+03 0.  0.
<mgrwt>
<rscale>  0 0.53004872E+03</rscale>
<asrwt>0</asrwt>
<pdfrwt beam="1">  1        2 0.42293295E-01 0.68579216E+03</pdfrwt>
<pdfrwt beam="2">  1       -2 0.24094579E+00 0.68579216E+03</pdfrwt>
<totfact> 0.91304541E+00</totfact>
</mgrwt>
</event>
<event>
 4    5  0.7289609E-008  0.6848232E+03  0.7818608E-02  0.1006717E+00
         -2   -1    0    0    0  501 -0.00000000000E+00  0.00000000000E+00  0.22455908521E+03  0.22455908523E+03  0.25500000000E-02 0.  1.
          2   -1    0    0  501    0  0.00000000000E+00 -0.00000000000E+00 -0.17947265234E+04  0.17947265234E+04  0.25500000000E-02 0. -1.
    8880023    1    1    2    0    0 -0.12674049927E+03  0.13823691964E+03 -0.33821274802E+03  0.76378705756E+03  0.65864270000E+03 0.  1.
    8880022    1    1    2    0    0  0.12674049927E+03 -0.13823691964E+03 -0.12319546901E+04  0.12554985510E+04  0.15294330000E+03 0.  0.
<mgrwt>
<rscale>  0 0.52800486E+03</rscale>
<asrwt>0</asrwt>
<pdfrwt beam="1">  1        2 0.27611176E+00 0.68482319E+03</pdfrwt>
<pdfrwt beam="2">  1       -2 0.34547553E-01 0.68482319E+03</pdfrwt>
<totfact> 0.70404902E+01</totfact>
</mgrwt>
</event>
<event>
 4    5  0.9584686E-008  0.8917678E+03  0.7818608E-02  0.9539378E-01
          2   -1    0    0  501    0  0.00000000000E+00  0.00000000000E+00  0.23038717607E+04  0.23038717607E+04  0.25500000000E-02 0. -1.
         -2   -1    0    0    0  501 -0.00000000000E+00 -0.00000000000E+00 -0.22193975546E+04  0.22193975547E+04  0.25500000000E-02 0.  1.
    8880023    1    1    2    0    0 -0.60089526893E+03  0.19090570573E+02 -0.20845442109E+04  0.22672834731E+04  0.65864270000E+03 0.  1.
    8880022    1    1    2    0    0  0.60089526893E+03 -0.19090570573E+02  0.21690184170E+04  0.22559858422E+04  0.15294330000E+03 0.  0.
<mgrwt>
<rscale>  0 0.81441849E+03</rscale>
<asrwt>0</asrwt>
<pdfrwt beam="1">  1        2 0.35444181E+00 0.89176778E+03</pdfrwt>
<pdfrwt beam="2">  1       -2 0.34144578E+00 0.89176778E+03</pdfrwt>
<totfact> 0.83116887E-02</totfact>
</mgrwt>
</event>
<event>
 4    5  0.7289609E-008  0.9901654E+03  0.7818608E-02  0.9394539E-01
         -2   -1    0    0    0  501 -0.00000000000E+00  0.00000000000E+00  0.19018150245E+04  0.19018150245E+04  0.25500000000E-02 0.  1.
          2   -1    0    0  501    0  0.00000000000E+00 -0.00000000000E+00 -0.77408487863E+03  0.77408487863E+03  0.25500000000E-02 0. -1.
    8880023    1    1    2    0    0  0.29424451083E+03  0.67826068203E+03  0.15284554163E+04  0.18211544555E+04  0.65864270000E+03 0.  1.
    8880022    1    1    2    0    0 -0.29424451083E+03 -0.67826068203E+03 -0.40072527039E+03  0.85474544765E+03  0.15294330000E+03 0.  0.
<mgrwt>
<rscale>  0 0.92526480E+03</rscale>
<asrwt>0</asrwt>
<pdfrwt beam="1">  1        2 0.11908998E+00 0.99016544E+03</pdfrwt>
<pdfrwt beam="2">  1       -2 0.29258693E+00 0.99016544E+03</pdfrwt>
<totfact> 0.12756851E+00</totfact>
</mgrwt>
</event>
<event>
 4    5  0.7289609E-008  0.1144994E+04  0.7818608E-02  0.9212540E-01
          2   -1    0    0  501    0  0.00000000000E+00  0.00000000000E+00  0.25334104890E+04  0.25334104890E+04  0.25500000000E-02 0. -1.
         -2   -1    0    0    0  501 -0.00000000000E+00 -0.00000000000E+00 -0.64104832451E+03  0.64104832451E+03  0.25500000000E-02 0.  1.
    8880023    1    1    2    0    0 -0.84605854809E+02 -0.93276116336E+03  0.10375561595E+03  0.11496855973E+04  0.65864270000E+03 0.  0.
    8880022    1    1    2    0    0  0.84605854809E+02  0.93276116336E+03  0.17886065485E+04  0.20247732162E+04  0.15294330000E+03 0.  0.
<mgrwt>
<rscale>  0 0.10924927E+04</rscale>
<asrwt>0</asrwt>
<pdfrwt beam="1">  1        2 0.38975547E+00 0.11449942E+04</pdfrwt>
<pdfrwt beam="2">  1       -2 0.98622817E-01 0.11449942E+04</pdfrwt>
<totfact> 0.28141574E+00</totfact>
</mgrwt>
</event>
<event>
 4    5  0.7289609E-008  0.1460004E+04  0.7818608E-02  0.8938407E-01
          2   -1    0    0  501    0  0.00000000000E+00  0.00000000000E+00  0.31321278292E+04  0.31321278292E+04  0.25500000000E-02 0. -1.
         -2   -1    0    0    0  501 -0.00000000000E+00 -0.00000000000E+00 -0.86041159185E+03  0.86041159185E+03  0.25500000000E-02 0.  1.
    8880023    1    1    2    0    0  0.75665744647E+03  0.10607885354E+04  0.11036020837E+03  0.14641695223E+04  0.65864270000E+03 0.  1.
    8880022    1    1    2    0    0 -0.75665744647E+03 -0.10607885354E+04  0.21613560290E+04  0.25283698988E+04  0.15294330000E+03 0.  0.
<mgrwt>
<rscale>  0 0.14214919E+04</rscale>
<asrwt>0</asrwt>
<pdfrwt beam="1">  1        2 0.48186583E+00 0.14600045E+04</pdfrwt>
<pdfrwt beam="2">  1       -2 0.13237101E+00 0.14600045E+04</pdfrwt>
<totfact> 0.56915397E-01</totfact>
</mgrwt>
</event>
<event>
 4    5  0.7289609E-008  0.1645351E+04  0.7818608E-02  0.8813281E-01
         -2   -1    0    0    0  501 -0.00000000000E+00  0.00000000000E+00  0.11126041775E+04  0.11126041775E+04  0.25500000000E-02 0.  1.
          2   -1    0    0  501    0  0.00000000000E+00 -0.00000000000E+00 -0.27137181621E+04  0.27137181621E+04  0.25500000000E-02 0. -1.
    8880023    1    1    2    0    0 -0.15077036493E+04  0.14173143666E+02 -0.16223430473E+04  0.23106662116E+04  0.65864270000E+03 0.  0.
    8880022    1    1    2    0    0  0.15077036493E+04 -0.14173143666E+02  0.21229062681E+02  0.15156561279E+04  0.15294330000E+03 0.  0.
<mgrwt>
<rscale>  0 0.16118830E+04</rscale>
<asrwt>0</asrwt>
<pdfrwt beam="1">  1        2 0.41749510E+00 0.16453514E+04</pdfrwt>
<pdfrwt beam="2">  1       -2 0.17116987E+00 0.16453514E+04</pdfrwt>
<totfact> 0.50610951E-01</totfact>
</mgrwt>
</event>
<event>
 4    5  0.7289609E-008  0.2027320E+04  0.7818608E-02  0.8606230E-01
         -2   -1    0    0    0  501 -0.00000000000E+00  0.00000000000E+00  0.33847310990E+04  0.33847310990E+04  0.25500000000E-02 0.  1.
          2   -1    0    0  501    0  0.00000000000E+00 -0.00000000000E+00 -0.13529468755E+04  0.13529468755E+04  0.25500000000E-02 0. -1.
    8880023    1    1    2    0    0  0.53567529759E+03  0.18409966888E+04  0.19493573736E+04  0.28124759926E+04  0.65864270000E+03 0.  0.
    8880022    1    1    2    0    0 -0.53567529759E+03 -0.18409966888E+04  0.82426849841E+02  0.19252019819E+04  0.15294330000E+03 0.  0.
<mgrwt>
<rscale>  0 0.20008348E+04</rscale>
<asrwt>0</asrwt>
<pdfrwt beam="1">  1        2 0.20814567E+00 0.20273202E+04</pdfrwt>
<pdfrwt beam="2">  1       -2 0.52072786E+00 0.20273202E+04</pdfrwt>
<totfact> 0.16785032E-02</totfact>
</mgrwt>
</event>
<event>
 4    5  0.7289609E-008  0.7340631E+03  0.7818608E-02  0.9877591E-01
          2   -1    0    0  501    0  0.00000000000E+00  0.00000000000E+00  0.13198225574E+04  0.13198225574E+04  0.25500000000E-02 0. -1.
         -2   -1    0    0    0  501 -0.00000000000E+00 -0.00000000000E+00 -0.30502198466E+03  0.30502198467E+03  0.25500000000E-02 0.  1.
    8880023    1    1    2    0    0 -0.21118649531E+03 -0.24584291365E+03  0.24188495354E+03  0.77288874426E+03  0.65864270000E+03 0.  0.
    8880022    1    1    2    0    0  0.21118649531E+03  0.24584291365E+03  0.77291561920E+03  0.85195579781E+03  0.15294330000E+03 0.  0.
<mgrwt>
<rscale>  0 0.61359728E+03</rscale>
<asrwt>0</asrwt>
<pdfrwt beam="1">  1        2 0.20304962E+00 0.73406313E+03</pdfrwt>
<pdfrwt beam="2">  1       -2 0.46926459E-01 0.73406313E+03</pdfrwt>
<totfact> 0.70641615E+01</totfact>
</mgrwt>
</event>
<event>
 4    5  0.7289609E-008  0.2089346E+04  0.7818608E-02  0.8577396E-01
         -2   -1    0    0    0  501 -0.00000000000E+00  0.00000000000E+00  0.15423501789E+04  0.15423501789E+04  0.25500000000E-02 0.  1.
          2   -1    0    0  501    0  0.00000000000E+00 -0.00000000000E+00 -0.29131520948E+04  0.29131520948E+04  0.25500000000E-02 0. -1.
    8880023    1    1    2    0    0 -0.45189453188E+03 -0.19306344708E+04 -0.92496933940E+02  0.20913928414E+04  0.65864270000E+03 0.  0.
    8880022    1    1    2    0    0  0.45189453188E+03  0.19306344708E+04 -0.12783049820E+04  0.23641094323E+04  0.15294330000E+03 0.  0.
<mgrwt>
<rscale>  0 0.20637185E+04</rscale>
<asrwt>0</asrwt>
<pdfrwt beam="1">  1        2 0.44817725E+00 0.20893464E+04</pdfrwt>
<pdfrwt beam="2">  1       -2 0.23728464E+00 0.20893464E+04</pdfrwt>
<totfact> 0.13395134E-01</totfact>
</mgrwt>
</event>
<event>
 4    5  0.7289609E-008  0.7161202E+03  0.7818608E-02  0.9935939E-01
          2   -1    0    0  501    0  0.00000000000E+00  0.00000000000E+00  0.39513321380E+04  0.39513321380E+04  0.25500000000E-02 0. -1.
         -2   -1    0    0    0  501 -0.00000000000E+00 -0.00000000000E+00 -0.19320201439E+03  0.19320201441E+03  0.25500000000E-02 0.  1.
    8880023    1    1    2    0    0 -0.22989038370E+03  0.16176645391E+03  0.50636377707E+03  0.87705898041E+03  0.65864270000E+03 0.  0.
    8880022    1    1    2    0    0  0.22989038370E+03 -0.16176645391E+03  0.32517663465E+04  0.32674751720E+04  0.15294330000E+03 0.  0.
<mgrwt>
<rscale>  0 0.58550695E+03</rscale>
<asrwt>0</asrwt>
<pdfrwt beam="1">  1        2 0.60789720E+00 0.71612023E+03</pdfrwt>
<pdfrwt beam="2">  1       -2 0.29723389E-01 0.71612023E+03</pdfrwt>
<totfact> 0.43393622E+00</totfact>
</mgrwt>
</event>
<event>
 4    5  0.7289609E-008  0.1592539E+04  0.7818608E-02  0.8846912E-01
          2   -1    0    0  501    0  0.00000000000E+00  0.00000000000E+00  0.48567559325E+04  0.48567559325E+04  0.25500000000E-02 0. -1.
         -2   -1    0    0    0  501 -0.00000000000E+00 -0.00000000000E+00 -0.54416709460E+03  0.54416709461E+03  0.25500000000E-02 0.  1.
    8880023    1    1    2    0    0  0.73641694746E+03 -0.12490234770E+04  0.31736349092E+04  0.35507940393E+04  0.65864270000E+03 0.  0.
    8880022    1    1    2    0    0 -0.73641694746E+03  0.12490234770E+04  0.11389539287E+04  0.18501289878E+04  0.15294330000E+03 0.  0.
<mgrwt>
<rscale>  0 0.15577825E+04</rscale>
<asrwt>0</asrwt>
<pdfrwt beam="1">  1        2 0.74719324E+00 0.15925388E+04</pdfrwt>
<pdfrwt beam="2">  1       -2 0.83718013E-01 0.15925388E+04</pdfrwt>
<totfact> 0.62644639E-02</totfact>
</mgrwt>
</event>
<event>
 4    5  0.7289609E-008  0.9835774E+03  0.7818608E-02  0.9403366E-01
          2   -1    0    0  501    0  0.00000000000E+00  0.00000000000E+00  0.91031143893E+03  0.91031143894E+03  0.25500000000E-02 0. -1.
         -2   -1    0    0    0  501 -0.00000000000E+00 -0.00000000000E+00 -0.14094300610E+04  0.14094300610E+04  0.25500000000E-02 0.  1.
    8880023    1    1    2    0    0 -0.67405570412E+03 -0.28153722002E+03 -0.10142916627E+04  0.14128736963E+04  0.65864270000E+03 0.  0.
    8880022    1    1    2    0    0  0.67405570412E+03  0.28153722002E+03  0.51517304060E+03  0.90686780364E+03  0.15294330000E+03 0.  0.
<mgrwt>
<rscale>  0 0.91799198E+03</rscale>
<asrwt>0</asrwt>
<pdfrwt beam="1">  1        2 0.14004791E+00 0.98357740E+03</pdfrwt>
<pdfrwt beam="2">  1       -2 0.21683539E+00 0.98357740E+03</pdfrwt>
<totfact> 0.29733839E+00</totfact>
</mgrwt>
</event>
<event>
 4    5  0.7289609E-008  0.1594927E+04  0.7818608E-02  0.8845359E-01
         -2   -1    0    0    0  501 -0.00000000000E+00  0.00000000000E+00  0.16234196194E+04  0.16234196194E+04  0.25500000000E-02 0.  1.
          2   -1    0    0  501    0  0.00000000000E+00 -0.00000000000E+00 -0.18943219882E+04  0.18943219882E+04  0.25500000000E-02 0. -1.
    8880023    1    1    2    0    0 -0.12423969838E+04 -0.75261563915E+03  0.72289507235E+03  0.17511048105E+04  0.65864270000E+03 0.  0.
    8880022    1    1    2    0    0  0.12423969838E+04  0.75261563915E+03 -0.99379744122E+03  0.17666367971E+04  0.15294330000E+03 0.  0.
<mgrwt>
<rscale>  0 0.15602308E+04</rscale>
<asrwt>0</asrwt>
<pdfrwt beam="1">  1        2 0.29143415E+00 0.15949266E+04</pdfrwt>
<pdfrwt beam="2">  1       -2 0.24975687E+00 0.15949266E+04</pdfrwt>
<totfact> 0.45807161E-01</totfact>
</mgrwt>
</event>
<event>
 4    5  0.7289609E-008  0.9367869E+03  0.7818608E-02  0.9469385E-01
         -2   -1    0    0    0  501 -0.00000000000E+00  0.00000000000E+00  0.90830851290E+03  0.90830851290E+03  0.25500000000E-02 0.  1.
          2   -1    0    0  501    0  0.00000000000E+00 -0.00000000000E+00 -0.11729974389E+04  0.11729974389E+04  0.25500000000E-02 0. -1.
    8880023    1    1    2    0    0  0.14635008605E+03  0.64987772346E+03  0.49490163881E+03  0.10594797032E+04  0.65864270000E+03 0.  0.
    8880022    1    1    2    0    0 -0.14635008605E+03 -0.64987772346E+03 -0.75959056479E+03  0.10218262486E+04  0.15294330000E+03 0.  0.
<mgrwt>
<rscale>  0 0.86579038E+03</rscale>
<asrwt>0</asrwt>
<pdfrwt beam="1">  1        2 0.18046114E+00 0.93678685E+03</pdfrwt>
<pdfrwt beam="2">  1       -2 0.13973977E+00 0.93678685E+03</pdfrwt>
<totfact> 0.70820513E+00</totfact>
</mgrwt>
</event>
<event>
 4    5  0.7289609E-008  0.7020339E+03  0.7818608E-02  0.9988866E-01
         -2   -1    0    0    0  501 -0.00000000000E+00  0.00000000000E+00  0.68884888202E+03  0.68884888203E+03  0.25500000000E-02 0.  1.
          2   -1    0    0  501    0  0.00000000000E+00 -0.00000000000E+00 -0.71503900762E+03  0.71503900763E+03  0.25500000000E-02 0. -1.
    8880023    1    1    2    0    0 -0.22968206065E+03  0.79294011718E+02  0.45995435529E+03  0.83929113214E+03  0.65864270000E+03 0.  1.
    8880022    1    1    2    0    0  0.22968206065E+03 -0.79294011718E+02 -0.48614448089E+03  0.56459675751E+03  0.15294330000E+03 0.  0.
<mgrwt>
<rscale>  0 0.56141140E+03</rscale>
<asrwt>0</asrwt>
<pdfrwt beam="1">  1        2 0.11000600E+00 0.70203390E+03</pdfrwt>
<pdfrwt beam="2">  1       -2 0.10597675E+00 0.70203390E+03</pdfrwt>
<totfact> 0.29182138E+01</totfact>
</mgrwt>
</event>
<event>
 4    5  0.7289609E-008  0.9384812E+03  0.7818608E-02  0.9466885E-01
         -2   -1    0    0    0  501 -0.00000000000E+00  0.00000000000E+00  0.68898477406E+03  0.68898477407E+03  0.25500000000E-02 0.  1.
          2   -1    0    0  501    0  0.00000000000E+00 -0.00000000000E+00 -0.11399770881E+04  0.11399770881E+04  0.25500000000E-02 0. -1.
    8880023    1    1    2    0    0 -0.34044419517E+03  0.57535590780E+03  0.10736503464E+03  0.94460262946E+03  0.65864270000E+03 0.  0.
    8880022    1    1    2    0    0  0.34044419517E+03 -0.57535590780E+03 -0.55835734872E+03  0.88435923274E+03  0.15294330000E+03 0.  0.
<mgrwt>
<rscale>  0 0.86769942E+03</rscale>
<asrwt>0</asrwt>
<pdfrwt beam="1">  1        2 0.17538109E+00 0.93848115E+03</pdfrwt>
<pdfrwt beam="2">  1       -2 0.10599766E+00 0.93848115E+03</pdfrwt>
<totfact> 0.14780489E+01</totfact>
</mgrwt>
</event>
<event>
 4    5  0.7289609E-008  0.6925601E+03  0.7818608E-02  0.1002959E+00
          2   -1    0    0  501    0  0.00000000000E+00  0.00000000000E+00  0.21657144796E+04  0.21657144796E+04  0.25500000000E-02 0. -1.
         -2   -1    0    0    0  501 -0.00000000000E+00 -0.00000000000E+00 -0.13576852326E+03  0.13576852328E+03  0.25500000000E-02 0.  1.
    8880023    1    1    2    0    0  0.21357623425E+03 -0.14646444226E+02  0.86961000241E+03  0.11116928932E+04  0.65864270000E+03 0.  0.
    8880022    1    1    2    0    0 -0.21357623425E+03  0.14646444226E+02  0.11603359540E+04  0.11897901097E+04  0.15294330000E+03 0.  0.
<mgrwt>
<rscale>  0 0.54371690E+03</rscale>
<asrwt>0</asrwt>
<pdfrwt beam="1">  1        2 0.33318683E+00 0.69256013E+03</pdfrwt>
<pdfrwt beam="2">  1       -2 0.20887466E-01 0.69256013E+03</pdfrwt>
<totfact> 0.11056400E+02</totfact>
</mgrwt>
</event>
<event>
 4    5  0.7289609E-008  0.8657876E+03  0.7818608E-02  0.9583350E-01
         -2   -1    0    0    0  501 -0.00000000000E+00  0.00000000000E+00  0.86851922871E+03  0.86851922872E+03  0.25500000000E-02 0.  1.
          2   -1    0    0  501    0  0.00000000000E+00 -0.00000000000E+00 -0.91150814696E+03  0.91150814696E+03  0.25500000000E-02 0. -1.
    8880023    1    1    2    0    0 -0.53487694375E+03 -0.17229217720E+03  0.48634070578E+03  0.99303344739E+03  0.65864270000E+03 0.  0.
    8880022    1    1    2    0    0  0.53487694375E+03  0.17229217720E+03 -0.52932962403E+03  0.78699392829E+03  0.15294330000E+03 0.  0.
<mgrwt>
<rscale>  0 0.78408046E+03</rscale>
<asrwt>0</asrwt>
<pdfrwt beam="1">  1        2 0.14023202E+00 0.86578759E+03</pdfrwt>
<pdfrwt beam="2">  1       -2 0.13361834E+00 0.86578759E+03</pdfrwt>
<totfact> 0.11713379E+01</totfact>
</mgrwt>
</event>
<event>
 4    5  0.7289609E-008  0.7104132E+03  0.7818608E-02  0.9956470E-01
         -2   -1    0    0    0  501 -0.00000000000E+00  0.00000000000E+00  0.10381226057E+04  0.10381226058E+04  0.25500000000E-02 0.  1.
          2   -1    0    0  501    0  0.00000000000E+00 -0.00000000000E+00 -0.14256094595E+04  0.14256094595E+04  0.25500000000E-02 0. -1.
    8880023    1    1    2    0    0 -0.23390692267E+03  0.12713883495E+03  0.89632545875E+03  0.11437159901E+04  0.65864270000E+03 0.  1.
    8880022    1    1    2    0    0  0.23390692267E+03 -0.12713883495E+03 -0.12838123125E+04  0.13200160752E+04  0.15294330000E+03 0.  0.
<mgrwt>
<rscale>  0 0.57600869E+03</rscale>
<asrwt>0</asrwt>
<pdfrwt beam="1">  1        2 0.21932453E+00 0.71041322E+03</pdfrwt>
<pdfrwt beam="2">  1       -2 0.15971117E+00 0.71041322E+03</pdfrwt>
<totfact> 0.36566390E+00</totfact>
</mgrwt>
</event>
<event>
 4    5  0.7289609E-008  0.8249220E+03  0.7818608E-02  0.9659295E-01
         -2   -1    0    0    0  501 -0.00000000000E+00  0.00000000000E+00  0.48574412972E+03  0.48574412973E+03  0.25500000000E-02 0.  1.
          2   -1    0    0  501    0  0.00000000000E+00 -0.00000000000E+00 -0.30254452812E+04  0.30254452812E+04  0.25500000000E-02 0. -1.
    8880023    1    1    2    0    0 -0.38544829115E+03  0.31323415709E+03  0.90744722082E+02  0.82989808601E+03  0.65864270000E+03 0.  0.
    8880022    1    1    2    0    0  0.38544829115E+03 -0.31323415709E+03 -0.26304458736E+04  0.26812913249E+04  0.15294330000E+03 0.  0.
<mgrwt>
<rscale>  0 0.73492959E+03</rscale>
<asrwt>0</asrwt>
<pdfrwt beam="1">  1        2 0.46545311E+00 0.82492195E+03</pdfrwt>
<pdfrwt beam="2">  1       -2 0.74729868E-01 0.82492195E+03</pdfrwt>
<totfact> 0.28433509E+00</totfact>
</mgrwt>
</event>
<event>
 4    5  0.7289609E-008  0.1015642E+04  0.7818608E-02  0.9361373E-01
          2   -1    0    0  501    0  0.00000000000E+00  0.00000000000E+00  0.25716171675E+04  0.25716171675E+04  0.25500000000E-02 0. -1.
         -2   -1    0    0    0  501 -0.00000000000E+00 -0.00000000000E+00 -0.61963248148E+03  0.61963248148E+03  0.25500000000E-02 0.  1.
    8880023    1    1    2    0    0 -0.76091981773E+03 -0.13682148902E+03 -0.73045832515E+02  0.10182656769E+04  0.65864270000E+03 0.  1.
    8880022    1    1    2    0    0  0.76091981773E+03  0.13682148902E+03  0.20250305185E+04  0.21729839721E+04  0.15294330000E+03 0.  0.
<mgrwt>
<rscale>  0 0.95323881E+03</rscale>
<asrwt>0</asrwt>
<pdfrwt beam="1">  1        2 0.39563341E+00 0.10156423E+04</pdfrwt>
<pdfrwt beam="2">  1       -2 0.95328074E-01 0.10156423E+04</pdfrwt>
<totfact> 0.29473338E+00</totfact>
</mgrwt>
</event>
<event>
 4    5  0.7289609E-008  0.7902205E+03  0.7818608E-02  0.9732354E-01
          2   -1    0    0  501    0  0.00000000000E+00  0.00000000000E+00  0.33922238230E+04  0.33922238230E+04  0.25500000000E-02 0. -1.
         -2   -1    0    0    0  501 -0.00000000000E+00 -0.00000000000E+00 -0.17921029681E+03  0.17921029683E+03  0.25500000000E-02 0.  1.
    8880023    1    1    2    0    0 -0.79706874498E+02  0.42928442257E+03  0.83815737919E+03  0.11519358923E+04  0.65864270000E+03 0.  1.
    8880022    1    1    2    0    0  0.79706874498E+02 -0.42928442257E+03  0.23748561470E+04  0.24194982276E+04  0.15294330000E+03 0.  0.
<mgrwt>
<rscale>  0 0.69122678E+03</rscale>
<asrwt>0</asrwt>
<pdfrwt beam="1">  1        2 0.52188057E+00 0.79022054E+03</pdfrwt>
<pdfrwt beam="2">  1       -2 0.27570816E-01 0.79022054E+03</pdfrwt>
<totfact> 0.12345768E+01</totfact>
</mgrwt>
</event>
<event>
 4    5  0.7289609E-008  0.1166315E+04  0.7818608E-02  0.9190582E-01
          2   -1    0    0  501    0  0.00000000000E+00  0.00000000000E+00  0.16269961403E+04  0.16269961403E+04  0.25500000000E-02 0. -1.
         -2   -1    0    0    0  501 -0.00000000000E+00 -0.00000000000E+00 -0.98640377981E+03  0.98640377982E+03  0.25500000000E-02 0.  1.
    8880023    1    1    2    0    0  0.77712537256E+03 -0.56794167586E+03 -0.35602196970E+03  0.12194439065E+04  0.65864270000E+03 0.  1.
    8880022    1    1    2    0    0 -0.77712537256E+03  0.56794167586E+03  0.99661433022E+03  0.13939560137E+04  0.15294330000E+03 0.  0.
<mgrwt>
<rscale>  0 0.11151165E+04</rscale>
<asrwt>0</asrwt>
<pdfrwt beam="1">  1        2 0.25030710E+00 0.11663155E+04</pdfrwt>
<pdfrwt beam="2">  1       -2 0.15175443E+00 0.11663155E+04</pdfrwt>
<totfact> 0.30515116E+00</totfact>
</mgrwt>
</event>
<event>
 4    5  0.7289609E-008  0.7203277E+03  0.7818608E-02  0.9921479E-01
         -2   -1    0    0    0  501 -0.00000000000E+00  0.00000000000E+00  0.16604740788E+04  0.16604740788E+04  0.25500000000E-02 0.  1.
          2   -1    0    0  501    0  0.00000000000E+00 -0.00000000000E+00 -0.80866260663E+03  0.80866260664E+03  0.25500000000E-02 0. -1.
    8880023    1    1    2    0    0 -0.21906299212E+03 -0.19254410627E+03  0.15433572197E+04  0.17031804195E+04  0.65864270000E+03 0.  1.
    8880022    1    1    2    0    0  0.21906299212E+03  0.19254410627E+03 -0.69154574756E+03  0.76595626596E+03  0.15294330000E+03 0.  0.
<mgrwt>
<rscale>  0 0.59231542E+03</rscale>
<asrwt>0</asrwt>
<pdfrwt beam="1">  1        2 0.12440963E+00 0.72032773E+03</pdfrwt>
<pdfrwt beam="2">  1       -2 0.25545755E+00 0.72032773E+03</pdfrwt>
<totfact> 0.20966864E+00</totfact>
</mgrwt>
</event>
<event>
 4    5  0.7289609E-008  0.8634856E+03  0.7818608E-02  0.9587393E-01
          2   -1    0    0  501    0  0.00000000000E+00  0.00000000000E+00  0.25306860228E+04  0.25306860228E+04  0.25500000000E-02 0. -1.
         -2   -1    0    0    0  501 -0.00000000000E+00 -0.00000000000E+00 -0.22431458344E+03  0.22431458346E+03  0.25500000000E-02 0.  1.
    8880023    1    1    2    0    0 -0.27419346195E+03  0.48643095268E+03  0.97027712411E+03  0.12988629759E+04  0.65864270000E+03 0.  1.
    8880022    1    1    2    0    0  0.27419346195E+03 -0.48643095268E+03  0.13360943152E+04  0.14561376303E+04  0.15294330000E+03 0.  0.
<mgrwt>
<rscale>  0 0.78136238E+03</rscale>
<asrwt>0</asrwt>
<pdfrwt beam="1">  1        2 0.38933633E+00 0.86348557E+03</pdfrwt>
<pdfrwt beam="2">  1       -2 0.34509935E-01 0.86348557E+03</pdfrwt>
<totfact> 0.27046821E+01</totfact>
</mgrwt>
</event>
<event>
 4    5  0.7289609E-008  0.1149292E+04  0.7818608E-02  0.9208063E-01
          2   -1    0    0  501    0  0.00000000000E+00  0.00000000000E+00  0.84595142307E+03  0.84595142307E+03  0.25500000000E-02 0. -1.
         -2   -1    0    0    0  501 -0.00000000000E+00 -0.00000000000E+00 -0.13707665080E+04  0.13707665080E+04  0.25500000000E-02 0.  1.
    8880023    1    1    2    0    0 -0.65875587217E+03  0.67312885382E+03 -0.48632057348E+02  0.11503204059E+04  0.65864270000E+03 0.  1.
    8880022    1    1    2    0    0  0.65875587217E+03 -0.67312885382E+03 -0.47618302762E+03  0.10663975252E+04  0.15294330000E+03 0. -1.
<mgrwt>
<rscale>  0 0.10970590E+04</rscale>
<asrwt>0</asrwt>
<pdfrwt beam="1">  1        2 0.13014637E+00 0.11492919E+04</pdfrwt>
<pdfrwt beam="2">  1       -2 0.21088715E+00 0.11492919E+04</pdfrwt>
<totfact> 0.35342064E+00</totfact>
</mgrwt>
</event>
<event>
 4    5  0.7289609E-008  0.6710323E+03  0.7818608E-02  0.1014933E+00
          2   -1    0    0  501    0  0.00000000000E+00  0.00000000000E+00  0.70111702273E+03  0.70111702274E+03  0.25500000000E-02 0. -1.
         -2   -1    0    0    0  501 -0.00000000000E+00 -0.00000000000E+00 -0.72943285939E+03  0.72943285940E+03  0.25500000000E-02 0.  1.
    8880023    1    1    2    0    0  0.32172568836E+02  0.12425422746E+03 -0.55275998163E+03  0.86938368444E+03  0.65864270000E+03 0.  1.
    8880022    1    1    2    0    0 -0.32172568836E+02 -0.12425422746E+03  0.52444414497E+03  0.56116619769E+03  0.15294330000E+03 0.  0.
<mgrwt>
<rscale>  0 0.49560160E+03</rscale>
<asrwt>0</asrwt>
<pdfrwt beam="1">  1        2 0.10786416E+00 0.67103233E+03</pdfrwt>
<pdfrwt beam="2">  1       -2 0.11222044E+00 0.67103233E+03</pdfrwt>
<totfact> 0.26132126E+01</totfact>
</mgrwt>
</event>
<event>
 4    5  0.7289609E-008  0.7543257E+03  0.7818608E-02  0.9820025E-01
         -2   -1    0    0    0  501 -0.00000000000E+00  0.00000000000E+00  0.75011666703E+03  0.75011666704E+03  0.25500000000E-02 0.  1.
          2   -1    0    0  501    0  0.00000000000E+00 -0.00000000000E+00 -0.77006247445E+03  0.77006247446E+03  0.25500000000E-02 0. -1.
    8880023    1    1    2    0    0 -0.66225419123E+02 -0.36167845834E+03  0.47002746114E+03  0.88878182579E+03  0.65864270000E+03 0.  1.
    8880022    1    1    2    0    0  0.66225419123E+02  0.36167845834E+03 -0.48997326856E+03  0.63139731571E+03  0.15294330000E+03 0.  0.
<mgrwt>
<rscale>  0 0.64298856E+03</rscale>
<asrwt>0</asrwt>
<pdfrwt beam="1">  1        2 0.11847115E+00 0.75432574E+03</pdfrwt>
<pdfrwt beam="2">  1       -2 0.11540256E+00 0.75432574E+03</pdfrwt>
<totfact> 0.21473995E+01</totfact>
</mgrwt>
</event>
<event>
 4    5  0.8371604E-008  0.1159196E+04  0.7818608E-02  0.9197845E-01
         -2   -1    0    0    0  501 -0.00000000000E+00  0.00000000000E+00  0.20057472184E+04  0.20057472184E+04  0.25500000000E-02 0.  1.
          2   -1    0    0  501    0  0.00000000000E+00 -0.00000000000E+00 -0.21740443818E+04  0.21740443818E+04  0.25500000000E-02 0. -1.
    8880023    1    1    2    0    0 -0.59348975909E+03  0.74678967657E+03  0.17110102407E+04  0.20667102277E+04  0.65864270000E+03 0.  0.
    8880022    1    1    2    0    0  0.59348975909E+03 -0.74678967657E+03 -0.18793074040E+04  0.21130813725E+04  0.15294330000E+03 0.  0.
<mgrwt>
<rscale>  0 0.11075702E+04</rscale>
<asrwt>0</asrwt>
<pdfrwt beam="1">  1        2 0.33446837E+00 0.11591959E+04</pdfrwt>
<pdfrwt beam="2">  1       -2 0.30857649E+00 0.11591959E+04</pdfrwt>
<totfact> 0.14819179E-01</totfact>
</mgrwt>
</event>
<event>
 4    5  0.7289609E-008  0.7245486E+03  0.7818608E-02  0.9907485E-01
         -2   -1    0    0    0  501 -0.00000000000E+00  0.00000000000E+00  0.17751389230E+03  0.17751389232E+03  0.25500000000E-02 0.  1.
          2   -1    0    0  501    0  0.00000000000E+00 -0.00000000000E+00 -0.34440119498E+04  0.34440119498E+04  0.25500000000E-02 0. -1.
    8880023    1    1    2    0    0 -0.55724208060E+01  0.30187653803E+03 -0.62039795292E+03  0.95386808435E+03  0.65864270000E+03 0.  1.
    8880022    1    1    2    0    0  0.55724208060E+01 -0.30187653803E+03 -0.26461001046E+04  0.26676577578E+04  0.15294330000E+03 0.  0.
<mgrwt>
<rscale>  0 0.59899894E+03</rscale>
<asrwt>0</asrwt>
<pdfrwt beam="1">  1        2 0.52984794E+00 0.72454862E+03</pdfrwt>
<pdfrwt beam="2">  1       -2 0.27309832E-01 0.72454862E+03</pdfrwt>
<totfact> 0.11739191E+01</totfact>
</mgrwt>
</event>
<event>
 4    5  0.7289609E-008  0.8892092E+03  0.7818608E-02  0.9543581E-01
         -2   -1    0    0    0  501 -0.00000000000E+00  0.00000000000E+00  0.26567073620E+04  0.26567073620E+04  0.25500000000E-02 0.  1.
          2   -1    0    0  501    0  0.00000000000E+00 -0.00000000000E+00 -0.44502399794E+03  0.44502399795E+03  0.25500000000E-02 0. -1.
    8880023    1    1    2    0    0  0.24346730457E+03  0.54553318702E+03  0.23118706985E+04  0.24769818569E+04  0.65864270000E+03 0.  0.
    8880022    1    1    2    0    0 -0.24346730457E+03 -0.54553318702E+03 -0.10018733446E+03  0.62474950303E+03  0.15294330000E+03 0.  0.
<mgrwt>
<rscale>  0 0.81145623E+03</rscale>
<asrwt>0</asrwt>
<pdfrwt beam="1">  1        2 0.68465231E-01 0.88920920E+03</pdfrwt>
<pdfrwt beam="2">  1       -2 0.40872420E+00 0.88920920E+03</pdfrwt>
<totfact> 0.47600879E-01</totfact>
</mgrwt>
</event>
<event>
 4    5  0.7289609E-008  0.7119955E+03  0.7818608E-02  0.9950664E-01
          2   -1    0    0  501    0  0.00000000000E+00  0.00000000000E+00  0.13383033742E+04  0.13383033742E+04  0.25500000000E-02 0. -1.
         -2   -1    0    0    0  501 -0.00000000000E+00 -0.00000000000E+00 -0.70106077952E+03  0.70106077952E+03  0.25500000000E-02 0.  1.
    8880023    1    1    2    0    0  0.24610730516E+03 -0.11206488208E+03 -0.49377126717E+03  0.86645693141E+03  0.65864270000E+03 0.  1.
    8880022    1    1    2    0    0 -0.24610730516E+03  0.11206488208E+03  0.11310138618E+04  0.11729072223E+04  0.15294330000E+03 0.  0.
<mgrwt>
<rscale>  0 0.57867474E+03</rscale>
<asrwt>0</asrwt>
<pdfrwt beam="1">  1        2 0.20589282E+00 0.71199547E+03</pdfrwt>
<pdfrwt beam="2">  1       -2 0.10785551E+00 0.71199547E+03</pdfrwt>
<totfact> 0.11113075E+01</totfact>
</mgrwt>
</event>
<event>
 4    5  0.7289609E-008  0.6781238E+03  0.7818608E-02  0.1010405E+00
          2   -1    0    0  501    0  0.00000000000E+00  0.00000000000E+00  0.36889664436E+04  0.36889664437E+04  0.25500000000E-02 0. -1.
         -2   -1    0    0    0  501 -0.00000000000E+00 -0.00000000000E+00 -0.67157134013E+02  0.67157134062E+02  0.25500000000E-02 0.  1.
    8880023    1    1    2    0    0 -0.15074524727E+03 -0.57597710640E+02  0.18490558428E+04  0.19694819984E+04  0.65864270000E+03 0.  1.
    8880022    1    1    2    0    0  0.15074524727E+03  0.57597710640E+02  0.17727534668E+04  0.17866415793E+04  0.15294330000E+03 0.  0.
<mgrwt>
<rscale>  0 0.51313797E+03</rscale>
<asrwt>0</asrwt>
<pdfrwt beam="1">  1        2 0.56753336E+00 0.67812376E+03</pdfrwt>
<pdfrwt beam="2">  1       -2 0.10331866E-01 0.67812376E+03</pdfrwt>
<totfact> 0.42507655E+01</totfact>
</mgrwt>
</event>
<event>
 4    5  0.7289609E-008  0.6761734E+03  0.7818608E-02  0.1011577E+00
          2   -1    0    0  501    0  0.00000000000E+00  0.00000000000E+00  0.38341197834E+04  0.38341197834E+04  0.25500000000E-02 0. -1.
         -2   -1    0    0    0  501 -0.00000000000E+00 -0.00000000000E+00 -0.45005876973E+03  0.45005876974E+03  0.25500000000E-02 0.  1.
    8880023    1    1    2    0    0 -0.45942206176E+02 -0.14590970068E+03 -0.19095860976E+03  0.70262061169E+03  0.65864270000E+03 0.  1.
    8880022    1    1    2    0    0  0.45942206176E+02  0.14590970068E+03  0.35750196234E+04  0.35815579415E+04  0.15294330000E+03 0.  0.
<mgrwt>
<rscale>  0 0.50852817E+03</rscale>
<asrwt>0</asrwt>
<pdfrwt beam="1">  1        2 0.58986460E+00 0.67617345E+03</pdfrwt>
<pdfrwt beam="2">  1       -2 0.69239808E-01 0.67617345E+03</pdfrwt>
<totfact> 0.99119598E-01</totfact>
</mgrwt>
</event>
<event>
 4    5  0.7289609E-008  0.7680421E+03  0.7818608E-02  0.9784715E-01
          2   -1    0    0  501    0  0.00000000000E+00  0.00000000000E+00  0.11909474970E+04  0.11909474970E+04  0.25500000000E-02 0. -1.
         -2   -1    0    0    0  501 -0.00000000000E+00 -0.00000000000E+00 -0.93755856024E+03  0.93755856024E+03  0.25500000000E-02 0.  1.
    8880023    1    1    2    0    0 -0.40520975908E+02 -0.39298408987E+03 -0.72883648263E+03  0.10588159751E+04  0.65864270000E+03 0.  0.
    8880022    1    1    2    0    0  0.40520975908E+02  0.39298408987E+03  0.98222541938E+03  0.10696900822E+04  0.15294330000E+03 0.  0.
<mgrwt>
<rscale>  0 0.66189298E+03</rscale>
<asrwt>0</asrwt>
<pdfrwt beam="1">  1        2 0.18322269E+00 0.76804209E+03</pdfrwt>
<pdfrwt beam="2">  1       -2 0.14423978E+00 0.76804209E+03</pdfrwt>
<totfact> 0.64885921E+00</totfact>
</mgrwt>
</event>
<event>
 4    5  0.7289609E-008  0.8460701E+03  0.7818608E-02  0.9618839E-01
          2   -1    0    0  501    0  0.00000000000E+00  0.00000000000E+00  0.17639318867E+04  0.17639318867E+04  0.25500000000E-02 0. -1.
         -2   -1    0    0    0  501 -0.00000000000E+00 -0.00000000000E+00 -0.14243110766E+04  0.14243110766E+04  0.25500000000E-02 0.  1.
    8880023    1    1    2    0    0  0.11787652908E+03 -0.51781219430E+03 -0.12476758436E+04  0.15074911481E+04  0.65864270000E+03 0.  1.
    8880022    1    1    2    0    0 -0.11787652908E+03  0.51781219430E+03  0.15872966536E+04  0.16807518152E+04  0.15294330000E+03 0.  0.
<mgrwt>
<rscale>  0 0.76061733E+03</rscale>
<asrwt>0</asrwt>
<pdfrwt beam="1">  1        2 0.27137413E+00 0.84607006E+03</pdfrwt>
<pdfrwt beam="2">  1       -2 0.21912478E+00 0.84607006E+03</pdfrwt>
<totfact> 0.92498927E-01</totfact>
</mgrwt>
</event>
<event>
 4    5  0.7289609E-008  0.6889188E+03  0.7818608E-02  0.1004671E+00
         -2   -1    0    0    0  501 -0.00000000000E+00  0.00000000000E+00  0.48550826139E+03  0.48550826140E+03  0.25500000000E-02 0.  1.
          2   -1    0    0  501    0  0.00000000000E+00 -0.00000000000E+00 -0.18748958610E+04  0.18748958610E+04  0.25500000000E-02 0. -1.
    8880023    1    1    2    0    0 -0.10379564701E+03 -0.17327833445E+03  0.22617487520E+03  0.72509599224E+03  0.65864270000E+03 0.  0.
    8880022    1    1    2    0    0  0.10379564701E+03  0.17327833445E+03 -0.16155624748E+04  0.16353081301E+04  0.15294330000E+03 0.  0.
<mgrwt>
<rscale>  0 0.53648791E+03</rscale>
<asrwt>0</asrwt>
<pdfrwt beam="1">  1        2 0.28844551E+00 0.68891881E+03</pdfrwt>
<pdfrwt beam="2">  1       -2 0.74693580E-01 0.68891881E+03</pdfrwt>
<totfact> 0.13160280E+01</totfact>
</mgrwt>
</event>
<event>
 4    5  0.7289609E-008  0.1065470E+04  0.7818608E-02  0.9300511E-01
          2   -1    0    0  501    0  0.00000000000E+00  0.00000000000E+00  0.32204485140E+04  0.32204485140E+04  0.25500000000E-02 0. -1.
         -2   -1    0    0    0  501 -0.00000000000E+00 -0.00000000000E+00 -0.79762122818E+03  0.79762122818E+03  0.25500000000E-02 0.  1.
    8880023    1    1    2    0    0  0.56981690865E+03 -0.61377931491E+03 -0.34684469247E+03  0.11205033707E+04  0.65864270000E+03 0.  1.
    8880022    1    1    2    0    0 -0.56981690865E+03  0.61377931491E+03  0.27696719783E+04  0.28975663715E+04  0.15294330000E+03 0.  0.
<mgrwt>
<rscale>  0 0.10073580E+04</rscale>
<asrwt>0</asrwt>
<pdfrwt beam="1">  1        2 0.49545361E+00 0.10654701E+04</pdfrwt>
<pdfrwt beam="2">  1       -2 0.12271096E+00 0.10654701E+04</pdfrwt>
<totfact> 0.63924186E-01</totfact>
</mgrwt>
</event>
<event>
 4    5  0.7289609E-008  0.1110913E+04  0.7818608E-02  0.9249002E-01
         -2   -1    0    0    0  501 -0.00000000000E+00  0.00000000000E+00  0.65890213994E+03  0.65890213994E+03  0.25500000000E-02 0.  1.
          2   -1    0    0  501    0  0.00000000000E+00 -0.00000000000E+00 -0.19170521114E+04  0.19170521114E+04  0.25500000000E-02 0. -1.
    8880023    1    1    2    0    0  0.83745787449E+03 -0.31461318674E+03 -0.11576277050E+03  0.11169280971E+04  0.65864270000E+03 0. -1.
    8880022    1    1    2    0    0 -0.83745787449E+03  0.31461318674E+03 -0.11423872010E+04  0.14590261543E+04  0.15294330000E+03 0.  0.
<mgrwt>
<rscale>  0 0.10561648E+04</rscale>
<asrwt>0</asrwt>
<pdfrwt beam="1">  1        2 0.29493109E+00 0.11109128E+04</pdfrwt>
<pdfrwt beam="2">  1       -2 0.10136956E+00 0.11109128E+04</pdfrwt>
<totfact> 0.58649438E+00</totfact>
</mgrwt>
</event>
<event>
 4    5  0.7289609E-008  0.1049718E+04  0.7818608E-02  0.9319220E-01
         -2   -1    0    0    0  501 -0.00000000000E+00  0.00000000000E+00  0.69304008771E+03  0.69304008772E+03  0.25500000000E-02 0.  1.
          2   -1    0    0  501    0  0.00000000000E+00 -0.00000000000E+00 -0.14209983646E+04  0.14209983646E+04  0.25500000000E-02 0. -1.
    8880023    1    1    2    0    0 -0.77879054292E+03  0.24815970120E+03 -0.67101106195E+02  0.10518605952E+04  0.65864270000E+03 0.  0.
    8880022    1    1    2    0    0  0.77879054292E+03 -0.24815970120E+03 -0.66085717067E+03  0.10621778571E+04  0.15294330000E+03 0.  0.
<mgrwt>
<rscale>  0 0.99032497E+03</rscale>
<asrwt>0</asrwt>
<pdfrwt beam="1">  1        2 0.21861513E+00 0.10497181E+04</pdfrwt>
<pdfrwt beam="2">  1       -2 0.10662155E+00 0.10497181E+04</pdfrwt>
<totfact> 0.98698375E+00</totfact>
</mgrwt>
</event>
<event>
 4    5  0.7289609E-008  0.6805777E+03  0.7818608E-02  0.1008999E+00
         -2   -1    0    0    0  501 -0.00000000000E+00  0.00000000000E+00  0.46338793830E+03  0.46338793830E+03  0.25500000000E-02 0.  1.
          2   -1    0    0  501    0  0.00000000000E+00 -0.00000000000E+00 -0.15687273502E+04  0.15687273502E+04  0.25500000000E-02 0. -1.
    8880023    1    1    2    0    0 -0.14474402778E+03 -0.91787627261E+02  0.19791516192E+03  0.70877106295E+03  0.65864270000E+03 0.  1.
    8880022    1    1    2    0    0  0.14474402778E+03  0.91787627261E+02 -0.13032545738E+04  0.13233442255E+04  0.15294330000E+03 0.  0.
<mgrwt>
<rscale>  0 0.51874516E+03</rscale>
<asrwt>0</asrwt>
<pdfrwt beam="1">  1        2 0.24134267E+00 0.68057770E+03</pdfrwt>
<pdfrwt beam="2">  1       -2 0.71290453E-01 0.68057770E+03</pdfrwt>
<totfact> 0.21451404E+01</totfact>
</mgrwt>
</event>
<event>
 4    5  0.7289609E-008  0.1155807E+04  0.7818608E-02  0.9201326E-01
         -2   -1    0    0    0  501 -0.00000000000E+00  0.00000000000E+00  0.20520810512E+04  0.20520810512E+04  0.25500000000E-02 0.  1.
          2   -1    0    0  501    0  0.00000000000E+00 -0.00000000000E+00 -0.58436145501E+03  0.58436145502E+03  0.25500000000E-02 0. -1.
    8880023    1    1    2    0    0  0.79269952579E+03  0.52317007971E+03  0.11312442402E+04  0.16172826617E+04  0.65864270000E+03 0.  0.
    8880022    1    1    2    0    0 -0.79269952579E+03 -0.52317007971E+03  0.33647535595E+03  0.10191598445E+04  0.15294330000E+03 0.  0.
<mgrwt>
<rscale>  0 0.11039752E+04</rscale>
<asrwt>0</asrwt>
<pdfrwt beam="1">  1        2 0.89901763E-01 0.11558069E+04</pdfrwt>
<pdfrwt beam="2">  1       -2 0.31570477E+00 0.11558069E+04</pdfrwt>
<totfact> 0.12907800E+00</totfact>
</mgrwt>
</event>
<event>
 4    5  0.7289609E-008  0.8253433E+03  0.7818608E-02  0.9658462E-01
         -2   -1    0    0    0  501 -0.00000000000E+00  0.00000000000E+00  0.30262844564E+03  0.30262844565E+03  0.25500000000E-02 0.  1.
          2   -1    0    0  501    0  0.00000000000E+00 -0.00000000000E+00 -0.33781330931E+04  0.33781330931E+04  0.25500000000E-02 0. -1.
    8880023    1    1    2    0    0  0.16128893704E+03 -0.47049687307E+03 -0.33408883593E+03  0.89039709419E+03  0.65864270000E+03 0.  0.
    8880022    1    1    2    0    0 -0.16128893704E+03  0.47049687307E+03 -0.27414158115E+04  0.27903644446E+04  0.15294330000E+03 0.  0.
<mgrwt>
<rscale>  0 0.73544750E+03</rscale>
<asrwt>0</asrwt>
<pdfrwt beam="1">  1        2 0.51971276E+00 0.82534334E+03</pdfrwt>
<pdfrwt beam="2">  1       -2 0.46558225E-01 0.82534334E+03</pdfrwt>
<totfact> 0.45915721E+00</totfact>
</mgrwt>
</event>
<event>
 4    5  0.7289609E-008  0.7156834E+03  0.7818608E-02  0.9937472E-01
         -2   -1    0    0    0  501 -0.00000000000E+00  0.00000000000E+00  0.57411622101E+03  0.57411622101E+03  0.25500000000E-02 0.  1.
          2   -1    0    0  501    0  0.00000000000E+00 -0.00000000000E+00 -0.24860078620E+04  0.24860078620E+04  0.25500000000E-02 0. -1.
    8880023    1    1    2    0    0  0.85985608695E+02 -0.26645625518E+03  0.33534516472E+03  0.79035374776E+03  0.65864270000E+03 0.  1.
    8880022    1    1    2    0    0 -0.85985608695E+02  0.26645625518E+03 -0.22472368057E+04  0.22697703353E+04  0.15294330000E+03 0.  0.
<mgrwt>
<rscale>  0 0.58479101E+03</rscale>
<asrwt>0</asrwt>
<pdfrwt beam="1">  1        2 0.38246274E+00 0.71568336E+03</pdfrwt>
<pdfrwt beam="2">  1       -2 0.88325574E-01 0.71568336E+03</pdfrwt>
<totfact> 0.41345993E+00</totfact>
</mgrwt>
</event>
<event>
 4    5  0.7289609E-008  0.7245681E+03  0.7818608E-02  0.9907422E-01
         -2   -1    0    0    0  501 -0.00000000000E+00  0.00000000000E+00  0.72940497302E+03  0.72940497302E+03  0.25500000000E-02 0.  1.
          2   -1    0    0  501    0  0.00000000000E+00 -0.00000000000E+00 -0.10180391134E+04  0.10180391134E+04  0.25500000000E-02 0. -1.
    8880023    1    1    2    0    0 -0.21125399192E+03 -0.21577867340E+03  0.50597027582E+03  0.88374476591E+03  0.65864270000E+03 0.  0.
    8880022    1    1    2    0    0  0.21125399192E+03  0.21577867340E+03 -0.79460441620E+03  0.86369932052E+03  0.15294330000E+03 0. -1.
<mgrwt>
<rscale>  0 0.59902943E+03</rscale>
<asrwt>0</asrwt>
<pdfrwt beam="1">  1        2 0.15662140E+00 0.72456807E+03</pdfrwt>
<pdfrwt beam="2">  1       -2 0.11221615E+00 0.72456807E+03</pdfrwt>
<totfact> 0.15657840E+01</totfact>
</mgrwt>
</event>
<event>
 4    5  0.7289609E-008  0.1718207E+04  0.7818608E-02  0.8769184E-01
          2   -1    0    0  501    0  0.00000000000E+00  0.00000000000E+00  0.24503090381E+04  0.24503090381E+04  0.25500000000E-02 0. -1.
         -2   -1    0    0    0  501 -0.00000000000E+00 -0.00000000000E+00 -0.16674526174E+04  0.16674526174E+04  0.25500000000E-02 0.  1.
    8880023    1    1    2    0    0  0.45122594013E+03 -0.15214529640E+04 -0.77841378887E+03  0.18863091485E+04  0.65864270000E+03 0.  0.
    8880022    1    1    2    0    0 -0.45122594013E+03  0.15214529640E+04  0.15612702095E+04  0.22314525070E+04  0.15294330000E+03 0.  0.
<mgrwt>
<rscale>  0 0.16863571E+04</rscale>
<asrwt>0</asrwt>
<pdfrwt beam="1">  1        2 0.37697062E+00 0.17182067E+04</pdfrwt>
<pdfrwt beam="2">  1       -2 0.25653117E+00 0.17182067E+04</pdfrwt>
<totfact> 0.19932413E-01</totfact>
</mgrwt>
</event>
<event>
 4    5  0.7289609E-008  0.7741204E+03  0.7818608E-02  0.9769834E-01
          2   -1    0    0  501    0  0.00000000000E+00  0.00000000000E+00  0.23329222680E+04  0.23329222680E+04  0.25500000000E-02 0. -1.
         -2   -1    0    0    0  501 -0.00000000000E+00 -0.00000000000E+00 -0.47229160800E+03  0.47229160800E+03  0.25500000000E-02 0.  1.
    8880023    1    1    2    0    0 -0.38434544110E+03  0.13315671520E+03 -0.11476744972E+03  0.78258156295E+03  0.65864270000E+03 0.  0.
    8880022    1    1    2    0    0  0.38434544110E+03 -0.13315671520E+03  0.19753981097E+04  0.20226323130E+04  0.15294330000E+03 0.  0.
<mgrwt>
<rscale>  0 0.67006850E+03</rscale>
<asrwt>0</asrwt>
<pdfrwt beam="1">  1        2 0.35891112E+00 0.77412036E+03</pdfrwt>
<pdfrwt beam="2">  1       -2 0.72660247E-01 0.77412036E+03</pdfrwt>
<totfact> 0.77371625E+00</totfact>
</mgrwt>
</event>
<event>
 4    5  0.7289609E-008  0.8580790E+03  0.7818608E-02  0.9596990E-01
          2   -1    0    0  501    0  0.00000000000E+00  0.00000000000E+00  0.14269086177E+04  0.14269086177E+04  0.25500000000E-02 0. -1.
         -2   -1    0    0    0  501 -0.00000000000E+00 -0.00000000000E+00 -0.70791786869E+03  0.70791786870E+03  0.25500000000E-02 0.  1.
    8880023    1    1    2    0    0  0.38118557363E+03 -0.39646811197E+03 -0.34701523855E+03  0.92559126368E+03  0.65864270000E+03 0.  0.
    8880022    1    1    2    0    0 -0.38118557363E+03  0.39646811197E+03  0.10660059876E+04  0.12092352227E+04  0.15294330000E+03 0.  0.
<mgrwt>
<rscale>  0 0.77495744E+03</rscale>
<asrwt>0</asrwt>
<pdfrwt beam="1">  1        2 0.21952440E+00 0.85807902E+03</pdfrwt>
<pdfrwt beam="2">  1       -2 0.10891044E+00 0.85807902E+03</pdfrwt>
<totfact> 0.94912017E+00</totfact>
</mgrwt>
</event>
<event>
 4    5  0.7289609E-008  0.1114002E+04  0.7818608E-02  0.9245625E-01
          2   -1    0    0  501    0  0.00000000000E+00  0.00000000000E+00  0.20103290389E+04  0.20103290389E+04  0.25500000000E-02 0. -1.
         -2   -1    0    0    0  501 -0.00000000000E+00 -0.00000000000E+00 -0.52236051613E+03  0.52236051614E+03  0.25500000000E-02 0.  1.
    8880023    1    1    2    0    0 -0.44308044246E+03 -0.78158129807E+03  0.10095159599E+04  0.15033703082E+04  0.65864270000E+03 0.  1.
    8880022    1    1    2    0    0  0.44308044246E+03  0.78158129807E+03  0.47845256283E+03  0.10293192468E+04  0.15294330000E+03 0.  0.
<mgrwt>
<rscale>  0 0.10594663E+04</rscale>
<asrwt>0</asrwt>
<pdfrwt beam="1">  1        2 0.30928139E+00 0.11140017E+04</pdfrwt>
<pdfrwt beam="2">  1       -2 0.80363157E-01 0.11140017E+04</pdfrwt>
<totfact> 0.89322198E+00</totfact>
</mgrwt>
</event>
<event>
 4    5  0.7289609E-008  0.1591825E+04  0.7818608E-02  0.8847377E-01
         -2   -1    0    0    0  501 -0.00000000000E+00  0.00000000000E+00  0.13081075737E+04  0.13081075737E+04  0.25500000000E-02 0.  1.
          2   -1    0    0  501    0  0.00000000000E+00 -0.00000000000E+00 -0.36995284057E+04  0.36995284057E+04  0.25500000000E-02 0. -1.
    8880023    1    1    2    0    0  0.92061817286E+03 -0.11191777824E+04  0.58316808485E+03  0.16952852121E+04  0.65864270000E+03 0.  0.
    8880022    1    1    2    0    0 -0.92061817286E+03  0.11191777824E+04 -0.29745889168E+04  0.33123507673E+04  0.15294330000E+03 0.  0.
<mgrwt>
<rscale>  0 0.15570506E+04</rscale>
<asrwt>0</asrwt>
<pdfrwt beam="1">  1        2 0.56915821E+00 0.15918250E+04</pdfrwt>
<pdfrwt beam="2">  1       -2 0.20124732E+00 0.15918250E+04</pdfrwt>
<totfact> 0.71569692E-02</totfact>
</mgrwt>
</event>
<event>
 4    5  0.7289609E-008  0.8064938E+03  0.7818608E-02  0.9696927E-01
          2   -1    0    0  501    0  0.00000000000E+00  0.00000000000E+00  0.93227238622E+03  0.93227238622E+03  0.25500000000E-02 0. -1.
         -2   -1    0    0    0  501 -0.00000000000E+00 -0.00000000000E+00 -0.61120299877E+03  0.61120299877E+03  0.25500000000E-02 0.  1.
    8880023    1    1    2    0    0 -0.41838871998E+03 -0.20389425579E+03 -0.19725044142E+03  0.83026497665E+03  0.65864270000E+03 0.  1.
    8880022    1    1    2    0    0  0.41838871998E+03  0.20389425579E+03  0.51831982887E+03  0.71321040834E+03  0.15294330000E+03 0.  0.
<mgrwt>
<rscale>  0 0.71200042E+03</rscale>
<asrwt>0</asrwt>
<pdfrwt beam="1">  1        2 0.14342652E+00 0.80649377E+03</pdfrwt>
<pdfrwt beam="2">  1       -2 0.94031231E-01 0.80649377E+03</pdfrwt>
<totfact> 0.26899310E+01</totfact>
</mgrwt>
</event>
<event>
 4    5  0.7289609E-008  0.7937286E+03  0.7818608E-02  0.9724524E-01
          2   -1    0    0  501    0  0.00000000000E+00  0.00000000000E+00  0.12909278834E+04  0.12909278834E+04  0.25500000000E-02 0. -1.
         -2   -1    0    0    0  501 -0.00000000000E+00 -0.00000000000E+00 -0.61509350309E+03  0.61509350309E+03  0.25500000000E-02 0.  1.
    8880023    1    1    2    0    0 -0.35304026224E+03  0.26750226744E+03 -0.27986338620E+03  0.84162260607E+03  0.65864270000E+03 0.  1.
    8880022    1    1    2    0    0  0.35304026224E+03 -0.26750226744E+03  0.95569776652E+03  0.10643987804E+04  0.15294330000E+03 0.  0.
<mgrwt>
<rscale>  0 0.69575244E+03</rscale>
<asrwt>0</asrwt>
<pdfrwt beam="1">  1        2 0.19860429E+00 0.79372860E+03</pdfrwt>
<pdfrwt beam="2">  1       -2 0.94629771E-01 0.79372860E+03</pdfrwt>
<totfact> 0.15984084E+01</totfact>
</mgrwt>
</event>
<event>
 4    5  0.7289609E-008  0.8578639E+03  0.7818608E-02  0.9597375E-01
          2   -1    0    0  501    0  0.00000000000E+00  0.00000000000E+00  0.23876293927E+04  0.23876293927E+04  0.25500000000E-02 0. -1.
         -2   -1    0    0    0  501 -0.00000000000E+00 -0.00000000000E+00 -0.69012691992E+03  0.69012691992E+03  0.25500000000E-02 0.  1.
    8880023    1    1    2    0    0 -0.34497589947E+03 -0.42791574166E+03 -0.36906074761E+03  0.93388237742E+03  0.65864270000E+03 0.  1.
    8880022    1    1    2    0    0  0.34497589947E+03  0.42791574166E+03  0.20665632204E+04  0.21438739352E+04  0.15294330000E+03 0.  0.
<mgrwt>
<rscale>  0 0.77470195E+03</rscale>
<asrwt>0</asrwt>
<pdfrwt beam="1">  1        2 0.36732760E+00 0.85786389E+03</pdfrwt>
<pdfrwt beam="2">  1       -2 0.10617337E+00 0.85786389E+03</pdfrwt>
<totfact> 0.29717432E+00</totfact>
</mgrwt>
</event>
<event>
 4    5  0.7289609E-008  0.7127935E+03  0.7818608E-02  0.9947770E-01
         -2   -1    0    0    0  501 -0.00000000000E+00  0.00000000000E+00  0.69237102338E+03  0.69237102339E+03  0.25500000000E-02 0.  1.
          2   -1    0    0  501    0  0.00000000000E+00 -0.00000000000E+00 -0.10477373784E+04  0.10477373784E+04  0.25500000000E-02 0. -1.
    8880023    1    1    2    0    0  0.26304011406E+03 -0.71234217998E+02  0.47253095892E+03  0.85519595931E+03  0.65864270000E+03 0.  1.
    8880022    1    1    2    0    0 -0.26304011406E+03  0.71234217998E+02 -0.82789731392E+03  0.88491244247E+03  0.15294330000E+03 0.  0.
<mgrwt>
<rscale>  0 0.58000965E+03</rscale>
<asrwt>0</asrwt>
<pdfrwt beam="1">  1        2 0.16119037E+00 0.71279353E+03</pdfrwt>
<pdfrwt beam="2">  1       -2 0.10651862E+00 0.71279353E+03</pdfrwt>
<totfact> 0.17036239E+01</totfact>
</mgrwt>
</event>
<event>
 4    5  0.7289609E-008  0.9606673E+03  0.7818608E-02  0.9434929E-01
          2   -1    0    0  501    0  0.00000000000E+00  0.00000000000E+00  0.23264471363E+04  0.23264471363E+04  0.25500000000E-02 0. -1.
         -2   -1    0    0    0  501 -0.00000000000E+00 -0.00000000000E+00 -0.61479276342E+03  0.61479276343E+03  0.25500000000E-02 0.  1.
    8880023    1    1    2    0    0  0.44203067646E+03  0.54192287694E+03 -0.12616883307E+03  0.96891707807E+03  0.65864270000E+03 0.  0.
    8880022    1    1    2    0    0 -0.44203067646E+03 -0.54192287694E+03  0.18378232059E+04  0.19723228216E+04  0.15294330000E+03 0.  0.
<mgrwt>
<rscale>  0 0.89256037E+03</rscale>
<asrwt>0</asrwt>
<pdfrwt beam="1">  1        2 0.35791495E+00 0.96066734E+03</pdfrwt>
<pdfrwt beam="2">  1       -2 0.94583501E-01 0.96066734E+03</pdfrwt>
<totfact> 0.41700641E+00</totfact>
</mgrwt>
</event>
<event>
 4    5  0.7289609E-008  0.6991242E+03  0.7818608E-02  0.1000085E+00
         -2   -1    0    0    0  501 -0.00000000000E+00  0.00000000000E+00  0.73664665968E+03  0.73664665968E+03  0.25500000000E-02 0.  1.
          2   -1    0    0  501    0  0.00000000000E+00 -0.00000000000E+00 -0.33880205633E+03  0.33880205634E+03  0.25500000000E-02 0. -1.
    8880023    1    1    2    0    0  0.19904251582E+03  0.12388094289E+03  0.37813598702E+03  0.79483422301E+03  0.65864270000E+03 0.  1.
    8880022    1    1    2    0    0 -0.19904251582E+03 -0.12388094289E+03  0.19708616318E+02  0.28061449301E+03  0.15294330000E+03 0. -1.
<mgrwt>
<rscale>  0 0.55612807E+03</rscale>
<asrwt>0</asrwt>
<pdfrwt beam="1">  1        2 0.52123394E-01 0.69912418E+03</pdfrwt>
<pdfrwt beam="2">  1       -2 0.11333025E+00 0.69912418E+03</pdfrwt>
<totfact> 0.59360886E+01</totfact>
</mgrwt>
</event>
<event>
 4    5  0.9646312E-008  0.8141072E+03  0.7818608E-02  0.9681084E-01
          2   -1    0    0  501    0  0.00000000000E+00  0.00000000000E+00  0.19213664640E+04  0.19213664640E+04  0.25500000000E-02 0. -1.
         -2   -1    0    0    0  501 -0.00000000000E+00 -0.00000000000E+00 -0.10614211157E+04  0.10614211157E+04  0.25500000000E-02 0.  1.
    8880023    1    1    2    0    0  0.45601190171E+03  0.14496003899E+03 -0.86401048297E+03  0.11871329278E+04  0.65864270000E+03 0.  1.
    8880022    1    1    2    0    0 -0.45601190171E+03 -0.14496003899E+03  0.17239558313E+04  0.17956546518E+04  0.15294330000E+03 0.  0.
<mgrwt>
<rscale>  0 0.72154265E+03</rscale>
<asrwt>0</asrwt>
<pdfrwt beam="1">  1        2 0.29559484E+00 0.81410716E+03</pdfrwt>
<pdfrwt beam="2">  1       -2 0.16329556E+00 0.81410716E+03</pdfrwt>
<totfact> 0.18048204E+00</totfact>
</mgrwt>
</event>
<event>
 4    5  0.7289609E-008  0.8364219E+03  0.7818608E-02  0.9636964E-01
          2   -1    0    0  501    0  0.00000000000E+00  0.00000000000E+00  0.12305520065E+04  0.12305520065E+04  0.25500000000E-02 0. -1.
         -2   -1    0    0    0  501 -0.00000000000E+00 -0.00000000000E+00 -0.11329718145E+04  0.11329718145E+04  0.25500000000E-02 0.  1.
    8880023    1    1    2    0    0 -0.51177676567E+03 -0.62257095424E+02 -0.90097580257E+03  0.12293734204E+04  0.65864270000E+03 0.  1.
    8880022    1    1    2    0    0  0.51177676567E+03  0.62257095424E+02  0.99855599454E+03  0.11341504005E+04  0.15294330000E+03 0.  0.
<mgrwt>
<rscale>  0 0.74897213E+03</rscale>
<asrwt>0</asrwt>
<pdfrwt beam="1">  1        2 0.18931569E+00 0.83642191E+03</pdfrwt>
<pdfrwt beam="2">  1       -2 0.17430336E+00 0.83642191E+03</pdfrwt>
<totfact> 0.36505926E+00</totfact>
</mgrwt>
</event>
<event>
 4    5  0.7289609E-008  0.2144465E+04  0.7818608E-02  0.8552679E-01
          2   -1    0    0  501    0  0.00000000000E+00  0.00000000000E+00  0.31979439496E+04  0.31979439496E+04  0.25500000000E-02 0. -1.
         -2   -1    0    0    0  501 -0.00000000000E+00 -0.00000000000E+00 -0.16804988212E+04  0.16804988213E+04  0.25500000000E-02 0.  1.
    8880023    1    1    2    0    0 -0.17180813401E+04 -0.11014163062E+04 -0.26978167577E+03  0.21613684853E+04  0.65864270000E+03 0.  0.
    8880022    1    1    2    0    0  0.17180813401E+04  0.11014163062E+04  0.17872268041E+04  0.27170742855E+04  0.15294330000E+03 0.  0.
<mgrwt>
<rscale>  0 0.21195524E+04</rscale>
<asrwt>0</asrwt>
<pdfrwt beam="1">  1        2 0.49199137E+00 0.21444653E+04</pdfrwt>
<pdfrwt beam="2">  1       -2 0.25853828E+00 0.21444653E+04</pdfrwt>
<totfact> 0.64783610E-02</totfact>
</mgrwt>
</event>
<event>
 4    5  0.7289609E-008  0.1002252E+04  0.7818608E-02  0.9378617E-01
          2   -1    0    0  501    0  0.00000000000E+00  0.00000000000E+00  0.52684145644E+03  0.52684145645E+03  0.25500000000E-02 0. -1.
         -2   -1    0    0    0  501 -0.00000000000E+00 -0.00000000000E+00 -0.17309366049E+04  0.17309366049E+04  0.25500000000E-02 0.  1.
    8880023    1    1    2    0    0  0.21572428197E+03  0.72399083086E+03 -0.10863526711E+04  0.14780636053E+04  0.65864270000E+03 0.  0.
    8880022    1    1    2    0    0 -0.21572428197E+03 -0.72399083086E+03 -0.11774247735E+03  0.77971445606E+03  0.15294330000E+03 0.  0.
<mgrwt>
<rscale>  0 0.93856528E+03</rscale>
<asrwt>0</asrwt>
<pdfrwt beam="1">  1        2 0.81052533E-01 0.10022524E+04</pdfrwt>
<pdfrwt beam="2">  1       -2 0.26629794E+00 0.10022524E+04</pdfrwt>
<totfact> 0.29622889E+00</totfact>
</mgrwt>
</event>
<event>
 4    5  0.7289609E-008  0.7012269E+03  0.7818608E-02  0.9992149E-01
          2   -1    0    0  501    0  0.00000000000E+00  0.00000000000E+00  0.20877821582E+04  0.20877821582E+04  0.25500000000E-02 0. -1.
         -2   -1    0    0    0  501 -0.00000000000E+00 -0.00000000000E+00 -0.48197178415E+03  0.48197178416E+03  0.25500000000E-02 0.  1.
    8880023    1    1    2    0    0  0.14749878620E+03 -0.19013956538E+03 -0.20976176789E+03  0.73192837886E+03  0.65864270000E+03 0.  1.
    8880022    1    1    2    0    0 -0.14749878620E+03  0.19013956538E+03  0.18155721419E+04  0.18378255635E+04  0.15294330000E+03 0.  0.
<mgrwt>
<rscale>  0 0.55995824E+03</rscale>
<asrwt>0</asrwt>
<pdfrwt beam="1">  1        2 0.32119725E+00 0.70122689E+03</pdfrwt>
<pdfrwt beam="2">  1       -2 0.74149506E-01 0.70122689E+03</pdfrwt>
<totfact> 0.10221449E+01</totfact>
</mgrwt>
</event>
<event>
 4    5  0.7289609E-008  0.8794963E+03  0.7818608E-02  0.9559782E-01
         -2   -1    0    0    0  501 -0.00000000000E+00  0.00000000000E+00  0.57699090683E+03  0.57699090683E+03  0.25500000000E-02 0.  1.
          2   -1    0    0  501    0  0.00000000000E+00 -0.00000000000E+00 -0.23648787994E+04  0.23648787994E+04  0.25500000000E-02 0. -1.
    8880023    1    1    2    0    0 -0.58143712103E+03 -0.40428607554E+02  0.16788315227E+03  0.89537620981E+03  0.65864270000E+03 0.  1.
    8880022    1    1    2    0    0  0.58143712103E+03  0.40428607554E+02 -0.19557710448E+04  0.20464934964E+04  0.15294330000E+03 0.  0.
<mgrwt>
<rscale>  0 0.80016232E+03</rscale>
<asrwt>0</asrwt>
<pdfrwt beam="1">  1        2 0.36382750E+00 0.87949634E+03</pdfrwt>
<pdfrwt beam="2">  1       -2 0.88767833E-01 0.87949634E+03</pdfrwt>
<totfact> 0.46519595E+00</totfact>
</mgrwt>
</event>
<event>
 4    5  0.7289609E-008  0.1806040E+04  0.7818608E-02  0.8719203E-01
          2   -1    0    0  501    0  0.00000000000E+00  0.00000000000E+00  0.18617819796E+04  0.18617819796E+04  0.25500000000E-02 0. -1.
         -2   -1    0    0    0  501 -0.00000000000E+00 -0.00000000000E+00 -0.20378575435E+04  0.20378575435E+04  0.25500000000E-02 0.  1.
    8880023    1    1    2    0    0  0.81418147480E+03 -0.14714202522E+04 -0.95167557355E+03  0.20414371497E+04  0.65864270000E+03 0.  0.
    8880022    1    1    2    0    0 -0.81418147480E+03  0.14714202522E+04  0.77560000963E+03  0.18582023734E+04  0.15294330000E+03 0.  0.
<mgrwt>
<rscale>  0 0.17759347E+04</rscale>
<asrwt>0</asrwt>
<pdfrwt beam="1">  1        2 0.28642800E+00 0.18060397E+04</pdfrwt>
<pdfrwt beam="2">  1       -2 0.31351655E+00 0.18060397E+04</pdfrwt>
<totfact> 0.19012750E-01</totfact>
</mgrwt>
</event>
<event>
 4    5  0.7289609E-008  0.6921757E+03  0.7818608E-02  0.1003135E+00
          2   -1    0    0  501    0  0.00000000000E+00  0.00000000000E+00  0.29428232866E+04  0.29428232866E+04  0.25500000000E-02 0. -1.
         -2   -1    0    0    0  501 -0.00000000000E+00 -0.00000000000E+00 -0.37503534901E+03  0.37503534901E+03  0.25500000000E-02 0.  1.
    8880023    1    1    2    0    0  0.84040869023E+02  0.19553559236E+03 -0.43415022673E+02  0.69353594428E+03  0.65864270000E+03 0.  1.
    8880022    1    1    2    0    0 -0.84040869023E+02 -0.19553559236E+03  0.26112029603E+04  0.26243226914E+04  0.15294330000E+03 0.  0.
<mgrwt>
<rscale>  0 0.54296637E+03</rscale>
<asrwt>0</asrwt>
<pdfrwt beam="1">  1        2 0.45274202E+00 0.69217573E+03</pdfrwt>
<pdfrwt beam="2">  1       -2 0.57697749E-01 0.69217573E+03</pdfrwt>
<totfact> 0.57205140E+00</totfact>
</mgrwt>
</event>
<event>
 4    5  0.7637776E-008  0.1462463E+04  0.7818608E-02  0.8936607E-01
          2   -1    0    0  501    0  0.00000000000E+00  0.00000000000E+00  0.41761563513E+04  0.41761563513E+04  0.25500000000E-02 0. -1.
         -2   -1    0    0    0  501 -0.00000000000E+00 -0.00000000000E+00 -0.13426756744E+04  0.13426756744E+04  0.25500000000E-02 0.  1.
    8880023    1    1    2    0    0 -0.61719208976E+03  0.11506792048E+04 -0.79143278001E+03  0.16628784561E+04  0.65864270000E+03 0.  1.
    8880022    1    1    2    0    0  0.61719208976E+03 -0.11506792048E+04  0.36249134569E+04  0.38559535697E+04  0.15294330000E+03 0.  0.
<mgrwt>
<rscale>  0 0.14240284E+04</rscale>
<asrwt>0</asrwt>
<pdfrwt beam="1">  1        2 0.64248559E+00 0.14624633E+04</pdfrwt>
<pdfrwt beam="2">  1       -2 0.20656549E+00 0.14624633E+04</pdfrwt>
<totfact> 0.28342131E-02</totfact>
</mgrwt>
</event>
<event>
 4    5  0.7289609E-008  0.1482309E+04  0.7818608E-02  0.8922230E-01
         -2   -1    0    0    0  501 -0.00000000000E+00  0.00000000000E+00  0.99619565314E+03  0.99619565314E+03  0.25500000000E-02 0.  1.
          2   -1    0    0  501    0  0.00000000000E+00 -0.00000000000E+00 -0.22433706888E+04  0.22433706888E+04  0.25500000000E-02 0. -1.
    8880023    1    1    2    0    0 -0.11448235982E+04  0.67291016913E+03 -0.11315828531E+03  0.14866217308E+04  0.65864270000E+03 0.  0.
    8880022    1    1    2    0    0  0.11448235982E+04 -0.67291016913E+03 -0.11340167504E+04  0.17529446112E+04  0.15294330000E+03 0.  0.
<mgrwt>
<rscale>  0 0.14444887E+04</rscale>
<asrwt>0</asrwt>
<pdfrwt beam="1">  1        2 0.34513395E+00 0.14823088E+04</pdfrwt>
<pdfrwt beam="2">  1       -2 0.15326087E+00 0.14823088E+04</pdfrwt>
<totfact> 0.13058451E+00</totfact>
</mgrwt>
</event>
<event>
 4    5  0.7289609E-008  0.1221562E+04  0.7818608E-02  0.9136442E-01
          2   -1    0    0  501    0  0.00000000000E+00  0.00000000000E+00  0.13551403670E+04  0.13551403670E+04  0.25500000000E-02 0. -1.
         -2   -1    0    0    0  501 -0.00000000000E+00 -0.00000000000E+00 -0.10549644910E+04  0.10549644910E+04  0.25500000000E-02 0.  1.
    8880023    1    1    2    0    0 -0.80903521630E+03 -0.63550393856E+03 -0.22945809391E+03  0.12429257662E+04  0.65864270000E+03 0. -1.
    8880022    1    1    2    0    0  0.80903521630E+03  0.63550393856E+03  0.52963396988E+03  0.11671790917E+04  0.15294330000E+03 0.  0.
<mgrwt>
<rscale>  0 0.11734233E+04</rscale>
<asrwt>0</asrwt>
<pdfrwt beam="1">  1        2 0.20848313E+00 0.12215619E+04</pdfrwt>
<pdfrwt beam="2">  1       -2 0.16230223E+00 0.12215619E+04</pdfrwt>
<totfact> 0.36067861E+00</totfact>
</mgrwt>
</event>
<event>
 4    5  0.7289609E-008  0.6732820E+03  0.7818608E-02  0.1013412E+00
         -2   -1    0    0    0  501 -0.00000000000E+00  0.00000000000E+00  0.10985177645E+03  0.10985177648E+03  0.25500000000E-02 0.  1.
          2   -1    0    0  501    0  0.00000000000E+00 -0.00000000000E+00 -0.25228735747E+04  0.25228735748E+04  0.25500000000E-02 0. -1.
    8880023    1    1    2    0    0  0.39866921862E+02  0.13382485091E+03 -0.10058133372E+04  0.12103590945E+04  0.65864270000E+03 0.  1.
    8880022    1    1    2    0    0 -0.39866921862E+02 -0.13382485091E+03 -0.14072084611E+04  0.14223662567E+04  0.15294330000E+03 0.  0.
<mgrwt>
<rscale>  0 0.50140933E+03</rscale>
<asrwt>0</asrwt>
<pdfrwt beam="1">  1        2 0.38813436E+00 0.67328201E+03</pdfrwt>
<pdfrwt beam="2">  1       -2 0.16900275E-01 0.67328201E+03</pdfrwt>
<totfact> 0.10124022E+02</totfact>
</mgrwt>
</event>
<event>
 4    5  0.7289609E-008  0.7540775E+03  0.7818608E-02  0.9820689E-01
          2   -1    0    0  501    0  0.00000000000E+00  0.00000000000E+00  0.20489991173E+04  0.20489991173E+04  0.25500000000E-02 0. -1.
         -2   -1    0    0    0  501 -0.00000000000E+00 -0.00000000000E+00 -0.49616640084E+03  0.49616640085E+03  0.25500000000E-02 0.  1.
    8880023    1    1    2    0    0 -0.32543783483E+03 -0.17003779886E+03 -0.17335132003E+03  0.77374642087E+03  0.65864270000E+03 0.  1.
    8880022    1    1    2    0    0  0.32543783483E+03  0.17003779886E+03  0.17261840365E+04  0.17714190973E+04  0.15294330000E+03 0.  0.
<mgrwt>
<rscale>  0 0.64263991E+03</rscale>
<asrwt>0</asrwt>
<pdfrwt beam="1">  1        2 0.31523063E+00 0.75407748E+03</pdfrwt>
<pdfrwt beam="2">  1       -2 0.76333293E-01 0.75407748E+03</pdfrwt>
<totfact> 0.99799899E+00</totfact>
</mgrwt>
</event>
<event>
 4    5  0.7289609E-008  0.7603244E+03  0.7818608E-02  0.9804268E-01
          2   -1    0    0  501    0  0.00000000000E+00  0.00000000000E+00  0.10080439524E+04  0.10080439525E+04  0.25500000000E-02 0. -1.
         -2   -1    0    0    0  501 -0.00000000000E+00 -0.00000000000E+00 -0.48912097743E+03  0.48912097744E+03  0.25500000000E-02 0.  1.
    8880023    1    1    2    0    0 -0.25877113997E+03 -0.27806554347E+03 -0.87601704139E+02  0.76535430631E+03  0.65864270000E+03 0.  1.
    8880022    1    1    2    0    0  0.25877113997E+03  0.27806554347E+03  0.60652467916E+03  0.73181062358E+03  0.15294330000E+03 0.  0.
<mgrwt>
<rscale>  0 0.65133977E+03</rscale>
<asrwt>0</asrwt>
<pdfrwt beam="1">  1        2 0.15508368E+00 0.76032438E+03</pdfrwt>
<pdfrwt beam="2">  1       -2 0.75249382E-01 0.76032438E+03</pdfrwt>
<totfact> 0.40043309E+01</totfact>
</mgrwt>
</event>
<event>
 4    5  0.7289609E-008  0.8066564E+03  0.7818608E-02  0.9696584E-01
          2   -1    0    0  501    0  0.00000000000E+00  0.00000000000E+00  0.28645303065E+04  0.28645303065E+04  0.25500000000E-02 0. -1.
         -2   -1    0    0    0  501 -0.00000000000E+00 -0.00000000000E+00 -0.21793541628E+03  0.21793541629E+03  0.25500000000E-02 0.  1.
    8880023    1    1    2    0    0 -0.39788049708E+03 -0.24202373673E+03  0.67795041527E+03  0.10537131255E+04  0.65864270000E+03 0.  1.
    8880022    1    1    2    0    0  0.39788049708E+03  0.24202373673E+03  0.19686444749E+04  0.20287525972E+04  0.15294330000E+03 0.  0.
<mgrwt>
<rscale>  0 0.71220539E+03</rscale>
<asrwt>0</asrwt>
<pdfrwt beam="1">  1        2 0.44069696E+00 0.80665642E+03</pdfrwt>
<pdfrwt beam="2">  1       -2 0.33528526E-01 0.80665642E+03</pdfrwt>
<totfact> 0.18378975E+01</totfact>
</mgrwt>
</event>
<event>
 4    5  0.7289609E-008  0.9036392E+03  0.7818608E-02  0.9520215E-01
          2   -1    0    0  501    0  0.00000000000E+00  0.00000000000E+00  0.10903128722E+04  0.10903128722E+04  0.25500000000E-02 0. -1.
         -2   -1    0    0    0  501 -0.00000000000E+00 -0.00000000000E+00 -0.13073409735E+04  0.13073409735E+04  0.25500000000E-02 0.  1.
    8880023    1    1    2    0    0 -0.50403347750E+03 -0.35875321147E+03 -0.10263953864E+04  0.13674981933E+04  0.65864270000E+03 0.  1.
    8880022    1    1    2    0    0  0.50403347750E+03  0.35875321147E+03  0.80936728506E+03  0.10301556525E+04  0.15294330000E+03 0.  0.
<mgrwt>
<rscale>  0 0.82809750E+03</rscale>
<asrwt>0</asrwt>
<pdfrwt beam="1">  1        2 0.16774044E+00 0.90363921E+03</pdfrwt>
<pdfrwt beam="2">  1       -2 0.20112938E+00 0.90363921E+03</pdfrwt>
<totfact> 0.28990755E+00</totfact>
</mgrwt>
</event>
<event>
 4    5  0.7289609E-008  0.7718975E+03  0.7818608E-02  0.9775226E-01
          2   -1    0    0  501    0  0.00000000000E+00  0.00000000000E+00  0.76943705822E+03  0.76943705823E+03  0.25500000000E-02 0. -1.
         -2   -1    0    0    0  501 -0.00000000000E+00 -0.00000000000E+00 -0.21545796378E+04  0.21545796378E+04  0.25500000000E-02 0.  1.
    8880023    1    1    2    0    0 -0.13395204491E+03  0.37956861510E+03 -0.20168499335E+04  0.21595159977E+04  0.65864270000E+03 0.  1.
    8880022    1    1    2    0    0  0.13395204491E+03 -0.37956861510E+03  0.63170735385E+03  0.76450069838E+03  0.15294330000E+03 0.  0.
<mgrwt>
<rscale>  0 0.66709167E+03</rscale>
<asrwt>0</asrwt>
<pdfrwt beam="1">  1        2 0.11837493E+00 0.77189746E+03</pdfrwt>
<pdfrwt beam="2">  1       -2 0.33147379E+00 0.77189746E+03</pdfrwt>
<totfact> 0.77217218E-01</totfact>
</mgrwt>
</event>
<event>
 4    5  0.7289609E-008  0.1260391E+04  0.7818608E-02  0.9100542E-01
         -2   -1    0    0    0  501 -0.00000000000E+00  0.00000000000E+00  0.66368042433E+03  0.66368042434E+03  0.25500000000E-02 0.  1.
          2   -1    0    0  501    0  0.00000000000E+00 -0.00000000000E+00 -0.22181525024E+04  0.22181525024E+04  0.25500000000E-02 0. -1.
    8880023    1    1    2    0    0  0.10249945193E+04  0.32274211298E+03 -0.46360476728E+03  0.13429504170E+04  0.65864270000E+03 0.  0.
    8880022    1    1    2    0    0 -0.10249945193E+04 -0.32274211298E+03 -0.10908673108E+04  0.15388825098E+04  0.15294330000E+03 0.  0.
<mgrwt>
<rscale>  0 0.12141713E+04</rscale>
<asrwt>0</asrwt>
<pdfrwt beam="1">  1        2 0.34125423E+00 0.12603914E+04</pdfrwt>
<pdfrwt beam="2">  1       -2 0.10210468E+00 0.12603914E+04</pdfrwt>
<totfact> 0.38613765E+00</totfact>
</mgrwt>
</event>
<event>
 4    5  0.7289609E-008  0.8081291E+03  0.7818608E-02  0.9693487E-01
          2   -1    0    0  501    0  0.00000000000E+00  0.00000000000E+00  0.16109067201E+04  0.16109067201E+04  0.25500000000E-02 0. -1.
         -2   -1    0    0    0  501 -0.00000000000E+00 -0.00000000000E+00 -0.27313724747E+03  0.27313724749E+03  0.25500000000E-02 0.  1.
    8880023    1    1    2    0    0 -0.45078638589E+03  0.12670438388E+03  0.64487936667E+03  0.10338964989E+04  0.65864270000E+03 0. -1.
    8880022    1    1    2    0    0  0.45078638589E+03 -0.12670438388E+03  0.69289010597E+03  0.85014746871E+03  0.15294330000E+03 0.  0.
<mgrwt>
<rscale>  0 0.71405880E+03</rscale>
<asrwt>0</asrwt>
<pdfrwt beam="1">  1        2 0.24783180E+00 0.80812906E+03</pdfrwt>
<pdfrwt beam="2">  1       -2 0.42021115E-01 0.80812906E+03</pdfrwt>
<totfact> 0.59994464E+01</totfact>
</mgrwt>
</event>
<event>
 4    5  0.7289609E-008  0.1154946E+04  0.7818608E-02  0.9202213E-01
         -2   -1    0    0    0  501 -0.00000000000E+00  0.00000000000E+00  0.15345463894E+04  0.15345463894E+04  0.25500000000E-02 0.  1.
          2   -1    0    0  501    0  0.00000000000E+00 -0.00000000000E+00 -0.19011241588E+04  0.19011241588E+04  0.25500000000E-02 0. -1.
    8880023    1    1    2    0    0 -0.90682688814E+03 -0.27884731894E+03  0.11567116054E+04  0.16345894826E+04  0.65864270000E+03 0.  1.
    8880022    1    1    2    0    0  0.90682688814E+03  0.27884731894E+03 -0.15232893748E+04  0.18010810656E+04  0.15294330000E+03 0.  0.
<mgrwt>
<rscale>  0 0.11030620E+04</rscale>
<asrwt>0</asrwt>
<pdfrwt beam="1">  1        2 0.29248064E+00 0.11549463E+04</pdfrwt>
<pdfrwt beam="2">  1       -2 0.23608406E+00 0.11549463E+04</pdfrwt>
<totfact> 0.58075631E-01</totfact>
</mgrwt>
</event>
<event>
 4    5  0.7289609E-008  0.1241398E+04  0.7818608E-02  0.9117895E-01
         -2   -1    0    0    0  501 -0.00000000000E+00  0.00000000000E+00  0.17807839595E+04  0.17807839595E+04  0.25500000000E-02 0.  1.
          2   -1    0    0  501    0  0.00000000000E+00 -0.00000000000E+00 -0.12362807157E+04  0.12362807157E+04  0.25500000000E-02 0. -1.
    8880023    1    1    2    0    0  0.95146089488E+02  0.10479529281E+04  0.12335066408E+04  0.17500305589E+04  0.65864270000E+03 0.  0.
    8880022    1    1    2    0    0 -0.95146089488E+02 -0.10479529281E+04 -0.68900339699E+03  0.12670341164E+04  0.15294330000E+03 0.  0.
<mgrwt>
<rscale>  0 0.11942609E+04</rscale>
<asrwt>0</asrwt>
<pdfrwt beam="1">  1        2 0.19019703E+00 0.12413977E+04</pdfrwt>
<pdfrwt beam="2">  1       -2 0.27396676E+00 0.12413977E+04</pdfrwt>
<totfact> 0.80079225E-01</totfact>
</mgrwt>
</event>
<event>
 4    5  0.7289609E-008  0.1189846E+04  0.7818608E-02  0.9167057E-01
          2   -1    0    0  501    0  0.00000000000E+00  0.00000000000E+00  0.23469482555E+04  0.23469482555E+04  0.25500000000E-02 0. -1.
         -2   -1    0    0    0  501 -0.00000000000E+00 -0.00000000000E+00 -0.14041020211E+04  0.14041020211E+04  0.25500000000E-02 0.  1.
    8880023    1    1    2    0    0 -0.56324457469E+03 -0.81527811637E+03 -0.10068295346E+04  0.15586657037E+04  0.65864270000E+03 0.  0.
    8880022    1    1    2    0    0  0.56324457469E+03  0.81527811637E+03  0.19496757690E+04  0.21923845728E+04  0.15294330000E+03 0.  0.
<mgrwt>
<rscale>  0 0.11400024E+04</rscale>
<asrwt>0</asrwt>
<pdfrwt beam="1">  1        2 0.36106896E+00 0.11898458E+04</pdfrwt>
<pdfrwt beam="2">  1       -2 0.21601570E+00 0.11898458E+04</pdfrwt>
<totfact> 0.43582092E-01</totfact>
</mgrwt>
</event>
<event>
 4    5  0.7289609E-008  0.1851467E+04  0.7818608E-02  0.8694588E-01
         -2   -1    0    0    0  501 -0.00000000000E+00  0.00000000000E+00  0.13257842596E+04  0.13257842596E+04  0.25500000000E-02 0.  1.
          2   -1    0    0  501    0  0.00000000000E+00 -0.00000000000E+00 -0.33103794999E+04  0.33103794999E+04  0.25500000000E-02 0. -1.
    8880023    1    1    2    0    0 -0.15188295198E+04 -0.82902258435E+03  0.18061778747E+03  0.18602565810E+04  0.65864270000E+03 0.  0.
    8880022    1    1    2    0    0  0.15188295198E+04  0.82902258435E+03 -0.21652130278E+04  0.27759071786E+04  0.15294330000E+03 0.  0.
<mgrwt>
<rscale>  0 0.18221881E+04</rscale>
<asrwt>0</asrwt>
<pdfrwt beam="1">  1        2 0.50928915E+00 0.18514675E+04</pdfrwt>
<pdfrwt beam="2">  1       -2 0.20396681E+00 0.18514675E+04</pdfrwt>
<totfact> 0.12452305E-01</totfact>
</mgrwt>
</event>
<event>
 4    5  0.7289609E-008  0.7670754E+03  0.7818608E-02  0.9787123E-01
         -2   -1    0    0    0  501 -0.00000000000E+00  0.00000000000E+00  0.25604146373E+04  0.25604146373E+04  0.25500000000E-02 0.  1.
          2   -1    0    0  501    0  0.00000000000E+00 -0.00000000000E+00 -0.21748982547E+03  0.21748982549E+03  0.25500000000E-02 0. -1.
    8880023    1    1    2    0    0 -0.36973233443E+03  0.13376249144E+03  0.22041018380E+04  0.23337672382E+04  0.65864270000E+03 0.  1.
    8880022    1    1    2    0    0  0.36973233443E+03 -0.13376249144E+03  0.13882297380E+03  0.44413722464E+03  0.15294330000E+03 0.  0.
<mgrwt>
<rscale>  0 0.66058206E+03</rscale>
<asrwt>0</asrwt>
<pdfrwt beam="1">  1        2 0.33459974E-01 0.76707536E+03</pdfrwt>
<pdfrwt beam="2">  1       -2 0.39390993E+00 0.76707536E+03</pdfrwt>
<totfact> 0.13528575E+00</totfact>
</mgrwt>
</event>
<event>
 4    5  0.7289609E-008  0.9370875E+03  0.7818608E-02  0.9468941E-01
         -2   -1    0    0    0  501 -0.00000000000E+00  0.00000000000E+00  0.38526928196E+03  0.38526928197E+03  0.25500000000E-02 0.  1.
          2   -1    0    0  501    0  0.00000000000E+00 -0.00000000000E+00 -0.19545341522E+04  0.19545341522E+04  0.25500000000E-02 0. -1.
    8880023    1    1    2    0    0 -0.66651057342E+03 -0.92926295069E+01 -0.47802871217E+03  0.10519716505E+04  0.65864270000E+03 0.  1.
    8880022    1    1    2    0    0  0.66651057342E+03  0.92926295069E+01 -0.10912361581E+04  0.12878317837E+04  0.15294330000E+03 0. -1.
<mgrwt>
<rscale>  0 0.86612920E+03</rscale>
<asrwt>0</asrwt>
<pdfrwt beam="1">  1        2 0.30069756E+00 0.93708746E+03</pdfrwt>
<pdfrwt beam="2">  1       -2 0.59272198E-01 0.93708746E+03</pdfrwt>
<totfact> 0.19004830E+01</totfact>
</mgrwt>
</event>
<event>
 4    5  0.7289609E-008  0.6867422E+03  0.7818608E-02  0.1005741E+00
          2   -1    0    0  501    0  0.00000000000E+00  0.00000000000E+00  0.25781935179E+03  0.25781935180E+03  0.25500000000E-02 0. -1.
         -2   -1    0    0    0  501 -0.00000000000E+00 -0.00000000000E+00 -0.10830443965E+04  0.10830443965E+04  0.25500000000E-02 0.  1.
    8880023    1    1    2    0    0 -0.68690530926E+02  0.18189644551E+03 -0.27903904715E+03  0.74126763185E+03  0.65864270000E+03 0.  1.
    8880022    1    1    2    0    0  0.68690530926E+02 -0.18189644551E+03 -0.54618599754E+03  0.59959611644E+03  0.15294330000E+03 0.  0.
<mgrwt>
<rscale>  0 0.53202988E+03</rscale>
<asrwt>0</asrwt>
<pdfrwt beam="1">  1        2 0.39664516E-01 0.68674225E+03</pdfrwt>
<pdfrwt beam="2">  1       -2 0.16662221E+00 0.68674225E+03</pdfrwt>
<totfact> 0.29807592E+01</totfact>
</mgrwt>
</event>
<event>
 4    5  0.7289609E-008  0.1185613E+04  0.7818608E-02  0.9171236E-01
         -2   -1    0    0    0  501 -0.00000000000E+00  0.00000000000E+00  0.98116200240E+03  0.98116200240E+03  0.25500000000E-02 0.  1.
          2   -1    0    0  501    0  0.00000000000E+00 -0.00000000000E+00 -0.14776244981E+04  0.14776244981E+04  0.25500000000E-02 0. -1.
    8880023    1    1    2    0    0  0.28948673152E+03  0.94237249224E+03  0.25139170478E+03  0.12119721438E+04  0.65864270000E+03 0.  0.
    8880022    1    1    2    0    0 -0.28948673152E+03 -0.94237249224E+03 -0.74785420046E+03  0.12468143567E+04  0.15294330000E+03 0.  0.
<mgrwt>
<rscale>  0 0.11355319E+04</rscale>
<asrwt>0</asrwt>
<pdfrwt beam="1">  1        2 0.22732685E+00 0.11856132E+04</pdfrwt>
<pdfrwt beam="2">  1       -2 0.15094800E+00 0.11856132E+04</pdfrwt>
<totfact> 0.37481901E+00</totfact>
</mgrwt>
</event>
<event>
 4    5  0.7289609E-008  0.1157693E+04  0.7818608E-02  0.9199387E-01
         -2   -1    0    0    0  501 -0.00000000000E+00  0.00000000000E+00  0.60537166710E+03  0.60537166711E+03  0.25500000000E-02 0.  1.
          2   -1    0    0  501    0  0.00000000000E+00 -0.00000000000E+00 -0.21233324634E+04  0.21233324634E+04  0.25500000000E-02 0. -1.
    8880023    1    1    2    0    0 -0.88525292738E+03  0.35038440127E+03 -0.12987381582E+04  0.17398198136E+04  0.65864270000E+03 0.  0.
    8880022    1    1    2    0    0  0.88525292738E+03 -0.35038440127E+03 -0.21922263811E+03  0.98888431688E+03  0.15294330000E+03 0.  0.
<mgrwt>
<rscale>  0 0.11059757E+04</rscale>
<asrwt>0</asrwt>
<pdfrwt beam="1">  1        2 0.32666653E+00 0.11576926E+04</pdfrwt>
<pdfrwt beam="2">  1       -2 0.93134103E-01 0.11576926E+04</pdfrwt>
<totfact> 0.54825903E+00</totfact>
</mgrwt>
</event>
<event>
 4    5  0.7289609E-008  0.8025307E+03  0.7818608E-02  0.9705351E-01
          2   -1    0    0  501    0  0.00000000000E+00  0.00000000000E+00  0.16900334101E+04  0.16900334101E+04  0.25500000000E-02 0. -1.
         -2   -1    0    0    0  501 -0.00000000000E+00 -0.00000000000E+00 -0.76389915499E+03  0.76389915499E+03  0.25500000000E-02 0.  1.
    8880023    1    1    2    0    0  0.24679363221E+03 -0.38644304315E+03 -0.50173832023E+03  0.94646546200E+03  0.65864270000E+03 0.  1.
    8880022    1    1    2    0    0 -0.24679363221E+03  0.38644304315E+03  0.14278725753E+04  0.15074671031E+04  0.15294330000E+03 0.  0.
<mgrwt>
<rscale>  0 0.70699109E+03</rscale>
<asrwt>0</asrwt>
<pdfrwt beam="1">  1        2 0.26000513E+00 0.80253070E+03</pdfrwt>
<pdfrwt beam="2">  1       -2 0.11752295E+00 0.80253070E+03</pdfrwt>
<totfact> 0.56705195E+00</totfact>
</mgrwt>
</event>
<event>
 4    5  0.7289609E-008  0.7476820E+03  0.7818608E-02  0.9838110E-01
          2   -1    0    0  501    0  0.00000000000E+00  0.00000000000E+00  0.22763769351E+04  0.22763769351E+04  0.25500000000E-02 0. -1.
         -2   -1    0    0    0  501 -0.00000000000E+00 -0.00000000000E+00 -0.46477737041E+03  0.46477737042E+03  0.25500000000E-02 0.  1.
    8880023    1    1    2    0    0  0.41181760579E+02 -0.35145723541E+03 -0.13238821149E+03  0.75931216936E+03  0.65864270000E+03 0.  1.
    8880022    1    1    2    0    0 -0.41181760579E+02  0.35145723541E+03  0.19439877762E+04  0.19818421361E+04  0.15294330000E+03 0.  0.
<mgrwt>
<rscale>  0 0.63356854E+03</rscale>
<asrwt>0</asrwt>
<pdfrwt beam="1">  1        2 0.35021184E+00 0.74768197E+03</pdfrwt>
<pdfrwt beam="2">  1       -2 0.71504210E-01 0.74768197E+03</pdfrwt>
<totfact> 0.86532602E+00</totfact>
</mgrwt>
</event>
<event>
 4    5  0.7289609E-008  0.1407988E+04  0.7818608E-02  0.8977501E-01
          2   -1    0    0  501    0  0.00000000000E+00  0.00000000000E+00  0.24192214555E+04  0.24192214555E+04  0.25500000000E-02 0. -1.
         -2   -1    0    0    0  501 -0.00000000000E+00 -0.00000000000E+00 -0.10460548933E+04  0.10460548933E+04  0.25500000000E-02 0.  1.
    8880023    1    1    2    0    0  0.91521095716E+03  0.84321280287E+03  0.16624172043E+04  0.21785454079E+04  0.65864270000E+03 0.  0.
    8880022    1    1    2    0    0 -0.91521095716E+03 -0.84321280287E+03 -0.28925064208E+03  0.12867309408E+04  0.15294330000E+03 0.  0.
<mgrwt>
<rscale>  0 0.13677479E+04</rscale>
<asrwt>0</asrwt>
<pdfrwt beam="1">  1        2 0.37218791E+00 0.14079876E+04</pdfrwt>
<pdfrwt beam="2">  1       -2 0.16093152E+00 0.14079876E+04</pdfrwt>
<totfact> 0.91519975E-01</totfact>
</mgrwt>
</event>
<event>
 4    5  0.7289609E-008  0.1675803E+04  0.7818608E-02  0.8794540E-01
          2   -1    0    0  501    0  0.00000000000E+00  0.00000000000E+00  0.17835476191E+04  0.17835476191E+04  0.25500000000E-02 0. -1.
         -2   -1    0    0    0  501 -0.00000000000E+00 -0.00000000000E+00 -0.15118601035E+04  0.15118601035E+04  0.25500000000E-02 0.  1.
    8880023    1    1    2    0    0 -0.36983190631E+03  0.14959038560E+04 -0.17194010727E+03  0.16846001282E+04  0.65864270000E+03 0. -1.
    8880022    1    1    2    0    0  0.36983190631E+03 -0.14959038560E+04  0.44362762291E+03  0.16108075944E+04  0.15294330000E+03 0.  1.
<mgrwt>
<rscale>  0 0.16430316E+04</rscale>
<asrwt>0</asrwt>
<pdfrwt beam="1">  1        2 0.27439194E+00 0.16758026E+04</pdfrwt>
<pdfrwt beam="2">  1       -2 0.23259386E+00 0.16758026E+04</pdfrwt>
<totfact> 0.67009757E-01</totfact>
</mgrwt>
</event>
<event>
 4    5  0.7289609E-008  0.9622952E+03  0.7818608E-02  0.9432640E-01
          2   -1    0    0  501    0  0.00000000000E+00  0.00000000000E+00  0.80355202222E+03  0.80355202223E+03  0.25500000000E-02 0. -1.
         -2   -1    0    0    0  501 -0.00000000000E+00 -0.00000000000E+00 -0.11336266421E+04  0.11336266421E+04  0.25500000000E-02 0.  1.
    8880023    1    1    2    0    0  0.45966859900E+03  0.53000632750E+03 -0.63938175965E+03  0.11553446105E+04  0.65864270000E+03 0.  0.
    8880022    1    1    2    0    0 -0.45966859900E+03 -0.53000632750E+03  0.30930713975E+03  0.78183405389E+03  0.15294330000E+03 0.  0.
<mgrwt>
<rscale>  0 0.89437508E+03</rscale>
<asrwt>0</asrwt>
<pdfrwt beam="1">  1        2 0.12362339E+00 0.96229524E+03</pdfrwt>
<pdfrwt beam="2">  1       -2 0.17440410E+00 0.96229524E+03</pdfrwt>
<totfact> 0.67619680E+00</totfact>
</mgrwt>
</event>
<event>
 4    5  0.7289609E-008  0.1036339E+04  0.7818608E-02  0.9335487E-01
          2   -1    0    0  501    0  0.00000000000E+00  0.00000000000E+00  0.17516691533E+04  0.17516691533E+04  0.25500000000E-02 0. -1.
         -2   -1    0    0    0  501 -0.00000000000E+00 -0.00000000000E+00 -0.13091157323E+04  0.13091157323E+04  0.25500000000E-02 0.  1.
    8880023    1    1    2    0    0 -0.62607290659E+02 -0.79766421076E+03 -0.97689972344E+03  0.14241949101E+04  0.65864270000E+03 0.  0.
    8880022    1    1    2    0    0  0.62607290659E+02  0.79766421076E+03  0.14194531444E+04  0.16365899756E+04  0.15294330000E+03 0.  0.
<mgrwt>
<rscale>  0 0.97580477E+03</rscale>
<asrwt>0</asrwt>
<pdfrwt beam="1">  1        2 0.26948756E+00 0.10363388E+04</pdfrwt>
<pdfrwt beam="2">  1       -2 0.20140242E+00 0.10363388E+04</pdfrwt>
<totfact> 0.11840989E+00</totfact>
</mgrwt>
</event>
<event>
 4    5  0.7289609E-008  0.1014128E+04  0.7818608E-02  0.9363303E-01
         -2   -1    0    0    0  501 -0.00000000000E+00  0.00000000000E+00  0.83338549821E+03  0.83338549821E+03  0.25500000000E-02 0.  1.
          2   -1    0    0  501    0  0.00000000000E+00 -0.00000000000E+00 -0.11534118657E+04  0.11534118657E+04  0.25500000000E-02 0. -1.
    8880023    1    1    2    0    0 -0.51785844925E+03  0.57137431992E+03  0.21394294673E+03  0.10364496021E+04  0.65864270000E+03 0.  0.
    8880022    1    1    2    0    0  0.51785844925E+03 -0.57137431992E+03 -0.53396931424E+03  0.95034776187E+03  0.15294330000E+03 0.  0.
<mgrwt>
<rscale>  0 0.95158270E+03</rscale>
<asrwt>0</asrwt>
<pdfrwt beam="1">  1        2 0.17744798E+00 0.10141283E+04</pdfrwt>
<pdfrwt beam="2">  1       -2 0.12821315E+00 0.10141283E+04</pdfrwt>
<totfact> 0.90048125E+00</totfact>
</mgrwt>
</event>
<event>
 4    5  0.7289609E-008  0.8251964E+03  0.7818608E-02  0.9658752E-01
         -2   -1    0    0    0  501 -0.00000000000E+00  0.00000000000E+00  0.93026747790E+03  0.93026747791E+03  0.25500000000E-02 0.  1.
          2   -1    0    0  501    0  0.00000000000E+00 -0.00000000000E+00 -0.49869563432E+03  0.49869563433E+03  0.25500000000E-02 0. -1.
    8880023    1    1    2    0    0 -0.16157373169E+03 -0.47014122210E+03  0.15412699870E+03  0.83946660296E+03  0.65864270000E+03 0.  0.
    8880022    1    1    2    0    0  0.16157373169E+03  0.47014122210E+03  0.27744484488E+03  0.58949650928E+03  0.15294330000E+03 0. -1.
<mgrwt>
<rscale>  0 0.73526689E+03</rscale>
<asrwt>0</asrwt>
<pdfrwt beam="1">  1        2 0.76722406E-01 0.82519637E+03</pdfrwt>
<pdfrwt beam="2">  1       -2 0.14311807E+00 0.82519637E+03</pdfrwt>
<totfact> 0.21092310E+01</totfact>
</mgrwt>
</event>
<event>
 4    5  0.8635409E-008  0.1627700E+04  0.7818608E-02  0.8824358E-01
         -2   -1    0    0    0  501 -0.00000000000E+00  0.00000000000E+00  0.18972825479E+04  0.18972825479E+04  0.25500000000E-02 0.  1.
          2   -1    0    0  501    0  0.00000000000E+00 -0.00000000000E+00 -0.25898659326E+04  0.25898659326E+04  0.25500000000E-02 0. -1.
    8880023    1    1    2    0    0 -0.37335737608E+03  0.14409028195E+04  0.12376945807E+04  0.20448214462E+04  0.65864270000E+03 0.  0.
    8880022    1    1    2    0    0  0.37335737608E+03 -0.14409028195E+04 -0.19302779654E+04  0.24423270343E+04  0.15294330000E+03 0.  0.
<mgrwt>
<rscale>  0 0.15938125E+04</rscale>
<asrwt>0</asrwt>
<pdfrwt beam="1">  1        2 0.39844091E+00 0.16276999E+04</pdfrwt>
<pdfrwt beam="2">  1       -2 0.29188962E+00 0.16276999E+04</pdfrwt>
<totfact> 0.10149724E-01</totfact>
</mgrwt>
</event>
<event>
 4    5  0.7289609E-008  0.1867267E+04  0.7818608E-02  0.8686212E-01
         -2   -1    0    0    0  501 -0.00000000000E+00  0.00000000000E+00  0.14513411100E+04  0.14513411100E+04  0.25500000000E-02 0.  1.
          2   -1    0    0  501    0  0.00000000000E+00 -0.00000000000E+00 -0.28492302777E+04  0.28492302777E+04  0.25500000000E-02 0. -1.
    8880023    1    1    2    0    0  0.36892583419E+03  0.17078549288E+04  0.26219824778E+03  0.18855855474E+04  0.65864270000E+03 0.  0.
    8880022    1    1    2    0    0 -0.36892583419E+03 -0.17078549288E+04 -0.16600874155E+04  0.24149858403E+04  0.15294330000E+03 0.  0.
<mgrwt>
<rscale>  0 0.18382635E+04</rscale>
<asrwt>0</asrwt>
<pdfrwt beam="1">  1        2 0.43834312E+00 0.18672667E+04</pdfrwt>
<pdfrwt beam="2">  1       -2 0.22328325E+00 0.18672667E+04</pdfrwt>
<totfact> 0.18354559E-01</totfact>
</mgrwt>
</event>
<event>
 4    5  0.7289609E-008  0.7139997E+03  0.7818608E-02  0.9943438E-01
          2   -1    0    0  501    0  0.00000000000E+00  0.00000000000E+00  0.17589288763E+04  0.17589288763E+04  0.25500000000E-02 0. -1.
         -2   -1    0    0    0  501 -0.00000000000E+00 -0.00000000000E+00 -0.25780563146E+03  0.25780563147E+03  0.25500000000E-02 0.  1.
    8880023    1    1    2    0    0 -0.26655563705E+03 -0.70238320494E+02  0.29919513310E+03  0.77415325566E+03  0.65864270000E+03 0.  1.
    8880022    1    1    2    0    0  0.26655563705E+03  0.70238320494E+02  0.12019281117E+04  0.12425812521E+04  0.15294330000E+03 0.  0.
<mgrwt>
<rscale>  0 0.58201508E+03</rscale>
<asrwt>0</asrwt>
<pdfrwt beam="1">  1        2 0.27060444E+00 0.71399967E+03</pdfrwt>
<pdfrwt beam="2">  1       -2 0.39662405E-01 0.71399967E+03</pdfrwt>
<totfact> 0.56286905E+01</totfact>
</mgrwt>
</event>
<event>
 4    5  0.7289609E-008  0.1230379E+04  0.7818608E-02  0.9128143E-01
          2   -1    0    0  501    0  0.00000000000E+00  0.00000000000E+00  0.14461412101E+04  0.14461412101E+04  0.25500000000E-02 0. -1.
         -2   -1    0    0    0  501 -0.00000000000E+00 -0.00000000000E+00 -0.17376924045E+04  0.17376924045E+04  0.25500000000E-02 0.  1.
    8880023    1    1    2    0    0 -0.66467134590E+03 -0.79889539054E+03 -0.12556909439E+04  0.17580079055E+04  0.65864270000E+03 0.  1.
    8880022    1    1    2    0    0  0.66467134590E+03  0.79889539054E+03  0.96413974947E+03  0.14258257091E+04  0.15294330000E+03 0.  0.
<mgrwt>
<rscale>  0 0.11826914E+04</rscale>
<asrwt>0</asrwt>
<pdfrwt beam="1">  1        2 0.22248326E+00 0.12303788E+04</pdfrwt>
<pdfrwt beam="2">  1       -2 0.26733729E+00 0.12303788E+04</pdfrwt>
<totfact> 0.66419255E-01</totfact>
</mgrwt>
</event>
<event>
 4    5  0.7289609E-008  0.9098401E+03  0.7818608E-02  0.9510416E-01
         -2   -1    0    0    0  501 -0.00000000000E+00  0.00000000000E+00  0.15993779149E+04  0.15993779149E+04  0.25500000000E-02 0.  1.
          2   -1    0    0  501    0  0.00000000000E+00 -0.00000000000E+00 -0.63180290860E+03  0.63180290861E+03  0.25500000000E-02 0. -1.
    8880023    1    1    2    0    0  0.59044549859E+03  0.21300937721E+03  0.12333157968E+04  0.15326046270E+04  0.65864270000E+03 0.  0.
    8880022    1    1    2    0    0 -0.59044549859E+03 -0.21300937721E+03 -0.26574079056E+03  0.69857619653E+03  0.15294330000E+03 0.  0.
<mgrwt>
<rscale>  0 0.83520223E+03</rscale>
<asrwt>0</asrwt>
<pdfrwt beam="1">  1        2 0.97200448E-01 0.90984014E+03</pdfrwt>
<pdfrwt beam="2">  1       -2 0.24605814E+00 0.90984014E+03</pdfrwt>
<totfact> 0.31908205E+00</totfact>
</mgrwt>
</event>
<event>
 4    5  0.7289609E-008  0.7655436E+03  0.7818608E-02  0.9790961E-01
         -2   -1    0    0    0  501 -0.00000000000E+00  0.00000000000E+00  0.31507445405E+03  0.31507445406E+03  0.25500000000E-02 0.  1.
          2   -1    0    0  501    0  0.00000000000E+00 -0.00000000000E+00 -0.34070366832E+04  0.34070366832E+04  0.25500000000E-02 0. -1.
    8880023    1    1    2    0    0  0.38753188362E+03  0.45452068184E+02 -0.18830142013E+03  0.78836189812E+03  0.65864270000E+03 0.  1.
    8880022    1    1    2    0    0 -0.38753188362E+03 -0.45452068184E+02 -0.29036608090E+04  0.29337492391E+04  0.15294330000E+03 0.  0.
<mgrwt>
<rscale>  0 0.65849871E+03</rscale>
<asrwt>0</asrwt>
<pdfrwt beam="1">  1        2 0.52415946E+00 0.76554364E+03</pdfrwt>
<pdfrwt beam="2">  1       -2 0.48472995E-01 0.76554364E+03</pdfrwt>
<totfact> 0.40969523E+00</totfact>
</mgrwt>
</event>
<event>
 4    5  0.7289609E-008  0.8158805E+03  0.7818608E-02  0.9677456E-01
         -2   -1    0    0    0  501 -0.00000000000E+00  0.00000000000E+00  0.23597587896E+03  0.23597587898E+03  0.25500000000E-02 0.  1.
          2   -1    0    0  501    0  0.00000000000E+00 -0.00000000000E+00 -0.28731960422E+04  0.28731960422E+04  0.25500000000E-02 0. -1.
    8880023    1    1    2    0    0  0.25906891540E+03  0.40587450681E+03 -0.60667046103E+03  0.10167153352E+04  0.65864270000E+03 0.  1.
    8880022    1    1    2    0    0 -0.25906891540E+03 -0.40587450681E+03 -0.20305497022E+04  0.20924565860E+04  0.15294330000E+03 0.  0.
<mgrwt>
<rscale>  0 0.72375077E+03</rscale>
<asrwt>0</asrwt>
<pdfrwt beam="1">  1        2 0.44203014E+00 0.81588052E+03</pdfrwt>
<pdfrwt beam="2">  1       -2 0.36303983E-01 0.81588052E+03</pdfrwt>
<totfact> 0.15584482E+01</totfact>
</mgrwt>
</event>
<event>
 4    5  0.7289609E-008  0.9665376E+03  0.7818608E-02  0.9426709E-01
         -2   -1    0    0    0  501 -0.00000000000E+00  0.00000000000E+00  0.75882965732E+03  0.75882965733E+03  0.25500000000E-02 0.  1.
          2   -1    0    0  501    0  0.00000000000E+00 -0.00000000000E+00 -0.10683558730E+04  0.10683558730E+04  0.25500000000E-02 0. -1.
    8880023    1    1    2    0    0  0.70583465407E+03  0.46713889505E+02  0.13789672072E+03  0.97632497571E+03  0.65864270000E+03 0.  1.
    8880022    1    1    2    0    0 -0.70583465407E+03 -0.46713889505E+02 -0.44742293637E+03  0.85086055459E+03  0.15294330000E+03 0.  0.
<mgrwt>
<rscale>  0 0.89909858E+03</rscale>
<asrwt>0</asrwt>
<pdfrwt beam="1">  1        2 0.16436244E+00 0.96653761E+03</pdfrwt>
<pdfrwt beam="2">  1       -2 0.11674302E+00 0.96653761E+03</pdfrwt>
<totfact> 0.12899633E+01</totfact>
</mgrwt>
</event>
<event>
 4    5  0.7289609E-008  0.7599658E+03  0.7818608E-02  0.9805196E-01
         -2   -1    0    0    0  501 -0.00000000000E+00  0.00000000000E+00  0.26584323642E+04  0.26584323642E+04  0.25500000000E-02 0.  1.
          2   -1    0    0  501    0  0.00000000000E+00 -0.00000000000E+00 -0.17230195683E+03  0.17230195685E+03  0.25500000000E-02 0. -1.
    8880023    1    1    2    0    0  0.22268718892E+03 -0.30683589204E+03  0.83203357875E+03  0.11268664212E+04  0.65864270000E+03 0. -1.
    8880022    1    1    2    0    0 -0.22268718892E+03  0.30683589204E+03  0.16540968287E+04  0.17038678999E+04  0.15294330000E+03 0.  0.
<mgrwt>
<rscale>  0 0.65084442E+03</rscale>
<asrwt>0</asrwt>
<pdfrwt beam="1">  1        2 0.26507997E-01 0.75996582E+03</pdfrwt>
<pdfrwt beam="2">  1       -2 0.40898954E+00 0.75996582E+03</pdfrwt>
<totfact> 0.14077369E+00</totfact>
</mgrwt>
</event>
<event>
 4    5  0.7289609E-008  0.8828451E+03  0.7818608E-02  0.9554152E-01
         -2   -1    0    0    0  501 -0.00000000000E+00  0.00000000000E+00  0.10234391477E+04  0.10234391477E+04  0.25500000000E-02 0.  1.
          2   -1    0    0  501    0  0.00000000000E+00 -0.00000000000E+00 -0.65759781707E+03  0.65759781707E+03  0.25500000000E-02 0. -1.
    8880023    1    1    2    0    0 -0.25428708390E+03  0.53004086437E+03  0.55741711003E+03  0.10440925628E+04  0.65864270000E+03 0.  0.
    8880022    1    1    2    0    0  0.25428708390E+03 -0.53004086437E+03 -0.19157577938E+03  0.63694440197E+03  0.15294330000E+03 0.  0.
<mgrwt>
<rscale>  0 0.80406511E+03</rscale>
<asrwt>0</asrwt>
<pdfrwt beam="1">  1        2 0.10116890E+00 0.88284509E+03</pdfrwt>
<pdfrwt beam="2">  1       -2 0.15745218E+00 0.88284509E+03</pdfrwt>
<totfact> 0.11690982E+01</totfact>
</mgrwt>
</event>
<event>
 4    5  0.7289609E-008  0.9249896E+03  0.7818608E-02  0.9487050E-01
          2   -1    0    0  501    0  0.00000000000E+00  0.00000000000E+00  0.35961510001E+04  0.35961510001E+04  0.25500000000E-02 0. -1.
         -2   -1    0    0    0  501 -0.00000000000E+00 -0.00000000000E+00 -0.33690414329E+03  0.33690414330E+03  0.25500000000E-02 0.  1.
    8880023    1    1    2    0    0  0.59059862782E+03 -0.27016444295E+03  0.41895426160E+03  0.10154449493E+04  0.65864270000E+03 0.  1.
    8880022    1    1    2    0    0 -0.59059862782E+03  0.27016444295E+03  0.28402925952E+04  0.29176101941E+04  0.15294330000E+03 0.  0.
<mgrwt>
<rscale>  0 0.85245306E+03</rscale>
<asrwt>0</asrwt>
<pdfrwt beam="1">  1        2 0.55325405E+00 0.92498961E+03</pdfrwt>
<pdfrwt beam="2">  1       -2 0.51831402E-01 0.92498961E+03</pdfrwt>
<totfact> 0.25731568E+00</totfact>
</mgrwt>
</event>
<event>
 4    5  0.7289609E-008  0.7240763E+03  0.7818608E-02  0.9909027E-01
          2   -1    0    0  501    0  0.00000000000E+00  0.00000000000E+00  0.22454341891E+04  0.22454341891E+04  0.25500000000E-02 0. -1.
         -2   -1    0    0    0  501 -0.00000000000E+00 -0.00000000000E+00 -0.15617068151E+03  0.15617068153E+03  0.25500000000E-02 0.  1.
    8880023    1    1    2    0    0 -0.15513517234E+03 -0.25770017509E+03  0.84694045114E+03  0.11142686552E+04  0.65864270000E+03 0.  0.
    8880022    1    1    2    0    0  0.15513517234E+03  0.25770017509E+03  0.12423230565E+04  0.12873362154E+04  0.15294330000E+03 0.  0.
<mgrwt>
<rscale>  0 0.59825790E+03</rscale>
<asrwt>0</asrwt>
<pdfrwt beam="1">  1        2 0.34545140E+00 0.72407631E+03</pdfrwt>
<pdfrwt beam="2">  1       -2 0.24026260E-01 0.72407631E+03</pdfrwt>
<totfact> 0.77654401E+01</totfact>
</mgrwt>
</event>
<event>
 4    5  0.7289609E-008  0.8614608E+03  0.7818608E-02  0.9590970E-01
         -2   -1    0    0    0  501 -0.00000000000E+00  0.00000000000E+00  0.56759582512E+04  0.56759582512E+04  0.25500000000E-02 0.  1.
          2   -1    0    0  501    0  0.00000000000E+00 -0.00000000000E+00 -0.27163535283E+03  0.27163535284E+03  0.25500000000E-02 0. -1.
    8880023    1    1    2    0    0  0.96757180541E+02 -0.54675634046E+03  0.52909353338E+04  0.53606073686E+04  0.65864270000E+03 0.  1.
    8880022    1    1    2    0    0 -0.96757180541E+02  0.54675634046E+03  0.11338756464E+03  0.58698623548E+03  0.15294330000E+03 0.  0.
<mgrwt>
<rscale>  0 0.77896720E+03</rscale>
<asrwt>0</asrwt>
<pdfrwt beam="1">  1        2 0.41790055E-01 0.86146077E+03</pdfrwt>
<pdfrwt beam="2">  1       -2 0.87322433E+00 0.86146077E+03</pdfrwt>
<totfact> 0.28112953E-03</totfact>
</mgrwt>
</event>
<event>
 4    5  0.7289609E-008  0.1075260E+04  0.7818608E-02  0.9289114E-01
         -2   -1    0    0    0  501 -0.00000000000E+00  0.00000000000E+00  0.18260237955E+04  0.18260237955E+04  0.25500000000E-02 0.  1.
          2   -1    0    0  501    0  0.00000000000E+00 -0.00000000000E+00 -0.76390126933E+03  0.76390126933E+03  0.25500000000E-02 0. -1.
    8880023    1    1    2    0    0 -0.84730948204E+03  0.66641838617E+02  0.13068430557E+04  0.16923425987E+04  0.65864270000E+03 0.  0.
    8880022    1    1    2    0    0  0.84730948204E+03 -0.66641838617E+02 -0.24472052946E+03  0.89758246616E+03  0.15294330000E+03 0.  0.
<mgrwt>
<rscale>  0 0.10179127E+04</rscale>
<asrwt>0</asrwt>
<pdfrwt beam="1">  1        2 0.11752327E+00 0.10752603E+04</pdfrwt>
<pdfrwt beam="2">  1       -2 0.28092674E+00 0.10752603E+04</pdfrwt>
<totfact> 0.15110465E+00</totfact>
</mgrwt>
</event>
<event>
 4    5  0.7289609E-008  0.9204981E+03  0.7818608E-02  0.9493896E-01
         -2   -1    0    0    0  501 -0.00000000000E+00  0.00000000000E+00  0.28389071835E+03  0.28389071836E+03  0.25500000000E-02 0.  1.
          2   -1    0    0  501    0  0.00000000000E+00 -0.00000000000E+00 -0.27409398794E+04  0.27409398794E+04  0.25500000000E-02 0. -1.
    8880023    1    1    2    0    0 -0.49202448004E+03 -0.41402720154E+03 -0.72748160662E+03  0.11732631021E+04  0.65864270000E+03 0.  0.
    8880022    1    1    2    0    0  0.49202448004E+03  0.41402720154E+03 -0.17295675544E+04  0.18515674956E+04  0.15294330000E+03 0.  0.
<mgrwt>
<rscale>  0 0.84735369E+03</rscale>
<asrwt>0</asrwt>
<pdfrwt beam="1">  1        2 0.42168304E+00 0.92049814E+03</pdfrwt>
<pdfrwt beam="2">  1       -2 0.43675497E-01 0.92049814E+03</pdfrwt>
<totfact> 0.12821873E+01</totfact>
</mgrwt>
</event>
<event>
 4    5  0.7289609E-008  0.8324063E+03  0.7818608E-02  0.9644669E-01
          2   -1    0    0  501    0  0.00000000000E+00  0.00000000000E+00  0.37066499705E+04  0.37066499705E+04  0.25500000000E-02 0. -1.
         -2   -1    0    0    0  501 -0.00000000000E+00 -0.00000000000E+00 -0.66137830323E+03  0.66137830324E+03  0.25500000000E-02 0.  1.
    8880023    1    1    2    0    0 -0.50774908756E+03  0.35789487258E+02 -0.37051245470E+03  0.91114198052E+03  0.65864270000E+03 0.  0.
    8880022    1    1    2    0    0  0.50774908756E+03 -0.35789487258E+02  0.34157841219E+04  0.34568862932E+04  0.15294330000E+03 0.  0.
<mgrwt>
<rscale>  0 0.74408971E+03</rscale>
<asrwt>0</asrwt>
<pdfrwt beam="1">  1        2 0.57025384E+00 0.83240629E+03</pdfrwt>
<pdfrwt beam="2">  1       -2 0.10175051E+00 0.83240629E+03</pdfrwt>
<totfact> 0.49263018E-01</totfact>
</mgrwt>
</event>
<event>
 4    5  0.7289609E-008  0.7396326E+03  0.7818608E-02  0.9861018E-01
          2   -1    0    0  501    0  0.00000000000E+00  0.00000000000E+00  0.86912727875E+03  0.86912727875E+03  0.25500000000E-02 0. -1.
         -2   -1    0    0    0  501 -0.00000000000E+00 -0.00000000000E+00 -0.99054651592E+03  0.99054651592E+03  0.25500000000E-02 0.  1.
    8880023    1    1    2    0    0  0.31120986682E+03 -0.12804164621E+03 -0.79840173090E+03  0.10883481863E+04  0.65864270000E+03 0.  1.
    8880022    1    1    2    0    0 -0.31120986682E+03  0.12804164621E+03  0.67698249373E+03  0.77132560842E+03  0.15294330000E+03 0.  0.
<mgrwt>
<rscale>  0 0.62188266E+03</rscale>
<asrwt>0</asrwt>
<pdfrwt beam="1">  1        2 0.13371189E+00 0.73963265E+03</pdfrwt>
<pdfrwt beam="2">  1       -2 0.15239177E+00 0.73963265E+03</pdfrwt>
<totfact> 0.90048875E+00</totfact>
</mgrwt>
</event>
<event>
 4    5  0.7289609E-008  0.1068061E+04  0.7818608E-02  0.9297478E-01
         -2   -1    0    0    0  501 -0.00000000000E+00  0.00000000000E+00  0.81296519321E+03  0.81296519321E+03  0.25500000000E-02 0.  1.
          2   -1    0    0  501    0  0.00000000000E+00 -0.00000000000E+00 -0.24871942632E+04  0.24871942632E+04  0.25500000000E-02 0. -1.
    8880023    1    1    2    0    0 -0.45284827312E+03  0.70842980295E+03  0.33284203812E+03  0.11187217584E+04  0.65864270000E+03 0.  0.
    8880022    1    1    2    0    0  0.45284827312E+03 -0.70842980295E+03 -0.20070711081E+04  0.21814376980E+04  0.15294330000E+03 0.  0.
<mgrwt>
<rscale>  0 0.10101536E+04</rscale>
<asrwt>0</asrwt>
<pdfrwt beam="1">  1        2 0.38264527E+00 0.10680611E+04</pdfrwt>
<pdfrwt beam="2">  1       -2 0.12507157E+00 0.10680611E+04</pdfrwt>
<totfact> 0.16900960E+00</totfact>
</mgrwt>
</event>
<event>
 4    5  0.7289609E-008  0.1252037E+04  0.7818608E-02  0.9108127E-01
         -2   -1    0    0    0  501 -0.00000000000E+00  0.00000000000E+00  0.84648699367E+03  0.84648699368E+03  0.25500000000E-02 0.  1.
          2   -1    0    0  501    0  0.00000000000E+00 -0.00000000000E+00 -0.25212326683E+04  0.25212326683E+04  0.25500000000E-02 0. -1.
    8880023    1    1    2    0    0  0.37890328781E+02  0.10641195247E+04  0.13821121943E+03  0.12596422458E+04  0.65864270000E+03 0.  1.
    8880022    1    1    2    0    0 -0.37890328781E+02 -0.10641195247E+04 -0.18129568940E+04  0.21080774162E+04  0.15294330000E+03 0.  0.
<mgrwt>
<rscale>  0 0.12054185E+04</rscale>
<asrwt>0</asrwt>
<pdfrwt beam="1">  1        2 0.38788195E+00 0.12520368E+04</pdfrwt>
<pdfrwt beam="2">  1       -2 0.13022877E+00 0.12520368E+04</pdfrwt>
<totfact> 0.14244030E+00</totfact>
</mgrwt>
</event>
<event>
 4    5  0.7289609E-008  0.1096626E+04  0.7818608E-02  0.9264822E-01
         -2   -1    0    0    0  501 -0.00000000000E+00  0.00000000000E+00  0.11704111359E+04  0.11704111359E+04  0.25500000000E-02 0.  1.
          2   -1    0    0  501    0  0.00000000000E+00 -0.00000000000E+00 -0.23910538742E+04  0.23910538742E+04  0.25500000000E-02 0. -1.
    8880023    1    1    2    0    0  0.43304351111E+01  0.87678917184E+03 -0.20627811432E+04  0.23361622922E+04  0.65864270000E+03 0. -1.
    8880022    1    1    2    0    0 -0.43304351111E+01 -0.87678917184E+03  0.84213840484E+03  0.12253027179E+04  0.15294330000E+03 0.  0.
<mgrwt>
<rscale>  0 0.10408691E+04</rscale>
<asrwt>0</asrwt>
<pdfrwt beam="1">  1        2 0.36785444E+00 0.10966258E+04</pdfrwt>
<pdfrwt beam="2">  1       -2 0.18006325E+00 0.10966258E+04</pdfrwt>
<totfact> 0.72072549E-01</totfact>
</mgrwt>
</event>
<event>
 4    5  0.7289609E-008  0.1929131E+04  0.7818608E-02  0.8654280E-01
         -2   -1    0    0    0  501 -0.00000000000E+00  0.00000000000E+00  0.11363124430E+04  0.11363124430E+04  0.25500000000E-02 0.  1.
          2   -1    0    0  501    0  0.00000000000E+00 -0.00000000000E+00 -0.35463382303E+04  0.35463382303E+04  0.25500000000E-02 0. -1.
    8880023    1    1    2    0    0 -0.87839103992E+03  0.15862423534E+04 -0.20735284247E+04  0.28321486467E+04  0.65864270000E+03 0.  0.
    8880022    1    1    2    0    0  0.87839103992E+03 -0.15862423534E+04 -0.33649736267E+03  0.18505020267E+04  0.15294330000E+03 0.  0.
<mgrwt>
<rscale>  0 0.19011582E+04</rscale>
<asrwt>0</asrwt>
<pdfrwt beam="1">  1        2 0.54559049E+00 0.19291308E+04</pdfrwt>
<pdfrwt beam="2">  1       -2 0.17481730E+00 0.19291308E+04</pdfrwt>
<totfact> 0.13442382E-01</totfact>
</mgrwt>
</event>
<event>
 4    5  0.7289609E-008  0.9271487E+03  0.7818608E-02  0.9483784E-01
          2   -1    0    0  501    0  0.00000000000E+00  0.00000000000E+00  0.70919122227E+03  0.70919122227E+03  0.25500000000E-02 0. -1.
         -2   -1    0    0    0  501 -0.00000000000E+00 -0.00000000000E+00 -0.13961137667E+04  0.13961137667E+04  0.25500000000E-02 0.  1.
    8880023    1    1    2    0    0  0.50641337919E+03  0.41150950773E+03 -0.10016407210E+04  0.13648768903E+04  0.65864270000E+03 0.  1.
    8880022    1    1    2    0    0 -0.50641337919E+03 -0.41150950773E+03  0.31471817655E+03  0.74042809863E+03  0.15294330000E+03 0.  0.
<mgrwt>
<rscale>  0 0.85490010E+03</rscale>
<asrwt>0</asrwt>
<pdfrwt beam="1">  1        2 0.10910634E+00 0.92714874E+03</pdfrwt>
<pdfrwt beam="2">  1       -2 0.21478673E+00 0.92714874E+03</pdfrwt>
<totfact> 0.43079740E+00</totfact>
</mgrwt>
</event>
<event>
 4    5  0.7289609E-008  0.7109442E+03  0.7818608E-02  0.9954511E-01
          2   -1    0    0  501    0  0.00000000000E+00  0.00000000000E+00  0.10392243386E+04  0.10392243386E+04  0.25500000000E-02 0. -1.
         -2   -1    0    0    0  501 -0.00000000000E+00 -0.00000000000E+00 -0.62035315929E+03  0.62035315929E+03  0.25500000000E-02 0.  1.
    8880023    1    1    2    0    0  0.68838266586E+01 -0.26755196020E+03 -0.37798198737E+03  0.80517825823E+03  0.65864270000E+03 0.  1.
    8880022    1    1    2    0    0 -0.68838266586E+01  0.26755196020E+03  0.79685316667E+03  0.85439923966E+03  0.15294330000E+03 0.  0.
<mgrwt>
<rscale>  0 0.57690629E+03</rscale>
<asrwt>0</asrwt>
<pdfrwt beam="1">  1        2 0.15988067E+00 0.71094419E+03</pdfrwt>
<pdfrwt beam="2">  1       -2 0.95438949E-01 0.71094419E+03</pdfrwt>
<totfact> 0.22386428E+01</totfact>
</mgrwt>
</event>
<event>
 4    5  0.7289609E-008  0.1015927E+04  0.7818608E-02  0.9361010E-01
          2   -1    0    0  501    0  0.00000000000E+00  0.00000000000E+00  0.75239015391E+03  0.75239015392E+03  0.25500000000E-02 0. -1.
         -2   -1    0    0    0  501 -0.00000000000E+00 -0.00000000000E+00 -0.17044710253E+04  0.17044710253E+04  0.25500000000E-02 0.  1.
    8880023    1    1    2    0    0  0.65991224335E+03  0.40350215527E+03 -0.12528312824E+04  0.16129769331E+04  0.65864270000E+03 0.  1.
    8880022    1    1    2    0    0 -0.65991224335E+03 -0.40350215527E+03  0.30075041098E+03  0.84388424617E+03  0.15294330000E+03 0.  0.
<mgrwt>
<rscale>  0 0.95355052E+03</rscale>
<asrwt>0</asrwt>
<pdfrwt beam="1">  1        2 0.11575233E+00 0.10159273E+04</pdfrwt>
<pdfrwt beam="2">  1       -2 0.26222631E+00 0.10159273E+04</pdfrwt>
<totfact> 0.20141846E+00</totfact>
</mgrwt>
</event>
<event>
 4    5  0.7289609E-008  0.1434407E+04  0.7818608E-02  0.8957398E-01
          2   -1    0    0  501    0  0.00000000000E+00  0.00000000000E+00  0.15925166479E+04  0.15925166479E+04  0.25500000000E-02 0. -1.
         -2   -1    0    0    0  501 -0.00000000000E+00 -0.00000000000E+00 -0.18820816689E+04  0.18820816689E+04  0.25500000000E-02 0.  1.
    8880023    1    1    2    0    0  0.90773284320E+03 -0.89427935273E+03  0.92565660118E+03  0.17071510844E+04  0.65864270000E+03 0.  0.
    8880022    1    1    2    0    0 -0.90773284320E+03  0.89427935273E+03 -0.12152216222E+04  0.17674472324E+04  0.15294330000E+03 0.  0.
<mgrwt>
<rscale>  0 0.13950655E+04</rscale>
<asrwt>0</asrwt>
<pdfrwt beam="1">  1        2 0.24500256E+00 0.14344074E+04</pdfrwt>
<pdfrwt beam="2">  1       -2 0.28955103E+00 0.14344074E+04</pdfrwt>
<totfact> 0.39253728E-01</totfact>
</mgrwt>
</event>
<event>
 4    5  0.7289609E-008  0.2289276E+04  0.7818608E-02  0.8491425E-01
          2   -1    0    0  501    0  0.00000000000E+00  0.00000000000E+00  0.30761819963E+04  0.30761819963E+04  0.25500000000E-02 0. -1.
         -2   -1    0    0    0  501 -0.00000000000E+00 -0.00000000000E+00 -0.18575557619E+04  0.18575557619E+04  0.25500000000E-02 0.  1.
    8880023    1    1    2    0    0  0.21031599533E+04 -0.61942982166E+03  0.14715213122E+04  0.27214261467E+04  0.65864270000E+03 0.  0.
    8880022    1    1    2    0    0 -0.21031599533E+04  0.61942982166E+03 -0.25289507789E+03  0.22123116115E+04  0.15294330000E+03 0.  0.
<mgrwt>
<rscale>  0 0.22660587E+04</rscale>
<asrwt>0</asrwt>
<pdfrwt beam="1">  1        2 0.47325877E+00 0.22892762E+04</pdfrwt>
<pdfrwt beam="2">  1       -2 0.28577781E+00 0.22892762E+04</pdfrwt>
<totfact> 0.52067407E-02</totfact>
</mgrwt>
</event>
<event>
 4    5  0.7289609E-008  0.1008600E+04  0.7818608E-02  0.9370391E-01
          2   -1    0    0  501    0  0.00000000000E+00  0.00000000000E+00  0.13098308872E+04  0.13098308872E+04  0.25500000000E-02 0. -1.
         -2   -1    0    0    0  501 -0.00000000000E+00 -0.00000000000E+00 -0.16959345603E+04  0.16959345603E+04  0.25500000000E-02 0.  1.
    8880023    1    1    2    0    0 -0.57013718238E+03 -0.50833836671E+03 -0.14010458140E+04  0.17263267017E+04  0.65864270000E+03 0.  1.
    8880022    1    1    2    0    0  0.57013718238E+03  0.50833836671E+03  0.10149421409E+04  0.12794387458E+04  0.15294330000E+03 0.  0.
<mgrwt>
<rscale>  0 0.94552935E+03</rscale>
<asrwt>0</asrwt>
<pdfrwt beam="1">  1        2 0.20151244E+00 0.10086003E+04</pdfrwt>
<pdfrwt beam="2">  1       -2 0.26091301E+00 0.10086003E+04</pdfrwt>
<totfact> 0.89626759E-01</totfact>
</mgrwt>
</event>
<event>
 4    5  0.7289609E-008  0.8973637E+03  0.7818608E-02  0.9530277E-01
          2   -1    0    0  501    0  0.00000000000E+00  0.00000000000E+00  0.13702128446E+04  0.13702128446E+04  0.25500000000E-02 0. -1.
         -2   -1    0    0    0  501 -0.00000000000E+00 -0.00000000000E+00 -0.56373124843E+03  0.56373124844E+03  0.25500000000E-02 0.  1.
    8880023    1    1    2    0    0  0.57333301887E+03  0.20673795020E+03 -0.17711176866E+02  0.89753842404E+03  0.65864270000E+03 0.  0.
    8880022    1    1    2    0    0 -0.57333301887E+03 -0.20673795020E+03  0.82419277298E+03  0.10364056690E+04  0.15294330000E+03 0.  0.
<mgrwt>
<rscale>  0 0.82087950E+03</rscale>
<asrwt>0</asrwt>
<pdfrwt beam="1">  1        2 0.21080197E+00 0.89736366E+03</pdfrwt>
<pdfrwt beam="2">  1       -2 0.86727885E-01 0.89736366E+03</pdfrwt>
<totfact> 0.17416934E+01</totfact>
</mgrwt>
</event>
<event>
 4    5  0.7289609E-008  0.9387503E+03  0.7818608E-02  0.9466488E-01
         -2   -1    0    0    0  501 -0.00000000000E+00  0.00000000000E+00  0.10474490091E+04  0.10474490091E+04  0.25500000000E-02 0.  1.
          2   -1    0    0  501    0  0.00000000000E+00 -0.00000000000E+00 -0.12180080732E+04  0.12180080732E+04  0.25500000000E-02 0. -1.
    8880023    1    1    2    0    0  0.47521422953E+03 -0.47075821776E+03  0.68983148194E+03  0.11649547387E+04  0.65864270000E+03 0.  0.
    8880022    1    1    2    0    0 -0.47521422953E+03  0.47075821776E+03 -0.86039054600E+03  0.11005023436E+04  0.15294330000E+03 0.  0.
<mgrwt>
<rscale>  0 0.86800250E+03</rscale>
<asrwt>0</asrwt>
<pdfrwt beam="1">  1        2 0.18738586E+00 0.93875027E+03</pdfrwt>
<pdfrwt beam="2">  1       -2 0.16114600E+00 0.93875027E+03</pdfrwt>
<totfact> 0.45556164E+00</totfact>
</mgrwt>
</event>
<event>
 4    5  0.7289609E-008  0.8276351E+03  0.7818608E-02  0.9653951E-01
          2   -1    0    0  501    0  0.00000000000E+00  0.00000000000E+00  0.14320060415E+04  0.14320060415E+04  0.25500000000E-02 0. -1.
         -2   -1    0    0    0  501 -0.00000000000E+00 -0.00000000000E+00 -0.71816266436E+03  0.71816266436E+03  0.25500000000E-02 0.  1.
    8880023    1    1    2    0    0  0.39714529796E+03 -0.30568825235E+03 -0.40000208893E+03  0.91922879237E+03  0.65864270000E+03 0.  0.
    8880022    1    1    2    0    0 -0.39714529796E+03  0.30568825235E+03  0.11138454661E+04  0.12309399135E+04  0.15294330000E+03 0.  0.
<mgrwt>
<rscale>  0 0.73825961E+03</rscale>
<asrwt>0</asrwt>
<pdfrwt beam="1">  1        2 0.22030862E+00 0.82763513E+03</pdfrwt>
<pdfrwt beam="2">  1       -2 0.11048657E+00 0.82763513E+03</pdfrwt>
<totfact> 0.91390560E+00</totfact>
</mgrwt>
</event>
<event>
 4    5  0.7289609E-008  0.1183057E+04  0.7818608E-02  0.9173771E-01
          2   -1    0    0  501    0  0.00000000000E+00  0.00000000000E+00  0.21852857544E+04  0.21852857544E+04  0.25500000000E-02 0. -1.
         -2   -1    0    0    0  501 -0.00000000000E+00 -0.00000000000E+00 -0.90549755362E+03  0.90549755362E+03  0.25500000000E-02 0.  1.
    8880023    1    1    2    0    0  0.69063979013E+03  0.69916345607E+03 -0.30318605082E+03  0.12212881911E+04  0.65864270000E+03 0.  0.
    8880022    1    1    2    0    0 -0.69063979013E+03 -0.69916345607E+03  0.15829742516E+04  0.18694951169E+04  0.15294330000E+03 0.  0.
<mgrwt>
<rscale>  0 0.11328305E+04</rscale>
<asrwt>0</asrwt>
<pdfrwt beam="1">  1        2 0.33619780E+00 0.11830567E+04</pdfrwt>
<pdfrwt beam="2">  1       -2 0.13930732E+00 0.11830567E+04</pdfrwt>
<totfact> 0.18717577E+00</totfact>
</mgrwt>
</event>
<event>
 4    5  0.7289609E-008  0.2070641E+04  0.7818608E-02  0.8585975E-01
         -2   -1    0    0    0  501 -0.00000000000E+00  0.00000000000E+00  0.11903525224E+04  0.11903525224E+04  0.25500000000E-02 0.  1.
          2   -1    0    0  501    0  0.00000000000E+00 -0.00000000000E+00 -0.40912823534E+04  0.40912823534E+04  0.25500000000E-02 0. -1.
    8880023    1    1    2    0    0  0.49429644431E+03 -0.18998464625E+04 -0.41748747571E+03  0.21123095310E+04  0.65864270000E+03 0.  0.
    8880022    1    1    2    0    0 -0.49429644431E+03  0.18998464625E+04 -0.24834423554E+04  0.31693253448E+04  0.15294330000E+03 0.  0.
<mgrwt>
<rscale>  0 0.20447611E+04</rscale>
<asrwt>0</asrwt>
<pdfrwt beam="1">  1        2 0.62942804E+00 0.20706414E+04</pdfrwt>
<pdfrwt beam="2">  1       -2 0.18313116E+00 0.20706414E+04</pdfrwt>
<totfact> 0.44330552E-02</totfact>
</mgrwt>
</event>
<event>
 4    5  0.7289609E-008  0.7775250E+03  0.7818608E-02  0.9761683E-01
          2   -1    0    0  501    0  0.00000000000E+00  0.00000000000E+00  0.16448649428E+04  0.16448649428E+04  0.25500000000E-02 0. -1.
         -2   -1    0    0    0  501 -0.00000000000E+00 -0.00000000000E+00 -0.29536943151E+04  0.29536943151E+04  0.25500000000E-02 0.  1.
    8880023    1    1    2    0    0 -0.34635916024E+03  0.22532240208E+03 -0.28715301113E+04  0.29749336529E+04  0.65864270000E+03 0.  0.
    8880022    1    1    2    0    0  0.34635916024E+03 -0.22532240208E+03  0.15627007389E+04  0.16236256050E+04  0.15294330000E+03 0.  0.
<mgrwt>
<rscale>  0 0.67460003E+03</rscale>
<asrwt>0</asrwt>
<pdfrwt beam="1">  1        2 0.25305615E+00 0.77752496E+03</pdfrwt>
<pdfrwt beam="2">  1       -2 0.45441451E+00 0.77752496E+03</pdfrwt>
<totfact> 0.36725254E-02</totfact>
</mgrwt>
</event>
<event>
 4    5  0.7289609E-008  0.8591878E+03  0.7818608E-02  0.9595010E-01
          2   -1    0    0  501    0  0.00000000000E+00  0.00000000000E+00  0.20475002597E+04  0.20475002597E+04  0.25500000000E-02 0. -1.
         -2   -1    0    0    0  501 -0.00000000000E+00 -0.00000000000E+00 -0.32436844799E+03  0.32436844800E+03  0.25500000000E-02 0.  1.
    8880023    1    1    2    0    0 -0.54529149123E+03 -0.83967693066E+02  0.43672653900E+03  0.96381204600E+03  0.65864270000E+03 0.  1.
    8880022    1    1    2    0    0  0.54529149123E+03  0.83967693066E+02  0.12864052727E+04  0.14080566617E+04  0.15294330000E+03 0.  0.
<mgrwt>
<rscale>  0 0.77627339E+03</rscale>
<asrwt>0</asrwt>
<pdfrwt beam="1">  1        2 0.31500004E+00 0.85918775E+03</pdfrwt>
<pdfrwt beam="2">  1       -2 0.49902838E-01 0.85918775E+03</pdfrwt>
<totfact> 0.24364396E+01</totfact>
</mgrwt>
</event>
<event>
 4    5  0.7289609E-008  0.1041408E+04  0.7818608E-02  0.9329282E-01
          2   -1    0    0  501    0  0.00000000000E+00  0.00000000000E+00  0.15101163349E+04  0.15101163349E+04  0.25500000000E-02 0. -1.
         -2   -1    0    0    0  501 -0.00000000000E+00 -0.00000000000E+00 -0.13067442059E+04  0.13067442059E+04  0.25500000000E-02 0.  1.
    8880023    1    1    2    0    0 -0.78334536924E+03 -0.19258735330E+03 -0.94426904497E+03  0.14057645933E+04  0.65864270000E+03 0.  1.
    8880022    1    1    2    0    0  0.78334536924E+03  0.19258735330E+03  0.11476411739E+04  0.14110959476E+04  0.15294330000E+03 0.  0.
<mgrwt>
<rscale>  0 0.98131190E+03</rscale>
<asrwt>0</asrwt>
<pdfrwt beam="1">  1        2 0.23232559E+00 0.10414077E+04</pdfrwt>
<pdfrwt beam="2">  1       -2 0.20103757E+00 0.10414077E+04</pdfrwt>
<totfact> 0.16211835E+00</totfact>
</mgrwt>
</event>
<event>
 4    5  0.7289609E-008  0.1463750E+04  0.7818608E-02  0.8935667E-01
         -2   -1    0    0    0  501 -0.00000000000E+00  0.00000000000E+00  0.26473365618E+04  0.26473365618E+04  0.25500000000E-02 0.  1.
          2   -1    0    0  501    0  0.00000000000E+00 -0.00000000000E+00 -0.18268247272E+04  0.18268247272E+04  0.25500000000E-02 0. -1.
    8880023    1    1    2    0    0  0.12549421016E+03  0.13011553611E+04  0.21515889764E+04  0.26022873400E+04  0.65864270000E+03 0.  0.
    8880022    1    1    2    0    0 -0.12549421016E+03 -0.13011553611E+04 -0.13310771418E+04  0.18718739490E+04  0.15294330000E+03 0.  0.
<mgrwt>
<rscale>  0 0.14253557E+04</rscale>
<asrwt>0</asrwt>
<pdfrwt beam="1">  1        2 0.28104996E+00 0.14637501E+04</pdfrwt>
<pdfrwt beam="2">  1       -2 0.40728255E+00 0.14637501E+04</pdfrwt>
<totfact> 0.52397008E-02</totfact>
</mgrwt>
</event>
<event>
 4    5  0.7289609E-008  0.1685643E+04  0.7818608E-02  0.8788580E-01
         -2   -1    0    0    0  501 -0.00000000000E+00  0.00000000000E+00  0.10306221515E+04  0.10306221515E+04  0.25500000000E-02 0.  1.
          2   -1    0    0  501    0  0.00000000000E+00 -0.00000000000E+00 -0.26532887760E+04  0.26532887760E+04  0.25500000000E-02 0. -1.
    8880023    1    1    2    0    0  0.15504543010E+04  0.60597187236E+02 -0.11978797510E+04  0.20679232730E+04  0.65864270000E+03 0.  0.
    8880022    1    1    2    0    0 -0.15504543010E+04 -0.60597187236E+02 -0.42478687346E+03  0.16159876545E+04  0.15294330000E+03 0.  0.
<mgrwt>
<rscale>  0 0.16530904E+04</rscale>
<asrwt>0</asrwt>
<pdfrwt beam="1">  1        2 0.40819827E+00 0.16856425E+04</pdfrwt>
<pdfrwt beam="2">  1       -2 0.15855726E+00 0.16856425E+04</pdfrwt>
<totfact> 0.67745881E-01</totfact>
</mgrwt>
</event>
<event>
 4    5  0.7289609E-008  0.6659164E+03  0.7818608E-02  0.1018777E+00
          2   -1    0    0  501    0  0.00000000000E+00  0.00000000000E+00  0.19371943548E+03  0.19371943550E+03  0.25500000000E-02 0. -1.
         -2   -1    0    0    0  501 -0.00000000000E+00 -0.00000000000E+00 -0.28788309675E+04  0.28788309675E+04  0.25500000000E-02 0.  1.
    8880023    1    1    2    0    0 -0.13942912618E+01  0.98145528211E+02 -0.27861467854E+04  0.28646218956E+04  0.65864270000E+03 0.  1.
    8880022    1    1    2    0    0  0.13942912618E+01 -0.98145528211E+02  0.10103525337E+03  0.20792850741E+03  0.15294330000E+03 0.  0.
<mgrwt>
<rscale>  0 0.48130683E+03</rscale>
<asrwt>0</asrwt>
<pdfrwt beam="1">  1        2 0.29802992E-01 0.66591643E+03</pdfrwt>
<pdfrwt beam="2">  1       -2 0.44289704E+00 0.66591643E+03</pdfrwt>
<totfact> 0.74910259E-01</totfact>
</mgrwt>
</event>
<event>
 4    5  0.7289609E-008  0.1394287E+04  0.7818608E-02  0.8988135E-01
         -2   -1    0    0    0  501 -0.00000000000E+00  0.00000000000E+00  0.64116008724E+03  0.64116008724E+03  0.25500000000E-02 0.  1.
          2   -1    0    0  501    0  0.00000000000E+00 -0.00000000000E+00 -0.29996842523E+04  0.29996842523E+04  0.25500000000E-02 0. -1.
    8880023    1    1    2    0    0  0.53583541679E+03 -0.11059416064E+04 -0.67011462938E+03  0.15469616199E+04  0.65864270000E+03 0.  0.
    8880022    1    1    2    0    0 -0.53583541679E+03  0.11059416064E+04 -0.16884095356E+04  0.20938827196E+04  0.15294330000E+03 0.  0.
<mgrwt>
<rscale>  0 0.13535641E+04</rscale>
<asrwt>0</asrwt>
<pdfrwt beam="1">  1        2 0.46148988E+00 0.13942871E+04</pdfrwt>
<pdfrwt beam="2">  1       -2 0.98640015E-01 0.13942871E+04</pdfrwt>
<totfact> 0.14384052E+00</totfact>
</mgrwt>
</event>
<event>
 4    5  0.7289609E-008  0.8202224E+03  0.7818608E-02  0.9668665E-01
         -2   -1    0    0    0  501 -0.00000000000E+00  0.00000000000E+00  0.16604824681E+03  0.16604824683E+03  0.25500000000E-02 0.  1.
          2   -1    0    0  501    0  0.00000000000E+00 -0.00000000000E+00 -0.39715545041E+04  0.39715545041E+04  0.25500000000E-02 0. -1.
    8880023    1    1    2    0    0 -0.43352805134E+03  0.22584941467E+03 -0.33603135262E+04  0.34589697498E+04  0.65864270000E+03 0. -1.
    8880022    1    1    2    0    0  0.43352805134E+03 -0.22584941467E+03 -0.44519273110E+03  0.67863300115E+03  0.15294330000E+03 0.  0.
<mgrwt>
<rscale>  0 0.72913518E+03</rscale>
<asrwt>0</asrwt>
<pdfrwt beam="1">  1        2 0.61100831E+00 0.82022237E+03</pdfrwt>
<pdfrwt beam="2">  1       -2 0.25545887E-01 0.82022237E+03</pdfrwt>
<totfact> 0.54029177E+00</totfact>
</mgrwt>
</event>
<event>
 4    5  0.7289609E-008  0.1262449E+04  0.7818608E-02  0.9098686E-01
         -2   -1    0    0    0  501 -0.00000000000E+00  0.00000000000E+00  0.16806095535E+04  0.16806095535E+04  0.25500000000E-02 0.  1.
          2   -1    0    0  501    0  0.00000000000E+00 -0.00000000000E+00 -0.14126925593E+04  0.14126925593E+04  0.25500000000E-02 0. -1.
    8880023    1    1    2    0    0 -0.41762884230E+03  0.99274982487E+03  0.11385144940E+04  0.16999975071E+04  0.65864270000E+03 0.  1.
    8880022    1    1    2    0    0  0.41762884230E+03 -0.99274982487E+03 -0.87059749981E+03  0.13933046057E+04  0.15294330000E+03 0.  0.
<mgrwt>
<rscale>  0 0.12163254E+04</rscale>
<asrwt>0</asrwt>
<pdfrwt beam="1">  1        2 0.21733732E+00 0.12624485E+04</pdfrwt>
<pdfrwt beam="2">  1       -2 0.25855532E+00 0.12624485E+04</pdfrwt>
<totfact> 0.78204722E-01</totfact>
</mgrwt>
</event>
<event>
 4    5  0.7289609E-008  0.8172721E+03  0.7818608E-02  0.9674624E-01
         -2   -1    0    0    0  501 -0.00000000000E+00  0.00000000000E+00  0.85581459941E+03  0.85581459942E+03  0.25500000000E-02 0.  1.
          2   -1    0    0  501    0  0.00000000000E+00 -0.00000000000E+00 -0.20645331239E+04  0.20645331239E+04  0.25500000000E-02 0. -1.
    8880023    1    1    2    0    0  0.36677291819E+03  0.31559645394E+03  0.61788998423E+03  0.10245592878E+04  0.65864270000E+03 0.  1.
    8880022    1    1    2    0    0 -0.36677291819E+03 -0.31559645394E+03 -0.18266085088E+04  0.18957884356E+04  0.15294330000E+03 0.  0.
<mgrwt>
<rscale>  0 0.72547985E+03</rscale>
<asrwt>0</asrwt>
<pdfrwt beam="1">  1        2 0.31762048E+00 0.81727211E+03</pdfrwt>
<pdfrwt beam="2">  1       -2 0.13166378E+00 0.81727211E+03</pdfrwt>
<totfact> 0.26550661E+00</totfact>
</mgrwt>
</event>
<event>
 4    5  0.7289609E-008  0.1168074E+04  0.7818608E-02  0.9188800E-01
         -2   -1    0    0    0  501 -0.00000000000E+00  0.00000000000E+00  0.61475369349E+03  0.61475369350E+03  0.25500000000E-02 0.  1.
          2   -1    0    0  501    0  0.00000000000E+00 -0.00000000000E+00 -0.23853284195E+04  0.23853284195E+04  0.25500000000E-02 0. -1.
    8880023    1    1    2    0    0  0.68895472505E+03  0.67522363434E+03 -0.25267533492E+03  0.11950902061E+04  0.65864270000E+03 0.  1.
    8880022    1    1    2    0    0 -0.68895472505E+03 -0.67522363434E+03 -0.15178993911E+04  0.18049919069E+04  0.15294330000E+03 0.  0.
<mgrwt>
<rscale>  0 0.11169787E+04</rscale>
<asrwt>0</asrwt>
<pdfrwt beam="1">  1        2 0.36697360E+00 0.11680735E+04</pdfrwt>
<pdfrwt beam="2">  1       -2 0.94577493E-01 0.11680735E+04</pdfrwt>
<totfact> 0.37652294E+00</totfact>
</mgrwt>
</event>
<event>
 4    5  0.7635757E-008  0.9010923E+03  0.7818608E-02  0.9524280E-01
          2   -1    0    0  501    0  0.00000000000E+00  0.00000000000E+00  0.19903437115E+04  0.19903437115E+04  0.25500000000E-02 0. -1.
         -2   -1    0    0    0  501 -0.00000000000E+00 -0.00000000000E+00 -0.11918390274E+04  0.11918390274E+04  0.25500000000E-02 0.  1.
    8880023    1    1    2    0    0 -0.43622580447E+03  0.43343306318E+03 -0.95780665170E+03  0.13150516952E+04  0.65864270000E+03 0.  1.
    8880022    1    1    2    0    0  0.43622580447E+03 -0.43343306318E+03  0.17563113359E+04  0.18671310437E+04  0.15294330000E+03 0.  0.
<mgrwt>
<rscale>  0 0.82517158E+03</rscale>
<asrwt>0</asrwt>
<pdfrwt beam="1">  1        2 0.30620672E+00 0.90109233E+03</pdfrwt>
<pdfrwt beam="2">  1       -2 0.18335985E+00 0.90109233E+03</pdfrwt>
<totfact> 0.11782984E+00</totfact>
</mgrwt>
</event>
<event>
 4    5  0.7520967E-008  0.1130640E+04  0.7818608E-02  0.9227685E-01
          2   -1    0    0  501    0  0.00000000000E+00  0.00000000000E+00  0.26786744540E+04  0.26786744540E+04  0.25500000000E-02 0. -1.
         -2   -1    0    0    0  501 -0.00000000000E+00 -0.00000000000E+00 -0.13718640004E+04  0.13718640004E+04  0.25500000000E-02 0.  1.
    8880023    1    1    2    0    0  0.78982381015E+03 -0.46980330268E+03 -0.10333720840E+04  0.15317326348E+04  0.65864270000E+03 0.  1.
    8880022    1    1    2    0    0 -0.78982381015E+03  0.46980330268E+03  0.23401825376E+04  0.25188058196E+04  0.15294330000E+03 0.  0.
<mgrwt>
<rscale>  0 0.10772184E+04</rscale>
<asrwt>0</asrwt>
<pdfrwt beam="1">  1        2 0.41210375E+00 0.11306401E+04</pdfrwt>
<pdfrwt beam="2">  1       -2 0.21105600E+00 0.11306401E+04</pdfrwt>
<totfact> 0.30475960E-01</totfact>
</mgrwt>
</event>
<event>
 4    5  0.7289609E-008  0.1191512E+04  0.7818608E-02  0.9165418E-01
         -2   -1    0    0    0  501 -0.00000000000E+00  0.00000000000E+00  0.82425867058E+03  0.82425867058E+03  0.25500000000E-02 0.  1.
          2   -1    0    0  501    0  0.00000000000E+00 -0.00000000000E+00 -0.16352439633E+04  0.16352439633E+04  0.25500000000E-02 0. -1.
    8880023    1    1    2    0    0 -0.85225316915E+03 -0.50946465057E+03 -0.38356645564E+02  0.11921288240E+04  0.65864270000E+03 0.  0.
    8880022    1    1    2    0    0  0.85225316915E+03  0.50946465057E+03 -0.77262864716E+03  0.12673738099E+04  0.15294330000E+03 0.  0.
<mgrwt>
<rscale>  0 0.11417611E+04</rscale>
<asrwt>0</asrwt>
<pdfrwt beam="1">  1        2 0.25157599E+00 0.11915116E+04</pdfrwt>
<pdfrwt beam="2">  1       -2 0.12680903E+00 0.11915116E+04</pdfrwt>
<totfact> 0.48053962E+00</totfact>
</mgrwt>
</event>
<event>
 4    5  0.7289609E-008  0.6627929E+03  0.7818608E-02  0.1021462E+00
          2   -1    0    0  501    0  0.00000000000E+00  0.00000000000E+00  0.17369397118E+04  0.17369397118E+04  0.25500000000E-02 0. -1.
         -2   -1    0    0    0  501 -0.00000000000E+00 -0.00000000000E+00 -0.22785573885E+03  0.22785573886E+03  0.25500000000E-02 0.  1.
    8880023    1    1    2    0    0  0.56707391946E+02 -0.47628263426E+02  0.27255576012E+03  0.71664567843E+03  0.65864270000E+03 0.  1.
    8880022    1    1    2    0    0 -0.56707391946E+02  0.47628263426E+02  0.12365282128E+04  0.12481497722E+04  0.15294330000E+03 0.  0.
<mgrwt>
<rscale>  0 0.47162866E+03</rscale>
<asrwt>0</asrwt>
<pdfrwt beam="1">  1        2 0.26722150E+00 0.66279287E+03</pdfrwt>
<pdfrwt beam="2">  1       -2 0.35054729E-01 0.66279287E+03</pdfrwt>
<totfact> 0.73814406E+01</totfact>
</mgrwt>
</event>
<event>
 4    5  0.7289609E-008  0.6783695E+03  0.7818608E-02  0.1010261E+00
          2   -1    0    0  501    0  0.00000000000E+00  0.00000000000E+00  0.10664506557E+04  0.10664506557E+04  0.25500000000E-02 0. -1.
         -2   -1    0    0    0  501 -0.00000000000E+00 -0.00000000000E+00 -0.52444877138E+03  0.52444877138E+03  0.25500000000E-02 0.  1.
    8880023    1    1    2    0    0 -0.37717199332E+02 -0.15796305428E+03 -0.28391397678E+03  0.73538579407E+03  0.65864270000E+03 0.  1.
    8880022    1    1    2    0    0  0.37717199332E+02  0.15796305428E+03  0.82591586111E+03  0.85551363302E+03  0.15294330000E+03 0.  0.
<mgrwt>
<rscale>  0 0.51370870E+03</rscale>
<asrwt>0</asrwt>
<pdfrwt beam="1">  1        2 0.16406933E+00 0.67836946E+03</pdfrwt>
<pdfrwt beam="2">  1       -2 0.80684426E-01 0.67836946E+03</pdfrwt>
<totfact> 0.31753143E+01</totfact>
</mgrwt>
</event>
<event>
 4    5  0.7289609E-008  0.1180014E+04  0.7818608E-02  0.9176799E-01
          2   -1    0    0  501    0  0.00000000000E+00  0.00000000000E+00  0.18254484723E+04  0.18254484723E+04  0.25500000000E-02 0. -1.
         -2   -1    0    0    0  501 -0.00000000000E+00 -0.00000000000E+00 -0.76146735977E+03  0.76146735978E+03  0.25500000000E-02 0.  1.
    8880023    1    1    2    0    0 -0.52431549570E+03  0.82687147234E+03  0.68068582023E+02  0.11819757649E+04  0.65864270000E+03 0.  0.
    8880022    1    1    2    0    0  0.52431549570E+03 -0.82687147234E+03  0.99591253048E+03  0.14049400671E+04  0.15294330000E+03 0.  0.
<mgrwt>
<rscale>  0 0.11296143E+04</rscale>
<asrwt>0</asrwt>
<pdfrwt beam="1">  1        2 0.28083823E+00 0.11800141E+04</pdfrwt>
<pdfrwt beam="2">  1       -2 0.11714882E+00 0.11800141E+04</pdfrwt>
<totfact> 0.46022076E+00</totfact>
</mgrwt>
</event>
<event>
 4    5  0.7289609E-008  0.6948312E+03  0.7818608E-02  0.1001936E+00
          2   -1    0    0  501    0  0.00000000000E+00  0.00000000000E+00  0.14231359534E+04  0.14231359534E+04  0.25500000000E-02 0. -1.
         -2   -1    0    0    0  501 -0.00000000000E+00 -0.00000000000E+00 -0.32805086966E+03  0.32805086967E+03  0.25500000000E-02 0.  1.
    8880023    1    1    2    0    0 -0.51335255156E+02  0.21527873223E+03  0.78082461007E+02  0.69920477541E+03  0.65864270000E+03 0.  1.
    8880022    1    1    2    0    0  0.51335255156E+02 -0.21527873223E+03  0.10170026227E+04  0.10519820477E+04  0.15294330000E+03 0.  0.
<mgrwt>
<rscale>  0 0.54809488E+03</rscale>
<asrwt>0</asrwt>
<pdfrwt beam="1">  1        2 0.21894399E+00 0.69483124E+03</pdfrwt>
<pdfrwt beam="2">  1       -2 0.50469366E-01 0.69483124E+03</pdfrwt>
<totfact> 0.53482249E+01</totfact>
</mgrwt>
</event>
<event>
 4    5  0.7289609E-008  0.9768276E+03  0.7818608E-02  0.9412522E-01
          2   -1    0    0  501    0  0.00000000000E+00  0.00000000000E+00  0.92057416089E+03  0.92057416089E+03  0.25500000000E-02 0. -1.
         -2   -1    0    0    0  501 -0.00000000000E+00 -0.00000000000E+00 -0.24264453404E+04  0.24264453404E+04  0.25500000000E-02 0.  1.
    8880023    1    1    2    0    0  0.12511980603E+03 -0.71044141133E+03 -0.21540758811E+04  0.23652135363E+04  0.65864270000E+03 0.  0.
    8880022    1    1    2    0    0 -0.12511980603E+03  0.71044141133E+03  0.64820470152E+03  0.98180596499E+03  0.15294330000E+03 0.  0.
<mgrwt>
<rscale>  0 0.91052256E+03</rscale>
<asrwt>0</asrwt>
<pdfrwt beam="1">  1        2 0.14162679E+00 0.97682761E+03</pdfrwt>
<pdfrwt beam="2">  1       -2 0.37329928E+00 0.97682761E+03</pdfrwt>
<totfact> 0.31983257E-01</totfact>
</mgrwt>
</event>
<event>
 4    5  0.7289609E-008  0.1140067E+04  0.7818608E-02  0.9217705E-01
          2   -1    0    0  501    0  0.00000000000E+00  0.00000000000E+00  0.29969482761E+04  0.29969482761E+04  0.25500000000E-02 0. -1.
         -2   -1    0    0    0  501 -0.00000000000E+00 -0.00000000000E+00 -0.50318403646E+03  0.50318403647E+03  0.25500000000E-02 0.  1.
    8880023    1    1    2    0    0 -0.90746586051E+03 -0.20603050562E+03  0.40763709681E+03  0.12107522728E+04  0.65864270000E+03 0.  0.
    8880022    1    1    2    0    0  0.90746586051E+03  0.20603050562E+03  0.20861271428E+04  0.22893800397E+04  0.15294330000E+03 0.  0.
<mgrwt>
<rscale>  0 0.10872539E+04</rscale>
<asrwt>0</asrwt>
<pdfrwt beam="1">  1        2 0.46106896E+00 0.11400671E+04</pdfrwt>
<pdfrwt beam="2">  1       -2 0.77412930E-01 0.11400671E+04</pdfrwt>
<totfact> 0.26063098E+00</totfact>
</mgrwt>
</event>
<event>
 4    5  0.7289609E-008  0.9666374E+03  0.7818608E-02  0.9426570E-01
         -2   -1    0    0    0  501 -0.00000000000E+00  0.00000000000E+00  0.90295960779E+03  0.90295960779E+03  0.25500000000E-02 0.  1.
          2   -1    0    0  501    0  0.00000000000E+00 -0.00000000000E+00 -0.12089050060E+04  0.12089050060E+04  0.25500000000E-02 0. -1.
    8880023    1    1    2    0    0  0.28207398977E+03  0.64885437629E+03  0.44911751558E+03  0.10658773318E+04  0.65864270000E+03 0.  0.
    8880022    1    1    2    0    0 -0.28207398977E+03 -0.64885437629E+03 -0.75506291374E+03  0.10459872820E+04  0.15294330000E+03 0.  0.
<mgrwt>
<rscale>  0 0.89920963E+03</rscale>
<asrwt>0</asrwt>
<pdfrwt beam="1">  1        2 0.18598539E+00 0.96663744E+03</pdfrwt>
<pdfrwt beam="2">  1       -2 0.13891686E+00 0.96663744E+03</pdfrwt>
<totfact> 0.68233136E+00</totfact>
</mgrwt>
</event>
<event>
 4    5  0.7289609E-008  0.6851627E+03  0.7818608E-02  0.1006542E+00
          2   -1    0    0  501    0  0.00000000000E+00  0.00000000000E+00  0.33197388268E+04  0.33197388268E+04  0.25500000000E-02 0. -1.
         -2   -1    0    0    0  501 -0.00000000000E+00 -0.00000000000E+00 -0.27209610180E+03  0.27209610181E+03  0.25500000000E-02 0.  1.
    8880023    1    1    2    0    0  0.13040678882E+03 -0.13649813214E+03  0.17263132560E+03  0.70657586393E+03  0.65864270000E+03 0.  1.
    8880022    1    1    2    0    0 -0.13040678882E+03  0.13649813214E+03  0.28750113994E+04  0.28852590647E+04  0.15294330000E+03 0.  0.
<mgrwt>
<rscale>  0 0.52872366E+03</rscale>
<asrwt>0</asrwt>
<pdfrwt beam="1">  1        2 0.51072906E+00 0.68516266E+03</pdfrwt>
<pdfrwt beam="2">  1       -2 0.41860938E-01 0.68516266E+03</pdfrwt>
<totfact> 0.63727344E+00</totfact>
</mgrwt>
</event>
<event>
 4    5  0.7289609E-008  0.1599143E+04  0.7818608E-02  0.8842625E-01
          2   -1    0    0  501    0  0.00000000000E+00  0.00000000000E+00  0.19200562298E+04  0.19200562298E+04  0.25500000000E-02 0. -1.
         -2   -1    0    0    0  501 -0.00000000000E+00 -0.00000000000E+00 -0.26353527927E+04  0.26353527927E+04  0.25500000000E-02 0.  1.
    8880023    1    1    2    0    0 -0.15536073134E+03  0.14488996553E+04 -0.20318034654E+04  0.25856300386E+04  0.65864270000E+03 0.  0.
    8880022    1    1    2    0    0  0.15536073134E+03 -0.14488996553E+04  0.13165069026E+04  0.19697789839E+04  0.15294330000E+03 0.  0.
<mgrwt>
<rscale>  0 0.15645532E+04</rscale>
<asrwt>0</asrwt>
<pdfrwt beam="1">  1        2 0.29539326E+00 0.15991427E+04</pdfrwt>
<pdfrwt beam="2">  1       -2 0.40543889E+00 0.15991427E+04</pdfrwt>
<totfact> 0.46954077E-02</totfact>
</mgrwt>
</event>
<event>
 4    5  0.7289609E-008  0.9217761E+03  0.7818608E-02  0.9491941E-01
          2   -1    0    0  501    0  0.00000000000E+00  0.00000000000E+00  0.15781011438E+04  0.15781011438E+04  0.25500000000E-02 0. -1.
         -2   -1    0    0    0  501 -0.00000000000E+00 -0.00000000000E+00 -0.68578402504E+03  0.68578402504E+03  0.25500000000E-02 0.  1.
    8880023    1    1    2    0    0 -0.41409748706E+03  0.49435229787E+03 -0.23942409574E+03  0.95236286524E+03  0.65864270000E+03 0.  1.
    8880022    1    1    2    0    0  0.41409748706E+03 -0.49435229787E+03  0.11317412145E+04  0.13115223036E+04  0.15294330000E+03 0.  0.
<mgrwt>
<rscale>  0 0.84880585E+03</rscale>
<asrwt>0</asrwt>
<pdfrwt beam="1">  1        2 0.24278479E+00 0.92177607E+03</pdfrwt>
<pdfrwt beam="2">  1       -2 0.10550524E+00 0.92177607E+03</pdfrwt>
<totfact> 0.83707363E+00</totfact>
</mgrwt>
</event>
<event>
 4    5  0.7289609E-008  0.8563229E+03  0.7818608E-02  0.9600138E-01
          2   -1    0    0  501    0  0.00000000000E+00  0.00000000000E+00  0.16112446739E+04  0.16112446739E+04  0.25500000000E-02 0. -1.
         -2   -1    0    0    0  501 -0.00000000000E+00 -0.00000000000E+00 -0.33302131814E+03  0.33302131815E+03  0.25500000000E-02 0.  1.
    8880023    1    1    2    0    0 -0.39243061145E+03  0.38141441801E+03  0.53878139662E+03  0.10117185096E+04  0.65864270000E+03 0.  0.
    8880022    1    1    2    0    0  0.39243061145E+03 -0.38141441801E+03  0.73944195916E+03  0.93254748247E+03  0.15294330000E+03 0.  0.
<mgrwt>
<rscale>  0 0.77287046E+03</rscale>
<asrwt>0</asrwt>
<pdfrwt beam="1">  1        2 0.24788380E+00 0.85632292E+03</pdfrwt>
<pdfrwt beam="2">  1       -2 0.51234049E-01 0.85632292E+03</pdfrwt>
<totfact> 0.40077086E+01</totfact>
</mgrwt>
</event>
<event>
 4    5  0.7289609E-008  0.6592343E+03  0.7818608E-02  0.1024955E+00
          2   -1    0    0  501    0  0.00000000000E+00  0.00000000000E+00  0.69079123292E+03  0.69079123293E+03  0.25500000000E-02 0. -1.
         -2   -1    0    0    0  501 -0.00000000000E+00 -0.00000000000E+00 -0.27357358740E+03  0.27357358741E+03  0.25500000000E-02 0.  1.
    8880023    1    1    2    0    0  0.12173460313E+02 -0.25128533619E+02  0.18463102859E+03  0.68460094896E+03  0.65864270000E+03 0.  1.
    8880022    1    1    2    0    0 -0.12173460313E+02  0.25128533619E+02  0.23258661693E+03  0.27976387138E+03  0.15294330000E+03 0.  0.
<mgrwt>
<rscale>  0 0.45940140E+03</rscale>
<asrwt>0</asrwt>
<pdfrwt beam="1">  1        2 0.10627558E+00 0.65923429E+03</pdfrwt>
<pdfrwt beam="2">  1       -2 0.42088244E-01 0.65923429E+03</pdfrwt>
<totfact> 0.22588403E+02</totfact>
</mgrwt>
</event>
<event>
 4    5  0.7289609E-008  0.1185541E+04  0.7818608E-02  0.9171307E-01
         -2   -1    0    0    0  501 -0.00000000000E+00  0.00000000000E+00  0.83404325141E+03  0.83404325141E+03  0.25500000000E-02 0.  1.
          2   -1    0    0  501    0  0.00000000000E+00 -0.00000000000E+00 -0.23142051918E+04  0.23142051918E+04  0.25500000000E-02 0. -1.
    8880023    1    1    2    0    0  0.74579864799E+03 -0.64457820982E+03  0.19215411022E+03  0.12010121149E+04  0.65864270000E+03 0.  0.
    8880022    1    1    2    0    0 -0.74579864799E+03  0.64457820982E+03 -0.16723160506E+04  0.19472363282E+04  0.15294330000E+03 0.  0.
<mgrwt>
<rscale>  0 0.11354554E+04</rscale>
<asrwt>0</asrwt>
<pdfrwt beam="1">  1        2 0.35603157E+00 0.11855408E+04</pdfrwt>
<pdfrwt beam="2">  1       -2 0.12831435E+00 0.11855408E+04</pdfrwt>
<totfact> 0.19566400E+00</totfact>
</mgrwt>
</event>
<event>
 4    5  0.7289609E-008  0.9144707E+03  0.7818608E-02  0.9503190E-01
          2   -1    0    0  501    0  0.00000000000E+00  0.00000000000E+00  0.14905580064E+04  0.14905580064E+04  0.25500000000E-02 0. -1.
         -2   -1    0    0    0  501 -0.00000000000E+00 -0.00000000000E+00 -0.31206199217E+04  0.31206199217E+04  0.25500000000E-02 0.  1.
    8880023    1    1    2    0    0 -0.38255672725E+03 -0.50606003726E+03 -0.29771082086E+04  0.31143907755E+04  0.65864270000E+03 0.  1.
    8880022    1    1    2    0    0  0.38255672725E+03  0.50606003726E+03  0.13470462933E+04  0.14967871526E+04  0.15294330000E+03 0.  0.
<mgrwt>
<rscale>  0 0.84049067E+03</rscale>
<asrwt>0</asrwt>
<pdfrwt beam="1">  1        2 0.22931662E+00 0.91447068E+03</pdfrwt>
<pdfrwt beam="2">  1       -2 0.48009537E+00 0.91447068E+03</pdfrwt>
<totfact> 0.29295589E-02</totfact>
</mgrwt>
</event>
<event>
 4    5  0.8135954E-008  0.1238109E+04  0.7818608E-02  0.9120939E-01
          2   -1    0    0  501    0  0.00000000000E+00  0.00000000000E+00  0.22253248968E+04  0.22253248968E+04  0.25500000000E-02 0. -1.
         -2   -1    0    0    0  501 -0.00000000000E+00 -0.00000000000E+00 -0.12378226982E+04  0.12378226982E+04  0.25500000000E-02 0.  1.
    8880023    1    1    2    0    0  0.84431183565E+03  0.62148370807E+03 -0.73577339954E+03  0.14402351117E+04  0.65864270000E+03 0.  0.
    8880022    1    1    2    0    0 -0.84431183565E+03 -0.62148370807E+03  0.17232755981E+04  0.20229124833E+04  0.15294330000E+03 0.  0.
<mgrwt>
<rscale>  0 0.11908097E+04</rscale>
<asrwt>0</asrwt>
<pdfrwt beam="1">  1        2 0.34235767E+00 0.12381093E+04</pdfrwt>
<pdfrwt beam="2">  1       -2 0.19043427E+00 0.12381093E+04</pdfrwt>
<totfact> 0.74495674E-01</totfact>
</mgrwt>
</event>
<event>
 4    5  0.7289609E-008  0.7961756E+03  0.7818608E-02  0.9719127E-01
         -2   -1    0    0    0  501 -0.00000000000E+00  0.00000000000E+00  0.39287641712E+03  0.39287641713E+03  0.25500000000E-02 0.  1.
          2   -1    0    0  501    0  0.00000000000E+00 -0.00000000000E+00 -0.14309553648E+04  0.14309553648E+04  0.25500000000E-02 0. -1.
    8880023    1    1    2    0    0  0.39706256865E+03 -0.20597745587E+03 -0.13924096209E+03  0.80825964117E+03  0.65864270000E+03 0.  0.
    8880022    1    1    2    0    0 -0.39706256865E+03  0.20597745587E+03 -0.89883798555E+03  0.10155721407E+04  0.15294330000E+03 0.  0.
<mgrwt>
<rscale>  0 0.69889312E+03</rscale>
<asrwt>0</asrwt>
<pdfrwt beam="1">  1        2 0.22014698E+00 0.79617561E+03</pdfrwt>
<pdfrwt beam="2">  1       -2 0.60442526E-01 0.79617561E+03</pdfrwt>
<totfact> 0.36019691E+01</totfact>
</mgrwt>
</event>
<event>
 4    5  0.7289609E-008  0.8719937E+03  0.7818608E-02  0.9572575E-01
          2   -1    0    0  501    0  0.00000000000E+00  0.00000000000E+00  0.18239705769E+04  0.18239705769E+04  0.25500000000E-02 0. -1.
         -2   -1    0    0    0  501 -0.00000000000E+00 -0.00000000000E+00 -0.42643121369E+03  0.42643121370E+03  0.25500000000E-02 0.  1.
    8880023    1    1    2    0    0  0.48920726078E+03  0.29536266078E+03  0.17092507623E+03  0.88858788723E+03  0.65864270000E+03 0.  1.
    8880022    1    1    2    0    0 -0.48920726078E+03 -0.29536266078E+03  0.12266142870E+04  0.13618139034E+04  0.15294330000E+03 0.  0.
<mgrwt>
<rscale>  0 0.79138254E+03</rscale>
<asrwt>0</asrwt>
<pdfrwt beam="1">  1        2 0.28061086E+00 0.87199372E+03</pdfrwt>
<pdfrwt beam="2">  1       -2 0.65604801E-01 0.87199372E+03</pdfrwt>
<totfact> 0.18175478E+01</totfact>
</mgrwt>
</event>
<event>
 4    5  0.7289609E-008  0.9083711E+03  0.7818608E-02  0.9512725E-01
          2   -1    0    0  501    0  0.00000000000E+00  0.00000000000E+00  0.22244535617E+04  0.22244535617E+04  0.25500000000E-02 0. -1.
         -2   -1    0    0    0  501 -0.00000000000E+00 -0.00000000000E+00 -0.43134303754E+03  0.43134303755E+03  0.25500000000E-02 0.  1.
    8880023    1    1    2    0    0 -0.51031923329E+03  0.36180400798E+03  0.18980091942E+03  0.92798839181E+03  0.65864270000E+03 0.  1.
    8880022    1    1    2    0    0  0.51031923329E+03 -0.36180400798E+03  0.16033096047E+04  0.17278082074E+04  0.15294330000E+03 0.  0.
<mgrwt>
<rscale>  0 0.83352147E+03</rscale>
<asrwt>0</asrwt>
<pdfrwt beam="1">  1        2 0.34222361E+00 0.90837111E+03</pdfrwt>
<pdfrwt beam="2">  1       -2 0.66360470E-01 0.90837111E+03</pdfrwt>
<totfact> 0.10630057E+01</totfact>
</mgrwt>
</event>
<event>
 4    5  0.7289609E-008  0.1128565E+04  0.7818608E-02  0.9229900E-01
         -2   -1    0    0    0  501 -0.00000000000E+00  0.00000000000E+00  0.13426384228E+04  0.13426384228E+04  0.25500000000E-02 0.  1.
          2   -1    0    0  501    0  0.00000000000E+00 -0.00000000000E+00 -0.17150969910E+04  0.17150969910E+04  0.25500000000E-02 0. -1.
    8880023    1    1    2    0    0 -0.57167914001E+01  0.91641491746E+03  0.92687172957E+03  0.14603939167E+04  0.65864270000E+03 0.  0.
    8880022    1    1    2    0    0  0.57167914001E+01 -0.91641491746E+03 -0.12993302978E+04  0.15973414971E+04  0.15294330000E+03 0.  0.
<mgrwt>
<rscale>  0 0.10750074E+04</rscale>
<asrwt>0</asrwt>
<pdfrwt beam="1">  1        2 0.26386108E+00 0.11285651E+04</pdfrwt>
<pdfrwt beam="2">  1       -2 0.20655976E+00 0.11285651E+04</pdfrwt>
<totfact> 0.11346361E+00</totfact>
</mgrwt>
</event>
<event>
 4    5  0.7289609E-008  0.1884063E+04  0.7818608E-02  0.8677408E-01
          2   -1    0    0  501    0  0.00000000000E+00  0.00000000000E+00  0.32483476345E+04  0.32483476345E+04  0.25500000000E-02 0. -1.
         -2   -1    0    0    0  501 -0.00000000000E+00 -0.00000000000E+00 -0.15215310126E+04  0.15215310126E+04  0.25500000000E-02 0.  1.
    8880023    1    1    2    0    0  0.86152714668E+03 -0.15406667301E+04 -0.47566889635E+03  0.19431814385E+04  0.65864270000E+03 0.  0.
    8880022    1    1    2    0    0 -0.86152714668E+03  0.15406667301E+04  0.22024855182E+04  0.28266972085E+04  0.15294330000E+03 0.  0.
<mgrwt>
<rscale>  0 0.18553473E+04</rscale>
<asrwt>0</asrwt>
<pdfrwt beam="1">  1        2 0.49974579E+00 0.18840630E+04</pdfrwt>
<pdfrwt beam="2">  1       -2 0.23408170E+00 0.18840630E+04</pdfrwt>
<totfact> 0.87487633E-02</totfact>
</mgrwt>
</event>
<event>
 4    5  0.7289609E-008  0.1393536E+04  0.7818608E-02  0.8988722E-01
         -2   -1    0    0    0  501 -0.00000000000E+00  0.00000000000E+00  0.66234658327E+03  0.66234658328E+03  0.25500000000E-02 0.  1.
          2   -1    0    0  501    0  0.00000000000E+00 -0.00000000000E+00 -0.30242930703E+04  0.30242930703E+04  0.25500000000E-02 0. -1.
    8880023    1    1    2    0    0  0.13819334226E+03 -0.12202603374E+04 -0.56264822854E+03  0.15028359612E+04  0.65864270000E+03 0.  0.
    8880022    1    1    2    0    0 -0.13819334226E+03  0.12202603374E+04 -0.17992982584E+04  0.21838036924E+04  0.15294330000E+03 0.  0.
<mgrwt>
<rscale>  0 0.13527862E+04</rscale>
<asrwt>0</asrwt>
<pdfrwt beam="1">  1        2 0.46527585E+00 0.13935361E+04</pdfrwt>
<pdfrwt beam="2">  1       -2 0.10189948E+00 0.13935361E+04</pdfrwt>
<totfact> 0.12845912E+00</totfact>
</mgrwt>
</event>
<event>
 4    5  0.7289609E-008  0.6623165E+03  0.7818608E-02  0.1021899E+00
          2   -1    0    0  501    0  0.00000000000E+00  0.00000000000E+00  0.25915092870E+04  0.25915092870E+04  0.25500000000E-02 0. -1.
         -2   -1    0    0    0  501 -0.00000000000E+00 -0.00000000000E+00 -0.10375427431E+03  0.10375427434E+03  0.25500000000E-02 0.  1.
    8880023    1    1    2    0    0  0.34177695538E+02  0.60703288388E+02  0.10087941428E+04  0.12067845014E+04  0.65864270000E+03 0.  1.
    8880022    1    1    2    0    0 -0.34177695538E+02 -0.60703288388E+02  0.14789608699E+04  0.14884790599E+04  0.15294330000E+03 0.  0.
<mgrwt>
<rscale>  0 0.47007401E+03</rscale>
<asrwt>0</asrwt>
<pdfrwt beam="1">  1        2 0.39869374E+00 0.66231655E+03</pdfrwt>
<pdfrwt beam="2">  1       -2 0.15962196E-01 0.66231655E+03</pdfrwt>
<totfact> 0.10214799E+02</totfact>
</mgrwt>
</event>
<event>
 4    5  0.7289609E-008  0.7666598E+03  0.7818608E-02  0.9788161E-01
         -2   -1    0    0    0  501 -0.00000000000E+00  0.00000000000E+00  0.33154167745E+03  0.33154167746E+03  0.25500000000E-02 0.  1.
          2   -1    0    0  501    0  0.00000000000E+00 -0.00000000000E+00 -0.34352318835E+04  0.34352318835E+04  0.25500000000E-02 0. -1.
    8880023    1    1    2    0    0  0.27622433201E+03  0.27867032969E+03 -0.14747752617E+03  0.78071560842E+03  0.65864270000E+03 0.  1.
    8880022    1    1    2    0    0 -0.27622433201E+03 -0.27867032969E+03 -0.29562126798E+04  0.29860579525E+04  0.15294330000E+03 0.  0.
<mgrwt>
<rscale>  0 0.66001760E+03</rscale>
<asrwt>0</asrwt>
<pdfrwt beam="1">  1        2 0.52849719E+00 0.76665979E+03</pdfrwt>
<pdfrwt beam="2">  1       -2 0.51006414E-01 0.76665979E+03</pdfrwt>
<totfact> 0.35357681E+00</totfact>
</mgrwt>
</event>
<event>
 4    5  0.7289609E-008  0.1160076E+04  0.7818608E-02  0.9196944E-01
          2   -1    0    0  501    0  0.00000000000E+00  0.00000000000E+00  0.10835833036E+04  0.10835833036E+04  0.25500000000E-02 0. -1.
         -2   -1    0    0    0  501 -0.00000000000E+00 -0.00000000000E+00 -0.15302469691E+04  0.15302469691E+04  0.25500000000E-02 0.  1.
    8880023    1    1    2    0    0 -0.71480800366E+03 -0.63325746048E+03 -0.97178910963E+03  0.15133240807E+04  0.65864270000E+03 0.  0.
    8880022    1    1    2    0    0  0.71480800366E+03  0.63325746048E+03  0.52512544413E+03  0.11005061919E+04  0.15294330000E+03 0.  0.
<mgrwt>
<rscale>  0 0.11085032E+04</rscale>
<asrwt>0</asrwt>
<pdfrwt beam="1">  1        2 0.16670512E+00 0.11600757E+04</pdfrwt>
<pdfrwt beam="2">  1       -2 0.23542261E+00 0.11600757E+04</pdfrwt>
<totfact> 0.17229571E+00</totfact>
</mgrwt>
</event>
<event>
 4    5  0.7289609E-008  0.1051274E+04  0.7818608E-02  0.9317352E-01
          2   -1    0    0  501    0  0.00000000000E+00  0.00000000000E+00  0.11281296880E+04  0.11281296880E+04  0.25500000000E-02 0. -1.
         -2   -1    0    0    0  501 -0.00000000000E+00 -0.00000000000E+00 -0.10915827314E+04  0.10915827314E+04  0.25500000000E-02 0.  1.
    8880023    1    1    2    0    0  0.16974194454E+03 -0.80159461266E+03 -0.56340287691E+03  0.11927276549E+04  0.65864270000E+03 0.  1.
    8880022    1    1    2    0    0 -0.16974194454E+03  0.80159461266E+03  0.59994983352E+03  0.10269847645E+04  0.15294330000E+03 0.  0.
<mgrwt>
<rscale>  0 0.99200999E+03</rscale>
<asrwt>0</asrwt>
<pdfrwt beam="1">  1        2 0.17355841E+00 0.10512737E+04</pdfrwt>
<pdfrwt beam="2">  1       -2 0.16793580E+00 0.10512737E+04</pdfrwt>
<totfact> 0.45511807E+00</totfact>
</mgrwt>
</event>
<event>
 4    5  0.7289609E-008  0.6813470E+03  0.7818608E-02  0.1008572E+00
          2   -1    0    0  501    0  0.00000000000E+00  0.00000000000E+00  0.20399450526E+04  0.20399450526E+04  0.25500000000E-02 0. -1.
         -2   -1    0    0    0  501 -0.00000000000E+00 -0.00000000000E+00 -0.23014131812E+03  0.23014131813E+03  0.25500000000E-02 0.  1.
    8880023    1    1    2    0    0 -0.82299610482E+02  0.15378639095E+03  0.30326270924E+03  0.74578948572E+03  0.65864270000E+03 0.  1.
    8880022    1    1    2    0    0  0.82299610482E+02 -0.15378639095E+03  0.15065410253E+04  0.15242968850E+04  0.15294330000E+03 0.  0.
<mgrwt>
<rscale>  0 0.52046232E+03</rscale>
<asrwt>0</asrwt>
<pdfrwt beam="1">  1        2 0.31383772E+00 0.68134696E+03</pdfrwt>
<pdfrwt beam="2">  1       -2 0.35406355E-01 0.68134696E+03</pdfrwt>
<totfact> 0.49454780E+01</totfact>
</mgrwt>
</event>
<event>
 4    5  0.7289609E-008  0.7970876E+03  0.7818608E-02  0.9717129E-01
          2   -1    0    0  501    0  0.00000000000E+00  0.00000000000E+00  0.88062582918E+03  0.88062582919E+03  0.25500000000E-02 0. -1.
         -2   -1    0    0    0  501 -0.00000000000E+00 -0.00000000000E+00 -0.89739894874E+03  0.89739894875E+03  0.25500000000E-02 0.  1.
    8880023    1    1    2    0    0  0.44668113556E+03 -0.44882893093E+02 -0.62061215977E+03  0.10102020442E+04  0.65864270000E+03 0.  0.
    8880022    1    1    2    0    0 -0.44668113556E+03  0.44882893093E+02  0.60383904021E+03  0.76782273375E+03  0.15294330000E+03 0. -1.
<mgrwt>
<rscale>  0 0.70006042E+03</rscale>
<asrwt>0</asrwt>
<pdfrwt beam="1">  1        2 0.13548090E+00 0.79708765E+03</pdfrwt>
<pdfrwt beam="2">  1       -2 0.13806138E+00 0.79708765E+03</pdfrwt>
<totfact> 0.11380988E+01</totfact>
</mgrwt>
</event>
<event>
 4    5  0.7289609E-008  0.9895661E+03  0.7818608E-02  0.9395338E-01
          2   -1    0    0  501    0  0.00000000000E+00  0.00000000000E+00  0.32115439856E+04  0.32115439856E+04  0.25500000000E-02 0. -1.
         -2   -1    0    0    0  501 -0.00000000000E+00 -0.00000000000E+00 -0.58650955811E+03  0.58650955812E+03  0.25500000000E-02 0.  1.
    8880023    1    1    2    0    0 -0.46511187033E+03 -0.57367388317E+03 -0.77170672678E+02  0.99257054920E+03  0.65864270000E+03 0.  1.
    8880022    1    1    2    0    0  0.46511187033E+03  0.57367388317E+03  0.27022051002E+04  0.28054829946E+04  0.15294330000E+03 0.  0.
<mgrwt>
<rscale>  0 0.92460382E+03</rscale>
<asrwt>0</asrwt>
<pdfrwt beam="1">  1        2 0.49408370E+00 0.98956606E+03</pdfrwt>
<pdfrwt beam="2">  1       -2 0.90232238E-01 0.98956606E+03</pdfrwt>
<totfact> 0.13758602E+00</totfact>
</mgrwt>
</event>
<event>
 4    5  0.7289609E-008  0.7689474E+03  0.7818608E-02  0.9782471E-01
          2   -1    0    0  501    0  0.00000000000E+00  0.00000000000E+00  0.14793033758E+04  0.14793033758E+04  0.25500000000E-02 0. -1.
         -2   -1    0    0    0  501 -0.00000000000E+00 -0.00000000000E+00 -0.66249624852E+03  0.66249624852E+03  0.25500000000E-02 0.  1.
    8880023    1    1    2    0    0  0.26310585685E+03  0.29706100937E+03 -0.39004006304E+03  0.86221307821E+03  0.65864270000E+03 0.  1.
    8880022    1    1    2    0    0 -0.26310585685E+03 -0.29706100937E+03  0.12068471903E+04  0.12795865461E+04  0.15294330000E+03 0.  0.
<mgrwt>
<rscale>  0 0.66311794E+03</rscale>
<asrwt>0</asrwt>
<pdfrwt beam="1">  1        2 0.22758513E+00 0.76894742E+03</pdfrwt>
<pdfrwt beam="2">  1       -2 0.10192250E+00 0.76894742E+03</pdfrwt>
<totfact> 0.10517398E+01</totfact>
</mgrwt>
</event>
<event>
 4    5  0.7289609E-008  0.8020648E+03  0.7818608E-02  0.9706349E-01
         -2   -1    0    0    0  501 -0.00000000000E+00  0.00000000000E+00  0.13251892943E+04  0.13251892943E+04  0.25500000000E-02 0.  1.
          2   -1    0    0  501    0  0.00000000000E+00 -0.00000000000E+00 -0.11962730409E+04  0.11962730409E+04  0.25500000000E-02 0. -1.
    8880023    1    1    2    0    0 -0.44106745152E+03 -0.12229965833E+03  0.11442017721E+04  0.13973208668E+04  0.65864270000E+03 0.  1.
    8880022    1    1    2    0    0  0.44106745152E+03  0.12229965833E+03 -0.10152855187E+04  0.11241414683E+04  0.15294330000E+03 0.  0.
<mgrwt>
<rscale>  0 0.70640016E+03</rscale>
<asrwt>0</asrwt>
<pdfrwt beam="1">  1        2 0.18404201E+00 0.80206478E+03</pdfrwt>
<pdfrwt beam="2">  1       -2 0.20387528E+00 0.80206478E+03</pdfrwt>
<totfact> 0.24345919E+00</totfact>
</mgrwt>
</event>
<event>
 4    5  0.7289609E-008  0.6788968E+03  0.7818608E-02  0.1009955E+00
         -2   -1    0    0    0  501 -0.00000000000E+00  0.00000000000E+00  0.10759622771E+03  0.10759622774E+03  0.25500000000E-02 0.  1.
          2   -1    0    0  501    0  0.00000000000E+00 -0.00000000000E+00 -0.35373375963E+04  0.35373375963E+04  0.25500000000E-02 0. -1.
    8880023    1    1    2    0    0  0.16419828063E+03 -0.11386203911E+02 -0.10232886033E+04  0.12280148586E+04  0.65864270000E+03 0.  1.
    8880022    1    1    2    0    0 -0.16419828063E+03  0.11386203911E+02 -0.24064527653E+04  0.24169189655E+04  0.15294330000E+03 0.  0.
<mgrwt>
<rscale>  0 0.51492658E+03</rscale>
<asrwt>0</asrwt>
<pdfrwt beam="1">  1        2 0.54420569E+00 0.67889685E+03</pdfrwt>
<pdfrwt beam="2">  1       -2 0.16553269E-01 0.67889685E+03</pdfrwt>
<totfact> 0.24751230E+01</totfact>
</mgrwt>
</event>
<event>
 4    5  0.7289609E-008  0.1478022E+04  0.7818608E-02  0.8925313E-01
          2   -1    0    0  501    0  0.00000000000E+00  0.00000000000E+00  0.42153375685E+04  0.42153375685E+04  0.25500000000E-02 0. -1.
         -2   -1    0    0    0  501 -0.00000000000E+00 -0.00000000000E+00 -0.15224496608E+04  0.15224496608E+04  0.25500000000E-02 0.  1.
    8880023    1    1    2    0    0  0.43820998705E+03  0.12484834165E+04 -0.10182759182E+04  0.17948356153E+04  0.65864270000E+03 0.  0.
    8880022    1    1    2    0    0 -0.43820998705E+03 -0.12484834165E+04  0.37111638259E+04  0.39429516140E+04  0.15294330000E+03 0.  0.
<mgrwt>
<rscale>  0 0.14400709E+04</rscale>
<asrwt>0</asrwt>
<pdfrwt beam="1">  1        2 0.64851347E+00 0.14780220E+04</pdfrwt>
<pdfrwt beam="2">  1       -2 0.23422303E+00 0.14780220E+04</pdfrwt>
<totfact> 0.17450339E-02</totfact>
</mgrwt>
</event>
<event>
 4    5  0.7289609E-008  0.8709590E+03  0.7818608E-02  0.9574359E-01
         -2   -1    0    0    0  501 -0.00000000000E+00  0.00000000000E+00  0.91747255384E+03  0.91747255384E+03  0.25500000000E-02 0.  1.
          2   -1    0    0  501    0  0.00000000000E+00 -0.00000000000E+00 -0.93867280888E+03  0.93867280889E+03  0.25500000000E-02 0. -1.
    8880023    1    1    2    0    0  0.32646559113E+02  0.56894080227E+03  0.55392165277E+03  0.10321815916E+04  0.65864270000E+03 0.  1.
    8880022    1    1    2    0    0 -0.32646559113E+02 -0.56894080227E+03 -0.57512190781E+03  0.82396377115E+03  0.15294330000E+03 0.  0.
<mgrwt>
<rscale>  0 0.79016769E+03</rscale>
<asrwt>0</asrwt>
<pdfrwt beam="1">  1        2 0.14441120E+00 0.87095903E+03</pdfrwt>
<pdfrwt beam="2">  1       -2 0.14114962E+00 0.87095903E+03</pdfrwt>
<totfact> 0.97483702E+00</totfact>
</mgrwt>
</event>
<event>
 4    5  0.7289609E-008  0.6615632E+03  0.7818608E-02  0.1022609E+00
          2   -1    0    0  501    0  0.00000000000E+00  0.00000000000E+00  0.86712012729E+03  0.86712012729E+03  0.25500000000E-02 0. -1.
         -2   -1    0    0    0  501 -0.00000000000E+00 -0.00000000000E+00 -0.10037336219E+04  0.10037336219E+04  0.25500000000E-02 0.  1.
    8880023    1    1    2    0    0  0.61969561697E+02  0.39272805046E+01 -0.88474124751E+03  0.11047320632E+04  0.65864270000E+03 0.  1.
    8880022    1    1    2    0    0 -0.61969561697E+02 -0.39272805046E+01  0.74812775290E+03  0.76612168601E+03  0.15294330000E+03 0.  0.
<mgrwt>
<rscale>  0 0.46756710E+03</rscale>
<asrwt>0</asrwt>
<pdfrwt beam="1">  1        2 0.13340310E+00 0.66156319E+03</pdfrwt>
<pdfrwt beam="2">  1       -2 0.15442056E+00 0.66156319E+03</pdfrwt>
<totfact> 0.88084646E+00</totfact>
</mgrwt>
</event>
<event>
 4    5  0.7289609E-008  0.1168173E+04  0.7818608E-02  0.9188699E-01
         -2   -1    0    0    0  501 -0.00000000000E+00  0.00000000000E+00  0.45082312805E+03  0.45082312806E+03  0.25500000000E-02 0.  1.
          2   -1    0    0  501    0  0.00000000000E+00 -0.00000000000E+00 -0.34385690923E+04  0.34385690923E+04  0.25500000000E-02 0. -1.
    8880023    1    1    2    0    0 -0.96293976406E+03  0.59704393251E+02 -0.60792165742E+03  0.13168889671E+04  0.65864270000E+03 0. -1.
    8880022    1    1    2    0    0  0.96293976406E+03 -0.59704393251E+02 -0.23798243068E+04  0.25725032533E+04  0.15294330000E+03 0.  0.
<mgrwt>
<rscale>  0 0.11170839E+04</rscale>
<asrwt>0</asrwt>
<pdfrwt beam="1">  1        2 0.52901061E+00 0.11681729E+04</pdfrwt>
<pdfrwt beam="2">  1       -2 0.69357407E-01 0.11681729E+04</pdfrwt>
<totfact> 0.17152806E+00</totfact>
</mgrwt>
</event>
<event>
 4    5  0.7289609E-008  0.8266036E+03  0.7818608E-02  0.9655977E-01
         -2   -1    0    0    0  501 -0.00000000000E+00  0.00000000000E+00  0.22968397774E+03  0.22968397776E+03  0.25500000000E-02 0.  1.
          2   -1    0    0  501    0  0.00000000000E+00 -0.00000000000E+00 -0.32831476068E+04  0.32831476068E+04  0.25500000000E-02 0. -1.
    8880023    1    1    2    0    0 -0.49163523542E+03 -0.88080500038E+02 -0.64527786396E+03  0.10486453677E+04  0.65864270000E+03 0.  0.
    8880022    1    1    2    0    0  0.49163523542E+03  0.88080500038E+02 -0.24081857651E+04  0.24641862169E+04  0.15294330000E+03 0.  0.
<mgrwt>
<rscale>  0 0.73699490E+03</rscale>
<asrwt>0</asrwt>
<pdfrwt beam="1">  1        2 0.50509960E+00 0.82660364E+03</pdfrwt>
<pdfrwt beam="2">  1       -2 0.35335999E-01 0.82660364E+03</pdfrwt>
<totfact> 0.90967547E+00</totfact>
</mgrwt>
</event>
<event>
 4    5  0.7289609E-008  0.1617583E+04  0.7818608E-02  0.8830780E-01
         -2   -1    0    0    0  501 -0.00000000000E+00  0.00000000000E+00  0.97915587573E+03  0.97915587573E+03  0.25500000000E-02 0.  1.
          2   -1    0    0  501    0  0.00000000000E+00 -0.00000000000E+00 -0.42685061327E+04  0.42685061327E+04  0.25500000000E-02 0. -1.
    8880023    1    1    2    0    0 -0.66491938900E+03 -0.13193352777E+04  0.22772558677E+02  0.16177429229E+04  0.65864270000E+03 0. -1.
    8880022    1    1    2    0    0  0.66491938900E+03  0.13193352777E+04 -0.33121228157E+04  0.36299190856E+04  0.15294330000E+03 0.  0.
<mgrwt>
<rscale>  0 0.15834500E+04</rscale>
<asrwt>0</asrwt>
<pdfrwt beam="1">  1        2 0.65669324E+00 0.16175826E+04</pdfrwt>
<pdfrwt beam="2">  1       -2 0.15063937E+00 0.16175826E+04</pdfrwt>
<totfact> 0.56981149E-02</totfact>
</mgrwt>
</event>
<event>
 4    5  0.7289609E-008  0.7376524E+03  0.7818608E-02  0.9866839E-01
         -2   -1    0    0    0  501 -0.00000000000E+00  0.00000000000E+00  0.15827207599E+03  0.15827207601E+03  0.25500000000E-02 0.  1.
          2   -1    0    0  501    0  0.00000000000E+00 -0.00000000000E+00 -0.25920598946E+04  0.25920598946E+04  0.25500000000E-02 0. -1.
    8880023    1    1    2    0    0 -0.33181086538E+03  0.14912786819E+02 -0.85259741013E+03  0.11274100370E+04  0.65864270000E+03 0.  1.
    8880022    1    1    2    0    0  0.33181086538E+03 -0.14912786819E+02 -0.15811904085E+04  0.16229219336E+04  0.15294330000E+03 0.  0.
<mgrwt>
<rscale>  0 0.61895677E+03</rscale>
<asrwt>0</asrwt>
<pdfrwt beam="1">  1        2 0.39877841E+00 0.73765239E+03</pdfrwt>
<pdfrwt beam="2">  1       -2 0.24349552E-01 0.73765239E+03</pdfrwt>
<totfact> 0.48330671E+01</totfact>
</mgrwt>
</event>
<event>
 4    5  0.7289609E-008  0.7939361E+03  0.7818608E-02  0.9724064E-01
         -2   -1    0    0    0  501 -0.00000000000E+00  0.00000000000E+00  0.13390831675E+04  0.13390831675E+04  0.25500000000E-02 0.  1.
          2   -1    0    0  501    0  0.00000000000E+00 -0.00000000000E+00 -0.12850887832E+04  0.12850887832E+04  0.25500000000E-02 0. -1.
    8880023    1    1    2    0    0  0.44292931797E+03  0.18382047379E+02  0.11698275988E+04  0.14138002326E+04  0.65864270000E+03 0.  0.
    8880022    1    1    2    0    0 -0.44292931797E+03 -0.18382047379E+02 -0.11158332145E+04  0.12103717181E+04  0.15294330000E+03 0. -1.
<mgrwt>
<rscale>  0 0.69601923E+03</rscale>
<asrwt>0</asrwt>
<pdfrwt beam="1">  1        2 0.19770597E+00 0.79393607E+03</pdfrwt>
<pdfrwt beam="2">  1       -2 0.20601279E+00 0.79393607E+03</pdfrwt>
<totfact> 0.20946556E+00</totfact>
</mgrwt>
</event>
<event>
 4    5  0.7289609E-008  0.1427216E+04  0.7818608E-02  0.8962818E-01
          2   -1    0    0  501    0  0.00000000000E+00  0.00000000000E+00  0.16539190862E+04  0.16539190862E+04  0.25500000000E-02 0. -1.
         -2   -1    0    0    0  501 -0.00000000000E+00 -0.00000000000E+00 -0.14845421140E+04  0.14845421141E+04  0.25500000000E-02 0.  1.
    8880023    1    1    2    0    0 -0.13537508541E+03 -0.12588922881E+04 -0.70530708036E+03  0.15919813098E+04  0.65864270000E+03 0.  1.
    8880022    1    1    2    0    0  0.13537508541E+03  0.12588922881E+04  0.87468405249E+03  0.15464798904E+04  0.15294330000E+03 0.  0.
<mgrwt>
<rscale>  0 0.13876343E+04</rscale>
<asrwt>0</asrwt>
<pdfrwt beam="1">  1        2 0.25444909E+00 0.14272163E+04</pdfrwt>
<pdfrwt beam="2">  1       -2 0.22839109E+00 0.14272163E+04</pdfrwt>
<totfact> 0.86170601E-01</totfact>
</mgrwt>
</event>
<event>
 4    5  0.7289609E-008  0.8558614E+03  0.7818608E-02  0.9600968E-01
          2   -1    0    0  501    0  0.00000000000E+00  0.00000000000E+00  0.11297697693E+04  0.11297697693E+04  0.25500000000E-02 0. -1.
         -2   -1    0    0    0  501 -0.00000000000E+00 -0.00000000000E+00 -0.78581403118E+03  0.78581403118E+03  0.25500000000E-02 0.  1.
    8880023    1    1    2    0    0 -0.50884879682E+03  0.19940261506E+03 -0.42843862971E+03  0.95710938069E+03  0.65864270000E+03 0.  1.
    8880022    1    1    2    0    0  0.50884879682E+03 -0.19940261506E+03  0.77239436779E+03  0.95847441975E+03  0.15294330000E+03 0.  0.
<mgrwt>
<rscale>  0 0.77232140E+03</rscale>
<asrwt>0</asrwt>
<pdfrwt beam="1">  1        2 0.17381073E+00 0.85586138E+03</pdfrwt>
<pdfrwt beam="2">  1       -2 0.12089447E+00 0.85586138E+03</pdfrwt>
<totfact> 0.10959641E+01</totfact>
</mgrwt>
</event>
<event>
 4    5  0.7289609E-008  0.7169414E+03  0.7818608E-02  0.9933075E-01
         -2   -1    0    0    0  501 -0.00000000000E+00  0.00000000000E+00  0.34079148096E+03  0.34079148097E+03  0.25500000000E-02 0.  1.
          2   -1    0    0  501    0  0.00000000000E+00 -0.00000000000E+00 -0.38730968349E+04  0.38730968349E+04  0.25500000000E-02 0. -1.
    8880023    1    1    2    0    0 -0.35561973492E+02  0.28094491034E+03 -0.52099436839E+02  0.71883186782E+03  0.65864270000E+03 0.  1.
    8880022    1    1    2    0    0  0.35561973492E+02 -0.28094491034E+03 -0.34802059171E+04  0.34950564481E+04  0.15294330000E+03 0.  0.
<mgrwt>
<rscale>  0 0.58684788E+03</rscale>
<asrwt>0</asrwt>
<pdfrwt beam="1">  1        2 0.59586102E+00 0.71694135E+03</pdfrwt>
<pdfrwt beam="2">  1       -2 0.52429462E-01 0.71694135E+03</pdfrwt>
<totfact> 0.16493527E+00</totfact>
</mgrwt>
</event>
<event>
 4    5  0.7289609E-008  0.1788266E+04  0.7818608E-02  0.8729055E-01
         -2   -1    0    0    0  501 -0.00000000000E+00  0.00000000000E+00  0.14287810576E+04  0.14287810576E+04  0.25500000000E-02 0.  1.
          2   -1    0    0  501    0  0.00000000000E+00 -0.00000000000E+00 -0.31892438127E+04  0.31892438127E+04  0.25500000000E-02 0. -1.
    8880023    1    1    2    0    0 -0.30106606871E+03  0.16350667847E+04  0.45371824518E+03  0.18449267250E+04  0.65864270000E+03 0.  0.
    8880022    1    1    2    0    0  0.30106606871E+03 -0.16350667847E+04 -0.22141810003E+04  0.27730981453E+04  0.15294330000E+03 0.  0.
<mgrwt>
<rscale>  0 0.17578242E+04</rscale>
<asrwt>0</asrwt>
<pdfrwt beam="1">  1        2 0.49065289E+00 0.17882657E+04</pdfrwt>
<pdfrwt beam="2">  1       -2 0.21981247E+00 0.17882657E+04</pdfrwt>
<totfact> 0.11896880E-01</totfact>
</mgrwt>
</event>
<event>
 4    5  0.7289609E-008  0.1177982E+04  0.7818608E-02  0.9178829E-01
          2   -1    0    0  501    0  0.00000000000E+00  0.00000000000E+00  0.23613732634E+04  0.23613732634E+04  0.25500000000E-02 0. -1.
         -2   -1    0    0    0  501 -0.00000000000E+00 -0.00000000000E+00 -0.88150061472E+03  0.88150061472E+03  0.25500000000E-02 0.  1.
    8880023    1    1    2    0    0 -0.54706678850E+03  0.80904170818E+03 -0.29223538780E+03  0.12136895339E+04  0.65864270000E+03 0.  1.
    8880022    1    1    2    0    0  0.54706678850E+03 -0.80904170818E+03  0.17721080365E+04  0.20291843441E+04  0.15294330000E+03 0.  0.
<mgrwt>
<rscale>  0 0.11274650E+04</rscale>
<asrwt>0</asrwt>
<pdfrwt beam="1">  1        2 0.36328820E+00 0.11779816E+04</pdfrwt>
<pdfrwt beam="2">  1       -2 0.13561548E+00 0.11779816E+04</pdfrwt>
<totfact> 0.15988072E+00</totfact>
</mgrwt>
</event>
<event>
 4    5  0.7289609E-008  0.7868087E+03  0.7818608E-02  0.9740080E-01
          2   -1    0    0  501    0  0.00000000000E+00  0.00000000000E+00  0.16997372912E+04  0.16997372912E+04  0.25500000000E-02 0. -1.
         -2   -1    0    0    0  501 -0.00000000000E+00 -0.00000000000E+00 -0.60141387360E+03  0.60141387360E+03  0.25500000000E-02 0.  1.
    8880023    1    1    2    0    0  0.31297303208E+03  0.29547517923E+03 -0.29081993139E+03  0.83883498920E+03  0.65864270000E+03 0.  0.
    8880022    1    1    2    0    0 -0.31297303208E+03 -0.29547517923E+03  0.13891433490E+04  0.14623161756E+04  0.15294330000E+03 0.  0.
<mgrwt>
<rscale>  0 0.68679795E+03</rscale>
<asrwt>0</asrwt>
<pdfrwt beam="1">  1        2 0.26149804E+00 0.78680868E+03</pdfrwt>
<pdfrwt beam="2">  1       -2 0.92525212E-01 0.78680868E+03</pdfrwt>
<totfact> 0.99510012E+00</totfact>
</mgrwt>
</event>
<event>
 4    5  0.7289609E-008  0.6693082E+03  0.7818608E-02  0.1016164E+00
          2   -1    0    0  501    0  0.00000000000E+00  0.00000000000E+00  0.30540153164E+04  0.30540153164E+04  0.25500000000E-02 0. -1.
         -2   -1    0    0    0  501 -0.00000000000E+00 -0.00000000000E+00 -0.28368450274E+03  0.28368450275E+03  0.25500000000E-02 0.  1.
    8880023    1    1    2    0    0  0.11876963773E+03 -0.75511345065E+01  0.11961878954E+03  0.67991330885E+03  0.65864270000E+03 0.  1.
    8880022    1    1    2    0    0 -0.11876963773E+03  0.75511345065E+01  0.26507120241E+04  0.26577865103E+04  0.15294330000E+03 0.  0.
<mgrwt>
<rscale>  0 0.49096771E+03</rscale>
<asrwt>0</asrwt>
<pdfrwt beam="1">  1        2 0.46984847E+00 0.66930819E+03</pdfrwt>
<pdfrwt beam="2">  1       -2 0.43643773E-01 0.66930819E+03</pdfrwt>
<totfact> 0.86769123E+00</totfact>
</mgrwt>
</event>
<event>
 4    5  0.7289609E-008  0.1023156E+04  0.7818608E-02  0.9351870E-01
          2   -1    0    0  501    0  0.00000000000E+00  0.00000000000E+00  0.17496241588E+04  0.17496241588E+04  0.25500000000E-02 0. -1.
         -2   -1    0    0    0  501 -0.00000000000E+00 -0.00000000000E+00 -0.63409743974E+03  0.63409743975E+03  0.25500000000E-02 0.  1.
    8880023    1    1    2    0    0 -0.76290663184E+03  0.17610243004E+03  0.13498856519E+02  0.10232453372E+04  0.65864270000E+03 0.  1.
    8880022    1    1    2    0    0  0.76290663184E+03 -0.17610243004E+03  0.11020278625E+04  0.13604762613E+04  0.15294330000E+03 0.  0.
<mgrwt>
<rscale>  0 0.96144697E+03</rscale>
<asrwt>0</asrwt>
<pdfrwt beam="1">  1        2 0.26917294E+00 0.10231563E+04</pdfrwt>
<pdfrwt beam="2">  1       -2 0.97553454E-01 0.10231563E+04</pdfrwt>
<totfact> 0.80216136E+00</totfact>
</mgrwt>
</event>
<event>
 4    5  0.7289609E-008  0.6894279E+03  0.7818608E-02  0.1004426E+00
          2   -1    0    0  501    0  0.00000000000E+00  0.00000000000E+00  0.16918588603E+04  0.16918588603E+04  0.25500000000E-02 0. -1.
         -2   -1    0    0    0  501 -0.00000000000E+00 -0.00000000000E+00 -0.74354503067E+03  0.74354503067E+03  0.25500000000E-02 0.  1.
    8880023    1    1    2    0    0 -0.14579563638E+03  0.14228227553E+03 -0.57081511133E+03  0.89506464074E+03  0.65864270000E+03 0.  1.
    8880022    1    1    2    0    0  0.14579563638E+03 -0.14228227553E+03  0.15191289410E+04  0.15403392502E+04  0.15294330000E+03 0.  0.
<mgrwt>
<rscale>  0 0.53751521E+03</rscale>
<asrwt>0</asrwt>
<pdfrwt beam="1">  1        2 0.26028597E+00 0.68942789E+03</pdfrwt>
<pdfrwt beam="2">  1       -2 0.11439154E+00 0.68942789E+03</pdfrwt>
<totfact> 0.61497078E+00</totfact>
</mgrwt>
</event>
<event>
 4    5  0.7289609E-008  0.6746262E+03  0.7818608E-02  0.1012543E+00
          2   -1    0    0  501    0  0.00000000000E+00  0.00000000000E+00  0.21746954332E+04  0.21746954332E+04  0.25500000000E-02 0. -1.
         -2   -1    0    0    0  501 -0.00000000000E+00 -0.00000000000E+00 -0.15295230719E+03  0.15295230721E+03  0.25500000000E-02 0.  1.
    8880023    1    1    2    0    0 -0.98595820237E+02  0.10765318209E+03  0.64027068558E+03  0.93008983462E+03  0.65864270000E+03 0.  1.
    8880022    1    1    2    0    0  0.98595820237E+02 -0.10765318209E+03  0.13814724404E+04  0.13975579058E+04  0.15294330000E+03 0.  0.
<mgrwt>
<rscale>  0 0.50476389E+03</rscale>
<asrwt>0</asrwt>
<pdfrwt beam="1">  1        2 0.33456852E+00 0.67462623E+03</pdfrwt>
<pdfrwt beam="2">  1       -2 0.23531125E-01 0.67462623E+03</pdfrwt>
<totfact> 0.88704311E+01</totfact>
</mgrwt>
</event>
<event>
 4    5  0.7289609E-008  0.1577021E+04  0.7818608E-02  0.8857080E-01
         -2   -1    0    0    0  501 -0.00000000000E+00  0.00000000000E+00  0.11468860994E+04  0.11468860994E+04  0.25500000000E-02 0.  1.
          2   -1    0    0  501    0  0.00000000000E+00 -0.00000000000E+00 -0.23952615054E+04  0.23952615054E+04  0.25500000000E-02 0. -1.
    8880023    1    1    2    0    0 -0.88909821037E+03 -0.11236950784E+04  0.84395781853E+02  0.15792780348E+04  0.65864270000E+03 0.  0.
    8880022    1    1    2    0    0  0.88909821037E+03  0.11236950784E+04 -0.13327711878E+04  0.19628695700E+04  0.15294330000E+03 0.  0.
<mgrwt>
<rscale>  0 0.15418663E+04</rscale>
<asrwt>0</asrwt>
<pdfrwt beam="1">  1        2 0.36850177E+00 0.15770214E+04</pdfrwt>
<pdfrwt beam="2">  1       -2 0.17644402E+00 0.15770214E+04</pdfrwt>
<totfact> 0.71726491E-01</totfact>
</mgrwt>
</event>
<event>
 4    5  0.7289609E-008  0.7566005E+03  0.7818608E-02  0.9813989E-01
          2   -1    0    0  501    0  0.00000000000E+00  0.00000000000E+00  0.31034513702E+03  0.31034513703E+03  0.25500000000E-02 0. -1.
         -2   -1    0    0    0  501 -0.00000000000E+00 -0.00000000000E+00 -0.20976648150E+04  0.20976648150E+04  0.25500000000E-02 0.  1.
    8880023    1    1    2    0    0  0.80742354221E+02 -0.36347605983E+03 -0.18517556525E+04  0.20003608117E+04  0.65864270000E+03 0.  0.
    8880022    1    1    2    0    0 -0.80742354221E+02  0.36347605983E+03  0.64435974546E+02  0.40764914040E+03  0.15294330000E+03 0.  0.
<mgrwt>
<rscale>  0 0.64617182E+03</rscale>
<asrwt>0</asrwt>
<pdfrwt beam="1">  1        2 0.47745407E-01 0.75660054E+03</pdfrwt>
<pdfrwt beam="2">  1       -2 0.32271766E+00 0.75660054E+03</pdfrwt>
<totfact> 0.25435103E+00</totfact>
</mgrwt>
</event>
<event>
 4    5  0.7289609E-008  0.9617047E+03  0.7818608E-02  0.9433470E-01
          2   -1    0    0  501    0  0.00000000000E+00  0.00000000000E+00  0.11061204144E+04  0.11061204144E+04  0.25500000000E-02 0. -1.
         -2   -1    0    0    0  501 -0.00000000000E+00 -0.00000000000E+00 -0.12278955333E+04  0.12278955334E+04  0.25500000000E-02 0.  1.
    8880023    1    1    2    0    0 -0.34380183893E+03 -0.61062763371E+03 -0.87050211062E+03  0.12971699744E+04  0.65864270000E+03 0.  0.
    8880022    1    1    2    0    0  0.34380183893E+03  0.61062763371E+03  0.74872699170E+03  0.10368459734E+04  0.15294330000E+03 0.  0.
<mgrwt>
<rscale>  0 0.89371697E+03</rscale>
<asrwt>0</asrwt>
<pdfrwt beam="1">  1        2 0.17017237E+00 0.96170475E+03</pdfrwt>
<pdfrwt beam="2">  1       -2 0.18890700E+00 0.96170475E+03</pdfrwt>
<totfact> 0.33909120E+00</totfact>
</mgrwt>
</event>
<event>
 4    5  0.7289609E-008  0.2104174E+04  0.7818608E-02  0.8570666E-01
          2   -1    0    0  501    0  0.00000000000E+00  0.00000000000E+00  0.27412694389E+04  0.27412694389E+04  0.25500000000E-02 0. -1.
         -2   -1    0    0    0  501 -0.00000000000E+00 -0.00000000000E+00 -0.22152589921E+04  0.22152589921E+04  0.25500000000E-02 0.  1.
    8880023    1    1    2    0    0  0.19021932500E+04 -0.61269835695E+03  0.16360658150E+04  0.26653817727E+04  0.65864270000E+03 0.  0.
    8880022    1    1    2    0    0 -0.19021932500E+04  0.61269835695E+03 -0.11100553682E+04  0.22911466584E+04  0.15294330000E+03 0.  0.
<mgrwt>
<rscale>  0 0.20787427E+04</rscale>
<asrwt>0</asrwt>
<pdfrwt beam="1">  1        2 0.42173376E+00 0.21041741E+04</pdfrwt>
<pdfrwt beam="2">  1       -2 0.34080908E+00 0.21041741E+04</pdfrwt>
<totfact> 0.38958296E-02</totfact>
</mgrwt>
</event>
<event>
 4    5  0.7289609E-008  0.6694091E+03  0.7818608E-02  0.1016090E+00
          2   -1    0    0  501    0  0.00000000000E+00  0.00000000000E+00  0.14300566973E+04  0.14300566973E+04  0.25500000000E-02 0. -1.
         -2   -1    0    0    0  501 -0.00000000000E+00 -0.00000000000E+00 -0.31280830399E+03  0.31280830400E+03  0.25500000000E-02 0.  1.
    8880023    1    1    2    0    0 -0.10205944912E+03  0.62307490981E+02  0.64662095257E+02  0.67252490468E+03  0.65864270000E+03 0.  1.
    8880022    1    1    2    0    0  0.10205944912E+03 -0.62307490981E+02  0.10525862980E+04  0.10703400966E+04  0.15294330000E+03 0.  0.
<mgrwt>
<rscale>  0 0.49124370E+03</rscale>
<asrwt>0</asrwt>
<pdfrwt beam="1">  1        2 0.22000873E+00 0.66940911E+03</pdfrwt>
<pdfrwt beam="2">  1       -2 0.48124354E-01 0.66940911E+03</pdfrwt>
<totfact> 0.58536393E+01</totfact>
</mgrwt>
</event>
<event>
 4    5  0.7289609E-008  0.7464639E+03  0.7818608E-02  0.9841503E-01
          2   -1    0    0  501    0  0.00000000000E+00  0.00000000000E+00  0.16769389893E+04  0.16769389893E+04  0.25500000000E-02 0. -1.
         -2   -1    0    0    0  501 -0.00000000000E+00 -0.00000000000E+00 -0.46428267060E+03  0.46428267061E+03  0.25500000000E-02 0.  1.
    8880023    1    1    2    0    0  0.35077987277E+03  0.18751631131E+02 -0.11869215280E+03  0.75584136974E+03  0.65864270000E+03 0.  1.
    8880022    1    1    2    0    0 -0.35077987277E+03 -0.18751631131E+02  0.13313484715E+04  0.13853802902E+04  0.15294330000E+03 0.  0.
<mgrwt>
<rscale>  0 0.63182032E+03</rscale>
<asrwt>0</asrwt>
<pdfrwt beam="1">  1        2 0.25799061E+00 0.74646390E+03</pdfrwt>
<pdfrwt beam="2">  1       -2 0.71428105E-01 0.74646390E+03</pdfrwt>
<totfact> 0.18465715E+01</totfact>
</mgrwt>
</event>
<event>
 4    5  0.7289609E-008  0.7350817E+03  0.7818608E-02  0.9874512E-01
         -2   -1    0    0    0  501 -0.00000000000E+00  0.00000000000E+00  0.47079493637E+03  0.47079493637E+03  0.25500000000E-02 0.  1.
          2   -1    0    0  501    0  0.00000000000E+00 -0.00000000000E+00 -0.17731941931E+04  0.17731941931E+04  0.25500000000E-02 0. -1.
    8880023    1    1    2    0    0 -0.25052308450E+02 -0.32543401870E+03  0.14769016725E+03  0.74977163887E+03  0.65864270000E+03 0.  1.
    8880022    1    1    2    0    0  0.25052308450E+02  0.32543401870E+03 -0.14500894240E+04  0.14942174906E+04  0.15294330000E+03 0.  0.
<mgrwt>
<rscale>  0 0.61512583E+03</rscale>
<asrwt>0</asrwt>
<pdfrwt beam="1">  1        2 0.27279910E+00 0.73508171E+03</pdfrwt>
<pdfrwt beam="2">  1       -2 0.72429991E-01 0.73508171E+03</pdfrwt>
<totfact> 0.15890409E+01</totfact>
</mgrwt>
</event>
<event>
 4    5  0.7601981E-008  0.1195629E+04  0.7818608E-02  0.9161383E-01
         -2   -1    0    0    0  501 -0.00000000000E+00  0.00000000000E+00  0.12258471695E+04  0.12258471695E+04  0.25500000000E-02 0.  1.
          2   -1    0    0  501    0  0.00000000000E+00 -0.00000000000E+00 -0.21299119610E+04  0.21299119610E+04  0.25500000000E-02 0. -1.
    8880023    1    1    2    0    0 -0.99613378426E+03 -0.58608996938E+02  0.75474182176E+03  0.14139175911E+04  0.65864270000E+03 0.  1.
    8880022    1    1    2    0    0  0.99613378426E+03  0.58608996938E+02 -0.16588066133E+04  0.19418415394E+04  0.15294330000E+03 0.  0.
<mgrwt>
<rscale>  0 0.11461061E+04</rscale>
<asrwt>0</asrwt>
<pdfrwt beam="1">  1        2 0.32767876E+00 0.11956286E+04</pdfrwt>
<pdfrwt beam="2">  1       -2 0.18859187E+00 0.11956286E+04</pdfrwt>
<totfact> 0.87138294E-01</totfact>
</mgrwt>
</event>
<event>
 4    5  0.7289609E-008  0.8584211E+03  0.7818608E-02  0.9596378E-01
          2   -1    0    0  501    0  0.00000000000E+00  0.00000000000E+00  0.25705429591E+03  0.25705429592E+03  0.25500000000E-02 0. -1.
         -2   -1    0    0    0  501 -0.00000000000E+00 -0.00000000000E+00 -0.28808587865E+04  0.28808587865E+04  0.25500000000E-02 0.  1.
    8880023    1    1    2    0    0 -0.49660567751E+03 -0.23761179529E+03 -0.23547923953E+04  0.25063786617E+04  0.65864270000E+03 0.  0.
    8880022    1    1    2    0    0  0.49660567751E+03  0.23761179529E+03 -0.26901209523E+03  0.63153442075E+03  0.15294330000E+03 0.  0.
<mgrwt>
<rscale>  0 0.77536358E+03</rscale>
<asrwt>0</asrwt>
<pdfrwt beam="1">  1        2 0.39546817E-01 0.85842109E+03</pdfrwt>
<pdfrwt beam="2">  1       -2 0.44320902E+00 0.85842109E+03</pdfrwt>
<totfact> 0.52482528E-01</totfact>
</mgrwt>
</event>
<event>
 4    5  0.7289609E-008  0.1373603E+04  0.7818608E-02  0.9004470E-01
          2   -1    0    0  501    0  0.00000000000E+00  0.00000000000E+00  0.21353576255E+04  0.21353576255E+04  0.25500000000E-02 0. -1.
         -2   -1    0    0    0  501 -0.00000000000E+00 -0.00000000000E+00 -0.12958400033E+04  0.12958400033E+04  0.25500000000E-02 0.  1.
    8880023    1    1    2    0    0  0.29794718015E+03 -0.11679912983E+04 -0.64109284886E+03  0.15158451247E+04  0.65864270000E+03 0.  0.
    8880022    1    1    2    0    0 -0.29794718015E+03  0.11679912983E+04  0.14806104711E+04  0.19153525041E+04  0.15294330000E+03 0.  0.
<mgrwt>
<rscale>  0 0.13321261E+04</rscale>
<asrwt>0</asrwt>
<pdfrwt beam="1">  1        2 0.32851656E+00 0.13736034E+04</pdfrwt>
<pdfrwt beam="2">  1       -2 0.19936000E+00 0.13736034E+04</pdfrwt>
<totfact> 0.71784615E-01</totfact>
</mgrwt>
</event>
<event>
 4    5  0.7289609E-008  0.6608106E+03  0.7818608E-02  0.1023341E+00
         -2   -1    0    0    0  501 -0.00000000000E+00  0.00000000000E+00  0.57297664688E+03  0.57297664689E+03  0.25500000000E-02 0.  1.
          2   -1    0    0  501    0  0.00000000000E+00 -0.00000000000E+00 -0.64615817765E+03  0.64615817765E+03  0.25500000000E-02 0. -1.
    8880023    1    1    2    0    0 -0.53179838737E+02  0.56840717374E+01  0.36291754934E+03  0.75390964830E+03  0.65864270000E+03 0.  1.
    8880022    1    1    2    0    0  0.53179838737E+02 -0.56840717374E+01 -0.43609908011E+03  0.46522517624E+03  0.15294330000E+03 0.  0.
<mgrwt>
<rscale>  0 0.46500021E+03</rscale>
<asrwt>0</asrwt>
<pdfrwt beam="1">  1        2 0.99408951E-01 0.66081057E+03</pdfrwt>
<pdfrwt beam="2">  1       -2 0.88150253E-01 0.66081057E+03</pdfrwt>
<totfact> 0.51194244E+01</totfact>
</mgrwt>
</event>
<event>
 4    5  0.7289609E-008  0.7444424E+03  0.7818608E-02  0.9847190E-01
         -2   -1    0    0    0  501 -0.00000000000E+00  0.00000000000E+00  0.31832838233E+03  0.31832838234E+03  0.25500000000E-02 0.  1.
          2   -1    0    0  501    0  0.00000000000E+00 -0.00000000000E+00 -0.27144799241E+04  0.27144799241E+04  0.25500000000E-02 0. -1.
    8880023    1    1    2    0    0 -0.34240251420E+03 -0.56079147301E+02 -0.15576859582E+03  0.76056453651E+03  0.65864270000E+03 0.  1.
    8880022    1    1    2    0    0  0.34240251420E+03  0.56079147301E+02 -0.22403829460E+04  0.22722437699E+04  0.15294330000E+03 0.  0.
<mgrwt>
<rscale>  0 0.62890370E+03</rscale>
<asrwt>0</asrwt>
<pdfrwt beam="1">  1        2 0.41761228E+00 0.74444245E+03</pdfrwt>
<pdfrwt beam="2">  1       -2 0.48973599E-01 0.74444245E+03</pdfrwt>
<totfact> 0.10845621E+01</totfact>
</mgrwt>
</event>
<event>
 4    5  0.7289609E-008  0.1009608E+04  0.7818608E-02  0.9369093E-01
         -2   -1    0    0    0  501 -0.00000000000E+00  0.00000000000E+00  0.69850458577E+03  0.69850458578E+03  0.25500000000E-02 0.  1.
          2   -1    0    0  501    0  0.00000000000E+00 -0.00000000000E+00 -0.21691958469E+04  0.21691958469E+04  0.25500000000E-02 0. -1.
    8880023    1    1    2    0    0  0.22364597530E+03 -0.73176601354E+03 -0.17653059651E+04  0.20336210014E+04  0.65864270000E+03 0. -1.
    8880022    1    1    2    0    0 -0.22364597530E+03  0.73176601354E+03  0.29461470395E+03  0.83407943125E+03  0.15294330000E+03 0.  0.
<mgrwt>
<rscale>  0 0.94663411E+03</rscale>
<asrwt>0</asrwt>
<pdfrwt beam="1">  1        2 0.33372244E+00 0.10096085E+04</pdfrwt>
<pdfrwt beam="2">  1       -2 0.10746224E+00 0.10096085E+04</pdfrwt>
<totfact> 0.37399493E+00</totfact>
</mgrwt>
</event>
<event>
 4    5  0.7289609E-008  0.9874640E+03  0.7818608E-02  0.9398145E-01
         -2   -1    0    0    0  501 -0.00000000000E+00  0.00000000000E+00  0.23221329277E+04  0.23221329277E+04  0.25500000000E-02 0.  1.
          2   -1    0    0  501    0  0.00000000000E+00 -0.00000000000E+00 -0.49806221883E+03  0.49806221883E+03  0.25500000000E-02 0. -1.
    8880023    1    1    2    0    0  0.54329508715E+03  0.49609012356E+03  0.18178402896E+04  0.20687262959E+04  0.65864270000E+03 0.  1.
    8880022    1    1    2    0    0 -0.54329508715E+03 -0.49609012356E+03  0.62304192808E+01  0.75146885069E+03  0.15294330000E+03 0.  0.
<mgrwt>
<rscale>  0 0.92228463E+03</rscale>
<asrwt>0</asrwt>
<pdfrwt beam="1">  1        2 0.76624959E-01 0.98746401E+03</pdfrwt>
<pdfrwt beam="2">  1       -2 0.35725121E+00 0.98746401E+03</pdfrwt>
<totfact> 0.88101926E-01</totfact>
</mgrwt>
</event>
<event>
 4    5  0.7289609E-008  0.1581654E+04  0.7818608E-02  0.8854030E-01
         -2   -1    0    0    0  501 -0.00000000000E+00  0.00000000000E+00  0.88373962988E+03  0.88373962988E+03  0.25500000000E-02 0.  1.
          2   -1    0    0  501    0  0.00000000000E+00 -0.00000000000E+00 -0.50338706457E+04  0.50338706457E+04  0.25500000000E-02 0. -1.
    8880023    1    1    2    0    0  0.17860933101E+03 -0.14268559379E+04 -0.63793311826E+02  0.15829399715E+04  0.65864270000E+03 0.  0.
    8880022    1    1    2    0    0 -0.17860933101E+03  0.14268559379E+04 -0.40863377040E+04  0.43346703040E+04  0.15294330000E+03 0.  0.
<mgrwt>
<rscale>  0 0.15466190E+04</rscale>
<asrwt>0</asrwt>
<pdfrwt beam="1">  1        2 0.77444162E+00 0.15816540E+04</pdfrwt>
<pdfrwt beam="2">  1       -2 0.13595995E+00 0.15816540E+04</pdfrwt>
<totfact> 0.11747751E-02</totfact>
</mgrwt>
</event>
<event>
 4    5  0.7289609E-008  0.9547235E+03  0.7818608E-02  0.9443350E-01
          2   -1    0    0  501    0  0.00000000000E+00  0.00000000000E+00  0.12730439265E+04  0.12730439265E+04  0.25500000000E-02 0. -1.
         -2   -1    0    0    0  501 -0.00000000000E+00 -0.00000000000E+00 -0.11691897591E+04  0.11691897591E+04  0.25500000000E-02 0.  1.
    8880023    1    1    2    0    0 -0.31926299269E+03 -0.61299100440E+03 -0.83367549981E+03  0.12674824950E+04  0.65864270000E+03 0.  1.
    8880022    1    1    2    0    0  0.31926299269E+03  0.61299100440E+03  0.93752966716E+03  0.11747511906E+04  0.15294330000E+03 0.  0.
<mgrwt>
<rscale>  0 0.88592395E+03</rscale>
<asrwt>0</asrwt>
<pdfrwt beam="1">  1        2 0.19585291E+00 0.95472354E+03</pdfrwt>
<pdfrwt beam="2">  1       -2 0.17987535E+00 0.95472354E+03</pdfrwt>
<totfact> 0.31053502E+00</totfact>
</mgrwt>
</event>
<event>
 4    5  0.7289609E-008  0.7220391E+03  0.7818608E-02  0.9915746E-01
          2   -1    0    0  501    0  0.00000000000E+00  0.00000000000E+00  0.18532746300E+04  0.18532746300E+04  0.25500000000E-02 0. -1.
         -2   -1    0    0    0  501 -0.00000000000E+00 -0.00000000000E+00 -0.34279064742E+03  0.34279064743E+03  0.25500000000E-02 0.  1.
    8880023    1    1    2    0    0  0.26406693808E+03 -0.13341233877E+03  0.78999743495E+02  0.72634796459E+03  0.65864270000E+03 0.  0.
    8880022    1    1    2    0    0 -0.26406693808E+03  0.13341233877E+03  0.14314842391E+04  0.14697173128E+04  0.15294330000E+03 0. -1.
<mgrwt>
<rscale>  0 0.59504205E+03</rscale>
<asrwt>0</asrwt>
<pdfrwt beam="1">  1        2 0.28511917E+00 0.72203906E+03</pdfrwt>
<pdfrwt beam="2">  1       -2 0.52737023E-01 0.72203906E+03</pdfrwt>
<totfact> 0.28259626E+01</totfact>
</mgrwt>
</event>
<event>
 4    5  0.7289609E-008  0.8602627E+03  0.7818608E-02  0.9593096E-01
          2   -1    0    0  501    0  0.00000000000E+00  0.00000000000E+00  0.38327753463E+04  0.38327753463E+04  0.25500000000E-02 0. -1.
         -2   -1    0    0    0  501 -0.00000000000E+00 -0.00000000000E+00 -0.29749547563E+03  0.29749547564E+03  0.25500000000E-02 0.  1.
    8880023    1    1    2    0    0  0.42070802465E+03 -0.35950873347E+03  0.41050292891E+03  0.95318656744E+03  0.65864270000E+03 0.  1.
    8880022    1    1    2    0    0 -0.42070802465E+03  0.35950873347E+03  0.31247769418E+04  0.31770842546E+04  0.15294330000E+03 0.  0.
<mgrwt>
<rscale>  0 0.77754805E+03</rscale>
<asrwt>0</asrwt>
<pdfrwt beam="1">  1        2 0.58965775E+00 0.86026274E+03</pdfrwt>
<pdfrwt beam="2">  1       -2 0.45768535E-01 0.86026274E+03</pdfrwt>
<totfact> 0.22571426E+00</totfact>
</mgrwt>
</event>
<event>
 4    5  0.7289609E-008  0.7578840E+03  0.7818608E-02  0.9810617E-01
          2   -1    0    0  501    0  0.00000000000E+00  0.00000000000E+00  0.10235626490E+04  0.10235626490E+04  0.25500000000E-02 0. -1.
         -2   -1    0    0    0  501 -0.00000000000E+00 -0.00000000000E+00 -0.12867276367E+04  0.12867276367E+04  0.25500000000E-02 0.  1.
    8880023    1    1    2    0    0 -0.37485545697E+03 -0.78297981043E+01 -0.11259201849E+04  0.13572340949E+04  0.65864270000E+03 0.  1.
    8880022    1    1    2    0    0  0.37485545697E+03  0.78297981043E+01  0.86275519724E+03  0.95305619076E+03  0.15294330000E+03 0.  0.
<mgrwt>
<rscale>  0 0.64795889E+03</rscale>
<asrwt>0</asrwt>
<pdfrwt beam="1">  1        2 0.15747118E+00 0.75788398E+03</pdfrwt>
<pdfrwt beam="2">  1       -2 0.19795810E+00 0.75788398E+03</pdfrwt>
<totfact> 0.34142060E+00</totfact>
</mgrwt>
</event>
<event>
 4    5  0.7289609E-008  0.9781667E+03  0.7818608E-02  0.9410697E-01
         -2   -1    0    0    0  501 -0.00000000000E+00  0.00000000000E+00  0.64559320446E+03  0.64559320447E+03  0.25500000000E-02 0.  1.
          2   -1    0    0  501    0  0.00000000000E+00 -0.00000000000E+00 -0.24651571844E+04  0.24651571844E+04  0.25500000000E-02 0. -1.
    8880023    1    1    2    0    0  0.68235171201E+03  0.23957463341E+03  0.16591501256E+03  0.99213802544E+03  0.65864270000E+03 0.  0.
    8880022    1    1    2    0    0 -0.68235171201E+03 -0.23957463341E+03 -0.19854789925E+04  0.21186123634E+04  0.15294330000E+03 0.  0.
<mgrwt>
<rscale>  0 0.91200589E+03</rscale>
<asrwt>0</asrwt>
<pdfrwt beam="1">  1        2 0.37925495E+00 0.97816669E+03</pdfrwt>
<pdfrwt beam="2">  1       -2 0.99322033E-01 0.97816669E+03</pdfrwt>
<totfact> 0.30950274E+00</totfact>
</mgrwt>
</event>
<event>
 4    5  0.7289609E-008  0.7639724E+03  0.7818608E-02  0.9794930E-01
         -2   -1    0    0    0  501 -0.00000000000E+00  0.00000000000E+00  0.13003699080E+03  0.13003699082E+03  0.25500000000E-02 0.  1.
          2   -1    0    0  501    0  0.00000000000E+00 -0.00000000000E+00 -0.31284444770E+04  0.31284444770E+04  0.25500000000E-02 0. -1.
    8880023    1    1    2    0    0 -0.28359668212E+03 -0.26347022493E+03 -0.12823806794E+04  0.14927002548E+04  0.65864270000E+03 0.  1.
    8880022    1    1    2    0    0  0.28359668212E+03  0.26347022493E+03 -0.17160268068E+04  0.17657812130E+04  0.15294330000E+03 0.  0.
<mgrwt>
<rscale>  0 0.65635350E+03</rscale>
<asrwt>0</asrwt>
<pdfrwt beam="1">  1        2 0.48129909E+00 0.76397241E+03</pdfrwt>
<pdfrwt beam="2">  1       -2 0.20005693E-01 0.76397241E+03</pdfrwt>
<totfact> 0.32591555E+01</totfact>
</mgrwt>
</event>
<event>
 4    5  0.7289609E-008  0.8483369E+03  0.7818608E-02  0.9614656E-01
          2   -1    0    0  501    0  0.00000000000E+00  0.00000000000E+00  0.20420770253E+04  0.20420770253E+04  0.25500000000E-02 0. -1.
         -2   -1    0    0    0  501 -0.00000000000E+00 -0.00000000000E+00 -0.51402483307E+03  0.51402483307E+03  0.25500000000E-02 0.  1.
    8880023    1    1    2    0    0  0.45577383356E+03 -0.27952739415E+03 -0.82407745336E+02  0.85233009697E+03  0.65864270000E+03 0.  1.
    8880022    1    1    2    0    0 -0.45577383356E+03  0.27952739415E+03  0.16104599375E+04  0.17037717614E+04  0.15294330000E+03 0.  0.
<mgrwt>
<rscale>  0 0.76333684E+03</rscale>
<asrwt>0</asrwt>
<pdfrwt beam="1">  1        2 0.31416570E+00 0.84833694E+03</pdfrwt>
<pdfrwt beam="2">  1       -2 0.79080744E-01 0.84833694E+03</pdfrwt>
<totfact> 0.91768473E+00</totfact>
</mgrwt>
</event>
<event>
 4    5  0.7289609E-008  0.9629751E+03  0.7818608E-02  0.9431686E-01
          2   -1    0    0  501    0  0.00000000000E+00  0.00000000000E+00  0.22259677023E+04  0.22259677023E+04  0.25500000000E-02 0. -1.
         -2   -1    0    0    0  501 -0.00000000000E+00 -0.00000000000E+00 -0.72941841383E+03  0.72941841383E+03  0.25500000000E-02 0.  1.
    8880023    1    1    2    0    0  0.31526686850E+03  0.62778795717E+03 -0.30950348821E+03  0.10114907479E+04  0.65864270000E+03 0.  0.
    8880022    1    1    2    0    0 -0.31526686850E+03 -0.62778795717E+03  0.18060527766E+04  0.19438953682E+04  0.15294330000E+03 0.  0.
<mgrwt>
<rscale>  0 0.89513264E+03</rscale>
<asrwt>0</asrwt>
<pdfrwt beam="1">  1        2 0.34245657E+00 0.96297514E+03</pdfrwt>
<pdfrwt beam="2">  1       -2 0.11221822E+00 0.96297514E+03</pdfrwt>
<totfact> 0.31499340E+00</totfact>
</mgrwt>
</event>
<event>
 4    5  0.7289609E-008  0.1263628E+04  0.7818608E-02  0.9097623E-01
         -2   -1    0    0    0  501 -0.00000000000E+00  0.00000000000E+00  0.92449109759E+03  0.92449109760E+03  0.25500000000E-02 0.  1.
          2   -1    0    0  501    0  0.00000000000E+00 -0.00000000000E+00 -0.20649708796E+04  0.20649708796E+04  0.25500000000E-02 0. -1.
    8880023    1    1    2    0    0 -0.10308324680E+04 -0.31675017892E+03  0.18148070194E+03  0.12765937899E+04  0.65864270000E+03 0.  0.
    8880022    1    1    2    0    0  0.10308324680E+04  0.31675017892E+03 -0.13219604840E+04  0.17128681873E+04  0.15294330000E+03 0.  0.
<mgrwt>
<rscale>  0 0.12175605E+04</rscale>
<asrwt>0</asrwt>
<pdfrwt beam="1">  1        2 0.31768783E+00 0.12636283E+04</pdfrwt>
<pdfrwt beam="2">  1       -2 0.14222940E+00 0.12636283E+04</pdfrwt>
<totfact> 0.20498736E+00</totfact>
</mgrwt>
</event>
<event>
 4    5  0.7289609E-008  0.7550459E+03  0.7818608E-02  0.9818106E-01
         -2   -1    0    0    0  501 -0.00000000000E+00  0.00000000000E+00  0.91385406039E+03  0.91385406039E+03  0.25500000000E-02 0.  1.
          2   -1    0    0  501    0  0.00000000000E+00 -0.00000000000E+00 -0.11755547047E+04  0.11755547047E+04  0.25500000000E-02 0. -1.
    8880023    1    1    2    0    0 -0.27277225272E+03 -0.24875584714E+03  0.71144023933E+03  0.10374206445E+04  0.65864270000E+03 0.  1.
    8880022    1    1    2    0    0  0.27277225272E+03  0.24875584714E+03 -0.97314088359E+03  0.10519881205E+04  0.15294330000E+03 0.  0.
<mgrwt>
<rscale>  0 0.64399861E+03</rscale>
<asrwt>0</asrwt>
<pdfrwt beam="1">  1        2 0.18085457E+00 0.75504595E+03</pdfrwt>
<pdfrwt beam="2">  1       -2 0.14059293E+00 0.75504595E+03</pdfrwt>
<totfact> 0.70963996E+00</totfact>
</mgrwt>
</event>
<event>
 4    5  0.7289609E-008  0.6755918E+03  0.7818608E-02  0.1011936E+00
          2   -1    0    0  501    0  0.00000000000E+00  0.00000000000E+00  0.74752430255E+03  0.74752430256E+03  0.25500000000E-02 0. -1.
         -2   -1    0    0    0  501 -0.00000000000E+00 -0.00000000000E+00 -0.29005927828E+03  0.29005927830E+03  0.25500000000E-02 0.  1.
    8880023    1    1    2    0    0 -0.16802050874E+02  0.14943839024E+03  0.20437099138E+03  0.70582706789E+03  0.65864270000E+03 0.  1.
    8880022    1    1    2    0    0  0.16802050874E+02 -0.14943839024E+03  0.25309403289E+03  0.33175651296E+03  0.15294330000E+03 0.  1.
<mgrwt>
<rscale>  0 0.50712482E+03</rscale>
<asrwt>0</asrwt>
<pdfrwt beam="1">  1        2 0.11500374E+00 0.67559185E+03</pdfrwt>
<pdfrwt beam="2">  1       -2 0.44624504E-01 0.67559185E+03</pdfrwt>
<totfact> 0.18187689E+02</totfact>
</mgrwt>
</event>
<event>
 4    5  0.7289609E-008  0.6883545E+03  0.7818608E-02  0.1004945E+00
         -2   -1    0    0    0  501 -0.00000000000E+00  0.00000000000E+00  0.28942794060E+03  0.28942794061E+03  0.25500000000E-02 0.  1.
          2   -1    0    0  501    0  0.00000000000E+00 -0.00000000000E+00 -0.19726816611E+04  0.19726816611E+04  0.25500000000E-02 0. -1.
    8880023    1    1    2    0    0 -0.16603134350E+03  0.11160347010E+03 -0.14510333711E+03  0.70348200138E+03  0.65864270000E+03 0.  1.
    8880022    1    1    2    0    0  0.16603134350E+03 -0.11160347010E+03 -0.15381503834E+04  0.15586276003E+04  0.15294330000E+03 0.  0.
<mgrwt>
<rscale>  0 0.53534254E+03</rscale>
<asrwt>0</asrwt>
<pdfrwt beam="1">  1        2 0.30348948E+00 0.68835452E+03</pdfrwt>
<pdfrwt beam="2">  1       -2 0.44527377E-01 0.68835452E+03</pdfrwt>
<totfact> 0.34415430E+01</totfact>
</mgrwt>
</event>
<event>
 4    5  0.7289609E-008  0.7624674E+03  0.7818608E-02  0.9798761E-01
          2   -1    0    0  501    0  0.00000000000E+00  0.00000000000E+00  0.12716249863E+04  0.12716249863E+04  0.25500000000E-02 0. -1.
         -2   -1    0    0    0  501 -0.00000000000E+00 -0.00000000000E+00 -0.31079367484E+03  0.31079367486E+03  0.25500000000E-02 0.  1.
    8880023    1    1    2    0    0 -0.38170268876E+03  0.43003964517E+02  0.33607857189E+03  0.83324984028E+03  0.65864270000E+03 0.  0.
    8880022    1    1    2    0    0  0.38170268876E+03 -0.43003964517E+02  0.62475273956E+03  0.74916882087E+03  0.15294330000E+03 0.  0.
<mgrwt>
<rscale>  0 0.65429071E+03</rscale>
<asrwt>0</asrwt>
<pdfrwt beam="1">  1        2 0.19563461E+00 0.76246737E+03</pdfrwt>
<pdfrwt beam="2">  1       -2 0.47814411E-01 0.76246737E+03</pdfrwt>
<totfact> 0.72338996E+01</totfact>
</mgrwt>
</event>
<event>
 4    5  0.7289609E-008  0.1237439E+04  0.7818608E-02  0.9121561E-01
          2   -1    0    0  501    0  0.00000000000E+00  0.00000000000E+00  0.27881563251E+04  0.27881563251E+04  0.25500000000E-02 0. -1.
         -2   -1    0    0    0  501 -0.00000000000E+00 -0.00000000000E+00 -0.48215740438E+03  0.48215740439E+03  0.25500000000E-02 0.  1.
    8880023    1    1    2    0    0 -0.98671033564E+03  0.35192060322E+03  0.10130968619E+04  0.15992563445E+04  0.65864270000E+03 0.  0.
    8880022    1    1    2    0    0  0.98671033564E+03 -0.35192060322E+03  0.12929020588E+04  0.16710573851E+04  0.15294330000E+03 0.  0.
<mgrwt>
<rscale>  0 0.11901061E+04</rscale>
<asrwt>0</asrwt>
<pdfrwt beam="1">  1        2 0.42894712E+00 0.12374391E+04</pdfrwt>
<pdfrwt beam="2">  1       -2 0.74178063E-01 0.12374391E+04</pdfrwt>
<totfact> 0.37957457E+00</totfact>
</mgrwt>
</event>
<event>
 4    5  0.7289609E-008  0.7098809E+03  0.7818608E-02  0.9958443E-01
         -2   -1    0    0    0  501 -0.00000000000E+00  0.00000000000E+00  0.40576036511E+03  0.40576036511E+03  0.25500000000E-02 0.  1.
          2   -1    0    0  501    0  0.00000000000E+00 -0.00000000000E+00 -0.13805421955E+04  0.13805421955E+04  0.25500000000E-02 0. -1.
    8880023    1    1    2    0    0 -0.90693897054E+02  0.24878765486E+03  0.55065195610E+02  0.71201338625E+03  0.65864270000E+03 0.  1.
    8880022    1    1    2    0    0  0.90693897054E+02 -0.24878765486E+03 -0.10298470260E+04  0.10742891744E+04  0.15294330000E+03 0.  0.
<mgrwt>
<rscale>  0 0.57510577E+03</rscale>
<asrwt>0</asrwt>
<pdfrwt beam="1">  1        2 0.21239110E+00 0.70988090E+03</pdfrwt>
<pdfrwt beam="2">  1       -2 0.62424672E-01 0.70988090E+03</pdfrwt>
<totfact> 0.36248369E+01</totfact>
</mgrwt>
</event>
<event>
 4    5  0.7289609E-008  0.8013730E+03  0.7818608E-02  0.9707835E-01
         -2   -1    0    0    0  501 -0.00000000000E+00  0.00000000000E+00  0.11820474520E+04  0.11820474520E+04  0.25500000000E-02 0.  1.
          2   -1    0    0  501    0  0.00000000000E+00 -0.00000000000E+00 -0.61383432704E+03  0.61383432704E+03  0.25500000000E-02 0. -1.
    8880023    1    1    2    0    0 -0.20428871168E+03 -0.40823344579E+03  0.90464365771E+03  0.12085440735E+04  0.65864270000E+03 0.  1.
    8880022    1    1    2    0    0  0.20428871168E+03  0.40823344579E+03 -0.33643053272E+03  0.58733770554E+03  0.15294330000E+03 0.  0.
<mgrwt>
<rscale>  0 0.70552195E+03</rscale>
<asrwt>0</asrwt>
<pdfrwt beam="1">  1        2 0.94436050E-01 0.80137297E+03</pdfrwt>
<pdfrwt beam="2">  1       -2 0.18185345E+00 0.80137297E+03</pdfrwt>
<totfact> 0.85959618E+00</totfact>
</mgrwt>
</event>
<event>
 4    5  0.7289609E-008  0.6956831E+03  0.7818608E-02  0.1001560E+00
         -2   -1    0    0    0  501 -0.00000000000E+00  0.00000000000E+00  0.29917265261E+03  0.29917265262E+03  0.25500000000E-02 0.  1.
          2   -1    0    0  501    0  0.00000000000E+00 -0.00000000000E+00 -0.97262750553E+03  0.97262750554E+03  0.25500000000E-02 0. -1.
    8880023    1    1    2    0    0 -0.90372856641E+02  0.20493292337E+03 -0.19612367390E+03  0.72279973577E+03  0.65864270000E+03 0.  1.
    8880022    1    1    2    0    0  0.90372856641E+02 -0.20493292337E+03 -0.47733117903E+03  0.54900042239E+03  0.15294330000E+03 0. -1.
<mgrwt>
<rscale>  0 0.54971318E+03</rscale>
<asrwt>0</asrwt>
<pdfrwt beam="1">  1        2 0.14963500E+00 0.69568309E+03</pdfrwt>
<pdfrwt beam="2">  1       -2 0.46026562E-01 0.69568309E+03</pdfrwt>
<totfact> 0.11938501E+02</totfact>
</mgrwt>
</event>
<event>
 4    5  0.7289609E-008  0.1625214E+04  0.7818608E-02  0.8825931E-01
         -2   -1    0    0    0  501 -0.00000000000E+00  0.00000000000E+00  0.22947193964E+04  0.22947193964E+04  0.25500000000E-02 0.  1.
          2   -1    0    0  501    0  0.00000000000E+00 -0.00000000000E+00 -0.10980627120E+04  0.10980627120E+04  0.25500000000E-02 0. -1.
    8880023    1    1    2    0    0 -0.11234081991E+04  0.97235042579E+03  0.30601023686E+03  0.16537725973E+04  0.65864270000E+03 0. -1.
    8880022    1    1    2    0    0  0.11234081991E+04 -0.97235042579E+03  0.89064644750E+03  0.17390095111E+04  0.15294330000E+03 0.  1.
<mgrwt>
<rscale>  0 0.15912670E+04</rscale>
<asrwt>0</asrwt>
<pdfrwt beam="1">  1        2 0.16893272E+00 0.16252143E+04</pdfrwt>
<pdfrwt beam="2">  1       -2 0.35303375E+00 0.16252143E+04</pdfrwt>
<totfact> 0.30428328E-01</totfact>
</mgrwt>
</event>
<event>
 4    5  0.8956973E-008  0.1113606E+04  0.7818608E-02  0.9246056E-01
         -2   -1    0    0    0  501 -0.00000000000E+00  0.00000000000E+00  0.12435793320E+04  0.12435793320E+04  0.25500000000E-02 0.  1.
          2   -1    0    0  501    0  0.00000000000E+00 -0.00000000000E+00 -0.25467511303E+04  0.25467511303E+04  0.25500000000E-02 0. -1.
    8880023    1    1    2    0    0  0.87953748860E+03 -0.18089482684E+03  0.88351018457E+03  0.14215166495E+04  0.65864270000E+03 0.  1.
    8880022    1    1    2    0    0 -0.87953748860E+03  0.18089482684E+03 -0.21866819829E+04  0.23688138128E+04  0.15294330000E+03 0.  0.
<mgrwt>
<rscale>  0 0.10590440E+04</rscale>
<asrwt>0</asrwt>
<pdfrwt beam="1">  1        2 0.39180786E+00 0.11136065E+04</pdfrwt>
<pdfrwt beam="2">  1       -2 0.19131990E+00 0.11136065E+04</pdfrwt>
<totfact> 0.49106611E-01</totfact>
</mgrwt>
</event>
<event>
 4    5  0.7289609E-008  0.9850447E+03  0.7818608E-02  0.9401391E-01
          2   -1    0    0  501    0  0.00000000000E+00  0.00000000000E+00  0.29798701777E+04  0.29798701777E+04  0.25500000000E-02 0. -1.
         -2   -1    0    0    0  501 -0.00000000000E+00 -0.00000000000E+00 -0.55334801958E+03  0.55334801959E+03  0.25500000000E-02 0.  1.
    8880023    1    1    2    0    0  0.16228665612E+03  0.71425897411E+03 -0.92675581334E+01  0.98508828780E+03  0.65864270000E+03 0.  1.
    8880022    1    1    2    0    0 -0.16228665612E+03 -0.71425897411E+03  0.24357897162E+04  0.25481299095E+04  0.15294330000E+03 0.  0.
<mgrwt>
<rscale>  0 0.91961326E+03</rscale>
<asrwt>0</asrwt>
<pdfrwt beam="1">  1        2 0.45844156E+00 0.98504469E+03</pdfrwt>
<pdfrwt beam="2">  1       -2 0.85130466E-01 0.98504469E+03</pdfrwt>
<totfact> 0.22009680E+00</totfact>
</mgrwt>
</event>
<event>
 4    5  0.7289609E-008  0.8373494E+03  0.7818608E-02  0.9635199E-01
         -2   -1    0    0    0  501 -0.00000000000E+00  0.00000000000E+00  0.50751577321E+03  0.50751577322E+03  0.25500000000E-02 0.  1.
          2   -1    0    0  501    0  0.00000000000E+00 -0.00000000000E+00 -0.17268428938E+04  0.17268428938E+04  0.25500000000E-02 0. -1.
    8880023    1    1    2    0    0  0.38891702025E+03  0.34071588356E+03  0.66567596351E+02  0.83999119823E+03  0.65864270000E+03 0.  1.
    8880022    1    1    2    0    0 -0.38891702025E+03 -0.34071588356E+03 -0.12858947170E+04  0.13943674688E+04  0.15294330000E+03 0.  0.
<mgrwt>
<rscale>  0 0.75009672E+03</rscale>
<asrwt>0</asrwt>
<pdfrwt beam="1">  1        2 0.26566813E+00 0.83734937E+03</pdfrwt>
<pdfrwt beam="2">  1       -2 0.78079351E-01 0.83734937E+03</pdfrwt>
<totfact> 0.14071570E+01</totfact>
</mgrwt>
</event>
<event>
 4    5  0.7289609E-008  0.7714830E+03  0.7818608E-02  0.9776238E-01
         -2   -1    0    0    0  501 -0.00000000000E+00  0.00000000000E+00  0.16004784168E+04  0.16004784168E+04  0.25500000000E-02 0.  1.
          2   -1    0    0  501    0  0.00000000000E+00 -0.00000000000E+00 -0.32152145386E+03  0.32152145387E+03  0.25500000000E-02 0. -1.
    8880023    1    1    2    0    0  0.38061969297E+03  0.12846952938E+03  0.12772342976E+04  0.14921506049E+04  0.65864270000E+03 0.  1.
    8880022    1    1    2    0    0 -0.38061969297E+03 -0.12846952938E+03  0.17226653669E+01  0.42984926573E+03  0.15294330000E+03 0.  0.
<mgrwt>
<rscale>  0 0.66653496E+03</rscale>
<asrwt>0</asrwt>
<pdfrwt beam="1">  1        2 0.49464840E-01 0.77148297E+03</pdfrwt>
<pdfrwt beam="2">  1       -2 0.24622744E+00 0.77148297E+03</pdfrwt>
<totfact> 0.70559278E+00</totfact>
</mgrwt>
</event>
<event>
 4    5  0.9814742E-008  0.8857764E+03  0.7818608E-02  0.9549262E-01
         -2   -1    0    0    0  501 -0.00000000000E+00  0.00000000000E+00  0.13018542860E+04  0.13018542860E+04  0.25500000000E-02 0.  1.
          2   -1    0    0  501    0  0.00000000000E+00 -0.00000000000E+00 -0.20426912329E+04  0.20426912329E+04  0.25500000000E-02 0. -1.
    8880023    1    1    2    0    0 -0.26319998762E+03 -0.53058017012E+03  0.10956185943E+04  0.14088931332E+04  0.65864270000E+03 0.  1.
    8880022    1    1    2    0    0  0.26319998762E+03  0.53058017012E+03 -0.18364555412E+04  0.19356523857E+04  0.15294330000E+03 0.  0.
<mgrwt>
<rscale>  0 0.80747356E+03</rscale>
<asrwt>0</asrwt>
<pdfrwt beam="1">  1        2 0.31426019E+00 0.88577636E+03</pdfrwt>
<pdfrwt beam="2">  1       -2 0.20028527E+00 0.88577636E+03</pdfrwt>
<totfact> 0.85281573E-01</totfact>
</mgrwt>
</event>
<event>
 4    5  0.7289609E-008  0.6803505E+03  0.7818608E-02  0.1009126E+00
         -2   -1    0    0    0  501 -0.00000000000E+00  0.00000000000E+00  0.41614231493E+03  0.41614231494E+03  0.25500000000E-02 0.  1.
          2   -1    0    0  501    0  0.00000000000E+00 -0.00000000000E+00 -0.40193694188E+04  0.40193694188E+04  0.25500000000E-02 0. -1.
    8880023    1    1    2    0    0 -0.11051744593E+03  0.12981731294E+03  0.13219492226E+03  0.69307455900E+03  0.65864270000E+03 0.  1.
    8880022    1    1    2    0    0  0.11051744593E+03 -0.12981731294E+03 -0.37354220261E+04  0.37424371747E+04  0.15294330000E+03 0.  0.
<mgrwt>
<rscale>  0 0.51823449E+03</rscale>
<asrwt>0</asrwt>
<pdfrwt beam="1">  1        2 0.61836450E+00 0.68035053E+03</pdfrwt>
<pdfrwt beam="2">  1       -2 0.64021897E-01 0.68035053E+03</pdfrwt>
<totfact> 0.84471201E-01</totfact>
</mgrwt>
</event>
<event>
 4    5  0.7289609E-008  0.1023492E+04  0.7818608E-02  0.9351448E-01
          2   -1    0    0  501    0  0.00000000000E+00  0.00000000000E+00  0.12402003857E+04  0.12402003857E+04  0.25500000000E-02 0. -1.
         -2   -1    0    0    0  501 -0.00000000000E+00 -0.00000000000E+00 -0.17831009535E+04  0.17831009535E+04  0.25500000000E-02 0.  1.
    8880023    1    1    2    0    0 -0.67819858667E+03  0.39213852208E+03 -0.14755203005E+04  0.17957439424E+04  0.65864270000E+03 0.  0.
    8880022    1    1    2    0    0  0.67819858667E+03 -0.39213852208E+03  0.93261973265E+03  0.12275573967E+04  0.15294330000E+03 0. -1.
<mgrwt>
<rscale>  0 0.96181342E+03</rscale>
<asrwt>0</asrwt>
<pdfrwt beam="1">  1        2 0.19080006E+00 0.10234921E+04</pdfrwt>
<pdfrwt beam="2">  1       -2 0.27432322E+00 0.10234921E+04</pdfrwt>
<totfact> 0.81497986E-01</totfact>
</mgrwt>
</event>
<event>
 4    5  0.7289609E-008  0.7322773E+03  0.7818608E-02  0.9883042E-01
          2   -1    0    0  501    0  0.00000000000E+00  0.00000000000E+00  0.24844616256E+04  0.24844616256E+04  0.25500000000E-02 0. -1.
         -2   -1    0    0    0  501 -0.00000000000E+00 -0.00000000000E+00 -0.26576058220E+03  0.26576058222E+03  0.25500000000E-02 0.  1.
    8880023    1    1    2    0    0  0.30648175471E+03  0.92134353121E+02  0.28746001386E+03  0.78667863250E+03  0.65864270000E+03 0.  1.
    8880022    1    1    2    0    0 -0.30648175471E+03 -0.92134353121E+02  0.19312410296E+04  0.19635435754E+04  0.15294330000E+03 0.  0.
<mgrwt>
<rscale>  0 0.61090221E+03</rscale>
<asrwt>0</asrwt>
<pdfrwt beam="1">  1        2 0.38222486E+00 0.73227728E+03</pdfrwt>
<pdfrwt beam="2">  1       -2 0.40886244E-01 0.73227728E+03</pdfrwt>
<totfact> 0.21098509E+01</totfact>
</mgrwt>
</event>
<event>
 4    5  0.7289609E-008  0.1114765E+04  0.7818608E-02  0.9244793E-01
         -2   -1    0    0    0  501 -0.00000000000E+00  0.00000000000E+00  0.10063434945E+04  0.10063434945E+04  0.25500000000E-02 0.  1.
          2   -1    0    0  501    0  0.00000000000E+00 -0.00000000000E+00 -0.11924038286E+04  0.11924038286E+04  0.25500000000E-02 0. -1.
    8880023    1    1    2    0    0  0.54120779397E+02 -0.89775351716E+03  0.31432821335E+03  0.11582326486E+04  0.65864270000E+03 0. -1.
    8880022    1    1    2    0    0 -0.54120779397E+02  0.89775351716E+03 -0.50038854751E+03  0.10405146745E+04  0.15294330000E+03 0.  0.
<mgrwt>
<rscale>  0 0.10602817E+04</rscale>
<asrwt>0</asrwt>
<pdfrwt beam="1">  1        2 0.18344674E+00 0.11147648E+04</pdfrwt>
<pdfrwt beam="2">  1       -2 0.15482208E+00 0.11147648E+04</pdfrwt>
<totfact> 0.51661655E+00</totfact>
</mgrwt>
</event>
<event>
 4    5  0.7289609E-008  0.9243685E+03  0.7818608E-02  0.9487993E-01
          2   -1    0    0  501    0  0.00000000000E+00  0.00000000000E+00  0.10414977993E+04  0.10414977993E+04  0.25500000000E-02 0. -1.
         -2   -1    0    0    0  501 -0.00000000000E+00 -0.00000000000E+00 -0.87335190559E+03  0.87335190560E+03  0.25500000000E-02 0.  1.
    8880023    1    1    2    0    0  0.42550682961E+03 -0.48948027070E+03 -0.42992527339E+03  0.10194571813E+04  0.65864270000E+03 0.  0.
    8880022    1    1    2    0    0 -0.42550682961E+03  0.48948027070E+03  0.59807116706E+03  0.89539252360E+03  0.15294330000E+03 0.  0.
<mgrwt>
<rscale>  0 0.85174867E+03</rscale>
<asrwt>0</asrwt>
<pdfrwt beam="1">  1        2 0.16023043E+00 0.92436854E+03</pdfrwt>
<pdfrwt beam="2">  1       -2 0.13436183E+00 0.92436854E+03</pdfrwt>
<totfact> 0.94530149E+00</totfact>
</mgrwt>
</event>
<event>
 4    5  0.7289609E-008  0.1367031E+04  0.7818608E-02  0.9009734E-01
          2   -1    0    0  501    0  0.00000000000E+00  0.00000000000E+00  0.32117036497E+04  0.32117036497E+04  0.25500000000E-02 0. -1.
         -2   -1    0    0    0  501 -0.00000000000E+00 -0.00000000000E+00 -0.10246549200E+04  0.10246549200E+04  0.25500000000E-02 0.  1.
    8880023    1    1    2    0    0 -0.11975387789E+04 -0.29383163625E+02 -0.36335405037E+03  0.14144959772E+04  0.65864270000E+03 0.  0.
    8880022    1    1    2    0    0  0.11975387789E+04  0.29383163625E+02  0.25504027801E+04  0.28218625925E+04  0.15294330000E+03 0.  0.
<mgrwt>
<rscale>  0 0.13253072E+04</rscale>
<asrwt>0</asrwt>
<pdfrwt beam="1">  1        2 0.49410825E+00 0.13670306E+04</pdfrwt>
<pdfrwt beam="2">  1       -2 0.15763922E+00 0.13670306E+04</pdfrwt>
<totfact> 0.32244639E-01</totfact>
</mgrwt>
</event>
<event>
 4    5  0.7289609E-008  0.1169518E+04  0.7818608E-02  0.9187338E-01
         -2   -1    0    0    0  501 -0.00000000000E+00  0.00000000000E+00  0.13378129610E+04  0.13378129610E+04  0.25500000000E-02 0.  1.
          2   -1    0    0  501    0  0.00000000000E+00 -0.00000000000E+00 -0.13908087471E+04  0.13908087472E+04  0.25500000000E-02 0. -1.
    8880023    1    1    2    0    0  0.56143535032E+03 -0.78660860738E+03  0.81108913164E+03  0.14232492893E+04  0.65864270000E+03 0.  1.
    8880022    1    1    2    0    0 -0.56143535032E+03  0.78660860738E+03 -0.86408491777E+03  0.13053724189E+04  0.15294330000E+03 0.  0.
<mgrwt>
<rscale>  0 0.11185087E+04</rscale>
<asrwt>0</asrwt>
<pdfrwt beam="1">  1        2 0.21397058E+00 0.11695183E+04</pdfrwt>
<pdfrwt beam="2">  1       -2 0.20581738E+00 0.11695183E+04</pdfrwt>
<totfact> 0.17376614E+00</totfact>
</mgrwt>
</event>
<event>
 4    5  0.7289609E-008  0.1267087E+04  0.7818608E-02  0.9094517E-01
          2   -1    0    0  501    0  0.00000000000E+00  0.00000000000E+00  0.11877396170E+04  0.11877396170E+04  0.25500000000E-02 0. -1.
         -2   -1    0    0    0  501 -0.00000000000E+00 -0.00000000000E+00 -0.13078948719E+04  0.13078948719E+04  0.25500000000E-02 0.  1.
    8880023    1    1    2    0    0 -0.29080758614E+03  0.10426550267E+04 -0.46440517038E+03  0.13495113654E+04  0.65864270000E+03 0.  0.
    8880022    1    1    2    0    0  0.29080758614E+03 -0.10426550267E+04  0.34424991556E+03  0.11461231235E+04  0.15294330000E+03 0.  0.
<mgrwt>
<rscale>  0 0.12211804E+04</rscale>
<asrwt>0</asrwt>
<pdfrwt beam="1">  1        2 0.18272917E+00 0.12670867E+04</pdfrwt>
<pdfrwt beam="2">  1       -2 0.20121460E+00 0.12670867E+04</pdfrwt>
<totfact> 0.24272805E+00</totfact>
</mgrwt>
</event>
<event>
 4    5  0.7289609E-008  0.6842592E+03  0.7818608E-02  0.1007010E+00
         -2   -1    0    0    0  501 -0.00000000000E+00  0.00000000000E+00  0.19780809829E+03  0.19780809831E+03  0.25500000000E-02 0.  1.
          2   -1    0    0  501    0  0.00000000000E+00 -0.00000000000E+00 -0.13219605201E+04  0.13219605202E+04  0.25500000000E-02 0. -1.
    8880023    1    1    2    0    0  0.15184550655E+03 -0.10650551510E+03 -0.49009398557E+03  0.84166668198E+03  0.65864270000E+03 0.  1.
    8880022    1    1    2    0    0 -0.15184550655E+03  0.10650551510E+03 -0.63405843629E+03  0.67810193647E+03  0.15294330000E+03 0. -1.
<mgrwt>
<rscale>  0 0.52680403E+03</rscale>
<asrwt>0</asrwt>
<pdfrwt beam="1">  1        2 0.20337854E+00 0.68425923E+03</pdfrwt>
<pdfrwt beam="2">  1       -2 0.30432016E-01 0.68425923E+03</pdfrwt>
<totfact> 0.16322747E+02</totfact>
</mgrwt>
</event>
<event>
 4    5  0.7289609E-008  0.1262887E+04  0.7818608E-02  0.9098290E-01
          2   -1    0    0  501    0  0.00000000000E+00  0.00000000000E+00  0.26521314921E+04  0.26521314921E+04  0.25500000000E-02 0. -1.
         -2   -1    0    0    0  501 -0.00000000000E+00 -0.00000000000E+00 -0.63287810004E+03  0.63287810004E+03  0.25500000000E-02 0.  1.
    8880023    1    1    2    0    0 -0.49353549529E+03  0.95786054138E+03  0.38267049402E+03  0.13195912303E+04  0.65864270000E+03 0.  0.
    8880022    1    1    2    0    0  0.49353549529E+03 -0.95786054138E+03  0.16365828980E+04  0.19654183618E+04  0.15294330000E+03 0.  0.
<mgrwt>
<rscale>  0 0.12167847E+04</rscale>
<asrwt>0</asrwt>
<pdfrwt beam="1">  1        2 0.40802023E+00 0.12628873E+04</pdfrwt>
<pdfrwt beam="2">  1       -2 0.97365861E-01 0.12628873E+04</pdfrwt>
<totfact> 0.24404056E+00</totfact>
</mgrwt>
</event>
<event>
 4    5  0.7289609E-008  0.1106615E+04  0.7818608E-02  0.9253727E-01
          2   -1    0    0  501    0  0.00000000000E+00  0.00000000000E+00  0.18252458177E+04  0.18252458177E+04  0.25500000000E-02 0. -1.
         -2   -1    0    0    0  501 -0.00000000000E+00 -0.00000000000E+00 -0.15224530198E+04  0.15224530198E+04  0.25500000000E-02 0.  1.
    8880023    1    1    2    0    0  0.25645001317E+03  0.85148056504E+03 -0.11763539645E+04  0.16150556083E+04  0.65864270000E+03 0.  0.
    8880022    1    1    2    0    0 -0.25645001317E+03 -0.85148056504E+03  0.14791467624E+04  0.17326432291E+04  0.15294330000E+03 0.  0.
<mgrwt>
<rscale>  0 0.10515676E+04</rscale>
<asrwt>0</asrwt>
<pdfrwt beam="1">  1        2 0.28080705E+00 0.11066146E+04</pdfrwt>
<pdfrwt beam="2">  1       -2 0.23422354E+00 0.11066146E+04</pdfrwt>
<totfact> 0.66121697E-01</totfact>
</mgrwt>
</event>
<event>
 4    5  0.7289609E-008  0.1307063E+04  0.7818608E-02  0.9059484E-01
         -2   -1    0    0    0  501 -0.00000000000E+00  0.00000000000E+00  0.11715752934E+04  0.11715752934E+04  0.25500000000E-02 0.  1.
          2   -1    0    0  501    0  0.00000000000E+00 -0.00000000000E+00 -0.34368051330E+04  0.34368051330E+04  0.25500000000E-02 0. -1.
    8880023    1    1    2    0    0 -0.11231685380E+04 -0.11443767092E+03  0.66352233306E+03  0.14658361566E+04  0.65864270000E+03 0.  0.
    8880022    1    1    2    0    0  0.11231685380E+04  0.11443767092E+03 -0.29287521727E+04  0.31425442698E+04  0.15294330000E+03 0.  0.
<mgrwt>
<rscale>  0 0.12629366E+04</rscale>
<asrwt>0</asrwt>
<pdfrwt beam="1">  1        2 0.52873925E+00 0.13070630E+04</pdfrwt>
<pdfrwt beam="2">  1       -2 0.18024235E+00 0.13070630E+04</pdfrwt>
<totfact> 0.15840201E-01</totfact>
</mgrwt>
</event>
<event>
 4    5  0.7289609E-008  0.1436704E+04  0.7818608E-02  0.8955675E-01
          2   -1    0    0  501    0  0.00000000000E+00  0.00000000000E+00  0.13455362829E+04  0.13455362829E+04  0.25500000000E-02 0. -1.
         -2   -1    0    0    0  501 -0.00000000000E+00 -0.00000000000E+00 -0.28261764122E+04  0.28261764122E+04  0.25500000000E-02 0.  1.
    8880023    1    1    2    0    0 -0.96123748945E+03  0.84043533950E+03 -0.22526543909E+04  0.26718104502E+04  0.65864270000E+03 0.  1.
    8880022    1    1    2    0    0  0.96123748945E+03 -0.84043533950E+03  0.77201426163E+03  0.14999022449E+04  0.15294330000E+03 0.  0.
<mgrwt>
<rscale>  0 0.13974384E+04</rscale>
<asrwt>0</asrwt>
<pdfrwt beam="1">  1        2 0.20700558E+00 0.14367043E+04</pdfrwt>
<pdfrwt beam="2">  1       -2 0.43479637E+00 0.14367043E+04</pdfrwt>
<totfact> 0.64736301E-02</totfact>
</mgrwt>
</event>
<event>
 4    5  0.7289609E-008  0.1023371E+04  0.7818608E-02  0.9351601E-01
         -2   -1    0    0    0  501 -0.00000000000E+00  0.00000000000E+00  0.45613661869E+03  0.45613661870E+03  0.25500000000E-02 0.  1.
          2   -1    0    0  501    0  0.00000000000E+00 -0.00000000000E+00 -0.27300315369E+04  0.27300315369E+04  0.25500000000E-02 0. -1.
    8880023    1    1    2    0    0  0.48992996526E+02  0.78171427536E+03 -0.21465686519E+04  0.23780337899E+04  0.65864270000E+03 0.  0.
    8880022    1    1    2    0    0 -0.48992996526E+02 -0.78171427536E+03 -0.12732626629E+03  0.80813436576E+03  0.15294330000E+03 0.  0.
<mgrwt>
<rscale>  0 0.96168100E+03</rscale>
<asrwt>0</asrwt>
<pdfrwt beam="1">  1        2 0.42000484E+00 0.10233708E+04</pdfrwt>
<pdfrwt beam="2">  1       -2 0.70174866E-01 0.10233708E+04</pdfrwt>
<totfact> 0.47697773E+00</totfact>
</mgrwt>
</event>
<event>
 4    5  0.7289609E-008  0.1130678E+04  0.7818608E-02  0.9227645E-01
          2   -1    0    0  501    0  0.00000000000E+00  0.00000000000E+00  0.38514313957E+04  0.38514313957E+04  0.25500000000E-02 0. -1.
         -2   -1    0    0    0  501 -0.00000000000E+00 -0.00000000000E+00 -0.57636923630E+03  0.57636923630E+03  0.25500000000E-02 0.  1.
    8880023    1    1    2    0    0  0.78841700306E+03 -0.47225171175E+03  0.11879880437E+03  0.11369021119E+04  0.65864270000E+03 0.  0.
    8880022    1    1    2    0    0 -0.78841700306E+03  0.47225171175E+03  0.31562633550E+04  0.32908985201E+04  0.15294330000E+03 0.  0.
<mgrwt>
<rscale>  0 0.10772591E+04</rscale>
<asrwt>0</asrwt>
<pdfrwt beam="1">  1        2 0.59252792E+00 0.11306782E+04</pdfrwt>
<pdfrwt beam="2">  1       -2 0.88672189E-01 0.11306782E+04</pdfrwt>
<totfact> 0.50147873E-01</totfact>
</mgrwt>
</event>
<event>
 4    5  0.7289609E-008  0.8449255E+03  0.7818608E-02  0.9620962E-01
         -2   -1    0    0    0  501 -0.00000000000E+00  0.00000000000E+00  0.46531801355E+03  0.46531801356E+03  0.25500000000E-02 0.  1.
          2   -1    0    0  501    0  0.00000000000E+00 -0.00000000000E+00 -0.22199542480E+04  0.22199542480E+04  0.25500000000E-02 0. -1.
    8880023    1    1    2    0    0  0.36808430583E+03  0.38026682702E+03  0.13226990148E+01  0.84492654812E+03  0.65864270000E+03 0.  1.
    8880022    1    1    2    0    0 -0.36808430583E+03 -0.38026682702E+03 -0.17559589335E+04  0.18403457135E+04  0.15294330000E+03 0.  0.
<mgrwt>
<rscale>  0 0.75924192E+03</rscale>
<asrwt>0</asrwt>
<pdfrwt beam="1">  1        2 0.34153142E+00 0.84492551E+03</pdfrwt>
<pdfrwt beam="2">  1       -2 0.71587388E-01 0.84492551E+03</pdfrwt>
<totfact> 0.91397018E+00</totfact>
</mgrwt>
</event>
<event>
 4    5  0.7289609E-008  0.7048495E+03  0.7818608E-02  0.9977649E-01
          2   -1    0    0  501    0  0.00000000000E+00  0.00000000000E+00  0.18510389893E+04  0.18510389893E+04  0.25500000000E-02 0. -1.
         -2   -1    0    0    0  501 -0.00000000000E+00 -0.00000000000E+00 -0.48542833516E+03  0.48542833517E+03  0.25500000000E-02 0.  1.
    8880023    1    1    2    0    0 -0.32438720922E+02 -0.24889821059E+03 -0.20858581982E+03  0.73506519462E+03  0.65864270000E+03 0.  1.
    8880022    1    1    2    0    0  0.32438720922E+02  0.24889821059E+03  0.15741964740E+04  0.16014021298E+04  0.15294330000E+03 0.  0.
<mgrwt>
<rscale>  0 0.56641258E+03</rscale>
<asrwt>0</asrwt>
<pdfrwt beam="1">  1        2 0.28477523E+00 0.70484948E+03</pdfrwt>
<pdfrwt beam="2">  1       -2 0.74681281E-01 0.70484948E+03</pdfrwt>
<totfact> 0.13530780E+01</totfact>
</mgrwt>
</event>
<event>
 4    5  0.8024151E-008  0.7215759E+03  0.7818608E-02  0.9917289E-01
          2   -1    0    0  501    0  0.00000000000E+00  0.00000000000E+00  0.26184128870E+04  0.26184128870E+04  0.25500000000E-02 0. -1.
         -2   -1    0    0    0  501 -0.00000000000E+00 -0.00000000000E+00 -0.12990524606E+04  0.12990524606E+04  0.25500000000E-02 0.  1.
    8880023    1    1    2    0    0  0.12367260634E+03 -0.26751951540E+03 -0.11870491808E+04  0.13891571432E+04  0.65864270000E+03 0.  1.
    8880022    1    1    2    0    0 -0.12367260634E+03  0.26751951540E+03  0.25064096071E+04  0.25283082044E+04  0.15294330000E+03 0.  0.
<mgrwt>
<rscale>  0 0.59430646E+03</rscale>
<asrwt>0</asrwt>
<pdfrwt beam="1">  1        2 0.40283275E+00 0.72157592E+03</pdfrwt>
<pdfrwt beam="2">  1       -2 0.19985423E+00 0.72157592E+03</pdfrwt>
<totfact> 0.42315594E-01</totfact>
</mgrwt>
</event>
<event>
 4    5  0.7289609E-008  0.8192459E+03  0.7818608E-02  0.9670630E-01
          2   -1    0    0  501    0  0.00000000000E+00  0.00000000000E+00  0.65790219278E+03  0.65790219278E+03  0.25500000000E-02 0. -1.
         -2   -1    0    0    0  501 -0.00000000000E+00 -0.00000000000E+00 -0.13743678614E+04  0.13743678614E+04  0.25500000000E-02 0.  1.
    8880023    1    1    2    0    0  0.48390485010E+03 -0.56477545547E+02 -0.11156399149E+04  0.13841301395E+04  0.65864270000E+03 0.  1.
    8880022    1    1    2    0    0 -0.48390485010E+03  0.56477545547E+02  0.39917424627E+03  0.64813991468E+03  0.15294330000E+03 0.  0.
<mgrwt>
<rscale>  0 0.72792688E+03</rscale>
<asrwt>0</asrwt>
<pdfrwt beam="1">  1        2 0.10121572E+00 0.81924589E+03</pdfrwt>
<pdfrwt beam="2">  1       -2 0.21144121E+00 0.81924589E+03</pdfrwt>
<totfact> 0.50334798E+00</totfact>
</mgrwt>
</event>
<event>
 4    5  0.7289609E-008  0.2165074E+04  0.7818608E-02  0.8543645E-01
          2   -1    0    0  501    0  0.00000000000E+00  0.00000000000E+00  0.16967597241E+04  0.16967597241E+04  0.25500000000E-02 0. -1.
         -2   -1    0    0    0  501 -0.00000000000E+00 -0.00000000000E+00 -0.35138338802E+04  0.35138338802E+04  0.25500000000E-02 0.  1.
    8880023    1    1    2    0    0  0.14499352243E+04  0.14667732885E+04  0.37454935545E+03  0.21972331374E+04  0.65864270000E+03 0.  0.
    8880022    1    1    2    0    0 -0.14499352243E+04 -0.14667732885E+04 -0.21916235115E+04  0.30133604669E+04  0.15294330000E+03 0.  0.
<mgrwt>
<rscale>  0 0.21404181E+04</rscale>
<asrwt>0</asrwt>
<pdfrwt beam="1">  1        2 0.26103996E+00 0.21650742E+04</pdfrwt>
<pdfrwt beam="2">  1       -2 0.54058983E+00 0.21650742E+04</pdfrwt>
<totfact> 0.80986494E-03</totfact>
</mgrwt>
</event>
<event>
 4    5  0.7289609E-008  0.1043928E+04  0.7818608E-02  0.9326216E-01
         -2   -1    0    0    0  501 -0.00000000000E+00  0.00000000000E+00  0.61706615236E+03  0.61706615237E+03  0.25500000000E-02 0.  1.
          2   -1    0    0  501    0  0.00000000000E+00 -0.00000000000E+00 -0.29711871982E+04  0.29711871982E+04  0.25500000000E-02 0. -1.
    8880023    1    1    2    0    0 -0.42030374218E+03 -0.69232999080E+03  0.51648359569E+02  0.10452051527E+04  0.65864270000E+03 0.  0.
    8880022    1    1    2    0    0  0.42030374218E+03  0.69232999080E+03 -0.24057694054E+04  0.25430481979E+04  0.15294330000E+03 0.  0.
<mgrwt>
<rscale>  0 0.98404761E+03</rscale>
<asrwt>0</asrwt>
<pdfrwt beam="1">  1        2 0.45710571E+00 0.10439283E+04</pdfrwt>
<pdfrwt beam="2">  1       -2 0.94933256E-01 0.10439283E+04</pdfrwt>
<totfact> 0.17152745E+00</totfact>
</mgrwt>
</event>
<event>
 4    5  0.7289609E-008  0.1143871E+04  0.7818608E-02  0.9213714E-01
         -2   -1    0    0    0  501 -0.00000000000E+00  0.00000000000E+00  0.98366846334E+03  0.98366846334E+03  0.25500000000E-02 0.  1.
          2   -1    0    0  501    0  0.00000000000E+00 -0.00000000000E+00 -0.19565874547E+04  0.19565874547E+04  0.25500000000E-02 0. -1.
    8880023    1    1    2    0    0  0.31238408134E+02  0.93469517988E+03  0.45121417534E+03  0.12296484683E+04  0.65864270000E+03 0.  0.
    8880022    1    1    2    0    0 -0.31238408134E+02 -0.93469517988E+03 -0.14241331667E+04  0.17106074497E+04  0.15294330000E+03 0.  0.
<mgrwt>
<rscale>  0 0.10912989E+04</rscale>
<asrwt>0</asrwt>
<pdfrwt beam="1">  1        2 0.30101345E+00 0.11438711E+04</pdfrwt>
<pdfrwt beam="2">  1       -2 0.15133361E+00 0.11438711E+04</pdfrwt>
<totfact> 0.20242348E+00</totfact>
</mgrwt>
</event>
<event>
 4    5  0.7289609E-008  0.7583670E+03  0.7818608E-02  0.9809354E-01
         -2   -1    0    0    0  501 -0.00000000000E+00  0.00000000000E+00  0.94722417503E+03  0.94722417503E+03  0.25500000000E-02 0.  1.
          2   -1    0    0  501    0  0.00000000000E+00 -0.00000000000E+00 -0.20635825520E+04  0.20635825520E+04  0.25500000000E-02 0. -1.
    8880023    1    1    2    0    0  0.37295155512E+02 -0.37405796345E+03  0.77031720191E+03  0.10809759879E+04  0.65864270000E+03 0.  1.
    8880022    1    1    2    0    0 -0.37295155512E+02  0.37405796345E+03 -0.18866755789E+04  0.19298307391E+04  0.15294330000E+03 0.  0.
<mgrwt>
<rscale>  0 0.64862981E+03</rscale>
<asrwt>0</asrwt>
<pdfrwt beam="1">  1        2 0.31747424E+00 0.75836699E+03</pdfrwt>
<pdfrwt beam="2">  1       -2 0.14572680E+00 0.75836699E+03</pdfrwt>
<totfact> 0.20665521E+00</totfact>
</mgrwt>
</event>
<event>
 4    5  0.7289609E-008  0.7420888E+03  0.7818608E-02  0.9853904E-01
          2   -1    0    0  501    0  0.00000000000E+00  0.00000000000E+00  0.34570490510E+04  0.34570490510E+04  0.25500000000E-02 0. -1.
         -2   -1    0    0    0  501 -0.00000000000E+00 -0.00000000000E+00 -0.27037868989E+03  0.27037868990E+03  0.25500000000E-02 0.  1.
    8880023    1    1    2    0    0 -0.33777019481E+03 -0.52884856048E+02  0.27443666267E+03  0.79120869597E+03  0.65864270000E+03 0.  1.
    8880022    1    1    2    0    0  0.33777019481E+03  0.52884856048E+02  0.29122336984E+04  0.29362190449E+04  0.15294330000E+03 0.  0.
<mgrwt>
<rscale>  0 0.62548264E+03</rscale>
<asrwt>0</asrwt>
<pdfrwt beam="1">  1        2 0.53185372E+00 0.74208875E+03</pdfrwt>
<pdfrwt beam="2">  1       -2 0.41596720E-01 0.74208875E+03</pdfrwt>
<totfact> 0.51691693E+00</totfact>
</mgrwt>
</event>
<event>
 4    5  0.8173067E-008  0.1802120E+04  0.7818608E-02  0.8721364E-01
          2   -1    0    0  501    0  0.00000000000E+00  0.00000000000E+00  0.30386141943E+04  0.30386141943E+04  0.25500000000E-02 0. -1.
         -2   -1    0    0    0  501 -0.00000000000E+00 -0.00000000000E+00 -0.19115641468E+04  0.19115641468E+04  0.25500000000E-02 0.  1.
    8880023    1    1    2    0    0 -0.16652211780E+04  0.20215249707E+03 -0.11350917000E+04  0.21298052910E+04  0.65864270000E+03 0.  0.
    8880022    1    1    2    0    0  0.16652211780E+04 -0.20215249707E+03  0.22621417474E+04  0.28203730502E+04  0.15294330000E+03 0.  0.
<mgrwt>
<rscale>  0 0.17719417E+04</rscale>
<asrwt>0</asrwt>
<pdfrwt beam="1">  1        2 0.46747910E+00 0.18021203E+04</pdfrwt>
<pdfrwt beam="2">  1       -2 0.29408680E+00 0.18021203E+04</pdfrwt>
<totfact> 0.51455274E-02</totfact>
</mgrwt>
</event>
<event>
 4    5  0.7289609E-008  0.1019045E+04  0.7818608E-02  0.9357054E-01
          2   -1    0    0  501    0  0.00000000000E+00  0.00000000000E+00  0.14201100664E+04  0.14201100664E+04  0.25500000000E-02 0. -1.
         -2   -1    0    0    0  501 -0.00000000000E+00 -0.00000000000E+00 -0.94078748373E+03  0.94078748373E+03  0.25500000000E-02 0.  1.
    8880023    1    1    2    0    0 -0.60160657845E+03 -0.49265846767E+03 -0.47173564876E+03  0.11229370283E+04  0.65864270000E+03 0.  1.
    8880022    1    1    2    0    0  0.60160657845E+03  0.49265846767E+03  0.95105823145E+03  0.12379605218E+04  0.15294330000E+03 0.  0.
<mgrwt>
<rscale>  0 0.95695830E+03</rscale>
<asrwt>0</asrwt>
<pdfrwt beam="1">  1        2 0.21847847E+00 0.10190452E+04</pdfrwt>
<pdfrwt beam="2">  1       -2 0.14473654E+00 0.10190452E+04</pdfrwt>
<totfact> 0.45947355E+00</totfact>
</mgrwt>
</event>
<event>
 4    5  0.7289609E-008  0.6884734E+03  0.7818608E-02  0.1004887E+00
          2   -1    0    0  501    0  0.00000000000E+00  0.00000000000E+00  0.14459234807E+04  0.14459234807E+04  0.25500000000E-02 0. -1.
         -2   -1    0    0    0  501 -0.00000000000E+00 -0.00000000000E+00 -0.25460752576E+03  0.25460752578E+03  0.25500000000E-02 0.  1.
    8880023    1    1    2    0    0 -0.91097142244E+02 -0.17856873304E+03  0.26040246754E+03  0.73607413561E+03  0.65864270000E+03 0.  1.
    8880022    1    1    2    0    0  0.91097142244E+02  0.17856873304E+03  0.93091348740E+03  0.96445687088E+03  0.15294330000E+03 0.  0.
<mgrwt>
<rscale>  0 0.53558452E+03</rscale>
<asrwt>0</asrwt>
<pdfrwt beam="1">  1        2 0.22244977E+00 0.68847345E+03</pdfrwt>
<pdfrwt beam="2">  1       -2 0.39170389E-01 0.68847345E+03</pdfrwt>
<totfact> 0.85997957E+01</totfact>
</mgrwt>
</event>
<event>
 4    5  0.7289609E-008  0.8795204E+03  0.7818608E-02  0.9559742E-01
         -2   -1    0    0    0  501 -0.00000000000E+00  0.00000000000E+00  0.38865232477E+03  0.38865232478E+03  0.25500000000E-02 0.  1.
          2   -1    0    0  501    0  0.00000000000E+00 -0.00000000000E+00 -0.16507382149E+04  0.16507382149E+04  0.25500000000E-02 0. -1.
    8880023    1    1    2    0    0  0.49673102501E+03  0.30496583787E+03 -0.35084006443E+03  0.94691331734E+03  0.65864270000E+03 0.  1.
    8880022    1    1    2    0    0 -0.49673102501E+03 -0.30496583787E+03 -0.91124582570E+03  0.10924772223E+04  0.15294330000E+03 0.  0.
<mgrwt>
<rscale>  0 0.80019037E+03</rscale>
<asrwt>0</asrwt>
<pdfrwt beam="1">  1        2 0.25395972E+00 0.87952037E+03</pdfrwt>
<pdfrwt beam="2">  1       -2 0.59792666E-01 0.87952037E+03</pdfrwt>
<totfact> 0.27565933E+01</totfact>
</mgrwt>
</event>
<event>
 4    5  0.7289609E-008  0.6776203E+03  0.7818608E-02  0.1010703E+00
         -2   -1    0    0    0  501 -0.00000000000E+00  0.00000000000E+00  0.24346664027E+03  0.24346664029E+03  0.25500000000E-02 0.  1.
          2   -1    0    0  501    0  0.00000000000E+00 -0.00000000000E+00 -0.10213239526E+04  0.10213239526E+04  0.25500000000E-02 0. -1.
    8880023    1    1    2    0    0 -0.13668596890E+03  0.81707166412E+02 -0.79347601378E+03  0.10434431014E+04  0.65864270000E+03 0. -1.
    8880022    1    1    2    0    0  0.13668596890E+03 -0.81707166412E+02  0.15618701460E+02  0.22134749149E+03  0.15294330000E+03 0.  0.
<mgrwt>
<rscale>  0 0.51196174E+03</rscale>
<asrwt>0</asrwt>
<pdfrwt beam="1">  1        2 0.15712676E+00 0.67762034E+03</pdfrwt>
<pdfrwt beam="2">  1       -2 0.37456407E-01 0.67762034E+03</pdfrwt>
<totfact> 0.16672637E+02</totfact>
</mgrwt>
</event>
<event>
 4    5  0.7289609E-008  0.7136804E+03  0.7818608E-02  0.9944580E-01
          2   -1    0    0  501    0  0.00000000000E+00  0.00000000000E+00  0.25774248295E+04  0.25774248295E+04  0.25500000000E-02 0. -1.
         -2   -1    0    0    0  501 -0.00000000000E+00 -0.00000000000E+00 -0.48855853978E+03  0.48855853979E+03  0.25500000000E-02 0.  1.
    8880023    1    1    2    0    0  0.21304718128E+03  0.17360989781E+03 -0.21138654667E+03  0.74432786892E+03  0.65864270000E+03 0.  1.
    8880022    1    1    2    0    0 -0.21304718128E+03 -0.17360989781E+03  0.23002528364E+04  0.23216555004E+04  0.15294330000E+03 0.  0.
<mgrwt>
<rscale>  0 0.58148561E+03</rscale>
<asrwt>0</asrwt>
<pdfrwt beam="1">  1        2 0.39652688E+00 0.71368039E+03</pdfrwt>
<pdfrwt beam="2">  1       -2 0.75162855E-01 0.71368039E+03</pdfrwt>
<totfact> 0.52811739E+00</totfact>
</mgrwt>
</event>
<event>
 4    5  0.7289609E-008  0.1221261E+04  0.7818608E-02  0.9136727E-01
          2   -1    0    0  501    0  0.00000000000E+00  0.00000000000E+00  0.31497718813E+04  0.31497718813E+04  0.25500000000E-02 0. -1.
         -2   -1    0    0    0  501 -0.00000000000E+00 -0.00000000000E+00 -0.85546069145E+03  0.85546069146E+03  0.25500000000E-02 0.  1.
    8880023    1    1    2    0    0  0.87393404091E+03 -0.54213225351E+03  0.26406035754E+04  0.29093410830E+04  0.65864270000E+03 0.  0.
    8880022    1    1    2    0    0 -0.87393404091E+03  0.54213225351E+03 -0.34629238556E+03  0.10958914898E+04  0.15294330000E+03 0.  0.
<mgrwt>
<rscale>  0 0.11731068E+04</rscale>
<asrwt>0</asrwt>
<pdfrwt beam="1">  1        2 0.48458030E+00 0.12212609E+04</pdfrwt>
<pdfrwt beam="2">  1       -2 0.13160933E+00 0.12212609E+04</pdfrwt>
<totfact> 0.58036843E-01</totfact>
</mgrwt>
</event>
<event>
 4    5  0.7289609E-008  0.1594591E+04  0.7818608E-02  0.8845577E-01
          2   -1    0    0  501    0  0.00000000000E+00  0.00000000000E+00  0.38807163895E+04  0.38807163895E+04  0.25500000000E-02 0. -1.
         -2   -1    0    0    0  501 -0.00000000000E+00 -0.00000000000E+00 -0.65678808447E+03  0.65678808448E+03  0.25500000000E-02 0.  1.
    8880023    1    1    2    0    0  0.10583169994E+04 -0.99442211547E+03  0.23364377878E+04  0.28287209048E+04  0.65864270000E+03 0. -1.
    8880022    1    1    2    0    0 -0.10583169994E+04  0.99442211547E+03  0.88749051725E+03  0.17087835691E+04  0.15294330000E+03 0.  0.
<mgrwt>
<rscale>  0 0.15598867E+04</rscale>
<asrwt>0</asrwt>
<pdfrwt beam="1">  1        2 0.59703329E+00 0.15945910E+04</pdfrwt>
<pdfrwt beam="2">  1       -2 0.10104432E+00 0.15945910E+04</pdfrwt>
<totfact> 0.32805693E-01</totfact>
</mgrwt>
</event>
<event>
 4    5  0.7289609E-008  0.8114185E+03  0.7818608E-02  0.9686630E-01
          2   -1    0    0  501    0  0.00000000000E+00  0.00000000000E+00  0.27585285231E+04  0.27585285231E+04  0.25500000000E-02 0. -1.
         -2   -1    0    0    0  501 -0.00000000000E+00 -0.00000000000E+00 -0.20731651757E+03  0.20731651758E+03  0.25500000000E-02 0.  1.
    8880023    1    1    2    0    0  0.45584504187E+03 -0.12959586238E+03  0.77837500441E+03  0.11243965686E+04  0.65864270000E+03 0.  0.
    8880022    1    1    2    0    0 -0.45584504187E+03  0.12959586238E+03  0.17728370011E+04  0.18414484721E+04  0.15294330000E+03 0.  0.
<mgrwt>
<rscale>  0 0.71818459E+03</rscale>
<asrwt>0</asrwt>
<pdfrwt beam="1">  1        2 0.42438901E+00 0.81141851E+03</pdfrwt>
<pdfrwt beam="2">  1       -2 0.31894848E-01 0.81141851E+03</pdfrwt>
<totfact> 0.23324903E+01</totfact>
</mgrwt>
</event>
<event>
 4    5  0.7289609E-008  0.7105001E+03  0.7818608E-02  0.9956148E-01
         -2   -1    0    0    0  501 -0.00000000000E+00  0.00000000000E+00  0.22434069958E+03  0.22434069959E+03  0.25500000000E-02 0.  1.
          2   -1    0    0  501    0  0.00000000000E+00 -0.00000000000E+00 -0.20322141346E+04  0.20322141346E+04  0.25500000000E-02 0. -1.
    8880023    1    1    2    0    0 -0.20171367529E+03 -0.17410297520E+03 -0.39961096044E+03  0.81516831314E+03  0.65864270000E+03 0.  1.
    8880022    1    1    2    0    0  0.20171367529E+03  0.17410297520E+03 -0.14082624746E+04  0.14413865211E+04  0.15294330000E+03 0.  0.
<mgrwt>
<rscale>  0 0.57615585E+03</rscale>
<asrwt>0</asrwt>
<pdfrwt beam="1">  1        2 0.31264832E+00 0.71050015E+03</pdfrwt>
<pdfrwt beam="2">  1       -2 0.34513955E-01 0.71050015E+03</pdfrwt>
<totfact> 0.52220887E+01</totfact>
</mgrwt>
</event>
<event>
 4    5  0.7289609E-008  0.7844313E+03  0.7818608E-02  0.9745529E-01
         -2   -1    0    0    0  501 -0.00000000000E+00  0.00000000000E+00  0.85106402907E+03  0.85106402907E+03  0.25500000000E-02 0.  1.
          2   -1    0    0  501    0  0.00000000000E+00 -0.00000000000E+00 -0.72590711394E+03  0.72590711394E+03  0.25500000000E-02 0. -1.
    8880023    1    1    2    0    0 -0.41412314120E+03  0.10012111701E+03  0.54850872016E+03  0.95718035735E+03  0.65864270000E+03 0.  1.
    8880022    1    1    2    0    0  0.41412314120E+03 -0.10012111701E+03 -0.42335180503E+03  0.61979078566E+03  0.15294330000E+03 0.  0.
<mgrwt>
<rscale>  0 0.68369530E+03</rscale>
<asrwt>0</asrwt>
<pdfrwt beam="1">  1        2 0.11167802E+00 0.78443127E+03</pdfrwt>
<pdfrwt beam="2">  1       -2 0.13093293E+00 0.78443127E+03</pdfrwt>
<totfact> 0.16866914E+01</totfact>
</mgrwt>
</event>
<event>
 4    5  0.7289609E-008  0.1652084E+04  0.7818608E-02  0.8809097E-01
         -2   -1    0    0    0  501 -0.00000000000E+00  0.00000000000E+00  0.20062199331E+04  0.20062199331E+04  0.25500000000E-02 0.  1.
          2   -1    0    0  501    0  0.00000000000E+00 -0.00000000000E+00 -0.21668799130E+04  0.21668799130E+04  0.25500000000E-02 0. -1.
    8880023    1    1    2    0    0 -0.14967465756E+04 -0.23520708658E+03  0.12698818234E+04  0.20837424833E+04  0.65864270000E+03 0.  0.
    8880022    1    1    2    0    0  0.14967465756E+04  0.23520708658E+03 -0.14305418034E+04  0.20893573628E+04  0.15294330000E+03 0.  0.
<mgrwt>
<rscale>  0 0.16187729E+04</rscale>
<asrwt>0</asrwt>
<pdfrwt beam="1">  1        2 0.33336614E+00 0.16520844E+04</pdfrwt>
<pdfrwt beam="2">  1       -2 0.30864922E+00 0.16520844E+04</pdfrwt>
<totfact> 0.13964773E-01</totfact>
</mgrwt>
</event>
<event>
 4    5  0.7289609E-008  0.8189264E+03  0.7818608E-02  0.9671275E-01
          2   -1    0    0  501    0  0.00000000000E+00  0.00000000000E+00  0.17089081443E+04  0.17089081443E+04  0.25500000000E-02 0. -1.
         -2   -1    0    0    0  501 -0.00000000000E+00 -0.00000000000E+00 -0.85655740916E+03  0.85655740916E+03  0.25500000000E-02 0.  1.
    8880023    1    1    2    0    0 -0.47465174056E+03  0.10740554582E+03 -0.60711009826E+03  0.10194229268E+04  0.65864270000E+03 0.  0.
    8880022    1    1    2    0    0  0.47465174056E+03 -0.10740554582E+03  0.14594608334E+04  0.15460426266E+04  0.15294330000E+03 0. -1.
<mgrwt>
<rscale>  0 0.72753121E+03</rscale>
<asrwt>0</asrwt>
<pdfrwt beam="1">  1        2 0.26290895E+00 0.81892639E+03</pdfrwt>
<pdfrwt beam="2">  1       -2 0.13177806E+00 0.81892639E+03</pdfrwt>
<totfact> 0.41457386E+00</totfact>
</mgrwt>
</event>
<event>
 4    5  0.7289609E-008  0.6769618E+03  0.7818608E-02  0.1011097E+00
          2   -1    0    0  501    0  0.00000000000E+00  0.00000000000E+00  0.11348881356E+04  0.11348881356E+04  0.25500000000E-02 0. -1.
         -2   -1    0    0    0  501 -0.00000000000E+00 -0.00000000000E+00 -0.16038921023E+04  0.16038921023E+04  0.25500000000E-02 0.  1.
    8880023    1    1    2    0    0 -0.15641359714E+03 -0.13879186530E+01 -0.15206990645E+04  0.16645729154E+04  0.65864270000E+03 0.  1.
    8880022    1    1    2    0    0  0.15641359714E+03  0.13879186530E+01  0.10516950979E+04  0.10742073225E+04  0.15294330000E+03 0.  0.
<mgrwt>
<rscale>  0 0.51040905E+03</rscale>
<asrwt>0</asrwt>
<pdfrwt beam="1">  1        2 0.17459817E+00 0.67696185E+03</pdfrwt>
<pdfrwt beam="2">  1       -2 0.24675263E+00 0.67696185E+03</pdfrwt>
<totfact> 0.14645472E+00</totfact>
</mgrwt>
</event>
<event>
 4    5  0.7289609E-008  0.8714832E+03  0.7818608E-02  0.9573455E-01
          2   -1    0    0  501    0  0.00000000000E+00  0.00000000000E+00  0.11246281456E+04  0.11246281456E+04  0.25500000000E-02 0. -1.
         -2   -1    0    0    0  501 -0.00000000000E+00 -0.00000000000E+00 -0.12231861552E+04  0.12231861552E+04  0.25500000000E-02 0.  1.
    8880023    1    1    2    0    0 -0.81000735066E+02  0.56489960320E+03 -0.96425720565E+03  0.12997210646E+04  0.65864270000E+03 0.  0.
    8880022    1    1    2    0    0  0.81000735066E+02 -0.56489960320E+03  0.86569919605E+03  0.10480932362E+04  0.15294330000E+03 0. -1.
<mgrwt>
<rscale>  0 0.79078320E+03</rscale>
<asrwt>0</asrwt>
<pdfrwt beam="1">  1        2 0.17301971E+00 0.87148315E+03</pdfrwt>
<pdfrwt beam="2">  1       -2 0.18818249E+00 0.87148315E+03</pdfrwt>
<totfact> 0.33775798E+00</totfact>
</mgrwt>
</event>
<event>
 4    5  0.7289609E-008  0.1249114E+04  0.7818608E-02  0.9110798E-01
          2   -1    0    0  501    0  0.00000000000E+00  0.00000000000E+00  0.26284057439E+04  0.26284057439E+04  0.25500000000E-02 0. -1.
         -2   -1    0    0    0  501 -0.00000000000E+00 -0.00000000000E+00 -0.11512291392E+04  0.11512291392E+04  0.25500000000E-02 0.  1.
    8880023    1    1    2    0    0  0.93129083143E+03  0.50908980212E+03 -0.64212148479E+03  0.14044946589E+04  0.65864270000E+03 0.  1.
    8880022    1    1    2    0    0 -0.93129083143E+03 -0.50908980212E+03  0.21192980895E+04  0.23751402242E+04  0.15294330000E+03 0.  0.
<mgrwt>
<rscale>  0 0.12023542E+04</rscale>
<asrwt>0</asrwt>
<pdfrwt beam="1">  1        2 0.40437011E+00 0.12491138E+04</pdfrwt>
<pdfrwt beam="2">  1       -2 0.17711218E+00 0.12491138E+04</pdfrwt>
<totfact> 0.54005810E-01</totfact>
</mgrwt>
</event>
<event>
 4    5  0.7289609E-008  0.6820017E+03  0.7818608E-02  0.1008213E+00
         -2   -1    0    0    0  501 -0.00000000000E+00  0.00000000000E+00  0.11689453206E+04  0.11689453206E+04  0.25500000000E-02 0.  1.
          2   -1    0    0  501    0  0.00000000000E+00 -0.00000000000E+00 -0.27891717247E+03  0.27891717249E+03  0.25500000000E-02 0. -1.
    8880023    1    1    2    0    0 -0.17628094513E+03  0.15526948546E+02  0.98278802607E+03  0.11962435238E+04  0.65864270000E+03 0.  0.
    8880022    1    1    2    0    0  0.17628094513E+03 -0.15526948546E+02 -0.92759877939E+02  0.25161896931E+03  0.15294330000E+03 0.  0.
<mgrwt>
<rscale>  0 0.52190943E+03</rscale>
<asrwt>0</asrwt>
<pdfrwt beam="1">  1        2 0.42910334E-01 0.68200166E+03</pdfrwt>
<pdfrwt beam="2">  1       -2 0.17983774E+00 0.68200166E+03</pdfrwt>
<totfact> 0.22085032E+01</totfact>
</mgrwt>
</event>
<event>
 4    5  0.7289609E-008  0.6923405E+03  0.7818608E-02  0.1003059E+00
         -2   -1    0    0    0  501 -0.00000000000E+00  0.00000000000E+00  0.30231739762E+03  0.30231739763E+03  0.25500000000E-02 0.  1.
          2   -1    0    0  501    0  0.00000000000E+00 -0.00000000000E+00 -0.16890231000E+04  0.16890231000E+04  0.25500000000E-02 0. -1.
    8880023    1    1    2    0    0 -0.20736048284E+03  0.50266737607E+02 -0.12615041791E+03  0.70373947520E+03  0.65864270000E+03 0.  0.
    8880022    1    1    2    0    0  0.20736048284E+03 -0.50266737607E+02 -0.12605552844E+04  0.12876010224E+04  0.15294330000E+03 0.  0.
<mgrwt>
<rscale>  0 0.54328836E+03</rscale>
<asrwt>0</asrwt>
<pdfrwt beam="1">  1        2 0.25984970E+00 0.69234047E+03</pdfrwt>
<pdfrwt beam="2">  1       -2 0.46510370E-01 0.69234047E+03</pdfrwt>
<totfact> 0.44987374E+01</totfact>
</mgrwt>
</event>
<event>
 4    5  0.7289609E-008  0.8434137E+03  0.7818608E-02  0.9623777E-01
         -2   -1    0    0    0  501 -0.00000000000E+00  0.00000000000E+00  0.36810193414E+03  0.36810193415E+03  0.25500000000E-02 0.  1.
          2   -1    0    0  501    0  0.00000000000E+00 -0.00000000000E+00 -0.26523982515E+04  0.26523982515E+04  0.25500000000E-02 0. -1.
    8880023    1    1    2    0    0  0.93518343569E+02  0.51845037667E+03 -0.20214853512E+03  0.86730081873E+03  0.65864270000E+03 0.  1.
    8880022    1    1    2    0    0 -0.93518343569E+02 -0.51845037667E+03 -0.20821477823E+04  0.21531993670E+04  0.15294330000E+03 0.  0.
<mgrwt>
<rscale>  0 0.75742274E+03</rscale>
<asrwt>0</asrwt>
<pdfrwt beam="1">  1        2 0.40806126E+00 0.84341371E+03</pdfrwt>
<pdfrwt beam="2">  1       -2 0.56631068E-01 0.84341371E+03</pdfrwt>
<totfact> 0.86000703E+00</totfact>
</mgrwt>
</event>
<event>
 4    5  0.7289609E-008  0.7957933E+03  0.7818608E-02  0.9719967E-01
          2   -1    0    0  501    0  0.00000000000E+00  0.00000000000E+00  0.58633751619E+03  0.58633751619E+03  0.25500000000E-02 0. -1.
         -2   -1    0    0    0  501 -0.00000000000E+00 -0.00000000000E+00 -0.14659155505E+04  0.14659155505E+04  0.25500000000E-02 0.  1.
    8880023    1    1    2    0    0 -0.16947815817E+03 -0.41322377866E+03 -0.12295360856E+04  0.14645975315E+04  0.65864270000E+03 0.  0.
    8880022    1    1    2    0    0  0.16947815817E+03  0.41322377866E+03  0.34995805127E+03  0.58765553517E+03  0.15294330000E+03 0.  0.
<mgrwt>
<rscale>  0 0.69840326E+03</rscale>
<asrwt>0</asrwt>
<pdfrwt beam="1">  1        2 0.90205772E-01 0.79579328E+03</pdfrwt>
<pdfrwt beam="2">  1       -2 0.22552547E+00 0.79579328E+03</pdfrwt>
<totfact> 0.47383378E+00</totfact>
</mgrwt>
</event>
<event>
 4    5  0.7289609E-008  0.8540459E+03  0.7818608E-02  0.9604244E-01
         -2   -1    0    0    0  501 -0.00000000000E+00  0.00000000000E+00  0.31241632359E+04  0.31241632359E+04  0.25500000000E-02 0.  1.
          2   -1    0    0  501    0  0.00000000000E+00 -0.00000000000E+00 -0.11172478545E+04  0.11172478545E+04  0.25500000000E-02 0. -1.
    8880023    1    1    2    0    0 -0.77644163677E+02 -0.53810367342E+03  0.29889398169E+04  0.31085616634E+04  0.65864270000E+03 0.  1.
    8880022    1    1    2    0    0  0.77644163677E+02  0.53810367342E+03 -0.98202443546E+03  0.11328494271E+04  0.15294330000E+03 0.  0.
<mgrwt>
<rscale>  0 0.77015941E+03</rscale>
<asrwt>0</asrwt>
<pdfrwt beam="1">  1        2 0.17188429E+00 0.85404589E+03</pdfrwt>
<pdfrwt beam="2">  1       -2 0.48064050E+00 0.85404589E+03</pdfrwt>
<totfact> 0.48542378E-02</totfact>
</mgrwt>
</event>
<event>
 4    5  0.7289609E-008  0.1295831E+04  0.7818608E-02  0.9069168E-01
         -2   -1    0    0    0  501 -0.00000000000E+00  0.00000000000E+00  0.68776479417E+03  0.68776479417E+03  0.25500000000E-02 0.  1.
          2   -1    0    0  501    0  0.00000000000E+00 -0.00000000000E+00 -0.51299670743E+04  0.51299670743E+04  0.25500000000E-02 0. -1.
    8880023    1    1    2    0    0  0.10732525857E+04 -0.30577322489E+03 -0.64494928583E+02  0.12974352315E+04  0.65864270000E+03 0.  0.
    8880022    1    1    2    0    0 -0.10732525857E+04  0.30577322489E+03 -0.43777073515E+04  0.45202966370E+04  0.15294330000E+03 0.  0.
<mgrwt>
<rscale>  0 0.12512203E+04</rscale>
<asrwt>0</asrwt>
<pdfrwt beam="1">  1        2 0.78922568E+00 0.12958312E+04</pdfrwt>
<pdfrwt beam="2">  1       -2 0.10580997E+00 0.12958312E+04</pdfrwt>
<totfact> 0.17317487E-02</totfact>
</mgrwt>
</event>
<event>
 4    5  0.7289609E-008  0.1103033E+04  0.7818608E-02  0.9257687E-01
          2   -1    0    0  501    0  0.00000000000E+00  0.00000000000E+00  0.22592679031E+04  0.22592679031E+04  0.25500000000E-02 0. -1.
         -2   -1    0    0    0  501 -0.00000000000E+00 -0.00000000000E+00 -0.47365321401E+03  0.47365321402E+03  0.25500000000E-02 0.  1.
    8880023    1    1    2    0    0  0.15686238629E+03  0.87078440588E+03  0.63275126534E+03  0.12716350340E+04  0.65864270000E+03 0. -1.
    8880022    1    1    2    0    0 -0.15686238629E+03 -0.87078440588E+03  0.11528634238E+04  0.14612860831E+04  0.15294330000E+03 0.  0.
<mgrwt>
<rscale>  0 0.10477337E+04</rscale>
<asrwt>0</asrwt>
<pdfrwt beam="1">  1        2 0.34757967E+00 0.11030329E+04</pdfrwt>
<pdfrwt beam="2">  1       -2 0.72869728E-01 0.11030329E+04</pdfrwt>
<totfact> 0.80949068E+00</totfact>
</mgrwt>
</event>
<event>
 4    5  0.7289609E-008  0.9078947E+03  0.7818608E-02  0.9513475E-01
         -2   -1    0    0    0  501 -0.00000000000E+00  0.00000000000E+00  0.25032455172E+03  0.25032455174E+03  0.25500000000E-02 0.  1.
          2   -1    0    0  501    0  0.00000000000E+00 -0.00000000000E+00 -0.26200018821E+04  0.26200018821E+04  0.25500000000E-02 0. -1.
    8880023    1    1    2    0    0  0.54582861368E+03 -0.30419354155E+03 -0.96284198104E+03  0.13233810762E+04  0.65864270000E+03 0.  0.
    8880022    1    1    2    0    0 -0.54582861368E+03  0.30419354155E+03 -0.14068353493E+04  0.15469453576E+04  0.15294330000E+03 0.  0.
<mgrwt>
<rscale>  0 0.83297609E+03</rscale>
<asrwt>0</asrwt>
<pdfrwt beam="1">  1        2 0.40307719E+00 0.90789470E+03</pdfrwt>
<pdfrwt beam="2">  1       -2 0.38511471E-01 0.90789470E+03</pdfrwt>
<totfact> 0.19350389E+01</totfact>
</mgrwt>
</event>
<event>
 4    5  0.7289609E-008  0.7727874E+03  0.7818608E-02  0.9773061E-01
          2   -1    0    0  501    0  0.00000000000E+00  0.00000000000E+00  0.40554272911E+03  0.40554272912E+03  0.25500000000E-02 0. -1.
         -2   -1    0    0    0  501 -0.00000000000E+00 -0.00000000000E+00 -0.13433634513E+04  0.13433634513E+04  0.25500000000E-02 0.  1.
    8880023    1    1    2    0    0 -0.35709309105E+03  0.18940625839E+03 -0.10487455049E+04  0.13027154512E+04  0.65864270000E+03 0.  0.
    8880022    1    1    2    0    0  0.35709309105E+03 -0.18940625839E+03  0.11092478276E+03  0.44619072922E+03  0.15294330000E+03 0.  0.
<mgrwt>
<rscale>  0 0.66828525E+03</rscale>
<asrwt>0</asrwt>
<pdfrwt beam="1">  1        2 0.62391190E-01 0.77278743E+03</pdfrwt>
<pdfrwt beam="2">  1       -2 0.20667130E+00 0.77278743E+03</pdfrwt>
<totfact> 0.95829353E+00</totfact>
</mgrwt>
</event>
<event>
 4    5  0.7289609E-008  0.1300711E+04  0.7818608E-02  0.9064946E-01
         -2   -1    0    0    0  501 -0.00000000000E+00  0.00000000000E+00  0.18134417294E+04  0.18134417294E+04  0.25500000000E-02 0.  1.
          2   -1    0    0  501    0  0.00000000000E+00 -0.00000000000E+00 -0.12680917406E+04  0.12680917406E+04  0.25500000000E-02 0. -1.
    8880023    1    1    2    0    0  0.10787101077E+04  0.30728369012E+03  0.12035262358E+04  0.17720960383E+04  0.65864270000E+03 0.  0.
    8880022    1    1    2    0    0 -0.10787101077E+04 -0.30728369012E+03 -0.65817624693E+03  0.13094374317E+04  0.15294330000E+03 0.  0.
<mgrwt>
<rscale>  0 0.12563119E+04</rscale>
<asrwt>0</asrwt>
<pdfrwt beam="1">  1        2 0.19509104E+00 0.13007109E+04</pdfrwt>
<pdfrwt beam="2">  1       -2 0.27899103E+00 0.13007109E+04</pdfrwt>
<totfact> 0.70988357E-01</totfact>
</mgrwt>
</event>
<event>
 4    5  0.7289609E-008  0.1112372E+04  0.7818608E-02  0.9247405E-01
         -2   -1    0    0    0  501 -0.00000000000E+00  0.00000000000E+00  0.61840116248E+03  0.61840116249E+03  0.25500000000E-02 0.  1.
          2   -1    0    0  501    0  0.00000000000E+00 -0.00000000000E+00 -0.21780588865E+04  0.21780588865E+04  0.25500000000E-02 0. -1.
    8880023    1    1    2    0    0  0.58190290061E+03  0.68187298079E+03 -0.15497761363E+03  0.11231162071E+04  0.65864270000E+03 0.  1.
    8880022    1    1    2    0    0 -0.58190290061E+03 -0.68187298079E+03 -0.14046801104E+04  0.16733438419E+04  0.15294330000E+03 0.  0.
<mgrwt>
<rscale>  0 0.10577249E+04</rscale>
<asrwt>0</asrwt>
<pdfrwt beam="1">  1        2 0.33508598E+00 0.11123722E+04</pdfrwt>
<pdfrwt beam="2">  1       -2 0.95138641E-01 0.11123722E+04</pdfrwt>
<totfact> 0.48860662E+00</totfact>
</mgrwt>
</event>
<event>
 4    5  0.7289609E-008  0.8559077E+03  0.7818608E-02  0.9600885E-01
         -2   -1    0    0    0  501 -0.00000000000E+00  0.00000000000E+00  0.56160299540E+03  0.56160299541E+03  0.25500000000E-02 0.  1.
          2   -1    0    0  501    0  0.00000000000E+00 -0.00000000000E+00 -0.19531999189E+04  0.19531999189E+04  0.25500000000E-02 0. -1.
    8880023    1    1    2    0    0  0.41761854700E+03  0.35265074556E+03  0.15277216817E+03  0.86943506990E+03  0.65864270000E+03 0.  1.
    8880022    1    1    2    0    0 -0.41761854700E+03 -0.35265074556E+03 -0.15443690917E+04  0.16453678444E+04  0.15294330000E+03 0.  0.
<mgrwt>
<rscale>  0 0.77237652E+03</rscale>
<asrwt>0</asrwt>
<pdfrwt beam="1">  1        2 0.30049229E+00 0.85590771E+03</pdfrwt>
<pdfrwt beam="2">  1       -2 0.86400462E-01 0.85590771E+03</pdfrwt>
<totfact> 0.83898356E+00</totfact>
</mgrwt>
</event>
<event>
 4    5  0.7289609E-008  0.9594323E+03  0.7818608E-02  0.9436671E-01
          2   -1    0    0  501    0  0.00000000000E+00  0.00000000000E+00  0.16642827580E+04  0.16642827580E+04  0.25500000000E-02 0. -1.
         -2   -1    0    0    0  501 -0.00000000000E+00 -0.00000000000E+00 -0.46998634652E+03  0.46998634652E+03  0.25500000000E-02 0.  1.
    8880023    1    1    2    0    0  0.35949485415E+03 -0.59788251432E+03  0.33345953083E+03  0.10157290564E+04  0.65864270000E+03 0.  0.
    8880022    1    1    2    0    0 -0.35949485415E+03  0.59788251432E+03  0.86083688061E+03  0.11185400481E+04  0.15294330000E+03 0.  0.
<mgrwt>
<rscale>  0 0.89118275E+03</rscale>
<asrwt>0</asrwt>
<pdfrwt beam="1">  1        2 0.25604350E+00 0.95943226E+03</pdfrwt>
<pdfrwt beam="2">  1       -2 0.72305592E-01 0.95943226E+03</pdfrwt>
<totfact> 0.17829017E+01</totfact>
</mgrwt>
</event>
<event>
 4    5  0.7289609E-008  0.1012792E+04  0.7818608E-02  0.9365009E-01
          2   -1    0    0  501    0  0.00000000000E+00  0.00000000000E+00  0.13519495155E+04  0.13519495155E+04  0.25500000000E-02 0. -1.
         -2   -1    0    0    0  501 -0.00000000000E+00 -0.00000000000E+00 -0.70544750731E+03  0.70544750732E+03  0.25500000000E-02 0.  1.
    8880023    1    1    2    0    0 -0.10080585935E+03  0.76274258037E+03 -0.42011202505E+02  0.10136632639E+04  0.65864270000E+03 0.  0.
    8880022    1    1    2    0    0  0.10080585935E+03 -0.76274258037E+03  0.68851321071E+03  0.10437337589E+04  0.15294330000E+03 0.  0.
<mgrwt>
<rscale>  0 0.95012071E+03</rscale>
<asrwt>0</asrwt>
<pdfrwt beam="1">  1        2 0.20799223E+00 0.10127923E+04</pdfrwt>
<pdfrwt beam="2">  1       -2 0.10853039E+00 0.10127923E+04</pdfrwt>
<totfact> 0.10392290E+01</totfact>
</mgrwt>
</event>
<event>
 4    5  0.7289609E-008  0.8983527E+03  0.7818608E-02  0.9528681E-01
          2   -1    0    0  501    0  0.00000000000E+00  0.00000000000E+00  0.31767713822E+04  0.31767713822E+04  0.25500000000E-02 0. -1.
         -2   -1    0    0    0  501 -0.00000000000E+00 -0.00000000000E+00 -0.32115039102E+03  0.32115039103E+03  0.25500000000E-02 0.  1.
    8880023    1    1    2    0    0 -0.29962246767E+03 -0.53240377168E+03  0.43766079810E+03  0.99929203924E+03  0.65864270000E+03 0.  0.
    8880022    1    1    2    0    0  0.29962246767E+03  0.53240377168E+03  0.24179601931E+04  0.24986297340E+04  0.15294330000E+03 0.  0.
<mgrwt>
<rscale>  0 0.82201901E+03</rscale>
<asrwt>0</asrwt>
<pdfrwt beam="1">  1        2 0.48873407E+00 0.89835272E+03</pdfrwt>
<pdfrwt beam="2">  1       -2 0.49407752E-01 0.89835272E+03</pdfrwt>
<totfact> 0.54344134E+00</totfact>
</mgrwt>
</event>
<event>
 4    5  0.7289609E-008  0.7043497E+03  0.7818608E-02  0.9979614E-01
         -2   -1    0    0    0  501 -0.00000000000E+00  0.00000000000E+00  0.33639084469E+03  0.33639084470E+03  0.25500000000E-02 0.  1.
          2   -1    0    0  501    0  0.00000000000E+00 -0.00000000000E+00 -0.10968527461E+04  0.10968527461E+04  0.25500000000E-02 0. -1.
    8880023    1    1    2    0    0 -0.18012525830E+03 -0.17278064506E+03 -0.10077068047E+03  0.71152174689E+03  0.65864270000E+03 0.  1.
    8880022    1    1    2    0    0  0.18012525830E+03  0.17278064506E+03 -0.65969122090E+03  0.72172184388E+03  0.15294330000E+03 0.  0.
<mgrwt>
<rscale>  0 0.56553235E+03</rscale>
<asrwt>0</asrwt>
<pdfrwt beam="1">  1        2 0.16874657E+00 0.70434968E+03</pdfrwt>
<pdfrwt beam="2">  1       -2 0.51752438E-01 0.70434968E+03</pdfrwt>
<totfact> 0.78645430E+01</totfact>
</mgrwt>
</event>
<event>
 4    5  0.7289609E-008  0.7247403E+03  0.7818608E-02  0.9906861E-01
         -2   -1    0    0    0  501 -0.00000000000E+00  0.00000000000E+00  0.25951430273E+03  0.25951430275E+03  0.25500000000E-02 0.  1.
          2   -1    0    0  501    0  0.00000000000E+00 -0.00000000000E+00 -0.31817426559E+04  0.31817426559E+04  0.25500000000E-02 0. -1.
    8880023    1    1    2    0    0 -0.29959056248E+03  0.41034871683E+02 -0.27930490269E+03  0.77669801129E+03  0.65864270000E+03 0.  1.
    8880022    1    1    2    0    0  0.29959056248E+03 -0.41034871683E+02 -0.26429234505E+04  0.26645589474E+04  0.15294330000E+03 0.  0.
<mgrwt>
<rscale>  0 0.59929929E+03</rscale>
<asrwt>0</asrwt>
<pdfrwt beam="1">  1        2 0.48949884E+00 0.72474035E+03</pdfrwt>
<pdfrwt beam="2">  1       -2 0.39925279E-01 0.72474035E+03</pdfrwt>
<totfact> 0.85043789E+00</totfact>
</mgrwt>
</event>
<event>
 4    5  0.7289609E-008  0.9581131E+03  0.7818608E-02  0.9438536E-01
         -2   -1    0    0    0  501 -0.00000000000E+00  0.00000000000E+00  0.91803634098E+03  0.91803634098E+03  0.25500000000E-02 0.  1.
          2   -1    0    0  501    0  0.00000000000E+00 -0.00000000000E+00 -0.13406001764E+04  0.13406001764E+04  0.25500000000E-02 0. -1.
    8880023    1    1    2    0    0  0.67527591901E+03 -0.16784768769E+03  0.50975064968E+03  0.10852770818E+04  0.65864270000E+03 0.  0.
    8880022    1    1    2    0    0 -0.67527591901E+03  0.16784768769E+03 -0.93231448512E+03  0.11733594357E+04  0.15294330000E+03 0.  0.
<mgrwt>
<rscale>  0 0.88971049E+03</rscale>
<asrwt>0</asrwt>
<pdfrwt beam="1">  1        2 0.20624618E+00 0.95811305E+03</pdfrwt>
<pdfrwt beam="2">  1       -2 0.14123636E+00 0.95811305E+03</pdfrwt>
<totfact> 0.54774099E+00</totfact>
</mgrwt>
</event>
<event>
 4    5  0.7289609E-008  0.7052250E+03  0.7818608E-02  0.9976179E-01
         -2   -1    0    0    0  501 -0.00000000000E+00  0.00000000000E+00  0.30683158905E+03  0.30683158906E+03  0.25500000000E-02 0.  1.
          2   -1    0    0  501    0  0.00000000000E+00 -0.00000000000E+00 -0.44327700626E+04  0.44327700626E+04  0.25500000000E-02 0. -1.
    8880023    1    1    2    0    0  0.15715024377E+03 -0.19706838656E+03 -0.11106464867E+03  0.71391715944E+03  0.65864270000E+03 0.  0.
    8880022    1    1    2    0    0 -0.15715024377E+03  0.19706838656E+03 -0.40148738249E+04  0.40256844922E+04  0.15294330000E+03 0.  0.
<mgrwt>
<rscale>  0 0.56707190E+03</rscale>
<asrwt>0</asrwt>
<pdfrwt beam="1">  1        2 0.68196458E+00 0.70522504E+03</pdfrwt>
<pdfrwt beam="2">  1       -2 0.47204863E-01 0.70522504E+03</pdfrwt>
<totfact> 0.69978482E-01</totfact>
</mgrwt>
</event>
<event>
 4    5  0.1048778E-007  0.1279929E+04  0.7818608E-02  0.9083089E-01
          2   -1    0    0  501    0  0.00000000000E+00  0.00000000000E+00  0.31049592088E+04  0.31049592088E+04  0.25500000000E-02 0. -1.
         -2   -1    0    0    0  501 -0.00000000000E+00 -0.00000000000E+00 -0.15388108005E+04  0.15388108005E+04  0.25500000000E-02 0.  1.
    8880023    1    1    2    0    0 -0.85573921869E+03  0.68710873231E+03 -0.11434864423E+04  0.17163273203E+04  0.65864270000E+03 0.  0.
    8880022    1    1    2    0    0  0.85573921869E+03 -0.68710873231E+03  0.27096348506E+04  0.29274426889E+04  0.15294330000E+03 0.  0.
<mgrwt>
<rscale>  0 0.12346116E+04</rscale>
<asrwt>0</asrwt>
<pdfrwt beam="1">  1        2 0.47768602E+00 0.12799290E+04</pdfrwt>
<pdfrwt beam="2">  1       -2 0.23674013E+00 0.12799290E+04</pdfrwt>
<totfact> 0.11276580E-01</totfact>
</mgrwt>
</event>
<event>
 4    5  0.7289609E-008  0.6891506E+03  0.7818608E-02  0.1004559E+00
         -2   -1    0    0    0  501 -0.00000000000E+00  0.00000000000E+00  0.22146659560E+03  0.22146659562E+03  0.25500000000E-02 0.  1.
          2   -1    0    0  501    0  0.00000000000E+00 -0.00000000000E+00 -0.15574791116E+04  0.15574791116E+04  0.25500000000E-02 0. -1.
    8880023    1    1    2    0    0 -0.15721796604E+03 -0.12806601730E+03 -0.37425625861E+03  0.78421702800E+03  0.65864270000E+03 0.  1.
    8880022    1    1    2    0    0  0.15721796604E+03  0.12806601730E+03 -0.96175625737E+03  0.99472867921E+03  0.15294330000E+03 0.  0.
<mgrwt>
<rscale>  0 0.53695642E+03</rscale>
<asrwt>0</asrwt>
<pdfrwt beam="1">  1        2 0.23961216E+00 0.68915064E+03</pdfrwt>
<pdfrwt beam="2">  1       -2 0.34071785E-01 0.68915064E+03</pdfrwt>
<totfact> 0.97400014E+01</totfact>
</mgrwt>
</event>
<event>
 4    5  0.7289609E-008  0.8268986E+03  0.7818608E-02  0.9655397E-01
          2   -1    0    0  501    0  0.00000000000E+00  0.00000000000E+00  0.11800573089E+04  0.11800573089E+04  0.25500000000E-02 0. -1.
         -2   -1    0    0    0  501 -0.00000000000E+00 -0.00000000000E+00 -0.10328466633E+04  0.10328466633E+04  0.25500000000E-02 0.  1.
    8880023    1    1    2    0    0  0.34329778305E+03  0.36345258076E+03 -0.78751183499E+03  0.11419002771E+04  0.65864270000E+03 0. -1.
    8880022    1    1    2    0    0 -0.34329778305E+03 -0.36345258076E+03  0.93472248054E+03  0.10710036951E+04  0.15294330000E+03 0.  0.
<mgrwt>
<rscale>  0 0.73735675E+03</rscale>
<asrwt>0</asrwt>
<pdfrwt beam="1">  1        2 0.18154728E+00 0.82689864E+03</pdfrwt>
<pdfrwt beam="2">  1       -2 0.15889949E+00 0.82689864E+03</pdfrwt>
<totfact> 0.50534656E+00</totfact>
</mgrwt>
</event>
<event>
 4    5  0.7289609E-008  0.1028039E+04  0.7818608E-02  0.9345760E-01
          2   -1    0    0  501    0  0.00000000000E+00  0.00000000000E+00  0.56884372093E+03  0.56884372093E+03  0.25500000000E-02 0. -1.
         -2   -1    0    0    0  501 -0.00000000000E+00 -0.00000000000E+00 -0.16509587828E+04  0.16509587828E+04  0.25500000000E-02 0.  1.
    8880023    1    1    2    0    0  0.92981361154E+02  0.78384221813E+03 -0.95997070817E+03  0.14065589654E+04  0.65864270000E+03 0.  0.
    8880022    1    1    2    0    0 -0.92981361154E+02 -0.78384221813E+03 -0.12214435371E+03  0.81324353831E+03  0.15294330000E+03 0.  0.
<mgrwt>
<rscale>  0 0.96677127E+03</rscale>
<asrwt>0</asrwt>
<pdfrwt beam="1">  1        2 0.87514419E-01 0.10280391E+04</pdfrwt>
<pdfrwt beam="2">  1       -2 0.25399366E+00 0.10280391E+04</pdfrwt>
<totfact> 0.32017167E+00</totfact>
</mgrwt>
</event>
<event>
 4    5  0.7289609E-008  0.6893732E+03  0.7818608E-02  0.1004452E+00
          2   -1    0    0  501    0  0.00000000000E+00  0.00000000000E+00  0.20384180876E+04  0.20384180876E+04  0.25500000000E-02 0. -1.
         -2   -1    0    0    0  501 -0.00000000000E+00 -0.00000000000E+00 -0.28799722422E+03  0.28799722423E+03  0.25500000000E-02 0.  1.
    8880023    1    1    2    0    0 -0.15542770772E+03 -0.13140576681E+03  0.14952621790E+03  0.70540310744E+03  0.65864270000E+03 0.  1.
    8880022    1    1    2    0    0  0.15542770772E+03  0.13140576681E+03  0.16008946454E+04  0.16210122044E+04  0.15294330000E+03 0.  0.
<mgrwt>
<rscale>  0 0.53740518E+03</rscale>
<asrwt>0</asrwt>
<pdfrwt beam="1">  1        2 0.31360279E+00 0.68937323E+03</pdfrwt>
<pdfrwt beam="2">  1       -2 0.44307264E-01 0.68937323E+03</pdfrwt>
<totfact> 0.32002046E+01</totfact>
</mgrwt>
</event>
<event>
 4    5  0.7289609E-008  0.8263255E+03  0.7818608E-02  0.9656524E-01
         -2   -1    0    0    0  501 -0.00000000000E+00  0.00000000000E+00  0.28892211672E+03  0.28892211673E+03  0.25500000000E-02 0.  1.
          2   -1    0    0  501    0  0.00000000000E+00 -0.00000000000E+00 -0.24645724135E+04  0.24645724135E+04  0.25500000000E-02 0. -1.
    8880023    1    1    2    0    0 -0.41919289623E+03  0.27070466589E+03 -0.43003792125E+03  0.93152913018E+03  0.65864270000E+03 0.  1.
    8880022    1    1    2    0    0  0.41919289623E+03 -0.27070466589E+03 -0.17456123756E+04  0.18219654001E+04  0.15294330000E+03 0.  0.
<mgrwt>
<rscale>  0 0.73665365E+03</rscale>
<asrwt>0</asrwt>
<pdfrwt beam="1">  1        2 0.37916497E+00 0.82632555E+03</pdfrwt>
<pdfrwt beam="2">  1       -2 0.44449558E-01 0.82632555E+03</pdfrwt>
<totfact> 0.18108283E+01</totfact>
</mgrwt>
</event>
<event>
 4    5  0.7289609E-008  0.6895593E+03  0.7818608E-02  0.1004363E+00
          2   -1    0    0  501    0  0.00000000000E+00  0.00000000000E+00  0.88533826751E+03  0.88533826751E+03  0.25500000000E-02 0. -1.
         -2   -1    0    0    0  501 -0.00000000000E+00 -0.00000000000E+00 -0.56110452064E+03  0.56110452064E+03  0.25500000000E-02 0.  1.
    8880023    1    1    2    0    0  0.20402675450E+03  0.74069263306E+01 -0.31506556250E+03  0.75812815146E+03  0.65864270000E+03 0.  0.
    8880022    1    1    2    0    0 -0.20402675450E+03 -0.74069263306E+01  0.63929930937E+03  0.68831463669E+03  0.15294330000E+03 0. -1.
<mgrwt>
<rscale>  0 0.53777940E+03</rscale>
<asrwt>0</asrwt>
<pdfrwt beam="1">  1        2 0.13620589E+00 0.68955927E+03</pdfrwt>
<pdfrwt beam="2">  1       -2 0.86323773E-01 0.68955927E+03</pdfrwt>
<totfact> 0.35612615E+01</totfact>
</mgrwt>
</event>
<event>
 4    5  0.7289609E-008  0.8102412E+03  0.7818608E-02  0.9689075E-01
          2   -1    0    0  501    0  0.00000000000E+00  0.00000000000E+00  0.31431275373E+04  0.31431275374E+04  0.25500000000E-02 0. -1.
         -2   -1    0    0    0  501 -0.00000000000E+00 -0.00000000000E+00 -0.54648933804E+03  0.54648933805E+03  0.25500000000E-02 0.  1.
    8880023    1    1    2    0    0  0.13485835999E+03  0.45220990397E+03 -0.21199330820E+03  0.83751533926E+03  0.65864270000E+03 0.  1.
    8880022    1    1    2    0    0 -0.13485835999E+03 -0.45220990397E+03  0.28086315075E+04  0.28521015361E+04  0.15294330000E+03 0.  0.
<mgrwt>
<rscale>  0 0.71671016E+03</rscale>
<asrwt>0</asrwt>
<pdfrwt beam="1">  1        2 0.48355807E+00 0.81024119E+03</pdfrwt>
<pdfrwt beam="2">  1       -2 0.84075285E-01 0.81024119E+03</pdfrwt>
<totfact> 0.18481726E+00</totfact>
</mgrwt>
</event>
<event>
 4    5  0.7289609E-008  0.7281433E+03  0.7818608E-02  0.9895937E-01
         -2   -1    0    0    0  501 -0.00000000000E+00  0.00000000000E+00  0.57736566500E+03  0.57736566501E+03  0.25500000000E-02 0.  1.
          2   -1    0    0  501    0  0.00000000000E+00 -0.00000000000E+00 -0.23646255285E+04  0.23646255285E+04  0.25500000000E-02 0. -1.
    8880023    1    1    2    0    0 -0.41483397568E+02  0.30767132892E+03  0.32799794995E+03  0.79860840238E+03  0.65864270000E+03 0.  0.
    8880022    1    1    2    0    0  0.41483397568E+02 -0.30767132892E+03 -0.21152578135E+04  0.21433827911E+04  0.15294330000E+03 0.  0.
<mgrwt>
<rscale>  0 0.60458596E+03</rscale>
<asrwt>0</asrwt>
<pdfrwt beam="1">  1        2 0.36378854E+00 0.72814334E+03</pdfrwt>
<pdfrwt beam="2">  1       -2 0.88825488E-01 0.72814334E+03</pdfrwt>
<totfact> 0.47639538E+00</totfact>
</mgrwt>
</event>
<event>
 4    5  0.7289609E-008  0.1098668E+04  0.7818608E-02  0.9262540E-01
         -2   -1    0    0    0  501 -0.00000000000E+00  0.00000000000E+00  0.44383984846E+03  0.44383984846E+03  0.25500000000E-02 0.  1.
          2   -1    0    0  501    0  0.00000000000E+00 -0.00000000000E+00 -0.23801344260E+04  0.23801344260E+04  0.25500000000E-02 0. -1.
    8880023    1    1    2    0    0 -0.15210894432E+03  0.86609739153E+03 -0.71327996434E+03  0.13099008880E+04  0.65864270000E+03 0.  1.
    8880022    1    1    2    0    0  0.15210894432E+03 -0.86609739153E+03 -0.12230146132E+04  0.15140733865E+04  0.15294330000E+03 0.  0.
<mgrwt>
<rscale>  0 0.10430584E+04</rscale>
<asrwt>0</asrwt>
<pdfrwt beam="1">  1        2 0.36617452E+00 0.10986683E+04</pdfrwt>
<pdfrwt beam="2">  1       -2 0.68283055E-01 0.10986683E+04</pdfrwt>
<totfact> 0.79879000E+00</totfact>
</mgrwt>
</event>
<event>
 4    5  0.7289609E-008  0.8810975E+03  0.7818608E-02  0.9557084E-01
         -2   -1    0    0    0  501 -0.00000000000E+00  0.00000000000E+00  0.71053299533E+03  0.71053299533E+03  0.25500000000E-02 0.  1.
          2   -1    0    0  501    0  0.00000000000E+00 -0.00000000000E+00 -0.13700056413E+04  0.13700056413E+04  0.25500000000E-02 0. -1.
    8880023    1    1    2    0    0 -0.52995913793E+03  0.24832626745E+03  0.31320179589E+03  0.93510865368E+03  0.65864270000E+03 0.  0.
    8880022    1    1    2    0    0  0.52995913793E+03 -0.24832626745E+03 -0.97267444187E+03  0.11454299830E+04  0.15294330000E+03 0.  0.
<mgrwt>
<rscale>  0 0.80202961E+03</rscale>
<asrwt>0</asrwt>
<pdfrwt beam="1">  1        2 0.21077010E+00 0.88109751E+03</pdfrwt>
<pdfrwt beam="2">  1       -2 0.10931277E+00 0.88109751E+03</pdfrwt>
<totfact> 0.10107507E+01</totfact>
</mgrwt>
</event>
<event>
 4    5  0.7289609E-008  0.8975851E+03  0.7818608E-02  0.9529919E-01
          2   -1    0    0  501    0  0.00000000000E+00  0.00000000000E+00  0.10946535846E+04  0.10946535846E+04  0.25500000000E-02 0. -1.
         -2   -1    0    0    0  501 -0.00000000000E+00 -0.00000000000E+00 -0.56809966040E+03  0.56809966040E+03  0.25500000000E-02 0.  1.
    8880023    1    1    2    0    0 -0.58243521953E+03  0.18060478018E+03  0.10025445050E+03  0.90316666938E+03  0.65864270000E+03 0.  0.
    8880022    1    1    2    0    0  0.58243521953E+03 -0.18060478018E+03  0.42629947370E+03  0.75958657562E+03  0.15294330000E+03 0.  0.
<mgrwt>
<rscale>  0 0.82113473E+03</rscale>
<asrwt>0</asrwt>
<pdfrwt beam="1">  1        2 0.16840824E+00 0.89758514E+03</pdfrwt>
<pdfrwt beam="2">  1       -2 0.87399947E-01 0.89758514E+03</pdfrwt>
<totfact> 0.24903260E+01</totfact>
</mgrwt>
</event>
<event>
 4    5  0.7289609E-008  0.7512621E+03  0.7818608E-02  0.9828278E-01
         -2   -1    0    0    0  501 -0.00000000000E+00  0.00000000000E+00  0.15016835728E+03  0.15016835730E+03  0.25500000000E-02 0.  1.
          2   -1    0    0  501    0  0.00000000000E+00 -0.00000000000E+00 -0.24589493170E+04  0.24589493170E+04  0.25500000000E-02 0. -1.
    8880023    1    1    2    0    0 -0.13808716492E+03  0.33394093145E+03 -0.10534734170E+04  0.12939092153E+04  0.65864270000E+03 0.  1.
    8880022    1    1    2    0    0  0.13808716492E+03 -0.33394093145E+03 -0.12553075427E+04  0.13152084590E+04  0.15294330000E+03 0.  0.
<mgrwt>
<rscale>  0 0.63866829E+03</rscale>
<asrwt>0</asrwt>
<pdfrwt beam="1">  1        2 0.37829987E+00 0.75126215E+03</pdfrwt>
<pdfrwt beam="2">  1       -2 0.23102826E-01 0.75126215E+03</pdfrwt>
<totfact> 0.63097407E+01</totfact>
</mgrwt>
</event>
<event>
 4    5  0.7289609E-008  0.7787491E+03  0.7818608E-02  0.9758784E-01
          2   -1    0    0  501    0  0.00000000000E+00  0.00000000000E+00  0.13661933495E+04  0.13661933495E+04  0.25500000000E-02 0. -1.
         -2   -1    0    0    0  501 -0.00000000000E+00 -0.00000000000E+00 -0.58226386985E+03  0.58226386986E+03  0.25500000000E-02 0.  1.
    8880023    1    1    2    0    0  0.30461292256E+03 -0.28257901821E+03 -0.25474214352E+03  0.81935566152E+03  0.65864270000E+03 0.  1.
    8880022    1    1    2    0    0 -0.30461292256E+03  0.28257901821E+03  0.10386716231E+04  0.11291015578E+04  0.15294330000E+03 0.  0.
<mgrwt>
<rscale>  0 0.67622141E+03</rscale>
<asrwt>0</asrwt>
<pdfrwt beam="1">  1        2 0.21018359E+00 0.77874909E+03</pdfrwt>
<pdfrwt beam="2">  1       -2 0.89579058E-01 0.77874909E+03</pdfrwt>
<totfact> 0.16463518E+01</totfact>
</mgrwt>
</event>
<event>
 4    5  0.7289609E-008  0.7604094E+03  0.7818608E-02  0.9804049E-01
          2   -1    0    0  501    0  0.00000000000E+00  0.00000000000E+00  0.10174345172E+04  0.10174345172E+04  0.25500000000E-02 0. -1.
         -2   -1    0    0    0  501 -0.00000000000E+00 -0.00000000000E+00 -0.69811323453E+03  0.69811323453E+03  0.25500000000E-02 0.  1.
    8880023    1    1    2    0    0  0.37487934946E+03  0.62270816979E+02 -0.42120389956E+03  0.86927274924E+03  0.65864270000E+03 0.  1.
    8880022    1    1    2    0    0 -0.37487934946E+03 -0.62270816979E+02  0.74052518220E+03  0.84627500246E+03  0.15294330000E+03 0.  0.
<mgrwt>
<rscale>  0 0.65145710E+03</rscale>
<asrwt>0</asrwt>
<pdfrwt beam="1">  1        2 0.15652839E+00 0.76040936E+03</pdfrwt>
<pdfrwt beam="2">  1       -2 0.10740204E+00 0.76040936E+03</pdfrwt>
<totfact> 0.17357569E+01</totfact>
</mgrwt>
</event>
<event>
 4    5  0.7289609E-008  0.8728358E+03  0.7818608E-02  0.9571127E-01
         -2   -1    0    0    0  501 -0.00000000000E+00  0.00000000000E+00  0.10887459200E+04  0.10887459201E+04  0.25500000000E-02 0.  1.
          2   -1    0    0  501    0  0.00000000000E+00 -0.00000000000E+00 -0.15560034135E+04  0.15560034135E+04  0.25500000000E-02 0. -1.
    8880023    1    1    2    0    0  0.18262734428E+03  0.54284380902E+03  0.83873953976E+03  0.12105066583E+04  0.65864270000E+03 0.  0.
    8880022    1    1    2    0    0 -0.18262734428E+03 -0.54284380902E+03 -0.13059970333E+04  0.14342426753E+04  0.15294330000E+03 0.  0.
<mgrwt>
<rscale>  0 0.79237053E+03</rscale>
<asrwt>0</asrwt>
<pdfrwt beam="1">  1        2 0.23938514E+00 0.87283581E+03</pdfrwt>
<pdfrwt beam="2">  1       -2 0.16749937E+00 0.87283581E+03</pdfrwt>
<totfact> 0.26474615E+00</totfact>
</mgrwt>
</event>
<event>
 4    5  0.7289609E-008  0.9136140E+03  0.7818608E-02  0.9504521E-01
         -2   -1    0    0    0  501 -0.00000000000E+00  0.00000000000E+00  0.24552772083E+03  0.24552772084E+03  0.25500000000E-02 0.  1.
          2   -1    0    0  501    0  0.00000000000E+00 -0.00000000000E+00 -0.26288523826E+04  0.26288523826E+04  0.25500000000E-02 0. -1.
    8880023    1    1    2    0    0 -0.48882846371E+02 -0.63126130090E+03 -0.17025222523E+04  0.19321678468E+04  0.65864270000E+03 0.  0.
    8880022    1    1    2    0    0  0.48882846371E+02  0.63126130090E+03 -0.68080240952E+03  0.94221225661E+03  0.15294330000E+03 0.  0.
<mgrwt>
<rscale>  0 0.83951336E+03</rscale>
<asrwt>0</asrwt>
<pdfrwt beam="1">  1        2 0.40443881E+00 0.91361402E+03</pdfrwt>
<pdfrwt beam="2">  1       -2 0.37773498E-01 0.91361402E+03</pdfrwt>
<totfact> 0.19840093E+01</totfact>
</mgrwt>
</event>
<event>
 4    5  0.7289609E-008  0.1279088E+04  0.7818608E-02  0.9083833E-01
          2   -1    0    0  501    0  0.00000000000E+00  0.00000000000E+00  0.24209552936E+04  0.24209552936E+04  0.25500000000E-02 0. -1.
         -2   -1    0    0    0  501 -0.00000000000E+00 -0.00000000000E+00 -0.10309578696E+04  0.10309578696E+04  0.25500000000E-02 0.  1.
    8880023    1    1    2    0    0 -0.15060833412E+03  0.10860811147E+04 -0.40611886229E+03  0.13420125910E+04  0.65864270000E+03 0.  0.
    8880022    1    1    2    0    0  0.15060833412E+03 -0.10860811147E+04  0.17961162863E+04  0.21099005722E+04  0.15294330000E+03 0.  0.
<mgrwt>
<rscale>  0 0.12337322E+04</rscale>
<asrwt>0</asrwt>
<pdfrwt beam="1">  1        2 0.37245466E+00 0.12790877E+04</pdfrwt>
<pdfrwt beam="2">  1       -2 0.15860890E+00 0.12790877E+04</pdfrwt>
<totfact> 0.96422573E-01</totfact>
</mgrwt>
</event>
<event>
 4    5  0.7289609E-008  0.1231274E+04  0.7818608E-02  0.9127305E-01
         -2   -1    0    0    0  501 -0.00000000000E+00  0.00000000000E+00  0.15460862052E+04  0.15460862053E+04  0.25500000000E-02 0.  1.
          2   -1    0    0  501    0  0.00000000000E+00 -0.00000000000E+00 -0.98252412491E+03  0.98252412492E+03  0.25500000000E-02 0. -1.
    8880023    1    1    2    0    0 -0.58623505007E+03 -0.85939167671E+03  0.77664747831E+03  0.14557531040E+04  0.65864270000E+03 0. -1.
    8880022    1    1    2    0    0  0.58623505007E+03  0.85939167671E+03 -0.21308539797E+03  0.10728572262E+04  0.15294330000E+03 0.  0.
<mgrwt>
<rscale>  0 0.11836319E+04</rscale>
<asrwt>0</asrwt>
<pdfrwt beam="1">  1        2 0.15115756E+00 0.12312741E+04</pdfrwt>
<pdfrwt beam="2">  1       -2 0.23785942E+00 0.12312741E+04</pdfrwt>
<totfact> 0.19166294E+00</totfact>
</mgrwt>
</event>
<event>
 4    5  0.7289609E-008  0.8478557E+03  0.7818608E-02  0.9615542E-01
         -2   -1    0    0    0  501 -0.00000000000E+00  0.00000000000E+00  0.36655990831E+03  0.36655990832E+03  0.25500000000E-02 0.  1.
          2   -1    0    0  501    0  0.00000000000E+00 -0.00000000000E+00 -0.25479371548E+04  0.25479371548E+04  0.25500000000E-02 0. -1.
    8880023    1    1    2    0    0  0.47975709677E+03 -0.23426939125E+03 -0.21989629238E+03  0.87590730402E+03  0.65864270000E+03 0.  0.
    8880022    1    1    2    0    0 -0.47975709677E+03  0.23426939125E+03 -0.19614809542E+04  0.20385897591E+04  0.15294330000E+03 0.  0.
<mgrwt>
<rscale>  0 0.76275998E+03</rscale>
<asrwt>0</asrwt>
<pdfrwt beam="1">  1        2 0.39199032E+00 0.84785566E+03</pdfrwt>
<pdfrwt beam="2">  1       -2 0.56393834E-01 0.84785566E+03</pdfrwt>
<totfact> 0.99589607E+00</totfact>
</mgrwt>
</event>
<event>
 4    5  0.7289609E-008  0.6896927E+03  0.7818608E-02  0.1004299E+00
         -2   -1    0    0    0  501 -0.00000000000E+00  0.00000000000E+00  0.19397048653E+03  0.19397048655E+03  0.25500000000E-02 0.  1.
          2   -1    0    0  501    0  0.00000000000E+00 -0.00000000000E+00 -0.15415190764E+04  0.15415190764E+04  0.25500000000E-02 0. -1.
    8880023    1    1    2    0    0  0.18848314483E+03  0.79623206816E+02 -0.50430263633E+03  0.85439868107E+03  0.65864270000E+03 0.  1.
    8880022    1    1    2    0    0 -0.18848314483E+03 -0.79623206816E+02 -0.84324595356E+03  0.88109088190E+03  0.15294330000E+03 0.  0.
<mgrwt>
<rscale>  0 0.53804726E+03</rscale>
<asrwt>0</asrwt>
<pdfrwt beam="1">  1        2 0.23715677E+00 0.68969265E+03</pdfrwt>
<pdfrwt beam="2">  1       -2 0.29841614E-01 0.68969265E+03</pdfrwt>
<totfact> 0.12739243E+02</totfact>
</mgrwt>
</event>
<event>
 4    5  0.7289609E-008  0.2267527E+04  0.7818608E-02  0.8500306E-01
         -2   -1    0    0    0  501 -0.00000000000E+00  0.00000000000E+00  0.23301986492E+04  0.23301986492E+04  0.25500000000E-02 0.  1.
          2   -1    0    0  501    0  0.00000000000E+00 -0.00000000000E+00 -0.28617759496E+04  0.28617759496E+04  0.25500000000E-02 0. -1.
    8880023    1    1    2    0    0 -0.21316978119E+04 -0.40464037347E+03  0.10537456587E+04  0.25004118686E+04  0.65864270000E+03 0.  0.
    8880022    1    1    2    0    0  0.21316978119E+04  0.40464037347E+03 -0.15853229591E+04  0.26915627302E+04  0.15294330000E+03 0.  0.
<mgrwt>
<rscale>  0 0.22440705E+04</rscale>
<asrwt>0</asrwt>
<pdfrwt beam="1">  1        2 0.44027322E+00 0.22675272E+04</pdfrwt>
<pdfrwt beam="2">  1       -2 0.35849210E+00 0.22675272E+04</pdfrwt>
<totfact> 0.25004570E-02</totfact>
</mgrwt>
</event>
<event>
 4    5  0.7289609E-008  0.6642473E+03  0.7818608E-02  0.1020173E+00
          2   -1    0    0  501    0  0.00000000000E+00  0.00000000000E+00  0.93374110425E+03  0.93374110425E+03  0.25500000000E-02 0. -1.
         -2   -1    0    0    0  501 -0.00000000000E+00 -0.00000000000E+00 -0.20659663907E+03  0.20659663909E+03  0.25500000000E-02 0.  1.
    8880023    1    1    2    0    0  0.63743625895E+02  0.57888297310E+02  0.41794219112E+03  0.78479308495E+03  0.65864270000E+03 0.  1.
    8880022    1    1    2    0    0 -0.63743625895E+02 -0.57888297310E+02  0.30920227406E+03  0.35554465838E+03  0.15294330000E+03 0. -1.
<mgrwt>
<rscale>  0 0.47624091E+03</rscale>
<asrwt>0</asrwt>
<pdfrwt beam="1">  1        2 0.14365248E+00 0.66424733E+03</pdfrwt>
<pdfrwt beam="2">  1       -2 0.31784098E-01 0.66424733E+03</pdfrwt>
<totfact> 0.25938582E+02</totfact>
</mgrwt>
</event>
<event>
 4    5  0.7289609E-008  0.8965682E+03  0.7818608E-02  0.9531563E-01
          2   -1    0    0  501    0  0.00000000000E+00  0.00000000000E+00  0.18784889236E+04  0.18784889236E+04  0.25500000000E-02 0. -1.
         -2   -1    0    0    0  501 -0.00000000000E+00 -0.00000000000E+00 -0.57540335526E+03  0.57540335526E+03  0.25500000000E-02 0.  1.
    8880023    1    1    2    0    0 -0.19285355848E+03 -0.57691582782E+03 -0.11439658005E+03  0.90383690520E+03  0.65864270000E+03 0.  1.
    8880022    1    1    2    0    0  0.19285355848E+03  0.57691582782E+03  0.14174821484E+04  0.15500553737E+04  0.15294330000E+03 0.  0.
<mgrwt>
<rscale>  0 0.81996254E+03</rscale>
<asrwt>0</asrwt>
<pdfrwt beam="1">  1        2 0.28899830E+00 0.89656822E+03</pdfrwt>
<pdfrwt beam="2">  1       -2 0.88523593E-01 0.89656822E+03</pdfrwt>
<totfact> 0.86733812E+00</totfact>
</mgrwt>
</event>
<event>
 4    5  0.7289609E-008  0.8409466E+03  0.7818608E-02  0.9628398E-01
         -2   -1    0    0    0  501 -0.00000000000E+00  0.00000000000E+00  0.93139249797E+03  0.93139249797E+03  0.25500000000E-02 0.  1.
          2   -1    0    0  501    0  0.00000000000E+00 -0.00000000000E+00 -0.88955088997E+03  0.88955088998E+03  0.25500000000E-02 0. -1.
    8880023    1    1    2    0    0 -0.48131407081E+03 -0.20424915891E+03  0.60611356215E+03  0.10366121792E+04  0.65864270000E+03 0.  1.
    8880022    1    1    2    0    0  0.48131407081E+03  0.20424915891E+03 -0.56427195416E+03  0.78433120870E+03  0.15294330000E+03 0.  0.
<mgrwt>
<rscale>  0 0.75444795E+03</rscale>
<asrwt>0</asrwt>
<pdfrwt beam="1">  1        2 0.13685398E+00 0.84094659E+03</pdfrwt>
<pdfrwt beam="2">  1       -2 0.14329115E+00 0.84094659E+03</pdfrwt>
<totfact> 0.10142036E+01</totfact>
</mgrwt>
</event>
<event>
 4    5  0.7289609E-008  0.7348243E+03  0.7818608E-02  0.9875288E-01
         -2   -1    0    0    0  501 -0.00000000000E+00  0.00000000000E+00  0.11907686432E+03  0.11907686435E+03  0.25500000000E-02 0.  1.
          2   -1    0    0  501    0  0.00000000000E+00 -0.00000000000E+00 -0.33779312742E+04  0.33779312742E+04  0.25500000000E-02 0. -1.
    8880023    1    1    2    0    0 -0.22093833769E+03 -0.23946349696E+03 -0.12013899917E+04  0.14082984889E+04  0.65864270000E+03 0.  0.
    8880022    1    1    2    0    0  0.22093833769E+03  0.23946349696E+03 -0.20574644181E+04  0.20887096496E+04  0.15294330000E+03 0.  0.
<mgrwt>
<rscale>  0 0.61474008E+03</rscale>
<asrwt>0</asrwt>
<pdfrwt beam="1">  1        2 0.51968166E+00 0.73482428E+03</pdfrwt>
<pdfrwt beam="2">  1       -2 0.18319520E-01 0.73482428E+03</pdfrwt>
<totfact> 0.26362558E+01</totfact>
</mgrwt>
</event>
<event>
 4    5  0.7289609E-008  0.8463435E+03  0.7818608E-02  0.9618333E-01
         -2   -1    0    0    0  501 -0.00000000000E+00  0.00000000000E+00  0.28891944812E+03  0.28891944814E+03  0.25500000000E-02 0.  1.
          2   -1    0    0  501    0  0.00000000000E+00 -0.00000000000E+00 -0.28163244481E+04  0.28163244481E+04  0.25500000000E-02 0. -1.
    8880023    1    1    2    0    0  0.33014847464E+03  0.41652017718E+03 -0.45619176806E+03  0.96146149628E+03  0.65864270000E+03 0.  0.
    8880022    1    1    2    0    0 -0.33014847464E+03 -0.41652017718E+03 -0.20712132319E+04  0.21437824000E+04  0.15294330000E+03 0.  0.
<mgrwt>
<rscale>  0 0.76094567E+03</rscale>
<asrwt>0</asrwt>
<pdfrwt beam="1">  1        2 0.43328067E+00 0.84634348E+03</pdfrwt>
<pdfrwt beam="2">  1       -2 0.44449148E-01 0.84634348E+03</pdfrwt>
<totfact> 0.11291167E+01</totfact>
</mgrwt>
</event>
<event>
 4    5  0.7289609E-008  0.1873919E+04  0.7818608E-02  0.8682713E-01
          2   -1    0    0  501    0  0.00000000000E+00  0.00000000000E+00  0.34337111118E+04  0.34337111118E+04  0.25500000000E-02 0. -1.
         -2   -1    0    0    0  501 -0.00000000000E+00 -0.00000000000E+00 -0.17231984694E+04  0.17231984694E+04  0.25500000000E-02 0.  1.
    8880023    1    1    2    0    0 -0.82019423077E+01  0.17543355197E+04  0.25833676141E+04  0.31914508963E+04  0.65864270000E+03 0. -1.
    8880022    1    1    2    0    0  0.82019423077E+01 -0.17543355197E+04 -0.87285497179E+03  0.19654586849E+04  0.15294330000E+03 0.  0.
<mgrwt>
<rscale>  0 0.18450299E+04</rscale>
<asrwt>0</asrwt>
<pdfrwt beam="1">  1        2 0.52826324E+00 0.18739185E+04</pdfrwt>
<pdfrwt beam="2">  1       -2 0.26510746E+00 0.18739185E+04</pdfrwt>
<totfact> 0.42221046E-02</totfact>
</mgrwt>
</event>
<event>
 4    5  0.7289609E-008  0.9792411E+03  0.7818608E-02  0.9409235E-01
         -2   -1    0    0    0  501 -0.00000000000E+00  0.00000000000E+00  0.10618924172E+04  0.10618924172E+04  0.25500000000E-02 0.  1.
          2   -1    0    0  501    0  0.00000000000E+00 -0.00000000000E+00 -0.89414625206E+03  0.89414625206E+03  0.25500000000E-02 0. -1.
    8880023    1    1    2    0    0  0.71990657999E+03 -0.82688360098E+02  0.54944936182E+03  0.11228569171E+04  0.65864270000E+03 0.  0.
    8880022    1    1    2    0    0 -0.71990657999E+03  0.82688360098E+02 -0.38170319666E+03  0.83318175218E+03  0.15294330000E+03 0.  0.
<mgrwt>
<rscale>  0 0.91319547E+03</rscale>
<asrwt>0</asrwt>
<pdfrwt beam="1">  1        2 0.13756096E+00 0.97924106E+03</pdfrwt>
<pdfrwt beam="2">  1       -2 0.16336806E+00 0.97924106E+03</pdfrwt>
<totfact> 0.69939004E+00</totfact>
</mgrwt>
</event>
<event>
 4    5  0.7289609E-008  0.7182785E+03  0.7818608E-02  0.9928455E-01
         -2   -1    0    0    0  501 -0.00000000000E+00  0.00000000000E+00  0.11787157258E+03  0.11787157261E+03  0.25500000000E-02 0.  1.
          2   -1    0    0  501    0  0.00000000000E+00 -0.00000000000E+00 -0.29251083519E+04  0.29251083519E+04  0.25500000000E-02 0. -1.
    8880023    1    1    2    0    0 -0.14631663423E+03  0.24638433088E+03 -0.11627046052E+04  0.13666769923E+04  0.65864270000E+03 0.  1.
    8880022    1    1    2    0    0  0.14631663423E+03 -0.24638433088E+03 -0.16445321741E+04  0.16763029322E+04  0.15294330000E+03 0.  0.
<mgrwt>
<rscale>  0 0.58901860E+03</rscale>
<asrwt>0</asrwt>
<pdfrwt beam="1">  1        2 0.45001661E+00 0.71827850E+03</pdfrwt>
<pdfrwt beam="2">  1       -2 0.18134090E-01 0.71827850E+03</pdfrwt>
<totfact> 0.51912963E+01</totfact>
</mgrwt>
</event>
<event>
 4    5  0.7289609E-008  0.7504776E+03  0.7818608E-02  0.9830415E-01
         -2   -1    0    0    0  501 -0.00000000000E+00  0.00000000000E+00  0.26966779006E+03  0.26966779007E+03  0.25500000000E-02 0.  1.
          2   -1    0    0  501    0  0.00000000000E+00 -0.00000000000E+00 -0.20511804760E+04  0.20511804760E+04  0.25500000000E-02 0. -1.
    8880023    1    1    2    0    0  0.13677019395E+03 -0.33271659429E+03 -0.33392973031E+03  0.82141687901E+03  0.65864270000E+03 0.  1.
    8880022    1    1    2    0    0 -0.13677019395E+03  0.33271659429E+03 -0.14475829556E+04  0.14994313870E+04  0.15294330000E+03 0.  0.
<mgrwt>
<rscale>  0 0.63755555E+03</rscale>
<asrwt>0</asrwt>
<pdfrwt beam="1">  1        2 0.31556622E+00 0.75047760E+03</pdfrwt>
<pdfrwt beam="2">  1       -2 0.41487354E-01 0.75047760E+03</pdfrwt>
<totfact> 0.35564420E+01</totfact>
</mgrwt>
</event>
<event>
 4    5  0.7289609E-008  0.7190938E+03  0.7818608E-02  0.9925664E-01
         -2   -1    0    0    0  501 -0.00000000000E+00  0.00000000000E+00  0.46517228931E+03  0.46517228932E+03  0.25500000000E-02 0.  1.
          2   -1    0    0  501    0  0.00000000000E+00 -0.00000000000E+00 -0.15271878807E+04  0.15271878807E+04  0.25500000000E-02 0. -1.
    8880023    1    1    2    0    0  0.25506362232E+03 -0.13501178018E+03  0.15216499758E+03  0.73501702359E+03  0.65864270000E+03 0.  0.
    8880022    1    1    2    0    0 -0.25506362232E+03  0.13501178018E+03 -0.12141805889E+04  0.12573431464E+04  0.15294330000E+03 0. -1.
<mgrwt>
<rscale>  0 0.59033446E+03</rscale>
<asrwt>0</asrwt>
<pdfrwt beam="1">  1        2 0.23495198E+00 0.71909376E+03</pdfrwt>
<pdfrwt beam="2">  1       -2 0.71564968E-01 0.71909376E+03</pdfrwt>
<totfact> 0.22312199E+01</totfact>
</mgrwt>
</event>
<event>
 4    5  0.7289609E-008  0.1002792E+04  0.7818608E-02  0.9377914E-01
          2   -1    0    0  501    0  0.00000000000E+00  0.00000000000E+00  0.11713639884E+04  0.11713639884E+04  0.25500000000E-02 0. -1.
         -2   -1    0    0    0  501 -0.00000000000E+00 -0.00000000000E+00 -0.10205709356E+04  0.10205709356E+04  0.25500000000E-02 0.  1.
    8880023    1    1    2    0    0 -0.74123841517E+03 -0.14949196133E+03 -0.55515963402E+03  0.11462088205E+04  0.65864270000E+03 0.  1.
    8880022    1    1    2    0    0  0.74123841517E+03  0.14949196133E+03  0.70595268677E+03  0.10457261035E+04  0.15294330000E+03 0.  0.
<mgrwt>
<rscale>  0 0.93915815E+03</rscale>
<asrwt>0</asrwt>
<pdfrwt beam="1">  1        2 0.18020985E+00 0.10027923E+04</pdfrwt>
<pdfrwt beam="2">  1       -2 0.15701091E+00 0.10027923E+04</pdfrwt>
<totfact> 0.51774145E+00</totfact>
</mgrwt>
</event>
<event>
 4    5  0.7289609E-008  0.6961597E+03  0.7818608E-02  0.1001352E+00
          2   -1    0    0  501    0  0.00000000000E+00  0.00000000000E+00  0.16816954252E+04  0.16816954253E+04  0.25500000000E-02 0. -1.
         -2   -1    0    0    0  501 -0.00000000000E+00 -0.00000000000E+00 -0.16762223037E+03  0.16762223039E+03  0.25500000000E-02 0.  1.
    8880023    1    1    2    0    0 -0.12037392337E+03  0.19062598921E+03  0.68511414398E+03  0.97673934380E+03  0.65864270000E+03 0.  1.
    8880022    1    1    2    0    0  0.12037392337E+03 -0.19062598921E+03  0.82895905091E+03  0.87257831183E+03  0.15294330000E+03 0.  0.
<mgrwt>
<rscale>  0 0.55061323E+03</rscale>
<asrwt>0</asrwt>
<pdfrwt beam="1">  1        2 0.25872238E+00 0.69615972E+03</pdfrwt>
<pdfrwt beam="2">  1       -2 0.25788035E-01 0.69615972E+03</pdfrwt>
<totfact> 0.13930630E+02</totfact>
</mgrwt>
</event>
<event>
 4    5  0.7289609E-008  0.7460492E+03  0.7818608E-02  0.9842664E-01
         -2   -1    0    0    0  501 -0.00000000000E+00  0.00000000000E+00  0.12537618766E+04  0.12537618766E+04  0.25500000000E-02 0.  1.
          2   -1    0    0  501    0  0.00000000000E+00 -0.00000000000E+00 -0.26871777433E+03  0.26871777434E+03  0.25500000000E-02 0. -1.
    8880023    1    1    2    0    0  0.25335465557E+03  0.24205493139E+03  0.47265109318E+03  0.88316953834E+03  0.65864270000E+03 0.  0.
    8880022    1    1    2    0    0 -0.25335465557E+03 -0.24205493139E+03  0.51239300913E+03  0.63931011264E+03  0.15294330000E+03 0.  0.
<mgrwt>
<rscale>  0 0.63122353E+03</rscale>
<asrwt>0</asrwt>
<pdfrwt beam="1">  1        2 0.41341197E-01 0.74604918E+03</pdfrwt>
<pdfrwt beam="2">  1       -2 0.19288644E+00 0.74604918E+03</pdfrwt>
<totfact> 0.18705197E+01</totfact>
</mgrwt>
</event>
<event>
 4    5  0.7289609E-008  0.7836821E+03  0.7818608E-02  0.9747258E-01
         -2   -1    0    0    0  501 -0.00000000000E+00  0.00000000000E+00  0.68094562367E+03  0.68094562368E+03  0.25500000000E-02 0.  1.
          2   -1    0    0  501    0  0.00000000000E+00 -0.00000000000E+00 -0.20813508602E+04  0.20813508602E+04  0.25500000000E-02 0. -1.
    8880023    1    1    2    0    0  0.78360872744E+00 -0.42467257159E+03  0.41835880783E+03  0.88835899582E+03  0.65864270000E+03 0.  1.
    8880022    1    1    2    0    0 -0.78360872744E+00  0.42467257159E+03 -0.18187640444E+04  0.18739374881E+04  0.15294330000E+03 0.  0.
<mgrwt>
<rscale>  0 0.68271466E+03</rscale>
<asrwt>0</asrwt>
<pdfrwt beam="1">  1        2 0.32020782E+00 0.78368209E+03</pdfrwt>
<pdfrwt beam="2">  1       -2 0.10476087E+00 0.78368209E+03</pdfrwt>
<totfact> 0.45929049E+00</totfact>
</mgrwt>
</event>
<event>
 4    5  0.7289609E-008  0.9911165E+03  0.7818608E-02  0.9393273E-01
          2   -1    0    0  501    0  0.00000000000E+00  0.00000000000E+00  0.41585612015E+04  0.41585612015E+04  0.25500000000E-02 0. -1.
         -2   -1    0    0    0  501 -0.00000000000E+00 -0.00000000000E+00 -0.39597691426E+03  0.39597691427E+03  0.25500000000E-02 0.  1.
    8880023    1    1    2    0    0  0.67721456641E+03  0.29980335544E+03  0.33756590746E+03  0.10470255818E+04  0.65864270000E+03 0.  1.
    8880022    1    1    2    0    0 -0.67721456641E+03 -0.29980335544E+03  0.34250183798E+04  0.35075125340E+04  0.15294330000E+03 0.  0.
<mgrwt>
<rscale>  0 0.92631328E+03</rscale>
<asrwt>0</asrwt>
<pdfrwt beam="1">  1        2 0.63977863E+00 0.99111645E+03</pdfrwt>
<pdfrwt beam="2">  1       -2 0.60919527E-01 0.99111645E+03</pdfrwt>
<totfact> 0.67273076E-01</totfact>
</mgrwt>
</event>
<event>
 4    5  0.7289609E-008  0.9846821E+03  0.7818608E-02  0.9401878E-01
          2   -1    0    0  501    0  0.00000000000E+00  0.00000000000E+00  0.91763374790E+03  0.91763374791E+03  0.25500000000E-02 0. -1.
         -2   -1    0    0    0  501 -0.00000000000E+00 -0.00000000000E+00 -0.11710625226E+04  0.11710625227E+04  0.25500000000E-02 0.  1.
    8880023    1    1    2    0    0 -0.72993559860E+03  0.54614236989E+02 -0.70872132653E+03  0.12132126021E+04  0.65864270000E+03 0.  0.
    8880022    1    1    2    0    0  0.72993559860E+03 -0.54614236989E+02  0.45529255178E+03  0.87548366844E+03  0.15294330000E+03 0.  0.
<mgrwt>
<rscale>  0 0.91921273E+03</rscale>
<asrwt>0</asrwt>
<pdfrwt beam="1">  1        2 0.14117442E+00 0.98468213E+03</pdfrwt>
<pdfrwt beam="2">  1       -2 0.18016347E+00 0.98468213E+03</pdfrwt>
<totfact> 0.51239813E+00</totfact>
</mgrwt>
</event>
<event>
 4    5  0.7289609E-008  0.1505973E+04  0.7818608E-02  0.8905430E-01
         -2   -1    0    0    0  501 -0.00000000000E+00  0.00000000000E+00  0.10973764992E+04  0.10973764992E+04  0.25500000000E-02 0.  1.
          2   -1    0    0  501    0  0.00000000000E+00 -0.00000000000E+00 -0.36291198949E+04  0.36291198949E+04  0.25500000000E-02 0. -1.
    8880023    1    1    2    0    0 -0.82303895524E+03  0.10755231722E+04  0.34344177634E+03  0.15446377167E+04  0.65864270000E+03 0. -1.
    8880022    1    1    2    0    0  0.82303895524E+03 -0.10755231722E+04 -0.28751851721E+04  0.31818586773E+04  0.15294330000E+03 0.  0.
<mgrwt>
<rscale>  0 0.14688584E+04</rscale>
<asrwt>0</asrwt>
<pdfrwt beam="1">  1        2 0.55832613E+00 0.15059726E+04</pdfrwt>
<pdfrwt beam="2">  1       -2 0.16882716E+00 0.15059726E+04</pdfrwt>
<totfact> 0.13602082E-01</totfact>
</mgrwt>
</event>
<event>
 4    5  0.7289609E-008  0.7710824E+03  0.7818608E-02  0.9777217E-01
          2   -1    0    0  501    0  0.00000000000E+00  0.00000000000E+00  0.11269075845E+04  0.11269075845E+04  0.25500000000E-02 0. -1.
         -2   -1    0    0    0  501 -0.00000000000E+00 -0.00000000000E+00 -0.46773310943E+03  0.46773310944E+03  0.25500000000E-02 0.  1.
    8880023    1    1    2    0    0  0.20778410521E+03  0.34290478110E+03 -0.42382976690E+02  0.77224636370E+03  0.65864270000E+03 0.  1.
    8880022    1    1    2    0    0 -0.20778410521E+03 -0.34290478110E+03  0.70155745180E+03  0.82239433027E+03  0.15294330000E+03 0.  0.
<mgrwt>
<rscale>  0 0.66599651E+03</rscale>
<asrwt>0</asrwt>
<pdfrwt beam="1">  1        2 0.17337040E+00 0.77108244E+03</pdfrwt>
<pdfrwt beam="2">  1       -2 0.71958941E-01 0.77108244E+03</pdfrwt>
<totfact> 0.37257891E+01</totfact>
</mgrwt>
</event>
<event>
 4    5  0.7289609E-008  0.7963841E+03  0.7818608E-02  0.9718670E-01
         -2   -1    0    0    0  501 -0.00000000000E+00  0.00000000000E+00  0.85537756780E+03  0.85537756781E+03  0.25500000000E-02 0.  1.
          2   -1    0    0  501    0  0.00000000000E+00 -0.00000000000E+00 -0.20309308203E+04  0.20309308203E+04  0.25500000000E-02 0. -1.
    8880023    1    1    2    0    0  0.21535379509E+03 -0.39247953782E+03  0.63274531081E+03  0.10171500771E+04  0.65864270000E+03 0.  0.
    8880022    1    1    2    0    0 -0.21535379509E+03  0.39247953782E+03 -0.18082985633E+04  0.18691583110E+04  0.15294330000E+03 0.  0.
<mgrwt>
<rscale>  0 0.69916013E+03</rscale>
<asrwt>0</asrwt>
<pdfrwt beam="1">  1        2 0.31245089E+00 0.79638411E+03</pdfrwt>
<pdfrwt beam="2">  1       -2 0.13159655E+00 0.79638411E+03</pdfrwt>
<totfact> 0.27833279E+00</totfact>
</mgrwt>
</event>
<event>
 4    5  0.7289609E-008  0.9250712E+03  0.7818608E-02  0.9486927E-01
         -2   -1    0    0    0  501 -0.00000000000E+00  0.00000000000E+00  0.34749474205E+03  0.34749474206E+03  0.25500000000E-02 0.  1.
          2   -1    0    0  501    0  0.00000000000E+00 -0.00000000000E+00 -0.22698817542E+04  0.22698817542E+04  0.25500000000E-02 0. -1.
    8880023    1    1    2    0    0  0.44976462553E+03  0.46867709895E+03 -0.51254748449E+03  0.10575734355E+04  0.65864270000E+03 0.  0.
    8880022    1    1    2    0    0 -0.44976462553E+03 -0.46867709895E+03 -0.14098395277E+04  0.15598030608E+04  0.15294330000E+03 0.  0.
<mgrwt>
<rscale>  0 0.85254554E+03</rscale>
<asrwt>0</asrwt>
<pdfrwt beam="1">  1        2 0.34921257E+00 0.92507116E+03</pdfrwt>
<pdfrwt beam="2">  1       -2 0.53460731E-01 0.92507116E+03</pdfrwt>
<totfact> 0.15810465E+01</totfact>
</mgrwt>
</event>
<event>
 4    5  0.7289609E-008  0.7105799E+03  0.7818608E-02  0.9955854E-01
         -2   -1    0    0    0  501 -0.00000000000E+00  0.00000000000E+00  0.33740522205E+03  0.33740522206E+03  0.25500000000E-02 0.  1.
          2   -1    0    0  501    0  0.00000000000E+00 -0.00000000000E+00 -0.15447180518E+04  0.15447180518E+04  0.25500000000E-02 0. -1.
    8880023    1    1    2    0    0  0.22532476346E+03  0.14262646192E+03 -0.81671011141E+02  0.71525793739E+03  0.65864270000E+03 0.  0.
    8880022    1    1    2    0    0 -0.22532476346E+03 -0.14262646192E+03 -0.11256418186E+04  0.11668653364E+04  0.15294330000E+03 0.  0.
<mgrwt>
<rscale>  0 0.57629075E+03</rscale>
<asrwt>0</asrwt>
<pdfrwt beam="1">  1        2 0.23764893E+00 0.71057988E+03</pdfrwt>
<pdfrwt beam="2">  1       -2 0.51908496E-01 0.71057988E+03</pdfrwt>
<totfact> 0.43128498E+01</totfact>
</mgrwt>
</event>
<event>
 4    5  0.7362576E-008  0.9715691E+03  0.7818608E-02  0.9419737E-01
          2   -1    0    0  501    0  0.00000000000E+00  0.00000000000E+00  0.25080573604E+04  0.25080573604E+04  0.25500000000E-02 0. -1.
         -2   -1    0    0    0  501 -0.00000000000E+00 -0.00000000000E+00 -0.12650694079E+04  0.12650694079E+04  0.25500000000E-02 0.  1.
    8880023    1    1    2    0    0 -0.41275058053E+03  0.58290073720E+03 -0.10119420299E+04  0.14028446776E+04  0.65864270000E+03 0.  0.
    8880022    1    1    2    0    0  0.41275058053E+03 -0.58290073720E+03  0.22549299824E+04  0.23702820907E+04  0.15294330000E+03 0. -1.
<mgrwt>
<rscale>  0 0.90469027E+03</rscale>
<asrwt>0</asrwt>
<pdfrwt beam="1">  1        2 0.38585498E+00 0.97156910E+03</pdfrwt>
<pdfrwt beam="2">  1       -2 0.19462606E+00 0.97156910E+03</pdfrwt>
<totfact> 0.50284524E-01</totfact>
</mgrwt>
</event>
<event>
 4    5  0.7289609E-008  0.6796820E+03  0.7818608E-02  0.1009504E+00
         -2   -1    0    0    0  501 -0.00000000000E+00  0.00000000000E+00  0.43403866149E+03  0.43403866150E+03  0.25500000000E-02 0.  1.
          2   -1    0    0  501    0  0.00000000000E+00 -0.00000000000E+00 -0.12392965053E+04  0.12392965053E+04  0.25500000000E-02 0. -1.
    8880023    1    1    2    0    0  0.12046772052E+03 -0.11681181758E+03  0.14614480482E+03  0.69521650056E+03  0.65864270000E+03 0.  1.
    8880022    1    1    2    0    0 -0.12046772052E+03  0.11681181758E+03 -0.95140264864E+03  0.97811866625E+03  0.15294330000E+03 0.  0.
<mgrwt>
<rscale>  0 0.51672207E+03</rscale>
<asrwt>0</asrwt>
<pdfrwt beam="1">  1        2 0.19066100E+00 0.67968204E+03</pdfrwt>
<pdfrwt beam="2">  1       -2 0.66775179E-01 0.67968204E+03</pdfrwt>
<totfact> 0.37947392E+01</totfact>
</mgrwt>
</event>
<event>
 4    5  0.7289609E-008  0.7369717E+03  0.7818608E-02  0.9868858E-01
          2   -1    0    0  501    0  0.00000000000E+00  0.00000000000E+00  0.67794481430E+03  0.67794481431E+03  0.25500000000E-02 0. -1.
         -2   -1    0    0    0  501 -0.00000000000E+00 -0.00000000000E+00 -0.45702605002E+03  0.45702605002E+03  0.25500000000E-02 0.  1.
    8880023    1    1    2    0    0  0.30773036551E+03  0.12090954226E+03  0.68739398069E+02  0.74017052520E+03  0.65864270000E+03 0.  1.
    8880022    1    1    2    0    0 -0.30773036551E+03 -0.12090954226E+03  0.15217936622E+03  0.39480033913E+03  0.15294330000E+03 0.  0.
<mgrwt>
<rscale>  0 0.61794604E+03</rscale>
<asrwt>0</asrwt>
<pdfrwt beam="1">  1        2 0.10429920E+00 0.73697171E+03</pdfrwt>
<pdfrwt beam="2">  1       -2 0.70311701E-01 0.73697171E+03</pdfrwt>
<totfact> 0.79565273E+01</totfact>
</mgrwt>
</event>
<event>
 4    5  0.7289609E-008  0.1752528E+04  0.7818608E-02  0.8749261E-01
         -2   -1    0    0    0  501 -0.00000000000E+00  0.00000000000E+00  0.24360858293E+04  0.24360858293E+04  0.25500000000E-02 0.  1.
          2   -1    0    0  501    0  0.00000000000E+00 -0.00000000000E+00 -0.36353629843E+04  0.36353629843E+04  0.25500000000E-02 0. -1.
    8880023    1    1    2    0    0  0.44147401736E+03  0.15628967088E+04 -0.31034527934E+04  0.35640952396E+04  0.65864270000E+03 0.  0.
    8880022    1    1    2    0    0 -0.44147401736E+03 -0.15628967088E+04  0.19041756383E+04  0.25073535740E+04  0.15294330000E+03 0.  0.
<mgrwt>
<rscale>  0 0.17213854E+04</rscale>
<asrwt>0</asrwt>
<pdfrwt beam="1">  1        2 0.55928661E+00 0.17525284E+04</pdfrwt>
<pdfrwt beam="2">  1       -2 0.37478244E+00 0.17525284E+04</pdfrwt>
<totfact> 0.64241121E-03</totfact>
</mgrwt>
</event>
<event>
 4    5  0.7289609E-008  0.7646933E+03  0.7818608E-02  0.9793105E-01
          2   -1    0    0  501    0  0.00000000000E+00  0.00000000000E+00  0.30016081844E+04  0.30016081844E+04  0.25500000000E-02 0. -1.
         -2   -1    0    0    0  501 -0.00000000000E+00 -0.00000000000E+00 -0.49612760530E+03  0.49612760531E+03  0.25500000000E-02 0.  1.
    8880023    1    1    2    0    0 -0.14959292496E+03 -0.35856328874E+03 -0.17538646862E+03  0.78454846559E+03  0.65864270000E+03 0.  1.
    8880022    1    1    2    0    0  0.14959292496E+03  0.35856328874E+03  0.26808670477E+04  0.27131873241E+04  0.15294330000E+03 0.  0.
<mgrwt>
<rscale>  0 0.65733881E+03</rscale>
<asrwt>0</asrwt>
<pdfrwt beam="1">  1        2 0.46178587E+00 0.76469333E+03</pdfrwt>
<pdfrwt beam="2">  1       -2 0.76327325E-01 0.76469333E+03</pdfrwt>
<totfact> 0.28385898E+00</totfact>
</mgrwt>
</event>
<event>
 4    5  0.7289609E-008  0.7676119E+03  0.7818608E-02  0.9785785E-01
          2   -1    0    0  501    0  0.00000000000E+00  0.00000000000E+00  0.26941623781E+04  0.26941623781E+04  0.25500000000E-02 0. -1.
         -2   -1    0    0    0  501 -0.00000000000E+00 -0.00000000000E+00 -0.28875212061E+03  0.28875212062E+03  0.25500000000E-02 0.  1.
    8880023    1    1    2    0    0 -0.37559373824E+03  0.11977967577E+03  0.28194232631E+03  0.81775271847E+03  0.65864270000E+03 0.  0.
    8880022    1    1    2    0    0  0.37559373824E+03 -0.11977967577E+03  0.21234679312E+04  0.21651617803E+04  0.15294330000E+03 0.  0.
<mgrwt>
<rscale>  0 0.66131000E+03</rscale>
<asrwt>0</asrwt>
<pdfrwt beam="1">  1        2 0.41448650E+00 0.76761190E+03</pdfrwt>
<pdfrwt beam="2">  1       -2 0.44423405E-01 0.76761190E+03</pdfrwt>
<totfact> 0.13504296E+01</totfact>
</mgrwt>
</event>
<event>
 4    5  0.8572539E-008  0.1198109E+04  0.7818608E-02  0.9158963E-01
         -2   -1    0    0    0  501 -0.00000000000E+00  0.00000000000E+00  0.14854372310E+04  0.14854372310E+04  0.25500000000E-02 0.  1.
          2   -1    0    0  501    0  0.00000000000E+00 -0.00000000000E+00 -0.36077728302E+04  0.36077728302E+04  0.25500000000E-02 0. -1.
    8880023    1    1    2    0    0  0.78835766542E+03 -0.61656032369E+03  0.11543179388E+04  0.16637050674E+04  0.65864270000E+03 0.  0.
    8880022    1    1    2    0    0 -0.78835766542E+03  0.61656032369E+03 -0.32766535380E+04  0.34295049938E+04  0.15294330000E+03 0.  0.
<mgrwt>
<rscale>  0 0.11487225E+04</rscale>
<asrwt>0</asrwt>
<pdfrwt beam="1">  1        2 0.55504197E+00 0.11981088E+04</pdfrwt>
<pdfrwt beam="2">  1       -2 0.22852881E+00 0.11981088E+04</pdfrwt>
<totfact> 0.59297154E-02</totfact>
</mgrwt>
</event>
<event>
 4    5  0.7289609E-008  0.6810630E+03  0.7818608E-02  0.1008729E+00
         -2   -1    0    0    0  501 -0.00000000000E+00  0.00000000000E+00  0.24366967846E+03  0.24366967848E+03  0.25500000000E-02 0.  1.
          2   -1    0    0  501    0  0.00000000000E+00 -0.00000000000E+00 -0.19801963067E+04  0.19801963067E+04  0.25500000000E-02 0. -1.
    8880023    1    1    2    0    0 -0.41480462712E+02 -0.16827346232E+03 -0.25944217655E+03  0.72880521139E+03  0.65864270000E+03 0.  0.
    8880022    1    1    2    0    0  0.41480462712E+02  0.16827346232E+03 -0.14770844517E+04  0.14950607738E+04  0.15294330000E+03 0.  0.
<mgrwt>
<rscale>  0 0.51983057E+03</rscale>
<asrwt>0</asrwt>
<pdfrwt beam="1">  1        2 0.30464557E+00 0.68106299E+03</pdfrwt>
<pdfrwt beam="2">  1       -2 0.37487644E-01 0.68106299E+03</pdfrwt>
<totfact> 0.47779775E+01</totfact>
</mgrwt>
</event>
<event>
 4    5  0.7289609E-008  0.7877711E+03  0.7818608E-02  0.9737889E-01
          2   -1    0    0  501    0  0.00000000000E+00  0.00000000000E+00  0.13161534103E+04  0.13161534103E+04  0.25500000000E-02 0. -1.
         -2   -1    0    0    0  501 -0.00000000000E+00 -0.00000000000E+00 -0.37826587437E+03  0.37826587437E+03  0.25500000000E-02 0.  1.
    8880023    1    1    2    0    0 -0.12939328884E+03 -0.41234749159E+03  0.17906476543E+03  0.80786599972E+03  0.65864270000E+03 0. -1.
    8880022    1    1    2    0    0  0.12939328884E+03  0.41234749159E+03  0.75882277046E+03  0.88655328492E+03  0.15294330000E+03 0.  0.
<mgrwt>
<rscale>  0 0.68805001E+03</rscale>
<asrwt>0</asrwt>
<pdfrwt beam="1">  1        2 0.20248515E+00 0.78777109E+03</pdfrwt>
<pdfrwt beam="2">  1       -2 0.58194748E-01 0.78777109E+03</pdfrwt>
<totfact> 0.45389034E+01</totfact>
</mgrwt>
</event>
<event>
 4    5  0.7289609E-008  0.1330713E+04  0.7818608E-02  0.9039481E-01
          2   -1    0    0  501    0  0.00000000000E+00  0.00000000000E+00  0.88032666507E+03  0.88032666508E+03  0.25500000000E-02 0. -1.
         -2   -1    0    0    0  501 -0.00000000000E+00 -0.00000000000E+00 -0.40547500475E+04  0.40547500475E+04  0.25500000000E-02 0.  1.
    8880023    1    1    2    0    0 -0.11435377426E+04  0.17119815100E+03 -0.34830374994E+04  0.37285852282E+04  0.65864270000E+03 0.  0.
    8880022    1    1    2    0    0  0.11435377426E+04 -0.17119815100E+03  0.30861411696E+03  0.12064914844E+04  0.15294330000E+03 0.  0.
<mgrwt>
<rscale>  0 0.12875700E+04</rscale>
<asrwt>0</asrwt>
<pdfrwt beam="1">  1        2 0.13543487E+00 0.13307132E+04</pdfrwt>
<pdfrwt beam="2">  1       -2 0.62380769E+00 0.13307132E+04</pdfrwt>
<totfact> 0.11717308E-02</totfact>
</mgrwt>
</event>
<event>
 4    5  0.7289609E-008  0.6883909E+03  0.7818608E-02  0.1004927E+00
          2   -1    0    0  501    0  0.00000000000E+00  0.00000000000E+00  0.18780204467E+04  0.18780204467E+04  0.25500000000E-02 0. -1.
         -2   -1    0    0    0  501 -0.00000000000E+00 -0.00000000000E+00 -0.40050529070E+03  0.40050529071E+03  0.25500000000E-02 0.  1.
    8880023    1    1    2    0    0 -0.62518043804E+02 -0.19016656417E+03 -0.86992350938E+02  0.69386576750E+03  0.65864270000E+03 0.  1.
    8880022    1    1    2    0    0  0.62518043804E+02  0.19016656417E+03  0.15645075069E+04  0.15846599699E+04  0.15294330000E+03 0.  0.
<mgrwt>
<rscale>  0 0.53541659E+03</rscale>
<asrwt>0</asrwt>
<pdfrwt beam="1">  1        2 0.28892622E+00 0.68839090E+03</pdfrwt>
<pdfrwt beam="2">  1       -2 0.61616199E-01 0.68839090E+03</pdfrwt>
<totfact> 0.19890081E+01</totfact>
</mgrwt>
</event>
<event>
 4    5  0.7289609E-008  0.9245884E+03  0.7818608E-02  0.9487659E-01
         -2   -1    0    0    0  501 -0.00000000000E+00  0.00000000000E+00  0.47776827717E+03  0.47776827718E+03  0.25500000000E-02 0.  1.
          2   -1    0    0  501    0  0.00000000000E+00 -0.00000000000E+00 -0.35630467860E+04  0.35630467860E+04  0.25500000000E-02 0. -1.
    8880023    1    1    2    0    0  0.44587493827E+03 -0.47143296295E+03 -0.42183008974E+02  0.92555016700E+03  0.65864270000E+03 0.  1.
    8880022    1    1    2    0    0 -0.44587493827E+03  0.47143296295E+03 -0.30430954999E+04  0.31152648962E+04  0.15294330000E+03 0.  0.
<mgrwt>
<rscale>  0 0.85199805E+03</rscale>
<asrwt>0</asrwt>
<pdfrwt beam="1">  1        2 0.54816103E+00 0.92458840E+03</pdfrwt>
<pdfrwt beam="2">  1       -2 0.73502814E-01 0.92458840E+03</pdfrwt>
<totfact> 0.12887641E+00</totfact>
</mgrwt>
</event>
<event>
 4    5  0.7289609E-008  0.1321517E+04  0.7818608E-02  0.9047198E-01
         -2   -1    0    0    0  501 -0.00000000000E+00  0.00000000000E+00  0.13620527642E+04  0.13620527642E+04  0.25500000000E-02 0.  1.
          2   -1    0    0  501    0  0.00000000000E+00 -0.00000000000E+00 -0.17061108016E+04  0.17061108016E+04  0.25500000000E-02 0. -1.
    8880023    1    1    2    0    0  0.68944181944E+03  0.91502312621E+03  0.71321871519E+03  0.15016952040E+04  0.65864270000E+03 0.  0.
    8880022    1    1    2    0    0 -0.68944181944E+03 -0.91502312621E+03 -0.10572767526E+04  0.15664683618E+04  0.15294330000E+03 0.  0.
<mgrwt>
<rscale>  0 0.12779974E+04</rscale>
<asrwt>0</asrwt>
<pdfrwt beam="1">  1        2 0.26247858E+00 0.13215171E+04</pdfrwt>
<pdfrwt beam="2">  1       -2 0.20954658E+00 0.13215171E+04</pdfrwt>
<totfact> 0.10735723E+00</totfact>
</mgrwt>
</event>
<event>
 4    5  0.7289609E-008  0.8915882E+03  0.7818608E-02  0.9539672E-01
          2   -1    0    0  501    0  0.00000000000E+00  0.00000000000E+00  0.12847009206E+04  0.12847009206E+04  0.25500000000E-02 0. -1.
         -2   -1    0    0    0  501 -0.00000000000E+00 -0.00000000000E+00 -0.60120054137E+03  0.60120054137E+03  0.25500000000E-02 0.  1.
    8880023    1    1    2    0    0 -0.60090444725E+03 -0.57523775399E+01  0.86249494385E+03  0.12404946509E+04  0.65864270000E+03 0. -1.
    8880022    1    1    2    0    0  0.60090444725E+03  0.57523775399E+01 -0.17899456461E+03  0.64540681105E+03  0.15294330000E+03 0.  0.
<mgrwt>
<rscale>  0 0.81421069E+03</rscale>
<asrwt>0</asrwt>
<pdfrwt beam="1">  1        2 0.19764629E+00 0.89158816E+03</pdfrwt>
<pdfrwt beam="2">  1       -2 0.92492392E-01 0.89158816E+03</pdfrwt>
<totfact> 0.16825228E+01</totfact>
</mgrwt>
</event>
<event>
 4    5  0.7289609E-008  0.7786580E+03  0.7818608E-02  0.9758999E-01
         -2   -1    0    0    0  501 -0.00000000000E+00  0.00000000000E+00  0.75264633395E+03  0.75264633396E+03  0.25500000000E-02 0.  1.
          2   -1    0    0  501    0  0.00000000000E+00 -0.00000000000E+00 -0.14351055036E+04  0.14351055036E+04  0.25500000000E-02 0. -1.
    8880023    1    1    2    0    0 -0.32508200540E+02  0.41405462215E+03  0.49986872328E+03  0.92529830866E+03  0.65864270000E+03 0.  1.
    8880022    1    1    2    0    0  0.32508200540E+02 -0.41405462215E+03 -0.11823278929E+04  0.12624535289E+04  0.15294330000E+03 0.  0.
<mgrwt>
<rscale>  0 0.67610086E+03</rscale>
<asrwt>0</asrwt>
<pdfrwt beam="1">  1        2 0.22078546E+00 0.77865796E+03</pdfrwt>
<pdfrwt beam="2">  1       -2 0.11579174E+00 0.77865796E+03</pdfrwt>
<totfact> 0.81702875E+00</totfact>
</mgrwt>
</event>
<event>
 4    5  0.7289609E-008  0.8271652E+03  0.7818608E-02  0.9654873E-01
          2   -1    0    0  501    0  0.00000000000E+00  0.00000000000E+00  0.15066819463E+04  0.15066819463E+04  0.25500000000E-02 0. -1.
         -2   -1    0    0    0  501 -0.00000000000E+00 -0.00000000000E+00 -0.56203580659E+03  0.56203580660E+03  0.25500000000E-02 0.  1.
    8880023    1    1    2    0    0  0.89772656300E+01 -0.50031134136E+03 -0.16357334812E+03  0.84318353641E+03  0.65864270000E+03 0.  1.
    8880022    1    1    2    0    0 -0.89772656300E+01  0.50031134136E+03  0.11082194878E+04  0.12255342165E+04  0.15294330000E+03 0.  0.
<mgrwt>
<rscale>  0 0.73768360E+03</rscale>
<asrwt>0</asrwt>
<pdfrwt beam="1">  1        2 0.23179722E+00 0.82716518E+03</pdfrwt>
<pdfrwt beam="2">  1       -2 0.86467047E-01 0.82716518E+03</pdfrwt>
<totfact> 0.14797750E+01</totfact>
</mgrwt>
</event>
<event>
 4    5  0.7289609E-008  0.9219607E+03  0.7818608E-02  0.9491659E-01
         -2   -1    0    0    0  501 -0.00000000000E+00  0.00000000000E+00  0.62049473734E+03  0.62049473734E+03  0.25500000000E-02 0.  1.
          2   -1    0    0  501    0  0.00000000000E+00 -0.00000000000E+00 -0.20432322985E+04  0.20432322985E+04  0.25500000000E-02 0. -1.
    8880023    1    1    2    0    0  0.45670562688E+03 -0.45565482841E+03  0.17090300532E+03  0.93766699620E+03  0.65864270000E+03 0.  1.
    8880022    1    1    2    0    0 -0.45670562688E+03  0.45565482841E+03 -0.15936405665E+04  0.17260600396E+04  0.15294330000E+03 0.  0.
<mgrwt>
<rscale>  0 0.84901558E+03</rscale>
<asrwt>0</asrwt>
<pdfrwt beam="1">  1        2 0.31434343E+00 0.92196071E+03</pdfrwt>
<pdfrwt beam="2">  1       -2 0.95460730E-01 0.92196071E+03</pdfrwt>
<totfact> 0.58906303E+00</totfact>
</mgrwt>
</event>
<event>
 4    5  0.7289609E-008  0.9232590E+03  0.7818608E-02  0.9489680E-01
         -2   -1    0    0    0  501 -0.00000000000E+00  0.00000000000E+00  0.61244303045E+03  0.61244303046E+03  0.25500000000E-02 0.  1.
          2   -1    0    0  501    0  0.00000000000E+00 -0.00000000000E+00 -0.16487215265E+04  0.16487215265E+04  0.25500000000E-02 0. -1.
    8880023    1    1    2    0    0 -0.64233018713E+03  0.77517250660E+02  0.11633622443E+03  0.93055967934E+03  0.65864270000E+03 0.  0.
    8880022    1    1    2    0    0  0.64233018713E+03 -0.77517250660E+02 -0.11526147205E+04  0.13306048776E+04  0.15294330000E+03 0.  0.
<mgrwt>
<rscale>  0 0.85048969E+03</rscale>
<asrwt>0</asrwt>
<pdfrwt beam="1">  1        2 0.25364946E+00 0.92325901E+03</pdfrwt>
<pdfrwt beam="2">  1       -2 0.94222005E-01 0.92325901E+03</pdfrwt>
<totfact> 0.10005244E+01</totfact>
</mgrwt>
</event>
<event>
 4    5  0.7289609E-008  0.1408455E+04  0.7818608E-02  0.8977141E-01
          2   -1    0    0  501    0  0.00000000000E+00  0.00000000000E+00  0.16940022427E+04  0.16940022427E+04  0.25500000000E-02 0. -1.
         -2   -1    0    0    0  501 -0.00000000000E+00 -0.00000000000E+00 -0.15652406024E+04  0.15652406024E+04  0.25500000000E-02 0.  1.
    8880023    1    1    2    0    0 -0.12427253040E+04  0.74621534237E+02 -0.87031883793E+03  0.16556568607E+04  0.65864270000E+03 0.  0.
    8880022    1    1    2    0    0  0.12427253040E+04 -0.74621534237E+02  0.99908047818E+03  0.16035859844E+04  0.15294330000E+03 0.  0.
<mgrwt>
<rscale>  0 0.13682313E+04</rscale>
<asrwt>0</asrwt>
<pdfrwt beam="1">  1        2 0.26061573E+00 0.14084547E+04</pdfrwt>
<pdfrwt beam="2">  1       -2 0.24080625E+00 0.14084547E+04</pdfrwt>
<totfact> 0.68607685E-01</totfact>
</mgrwt>
</event>
<event>
 4    5  0.7289609E-008  0.8723677E+03  0.7818608E-02  0.9571931E-01
         -2   -1    0    0    0  501 -0.00000000000E+00  0.00000000000E+00  0.19488798152E+03  0.19488798154E+03  0.25500000000E-02 0.  1.
          2   -1    0    0  501    0  0.00000000000E+00 -0.00000000000E+00 -0.36445179011E+04  0.36445179011E+04  0.25500000000E-02 0. -1.
    8880023    1    1    2    0    0 -0.18441891198E+03  0.54148387806E+03 -0.10367991356E+04  0.13549825752E+04  0.65864270000E+03 0.  1.
    8880022    1    1    2    0    0  0.18441891198E+03 -0.54148387806E+03 -0.24128307840E+04  0.24844233075E+04  0.15294330000E+03 0.  0.
<mgrwt>
<rscale>  0 0.79182135E+03</rscale>
<asrwt>0</asrwt>
<pdfrwt beam="1">  1        2 0.56069501E+00 0.87236766E+03</pdfrwt>
<pdfrwt beam="2">  1       -2 0.29982769E-01 0.87236766E+03</pdfrwt>
<totfact> 0.69904947E+00</totfact>
</mgrwt>
</event>
<event>
 4    5  0.7289609E-008  0.1445036E+04  0.7818608E-02  0.8949456E-01
         -2   -1    0    0    0  501 -0.00000000000E+00  0.00000000000E+00  0.10937043250E+04  0.10937043250E+04  0.25500000000E-02 0.  1.
          2   -1    0    0  501    0  0.00000000000E+00 -0.00000000000E+00 -0.25429410554E+04  0.25429410554E+04  0.25500000000E-02 0. -1.
    8880023    1    1    2    0    0 -0.97051700633E+03 -0.84404763289E+03  0.28421527629E+03  0.14727213571E+04  0.65864270000E+03 0.  1.
    8880022    1    1    2    0    0  0.97051700633E+03  0.84404763289E+03 -0.17334520066E+04  0.21639240233E+04  0.15294330000E+03 0.  0.
<mgrwt>
<rscale>  0 0.14060434E+04</rscale>
<asrwt>0</asrwt>
<pdfrwt beam="1">  1        2 0.39122170E+00 0.14450363E+04</pdfrwt>
<pdfrwt beam="2">  1       -2 0.16826220E+00 0.14450363E+04</pdfrwt>
<totfact> 0.68357680E-01</totfact>
</mgrwt>
</event>
<event>
 4    5  0.7289609E-008  0.1052796E+04  0.7818608E-02  0.9315527E-01
         -2   -1    0    0    0  501 -0.00000000000E+00  0.00000000000E+00  0.23533896043E+04  0.23533896043E+04  0.25500000000E-02 0.  1.
          2   -1    0    0  501    0  0.00000000000E+00 -0.00000000000E+00 -0.15997489040E+04  0.15997489040E+04  0.25500000000E-02 0. -1.
    8880023    1    1    2    0    0 -0.43273874773E+03 -0.69807385360E+03  0.21111819837E+04  0.23591247324E+04  0.65864270000E+03 0.  0.
    8880022    1    1    2    0    0  0.43273874773E+03  0.69807385360E+03 -0.13575412833E+04  0.15940137759E+04  0.15294330000E+03 0.  0.
<mgrwt>
<rscale>  0 0.99365864E+03</rscale>
<asrwt>0</asrwt>
<pdfrwt beam="1">  1        2 0.24611522E+00 0.10527963E+04</pdfrwt>
<pdfrwt beam="2">  1       -2 0.36205994E+00 0.10527963E+04</pdfrwt>
<totfact> 0.14633080E-01</totfact>
</mgrwt>
</event>
<event>
 4    5  0.7289609E-008  0.7820168E+03  0.7818608E-02  0.9751121E-01
         -2   -1    0    0    0  501 -0.00000000000E+00  0.00000000000E+00  0.21178764349E+03  0.21178764351E+03  0.25500000000E-02 0.  1.
          2   -1    0    0  501    0  0.00000000000E+00 -0.00000000000E+00 -0.20504424334E+04  0.20504424334E+04  0.25500000000E-02 0. -1.
    8880023    1    1    2    0    0  0.23293081547E+03 -0.35140193417E+03 -0.74452686252E+03  0.10797548515E+04  0.65864270000E+03 0.  0.
    8880022    1    1    2    0    0 -0.23293081547E+03  0.35140193417E+03 -0.10941279274E+04  0.11824752254E+04  0.15294330000E+03 0.  0.
<mgrwt>
<rscale>  0 0.68052979E+03</rscale>
<asrwt>0</asrwt>
<pdfrwt beam="1">  1        2 0.31545267E+00 0.78201681E+03</pdfrwt>
<pdfrwt beam="2">  1       -2 0.32582716E-01 0.78201681E+03</pdfrwt>
<totfact> 0.56421655E+01</totfact>
</mgrwt>
</event>
<event>
 4    5  0.7289609E-008  0.7743733E+03  0.7818608E-02  0.9769224E-01
         -2   -1    0    0    0  501 -0.00000000000E+00  0.00000000000E+00  0.91063464407E+03  0.91063464407E+03  0.25500000000E-02 0.  1.
          2   -1    0    0  501    0  0.00000000000E+00 -0.00000000000E+00 -0.86344533988E+03  0.86344533988E+03  0.25500000000E-02 0. -1.
    8880023    1    1    2    0    0  0.34746031053E+03 -0.21240325701E+03  0.66347389332E+03  0.10197311530E+04  0.65864270000E+03 0.  1.
    8880022    1    1    2    0    0 -0.34746031053E+03  0.21240325701E+03 -0.61628458912E+03  0.75434883097E+03  0.15294330000E+03 0.  0.
<mgrwt>
<rscale>  0 0.67040631E+03</rscale>
<asrwt>0</asrwt>
<pdfrwt beam="1">  1        2 0.13283774E+00 0.77437331E+03</pdfrwt>
<pdfrwt beam="2">  1       -2 0.14009764E+00 0.77437331E+03</pdfrwt>
<totfact> 0.11286118E+01</totfact>
</mgrwt>
</event>
<event>
 4    5  0.7289609E-008  0.1214512E+04  0.7818608E-02  0.9143143E-01
          2   -1    0    0  501    0  0.00000000000E+00  0.00000000000E+00  0.18427274231E+04  0.18427274231E+04  0.25500000000E-02 0. -1.
         -2   -1    0    0    0  501 -0.00000000000E+00 -0.00000000000E+00 -0.10710667113E+04  0.10710667113E+04  0.25500000000E-02 0.  1.
    8880023    1    1    2    0    0 -0.12972320584E+03 -0.10121272903E+04 -0.46742598494E+03  0.13013558389E+04  0.65864270000E+03 0.  0.
    8880022    1    1    2    0    0  0.12972320584E+03  0.10121272903E+04  0.12390866967E+04  0.16124382955E+04  0.15294330000E+03 0.  0.
<mgrwt>
<rscale>  0 0.11660061E+04</rscale>
<asrwt>0</asrwt>
<pdfrwt beam="1">  1        2 0.28349652E+00 0.12145122E+04</pdfrwt>
<pdfrwt beam="2">  1       -2 0.16477950E+00 0.12145122E+04</pdfrwt>
<totfact> 0.18416385E+00</totfact>
</mgrwt>
</event>
<event>
 4    5  0.7289609E-008  0.7692782E+03  0.7818608E-02  0.9781653E-01
         -2   -1    0    0    0  501 -0.00000000000E+00  0.00000000000E+00  0.44589669862E+03  0.44589669863E+03  0.25500000000E-02 0.  1.
          2   -1    0    0  501    0  0.00000000000E+00 -0.00000000000E+00 -0.17054539373E+04  0.17054539373E+04  0.25500000000E-02 0. -1.
    8880023    1    1    2    0    0  0.29752193254E+03 -0.26355159147E+03  0.53323188482E+02  0.77112405643E+03  0.65864270000E+03 0.  0.
    8880022    1    1    2    0    0 -0.29752193254E+03  0.26355159147E+03 -0.13128804271E+04  0.13802265795E+04  0.15294330000E+03 0.  0.
<mgrwt>
<rscale>  0 0.66356484E+03</rscale>
<asrwt>0</asrwt>
<pdfrwt beam="1">  1        2 0.26237753E+00 0.76927820E+03</pdfrwt>
<pdfrwt beam="2">  1       -2 0.68599493E-01 0.76927820E+03</pdfrwt>
<totfact> 0.19399615E+01</totfact>
</mgrwt>
</event>
<event>
 4    5  0.7289609E-008  0.8825835E+03  0.7818608E-02  0.9554590E-01
          2   -1    0    0  501    0  0.00000000000E+00  0.00000000000E+00  0.34343854486E+04  0.34343854486E+04  0.25500000000E-02 0. -1.
         -2   -1    0    0    0  501 -0.00000000000E+00 -0.00000000000E+00 -0.30579196167E+03  0.30579196168E+03  0.25500000000E-02 0.  1.
    8880023    1    1    2    0    0  0.57022748907E+03  0.14136510171E+03  0.44432666578E+03  0.98811936195E+03  0.65864270000E+03 0.  1.
    8880022    1    1    2    0    0 -0.57022748907E+03 -0.14136510171E+03  0.26842668211E+04  0.27520580483E+04  0.15294330000E+03 0.  0.
<mgrwt>
<rscale>  0 0.80376062E+03</rscale>
<asrwt>0</asrwt>
<pdfrwt beam="1">  1        2 0.52836702E+00 0.88258353E+03</pdfrwt>
<pdfrwt beam="2">  1       -2 0.47044915E-01 0.88258353E+03</pdfrwt>
<totfact> 0.40806401E+00</totfact>
</mgrwt>
</event>
<event>
 4    5  0.7289609E-008  0.7516194E+03  0.7818608E-02  0.9827308E-01
         -2   -1    0    0    0  501 -0.00000000000E+00  0.00000000000E+00  0.96942308338E+03  0.96942308338E+03  0.25500000000E-02 0.  1.
          2   -1    0    0  501    0  0.00000000000E+00 -0.00000000000E+00 -0.42401398831E+03  0.42401398832E+03  0.25500000000E-02 0. -1.
    8880023    1    1    2    0    0  0.31469340836E+03  0.17913574874E+03  0.64220290734E+03  0.98861334110E+03  0.65864270000E+03 0.  0.
    8880022    1    1    2    0    0 -0.31469340836E+03 -0.17913574874E+03 -0.96793812276E+02  0.40482373059E+03  0.15294330000E+03 0.  0.
<mgrwt>
<rscale>  0 0.63917415E+03</rscale>
<asrwt>0</asrwt>
<pdfrwt beam="1">  1        2 0.65232921E-01 0.75161943E+03</pdfrwt>
<pdfrwt beam="2">  1       -2 0.14914201E+00 0.75161943E+03</pdfrwt>
<totfact> 0.22935168E+01</totfact>
</mgrwt>
</event>
<event>
 4    5  0.7289609E-008  0.6984225E+03  0.7818608E-02  0.1000381E+00
          2   -1    0    0  501    0  0.00000000000E+00  0.00000000000E+00  0.10835657827E+04  0.10835657827E+04  0.25500000000E-02 0. -1.
         -2   -1    0    0    0  501 -0.00000000000E+00 -0.00000000000E+00 -0.25943589106E+03  0.25943589108E+03  0.25500000000E-02 0.  1.
    8880023    1    1    2    0    0 -0.10324801140E+02  0.23211456351E+03  0.32222783712E+03  0.76917147463E+03  0.65864270000E+03 0.  1.
    8880022    1    1    2    0    0  0.10324801140E+02 -0.23211456351E+03  0.50190205452E+03  0.57383019915E+03  0.15294330000E+03 0.  0.
<mgrwt>
<rscale>  0 0.55483525E+03</rscale>
<asrwt>0</asrwt>
<pdfrwt beam="1">  1        2 0.16670243E+00 0.69842249E+03</pdfrwt>
<pdfrwt beam="2">  1       -2 0.39913214E-01 0.69842249E+03</pdfrwt>
<totfact> 0.13466096E+02</totfact>
</mgrwt>
</event>
<event>
 4    5  0.7289609E-008  0.1319089E+04  0.7818608E-02  0.9049248E-01
          2   -1    0    0  501    0  0.00000000000E+00  0.00000000000E+00  0.38450325495E+04  0.38450325495E+04  0.25500000000E-02 0. -1.
         -2   -1    0    0    0  501 -0.00000000000E+00 -0.00000000000E+00 -0.94905304855E+03  0.94905304856E+03  0.25500000000E-02 0.  1.
    8880023    1    1    2    0    0  0.11410755745E+04  0.64280561458E+02 -0.33714778556E+03  0.13614934054E+04  0.65864270000E+03 0.  0.
    8880022    1    1    2    0    0 -0.11410755745E+04 -0.64280561458E+02  0.32331272865E+04  0.34325921927E+04  0.15294330000E+03 0.  0.
<mgrwt>
<rscale>  0 0.12754685E+04</rscale>
<asrwt>0</asrwt>
<pdfrwt beam="1">  1        2 0.59154348E+00 0.13190890E+04</pdfrwt>
<pdfrwt beam="2">  1       -2 0.14600816E+00 0.13190890E+04</pdfrwt>
<totfact> 0.14367782E-01</totfact>
</mgrwt>
</event>
<event>
 4    5  0.7289609E-008  0.6620002E+03  0.7818608E-02  0.1022195E+00
         -2   -1    0    0    0  501 -0.00000000000E+00  0.00000000000E+00  0.30198360095E+03  0.30198360097E+03  0.25500000000E-02 0.  1.
          2   -1    0    0  501    0  0.00000000000E+00 -0.00000000000E+00 -0.80379743855E+03  0.80379743855E+03  0.25500000000E-02 0. -1.
    8880023    1    1    2    0    0  0.54209374206E+02 -0.38670118408E+02 -0.98443393058E+02  0.66927971896E+03  0.65864270000E+03 0.  1.
    8880022    1    1    2    0    0 -0.54209374206E+02  0.38670118408E+02 -0.40337044454E+03  0.43650132056E+03  0.15294330000E+03 0.  0.
<mgrwt>
<rscale>  0 0.46902859E+03</rscale>
<asrwt>0</asrwt>
<pdfrwt beam="1">  1        2 0.12366114E+00 0.66200018E+03</pdfrwt>
<pdfrwt beam="2">  1       -2 0.46459016E-01 0.66200018E+03</pdfrwt>
<totfact> 0.15279728E+02</totfact>
</mgrwt>
</event>
<event>
 4    5  0.7289609E-008  0.1298949E+04  0.7818608E-02  0.9066468E-01
          2   -1    0    0  501    0  0.00000000000E+00  0.00000000000E+00  0.16590494466E+04  0.16590494466E+04  0.25500000000E-02 0. -1.
         -2   -1    0    0    0  501 -0.00000000000E+00 -0.00000000000E+00 -0.11104997886E+04  0.11104997886E+04  0.25500000000E-02 0.  1.
    8880023    1    1    2    0    0 -0.17789549780E+03  0.11053556061E+04 -0.32768211410E+03  0.13396430861E+04  0.65864270000E+03 0.  0.
    8880022    1    1    2    0    0  0.17789549780E+03 -0.11053556061E+04  0.87623177210E+03  0.14299061492E+04  0.15294330000E+03 0.  0.
<mgrwt>
<rscale>  0 0.12544735E+04</rscale>
<asrwt>0</asrwt>
<pdfrwt beam="1">  1        2 0.25523838E+00 0.12989488E+04</pdfrwt>
<pdfrwt beam="2">  1       -2 0.17084612E+00 0.12989488E+04</pdfrwt>
<totfact> 0.20879178E+00</totfact>
</mgrwt>
</event>
<event>
 4    5  0.8614790E-008  0.1114260E+04  0.7818608E-02  0.9245344E-01
          2   -1    0    0  501    0  0.00000000000E+00  0.00000000000E+00  0.31281531030E+04  0.31281531030E+04  0.25500000000E-02 0. -1.
         -2   -1    0    0    0  501 -0.00000000000E+00 -0.00000000000E+00 -0.13666597533E+04  0.13666597533E+04  0.25500000000E-02 0.  1.
    8880023    1    1    2    0    0  0.88881804361E+03  0.13329218517E+03 -0.10549831471E+04  0.15344588519E+04  0.65864270000E+03 0.  0.
    8880022    1    1    2    0    0 -0.88881804361E+03 -0.13329218517E+03  0.28164764967E+04  0.29603540043E+04  0.15294330000E+03 0.  0.
<mgrwt>
<rscale>  0 0.10597419E+04</rscale>
<asrwt>0</asrwt>
<pdfrwt beam="1">  1        2 0.48125433E+00 0.11142596E+04</pdfrwt>
<pdfrwt beam="2">  1       -2 0.21025534E+00 0.11142596E+04</pdfrwt>
<totfact> 0.16464682E-01</totfact>
</mgrwt>
</event>
<event>
 4    5  0.7289609E-008  0.6790587E+03  0.7818608E-02  0.1009861E+00
         -2   -1    0    0    0  501 -0.00000000000E+00  0.00000000000E+00  0.13219091124E+03  0.13219091127E+03  0.25500000000E-02 0.  1.
          2   -1    0    0  501    0  0.00000000000E+00 -0.00000000000E+00 -0.25230493078E+04  0.25230493078E+04  0.25500000000E-02 0. -1.
    8880023    1    1    2    0    0 -0.17691500171E+02 -0.16430917917E+03 -0.80360163836E+03  0.10520913910E+04  0.65864270000E+03 0.  1.
    8880022    1    1    2    0    0  0.17691500171E+02  0.16430917917E+03 -0.15872567582E+04  0.16031488281E+04  0.15294330000E+03 0.  0.
<mgrwt>
<rscale>  0 0.51529838E+03</rscale>
<asrwt>0</asrwt>
<pdfrwt beam="1">  1        2 0.38816140E+00 0.67905869E+03</pdfrwt>
<pdfrwt beam="2">  1       -2 0.20337065E-01 0.67905869E+03</pdfrwt>
<totfact> 0.73416987E+01</totfact>
</mgrwt>
</event>
<event>
 4    5  0.7289609E-008  0.6589359E+03  0.7818608E-02  0.1025274E+00
          2   -1    0    0  501    0  0.00000000000E+00  0.00000000000E+00  0.31743112103E+04  0.31743112103E+04  0.25500000000E-02 0. -1.
         -2   -1    0    0    0  501 -0.00000000000E+00 -0.00000000000E+00 -0.18431731602E+03  0.18431731604E+03  0.25500000000E-02 0.  1.
    8880023    1    1    2    0    0  0.12190563585E+02  0.15417170077E+02  0.41437503131E+03  0.77839782362E+03  0.65864270000E+03 0.  1.
    8880022    1    1    2    0    0 -0.12190563585E+02 -0.15417170077E+02  0.25756188630E+04  0.25802307027E+04  0.15294330000E+03 0.  0.
<mgrwt>
<rscale>  0 0.45830456E+03</rscale>
<asrwt>0</asrwt>
<pdfrwt beam="1">  1        2 0.48835554E+00 0.65893589E+03</pdfrwt>
<pdfrwt beam="2">  1       -2 0.28356512E-01 0.65893589E+03</pdfrwt>
<totfact> 0.16629397E+01</totfact>
</mgrwt>
</event>
<event>
 4    5  0.7289609E-008  0.1197677E+04  0.7818608E-02  0.9159384E-01
          2   -1    0    0  501    0  0.00000000000E+00  0.00000000000E+00  0.11286499017E+04  0.11286499017E+04  0.25500000000E-02 0. -1.
         -2   -1    0    0    0  501 -0.00000000000E+00 -0.00000000000E+00 -0.13029877352E+04  0.13029877352E+04  0.25500000000E-02 0.  1.
    8880023    1    1    2    0    0  0.44542485794E+03 -0.89566562613E+03 -0.59308942136E+03  0.13364825049E+04  0.65864270000E+03 0.  0.
    8880022    1    1    2    0    0 -0.44542485794E+03  0.89566562613E+03  0.41875158781E+03  0.10951551320E+04  0.15294330000E+03 0.  0.
<mgrwt>
<rscale>  0 0.11482671E+04</rscale>
<asrwt>0</asrwt>
<pdfrwt beam="1">  1        2 0.17363845E+00 0.11976771E+04</pdfrwt>
<pdfrwt beam="2">  1       -2 0.20045965E+00 0.11976771E+04</pdfrwt>
<totfact> 0.26850665E+00</totfact>
</mgrwt>
</event>
<event>
 4    5  0.7289609E-008  0.7046942E+03  0.7818608E-02  0.9978258E-01
          2   -1    0    0  501    0  0.00000000000E+00  0.00000000000E+00  0.21617134769E+04  0.21617134769E+04  0.25500000000E-02 0. -1.
         -2   -1    0    0    0  501 -0.00000000000E+00 -0.00000000000E+00 -0.34148913743E+03  0.34148913744E+03  0.25500000000E-02 0.  1.
    8880023    1    1    2    0    0  0.23635318385E+03 -0.83191613910E+02  0.47452655541E+02  0.70629004872E+03  0.65864270000E+03 0.  1.
    8880022    1    1    2    0    0 -0.23635318385E+03  0.83191613910E+02  0.17727716840E+04  0.17969125657E+04  0.15294330000E+03 0.  0.
<mgrwt>
<rscale>  0 0.56613940E+03</rscale>
<asrwt>0</asrwt>
<pdfrwt beam="1">  1        2 0.33257130E+00 0.70469417E+03</pdfrwt>
<pdfrwt beam="2">  1       -2 0.52536790E-01 0.70469417E+03</pdfrwt>
<totfact> 0.19380979E+01</totfact>
</mgrwt>
</event>
<event>
 4    5  0.7289609E-008  0.1052769E+04  0.7818608E-02  0.9315560E-01
         -2   -1    0    0    0  501 -0.00000000000E+00  0.00000000000E+00  0.49083694567E+03  0.49083694568E+03  0.25500000000E-02 0.  1.
          2   -1    0    0  501    0  0.00000000000E+00 -0.00000000000E+00 -0.20145915412E+04  0.20145915412E+04  0.25500000000E-02 0. -1.
    8880023    1    1    2    0    0  0.64762628989E+03  0.50506763380E+03 -0.44985942012E+03  0.11448566854E+04  0.65864270000E+03 0.  0.
    8880022    1    1    2    0    0 -0.64762628989E+03 -0.50506763380E+03 -0.10738951754E+04  0.13605718014E+04  0.15294330000E+03 0.  0.
<mgrwt>
<rscale>  0 0.99362944E+03</rscale>
<asrwt>0</asrwt>
<pdfrwt beam="1">  1        2 0.30993716E+00 0.10527694E+04</pdfrwt>
<pdfrwt beam="2">  1       -2 0.75513377E-01 0.10527694E+04</pdfrwt>
<totfact> 0.10281992E+01</totfact>
</mgrwt>
</event>
<event>
 4    5  0.7289609E-008  0.1150959E+04  0.7818608E-02  0.9206333E-01
         -2   -1    0    0    0  501 -0.00000000000E+00  0.00000000000E+00  0.16661836066E+04  0.16661836066E+04  0.25500000000E-02 0.  1.
          2   -1    0    0  501    0  0.00000000000E+00 -0.00000000000E+00 -0.69842562312E+03  0.69842562312E+03  0.25500000000E-02 0. -1.
    8880023    1    1    2    0    0  0.92767506764E+03 -0.17411436973E+03  0.27362180359E+03  0.11830367461E+04  0.65864270000E+03 0.  0.
    8880022    1    1    2    0    0 -0.92767506764E+03  0.17411436973E+03  0.69413617985E+03  0.11815724836E+04  0.15294330000E+03 0.  0.
<mgrwt>
<rscale>  0 0.10988296E+04</rscale>
<asrwt>0</asrwt>
<pdfrwt beam="1">  1        2 0.10745010E+00 0.11509592E+04</pdfrwt>
<pdfrwt beam="2">  1       -2 0.25633594E+00 0.11509592E+04</pdfrwt>
<totfact> 0.23737448E+00</totfact>
</mgrwt>
</event>
<event>
 4    5  0.7289609E-008  0.8806387E+03  0.7818608E-02  0.9557856E-01
         -2   -1    0    0    0  501 -0.00000000000E+00  0.00000000000E+00  0.11594907146E+04  0.11594907146E+04  0.25500000000E-02 0.  1.
          2   -1    0    0  501    0  0.00000000000E+00 -0.00000000000E+00 -0.17044304879E+04  0.17044304879E+04  0.25500000000E-02 0. -1.
    8880023    1    1    2    0    0  0.28037538530E+03  0.51293653092E+03  0.92346613971E+03  0.12760541364E+04  0.65864270000E+03 0.  1.
    8880022    1    1    2    0    0 -0.28037538530E+03 -0.51293653092E+03 -0.14684059130E+04  0.15878670662E+04  0.15294330000E+03 0.  0.
<mgrwt>
<rscale>  0 0.80149472E+03</rscale>
<asrwt>0</asrwt>
<pdfrwt beam="1">  1        2 0.26222008E+00 0.88063866E+03</pdfrwt>
<pdfrwt beam="2">  1       -2 0.17838319E+00 0.88063866E+03</pdfrwt>
<totfact> 0.18351735E+00</totfact>
</mgrwt>
</event>
<event>
 4    5  0.7289609E-008  0.8073249E+03  0.7818608E-02  0.9695176E-01
         -2   -1    0    0    0  501 -0.00000000000E+00  0.00000000000E+00  0.16225104633E+04  0.16225104633E+04  0.25500000000E-02 0.  1.
          2   -1    0    0  501    0  0.00000000000E+00 -0.00000000000E+00 -0.31626276003E+03  0.31626276004E+03  0.25500000000E-02 0. -1.
    8880023    1    1    2    0    0  0.33835419721E+03 -0.32168269421E+03  0.11830816983E+04  0.14322904139E+04  0.65864270000E+03 0.  1.
    8880022    1    1    2    0    0 -0.33835419721E+03  0.32168269421E+03  0.12316600499E+03  0.50648280951E+03  0.15294330000E+03 0.  0.
<mgrwt>
<rscale>  0 0.71304723E+03</rscale>
<asrwt>0</asrwt>
<pdfrwt beam="1">  1        2 0.48655809E-01 0.80732492E+03</pdfrwt>
<pdfrwt beam="2">  1       -2 0.24961699E+00 0.80732492E+03</pdfrwt>
<totfact> 0.68273685E+00</totfact>
</mgrwt>
</event>
<event>
 4    5  0.7289609E-008  0.8014970E+03  0.7818608E-02  0.9707568E-01
          2   -1    0    0  501    0  0.00000000000E+00  0.00000000000E+00  0.10744245865E+04  0.10744245865E+04  0.25500000000E-02 0. -1.
         -2   -1    0    0    0  501 -0.00000000000E+00 -0.00000000000E+00 -0.89864083509E+03  0.89864083509E+03  0.25500000000E-02 0.  1.
    8880023    1    1    2    0    0  0.18482131289E+02 -0.45633945833E+03 -0.64002748971E+03  0.10256864454E+04  0.65864270000E+03 0.  0.
    8880022    1    1    2    0    0 -0.18482131289E+02  0.45633945833E+03  0.81581124110E+03  0.94737897619E+03  0.15294330000E+03 0.  0.
<mgrwt>
<rscale>  0 0.70567952E+03</rscale>
<asrwt>0</asrwt>
<pdfrwt beam="1">  1        2 0.16529609E+00 0.80149703E+03</pdfrwt>
<pdfrwt beam="2">  1       -2 0.13825244E+00 0.80149703E+03</pdfrwt>
<totfact> 0.84888547E+00</totfact>
</mgrwt>
</event>
<event>
 4    5  0.7289609E-008  0.1027722E+04  0.7818608E-02  0.9346154E-01
          2   -1    0    0  501    0  0.00000000000E+00  0.00000000000E+00  0.15320031339E+04  0.15320031339E+04  0.25500000000E-02 0. -1.
         -2   -1    0    0    0  501 -0.00000000000E+00 -0.00000000000E+00 -0.61710260017E+03  0.61710260017E+03  0.25500000000E-02 0.  1.
    8880023    1    1    2    0    0  0.16577139776E+03 -0.77131262637E+03  0.14807904940E+03  0.10383356563E+04  0.65864270000E+03 0.  0.
    8880022    1    1    2    0    0 -0.16577139776E+03  0.77131262637E+03  0.76682148432E+03  0.11107700778E+04  0.15294330000E+03 0.  0.
<mgrwt>
<rscale>  0 0.96642628E+03</rscale>
<asrwt>0</asrwt>
<pdfrwt beam="1">  1        2 0.23569279E+00 0.10277225E+04</pdfrwt>
<pdfrwt beam="2">  1       -2 0.94938863E-01 0.10277225E+04</pdfrwt>
<totfact> 0.11290902E+01</totfact>
</mgrwt>
</event>
<event>
 4    5  0.7289609E-008  0.9615288E+03  0.7818608E-02  0.9433717E-01
         -2   -1    0    0    0  501 -0.00000000000E+00  0.00000000000E+00  0.90715508971E+03  0.90715508972E+03  0.25500000000E-02 0.  1.
          2   -1    0    0  501    0  0.00000000000E+00 -0.00000000000E+00 -0.23753346084E+04  0.23753346084E+04  0.25500000000E-02 0. -1.
    8880023    1    1    2    0    0 -0.48828406028E+03  0.50230084808E+03  0.57280794096E+03  0.11192169624E+04  0.65864270000E+03 0.  0.
    8880022    1    1    2    0    0  0.48828406028E+03 -0.50230084808E+03 -0.20409874596E+04  0.21632727357E+04  0.15294330000E+03 0.  0.
<mgrwt>
<rscale>  0 0.89352087E+03</rscale>
<asrwt>0</asrwt>
<pdfrwt beam="1">  1        2 0.36543609E+00 0.96152882E+03</pdfrwt>
<pdfrwt beam="2">  1       -2 0.13956232E+00 0.96152882E+03</pdfrwt>
<totfact> 0.15015251E+00</totfact>
</mgrwt>
</event>
<event>
 4    5  0.7289609E-008  0.7910855E+03  0.7818608E-02  0.9730413E-01
          2   -1    0    0  501    0  0.00000000000E+00  0.00000000000E+00  0.14571384610E+04  0.14571384610E+04  0.25500000000E-02 0. -1.
         -2   -1    0    0    0  501 -0.00000000000E+00 -0.00000000000E+00 -0.31176206130E+03  0.31176206131E+03  0.25500000000E-02 0.  1.
    8880023    1    1    2    0    0  0.53429583500E+02  0.43491540483E+03  0.38916324957E+03  0.88162598126E+03  0.65864270000E+03 0.  0.
    8880022    1    1    2    0    0 -0.53429583500E+02 -0.43491540483E+03  0.75621315014E+03  0.88727454106E+03  0.15294330000E+03 0.  0.
<mgrwt>
<rscale>  0 0.69234529E+03</rscale>
<asrwt>0</asrwt>
<pdfrwt beam="1">  1        2 0.22417515E+00 0.79108554E+03</pdfrwt>
<pdfrwt beam="2">  1       -2 0.47963394E-01 0.79108554E+03</pdfrwt>
<totfact> 0.56200087E+01</totfact>
</mgrwt>
</event>
<event>
 4    5  0.7289609E-008  0.7579407E+03  0.7818608E-02  0.9810468E-01
         -2   -1    0    0    0  501 -0.00000000000E+00  0.00000000000E+00  0.35336660672E+03  0.35336660673E+03  0.25500000000E-02 0.  1.
          2   -1    0    0  501    0  0.00000000000E+00 -0.00000000000E+00 -0.27760569540E+04  0.27760569540E+04  0.25500000000E-02 0. -1.
    8880023    1    1    2    0    0  0.36573952234E+03 -0.83056859021E+02 -0.91657101045E+02  0.76346255342E+03  0.65864270000E+03 0.  1.
    8880022    1    1    2    0    0 -0.36573952234E+03  0.83056859021E+02 -0.23310332463E+04  0.23659610073E+04  0.15294330000E+03 0.  0.
<mgrwt>
<rscale>  0 0.64803767E+03</rscale>
<asrwt>0</asrwt>
<pdfrwt beam="1">  1        2 0.42708567E+00 0.75794066E+03</pdfrwt>
<pdfrwt beam="2">  1       -2 0.54364095E-01 0.75794066E+03</pdfrwt>
<totfact> 0.80398587E+00</totfact>
</mgrwt>
</event>
<event>
 4    5  0.8209359E-008  0.1176282E+04  0.7818608E-02  0.9180529E-01
         -2   -1    0    0    0  501 -0.00000000000E+00  0.00000000000E+00  0.16054851898E+04  0.16054851898E+04  0.25500000000E-02 0.  1.
          2   -1    0    0  501    0  0.00000000000E+00 -0.00000000000E+00 -0.23265449666E+04  0.23265449666E+04  0.25500000000E-02 0. -1.
    8880023    1    1    2    0    0  0.33791896342E+03  0.91413397982E+03  0.12570470558E+04  0.17215712781E+04  0.65864270000E+03 0.  0.
    8880022    1    1    2    0    0 -0.33791896342E+03 -0.91413397982E+03 -0.19781068325E+04  0.22104588783E+04  0.15294330000E+03 0.  0.
<mgrwt>
<rscale>  0 0.11256677E+04</rscale>
<asrwt>0</asrwt>
<pdfrwt beam="1">  1        2 0.35793000E+00 0.11762824E+04</pdfrwt>
<pdfrwt beam="2">  1       -2 0.24699772E+00 0.11762824E+04</pdfrwt>
<totfact> 0.28743156E-01</totfact>
</mgrwt>
</event>
<event>
 4    5  0.7289609E-008  0.7580312E+03  0.7818608E-02  0.9810231E-01
         -2   -1    0    0    0  501 -0.00000000000E+00  0.00000000000E+00  0.60963609009E+03  0.60963609010E+03  0.25500000000E-02 0.  1.
          2   -1    0    0  501    0  0.00000000000E+00 -0.00000000000E+00 -0.98157409575E+03  0.98157409575E+03  0.25500000000E-02 0. -1.
    8880023    1    1    2    0    0 -0.36768240627E+03  0.74904640922E+02  0.29287466625E+03  0.81264188515E+03  0.65864270000E+03 0.  0.
    8880022    1    1    2    0    0  0.36768240627E+03 -0.74904640922E+02 -0.66481267190E+03  0.77856830069E+03  0.15294330000E+03 0.  0.
<mgrwt>
<rscale>  0 0.64816345E+03</rscale>
<asrwt>0</asrwt>
<pdfrwt beam="1">  1        2 0.15101140E+00 0.75803118E+03</pdfrwt>
<pdfrwt beam="2">  1       -2 0.93790168E-01 0.75803118E+03</pdfrwt>
<totfact> 0.25241939E+01</totfact>
</mgrwt>
</event>
<event>
 4    5  0.9599982E-008  0.1486613E+04  0.7818608E-02  0.8919147E-01
         -2   -1    0    0    0  501 -0.00000000000E+00  0.00000000000E+00  0.18169683578E+04  0.18169683578E+04  0.25500000000E-02 0.  1.
          2   -1    0    0  501    0  0.00000000000E+00 -0.00000000000E+00 -0.28267706746E+04  0.28267706746E+04  0.25500000000E-02 0. -1.
    8880023    1    1    2    0    0  0.47865409317E+03 -0.12438237656E+04  0.12985492409E+04  0.19738914960E+04  0.65864270000E+03 0.  1.
    8880022    1    1    2    0    0 -0.47865409317E+03  0.12438237656E+04 -0.23083515578E+04  0.26698475365E+04  0.15294330000E+03 0.  0.
<mgrwt>
<rscale>  0 0.14489232E+04</rscale>
<asrwt>0</asrwt>
<pdfrwt beam="1">  1        2 0.43488780E+00 0.14866128E+04</pdfrwt>
<pdfrwt beam="2">  1       -2 0.27953359E+00 0.14866128E+04</pdfrwt>
<totfact> 0.88874175E-02</totfact>
</mgrwt>
</event>
<event>
 4    5  0.7289609E-008  0.1075116E+04  0.7818608E-02  0.9289280E-01
          2   -1    0    0  501    0  0.00000000000E+00  0.00000000000E+00  0.38448211591E+04  0.38448211591E+04  0.25500000000E-02 0. -1.
         -2   -1    0    0    0  501 -0.00000000000E+00 -0.00000000000E+00 -0.85706799185E+03  0.85706799186E+03  0.25500000000E-02 0.  1.
    8880023    1    1    2    0    0 -0.84362783174E+03  0.10176722152E+03  0.35247832727E+04  0.36851013299E+04  0.65864270000E+03 0.  0.
    8880022    1    1    2    0    0  0.84362783174E+03 -0.10176722152E+03 -0.53703010546E+03  0.10167878211E+04  0.15294330000E+03 0.  0.
<mgrwt>
<rscale>  0 0.10177575E+04</rscale>
<asrwt>0</asrwt>
<pdfrwt beam="1">  1        2 0.59151094E+00 0.10751161E+04</pdfrwt>
<pdfrwt beam="2">  1       -2 0.13185662E+00 0.10751161E+04</pdfrwt>
<totfact> 0.19536695E-01</totfact>
</mgrwt>
</event>
<event>
 4    5  0.7289609E-008  0.9637052E+03  0.7818608E-02  0.9430664E-01
          2   -1    0    0  501    0  0.00000000000E+00  0.00000000000E+00  0.40261053796E+04  0.40261053796E+04  0.25500000000E-02 0. -1.
         -2   -1    0    0    0  501 -0.00000000000E+00 -0.00000000000E+00 -0.21507747661E+03  0.21507747662E+03  0.25500000000E-02 0.  1.
    8880023    1    1    2    0    0  0.30053852158E+03  0.63607708271E+03  0.30272248599E+04  0.31769195798E+04  0.65864270000E+03 0. -1.
    8880022    1    1    2    0    0 -0.30053852158E+03 -0.63607708271E+03  0.78380304314E+03  0.10642632764E+04  0.15294330000E+03 0.  0.
<mgrwt>
<rscale>  0 0.89594582E+03</rscale>
<asrwt>0</asrwt>
<pdfrwt beam="1">  1        2 0.61940078E+00 0.96370518E+03</pdfrwt>
<pdfrwt beam="2">  1       -2 0.33088845E-01 0.96370518E+03</pdfrwt>
<totfact> 0.29498103E+00</totfact>
</mgrwt>
</event>
<event>
 4    5  0.7289609E-008  0.9434321E+03  0.7818608E-02  0.9459627E-01
          2   -1    0    0  501    0  0.00000000000E+00  0.00000000000E+00  0.14230429041E+04  0.14230429041E+04  0.25500000000E-02 0. -1.
         -2   -1    0    0    0  501 -0.00000000000E+00 -0.00000000000E+00 -0.55789362137E+03  0.55789362138E+03  0.25500000000E-02 0.  1.
    8880023    1    1    2    0    0 -0.38755150973E+03  0.55322494442E+03  0.99712353451E+02  0.94868686694E+03  0.65864270000E+03 0.  0.
    8880022    1    1    2    0    0  0.38755150973E+03 -0.55322494442E+03  0.76543692925E+03  0.10322496585E+04  0.15294330000E+03 0.  0.
<mgrwt>
<rscale>  0 0.87326905E+03</rscale>
<asrwt>0</asrwt>
<pdfrwt beam="1">  1        2 0.21892968E+00 0.94343215E+03</pdfrwt>
<pdfrwt beam="2">  1       -2 0.85829788E-01 0.94343215E+03</pdfrwt>
<totfact> 0.16568285E+01</totfact>
</mgrwt>
</event>
<event>
 4    5  0.7289609E-008  0.1076869E+04  0.7818608E-02  0.9287257E-01
         -2   -1    0    0    0  501 -0.00000000000E+00  0.00000000000E+00  0.14810874475E+04  0.14810874475E+04  0.25500000000E-02 0.  1.
          2   -1    0    0  501    0  0.00000000000E+00 -0.00000000000E+00 -0.99602491006E+03  0.99602491007E+03  0.25500000000E-02 0. -1.
    8880023    1    1    2    0    0 -0.85193040482E+03 -0.72053113099E+01  0.10003098700E+04  0.14697848051E+04  0.65864270000E+03 0.  1.
    8880022    1    1    2    0    0  0.85193040482E+03  0.72053113099E+01 -0.51524733255E+03  0.10073275524E+04  0.15294330000E+03 0.  0.
<mgrwt>
<rscale>  0 0.10196452E+04</rscale>
<asrwt>0</asrwt>
<pdfrwt beam="1">  1        2 0.15323460E+00 0.10768693E+04</pdfrwt>
<pdfrwt beam="2">  1       -2 0.22785961E+00 0.10768693E+04</pdfrwt>
<totfact> 0.22022773E+00</totfact>
</mgrwt>
</event>
<event>
 4    5  0.7289609E-008  0.7744966E+03  0.7818608E-02  0.9768927E-01
         -2   -1    0    0    0  501 -0.00000000000E+00  0.00000000000E+00  0.41821700961E+03  0.41821700961E+03  0.25500000000E-02 0.  1.
          2   -1    0    0  501    0  0.00000000000E+00 -0.00000000000E+00 -0.24544277224E+04  0.24544277224E+04  0.25500000000E-02 0. -1.
    8880023    1    1    2    0    0  0.20842099183E+03 -0.35013630038E+03  0.16128131701E+02  0.77466448323E+03  0.65864270000E+03 0.  1.
    8880022    1    1    2    0    0 -0.20842099183E+03  0.35013630038E+03 -0.20523388445E+04  0.20979802488E+04  0.15294330000E+03 0.  0.
<mgrwt>
<rscale>  0 0.67057088E+03</rscale>
<asrwt>0</asrwt>
<pdfrwt beam="1">  1        2 0.37760426E+00 0.77449658E+03</pdfrwt>
<pdfrwt beam="2">  1       -2 0.64341080E-01 0.77449658E+03</pdfrwt>
<totfact> 0.86126866E+00</totfact>
</mgrwt>
</event>
<event>
 4    5  0.7289609E-008  0.8651526E+03  0.7818608E-02  0.9584463E-01
          2   -1    0    0  501    0  0.00000000000E+00  0.00000000000E+00  0.18851032401E+04  0.18851032401E+04  0.25500000000E-02 0. -1.
         -2   -1    0    0    0  501 -0.00000000000E+00 -0.00000000000E+00 -0.65037312690E+03  0.65037312691E+03  0.25500000000E-02 0.  1.
    8880023    1    1    2    0    0 -0.55413156706E+03 -0.87275882917E+02 -0.28293683049E+03  0.91024300583E+03  0.65864270000E+03 0.  1.
    8880022    1    1    2    0    0  0.55413156706E+03  0.87275882917E+02  0.15176669437E+04  0.16252333612E+04  0.15294330000E+03 0.  0.
<mgrwt>
<rscale>  0 0.78333127E+03</rscale>
<asrwt>0</asrwt>
<pdfrwt beam="1">  1        2 0.29001588E+00 0.86515263E+03</pdfrwt>
<pdfrwt beam="2">  1       -2 0.10005740E+00 0.86515263E+03</pdfrwt>
<totfact> 0.64860192E+00</totfact>
</mgrwt>
</event>
<event>
 4    5  0.7289609E-008  0.1483443E+04  0.7818608E-02  0.8921416E-01
         -2   -1    0    0    0  501 -0.00000000000E+00  0.00000000000E+00  0.17761401683E+04  0.17761401683E+04  0.25500000000E-02 0.  1.
          2   -1    0    0  501    0  0.00000000000E+00 -0.00000000000E+00 -0.21648699682E+04  0.21648699682E+04  0.25500000000E-02 0. -1.
    8880023    1    1    2    0    0 -0.97672751566E+03 -0.90155266040E+03  0.11681677854E+04  0.18881790223E+04  0.65864270000E+03 0.  0.
    8880022    1    1    2    0    0  0.97672751566E+03  0.90155266040E+03 -0.15568975853E+04  0.20528311142E+04  0.15294330000E+03 0.  0.
<mgrwt>
<rscale>  0 0.14456577E+04</rscale>
<asrwt>0</asrwt>
<pdfrwt beam="1">  1        2 0.33305692E+00 0.14834433E+04</pdfrwt>
<pdfrwt beam="2">  1       -2 0.27325233E+00 0.14834433E+04</pdfrwt>
<totfact> 0.23499909E-01</totfact>
</mgrwt>
</event>
<event>
 4    5  0.7289609E-008  0.1199304E+04  0.7818608E-02  0.9157799E-01
          2   -1    0    0  501    0  0.00000000000E+00  0.00000000000E+00  0.10803347781E+04  0.10803347781E+04  0.25500000000E-02 0. -1.
         -2   -1    0    0    0  501 -0.00000000000E+00 -0.00000000000E+00 -0.16145327957E+04  0.16145327957E+04  0.25500000000E-02 0.  1.
    8880023    1    1    2    0    0  0.88916445040E+03 -0.46250004630E+03 -0.10165026302E+04  0.15721347004E+04  0.65864270000E+03 0.  0.
    8880022    1    1    2    0    0 -0.88916445040E+03  0.46250004630E+03  0.48230461258E+03  0.11227328734E+04  0.15294330000E+03 0.  0.
<mgrwt>
<rscale>  0 0.11499829E+04</rscale>
<asrwt>0</asrwt>
<pdfrwt beam="1">  1        2 0.16620535E+00 0.11993039E+04</pdfrwt>
<pdfrwt beam="2">  1       -2 0.24838966E+00 0.11993039E+04</pdfrwt>
<totfact> 0.14341023E+00</totfact>
</mgrwt>
</event>
<event>
 4    5  0.7289609E-008  0.6768513E+03  0.7818608E-02  0.1011164E+00
          2   -1    0    0  501    0  0.00000000000E+00  0.00000000000E+00  0.16834695861E+04  0.16834695861E+04  0.25500000000E-02 0. -1.
         -2   -1    0    0    0  501 -0.00000000000E+00 -0.00000000000E+00 -0.16279798318E+03  0.16279798320E+03  0.25500000000E-02 0.  1.
    8880023    1    1    2    0    0  0.15492388181E+03  0.17778965345E+02  0.61464670732E+03  0.91428566753E+03  0.65864270000E+03 0.  1.
    8880022    1    1    2    0    0 -0.15492388181E+03 -0.17778965345E+02  0.90602489556E+03  0.93198190173E+03  0.15294330000E+03 0.  1.
<mgrwt>
<rscale>  0 0.51014681E+03</rscale>
<asrwt>0</asrwt>
<pdfrwt beam="1">  1        2 0.25899533E+00 0.67685132E+03</pdfrwt>
<pdfrwt beam="2">  1       -2 0.25045843E-01 0.67685132E+03</pdfrwt>
<totfact> 0.14679679E+02</totfact>
</mgrwt>
</event>
<event>
 4    5  0.7289609E-008  0.1343188E+04  0.7818608E-02  0.9029134E-01
         -2   -1    0    0    0  501 -0.00000000000E+00  0.00000000000E+00  0.10053010216E+04  0.10053010216E+04  0.25500000000E-02 0.  1.
          2   -1    0    0  501    0  0.00000000000E+00 -0.00000000000E+00 -0.16497232166E+04  0.16497232166E+04  0.25500000000E-02 0. -1.
    8880023    1    1    2    0    0  0.43014172440E+03  0.10887246906E+04 -0.60671215093E+03  0.14738565721E+04  0.65864270000E+03 0.  0.
    8880022    1    1    2    0    0 -0.43014172440E+03 -0.10887246906E+04 -0.37710044059E+02  0.11811676661E+04  0.15294330000E+03 0.  0.
<mgrwt>
<rscale>  0 0.13005441E+04</rscale>
<asrwt>0</asrwt>
<pdfrwt beam="1">  1        2 0.25380357E+00 0.13431878E+04</pdfrwt>
<pdfrwt beam="2">  1       -2 0.15466170E+00 0.13431878E+04</pdfrwt>
<totfact> 0.27684863E+00</totfact>
</mgrwt>
</event>
<event>
 4    5  0.7289609E-008  0.8011236E+03  0.7818608E-02  0.9708372E-01
          2   -1    0    0  501    0  0.00000000000E+00  0.00000000000E+00  0.23715731453E+04  0.23715731453E+04  0.25500000000E-02 0. -1.
         -2   -1    0    0    0  501 -0.00000000000E+00 -0.00000000000E+00 -0.39972808118E+03  0.39972808119E+03  0.25500000000E-02 0.  1.
    8880023    1    1    2    0    0  0.42378339269E+03  0.16851236110E+03  0.63915456715E+02  0.80366919291E+03  0.65864270000E+03 0.  1.
    8880022    1    1    2    0    0 -0.42378339269E+03 -0.16851236110E+03  0.19079296074E+04  0.19676320336E+04  0.15294330000E+03 0.  0.
<mgrwt>
<rscale>  0 0.70520513E+03</rscale>
<asrwt>0</asrwt>
<pdfrwt beam="1">  1        2 0.36485741E+00 0.80112358E+03</pdfrwt>
<pdfrwt beam="2">  1       -2 0.61496628E-01 0.80112358E+03</pdfrwt>
<totfact> 0.10515875E+01</totfact>
</mgrwt>
</event>
<event>
 4    5  0.7289609E-008  0.7542634E+03  0.7818608E-02  0.9820192E-01
         -2   -1    0    0    0  501 -0.00000000000E+00  0.00000000000E+00  0.11046673610E+03  0.11046673613E+03  0.25500000000E-02 0.  1.
          2   -1    0    0  501    0  0.00000000000E+00 -0.00000000000E+00 -0.44087974234E+04  0.44087974234E+04  0.25500000000E-02 0. -1.
    8880023    1    1    2    0    0  0.35590618231E+03 -0.91836181516E+02 -0.13692564813E+04  0.15632583320E+04  0.65864270000E+03 0.  1.
    8880022    1    1    2    0    0 -0.35590618231E+03  0.91836181516E+02 -0.29290742061E+04  0.29560058276E+04  0.15294330000E+03 0.  0.
<mgrwt>
<rscale>  0 0.64290106E+03</rscale>
<asrwt>0</asrwt>
<pdfrwt beam="1">  1        2 0.67827639E+00 0.75426342E+03</pdfrwt>
<pdfrwt beam="2">  1       -2 0.16994886E-01 0.75426342E+03</pdfrwt>
<totfact> 0.47958714E+00</totfact>
</mgrwt>
</event>
<event>
 4    5  0.2163793E-007  0.1057707E+04  0.7818608E-02  0.9309673E-01
          2   -1    0    0  501    0  0.00000000000E+00  0.00000000000E+00  0.26454735608E+04  0.26454735608E+04  0.25500000000E-02 0. -1.
         -2   -1    0    0    0  501 -0.00000000000E+00 -0.00000000000E+00 -0.23560343855E+04  0.23560343855E+04  0.25500000000E-02 0.  1.
    8880023    1    1    2    0    0 -0.82027309312E+03  0.10994006817E+03 -0.21634953231E+04  0.24082061758E+04  0.65864270000E+03 0.  0.
    8880022    1    1    2    0    0  0.82027309312E+03 -0.10994006817E+03  0.24529344984E+04  0.25933017704E+04  0.15294330000E+03 0.  0.
<mgrwt>
<rscale>  0 0.99897206E+03</rscale>
<asrwt>0</asrwt>
<pdfrwt beam="1">  1        2 0.40699594E+00 0.10577074E+04</pdfrwt>
<pdfrwt beam="2">  1       -2 0.36246682E+00 0.10577074E+04</pdfrwt>
<totfact> 0.37758831E-02</totfact>
</mgrwt>
</event>
<event>
 4    5  0.7289609E-008  0.7263710E+03  0.7818608E-02  0.9901590E-01
          2   -1    0    0  501    0  0.00000000000E+00  0.00000000000E+00  0.10467028428E+04  0.10467028428E+04  0.25500000000E-02 0. -1.
         -2   -1    0    0    0  501 -0.00000000000E+00 -0.00000000000E+00 -0.29425707028E+03  0.29425707030E+03  0.25500000000E-02 0.  1.
    8880023    1    1    2    0    0  0.12390682513E+03  0.28009247410E+03  0.67144529070E+03  0.98916817581E+03  0.65864270000E+03 0.  1.
    8880022    1    1    2    0    0 -0.12390682513E+03 -0.28009247410E+03  0.81000481821E+02  0.35179173730E+03  0.15294330000E+03 0.  0.
<mgrwt>
<rscale>  0 0.60184292E+03</rscale>
<asrwt>0</asrwt>
<pdfrwt beam="1">  1        2 0.16103121E+00 0.72637105E+03</pdfrwt>
<pdfrwt beam="2">  1       -2 0.45270318E-01 0.72637105E+03</pdfrwt>
<totfact> 0.11049417E+02</totfact>
</mgrwt>
</event>
<event>
 4    5  0.7289609E-008  0.1653379E+04  0.7818608E-02  0.8808296E-01
         -2   -1    0    0    0  501 -0.00000000000E+00  0.00000000000E+00  0.18283808324E+04  0.18283808324E+04  0.25500000000E-02 0.  1.
          2   -1    0    0  501    0  0.00000000000E+00 -0.00000000000E+00 -0.21826273282E+04  0.21826273282E+04  0.25500000000E-02 0. -1.
    8880023    1    1    2    0    0 -0.16105265769E+03 -0.15079501392E+04  0.10333846578E+04  0.19497552765E+04  0.65864270000E+03 0.  1.
    8880022    1    1    2    0    0  0.16105265769E+03  0.15079501392E+04 -0.13876311536E+04  0.20612528842E+04  0.15294330000E+03 0.  0.
<mgrwt>
<rscale>  0 0.16200974E+04</rscale>
<asrwt>0</asrwt>
<pdfrwt beam="1">  1        2 0.33578882E+00 0.16533789E+04</pdfrwt>
<pdfrwt beam="2">  1       -2 0.28128936E+00 0.16533789E+04</pdfrwt>
<totfact> 0.20118633E-01</totfact>
</mgrwt>
</event>
<event>
 4    5  0.7289609E-008  0.8512008E+03  0.7818608E-02  0.9609411E-01
         -2   -1    0    0    0  501 -0.00000000000E+00  0.00000000000E+00  0.35662511640E+03  0.35662511641E+03  0.25500000000E-02 0.  1.
          2   -1    0    0  501    0  0.00000000000E+00 -0.00000000000E+00 -0.22709814299E+04  0.22709814299E+04  0.25500000000E-02 0. -1.
    8880023    1    1    2    0    0  0.86420845057E+02 -0.53222557977E+03 -0.18827757698E+04  0.20662496064E+04  0.65864270000E+03 0.  0.
    8880022    1    1    2    0    0 -0.86420845057E+02  0.53222557977E+03 -0.31580543648E+02  0.56135693990E+03  0.15294330000E+03 0.  0.
<mgrwt>
<rscale>  0 0.76676400E+03</rscale>
<asrwt>0</asrwt>
<pdfrwt beam="1">  1        2 0.34938175E+00 0.85120082E+03</pdfrwt>
<pdfrwt beam="2">  1       -2 0.54865404E-01 0.85120082E+03</pdfrwt>
<totfact> 0.15101488E+01</totfact>
</mgrwt>
</event>
<event>
 4    5  0.7289609E-008  0.6838589E+03  0.7818608E-02  0.1007220E+00
          2   -1    0    0  501    0  0.00000000000E+00  0.00000000000E+00  0.25471475089E+04  0.25471475089E+04  0.25500000000E-02 0. -1.
         -2   -1    0    0    0  501 -0.00000000000E+00 -0.00000000000E+00 -0.94494155961E+02  0.94494155995E+02  0.25500000000E-02 0.  1.
    8880023    1    1    2    0    0  0.89411540495E+02 -0.16080550469E+03  0.13499907640E+04  0.15133202249E+04  0.65864270000E+03 0.  0.
    8880022    1    1    2    0    0 -0.89411540495E+02  0.16080550469E+03  0.11026625890E+04  0.11283214401E+04  0.15294330000E+03 0.  0.
<mgrwt>
<rscale>  0 0.52594654E+03</rscale>
<asrwt>0</asrwt>
<pdfrwt beam="1">  1        2 0.39186884E+00 0.68385893E+03</pdfrwt>
<pdfrwt beam="2">  1       -2 0.14537563E-01 0.68385893E+03</pdfrwt>
<totfact> 0.12646243E+02</totfact>
</mgrwt>
</event>
<event>
 4    5  0.7289609E-008  0.8029156E+03  0.7818608E-02  0.9704527E-01
          2   -1    0    0  501    0  0.00000000000E+00  0.00000000000E+00  0.17935927105E+04  0.17935927105E+04  0.25500000000E-02 0. -1.
         -2   -1    0    0    0  501 -0.00000000000E+00 -0.00000000000E+00 -0.12141845680E+04  0.12141845680E+04  0.25500000000E-02 0.  1.
    8880023    1    1    2    0    0  0.33424343740E+03 -0.31487222355E+03 -0.10421207792E+04  0.13155565808E+04  0.65864270000E+03 0.  1.
    8880022    1    1    2    0    0 -0.33424343740E+03  0.31487222355E+03  0.16215289218E+04  0.16922206977E+04  0.15294330000E+03 0.  0.
<mgrwt>
<rscale>  0 0.70747888E+03</rscale>
<asrwt>0</asrwt>
<pdfrwt beam="1">  1        2 0.27593734E+00 0.80291556E+03</pdfrwt>
<pdfrwt beam="2">  1       -2 0.18679763E+00 0.80291556E+03</pdfrwt>
<totfact> 0.14552360E+00</totfact>
</mgrwt>
</event>
<event>
 4    5  0.7289609E-008  0.1434264E+04  0.7818608E-02  0.8957506E-01
          2   -1    0    0  501    0  0.00000000000E+00  0.00000000000E+00  0.22021713514E+04  0.22021713514E+04  0.25500000000E-02 0. -1.
         -2   -1    0    0    0  501 -0.00000000000E+00 -0.00000000000E+00 -0.19067820355E+04  0.19067820355E+04  0.25500000000E-02 0.  1.
    8880023    1    1    2    0    0 -0.62926752118E+03 -0.11078472363E+04 -0.13855341180E+04  0.19941961063E+04  0.65864270000E+03 0.  0.
    8880022    1    1    2    0    0  0.62926752118E+03  0.11078472363E+04  0.16809234339E+04  0.21147572806E+04  0.15294330000E+03 0.  0.
<mgrwt>
<rscale>  0 0.13949173E+04</rscale>
<asrwt>0</asrwt>
<pdfrwt beam="1">  1        2 0.33879559E+00 0.14342640E+04</pdfrwt>
<pdfrwt beam="2">  1       -2 0.29335108E+00 0.14342640E+04</pdfrwt>
<totfact> 0.16994599E-01</totfact>
</mgrwt>
</event>
<event>
 4    5  0.7289609E-008  0.8654926E+03  0.7818608E-02  0.9583867E-01
          2   -1    0    0  501    0  0.00000000000E+00  0.00000000000E+00  0.49063054343E+03  0.49063054344E+03  0.25500000000E-02 0. -1.
         -2   -1    0    0    0  501 -0.00000000000E+00 -0.00000000000E+00 -0.19100645897E+04  0.19100645897E+04  0.25500000000E-02 0.  1.
    8880023    1    1    2    0    0 -0.23098866201E+03  0.51177286220E+03 -0.15760387532E+04  0.17980477141E+04  0.65864270000E+03 0.  1.
    8880022    1    1    2    0    0  0.23098866201E+03 -0.51177286220E+03  0.15660470688E+03  0.60264741905E+03  0.15294330000E+03 0.  0.
<mgrwt>
<rscale>  0 0.78373244E+03</rscale>
<asrwt>0</asrwt>
<pdfrwt beam="1">  1        2 0.75481623E-01 0.86549259E+03</pdfrwt>
<pdfrwt beam="2">  1       -2 0.29385609E+00 0.86549259E+03</pdfrwt>
<totfact> 0.22316211E+00</totfact>
</mgrwt>
</event>
<event>
 4    5  0.7289609E-008  0.6948360E+03  0.7818608E-02  0.1001934E+00
         -2   -1    0    0    0  501 -0.00000000000E+00  0.00000000000E+00  0.68176282981E+03  0.68176282981E+03  0.25500000000E-02 0.  1.
          2   -1    0    0  501    0  0.00000000000E+00 -0.00000000000E+00 -0.57198574917E+03  0.57198574918E+03  0.25500000000E-02 0. -1.
    8880023    1    1    2    0    0  0.28020230625E+02 -0.21954884441E+03  0.44409001463E+03  0.82462899280E+03  0.65864270000E+03 0.  0.
    8880022    1    1    2    0    0 -0.28020230625E+02  0.21954884441E+03 -0.33431293399E+03  0.42911958619E+03  0.15294330000E+03 0.  0.
<mgrwt>
<rscale>  0 0.54810392E+03</rscale>
<asrwt>0</asrwt>
<pdfrwt beam="1">  1        2 0.87997808E-01 0.69483598E+03</pdfrwt>
<pdfrwt beam="2">  1       -2 0.10488659E+00 0.69483598E+03</pdfrwt>
<totfact> 0.39366348E+01</totfact>
</mgrwt>
</event>
<event>
 4    5  0.7289609E-008  0.9113863E+03  0.7818608E-02  0.9507995E-01
         -2   -1    0    0    0  501 -0.00000000000E+00  0.00000000000E+00  0.14113778020E+04  0.14113778020E+04  0.25500000000E-02 0.  1.
          2   -1    0    0  501    0  0.00000000000E+00 -0.00000000000E+00 -0.12926402187E+04  0.12926402187E+04  0.25500000000E-02 0. -1.
    8880023    1    1    2    0    0  0.34081121308E+03  0.52977591444E+03  0.11613823561E+04  0.14762906170E+04  0.65864270000E+03 0.  0.
    8880022    1    1    2    0    0 -0.34081121308E+03 -0.52977591444E+03 -0.10426447728E+04  0.12277274037E+04  0.15294330000E+03 0.  0.
<mgrwt>
<rscale>  0 0.83696966E+03</rscale>
<asrwt>0</asrwt>
<pdfrwt beam="1">  1        2 0.19886773E+00 0.91138631E+03</pdfrwt>
<pdfrwt beam="2">  1       -2 0.21713505E+00 0.91138631E+03</pdfrwt>
<totfact> 0.17306565E+00</totfact>
</mgrwt>
</event>
<event>
 4    5  0.7289609E-008  0.7282581E+03  0.7818608E-02  0.9895574E-01
         -2   -1    0    0    0  501 -0.00000000000E+00  0.00000000000E+00  0.47828132480E+03  0.47828132481E+03  0.25500000000E-02 0.  1.
          2   -1    0    0  501    0  0.00000000000E+00 -0.00000000000E+00 -0.75613032526E+03  0.75613032527E+03  0.25500000000E-02 0. -1.
    8880023    1    1    2    0    0  0.21801888948E+03 -0.22139890394E+03  0.84536969826E+02  0.73314829084E+03  0.65864270000E+03 0.  1.
    8880022    1    1    2    0    0 -0.21801888948E+03  0.22139890394E+03 -0.36238597028E+03  0.50126335923E+03  0.15294330000E+03 0. -1.
<mgrwt>
<rscale>  0 0.60476289E+03</rscale>
<asrwt>0</asrwt>
<pdfrwt beam="1">  1        2 0.11632774E+00 0.72825814E+03</pdfrwt>
<pdfrwt beam="2">  1       -2 0.73581743E-01 0.72825814E+03</pdfrwt>
<totfact> 0.62715201E+01</totfact>
</mgrwt>
</event>
<event>
 4    5  0.7289609E-008  0.7569636E+03  0.7818608E-02  0.9813033E-01
          2   -1    0    0  501    0  0.00000000000E+00  0.00000000000E+00  0.77565397867E+03  0.77565397868E+03  0.25500000000E-02 0. -1.
         -2   -1    0    0    0  501 -0.00000000000E+00 -0.00000000000E+00 -0.64768903761E+03  0.64768903762E+03  0.25500000000E-02 0.  1.
    8880023    1    1    2    0    0 -0.30926846934E+03 -0.20865454414E+03 -0.31895640041E+03  0.82141773572E+03  0.65864270000E+03 0.  1.
    8880022    1    1    2    0    0  0.30926846934E+03  0.20865454414E+03  0.44692134147E+03  0.60192528058E+03  0.15294330000E+03 0.  0.
<mgrwt>
<rscale>  0 0.64667801E+03</rscale>
<asrwt>0</asrwt>
<pdfrwt beam="1">  1        2 0.11933138E+00 0.75696361E+03</pdfrwt>
<pdfrwt beam="2">  1       -2 0.99644467E-01 0.75696361E+03</pdfrwt>
<totfact> 0.30291976E+01</totfact>
</mgrwt>
</event>
<event>
 4    5  0.7289609E-008  0.7808513E+03  0.7818608E-02  0.9753841E-01
          2   -1    0    0  501    0  0.00000000000E+00  0.00000000000E+00  0.23775618190E+04  0.23775618190E+04  0.25500000000E-02 0. -1.
         -2   -1    0    0    0  501 -0.00000000000E+00 -0.00000000000E+00 -0.93226075854E+03  0.93226075855E+03  0.25500000000E-02 0.  1.
    8880023    1    1    2    0    0  0.30258688288E+03 -0.29044737345E+03 -0.74215389627E+03  0.10772748537E+04  0.65864270000E+03 0.  1.
    8880022    1    1    2    0    0 -0.30258688288E+03  0.29044737345E+03  0.21874549567E+04  0.22325477238E+04  0.15294330000E+03 0.  0.
<mgrwt>
<rscale>  0 0.67899632E+03</rscale>
<asrwt>0</asrwt>
<pdfrwt beam="1">  1        2 0.36577874E+00 0.78085127E+03</pdfrwt>
<pdfrwt beam="2">  1       -2 0.14342473E+00 0.78085127E+03</pdfrwt>
<totfact> 0.14385013E+00</totfact>
</mgrwt>
</event>
<event>
 4    5  0.7289609E-008  0.1290796E+04  0.7818608E-02  0.9073549E-01
          2   -1    0    0  501    0  0.00000000000E+00  0.00000000000E+00  0.13525285920E+04  0.13525285920E+04  0.25500000000E-02 0. -1.
         -2   -1    0    0    0  501 -0.00000000000E+00 -0.00000000000E+00 -0.18867836357E+04  0.18867836357E+04  0.25500000000E-02 0.  1.
    8880023    1    1    2    0    0  0.31369186029E+02  0.11096670812E+04 -0.13388719247E+04  0.18597669999E+04  0.65864270000E+03 0.  0.
    8880022    1    1    2    0    0 -0.31369186029E+02 -0.11096670812E+04  0.80461688106E+03  0.13795452277E+04  0.15294330000E+03 0.  0.
<mgrwt>
<rscale>  0 0.12459644E+04</rscale>
<asrwt>0</asrwt>
<pdfrwt beam="1">  1        2 0.20808132E+00 0.12907964E+04</pdfrwt>
<pdfrwt beam="2">  1       -2 0.29027440E+00 0.12907964E+04</pdfrwt>
<totfact> 0.54153782E-01</totfact>
</mgrwt>
</event>
<event>
 4    5  0.7289609E-008  0.8751036E+03  0.7818608E-02  0.9567242E-01
          2   -1    0    0  501    0  0.00000000000E+00  0.00000000000E+00  0.17385352482E+04  0.17385352483E+04  0.25500000000E-02 0. -1.
         -2   -1    0    0    0  501 -0.00000000000E+00 -0.00000000000E+00 -0.14102792567E+04  0.14102792567E+04  0.25500000000E-02 0.  1.
    8880023    1    1    2    0    0 -0.55081449821E+03 -0.16911399160E+03 -0.12133238850E+04  0.14959816876E+04  0.65864270000E+03 0.  1.
    8880022    1    1    2    0    0  0.55081449821E+03  0.16911399160E+03  0.15415798765E+04  0.16528328174E+04  0.15294330000E+03 0.  0.
<mgrwt>
<rscale>  0 0.79502801E+03</rscale>
<asrwt>0</asrwt>
<pdfrwt beam="1">  1        2 0.26746696E+00 0.87510363E+03</pdfrwt>
<pdfrwt beam="2">  1       -2 0.21696604E+00 0.87510363E+03</pdfrwt>
<totfact> 0.98053502E-01</totfact>
</mgrwt>
</event>
<event>
 4    5  0.7289609E-008  0.9393677E+03  0.7818608E-02  0.9465580E-01
         -2   -1    0    0    0  501 -0.00000000000E+00  0.00000000000E+00  0.56261878551E+03  0.56261878552E+03  0.25500000000E-02 0.  1.
          2   -1    0    0  501    0  0.00000000000E+00 -0.00000000000E+00 -0.14425037505E+04  0.14425037505E+04  0.25500000000E-02 0. -1.
    8880023    1    1    2    0    0 -0.25853169416E+03  0.61786961345E+03 -0.68374459250E+02  0.94185283832E+03  0.65864270000E+03 0.  1.
    8880022    1    1    2    0    0  0.25853169416E+03 -0.61786961345E+03 -0.81151050570E+03  0.10632696977E+04  0.15294330000E+03 0.  0.
<mgrwt>
<rscale>  0 0.86869772E+03</rscale>
<asrwt>0</asrwt>
<pdfrwt beam="1">  1        2 0.22192365E+00 0.93936771E+03</pdfrwt>
<pdfrwt beam="2">  1       -2 0.86556737E-01 0.93936771E+03</pdfrwt>
<totfact> 0.15849970E+01</totfact>
</mgrwt>
</event>
<event>
 4    5  0.7755486E-008  0.1021407E+04  0.7818608E-02  0.9354071E-01
          2   -1    0    0  501    0  0.00000000000E+00  0.00000000000E+00  0.26158959801E+04  0.26158959801E+04  0.25500000000E-02 0. -1.
         -2   -1    0    0    0  501 -0.00000000000E+00 -0.00000000000E+00 -0.12214354768E+04  0.12214354768E+04  0.25500000000E-02 0.  1.
    8880023    1    1    2    0    0  0.72786627371E+03 -0.28226435998E+03 -0.92947132799E+03  0.13810103682E+04  0.65864270000E+03 0.  0.
    8880022    1    1    2    0    0 -0.72786627371E+03  0.28226435998E+03  0.23239318313E+04  0.24563210887E+04  0.15294330000E+03 0.  0.
<mgrwt>
<rscale>  0 0.95953792E+03</rscale>
<asrwt>0</asrwt>
<pdfrwt beam="1">  1        2 0.40244553E+00 0.10214072E+04</pdfrwt>
<pdfrwt beam="2">  1       -2 0.18791315E+00 0.10214072E+04</pdfrwt>
<totfact> 0.47907726E-01</totfact>
</mgrwt>
</event>
<event>
 4    5  0.7289609E-008  0.1380396E+04  0.7818608E-02  0.8999068E-01
          2   -1    0    0  501    0  0.00000000000E+00  0.00000000000E+00  0.15471346910E+04  0.15471346910E+04  0.25500000000E-02 0. -1.
         -2   -1    0    0    0  501 -0.00000000000E+00 -0.00000000000E+00 -0.17907628757E+04  0.17907628757E+04  0.25500000000E-02 0.  1.
    8880023    1    1    2    0    0  0.11740063062E+04 -0.30559910500E+03 -0.11654698307E+04  0.18066022674E+04  0.65864270000E+03 0.  0.
    8880022    1    1    2    0    0 -0.11740063062E+04  0.30559910500E+03  0.92184164606E+03  0.15312952992E+04  0.15294330000E+03 0.  0.
<mgrwt>
<rscale>  0 0.13391693E+04</rscale>
<asrwt>0</asrwt>
<pdfrwt beam="1">  1        2 0.23802072E+00 0.13803955E+04</pdfrwt>
<pdfrwt beam="2">  1       -2 0.27550198E+00 0.13803955E+04</pdfrwt>
<totfact> 0.51011644E-01</totfact>
</mgrwt>
</event>
<event>
 4    5  0.7289609E-008  0.7545610E+03  0.7818608E-02  0.9819397E-01
         -2   -1    0    0    0  501 -0.00000000000E+00  0.00000000000E+00  0.67815026646E+03  0.67815026646E+03  0.25500000000E-02 0.  1.
          2   -1    0    0  501    0  0.00000000000E+00 -0.00000000000E+00 -0.95973461445E+03  0.95973461445E+03  0.25500000000E-02 0. -1.
    8880023    1    1    2    0    0 -0.31597584387E+03 -0.18897464200E+03  0.39566314175E+03  0.85200450541E+03  0.65864270000E+03 0.  1.
    8880022    1    1    2    0    0  0.31597584387E+03  0.18897464200E+03 -0.67724748974E+03  0.78588037551E+03  0.15294330000E+03 0.  0.
<mgrwt>
<rscale>  0 0.64331878E+03</rscale>
<asrwt>0</asrwt>
<pdfrwt beam="1">  1        2 0.14765148E+00 0.75456103E+03</pdfrwt>
<pdfrwt beam="2">  1       -2 0.10433081E+00 0.75456103E+03</pdfrwt>
<totfact> 0.20280997E+01</totfact>
</mgrwt>
</event>
<event>
 4    5  0.7289609E-008  0.9659003E+03  0.7818608E-02  0.9427597E-01
          2   -1    0    0  501    0  0.00000000000E+00  0.00000000000E+00  0.42019003296E+04  0.42019003296E+04  0.25500000000E-02 0. -1.
         -2   -1    0    0    0  501 -0.00000000000E+00 -0.00000000000E+00 -0.23149532444E+03  0.23149532445E+03  0.25500000000E-02 0.  1.
    8880023    1    1    2    0    0 -0.66155644305E+03 -0.24798446234E+03  0.10578859121E+04  0.14325103945E+04  0.65864270000E+03 0.  1.
    8880022    1    1    2    0    0  0.66155644305E+03  0.24798446234E+03  0.29125190931E+04  0.30008852596E+04  0.15294330000E+03 0.  0.
<mgrwt>
<rscale>  0 0.89838953E+03</rscale>
<asrwt>0</asrwt>
<pdfrwt beam="1">  1        2 0.64644616E+00 0.96590032E+03</pdfrwt>
<pdfrwt beam="2">  1       -2 0.35614668E-01 0.96590032E+03</pdfrwt>
<totfact> 0.18352723E+00</totfact>
</mgrwt>
</event>
<event>
 4    5  0.7289609E-008  0.7298162E+03  0.7818608E-02  0.9890671E-01
          2   -1    0    0  501    0  0.00000000000E+00  0.00000000000E+00  0.73395818718E+03  0.73395818718E+03  0.25500000000E-02 0. -1.
         -2   -1    0    0    0  501 -0.00000000000E+00 -0.00000000000E+00 -0.15098336360E+04  0.15098336360E+04  0.25500000000E-02 0.  1.
    8880023    1    1    2    0    0 -0.31313193384E+03  0.27745860507E+02 -0.13712493399E+04  0.15533693699E+04  0.65864270000E+03 0.  1.
    8880022    1    1    2    0    0  0.31313193384E+03 -0.27745860507E+02  0.59537389112E+03  0.69042245329E+03  0.15294330000E+03 0.  0.
<mgrwt>
<rscale>  0 0.60715536E+03</rscale>
<asrwt>0</asrwt>
<pdfrwt beam="1">  1        2 0.11291664E+00 0.72981617E+03</pdfrwt>
<pdfrwt beam="2">  1       -2 0.23228210E+00 0.72981617E+03</pdfrwt>
<totfact> 0.32870596E+00</totfact>
</mgrwt>
</event>
<event>
 4    5  0.7289609E-008  0.7197001E+03  0.7818608E-02  0.9923602E-01
         -2   -1    0    0    0  501 -0.00000000000E+00  0.00000000000E+00  0.17152390466E+03  0.17152390468E+03  0.25500000000E-02 0.  1.
          2   -1    0    0  501    0  0.00000000000E+00 -0.00000000000E+00 -0.22099293454E+04  0.22099293454E+04  0.25500000000E-02 0. -1.
    8880023    1    1    2    0    0  0.22852123057E+03  0.17870682930E+03 -0.70190529374E+03  0.10053055910E+04  0.65864270000E+03 0.  0.
    8880022    1    1    2    0    0 -0.22852123057E+03 -0.17870682930E+03 -0.13365001470E+04  0.13761476591E+04  0.15294330000E+03 0.  0.
<mgrwt>
<rscale>  0 0.59130950E+03</rscale>
<asrwt>0</asrwt>
<pdfrwt beam="1">  1        2 0.33998911E+00 0.71970014E+03</pdfrwt>
<pdfrwt beam="2">  1       -2 0.26388295E-01 0.71970014E+03</pdfrwt>
<totfact> 0.68623025E+01</totfact>
</mgrwt>
</event>
<event>
 4    5  0.7289609E-008  0.6792835E+03  0.7818608E-02  0.1009732E+00
          2   -1    0    0  501    0  0.00000000000E+00  0.00000000000E+00  0.20711669871E+04  0.20711669871E+04  0.25500000000E-02 0. -1.
         -2   -1    0    0    0  501 -0.00000000000E+00 -0.00000000000E+00 -0.16633525519E+03  0.16633525521E+03  0.25500000000E-02 0.  1.
    8880023    1    1    2    0    0  0.81569725082E+02  0.14478326480E+03  0.57897037678E+03  0.89254283777E+03  0.65864270000E+03 0.  1.
    8880022    1    1    2    0    0 -0.81569725082E+02 -0.14478326480E+03  0.13258613552E+04  0.13449594046E+04  0.15294330000E+03 0.  0.
<mgrwt>
<rscale>  0 0.51581326E+03</rscale>
<asrwt>0</asrwt>
<pdfrwt beam="1">  1        2 0.31864108E+00 0.67928346E+03</pdfrwt>
<pdfrwt beam="2">  1       -2 0.25590039E-01 0.67928346E+03</pdfrwt>
<totfact> 0.86869603E+01</totfact>
</mgrwt>
</event>
<event>
 4    5  0.7289609E-008  0.7099251E+03  0.7818608E-02  0.9958279E-01
          2   -1    0    0  501    0  0.00000000000E+00  0.00000000000E+00  0.16155447455E+04  0.16155447455E+04  0.25500000000E-02 0. -1.
         -2   -1    0    0    0  501 -0.00000000000E+00 -0.00000000000E+00 -0.41489933615E+03  0.41489933616E+03  0.25500000000E-02 0.  1.
    8880023    1    1    2    0    0 -0.65611251165E+02  0.25666827057E+03 -0.79402964637E+02  0.71435178620E+03  0.65864270000E+03 0.  1.
    8880022    1    1    2    0    0  0.65611251165E+02 -0.25666827057E+03  0.12800483740E+04  0.13160922955E+04  0.15294330000E+03 0.  0.
<mgrwt>
<rscale>  0 0.57518086E+03</rscale>
<asrwt>0</asrwt>
<pdfrwt beam="1">  1        2 0.24854535E+00 0.70992510E+03</pdfrwt>
<pdfrwt beam="2">  1       -2 0.63830667E-01 0.70992510E+03</pdfrwt>
<totfact> 0.25576462E+01</totfact>
</mgrwt>
</event>
<event>
 4    5  0.7289609E-008  0.6668085E+03  0.7818608E-02  0.1018062E+00
         -2   -1    0    0    0  501 -0.00000000000E+00  0.00000000000E+00  0.71949643348E+03  0.71949643348E+03  0.25500000000E-02 0.  1.
          2   -1    0    0  501    0  0.00000000000E+00 -0.00000000000E+00 -0.35517755687E+03  0.35517755688E+03  0.25500000000E-02 0. -1.
    8880023    1    1    2    0    0 -0.54557241626E+02  0.88582676331E+02  0.50978550867E+03  0.83935383139E+03  0.65864270000E+03 0.  1.
    8880022    1    1    2    0    0  0.54557241626E+02 -0.88582676331E+02 -0.14546663206E+03  0.23532015897E+03  0.15294330000E+03 0.  0.
<mgrwt>
<rscale>  0 0.48392491E+03</rscale>
<asrwt>0</asrwt>
<pdfrwt beam="1">  1        2 0.54642702E-01 0.66680851E+03</pdfrwt>
<pdfrwt beam="2">  1       -2 0.11069176E+00 0.66680851E+03</pdfrwt>
<totfact> 0.59751090E+01</totfact>
</mgrwt>
</event>
<event>
 4    5  0.7289609E-008  0.1022693E+04  0.7818608E-02  0.9352452E-01
         -2   -1    0    0    0  501 -0.00000000000E+00  0.00000000000E+00  0.23450788741E+04  0.23450788741E+04  0.25500000000E-02 0.  1.
          2   -1    0    0  501    0  0.00000000000E+00 -0.00000000000E+00 -0.47480690279E+03  0.47480690280E+03  0.25500000000E-02 0. -1.
    8880023    1    1    2    0    0  0.54880357335E+03 -0.55758884653E+03  0.17311482061E+04  0.20106653132E+04  0.65864270000E+03 0.  0.
    8880022    1    1    2    0    0 -0.54880357335E+03  0.55758884653E+03  0.13912376526E+03  0.80922046376E+03  0.15294330000E+03 0.  0.
<mgrwt>
<rscale>  0 0.96094136E+03</rscale>
<asrwt>0</asrwt>
<pdfrwt beam="1">  1        2 0.73047216E-01 0.10226930E+04</pdfrwt>
<pdfrwt beam="2">  1       -2 0.36078136E+00 0.10226930E+04</pdfrwt>
<totfact> 0.88087298E-01</totfact>
</mgrwt>
</event>
<event>
 4    5  0.7289609E-008  0.1147405E+04  0.7818608E-02  0.9210026E-01
          2   -1    0    0  501    0  0.00000000000E+00  0.00000000000E+00  0.18372891507E+04  0.18372891507E+04  0.25500000000E-02 0. -1.
         -2   -1    0    0    0  501 -0.00000000000E+00 -0.00000000000E+00 -0.12145259675E+04  0.12145259675E+04  0.25500000000E-02 0.  1.
    8880023    1    1    2    0    0 -0.43355337932E+03 -0.83352198682E+03 -0.75767494132E+03  0.13749941666E+04  0.65864270000E+03 0.  0.
    8880022    1    1    2    0    0  0.43355337932E+03  0.83352198682E+03  0.13804381245E+04  0.16768209516E+04  0.15294330000E+03 0.  0.
<mgrwt>
<rscale>  0 0.10950543E+04</rscale>
<asrwt>0</asrwt>
<pdfrwt beam="1">  1        2 0.28265987E+00 0.11474047E+04</pdfrwt>
<pdfrwt beam="2">  1       -2 0.18685015E+00 0.11474047E+04</pdfrwt>
<totfact> 0.13082047E+00</totfact>
</mgrwt>
</event>
<event>
 4    5  0.7289609E-008  0.1793241E+04  0.7818608E-02  0.8726285E-01
         -2   -1    0    0    0  501 -0.00000000000E+00  0.00000000000E+00  0.21012435332E+04  0.21012435332E+04  0.25500000000E-02 0.  1.
          2   -1    0    0  501    0  0.00000000000E+00 -0.00000000000E+00 -0.16320998183E+04  0.16320998183E+04  0.25500000000E-02 0. -1.
    8880023    1    1    2    0    0  0.86959532362E+03 -0.14232728301E+04  0.89640093512E+03  0.20048058306E+04  0.65864270000E+03 0.  0.
    8880022    1    1    2    0    0 -0.86959532362E+03  0.14232728301E+04 -0.42725722020E+03  0.17285375208E+04  0.15294330000E+03 0.  0.
<mgrwt>
<rscale>  0 0.17628940E+04</rscale>
<asrwt>0</asrwt>
<pdfrwt beam="1">  1        2 0.25109228E+00 0.17932406E+04</pdfrwt>
<pdfrwt beam="2">  1       -2 0.32326824E+00 0.17932406E+04</pdfrwt>
<totfact> 0.22301201E-01</totfact>
</mgrwt>
</event>
<event>
 4    5  0.7289609E-008  0.1056367E+04  0.7818608E-02  0.9311266E-01
         -2   -1    0    0    0  501 -0.00000000000E+00  0.00000000000E+00  0.50378325821E+03  0.50378325822E+03  0.25500000000E-02 0.  1.
          2   -1    0    0  501    0  0.00000000000E+00 -0.00000000000E+00 -0.28319440316E+04  0.28319440316E+04  0.25500000000E-02 0. -1.
    8880023    1    1    2    0    0  0.71644169983E+03 -0.41086822950E+03 -0.23762124258E+03  0.10827628884E+04  0.65864270000E+03 0.  0.
    8880022    1    1    2    0    0 -0.71644169983E+03  0.41086822950E+03 -0.20905395308E+04  0.22529644014E+04  0.15294330000E+03 0.  0.
<mgrwt>
<rscale>  0 0.99752266E+03</rscale>
<asrwt>0</asrwt>
<pdfrwt beam="1">  1        2 0.43568369E+00 0.10563672E+04</pdfrwt>
<pdfrwt beam="2">  1       -2 0.77505118E-01 0.10563672E+04</pdfrwt>
<totfact> 0.33127535E+00</totfact>
</mgrwt>
</event>
<event>
 4    5  0.7289609E-008  0.9916541E+03  0.7818608E-02  0.9392559E-01
          2   -1    0    0  501    0  0.00000000000E+00  0.00000000000E+00  0.17322507034E+04  0.17322507034E+04  0.25500000000E-02 0. -1.
         -2   -1    0    0    0  501 -0.00000000000E+00 -0.00000000000E+00 -0.83608180627E+03  0.83608180627E+03  0.25500000000E-02 0.  1.
    8880023    1    1    2    0    0 -0.56564483873E+03 -0.47918008498E+03 -0.39841532325E+03  0.10686966892E+04  0.65864270000E+03 0.  0.
    8880022    1    1    2    0    0  0.56564483873E+03  0.47918008498E+03  0.12945842204E+04  0.14996358205E+04  0.15294330000E+03 0.  0.
<mgrwt>
<rscale>  0 0.92690586E+03</rscale>
<asrwt>0</asrwt>
<pdfrwt beam="1">  1        2 0.26650011E+00 0.99165409E+03</pdfrwt>
<pdfrwt beam="2">  1       -2 0.12862797E+00 0.99165409E+03</pdfrwt>
<totfact> 0.41831176E+00</totfact>
</mgrwt>
</event>
<event>
 4    5  0.7289609E-008  0.9732722E+03  0.7818608E-02  0.9417393E-01
          2   -1    0    0  501    0  0.00000000000E+00  0.00000000000E+00  0.42064644805E+04  0.42064644805E+04  0.25500000000E-02 0. -1.
         -2   -1    0    0    0  501 -0.00000000000E+00 -0.00000000000E+00 -0.38249156515E+03  0.38249156516E+03  0.25500000000E-02 0.  1.
    8880023    1    1    2    0    0 -0.64286366377E+03 -0.31650403626E+03  0.37244695747E+04  0.38495366363E+04  0.65864270000E+03 0.  0.
    8880022    1    1    2    0    0  0.64286366377E+03  0.31650403626E+03  0.99503340684E+02  0.73941940939E+03  0.15294330000E+03 0.  0.
<mgrwt>
<rscale>  0 0.90658045E+03</rscale>
<asrwt>0</asrwt>
<pdfrwt beam="1">  1        2 0.64714838E+00 0.97327216E+03</pdfrwt>
<pdfrwt beam="2">  1       -2 0.58844856E-01 0.97327216E+03</pdfrwt>
<totfact> 0.66185622E-01</totfact>
</mgrwt>
</event>
<event>
 4    5  0.7289609E-008  0.1874212E+04  0.7818608E-02  0.8682559E-01
          2   -1    0    0  501    0  0.00000000000E+00  0.00000000000E+00  0.11327922445E+04  0.11327922445E+04  0.25500000000E-02 0. -1.
         -2   -1    0    0    0  501 -0.00000000000E+00 -0.00000000000E+00 -0.52139247807E+04  0.52139247807E+04  0.25500000000E-02 0.  1.
    8880023    1    1    2    0    0 -0.16623076924E+04 -0.56177765471E+03 -0.41817301104E+04  0.45825252776E+04  0.65864270000E+03 0.  0.
    8880022    1    1    2    0    0  0.16623076924E+04  0.56177765471E+03  0.10059757412E+03  0.17641917477E+04  0.15294330000E+03 0.  0.
<mgrwt>
<rscale>  0 0.18453286E+04</rscale>
<asrwt>0</asrwt>
<pdfrwt beam="1">  1        2 0.17427573E+00 0.18742122E+04</pdfrwt>
<pdfrwt beam="2">  1       -2 0.80214226E+00 0.18742122E+04</pdfrwt>
<totfact> 0.14532430E-03</totfact>
</mgrwt>
</event>
<event>
 4    5  0.7289609E-008  0.7049226E+03  0.7818608E-02  0.9977362E-01
          2   -1    0    0  501    0  0.00000000000E+00  0.00000000000E+00  0.18051032947E+04  0.18051032947E+04  0.25500000000E-02 0. -1.
         -2   -1    0    0    0  501 -0.00000000000E+00 -0.00000000000E+00 -0.15822888465E+03  0.15822888467E+03  0.25500000000E-02 0.  1.
    8880023    1    1    2    0    0 -0.62576761699E+02 -0.24328950220E+03  0.79702782097E+03  0.10640343917E+04  0.65864270000E+03 0.  1.
    8880022    1    1    2    0    0  0.62576761699E+02  0.24328950220E+03  0.84984658907E+03  0.89929778770E+03  0.15294330000E+03 0. -1.
<mgrwt>
<rscale>  0 0.56654104E+03</rscale>
<asrwt>0</asrwt>
<pdfrwt beam="1">  1        2 0.27770819E+00 0.70492258E+03</pdfrwt>
<pdfrwt beam="2">  1       -2 0.24342906E-01 0.70492258E+03</pdfrwt>
<totfact> 0.13227403E+02</totfact>
</mgrwt>
</event>
<event>
 4    5  0.7289609E-008  0.1967315E+04  0.7818608E-02  0.8635227E-01
         -2   -1    0    0    0  501 -0.00000000000E+00  0.00000000000E+00  0.17948012967E+04  0.17948012967E+04  0.25500000000E-02 0.  1.
          2   -1    0    0  501    0  0.00000000000E+00 -0.00000000000E+00 -0.22653442745E+04  0.22653442745E+04  0.25500000000E-02 0. -1.
    8880023    1    1    2    0    0 -0.13663241160E+04  0.12528670550E+04 -0.88058696748E+03  0.21554027607E+04  0.65864270000E+03 0.  0.
    8880022    1    1    2    0    0  0.13663241160E+04 -0.12528670550E+04  0.41004398974E+03  0.19047428104E+04  0.15294330000E+03 0.  0.
<mgrwt>
<rscale>  0 0.19399408E+04</rscale>
<asrwt>0</asrwt>
<pdfrwt beam="1">  1        2 0.34851451E+00 0.19673148E+04</pdfrwt>
<pdfrwt beam="2">  1       -2 0.27612328E+00 0.19673148E+04</pdfrwt>
<totfact> 0.18824508E-01</totfact>
</mgrwt>
</event>
<event>
 4    5  0.7289609E-008  0.2110322E+04  0.7818608E-02  0.8567893E-01
         -2   -1    0    0    0  501 -0.00000000000E+00  0.00000000000E+00  0.21097042456E+04  0.21097042456E+04  0.25500000000E-02 0.  1.
          2   -1    0    0  501    0  0.00000000000E+00 -0.00000000000E+00 -0.31880937700E+04  0.31880937700E+04  0.25500000000E-02 0. -1.
    8880023    1    1    2    0    0  0.14072365030E+04  0.14280531696E+04 -0.21556538080E+04  0.30166710091E+04  0.65864270000E+03 0. -1.
    8880022    1    1    2    0    0 -0.14072365030E+04 -0.14280531696E+04  0.10772642836E+04  0.22811270066E+04  0.15294330000E+03 0.  0.
<mgrwt>
<rscale>  0 0.20849716E+04</rscale>
<asrwt>0</asrwt>
<pdfrwt beam="1">  1        2 0.49047596E+00 0.21103224E+04</pdfrwt>
<pdfrwt beam="2">  1       -2 0.32456989E+00 0.21103224E+04</pdfrwt>
<totfact> 0.25840287E-02</totfact>
</mgrwt>
</event>
<event>
 4    5  0.7289609E-008  0.7684225E+03  0.7818608E-02  0.9783771E-01
          2   -1    0    0  501    0  0.00000000000E+00  0.00000000000E+00  0.21058100216E+04  0.21058100216E+04  0.25500000000E-02 0. -1.
         -2   -1    0    0    0  501 -0.00000000000E+00 -0.00000000000E+00 -0.50974127624E+03  0.50974127624E+03  0.25500000000E-02 0.  1.
    8880023    1    1    2    0    0 -0.38011123002E+03 -0.11035544068E+03 -0.18022800942E+03  0.78927511814E+03  0.65864270000E+03 0.  1.
    8880022    1    1    2    0    0  0.38011123002E+03  0.11035544068E+03  0.17762967548E+04  0.18262761797E+04  0.15294330000E+03 0.  0.
<mgrwt>
<rscale>  0 0.66240796E+03</rscale>
<asrwt>0</asrwt>
<pdfrwt beam="1">  1        2 0.32397077E+00 0.76842246E+03</pdfrwt>
<pdfrwt beam="2">  1       -2 0.78421734E-01 0.76842246E+03</pdfrwt>
<totfact> 0.87276798E+00</totfact>
</mgrwt>
</event>
<event>
 4    5  0.7289609E-008  0.8446900E+03  0.7818608E-02  0.9621399E-01
          2   -1    0    0  501    0  0.00000000000E+00  0.00000000000E+00  0.11973260223E+04  0.11973260223E+04  0.25500000000E-02 0. -1.
         -2   -1    0    0    0  501 -0.00000000000E+00 -0.00000000000E+00 -0.54929363163E+03  0.54929363164E+03  0.25500000000E-02 0.  1.
    8880023    1    1    2    0    0  0.17540527817E+03  0.49892289388E+03 -0.63385865839E+02  0.84706495613E+03  0.65864270000E+03 0.  1.
    8880022    1    1    2    0    0 -0.17540527817E+03 -0.49892289388E+03  0.71141825649E+03  0.89955469780E+03  0.15294330000E+03 0.  0.
<mgrwt>
<rscale>  0 0.75895876E+03</rscale>
<asrwt>0</asrwt>
<pdfrwt beam="1">  1        2 0.18420400E+00 0.84469004E+03</pdfrwt>
<pdfrwt beam="2">  1       -2 0.84506713E-01 0.84469004E+03</pdfrwt>
<totfact> 0.23423282E+01</totfact>
</mgrwt>
</event>
<event>
 4    5  0.7289609E-008  0.7166887E+03  0.7818608E-02  0.9933954E-01
         -2   -1    0    0    0  501 -0.00000000000E+00  0.00000000000E+00  0.29654626298E+03  0.29654626299E+03  0.25500000000E-02 0.  1.
          2   -1    0    0  501    0  0.00000000000E+00 -0.00000000000E+00 -0.25630821590E+04  0.25630821590E+04  0.25500000000E-02 0. -1.
    8880023    1    1    2    0    0  0.26593115306E+03 -0.95462810248E+02 -0.16731028367E+03  0.73595887358E+03  0.65864270000E+03 0.  1.
    8880022    1    1    2    0    0 -0.26593115306E+03  0.95462810248E+02 -0.20992256124E+04  0.21236695485E+04  0.15294330000E+03 0.  0.
<mgrwt>
<rscale>  0 0.58643598E+03</rscale>
<asrwt>0</asrwt>
<pdfrwt beam="1">  1        2 0.39432032E+00 0.71668873E+03</pdfrwt>
<pdfrwt beam="2">  1       -2 0.45622504E-01 0.71668873E+03</pdfrwt>
<totfact> 0.15365403E+01</totfact>
</mgrwt>
</event>
<event>
 4    5  0.7289609E-008  0.6974393E+03  0.7818608E-02  0.1000799E+00
         -2   -1    0    0    0  501 -0.00000000000E+00  0.00000000000E+00  0.41176566578E+03  0.41176566578E+03  0.25500000000E-02 0.  1.
          2   -1    0    0  501    0  0.00000000000E+00 -0.00000000000E+00 -0.11274427180E+04  0.11274427180E+04  0.25500000000E-02 0. -1.
    8880023    1    1    2    0    0  0.16275889100E+03 -0.16161954006E+03  0.75368298091E+02  0.70149976404E+03  0.65864270000E+03 0.  1.
    8880022    1    1    2    0    0 -0.16275889100E+03  0.16161954006E+03 -0.79104535033E+03  0.83770861976E+03  0.15294330000E+03 0.  0.
<mgrwt>
<rscale>  0 0.55301082E+03</rscale>
<asrwt>0</asrwt>
<pdfrwt beam="1">  1        2 0.17345272E+00 0.69743927E+03</pdfrwt>
<pdfrwt beam="2">  1       -2 0.63348564E-01 0.69743927E+03</pdfrwt>
<totfact> 0.49411672E+01</totfact>
</mgrwt>
</event>
<event>
 4    5  0.9118238E-008  0.1186912E+04  0.7818608E-02  0.9169951E-01
         -2   -1    0    0    0  501 -0.00000000000E+00  0.00000000000E+00  0.13863793048E+04  0.13863793048E+04  0.25500000000E-02 0.  1.
          2   -1    0    0  501    0  0.00000000000E+00 -0.00000000000E+00 -0.23911307514E+04  0.23911307514E+04  0.25500000000E-02 0. -1.
    8880023    1    1    2    0    0 -0.26647283959E+03  0.95075861314E+03  0.99059505369E+03  0.15459749291E+04  0.65864270000E+03 0.  1.
    8880022    1    1    2    0    0  0.26647283959E+03 -0.95075861314E+03 -0.19953465003E+04  0.22315351272E+04  0.15294330000E+03 0.  0.
<mgrwt>
<rscale>  0 0.11369039E+04</rscale>
<asrwt>0</asrwt>
<pdfrwt beam="1">  1        2 0.36786627E+00 0.11869119E+04</pdfrwt>
<pdfrwt beam="2">  1       -2 0.21328912E+00 0.11869119E+04</pdfrwt>
<totfact> 0.42840770E-01</totfact>
</mgrwt>
</event>
<event>
 4    5  0.8668245E-008  0.1742713E+04  0.7818608E-02  0.8754905E-01
          2   -1    0    0  501    0  0.00000000000E+00  0.00000000000E+00  0.28241067082E+04  0.28241067082E+04  0.25500000000E-02 0. -1.
         -2   -1    0    0    0  501 -0.00000000000E+00 -0.00000000000E+00 -0.17788076916E+04  0.17788076916E+04  0.25500000000E-02 0.  1.
    8880023    1    1    2    0    0  0.10863475469E+04  0.11929327432E+04 -0.98755976534E+03  0.20030786352E+04  0.65864270000E+03 0.  0.
    8880022    1    1    2    0    0 -0.10863475469E+04 -0.11929327432E+04  0.20328587819E+04  0.25998357645E+04  0.15294330000E+03 0.  0.
<mgrwt>
<rscale>  0 0.17113717E+04</rscale>
<asrwt>0</asrwt>
<pdfrwt beam="1">  1        2 0.43447795E+00 0.17427133E+04</pdfrwt>
<pdfrwt beam="2">  1       -2 0.27366272E+00 0.17427133E+04</pdfrwt>
<totfact> 0.93809085E-02</totfact>
</mgrwt>
</event>
<event>
 4    5  0.7289609E-008  0.9350354E+03  0.7818608E-02  0.9471980E-01
         -2   -1    0    0    0  501 -0.00000000000E+00  0.00000000000E+00  0.42999303136E+03  0.42999303137E+03  0.25500000000E-02 0.  1.
          2   -1    0    0  501    0  0.00000000000E+00 -0.00000000000E+00 -0.15505207239E+04  0.15505207239E+04  0.25500000000E-02 0. -1.
    8880023    1    1    2    0    0 -0.20604456758E+03 -0.63089345033E+03 -0.50598428161E+03  0.10631609516E+04  0.65864270000E+03 0.  1.
    8880022    1    1    2    0    0  0.20604456758E+03  0.63089345033E+03 -0.61454341095E+03  0.91735280370E+03  0.15294330000E+03 0.  0.
<mgrwt>
<rscale>  0 0.86381524E+03</rscale>
<asrwt>0</asrwt>
<pdfrwt beam="1">  1        2 0.23854165E+00 0.93503536E+03</pdfrwt>
<pdfrwt beam="2">  1       -2 0.66152775E-01 0.93503536E+03</pdfrwt>
<totfact> 0.25101360E+01</totfact>
</mgrwt>
</event>
<event>
 4    5  0.7289609E-008  0.1146847E+04  0.7818608E-02  0.9210607E-01
          2   -1    0    0  501    0  0.00000000000E+00  0.00000000000E+00  0.76561347378E+03  0.76561347378E+03  0.25500000000E-02 0. -1.
         -2   -1    0    0    0  501 -0.00000000000E+00 -0.00000000000E+00 -0.22225059495E+04  0.22225059495E+04  0.25500000000E-02 0.  1.
    8880023    1    1    2    0    0  0.84961837309E+03 -0.39949469283E+03 -0.16578748145E+04  0.20158885129E+04  0.65864270000E+03 0.  0.
    8880022    1    1    2    0    0 -0.84961837309E+03  0.39949469283E+03  0.20098233885E+03  0.97223091035E+03  0.15294330000E+03 0.  0.
<mgrwt>
<rscale>  0 0.10944615E+04</rscale>
<asrwt>0</asrwt>
<pdfrwt beam="1">  1        2 0.11778669E+00 0.11468468E+04</pdfrwt>
<pdfrwt beam="2">  1       -2 0.34192399E+00 0.11468468E+04</pdfrwt>
<totfact> 0.63295249E-01</totfact>
</mgrwt>
</event>
<event>
 4    5  0.7289609E-008  0.1738241E+04  0.7818608E-02  0.8757491E-01
         -2   -1    0    0    0  501 -0.00000000000E+00  0.00000000000E+00  0.26245708745E+04  0.26245708745E+04  0.25500000000E-02 0.  1.
          2   -1    0    0  501    0  0.00000000000E+00 -0.00000000000E+00 -0.18278209923E+04  0.18278209923E+04  0.25500000000E-02 0. -1.
    8880023    1    1    2    0    0  0.14843614873E+04 -0.61995465127E+03  0.18382492827E+04  0.25299492932E+04  0.65864270000E+03 0.  0.
    8880022    1    1    2    0    0 -0.14843614873E+04  0.61995465127E+03 -0.10414994004E+04  0.19224425736E+04  0.15294330000E+03 0.  0.
<mgrwt>
<rscale>  0 0.17068083E+04</rscale>
<asrwt>0</asrwt>
<pdfrwt beam="1">  1        2 0.28120323E+00 0.17382414E+04</pdfrwt>
<pdfrwt beam="2">  1       -2 0.40378013E+00 0.17382414E+04</pdfrwt>
<totfact> 0.53313673E-02</totfact>
</mgrwt>
</event>
<event>
 4    5  0.7289609E-008  0.7640363E+03  0.7818608E-02  0.9794768E-01
          2   -1    0    0  501    0  0.00000000000E+00  0.00000000000E+00  0.10541874932E+04  0.10541874932E+04  0.25500000000E-02 0. -1.
         -2   -1    0    0    0  501 -0.00000000000E+00 -0.00000000000E+00 -0.83002454708E+03  0.83002454708E+03  0.25500000000E-02 0.  1.
    8880023    1    1    2    0    0  0.31760770403E+03 -0.22150972540E+03 -0.59296174008E+03  0.96713755153E+03  0.65864270000E+03 0.  1.
    8880022    1    1    2    0    0 -0.31760770403E+03  0.22150972540E+03  0.81712468622E+03  0.91707448877E+03  0.15294330000E+03 0.  0.
<mgrwt>
<rscale>  0 0.65644084E+03</rscale>
<asrwt>0</asrwt>
<pdfrwt beam="1">  1        2 0.16218269E+00 0.76403627E+03</pdfrwt>
<pdfrwt beam="2">  1       -2 0.12769608E+00 0.76403627E+03</pdfrwt>
<totfact> 0.10744187E+01</totfact>
</mgrwt>
</event>
<event>
 4    5  0.7289609E-008  0.1458314E+04  0.7818608E-02  0.8939647E-01
         -2   -1    0    0    0  501 -0.00000000000E+00  0.00000000000E+00  0.95121668338E+03  0.95121668338E+03  0.25500000000E-02 0.  1.
          2   -1    0    0  501    0  0.00000000000E+00 -0.00000000000E+00 -0.25366778627E+04  0.25366778627E+04  0.25500000000E-02 0. -1.
    8880023    1    1    2    0    0 -0.12460883400E+04  0.37434514180E+03 -0.35899744623E+02  0.14587561257E+04  0.65864270000E+03 0.  0.
    8880022    1    1    2    0    0  0.12460883400E+04 -0.37434514180E+03 -0.15495614347E+04  0.20291384204E+04  0.15294330000E+03 0.  0.
<mgrwt>
<rscale>  0 0.14197481E+04</rscale>
<asrwt>0</asrwt>
<pdfrwt beam="1">  1        2 0.39025813E+00 0.14583143E+04</pdfrwt>
<pdfrwt beam="2">  1       -2 0.14634103E+00 0.14583143E+04</pdfrwt>
<totfact> 0.10066414E+00</totfact>
</mgrwt>
</event>
<event>
 4    5  0.7289609E-008  0.8303011E+03  0.7818608E-02  0.9648747E-01
          2   -1    0    0  501    0  0.00000000000E+00  0.00000000000E+00  0.30289797289E+04  0.30289797289E+04  0.25500000000E-02 0. -1.
         -2   -1    0    0    0  501 -0.00000000000E+00 -0.00000000000E+00 -0.36337043665E+03  0.36337043666E+03  0.25500000000E-02 0.  1.
    8880023    1    1    2    0    0 -0.50303922237E+03  0.50410458216E+02  0.17784616523E+03  0.84913434643E+03  0.65864270000E+03 0.  1.
    8880022    1    1    2    0    0  0.50303922237E+03 -0.50410458216E+02  0.24877631270E+04  0.25432158191E+04  0.15294330000E+03 0.  0.
<mgrwt>
<rscale>  0 0.74152124E+03</rscale>
<asrwt>0</asrwt>
<pdfrwt beam="1">  1        2 0.46599687E+00 0.83030108E+03</pdfrwt>
<pdfrwt beam="2">  1       -2 0.55903145E-01 0.83030108E+03</pdfrwt>
<totfact> 0.52745464E+00</totfact>
</mgrwt>
</event>
<event>
 4    5  0.7289609E-008  0.1346451E+04  0.7818608E-02  0.9026450E-01
          2   -1    0    0  501    0  0.00000000000E+00  0.00000000000E+00  0.15502876310E+04  0.15502876310E+04  0.25500000000E-02 0. -1.
         -2   -1    0    0    0  501 -0.00000000000E+00 -0.00000000000E+00 -0.12737597534E+04  0.12737597534E+04  0.25500000000E-02 0.  1.
    8880023    1    1    2    0    0  0.40409161664E+03  0.11026468761E+04 -0.46766564472E+03  0.14253566324E+04  0.65864270000E+03 0.  0.
    8880022    1    1    2    0    0 -0.40409161664E+03 -0.11026468761E+04  0.74419352234E+03  0.13986907520E+04  0.15294330000E+03 0.  0.
<mgrwt>
<rscale>  0 0.13039359E+04</rscale>
<asrwt>0</asrwt>
<pdfrwt beam="1">  1        2 0.23850579E+00 0.13464510E+04</pdfrwt>
<pdfrwt beam="2">  1       -2 0.19596304E+00 0.13464510E+04</pdfrwt>
<totfact> 0.16069422E+00</totfact>
</mgrwt>
</event>
<event>
 4    5  0.7289609E-008  0.1742930E+04  0.7818608E-02  0.8754780E-01
          2   -1    0    0  501    0  0.00000000000E+00  0.00000000000E+00  0.23622181182E+04  0.23622181182E+04  0.25500000000E-02 0. -1.
         -2   -1    0    0    0  501 -0.00000000000E+00 -0.00000000000E+00 -0.16729021731E+04  0.16729021731E+04  0.25500000000E-02 0.  1.
    8880023    1    1    2    0    0 -0.24296644855E+03  0.15952932479E+04  0.14285726727E+04  0.22535801138E+04  0.65864270000E+03 0.  0.
    8880022    1    1    2    0    0  0.24296644855E+03 -0.15952932479E+04 -0.73925672761E+03  0.17815401776E+04  0.15294330000E+03 0.  0.
<mgrwt>
<rscale>  0 0.17115924E+04</rscale>
<asrwt>0</asrwt>
<pdfrwt beam="1">  1        2 0.36341817E+00 0.17429296E+04</pdfrwt>
<pdfrwt beam="2">  1       -2 0.25736957E+00 0.17429296E+04</pdfrwt>
<totfact> 0.22076912E-01</totfact>
</mgrwt>
</event>
<event>
 4    5  0.7289609E-008  0.1346609E+04  0.7818608E-02  0.9026320E-01
         -2   -1    0    0    0  501 -0.00000000000E+00  0.00000000000E+00  0.19437038269E+04  0.19437038269E+04  0.25500000000E-02 0.  1.
          2   -1    0    0  501    0  0.00000000000E+00 -0.00000000000E+00 -0.19082379172E+04  0.19082379172E+04  0.25500000000E-02 0. -1.
    8880023    1    1    2    0    0  0.80734192158E+03  0.85307882492E+03  0.14687133198E+04  0.19926046979E+04  0.65864270000E+03 0.  1.
    8880022    1    1    2    0    0 -0.80734192158E+03 -0.85307882492E+03 -0.14332474101E+04  0.18593370462E+04  0.15294330000E+03 0.  0.
<mgrwt>
<rscale>  0 0.13040996E+04</rscale>
<asrwt>0</asrwt>
<pdfrwt beam="1">  1        2 0.29357507E+00 0.13466086E+04</pdfrwt>
<pdfrwt beam="2">  1       -2 0.29903136E+00 0.13466086E+04</pdfrwt>
<totfact> 0.23155796E-01</totfact>
</mgrwt>
</event>
<event>
 4    5  0.7289609E-008  0.1634665E+04  0.7818608E-02  0.8819968E-01
         -2   -1    0    0    0  501 -0.00000000000E+00  0.00000000000E+00  0.17258134463E+04  0.17258134463E+04  0.25500000000E-02 0.  1.
          2   -1    0    0  501    0  0.00000000000E+00 -0.00000000000E+00 -0.26006723657E+04  0.26006723657E+04  0.25500000000E-02 0. -1.
    8880023    1    1    2    0    0 -0.87558226035E+03 -0.12131263007E+04  0.10051458932E+04  0.19189706066E+04  0.65864270000E+03 0.  0.
    8880022    1    1    2    0    0  0.87558226035E+03  0.12131263007E+04 -0.18800048126E+04  0.24075152055E+04  0.15294330000E+03 0.  0.
<mgrwt>
<rscale>  0 0.16009444E+04</rscale>
<asrwt>0</asrwt>
<pdfrwt beam="1">  1        2 0.40010344E+00 0.16346651E+04</pdfrwt>
<pdfrwt beam="2">  1       -2 0.26550976E+00 0.16346651E+04</pdfrwt>
<totfact> 0.14487141E-01</totfact>
</mgrwt>
</event>
<event>
 4    5  0.7289609E-008  0.7979717E+03  0.7818608E-02  0.9715199E-01
          2   -1    0    0  501    0  0.00000000000E+00  0.00000000000E+00  0.18063787839E+04  0.18063787839E+04  0.25500000000E-02 0. -1.
         -2   -1    0    0    0  501 -0.00000000000E+00 -0.00000000000E+00 -0.37976362021E+03  0.37976362022E+03  0.25500000000E-02 0.  1.
    8880023    1    1    2    0    0 -0.42039240350E+03  0.16192256665E+03  0.13450342654E+03  0.80922806953E+03  0.65864270000E+03 0.  1.
    8880022    1    1    2    0    0  0.42039240350E+03 -0.16192256665E+03  0.12921117372E+04  0.13769143346E+04  0.15294330000E+03 0.  0.
<mgrwt>
<rscale>  0 0.70119027E+03</rscale>
<asrwt>0</asrwt>
<pdfrwt beam="1">  1        2 0.27790443E+00 0.79797174E+03</pdfrwt>
<pdfrwt beam="2">  1       -2 0.58425173E-01 0.79797174E+03</pdfrwt>
<totfact> 0.23993541E+01</totfact>
</mgrwt>
</event>
<event>
 4    5  0.7289609E-008  0.6896853E+03  0.7818608E-02  0.1004303E+00
          2   -1    0    0  501    0  0.00000000000E+00  0.00000000000E+00  0.23855861162E+03  0.23855861163E+03  0.25500000000E-02 0. -1.
         -2   -1    0    0    0  501 -0.00000000000E+00 -0.00000000000E+00 -0.12958632068E+04  0.12958632068E+04  0.25500000000E-02 0.  1.
    8880023    1    1    2    0    0 -0.67484706877E+02 -0.19313563151E+03 -0.10762638226E+04  0.12782838417E+04  0.65864270000E+03 0.  1.
    8880022    1    1    2    0    0  0.67484706877E+02  0.19313563151E+03  0.18959227398E+02  0.25613797676E+03  0.15294330000E+03 0.  0.
<mgrwt>
<rscale>  0 0.53803243E+03</rscale>
<asrwt>0</asrwt>
<pdfrwt beam="1">  1        2 0.36701326E-01 0.68968526E+03</pdfrwt>
<pdfrwt beam="2">  1       -2 0.19936357E+00 0.68968526E+03</pdfrwt>
<totfact> 0.19461929E+01</totfact>
</mgrwt>
</event>
<event>
 4    5  0.7777125E-008  0.1148488E+04  0.7818608E-02  0.9208899E-01
          2   -1    0    0  501    0  0.00000000000E+00  0.00000000000E+00  0.26064398719E+04  0.26064398719E+04  0.25500000000E-02 0. -1.
         -2   -1    0    0    0  501 -0.00000000000E+00 -0.00000000000E+00 -0.13610095789E+04  0.13610095789E+04  0.25500000000E-02 0.  1.
    8880023    1    1    2    0    0 -0.94067831799E+03  0.18393521997E+02 -0.10033193891E+04  0.15250160728E+04  0.65864270000E+03 0.  1.
    8880022    1    1    2    0    0  0.94067831799E+03 -0.18393521997E+02  0.22487496821E+04  0.24424333779E+04  0.15294330000E+03 0.  0.
<mgrwt>
<rscale>  0 0.10962049E+04</rscale>
<asrwt>0</asrwt>
<pdfrwt beam="1">  1        2 0.40099075E+00 0.11484878E+04</pdfrwt>
<pdfrwt beam="2">  1       -2 0.20938609E+00 0.11484878E+04</pdfrwt>
<totfact> 0.34331605E-01</totfact>
</mgrwt>
</event>
<event>
 4    5  0.7289609E-008  0.1415357E+04  0.7818608E-02  0.8971841E-01
          2   -1    0    0  501    0  0.00000000000E+00  0.00000000000E+00  0.35230437355E+04  0.35230437355E+04  0.25500000000E-02 0. -1.
         -2   -1    0    0    0  501 -0.00000000000E+00 -0.00000000000E+00 -0.10922198894E+04  0.10922198894E+04  0.25500000000E-02 0.  1.
    8880023    1    1    2    0    0 -0.11581650932E+04  0.47757634130E+03 -0.43760532064E+03  0.14814635223E+04  0.65864270000E+03 0.  0.
    8880022    1    1    2    0    0  0.11581650932E+04 -0.47757634130E+03  0.28684291668E+04  0.31338001026E+04  0.15294330000E+03 0.  0.
<mgrwt>
<rscale>  0 0.13753723E+04</rscale>
<asrwt>0</asrwt>
<pdfrwt beam="1">  1        2 0.54200673E+00 0.14153571E+04</pdfrwt>
<pdfrwt beam="2">  1       -2 0.16803383E+00 0.14153571E+04</pdfrwt>
<totfact> 0.16589157E-01</totfact>
</mgrwt>
</event>
<event>
 4    5  0.7289609E-008  0.9855652E+03  0.7818608E-02  0.9400691E-01
          2   -1    0    0  501    0  0.00000000000E+00  0.00000000000E+00  0.50197227245E+04  0.50197227245E+04  0.25500000000E-02 0. -1.
         -2   -1    0    0    0  501 -0.00000000000E+00 -0.00000000000E+00 -0.82213906107E+03  0.82213906107E+03  0.25500000000E-02 0.  1.
    8880023    1    1    2    0    0  0.35052326782E+03  0.64394261109E+03 -0.48592702853E+03  0.10988466367E+04  0.65864270000E+03 0.  0.
    8880022    1    1    2    0    0 -0.35052326782E+03 -0.64394261109E+03  0.46835106919E+04  0.47430151489E+04  0.15294330000E+03 0.  0.
<mgrwt>
<rscale>  0 0.92018824E+03</rscale>
<asrwt>0</asrwt>
<pdfrwt beam="1">  1        2 0.77226502E+00 0.98556525E+03</pdfrwt>
<pdfrwt beam="2">  1       -2 0.12648293E+00 0.98556525E+03</pdfrwt>
<totfact> 0.16662719E-02</totfact>
</mgrwt>
</event>
<event>
 4    5  0.7289609E-008  0.1556337E+04  0.7818608E-02  0.8870846E-01
         -2   -1    0    0    0  501 -0.00000000000E+00  0.00000000000E+00  0.65222358714E+03  0.65222358714E+03  0.25500000000E-02 0.  1.
          2   -1    0    0  501    0  0.00000000000E+00 -0.00000000000E+00 -0.34179369577E+04  0.34179369577E+04  0.25500000000E-02 0. -1.
    8880023    1    1    2    0    0 -0.14100939158E+04  0.31844873436E+01 -0.16242499676E+04  0.22495273183E+04  0.65864270000E+03 0.  0.
    8880022    1    1    2    0    0  0.14100939158E+04 -0.31844873436E+01 -0.11414634029E+04  0.18206332265E+04  0.15294330000E+03 0.  0.
<mgrwt>
<rscale>  0 0.15206349E+04</rscale>
<asrwt>0</asrwt>
<pdfrwt beam="1">  1        2 0.52583644E+00 0.15563371E+04</pdfrwt>
<pdfrwt beam="2">  1       -2 0.10034209E+00 0.15563371E+04</pdfrwt>
<totfact> 0.72504290E-01</totfact>
</mgrwt>
</event>
<event>
 4    5  0.7289609E-008  0.7446786E+03  0.7818608E-02  0.9846522E-01
          2   -1    0    0  501    0  0.00000000000E+00  0.00000000000E+00  0.55558546006E+03  0.55558546007E+03  0.25500000000E-02 0. -1.
         -2   -1    0    0    0  501 -0.00000000000E+00 -0.00000000000E+00 -0.62328783923E+03  0.62328783923E+03  0.25500000000E-02 0.  1.
    8880023    1    1    2    0    0  0.30942147267E+03  0.15809586903E+03  0.12178339699E+03  0.75457097320E+03  0.65864270000E+03 0.  0.
    8880022    1    1    2    0    0 -0.30942147267E+03 -0.15809586903E+03 -0.18948577615E+03  0.42430232610E+03  0.15294330000E+03 0.  0.
<mgrwt>
<rscale>  0 0.62924538E+03</rscale>
<asrwt>0</asrwt>
<pdfrwt beam="1">  1        2 0.85474687E-01 0.74467856E+03</pdfrwt>
<pdfrwt beam="2">  1       -2 0.95890436E-01 0.74467856E+03</pdfrwt>
<totfact> 0.50215141E+01</totfact>
</mgrwt>
</event>
<event>
 4    5  0.7289609E-008  0.1154856E+04  0.7818608E-02  0.9202306E-01
          2   -1    0    0  501    0  0.00000000000E+00  0.00000000000E+00  0.20100917232E+04  0.20100917232E+04  0.25500000000E-02 0. -1.
         -2   -1    0    0    0  501 -0.00000000000E+00 -0.00000000000E+00 -0.82444801046E+03  0.82444801046E+03  0.25500000000E-02 0.  1.
    8880023    1    1    2    0    0 -0.94813989740E+03  0.30202324764E+02  0.14348577004E+04  0.18418762912E+04  0.65864270000E+03 0.  0.
    8880022    1    1    2    0    0  0.94813989740E+03 -0.30202324764E+02 -0.24921398759E+03  0.99266344251E+03  0.15294330000E+03 0.  0.
<mgrwt>
<rscale>  0 0.11029658E+04</rscale>
<asrwt>0</asrwt>
<pdfrwt beam="1">  1        2 0.30924488E+00 0.11548557E+04</pdfrwt>
<pdfrwt beam="2">  1       -2 0.12683816E+00 0.11548557E+04</pdfrwt>
<totfact> 0.29886134E+00</totfact>
</mgrwt>
</event>
<event>
 4    5  0.7289609E-008  0.9256009E+03  0.7818608E-02  0.9486124E-01
          2   -1    0    0  501    0  0.00000000000E+00  0.00000000000E+00  0.16938328878E+04  0.16938328878E+04  0.25500000000E-02 0. -1.
         -2   -1    0    0    0  501 -0.00000000000E+00 -0.00000000000E+00 -0.39655897154E+03  0.39655897155E+03  0.25500000000E-02 0.  1.
    8880023    1    1    2    0    0  0.35914216416E+02 -0.64933581136E+03  0.50625355024E+03  0.10550022229E+04  0.65864270000E+03 0.  0.
    8880022    1    1    2    0    0 -0.35914216416E+02  0.64933581136E+03  0.79102036598E+03  0.10353896364E+04  0.15294330000E+03 0.  0.
<mgrwt>
<rscale>  0 0.85314615E+03</rscale>
<asrwt>0</asrwt>
<pdfrwt beam="1">  1        2 0.26058967E+00 0.92560090E+03</pdfrwt>
<pdfrwt beam="2">  1       -2 0.61009073E-01 0.92560090E+03</pdfrwt>
<totfact> 0.24890865E+01</totfact>
</mgrwt>
</event>
<event>
 4    5  0.7289609E-008  0.1161357E+04  0.7818608E-02  0.9195633E-01
          2   -1    0    0  501    0  0.00000000000E+00  0.00000000000E+00  0.37361276280E+04  0.37361276280E+04  0.25500000000E-02 0. -1.
         -2   -1    0    0    0  501 -0.00000000000E+00 -0.00000000000E+00 -0.41491926629E+03  0.41491926630E+03  0.25500000000E-02 0.  1.
    8880023    1    1    2    0    0  0.29321655420E+03  0.91047421564E+03  0.69864593079E+03  0.13553064553E+04  0.65864270000E+03 0.  1.
    8880022    1    1    2    0    0 -0.29321655420E+03 -0.91047421564E+03  0.26225624309E+04  0.27957404389E+04  0.15294330000E+03 0.  0.
<mgrwt>
<rscale>  0 0.11098614E+04</rscale>
<asrwt>0</asrwt>
<pdfrwt beam="1">  1        2 0.57478887E+00 0.11613567E+04</pdfrwt>
<pdfrwt beam="2">  1       -2 0.63833732E-01 0.11613567E+04</pdfrwt>
<totfact> 0.12672748E+00</totfact>
</mgrwt>
</event>
<event>
 4    5  0.7289609E-008  0.1203117E+04  0.7818608E-02  0.9154098E-01
         -2   -1    0    0    0  501 -0.00000000000E+00  0.00000000000E+00  0.67464430476E+03  0.67464430477E+03  0.25500000000E-02 0.  1.
          2   -1    0    0  501    0  0.00000000000E+00 -0.00000000000E+00 -0.18386396026E+04  0.18386396026E+04  0.25500000000E-02 0. -1.
    8880023    1    1    2    0    0  0.48379390296E+03 -0.88296360378E+03 -0.53824822850E+03  0.13180298282E+04  0.65864270000E+03 0.  1.
    8880022    1    1    2    0    0 -0.48379390296E+03  0.88296360378E+03 -0.62574706937E+03  0.11952540793E+04  0.15294330000E+03 0. -1.
<mgrwt>
<rscale>  0 0.11540036E+04</rscale>
<asrwt>0</asrwt>
<pdfrwt beam="1">  1        2 0.28286763E+00 0.12031174E+04</pdfrwt>
<pdfrwt beam="2">  1       -2 0.10379143E+00 0.12031174E+04</pdfrwt>
<totfact> 0.60665973E+00</totfact>
</mgrwt>
</event>
<event>
 4    5  0.7289609E-008  0.1915498E+04  0.7818608E-02  0.8661201E-01
          2   -1    0    0  501    0  0.00000000000E+00  0.00000000000E+00  0.48331726710E+04  0.48331726710E+04  0.25500000000E-02 0. -1.
         -2   -1    0    0    0  501 -0.00000000000E+00 -0.00000000000E+00 -0.11749811024E+04  0.11749811024E+04  0.25500000000E-02 0.  1.
    8880023    1    1    2    0    0  0.15408502995E+04 -0.92795665092E+03 -0.14770259882E+02  0.19155551567E+04  0.65864270000E+03 0.  0.
    8880022    1    1    2    0    0 -0.15408502995E+04  0.92795665092E+03  0.36729618284E+04  0.40925986167E+04  0.15294330000E+03 0.  0.
<mgrwt>
<rscale>  0 0.18873051E+04</rscale>
<asrwt>0</asrwt>
<pdfrwt beam="1">  1        2 0.74356501E+00 0.19154982E+04</pdfrwt>
<pdfrwt beam="2">  1       -2 0.18076633E+00 0.19154982E+04</pdfrwt>
<totfact> 0.89605239E-03</totfact>
</mgrwt>
</event>
<event>
 4    5  0.7289609E-008  0.6747155E+03  0.7818608E-02  0.1012486E+00
         -2   -1    0    0    0  501 -0.00000000000E+00  0.00000000000E+00  0.49888394986E+03  0.49888394986E+03  0.25500000000E-02 0.  1.
          2   -1    0    0  501    0  0.00000000000E+00 -0.00000000000E+00 -0.12680601268E+04  0.12680601268E+04  0.25500000000E-02 0. -1.
    8880023    1    1    2    0    0  0.14183781652E+03  0.36232923412E+02  0.25486489272E+03  0.72124691385E+03  0.65864270000E+03 0.  1.
    8880022    1    1    2    0    0 -0.14183781652E+03 -0.36232923412E+02 -0.10240410696E+04  0.10456971628E+04  0.15294330000E+03 0.  0.
<mgrwt>
<rscale>  0 0.50498381E+03</rscale>
<asrwt>0</asrwt>
<pdfrwt beam="1">  1        2 0.19508617E+00 0.67471549E+03</pdfrwt>
<pdfrwt beam="2">  1       -2 0.76751377E-01 0.67471549E+03</pdfrwt>
<totfact> 0.26930180E+01</totfact>
</mgrwt>
</event>
<event>
 4    5  0.7289609E-008  0.7789335E+03  0.7818608E-02  0.9758348E-01
         -2   -1    0    0    0  501 -0.00000000000E+00  0.00000000000E+00  0.62430502695E+03  0.62430502695E+03  0.25500000000E-02 0.  1.
          2   -1    0    0  501    0  0.00000000000E+00 -0.00000000000E+00 -0.12847617975E+04  0.12847617975E+04  0.25500000000E-02 0. -1.
    8880023    1    1    2    0    0  0.40631257910E+03  0.88528389337E+02  0.31303821504E+03  0.83948217253E+03  0.65864270000E+03 0.  1.
    8880022    1    1    2    0    0 -0.40631257910E+03 -0.88528389337E+02 -0.97349498559E+03  0.10695846519E+04  0.15294330000E+03 0.  0.
<mgrwt>
<rscale>  0 0.67646531E+03</rscale>
<asrwt>0</asrwt>
<pdfrwt beam="1">  1        2 0.19765566E+00 0.77893350E+03</pdfrwt>
<pdfrwt beam="2">  1       -2 0.96046928E-01 0.77893350E+03</pdfrwt>
<totfact> 0.15591200E+01</totfact>
</mgrwt>
</event>
<event>
 4    5  0.7289609E-008  0.6989427E+03  0.7818608E-02  0.1000162E+00
         -2   -1    0    0    0  501 -0.00000000000E+00  0.00000000000E+00  0.58152586201E+03  0.58152586201E+03  0.25500000000E-02 0.  1.
          2   -1    0    0  501    0  0.00000000000E+00 -0.00000000000E+00 -0.70597687052E+03  0.70597687052E+03  0.25500000000E-02 0. -1.
    8880023    1    1    2    0    0  0.66438976654E+02  0.22426892964E+03  0.31505534386E+03  0.76666861575E+03  0.65864270000E+03 0.  1.
    8880022    1    1    2    0    0 -0.66438976654E+02 -0.22426892964E+03 -0.43950635237E+03  0.52083411679E+03  0.15294330000E+03 0.  0.
<mgrwt>
<rscale>  0 0.55579443E+03</rscale>
<asrwt>0</asrwt>
<pdfrwt beam="1">  1        2 0.10861183E+00 0.69894270E+03</pdfrwt>
<pdfrwt beam="2">  1       -2 0.89465518E-01 0.69894270E+03</pdfrwt>
<totfact> 0.44178278E+01</totfact>
</mgrwt>
</event>
<event>
 4    5  0.7289609E-008  0.8678189E+03  0.7818608E-02  0.9579804E-01
         -2   -1    0    0    0  501 -0.00000000000E+00  0.00000000000E+00  0.23085643337E+04  0.23085643337E+04  0.25500000000E-02 0.  1.
          2   -1    0    0  501    0  0.00000000000E+00 -0.00000000000E+00 -0.41403206945E+03  0.41403206946E+03  0.25500000000E-02 0. -1.
    8880023    1    1    2    0    0  0.55019256890E+03  0.12879263524E+03  0.19501872990E+04  0.21345585289E+04  0.65864270000E+03 0.  0.
    8880022    1    1    2    0    0 -0.55019256890E+03 -0.12879263524E+03 -0.55655034683E+02  0.58803787434E+03  0.15294330000E+03 0.  0.
<mgrwt>
<rscale>  0 0.78647454E+03</rscale>
<asrwt>0</asrwt>
<pdfrwt beam="1">  1        2 0.63697242E-01 0.86781888E+03</pdfrwt>
<pdfrwt beam="2">  1       -2 0.35516374E+00 0.86781888E+03</pdfrwt>
<totfact> 0.11421705E+00</totfact>
</mgrwt>
</event>
<event>
 4    5  0.7289609E-008  0.1067336E+04  0.7818608E-02  0.9298326E-01
         -2   -1    0    0    0  501 -0.00000000000E+00  0.00000000000E+00  0.57961669535E+03  0.57961669536E+03  0.25500000000E-02 0.  1.
          2   -1    0    0  501    0  0.00000000000E+00 -0.00000000000E+00 -0.34422649255E+04  0.34422649255E+04  0.25500000000E-02 0. -1.
    8880023    1    1    2    0    0 -0.79274945148E+03  0.27738700886E+03 -0.34712495312E+02  0.10678999996E+04  0.65864270000E+03 0.  0.
    8880022    1    1    2    0    0  0.79274945148E+03 -0.27738700886E+03 -0.28279357348E+04  0.29539816213E+04  0.15294330000E+03 0.  0.
<mgrwt>
<rscale>  0 0.10093710E+04</rscale>
<asrwt>0</asrwt>
<pdfrwt beam="1">  1        2 0.52957921E+00 0.10673357E+04</pdfrwt>
<pdfrwt beam="2">  1       -2 0.89171801E-01 0.10673357E+04</pdfrwt>
<totfact> 0.98296110E-01</totfact>
</mgrwt>
</event>
<event>
 4    5  0.7535303E-008  0.1192703E+04  0.7818608E-02  0.9164248E-01
         -2   -1    0    0    0  501 -0.00000000000E+00  0.00000000000E+00  0.11399362630E+04  0.11399362630E+04  0.25500000000E-02 0.  1.
          2   -1    0    0  501    0  0.00000000000E+00 -0.00000000000E+00 -0.22501676168E+04  0.22501676168E+04  0.25500000000E-02 0. -1.
    8880023    1    1    2    0    0  0.94505623437E+03 -0.30919039020E+03  0.65321671587E+03  0.13598647976E+04  0.65864270000E+03 0.  1.
    8880022    1    1    2    0    0 -0.94505623437E+03  0.30919039020E+03 -0.17634480697E+04  0.20302390822E+04  0.15294330000E+03 0.  0.
<mgrwt>
<rscale>  0 0.11430186E+04</rscale>
<asrwt>0</asrwt>
<pdfrwt beam="1">  1        2 0.34617963E+00 0.11927029E+04</pdfrwt>
<pdfrwt beam="2">  1       -2 0.17537481E+00 0.11927029E+04</pdfrwt>
<totfact> 0.92086250E-01</totfact>
</mgrwt>
</event>
<event>
 4    5  0.7289609E-008  0.8207138E+03  0.7818608E-02  0.9667678E-01
         -2   -1    0    0    0  501 -0.00000000000E+00  0.00000000000E+00  0.91152921672E+03  0.91152921673E+03  0.25500000000E-02 0.  1.
          2   -1    0    0  501    0  0.00000000000E+00 -0.00000000000E+00 -0.18351211523E+04  0.18351211523E+04  0.25500000000E-02 0. -1.
    8880023    1    1    2    0    0 -0.14737665800E+03 -0.46694867606E+03  0.67823017882E+03  0.10646911886E+04  0.65864270000E+03 0.  0.
    8880022    1    1    2    0    0  0.14737665800E+03  0.46694867606E+03 -0.16018221144E+04  0.16819591804E+04  0.15294330000E+03 0.  0.
<mgrwt>
<rscale>  0 0.72974271E+03</rscale>
<asrwt>0</asrwt>
<pdfrwt beam="1">  1        2 0.28232633E+00 0.82071381E+03</pdfrwt>
<pdfrwt beam="2">  1       -2 0.14023526E+00 0.82071381E+03</pdfrwt>
<totfact> 0.30132403E+00</totfact>
</mgrwt>
</event>
<event>
 4    5  0.7289609E-008  0.1300617E+04  0.7818608E-02  0.9065027E-01
         -2   -1    0    0    0  501 -0.00000000000E+00  0.00000000000E+00  0.25037867169E+04  0.25037867169E+04  0.25500000000E-02 0.  1.
          2   -1    0    0  501    0  0.00000000000E+00 -0.00000000000E+00 -0.12781577102E+04  0.12781577102E+04  0.25500000000E-02 0. -1.
    8880023    1    1    2    0    0  0.48709941943E+03 -0.10102121625E+04  0.20176086868E+04  0.24004894245E+04  0.65864270000E+03 0.  0.
    8880022    1    1    2    0    0 -0.48709941943E+03  0.10102121625E+04 -0.79197968003E+03  0.13814550027E+04  0.15294330000E+03 0.  0.
<mgrwt>
<rscale>  0 0.12562139E+04</rscale>
<asrwt>0</asrwt>
<pdfrwt beam="1">  1        2 0.19663965E+00 0.13006170E+04</pdfrwt>
<pdfrwt beam="2">  1       -2 0.38519795E+00 0.13006170E+04</pdfrwt>
<totfact> 0.15292585E-01</totfact>
</mgrwt>
</event>
<event>
 4    5  0.7289609E-008  0.6628903E+03  0.7818608E-02  0.1021373E+00
          2   -1    0    0  501    0  0.00000000000E+00  0.00000000000E+00  0.14271941901E+04  0.14271941901E+04  0.25500000000E-02 0. -1.
         -2   -1    0    0    0  501 -0.00000000000E+00 -0.00000000000E+00 -0.25587562946E+03  0.25587562947E+03  0.25500000000E-02 0.  1.
    8880023    1    1    2    0    0 -0.36515488949E+02 -0.65421008001E+02  0.19353412183E+03  0.69056422713E+03  0.65864270000E+03 0.  1.
    8880022    1    1    2    0    0  0.36515488949E+02  0.65421008001E+02  0.97778443882E+03  0.99250559245E+03  0.15294330000E+03 0.  0.
<mgrwt>
<rscale>  0 0.47194374E+03</rscale>
<asrwt>0</asrwt>
<pdfrwt beam="1">  1        2 0.21956834E+00 0.66289026E+03</pdfrwt>
<pdfrwt beam="2">  1       -2 0.39365480E-01 0.66289026E+03</pdfrwt>
<totfact> 0.87481972E+01</totfact>
</mgrwt>
</event>
<event>
 4    5  0.7289609E-008  0.6967270E+03  0.7818608E-02  0.1001106E+00
         -2   -1    0    0    0  501 -0.00000000000E+00  0.00000000000E+00  0.59413853457E+03  0.59413853457E+03  0.25500000000E-02 0.  1.
          2   -1    0    0  501    0  0.00000000000E+00 -0.00000000000E+00 -0.25250409674E+04  0.25250409674E+04  0.25500000000E-02 0. -1.
    8880023    1    1    2    0    0  0.19617971427E+03 -0.11459427096E+03  0.37897150410E+03  0.79312542161E+03  0.65864270000E+03 0.  1.
    8880022    1    1    2    0    0 -0.19617971427E+03  0.11459427096E+03 -0.23098739369E+04  0.23260540803E+04  0.15294330000E+03 0.  0.
<mgrwt>
<rscale>  0 0.55167953E+03</rscale>
<asrwt>0</asrwt>
<pdfrwt beam="1">  1        2 0.38846784E+00 0.69672702E+03</pdfrwt>
<pdfrwt beam="2">  1       -2 0.91405929E-01 0.69672702E+03</pdfrwt>
<totfact> 0.36446830E+00</totfact>
</mgrwt>
</event>
<event>
 4    5  0.7289609E-008  0.1171029E+04  0.7818608E-02  0.9185811E-01
         -2   -1    0    0    0  501 -0.00000000000E+00  0.00000000000E+00  0.59939771567E+03  0.59939771567E+03  0.25500000000E-02 0.  1.
          2   -1    0    0  501    0  0.00000000000E+00 -0.00000000000E+00 -0.22427686053E+04  0.22427686053E+04  0.25500000000E-02 0. -1.
    8880023    1    1    2    0    0  0.49543484508E+03  0.83189170100E+03 -0.35574321480E+03  0.12238721049E+04  0.65864270000E+03 0.  0.
    8880022    1    1    2    0    0 -0.49543484508E+03 -0.83189170100E+03 -0.12876276748E+04  0.16182942161E+04  0.15294330000E+03 0.  1.
<mgrwt>
<rscale>  0 0.11201085E+04</rscale>
<asrwt>0</asrwt>
<pdfrwt beam="1">  1        2 0.34504132E+00 0.11710293E+04</pdfrwt>
<pdfrwt beam="2">  1       -2 0.92215034E-01 0.11710293E+04</pdfrwt>
<totfact> 0.48058290E+00</totfact>
</mgrwt>
</event>
<event>
 4    5  0.7289609E-008  0.1380727E+04  0.7818608E-02  0.8998805E-01
          2   -1    0    0  501    0  0.00000000000E+00  0.00000000000E+00  0.17452052280E+04  0.17452052280E+04  0.25500000000E-02 0. -1.
         -2   -1    0    0    0  501 -0.00000000000E+00 -0.00000000000E+00 -0.13932672381E+04  0.13932672381E+04  0.25500000000E-02 0.  1.
    8880023    1    1    2    0    0  0.77555024684E+03  0.93333771899E+03 -0.67917402465E+03  0.15387283857E+04  0.65864270000E+03 0.  0.
    8880022    1    1    2    0    0 -0.77555024684E+03 -0.93333771899E+03  0.10311120146E+04  0.15997440804E+04  0.15294330000E+03 0.  0.
<mgrwt>
<rscale>  0 0.13395131E+04</rscale>
<asrwt>0</asrwt>
<pdfrwt beam="1">  1        2 0.26849311E+00 0.13807272E+04</pdfrwt>
<pdfrwt beam="2">  1       -2 0.21434881E+00 0.13807272E+04</pdfrwt>
<totfact> 0.94501623E-01</totfact>
</mgrwt>
</event>
<event>
 4    5  0.7548903E-008  0.7873508E+03  0.7818608E-02  0.9738845E-01
          2   -1    0    0  501    0  0.00000000000E+00  0.00000000000E+00  0.16060350424E+04  0.16060350424E+04  0.25500000000E-02 0. -1.
         -2   -1    0    0    0  501 -0.00000000000E+00 -0.00000000000E+00 -0.15421846779E+04  0.15421846779E+04  0.25500000000E-02 0.  1.
    8880023    1    1    2    0    0 -0.41206258067E+03  0.12773227784E+03 -0.14045253592E+04  0.16101592456E+04  0.65864270000E+03 0.  0.
    8880022    1    1    2    0    0  0.41206258067E+03 -0.12773227784E+03  0.14683757237E+04  0.15380604748E+04  0.15294330000E+03 0.  0.
<mgrwt>
<rscale>  0 0.68750353E+03</rscale>
<asrwt>0</asrwt>
<pdfrwt beam="1">  1        2 0.24708231E+00 0.78735082E+03</pdfrwt>
<pdfrwt beam="2">  1       -2 0.23725918E+00 0.78735082E+03</pdfrwt>
<totfact> 0.88142194E-01</totfact>
</mgrwt>
</event>
<event>
 4    5  0.7289609E-008  0.8048632E+03  0.7818608E-02  0.9700378E-01
          2   -1    0    0  501    0  0.00000000000E+00  0.00000000000E+00  0.32843749937E+04  0.32843749937E+04  0.25500000000E-02 0. -1.
         -2   -1    0    0    0  501 -0.00000000000E+00 -0.00000000000E+00 -0.15324913105E+03  0.15324913108E+03  0.25500000000E-02 0.  1.
    8880023    1    1    2    0    0 -0.27282411858E+03 -0.37357949608E+03  0.11924354206E+04  0.14386476560E+04  0.65864270000E+03 0.  1.
    8880022    1    1    2    0    0  0.27282411858E+03  0.37357949608E+03  0.19386904421E+04  0.19989764688E+04  0.15294330000E+03 0.  0.
<mgrwt>
<rscale>  0 0.70994307E+03</rscale>
<asrwt>0</asrwt>
<pdfrwt beam="1">  1        2 0.50528844E+00 0.80486325E+03</pdfrwt>
<pdfrwt beam="2">  1       -2 0.23576790E-01 0.80486325E+03</pdfrwt>
<totfact> 0.19252009E+01</totfact>
</mgrwt>
</event>
<event>
 4    5  0.7289609E-008  0.9132174E+03  0.7818608E-02  0.9505138E-01
         -2   -1    0    0    0  501 -0.00000000000E+00  0.00000000000E+00  0.67496329203E+03  0.67496329204E+03  0.25500000000E-02 0.  1.
          2   -1    0    0  501    0  0.00000000000E+00 -0.00000000000E+00 -0.11856561389E+04  0.11856561389E+04  0.25500000000E-02 0. -1.
    8880023    1    1    2    0    0 -0.19743989443E+03  0.60097703087E+03  0.15881417440E+03  0.92692397304E+03  0.65864270000E+03 0. -1.
    8880022    1    1    2    0    0  0.19743989443E+03 -0.60097703087E+03 -0.66950702122E+03  0.93369545785E+03  0.15294330000E+03 0.  0.
<mgrwt>
<rscale>  0 0.83906078E+03</rscale>
<asrwt>0</asrwt>
<pdfrwt beam="1">  1        2 0.18240864E+00 0.91321745E+03</pdfrwt>
<pdfrwt beam="2">  1       -2 0.10384051E+00 0.91321745E+03</pdfrwt>
<totfact> 0.14610580E+01</totfact>
</mgrwt>
</event>
<event>
 4    5  0.7289609E-008  0.1293963E+04  0.7818608E-02  0.9070791E-01
         -2   -1    0    0    0  501 -0.00000000000E+00  0.00000000000E+00  0.12307155822E+04  0.12307155822E+04  0.25500000000E-02 0.  1.
          2   -1    0    0  501    0  0.00000000000E+00 -0.00000000000E+00 -0.13139790111E+04  0.13139790111E+04  0.25500000000E-02 0. -1.
    8880023    1    1    2    0    0  0.10854046826E+04  0.24985422031E+03  0.34901902989E+03  0.13402070534E+04  0.65864270000E+03 0.  0.
    8880022    1    1    2    0    0 -0.10854046826E+04 -0.24985422031E+03 -0.43228245877E+03  0.12044875399E+04  0.15294330000E+03 0.  0.
<mgrwt>
<rscale>  0 0.12492705E+04</rscale>
<asrwt>0</asrwt>
<pdfrwt beam="1">  1        2 0.20215062E+00 0.12939632E+04</pdfrwt>
<pdfrwt beam="2">  1       -2 0.18934086E+00 0.12939632E+04</pdfrwt>
<totfact> 0.24437709E+00</totfact>
</mgrwt>
</event>
<event>
 4    5  0.7289609E-008  0.6856304E+03  0.7818608E-02  0.1006303E+00
         -2   -1    0    0    0  501 -0.00000000000E+00  0.00000000000E+00  0.35829704888E+03  0.35829704889E+03  0.25500000000E-02 0.  1.
          2   -1    0    0  501    0  0.00000000000E+00 -0.00000000000E+00 -0.27516441068E+04  0.27516441068E+04  0.25500000000E-02 0. -1.
    8880023    1    1    2    0    0 -0.53319671559E+02 -0.18285457407E+03  0.18378136435E+02  0.68587662505E+03  0.65864270000E+03 0.  1.
    8880022    1    1    2    0    0  0.53319671559E+02  0.18285457407E+03 -0.24117251944E+04  0.24240645306E+04  0.15294330000E+03 0.  0.
<mgrwt>
<rscale>  0 0.52970910E+03</rscale>
<asrwt>0</asrwt>
<pdfrwt beam="1">  1        2 0.42332985E+00 0.68563036E+03</pdfrwt>
<pdfrwt beam="2">  1       -2 0.55122625E-01 0.68563036E+03</pdfrwt>
<totfact> 0.81833622E+00</totfact>
</mgrwt>
</event>
<event>
 4    5  0.7289609E-008  0.1353649E+04  0.7818608E-02  0.9020562E-01
          2   -1    0    0  501    0  0.00000000000E+00  0.00000000000E+00  0.20124164314E+04  0.20124164314E+04  0.25500000000E-02 0. -1.
         -2   -1    0    0    0  501 -0.00000000000E+00 -0.00000000000E+00 -0.10790306773E+04  0.10790306773E+04  0.25500000000E-02 0.  1.
    8880023    1    1    2    0    0 -0.13631439535E+03 -0.11747228875E+04  0.12660683841E+04  0.18534548380E+04  0.65864270000E+03 0. -1.
    8880022    1    1    2    0    0  0.13631439535E+03  0.11747228875E+04 -0.33268263002E+03  0.12379922706E+04  0.15294330000E+03 0.  0.
<mgrwt>
<rscale>  0 0.13114145E+04</rscale>
<asrwt>0</asrwt>
<pdfrwt beam="1">  1        2 0.30960252E+00 0.13536490E+04</pdfrwt>
<pdfrwt beam="2">  1       -2 0.16600472E+00 0.13536490E+04</pdfrwt>
<totfact> 0.14314131E+00</totfact>
</mgrwt>
</event>
<event>
 4    5  0.7289609E-008  0.8009974E+03  0.7818608E-02  0.9708644E-01
         -2   -1    0    0    0  501 -0.00000000000E+00  0.00000000000E+00  0.21749660639E+04  0.21749660639E+04  0.25500000000E-02 0.  1.
          2   -1    0    0  501    0  0.00000000000E+00 -0.00000000000E+00 -0.48482341238E+03  0.48482341238E+03  0.25500000000E-02 0. -1.
    8880023    1    1    2    0    0 -0.43967077022E+03  0.12031758190E+03  0.19536691110E+04  0.21114970775E+04  0.65864270000E+03 0.  1.
    8880022    1    1    2    0    0  0.43967077022E+03 -0.12031758190E+03 -0.26352645949E+03  0.54829239878E+03  0.15294330000E+03 0.  0.
<mgrwt>
<rscale>  0 0.70504485E+03</rscale>
<asrwt>0</asrwt>
<pdfrwt beam="1">  1        2 0.74588218E-01 0.80099745E+03</pdfrwt>
<pdfrwt beam="2">  1       -2 0.33461016E+00 0.80099745E+03</pdfrwt>
<totfact> 0.12915896E+00</totfact>
</mgrwt>
</event>
<event>
 4    5  0.7289609E-008  0.9429478E+03  0.7818608E-02  0.9460334E-01
         -2   -1    0    0    0  501 -0.00000000000E+00  0.00000000000E+00  0.14143484278E+04  0.14143484278E+04  0.25500000000E-02 0.  1.
          2   -1    0    0  501    0  0.00000000000E+00 -0.00000000000E+00 -0.11639088855E+04  0.11639088855E+04  0.25500000000E-02 0. -1.
    8880023    1    1    2    0    0  0.66590406101E+03  0.10914279940E+03  0.11218890971E+04  0.14655325726E+04  0.65864270000E+03 0.  1.
    8880022    1    1    2    0    0 -0.66590406101E+03 -0.10914279940E+03 -0.87144955475E+03  0.11127247407E+04  0.15294330000E+03 0.  0.
<mgrwt>
<rscale>  0 0.87272477E+03</rscale>
<asrwt>0</asrwt>
<pdfrwt beam="1">  1        2 0.17906291E+00 0.94294781E+03</pdfrwt>
<pdfrwt beam="2">  1       -2 0.21759206E+00 0.94294781E+03</pdfrwt>
<totfact> 0.20399871E+00</totfact>
</mgrwt>
</event>
<event>
 4    5  0.7289609E-008  0.8484121E+03  0.7818608E-02  0.9614518E-01
          2   -1    0    0  501    0  0.00000000000E+00  0.00000000000E+00  0.36798686318E+04  0.36798686318E+04  0.25500000000E-02 0. -1.
         -2   -1    0    0    0  501 -0.00000000000E+00 -0.00000000000E+00 -0.72902007227E+03  0.72902007227E+03  0.25500000000E-02 0.  1.
    8880023    1    1    2    0    0  0.49449763050E+03 -0.20362934721E+03 -0.45170852269E+03  0.96116783828E+03  0.65864270000E+03 0.  0.
    8880022    1    1    2    0    0 -0.49449763050E+03  0.20362934721E+03  0.34025570822E+04  0.34477208658E+04  0.15294330000E+03 0.  0.
<mgrwt>
<rscale>  0 0.76342687E+03</rscale>
<asrwt>0</asrwt>
<pdfrwt beam="1">  1        2 0.56613364E+00 0.84841206E+03</pdfrwt>
<pdfrwt beam="2">  1       -2 0.11215693E+00 0.84841206E+03</pdfrwt>
<totfact> 0.40569192E-01</totfact>
</mgrwt>
</event>
<event>
 4    5  0.7289609E-008  0.8083263E+03  0.7818608E-02  0.9693074E-01
         -2   -1    0    0    0  501 -0.00000000000E+00  0.00000000000E+00  0.22663120231E+04  0.22663120231E+04  0.25500000000E-02 0.  1.
          2   -1    0    0  501    0  0.00000000000E+00 -0.00000000000E+00 -0.69598093124E+03  0.69598093125E+03  0.25500000000E-02 0. -1.
    8880023    1    1    2    0    0 -0.31085718192E+03  0.35064091279E+03  0.20931122994E+04  0.22437714993E+04  0.65864270000E+03 0.  1.
    8880022    1    1    2    0    0  0.31085718192E+03 -0.35064091279E+03 -0.52278120754E+03  0.71852145497E+03  0.15294330000E+03 0.  0.
<mgrwt>
<rscale>  0 0.71430677E+03</rscale>
<asrwt>0</asrwt>
<pdfrwt beam="1">  1        2 0.10707399E+00 0.80832632E+03</pdfrwt>
<pdfrwt beam="2">  1       -2 0.34866339E+00 0.80832632E+03</pdfrwt>
<totfact> 0.68352016E-01</totfact>
</mgrwt>
</event>
<event>
 4    5  0.7289609E-008  0.8170875E+03  0.7818608E-02  0.9674999E-01
          2   -1    0    0  501    0  0.00000000000E+00  0.00000000000E+00  0.18334291313E+04  0.18334291313E+04  0.25500000000E-02 0. -1.
         -2   -1    0    0    0  501 -0.00000000000E+00 -0.00000000000E+00 -0.50925989853E+03  0.50925989854E+03  0.25500000000E-02 0.  1.
    8880023    1    1    2    0    0  0.33650273435E+03 -0.34725731592E+03 -0.10723460988E+03  0.82409417029E+03  0.65864270000E+03 0.  0.
    8880022    1    1    2    0    0 -0.33650273435E+03  0.34725731592E+03  0.14314038426E+04  0.15185948595E+04  0.15294330000E+03 0.  0.
<mgrwt>
<rscale>  0 0.72525062E+03</rscale>
<asrwt>0</asrwt>
<pdfrwt beam="1">  1        2 0.28206601E+00 0.81708747E+03</pdfrwt>
<pdfrwt beam="2">  1       -2 0.78347678E-01 0.81708747E+03</pdfrwt>
<totfact> 0.12239455E+01</totfact>
</mgrwt>
</event>
<event>
 4    5  0.7289609E-008  0.9291057E+03  0.7818608E-02  0.9480836E-01
         -2   -1    0    0    0  501 -0.00000000000E+00  0.00000000000E+00  0.25086808985E+04  0.25086808985E+04  0.25500000000E-02 0.  1.
          2   -1    0    0  501    0  0.00000000000E+00 -0.00000000000E+00 -0.57990801905E+03  0.57990801905E+03  0.25500000000E-02 0. -1.
    8880023    1    1    2    0    0 -0.49195894036E+03 -0.43290131036E+03  0.21804487868E+04  0.23701464641E+04  0.65864270000E+03 0.  1.
    8880022    1    1    2    0    0  0.49195894036E+03  0.43290131036E+03 -0.25167590732E+03  0.71844245340E+03  0.15294330000E+03 0.  0.
<mgrwt>
<rscale>  0 0.85711558E+03</rscale>
<asrwt>0</asrwt>
<pdfrwt beam="1">  1        2 0.89216618E-01 0.92910567E+03</pdfrwt>
<pdfrwt beam="2">  1       -2 0.38595091E+00 0.92910567E+03</pdfrwt>
<totfact> 0.48733183E-01</totfact>
</mgrwt>
</event>
<event>
 4    5  0.7289609E-008  0.1011433E+04  0.7818608E-02  0.9366751E-01
          2   -1    0    0  501    0  0.00000000000E+00  0.00000000000E+00  0.52514146317E+04  0.52514146317E+04  0.25500000000E-02 0. -1.
         -2   -1    0    0    0  501 -0.00000000000E+00 -0.00000000000E+00 -0.25371718298E+03  0.25371718299E+03  0.25500000000E-02 0.  1.
    8880023    1    1    2    0    0 -0.76294987072E+03  0.84222568720E+02  0.96757667304E+03  0.13997145319E+04  0.65864270000E+03 0.  1.
    8880022    1    1    2    0    0  0.76294987072E+03 -0.84222568720E+02  0.40301207756E+04  0.41054172828E+04  0.15294330000E+03 0.  0.
<mgrwt>
<rscale>  0 0.94863226E+03</rscale>
<asrwt>0</asrwt>
<pdfrwt beam="1">  1        2 0.80790995E+00 0.10114327E+04</pdfrwt>
<pdfrwt beam="2">  1       -2 0.39033412E-01 0.10114327E+04</pdfrwt>
<totfact> 0.10765396E-01</totfact>
</mgrwt>
</event>
<event>
 4    5  0.7289609E-008  0.8269815E+03  0.7818608E-02  0.9655234E-01
          2   -1    0    0  501    0  0.00000000000E+00  0.00000000000E+00  0.21281803047E+04  0.21281803047E+04  0.25500000000E-02 0. -1.
         -2   -1    0    0    0  501 -0.00000000000E+00 -0.00000000000E+00 -0.38609167499E+03  0.38609167500E+03  0.25500000000E-02 0.  1.
    8880023    1    1    2    0    0 -0.19260976385E+03  0.46150802973E+03  0.15257048896E+03  0.84093765703E+03  0.65864270000E+03 0.  1.
    8880022    1    1    2    0    0  0.19260976385E+03 -0.46150802973E+03  0.15895181407E+04  0.16733343227E+04  0.15294330000E+03 0.  0.
<mgrwt>
<rscale>  0 0.73745837E+03</rscale>
<asrwt>0</asrwt>
<pdfrwt beam="1">  1        2 0.32741235E+00 0.82698149E+03</pdfrwt>
<pdfrwt beam="2">  1       -2 0.59398720E-01 0.82698149E+03</pdfrwt>
<totfact> 0.15389718E+01</totfact>
</mgrwt>
</event>
<event>
 4    5  0.7289609E-008  0.1658484E+04  0.7818608E-02  0.8805142E-01
         -2   -1    0    0    0  501 -0.00000000000E+00  0.00000000000E+00  0.12666930416E+04  0.12666930416E+04  0.25500000000E-02 0.  1.
          2   -1    0    0  501    0  0.00000000000E+00 -0.00000000000E+00 -0.21275428835E+04  0.21275428835E+04  0.25500000000E-02 0. -1.
    8880023    1    1    2    0    0 -0.12401031546E+04 -0.88255485204E+03 -0.85183372850E+03  0.18644542923E+04  0.65864270000E+03 0.  0.
    8880022    1    1    2    0    0  0.12401031546E+04  0.88255485204E+03 -0.90161134611E+01  0.15297816328E+04  0.15294330000E+03 0.  0.
<mgrwt>
<rscale>  0 0.16253202E+04</rscale>
<asrwt>0</asrwt>
<pdfrwt beam="1">  1        2 0.32731429E+00 0.16584840E+04</pdfrwt>
<pdfrwt beam="2">  1       -2 0.19487585E+00 0.16584840E+04</pdfrwt>
<totfact> 0.75461586E-01</totfact>
</mgrwt>
</event>
<event>
 4    5  0.7289609E-008  0.1048758E+04  0.7818608E-02  0.9320375E-01
          2   -1    0    0  501    0  0.00000000000E+00  0.00000000000E+00  0.25952435907E+04  0.25952435907E+04  0.25500000000E-02 0. -1.
         -2   -1    0    0    0  501 -0.00000000000E+00 -0.00000000000E+00 -0.46413493099E+03  0.46413493099E+03  0.25500000000E-02 0.  1.
    8880023    1    1    2    0    0  0.81513449609E+03  0.40494704746E+02  0.36961147636E+03  0.11119833261E+04  0.65864270000E+03 0.  0.
    8880022    1    1    2    0    0 -0.81513449609E+03 -0.40494704746E+02  0.17614971834E+04  0.19473951956E+04  0.15294330000E+03 0.  0.
<mgrwt>
<rscale>  0 0.98928512E+03</rscale>
<asrwt>0</asrwt>
<pdfrwt beam="1">  1        2 0.39926824E+00 0.10487584E+04</pdfrwt>
<pdfrwt beam="2">  1       -2 0.71405374E-01 0.10487584E+04</pdfrwt>
<totfact> 0.54859371E+00</totfact>
</mgrwt>
</event>
<event>
 4    5  0.7289609E-008  0.7287572E+03  0.7818608E-02  0.9893997E-01
          2   -1    0    0  501    0  0.00000000000E+00  0.00000000000E+00  0.13352903422E+04  0.13352903422E+04  0.25500000000E-02 0. -1.
         -2   -1    0    0    0  501 -0.00000000000E+00 -0.00000000000E+00 -0.28660745304E+03  0.28660745305E+03  0.25500000000E-02 0.  1.
    8880023    1    1    2    0    0 -0.31001867533E+03 -0.34136734833E+02  0.28423440990E+03  0.78222522444E+03  0.65864270000E+03 0.  0.
    8880022    1    1    2    0    0  0.31001867533E+03  0.34136734833E+02  0.76444847925E+03  0.83967257080E+03  0.15294330000E+03 0.  0.
<mgrwt>
<rscale>  0 0.60553105E+03</rscale>
<asrwt>0</asrwt>
<pdfrwt beam="1">  1        2 0.20542928E+00 0.72875723E+03</pdfrwt>
<pdfrwt beam="2">  1       -2 0.44093454E-01 0.72875723E+03</pdfrwt>
<totfact> 0.78420843E+01</totfact>
</mgrwt>
</event>
<event>
 4    5  0.7289609E-008  0.7224106E+03  0.7818608E-02  0.9914512E-01
          2   -1    0    0  501    0  0.00000000000E+00  0.00000000000E+00  0.16412806980E+04  0.16412806980E+04  0.25500000000E-02 0. -1.
         -2   -1    0    0    0  501 -0.00000000000E+00 -0.00000000000E+00 -0.66725767617E+03  0.66725767618E+03  0.25500000000E-02 0.  1.
    8880023    1    1    2    0    0  0.67485867007E+02  0.28898524055E+03 -0.44653539869E+03  0.84927668050E+03  0.65864270000E+03 0.  1.
    8880022    1    1    2    0    0 -0.67485867007E+02 -0.28898524055E+03  0.14205584205E+04  0.14592616937E+04  0.15294330000E+03 0.  0.
<mgrwt>
<rscale>  0 0.59563087E+03</rscale>
<asrwt>0</asrwt>
<pdfrwt beam="1">  1        2 0.25250472E+00 0.72241056E+03</pdfrwt>
<pdfrwt beam="2">  1       -2 0.10265503E+00 0.72241056E+03</pdfrwt>
<totfact> 0.84658749E+00</totfact>
</mgrwt>
</event>
<event>
 4    5  0.7289609E-008  0.6862138E+03  0.7818608E-02  0.1006007E+00
          2   -1    0    0  501    0  0.00000000000E+00  0.00000000000E+00  0.14454307842E+04  0.14454307842E+04  0.25500000000E-02 0. -1.
         -2   -1    0    0    0  501 -0.00000000000E+00 -0.00000000000E+00 -0.47165943597E+03  0.47165943597E+03  0.25500000000E-02 0.  1.
    8880023    1    1    2    0    0 -0.72918920128E+02  0.17821915574E+03 -0.20243692304E+03  0.71545101192E+03  0.65864270000E+03 0.  1.
    8880022    1    1    2    0    0  0.72918920128E+02 -0.17821915574E+03  0.11762082712E+04  0.12016392082E+04  0.15294330000E+03 0.  0.
<mgrwt>
<rscale>  0 0.53093078E+03</rscale>
<asrwt>0</asrwt>
<pdfrwt beam="1">  1        2 0.22237396E+00 0.68621385E+03</pdfrwt>
<pdfrwt beam="2">  1       -2 0.72562991E-01 0.68621385E+03</pdfrwt>
<totfact> 0.24137427E+01</totfact>
</mgrwt>
</event>
<event>
 4    5  0.8616591E-008  0.9151509E+03  0.7818608E-02  0.9502135E-01
         -2   -1    0    0    0  501 -0.00000000000E+00  0.00000000000E+00  0.14811276547E+04  0.14811276547E+04  0.25500000000E-02 0.  1.
          2   -1    0    0  501    0  0.00000000000E+00 -0.00000000000E+00 -0.17591479768E+04  0.17591479768E+04  0.25500000000E-02 0. -1.
    8880023    1    1    2    0    0 -0.30220180907E+03 -0.55889618213E+03  0.12668752413E+04  0.15628416296E+04  0.65864270000E+03 0.  0.
    8880022    1    1    2    0    0  0.30220180907E+03  0.55889618213E+03 -0.15448955635E+04  0.16774340019E+04  0.15294330000E+03 0.  0.
<mgrwt>
<rscale>  0 0.84126630E+03</rscale>
<asrwt>0</asrwt>
<pdfrwt beam="1">  1        2 0.27063815E+00 0.91515085E+03</pdfrwt>
<pdfrwt beam="2">  1       -2 0.22786579E+00 0.91515085E+03</pdfrwt>
<totfact> 0.81092866E-01</totfact>
</mgrwt>
</event>
<event>
 4    5  0.7289609E-008  0.6774981E+03  0.7818608E-02  0.1010776E+00
          2   -1    0    0  501    0  0.00000000000E+00  0.00000000000E+00  0.60232019255E+03  0.60232019255E+03  0.25500000000E-02 0. -1.
         -2   -1    0    0    0  501 -0.00000000000E+00 -0.00000000000E+00 -0.19198901509E+04  0.19198901509E+04  0.25500000000E-02 0.  1.
    8880023    1    1    2    0    0 -0.93847130456E+02 -0.12800834760E+03 -0.18369980063E+04  0.19579492594E+04  0.65864270000E+03 0.  1.
    8880022    1    1    2    0    0  0.93847130456E+02  0.12800834760E+03  0.51942804796E+03  0.56426108405E+03  0.15294330000E+03 0.  0.
<mgrwt>
<rscale>  0 0.51167465E+03</rscale>
<asrwt>0</asrwt>
<pdfrwt beam="1">  1        2 0.92664646E-01 0.67749806E+03</pdfrwt>
<pdfrwt beam="2">  1       -2 0.29536771E+00 0.67749806E+03</pdfrwt>
<totfact> 0.17656065E+00</totfact>
</mgrwt>
</event>
<event>
 4    5  0.7994546E-008  0.8846087E+03  0.7818608E-02  0.9551206E-01
          2   -1    0    0  501    0  0.00000000000E+00  0.00000000000E+00  0.27297711197E+04  0.27297711197E+04  0.25500000000E-02 0. -1.
         -2   -1    0    0    0  501 -0.00000000000E+00 -0.00000000000E+00 -0.13808798398E+04  0.13808798398E+04  0.25500000000E-02 0.  1.
    8880023    1    1    2    0    0 -0.13298488235E+03  0.57535840213E+03 -0.11994175175E+04  0.14903472271E+04  0.65864270000E+03 0.  1.
    8880022    1    1    2    0    0  0.13298488235E+03 -0.57535840213E+03  0.25483087974E+04  0.26203037323E+04  0.15294330000E+03 0.  0.
<mgrwt>
<rscale>  0 0.80611663E+03</rscale>
<asrwt>0</asrwt>
<pdfrwt beam="1">  1        2 0.41996478E+00 0.88460866E+03</pdfrwt>
<pdfrwt beam="2">  1       -2 0.21244306E+00 0.88460866E+03</pdfrwt>
<totfact> 0.29150285E-01</totfact>
</mgrwt>
</event>
<event>
 4    5  0.7289609E-008  0.7801071E+03  0.7818608E-02  0.9755585E-01
          2   -1    0    0  501    0  0.00000000000E+00  0.00000000000E+00  0.65130255824E+03  0.65130255824E+03  0.25500000000E-02 0. -1.
         -2   -1    0    0    0  501 -0.00000000000E+00 -0.00000000000E+00 -0.21305747329E+04  0.21305747329E+04  0.25500000000E-02 0.  1.
    8880023    1    1    2    0    0  0.35071960936E+03 -0.22749207840E+03 -0.19702985256E+04  0.21191138187E+04  0.65864270000E+03 0.  0.
    8880022    1    1    2    0    0 -0.35071960936E+03  0.22749207840E+03  0.49102635095E+03  0.66276347249E+03  0.15294330000E+03 0.  0.
<mgrwt>
<rscale>  0 0.67801536E+03</rscale>
<asrwt>0</asrwt>
<pdfrwt beam="1">  1        2 0.10020039E+00 0.78010711E+03</pdfrwt>
<pdfrwt beam="2">  1       -2 0.32778073E+00 0.78010711E+03</pdfrwt>
<totfact> 0.10036285E+00</totfact>
</mgrwt>
</event>
<event>
 4    5  0.7289609E-008  0.1065048E+04  0.7818608E-02  0.9301007E-01
         -2   -1    0    0    0  501 -0.00000000000E+00  0.00000000000E+00  0.71831310229E+03  0.71831310229E+03  0.25500000000E-02 0.  1.
          2   -1    0    0  501    0  0.00000000000E+00 -0.00000000000E+00 -0.22493400182E+04  0.22493400183E+04  0.25500000000E-02 0. -1.
    8880023    1    1    2    0    0  0.96293919043E+02  0.83141072730E+03 -0.17859907524E+04  0.20794445148E+04  0.65864270000E+03 0.  0.
    8880022    1    1    2    0    0 -0.96293919043E+02 -0.83141072730E+03  0.25496383647E+03  0.88820860569E+03  0.15294330000E+03 0.  0.
<mgrwt>
<rscale>  0 0.10069020E+04</rscale>
<asrwt>0</asrwt>
<pdfrwt beam="1">  1        2 0.34605231E+00 0.10650477E+04</pdfrwt>
<pdfrwt beam="2">  1       -2 0.11050971E+00 0.10650477E+04</pdfrwt>
<totfact> 0.31307620E+00</totfact>
</mgrwt>
</event>
<event>
 4    5  0.7289609E-008  0.2285193E+04  0.7818608E-02  0.8493084E-01
          2   -1    0    0  501    0  0.00000000000E+00  0.00000000000E+00  0.38751122717E+04  0.38751122717E+04  0.25500000000E-02 0. -1.
         -2   -1    0    0    0  501 -0.00000000000E+00 -0.00000000000E+00 -0.13984042978E+04  0.13984042978E+04  0.25500000000E-02 0.  1.
    8880023    1    1    2    0    0 -0.21876987244E+04  0.47653424224E+02  0.54183429220E+03  0.23485508647E+04  0.65864270000E+03 0.  1.
    8880022    1    1    2    0    0  0.21876987244E+04 -0.47653424224E+02  0.19348736816E+04  0.29249657048E+04  0.15294330000E+03 0.  0.
<mgrwt>
<rscale>  0 0.22619309E+04</rscale>
<asrwt>0</asrwt>
<pdfrwt beam="1">  1        2 0.59617111E+00 0.22851929E+04</pdfrwt>
<pdfrwt beam="2">  1       -2 0.21513912E+00 0.22851929E+04</pdfrwt>
<totfact> 0.39589237E-02</totfact>
</mgrwt>
</event>
<event>
 4    5  0.7289609E-008  0.8827072E+03  0.7818608E-02  0.9554382E-01
          2   -1    0    0  501    0  0.00000000000E+00  0.00000000000E+00  0.23418349211E+04  0.23418349211E+04  0.25500000000E-02 0. -1.
         -2   -1    0    0    0  501 -0.00000000000E+00 -0.00000000000E+00 -0.69407341878E+03  0.69407341879E+03  0.25500000000E-02 0.  1.
    8880023    1    1    2    0    0 -0.38538016992E+03 -0.44367101852E+03 -0.34873918005E+03  0.94910013698E+03  0.65864270000E+03 0.  1.
    8880022    1    1    2    0    0  0.38538016992E+03  0.44367101852E+03  0.19965006824E+04  0.20868082029E+04  0.15294330000E+03 0.  0.
<mgrwt>
<rscale>  0 0.80390463E+03</rscale>
<asrwt>0</asrwt>
<pdfrwt beam="1">  1        2 0.36028229E+00 0.88270723E+03</pdfrwt>
<pdfrwt beam="2">  1       -2 0.10678053E+00 0.88270723E+03</pdfrwt>
<totfact> 0.30977035E+00</totfact>
</mgrwt>
</event>
<event>
 4    5  0.7289609E-008  0.2016121E+04  0.7818608E-02  0.8611558E-01
          2   -1    0    0  501    0  0.00000000000E+00  0.00000000000E+00  0.29915959816E+04  0.29915959816E+04  0.25500000000E-02 0. -1.
         -2   -1    0    0    0  501 -0.00000000000E+00 -0.00000000000E+00 -0.15168002190E+04  0.15168002190E+04  0.25500000000E-02 0.  1.
    8880023    1    1    2    0    0  0.17597411326E+04 -0.73091935688E+03 -0.11884236012E+03  0.20196201803E+04  0.65864270000E+03 0.  0.
    8880022    1    1    2    0    0 -0.17597411326E+04  0.73091935688E+03  0.15936381227E+04  0.24887760203E+04  0.15294330000E+03 0.  0.
<mgrwt>
<rscale>  0 0.19894739E+04</rscale>
<asrwt>0</asrwt>
<pdfrwt beam="1">  1        2 0.46024553E+00 0.20161206E+04</pdfrwt>
<pdfrwt beam="2">  1       -2 0.23335388E+00 0.20161206E+04</pdfrwt>
<totfact> 0.12755946E-01</totfact>
</mgrwt>
</event>
<event>
 4    5  0.7289609E-008  0.2046366E+04  0.7818608E-02  0.8597258E-01
         -2   -1    0    0    0  501 -0.00000000000E+00  0.00000000000E+00  0.15132360517E+04  0.15132360517E+04  0.25500000000E-02 0.  1.
          2   -1    0    0  501    0  0.00000000000E+00 -0.00000000000E+00 -0.30360795628E+04  0.30360795628E+04  0.25500000000E-02 0. -1.
    8880023    1    1    2    0    0  0.15470756523E+04  0.11663441261E+04  0.53258480003E+02  0.20470584667E+04  0.65864270000E+03 0.  0.
    8880022    1    1    2    0    0 -0.15470756523E+04 -0.11663441261E+04 -0.15761019911E+04  0.25022571478E+04  0.15294330000E+03 0.  0.
<mgrwt>
<rscale>  0 0.20201497E+04</rscale>
<asrwt>0</asrwt>
<pdfrwt beam="1">  1        2 0.46708916E+00 0.20463655E+04</pdfrwt>
<pdfrwt beam="2">  1       -2 0.23280555E+00 0.20463655E+04</pdfrwt>
<totfact> 0.12019564E-01</totfact>
</mgrwt>
</event>
<event>
 4    5  0.7289609E-008  0.1267113E+04  0.7818608E-02  0.9094493E-01
         -2   -1    0    0    0  501 -0.00000000000E+00  0.00000000000E+00  0.27185042972E+04  0.27185042972E+04  0.25500000000E-02 0.  1.
          2   -1    0    0  501    0  0.00000000000E+00 -0.00000000000E+00 -0.80399948292E+03  0.80399948292E+03  0.25500000000E-02 0. -1.
    8880023    1    1    2    0    0 -0.54599436916E+03 -0.93469482808E+03  0.20611439683E+04  0.24194811297E+04  0.65864270000E+03 0.  0.
    8880022    1    1    2    0    0  0.54599436916E+03  0.93469482808E+03 -0.14663915401E+03  0.11030226504E+04  0.15294330000E+03 0.  0.
<mgrwt>
<rscale>  0 0.12212076E+04</rscale>
<asrwt>0</asrwt>
<pdfrwt beam="1">  1        2 0.12369223E+00 0.12671127E+04</pdfrwt>
<pdfrwt beam="2">  1       -2 0.41823144E+00 0.12671127E+04</pdfrwt>
<totfact> 0.18885551E-01</totfact>
</mgrwt>
</event>
<event>
 4    5  0.7289609E-008  0.7856621E+03  0.7818608E-02  0.9742701E-01
          2   -1    0    0  501    0  0.00000000000E+00  0.00000000000E+00  0.12845064756E+04  0.12845064756E+04  0.25500000000E-02 0. -1.
         -2   -1    0    0    0  501 -0.00000000000E+00 -0.00000000000E+00 -0.14669537804E+04  0.14669537804E+04  0.25500000000E-02 0.  1.
    8880023    1    1    2    0    0 -0.38832062878E+03 -0.18072591020E+03 -0.13145380532E+04  0.15314291577E+04  0.65864270000E+03 0.  0.
    8880022    1    1    2    0    0  0.38832062878E+03  0.18072591020E+03  0.11320907484E+04  0.12200310984E+04  0.15294330000E+03 0.  0.
<mgrwt>
<rscale>  0 0.68530336E+03</rscale>
<asrwt>0</asrwt>
<pdfrwt beam="1">  1        2 0.19761638E+00 0.78566212E+03</pdfrwt>
<pdfrwt beam="2">  1       -2 0.22568520E+00 0.78566212E+03</pdfrwt>
<totfact> 0.15770655E+00</totfact>
</mgrwt>
</event>
<event>
 4    5  0.7491072E-008  0.1154217E+04  0.7818608E-02  0.9202964E-01
          2   -1    0    0  501    0  0.00000000000E+00  0.00000000000E+00  0.23725420411E+04  0.23725420411E+04  0.25500000000E-02 0. -1.
         -2   -1    0    0    0  501 -0.00000000000E+00 -0.00000000000E+00 -0.16708979603E+04  0.16708979603E+04  0.25500000000E-02 0.  1.
    8880023    1    1    2    0    0 -0.78042401262E+03  0.53790872966E+03 -0.13512647377E+04  0.17771139633E+04  0.65864270000E+03 0.  1.
    8880022    1    1    2    0    0  0.78042401262E+03 -0.53790872966E+03  0.20529088185E+04  0.22663260382E+04  0.15294330000E+03 0.  0.
<mgrwt>
<rscale>  0 0.11022884E+04</rscale>
<asrwt>0</asrwt>
<pdfrwt beam="1">  1        2 0.36500647E+00 0.11542173E+04</pdfrwt>
<pdfrwt beam="2">  1       -2 0.25706122E+00 0.11542173E+04</pdfrwt>
<totfact> 0.23576150E-01</totfact>
</mgrwt>
</event>
<event>
 4    5  0.7289609E-008  0.6877067E+03  0.7818608E-02  0.1005262E+00
          2   -1    0    0  501    0  0.00000000000E+00  0.00000000000E+00  0.14108191003E+04  0.14108191003E+04  0.25500000000E-02 0. -1.
         -2   -1    0    0    0  501 -0.00000000000E+00 -0.00000000000E+00 -0.92354044285E+03  0.92354044286E+03  0.25500000000E-02 0.  1.
    8880023    1    1    2    0    0 -0.18201089386E+02  0.19697476344E+03 -0.78160166365E+03  0.10410771844E+04  0.65864270000E+03 0.  0.
    8880022    1    1    2    0    0  0.18201089386E+02 -0.19697476344E+03  0.12688803211E+04  0.12932823588E+04  0.15294330000E+03 0.  0.
<mgrwt>
<rscale>  0 0.53401881E+03</rscale>
<asrwt>0</asrwt>
<pdfrwt beam="1">  1        2 0.21704909E+00 0.68770673E+03</pdfrwt>
<pdfrwt beam="2">  1       -2 0.14208315E+00 0.68770673E+03</pdfrwt>
<totfact> 0.50992689E+00</totfact>
</mgrwt>
</event>
<event>
 4    5  0.7289609E-008  0.9282877E+03  0.7818608E-02  0.9482067E-01
          2   -1    0    0  501    0  0.00000000000E+00  0.00000000000E+00  0.15112499354E+04  0.15112499354E+04  0.25500000000E-02 0. -1.
         -2   -1    0    0    0  501 -0.00000000000E+00 -0.00000000000E+00 -0.72151475803E+03  0.72151475803E+03  0.25500000000E-02 0.  1.
    8880023    1    1    2    0    0 -0.63718922124E+03  0.14797914809E+03 -0.27998604149E+03  0.96959286385E+03  0.65864270000E+03 0.  0.
    8880022    1    1    2    0    0  0.63718922124E+03 -0.14797914809E+03  0.10697212188E+04  0.12631718296E+04  0.15294330000E+03 0.  0.
<mgrwt>
<rscale>  0 0.85618986E+03</rscale>
<asrwt>0</asrwt>
<pdfrwt beam="1">  1        2 0.23249999E+00 0.92828775E+03</pdfrwt>
<pdfrwt beam="2">  1       -2 0.11100227E+00 0.92828775E+03</pdfrwt>
<totfact> 0.80599107E+00</totfact>
</mgrwt>
</event>
<event>
 4    5  0.7289609E-008  0.1286551E+04  0.7818608E-02  0.9077262E-01
          2   -1    0    0  501    0  0.00000000000E+00  0.00000000000E+00  0.10951048725E+04  0.10951048725E+04  0.25500000000E-02 0. -1.
         -2   -1    0    0    0  501 -0.00000000000E+00 -0.00000000000E+00 -0.14607604565E+04  0.14607604565E+04  0.25500000000E-02 0.  1.
    8880023    1    1    2    0    0 -0.86980299054E+03  0.68179619543E+03 -0.59396395442E+03  0.14170415237E+04  0.65864270000E+03 0.  0.
    8880022    1    1    2    0    0  0.86980299054E+03 -0.68179619543E+03  0.22830837049E+03  0.11388238053E+04  0.15294330000E+03 0.  0.
<mgrwt>
<rscale>  0 0.12415308E+04</rscale>
<asrwt>0</asrwt>
<pdfrwt beam="1">  1        2 0.16847767E+00 0.12865510E+04</pdfrwt>
<pdfrwt beam="2">  1       -2 0.22473238E+00 0.12865510E+04</pdfrwt>
<totfact> 0.19512204E+00</totfact>
</mgrwt>
</event>
<event>
 4    5  0.7289609E-008  0.1180246E+04  0.7818608E-02  0.9176568E-01
          2   -1    0    0  501    0  0.00000000000E+00  0.00000000000E+00  0.83832396972E+03  0.83832396972E+03  0.25500000000E-02 0. -1.
         -2   -1    0    0    0  501 -0.00000000000E+00 -0.00000000000E+00 -0.17911630369E+04  0.17911630369E+04  0.25500000000E-02 0.  1.
    8880023    1    1    2    0    0 -0.96290835815E+03 -0.17882449470E+03  0.98733371322E+02  0.11843686888E+04  0.65864270000E+03 0.  0.
    8880022    1    1    2    0    0  0.96290835815E+03  0.17882449470E+03 -0.10515724385E+04  0.14451183178E+04  0.15294330000E+03 0.  0.
<mgrwt>
<rscale>  0 0.11298595E+04</rscale>
<asrwt>0</asrwt>
<pdfrwt beam="1">  1        2 0.12897292E+00 0.11802461E+04</pdfrwt>
<pdfrwt beam="2">  1       -2 0.27556354E+00 0.11802461E+04</pdfrwt>
<totfact> 0.14206431E+00</totfact>
</mgrwt>
</event>
<event>
 4    5  0.7289609E-008  0.9454405E+03  0.7818608E-02  0.9456705E-01
          2   -1    0    0  501    0  0.00000000000E+00  0.00000000000E+00  0.10725523001E+04  0.10725523001E+04  0.25500000000E-02 0. -1.
         -2   -1    0    0    0  501 -0.00000000000E+00 -0.00000000000E+00 -0.23586052545E+04  0.23586052545E+04  0.25500000000E-02 0.  1.
    8880023    1    1    2    0    0 -0.59691499766E+03 -0.32208686765E+03 -0.21343188101E+04  0.23343466868E+04  0.65864270000E+03 0.  0.
    8880022    1    1    2    0    0  0.59691499766E+03  0.32208686765E+03  0.84826585567E+03  0.10968108678E+04  0.15294330000E+03 0.  0.
<mgrwt>
<rscale>  0 0.87552462E+03</rscale>
<asrwt>0</asrwt>
<pdfrwt beam="1">  1        2 0.16500805E+00 0.94544046E+03</pdfrwt>
<pdfrwt beam="2">  1       -2 0.36286234E+00 0.94544046E+03</pdfrwt>
<totfact> 0.29877267E-01</totfact>
</mgrwt>
</event>
<event>
 4    5  0.7289609E-008  0.1519565E+04  0.7818608E-02  0.8895942E-01
          2   -1    0    0  501    0  0.00000000000E+00  0.00000000000E+00  0.40896658327E+04  0.40896658327E+04  0.25500000000E-02 0. -1.
         -2   -1    0    0    0  501 -0.00000000000E+00 -0.00000000000E+00 -0.64149194590E+03  0.64149194591E+03  0.25500000000E-02 0.  1.
    8880023    1    1    2    0    0 -0.11566370285E+04 -0.73311649815E+03  0.73467310161E+03  0.16878459018E+04  0.65864270000E+03 0.  0.
    8880022    1    1    2    0    0  0.11566370285E+04  0.73311649815E+03  0.27135007851E+04  0.30433118768E+04  0.15294330000E+03 0.  0.
<mgrwt>
<rscale>  0 0.14828441E+04</rscale>
<asrwt>0</asrwt>
<pdfrwt beam="1">  1        2 0.62917933E+00 0.15195655E+04</pdfrwt>
<pdfrwt beam="2">  1       -2 0.98691072E-01 0.15195655E+04</pdfrwt>
<totfact> 0.23849151E-01</totfact>
</mgrwt>
</event>
<event>
 4    5  0.7289609E-008  0.1006477E+04  0.7818608E-02  0.9373133E-01
         -2   -1    0    0    0  501 -0.00000000000E+00  0.00000000000E+00  0.59502409672E+03  0.59502409672E+03  0.25500000000E-02 0.  1.
          2   -1    0    0  501    0  0.00000000000E+00 -0.00000000000E+00 -0.23272741111E+04  0.23272741111E+04  0.25500000000E-02 0. -1.
    8880023    1    1    2    0    0 -0.70173827055E+03 -0.29453101230E+03  0.19064795518E+02  0.10066572357E+04  0.65864270000E+03 0.  1.
    8880022    1    1    2    0    0  0.70173827055E+03  0.29453101230E+03 -0.17513148099E+04  0.19156409721E+04  0.15294330000E+03 0.  0.
<mgrwt>
<rscale>  0 0.94320119E+03</rscale>
<asrwt>0</asrwt>
<pdfrwt beam="1">  1        2 0.35804217E+00 0.10064767E+04</pdfrwt>
<pdfrwt beam="2">  1       -2 0.91542170E-01 0.10064767E+04</pdfrwt>
<totfact> 0.44685229E+00</totfact>
</mgrwt>
</event>
<event>
 4    5  0.7289609E-008  0.9339674E+03  0.7818608E-02  0.9473567E-01
          2   -1    0    0  501    0  0.00000000000E+00  0.00000000000E+00  0.13274662581E+04  0.13274662581E+04  0.25500000000E-02 0. -1.
         -2   -1    0    0    0  501 -0.00000000000E+00 -0.00000000000E+00 -0.53582688796E+03  0.53582688797E+03  0.25500000000E-02 0.  1.
    8880023    1    1    2    0    0  0.10474487979E+03 -0.65384513188E+03  0.72125325349E+03  0.11800429688E+04  0.65864270000E+03 0. -1.
    8880022    1    1    2    0    0 -0.10474487979E+03  0.65384513188E+03  0.70386116675E+02  0.68325017728E+03  0.15294330000E+03 0.  0.
<mgrwt>
<rscale>  0 0.86261011E+03</rscale>
<asrwt>0</asrwt>
<pdfrwt beam="1">  1        2 0.20422558E+00 0.93396743E+03</pdfrwt>
<pdfrwt beam="2">  1       -2 0.82434906E-01 0.93396743E+03</pdfrwt>
<totfact> 0.20621140E+01</totfact>
</mgrwt>
</event>
<event>
 4    5  0.7289609E-008  0.8354438E+03  0.7818608E-02  0.9638832E-01
         -2   -1    0    0    0  501 -0.00000000000E+00  0.00000000000E+00  0.10326233954E+04  0.10326233954E+04  0.25500000000E-02 0.  1.
          2   -1    0    0  501    0  0.00000000000E+00 -0.00000000000E+00 -0.62067889181E+03  0.62067889181E+03  0.25500000000E-02 0. -1.
    8880023    1    1    2    0    0 -0.51371143929E+03 -0.16023909304E+02  0.65786255018E+03  0.10633670814E+04  0.65864270000E+03 0.  1.
    8880022    1    1    2    0    0  0.51371143929E+03  0.16023909304E+02 -0.24591804654E+03  0.58993520590E+03  0.15294330000E+03 0.  0.
<mgrwt>
<rscale>  0 0.74778494E+03</rscale>
<asrwt>0</asrwt>
<pdfrwt beam="1">  1        2 0.95489062E-01 0.83544384E+03</pdfrwt>
<pdfrwt beam="2">  1       -2 0.15886513E+00 0.83544384E+03</pdfrwt>
<totfact> 0.12307030E+01</totfact>
</mgrwt>
</event>
<event>
 4    5  0.7289609E-008  0.1024224E+04  0.7818608E-02  0.9350530E-01
          2   -1    0    0  501    0  0.00000000000E+00  0.00000000000E+00  0.13761346889E+04  0.13761346889E+04  0.25500000000E-02 0. -1.
         -2   -1    0    0    0  501 -0.00000000000E+00 -0.00000000000E+00 -0.12448118936E+04  0.12448118936E+04  0.25500000000E-02 0.  1.
    8880023    1    1    2    0    0  0.54210802092E+02  0.78248631597E+03 -0.86718371605E+03  0.13420288557E+04  0.65864270000E+03 0.  1.
    8880022    1    1    2    0    0 -0.54210802092E+02 -0.78248631597E+03  0.99850651137E+03  0.12789177268E+04  0.15294330000E+03 0.  0.
<mgrwt>
<rscale>  0 0.96261135E+03</rscale>
<asrwt>0</asrwt>
<pdfrwt beam="1">  1        2 0.21171303E+00 0.10242235E+04</pdfrwt>
<pdfrwt beam="2">  1       -2 0.19150952E+00 0.10242235E+04</pdfrwt>
<totfact> 0.22377978E+00</totfact>
</mgrwt>
</event>
<event>
 4    5  0.7289609E-008  0.9536690E+03  0.7818608E-02  0.9444855E-01
         -2   -1    0    0    0  501 -0.00000000000E+00  0.00000000000E+00  0.29799608808E+04  0.29799608808E+04  0.25500000000E-02 0.  1.
          2   -1    0    0  501    0  0.00000000000E+00 -0.00000000000E+00 -0.36220154606E+03  0.36220154607E+03  0.25500000000E-02 0. -1.
    8880023    1    1    2    0    0 -0.14327333480E+03  0.67464597414E+03  0.24311160588E+04  0.26114765817E+04  0.65864270000E+03 0.  1.
    8880022    1    1    2    0    0  0.14327333480E+03 -0.67464597414E+03  0.18664327591E+03  0.73068584518E+03  0.15294330000E+03 0.  0.
<mgrwt>
<rscale>  0 0.88474481E+03</rscale>
<asrwt>0</asrwt>
<pdfrwt beam="1">  1        2 0.55723316E-01 0.95366904E+03</pdfrwt>
<pdfrwt beam="2">  1       -2 0.45845551E+00 0.95366904E+03</pdfrwt>
<totfact> 0.27923813E-01</totfact>
</mgrwt>
</event>
<event>
 4    5  0.7289609E-008  0.7038481E+03  0.7818608E-02  0.9981597E-01
         -2   -1    0    0    0  501 -0.00000000000E+00  0.00000000000E+00  0.82105226677E+03  0.82105226678E+03  0.25500000000E-02 0.  1.
          2   -1    0    0  501    0  0.00000000000E+00 -0.00000000000E+00 -0.13833557480E+04  0.13833557480E+04  0.25500000000E-02 0. -1.
    8880023    1    1    2    0    0 -0.16783915492E+03 -0.18281661861E+03  0.64968167721E+03  0.95785614052E+03  0.65864270000E+03 0.  1.
    8880022    1    1    2    0    0  0.16783915492E+03  0.18281661861E+03 -0.12119851584E+04  0.12465518743E+04  0.15294330000E+03 0.  0.
<mgrwt>
<rscale>  0 0.56464573E+03</rscale>
<asrwt>0</asrwt>
<pdfrwt beam="1">  1        2 0.21282396E+00 0.70384807E+03</pdfrwt>
<pdfrwt beam="2">  1       -2 0.12631573E+00 0.70384807E+03</pdfrwt>
<totfact> 0.71151075E+00</totfact>
</mgrwt>
</event>
<event>
 4    5  0.7289609E-008  0.1163171E+04  0.7818608E-02  0.9193781E-01
         -2   -1    0    0    0  501 -0.00000000000E+00  0.00000000000E+00  0.50813438975E+03  0.50813438975E+03  0.25500000000E-02 0.  1.
          2   -1    0    0  501    0  0.00000000000E+00 -0.00000000000E+00 -0.25099578819E+04  0.25099578819E+04  0.25500000000E-02 0. -1.
    8880023    1    1    2    0    0  0.12649499117E+03  0.95034553578E+03 -0.58885444266E+03  0.13037320971E+04  0.65864270000E+03 0.  1.
    8880022    1    1    2    0    0 -0.12649499117E+03 -0.95034553578E+03 -0.14129690495E+04  0.17143601745E+04  0.15294330000E+03 0.  0.
<mgrwt>
<rscale>  0 0.11117850E+04</rscale>
<asrwt>0</asrwt>
<pdfrwt beam="1">  1        2 0.38614736E+00 0.11631715E+04</pdfrwt>
<pdfrwt beam="2">  1       -2 0.78174523E-01 0.11631715E+04</pdfrwt>
<totfact> 0.49546320E+00</totfact>
</mgrwt>
</event>
<event>
 4    5  0.7289609E-008  0.1259734E+04  0.7818608E-02  0.9101136E-01
         -2   -1    0    0    0  501 -0.00000000000E+00  0.00000000000E+00  0.42514907057E+04  0.42514907057E+04  0.25500000000E-02 0.  1.
          2   -1    0    0  501    0  0.00000000000E+00 -0.00000000000E+00 -0.47664255955E+03  0.47664255955E+03  0.25500000000E-02 0. -1.
    8880023    1    1    2    0    0 -0.51827446011E+03  0.94048518447E+03  0.33218059367E+04  0.35526505156E+04  0.65864270000E+03 0. -1.
    8880022    1    1    2    0    0  0.51827446011E+03 -0.94048518447E+03  0.45304220937E+03  0.11754827496E+04  0.15294330000E+03 0.  0.
<mgrwt>
<rscale>  0 0.12134834E+04</rscale>
<asrwt>0</asrwt>
<pdfrwt beam="1">  1        2 0.73329623E-01 0.12597345E+04</pdfrwt>
<pdfrwt beam="2">  1       -2 0.65407551E+00 0.12597345E+04</pdfrwt>
<totfact> 0.20314681E-02</totfact>
</mgrwt>
</event>
<event>
 4    5  0.7289609E-008  0.7156199E+03  0.7818608E-02  0.9937695E-01
          2   -1    0    0  501    0  0.00000000000E+00  0.00000000000E+00  0.93141560237E+03  0.93141560238E+03  0.25500000000E-02 0. -1.
         -2   -1    0    0    0  501 -0.00000000000E+00 -0.00000000000E+00 -0.85789289886E+03  0.85789289887E+03  0.25500000000E-02 0.  1.
    8880023    1    1    2    0    0  0.52436668101E+02  0.27486729421E+03  0.75294654612E+03  0.10387686659E+04  0.65864270000E+03 0. -1.
    8880022    1    1    2    0    0 -0.52436668101E+02 -0.27486729421E+03 -0.67942384261E+03  0.75053983539E+03  0.15294330000E+03 0.  0.
<mgrwt>
<rscale>  0 0.58468687E+03</rscale>
<asrwt>0</asrwt>
<pdfrwt beam="1">  1        2 0.14329471E+00 0.71561990E+03</pdfrwt>
<pdfrwt beam="2">  1       -2 0.13198352E+00 0.71561990E+03</pdfrwt>
<totfact> 0.11913444E+01</totfact>
</mgrwt>
</event>
<event>
 4    5  0.7289609E-008  0.6718925E+03  0.7818608E-02  0.1014341E+00
         -2   -1    0    0    0  501 -0.00000000000E+00  0.00000000000E+00  0.75338852553E+03  0.75338852554E+03  0.25500000000E-02 0.  1.
          2   -1    0    0  501    0  0.00000000000E+00 -0.00000000000E+00 -0.52994616789E+03  0.52994616789E+03  0.25500000000E-02 0. -1.
    8880023    1    1    2    0    0 -0.75855215237E+00 -0.13277351758E+03  0.57055059724E+03  0.88145764087E+03  0.65864270000E+03 0.  1.
    8880022    1    1    2    0    0  0.75855215237E+00  0.13277351758E+03 -0.34710823959E+03  0.40187705256E+03  0.15294330000E+03 0.  0.
<mgrwt>
<rscale>  0 0.49785250E+03</rscale>
<asrwt>0</asrwt>
<pdfrwt beam="1">  1        2 0.81530180E-01 0.67189254E+03</pdfrwt>
<pdfrwt beam="2">  1       -2 0.11590593E+00 0.67189254E+03</pdfrwt>
<totfact> 0.33894424E+01</totfact>
</mgrwt>
</event>
<event>
 4    5  0.7289609E-008  0.7042877E+03  0.7818608E-02  0.9979858E-01
          2   -1    0    0  501    0  0.00000000000E+00  0.00000000000E+00  0.72294511472E+03  0.72294511472E+03  0.25500000000E-02 0. -1.
         -2   -1    0    0    0  501 -0.00000000000E+00 -0.00000000000E+00 -0.36327342641E+03  0.36327342642E+03  0.25500000000E-02 0.  1.
    8880023    1    1    2    0    0  0.19400716265E+03 -0.15675534835E+03  0.13448140961E+03  0.71701218552E+03  0.65864270000E+03 0.  0.
    8880022    1    1    2    0    0 -0.19400716265E+03  0.15675534835E+03  0.22519027870E+03  0.36920635562E+03  0.15294330000E+03 0.  0.
<mgrwt>
<rscale>  0 0.56542305E+03</rscale>
<asrwt>0</asrwt>
<pdfrwt beam="1">  1        2 0.11122232E+00 0.70428774E+03</pdfrwt>
<pdfrwt beam="2">  1       -2 0.55888220E-01 0.70428774E+03</pdfrwt>
<totfact> 0.11992393E+02</totfact>
</mgrwt>
</event>
<event>
 4    5  0.7289609E-008  0.6884027E+03  0.7818608E-02  0.1004921E+00
          2   -1    0    0  501    0  0.00000000000E+00  0.00000000000E+00  0.10806867572E+04  0.10806867573E+04  0.25500000000E-02 0. -1.
         -2   -1    0    0    0  501 -0.00000000000E+00 -0.00000000000E+00 -0.15294028977E+04  0.15294028977E+04  0.25500000000E-02 0.  1.
    8880023    1    1    2    0    0  0.12070248499E+03 -0.15974677333E+03 -0.14352962699E+04  0.15918460071E+04  0.65864270000E+03 0.  1.
    8880022    1    1    2    0    0 -0.12070248499E+03  0.15974677333E+03  0.98658012950E+03  0.10182436479E+04  0.15294330000E+03 0.  0.
<mgrwt>
<rscale>  0 0.53544068E+03</rscale>
<asrwt>0</asrwt>
<pdfrwt beam="1">  1        2 0.16625950E+00 0.68840274E+03</pdfrwt>
<pdfrwt beam="2">  1       -2 0.23529275E+00 0.68840274E+03</pdfrwt>
<totfact> 0.18511362E+00</totfact>
</mgrwt>
</event>
<event>
 4    5  0.7289609E-008  0.8875257E+03  0.7818608E-02  0.9546361E-01
          2   -1    0    0  501    0  0.00000000000E+00  0.00000000000E+00  0.13249180786E+04  0.13249180786E+04  0.25500000000E-02 0. -1.
         -2   -1    0    0    0  501 -0.00000000000E+00 -0.00000000000E+00 -0.45711364459E+03  0.45711364459E+03  0.25500000000E-02 0.  1.
    8880023    1    1    2    0    0 -0.48232546985E+03  0.34821529321E+03  0.73790522113E+03  0.11542123162E+04  0.65864270000E+03 0.  0.
    8880022    1    1    2    0    0  0.48232546985E+03 -0.34821529321E+03  0.12989921293E+03  0.62781940701E+03  0.15294330000E+03 0.  0.
<mgrwt>
<rscale>  0 0.80950434E+03</rscale>
<asrwt>0</asrwt>
<pdfrwt beam="1">  1        2 0.20383355E+00 0.88752575E+03</pdfrwt>
<pdfrwt beam="2">  1       -2 0.70325176E-01 0.88752575E+03</pdfrwt>
<totfact> 0.29615441E+01</totfact>
</mgrwt>
</event>
<event>
 4    5  0.7289609E-008  0.1488546E+04  0.7818608E-02  0.8917767E-01
         -2   -1    0    0    0  501 -0.00000000000E+00  0.00000000000E+00  0.21702245225E+04  0.21702245225E+04  0.25500000000E-02 0.  1.
          2   -1    0    0  501    0  0.00000000000E+00 -0.00000000000E+00 -0.14170038631E+04  0.14170038631E+04  0.25500000000E-02 0. -1.
    8880023    1    1    2    0    0  0.60658875498E+03  0.11891205252E+04  0.14462206820E+04  0.20754088774E+04  0.65864270000E+03 0.  0.
    8880022    1    1    2    0    0 -0.60658875498E+03 -0.11891205252E+04 -0.69300002259E+03  0.15118195082E+04  0.15294330000E+03 0.  0.
<mgrwt>
<rscale>  0 0.14509142E+04</rscale>
<asrwt>0</asrwt>
<pdfrwt beam="1">  1        2 0.21800059E+00 0.14885455E+04</pdfrwt>
<pdfrwt beam="2">  1       -2 0.33388070E+00 0.14885455E+04</pdfrwt>
<totfact> 0.26224072E-01</totfact>
</mgrwt>
</event>
<event>
 4    5  0.7289609E-008  0.8394935E+03  0.7818608E-02  0.9631136E-01
         -2   -1    0    0    0  501 -0.00000000000E+00  0.00000000000E+00  0.14137576580E+04  0.14137576580E+04  0.25500000000E-02 0.  1.
          2   -1    0    0  501    0  0.00000000000E+00 -0.00000000000E+00 -0.12924763534E+04  0.12924763534E+04  0.25500000000E-02 0. -1.
    8880023    1    1    2    0    0 -0.42274999595E+03 -0.30368003581E+03  0.12199667856E+04  0.14809011741E+04  0.65864270000E+03 0.  1.
    8880022    1    1    2    0    0  0.42274999595E+03  0.30368003581E+03 -0.10986854809E+04  0.12253328374E+04  0.15294330000E+03 0.  0.
<mgrwt>
<rscale>  0 0.75269228E+03</rscale>
<asrwt>0</asrwt>
<pdfrwt beam="1">  1        2 0.19884252E+00 0.83949350E+03</pdfrwt>
<pdfrwt beam="2">  1       -2 0.21750118E+00 0.83949350E+03</pdfrwt>
<totfact> 0.17402872E+00</totfact>
</mgrwt>
</event>
<event>
 4    5  0.7289609E-008  0.6627743E+03  0.7818608E-02  0.1021478E+00
         -2   -1    0    0    0  501 -0.00000000000E+00  0.00000000000E+00  0.21204451783E+03  0.21204451784E+03  0.25500000000E-02 0.  1.
          2   -1    0    0  501    0  0.00000000000E+00 -0.00000000000E+00 -0.26138452218E+04  0.26138452218E+04  0.25500000000E-02 0. -1.
    8880023    1    1    2    0    0 -0.69008088062E+02 -0.26410119103E+02 -0.31788848367E+03  0.73506659897E+03  0.65864270000E+03 0.  1.
    8880022    1    1    2    0    0  0.69008088062E+02  0.26410119103E+02 -0.20839122203E+04  0.20908231406E+04  0.15294330000E+03 0.  0.
<mgrwt>
<rscale>  0 0.47156859E+03</rscale>
<asrwt>0</asrwt>
<pdfrwt beam="1">  1        2 0.40213001E+00 0.66277433E+03</pdfrwt>
<pdfrwt beam="2">  1       -2 0.32622235E-01 0.66277433E+03</pdfrwt>
<totfact> 0.27764886E+01</totfact>
</mgrwt>
</event>
<event>
 4    5  0.7289609E-008  0.8914229E+03  0.7818608E-02  0.9539943E-01
         -2   -1    0    0    0  501 -0.00000000000E+00  0.00000000000E+00  0.64588028532E+03  0.64588028533E+03  0.25500000000E-02 0.  1.
          2   -1    0    0  501    0  0.00000000000E+00 -0.00000000000E+00 -0.10400750476E+04  0.10400750476E+04  0.25500000000E-02 0. -1.
    8880023    1    1    2    0    0  0.33488085445E+03  0.49867755664E+03  0.94789003018E+02  0.89644835519E+03  0.65864270000E+03 0.  0.
    8880022    1    1    2    0    0 -0.33488085445E+03 -0.49867755664E+03 -0.48898376530E+03  0.78950697774E+03  0.15294330000E+03 0.  0.
<mgrwt>
<rscale>  0 0.81401943E+03</rscale>
<asrwt>0</asrwt>
<pdfrwt beam="1">  1        2 0.16001155E+00 0.89142285E+03</pdfrwt>
<pdfrwt beam="2">  1       -2 0.99366198E-01 0.89142285E+03</pdfrwt>
<totfact> 0.19976506E+01</totfact>
</mgrwt>
</event>
<event>
 4    5  0.7289609E-008  0.1097453E+04  0.7818608E-02  0.9263897E-01
         -2   -1    0    0    0  501 -0.00000000000E+00  0.00000000000E+00  0.78071601382E+03  0.78071601383E+03  0.25500000000E-02 0.  1.
          2   -1    0    0  501    0  0.00000000000E+00 -0.00000000000E+00 -0.15718041423E+04  0.15718041423E+04  0.25500000000E-02 0. -1.
    8880023    1    1    2    0    0  0.87657271408E+03  0.47043725731E+02  0.87787317807E+02  0.11009585163E+04  0.65864270000E+03 0.  0.
    8880022    1    1    2    0    0 -0.87657271408E+03 -0.47043725731E+02 -0.87887544630E+03  0.12515616398E+04  0.15294330000E+03 0.  0.
<mgrwt>
<rscale>  0 0.10417558E+04</rscale>
<asrwt>0</asrwt>
<pdfrwt beam="1">  1        2 0.24181602E+00 0.10974530E+04</pdfrwt>
<pdfrwt beam="2">  1       -2 0.12011016E+00 0.10974530E+04</pdfrwt>
<totfact> 0.60320820E+00</totfact>
</mgrwt>
</event>
<event>
 4    5  0.7996970E-008  0.1114195E+04  0.7818608E-02  0.9245414E-01
          2   -1    0    0  501    0  0.00000000000E+00  0.00000000000E+00  0.24393920099E+04  0.24393920099E+04  0.25500000000E-02 0. -1.
         -2   -1    0    0    0  501 -0.00000000000E+00 -0.00000000000E+00 -0.14287798303E+04  0.14287798303E+04  0.25500000000E-02 0.  1.
    8880023    1    1    2    0    0  0.16079472279E+03 -0.88417467627E+03 -0.11020996494E+04  0.15671801570E+04  0.65864270000E+03 0.  0.
    8880022    1    1    2    0    0 -0.16079472279E+03  0.88417467627E+03  0.21127118289E+04  0.23009916832E+04  0.15294330000E+03 0.  0.
<mgrwt>
<rscale>  0 0.10596726E+04</rscale>
<asrwt>0</asrwt>
<pdfrwt beam="1">  1        2 0.37529108E+00 0.11141948E+04</pdfrwt>
<pdfrwt beam="2">  1       -2 0.21981228E+00 0.11141948E+04</pdfrwt>
<totfact> 0.36953360E-01</totfact>
</mgrwt>
</event>
<event>
 4    5  0.7289609E-008  0.6831967E+03  0.7818608E-02  0.1007570E+00
          2   -1    0    0  501    0  0.00000000000E+00  0.00000000000E+00  0.22096574541E+04  0.22096574541E+04  0.25500000000E-02 0. -1.
         -2   -1    0    0    0  501 -0.00000000000E+00 -0.00000000000E+00 -0.17422827506E+03  0.17422827508E+03  0.25500000000E-02 0.  1.
    8880023    1    1    2    0    0  0.13325763925E+03 -0.12324732935E+03  0.54300376606E+03  0.87270315619E+03  0.65864270000E+03 0.  0.
    8880022    1    1    2    0    0 -0.13325763925E+03  0.12324732935E+03  0.14924254130E+04  0.15111825730E+04  0.15294330000E+03 0.  0.
<mgrwt>
<rscale>  0 0.52451825E+03</rscale>
<asrwt>0</asrwt>
<pdfrwt beam="1">  1        2 0.33994728E+00 0.68319668E+03</pdfrwt>
<pdfrwt beam="2">  1       -2 0.26804352E-01 0.68319668E+03</pdfrwt>
<totfact> 0.67035460E+01</totfact>
</mgrwt>
</event>
<event>
 4    5  0.7289609E-008  0.9072893E+03  0.7818608E-02  0.9514430E-01
         -2   -1    0    0    0  501 -0.00000000000E+00  0.00000000000E+00  0.66193173404E+03  0.66193173404E+03  0.25500000000E-02 0.  1.
          2   -1    0    0  501    0  0.00000000000E+00 -0.00000000000E+00 -0.23840741729E+04  0.23840741729E+04  0.25500000000E-02 0. -1.
    8880023    1    1    2    0    0 -0.36260543782E+03  0.50781975980E+03  0.27501645737E+03  0.94805478221E+03  0.65864270000E+03 0.  0.
    8880022    1    1    2    0    0  0.36260543782E+03 -0.50781975980E+03 -0.19971588962E+04  0.20979511248E+04  0.15294330000E+03 0.  0.
<mgrwt>
<rscale>  0 0.83228278E+03</rscale>
<asrwt>0</asrwt>
<pdfrwt beam="1">  1        2 0.36678064E+00 0.90728927E+03</pdfrwt>
<pdfrwt beam="2">  1       -2 0.10183565E+00 0.90728927E+03</pdfrwt>
<totfact> 0.32747603E+00</totfact>
</mgrwt>
</event>
<event>
 4    5  0.8331061E-008  0.8277179E+03  0.7818608E-02  0.9653789E-01
          2   -1    0    0  501    0  0.00000000000E+00  0.00000000000E+00  0.29367013861E+04  0.29367013861E+04  0.25500000000E-02 0. -1.
         -2   -1    0    0    0  501 -0.00000000000E+00 -0.00000000000E+00 -0.87114344252E+03  0.87114344253E+03  0.25500000000E-02 0.  1.
    8880023    1    1    2    0    0  0.32912498985E+03 -0.37813148320E+03 -0.64357577769E+03  0.10484782618E+04  0.65864270000E+03 0.  0.
    8880022    1    1    2    0    0 -0.32912498985E+03  0.37813148320E+03  0.27091337213E+04  0.27593665668E+04  0.15294330000E+03 0.  0.
<mgrwt>
<rscale>  0 0.73836101E+03</rscale>
<asrwt>0</asrwt>
<pdfrwt beam="1">  1        2 0.45180022E+00 0.82771788E+03</pdfrwt>
<pdfrwt beam="2">  1       -2 0.13402207E+00 0.82771788E+03</pdfrwt>
<totfact> 0.80370677E-01</totfact>
</mgrwt>
</event>
<event>
 4    5  0.7289609E-008  0.1059372E+04  0.7818608E-02  0.9307699E-01
          2   -1    0    0  501    0  0.00000000000E+00  0.00000000000E+00  0.12270708508E+04  0.12270708508E+04  0.25500000000E-02 0. -1.
         -2   -1    0    0    0  501 -0.00000000000E+00 -0.00000000000E+00 -0.10501372574E+04  0.10501372574E+04  0.25500000000E-02 0.  1.
    8880023    1    1    2    0    0 -0.79937166512E+03 -0.22240529051E+03 -0.52255760945E+03  0.11812433423E+04  0.65864270000E+03 0.  0.
    8880022    1    1    2    0    0  0.79937166512E+03  0.22240529051E+03  0.69949120285E+03  0.10959647659E+04  0.15294330000E+03 0.  0.
<mgrwt>
<rscale>  0 0.10007718E+04</rscale>
<asrwt>0</asrwt>
<pdfrwt beam="1">  1        2 0.18878013E+00 0.10593722E+04</pdfrwt>
<pdfrwt beam="2">  1       -2 0.16155958E+00 0.10593722E+04</pdfrwt>
<totfact> 0.44102758E+00</totfact>
</mgrwt>
</event>
<event>
 4    5  0.7289609E-008  0.1119270E+04  0.7818608E-02  0.9239899E-01
         -2   -1    0    0    0  501 -0.00000000000E+00  0.00000000000E+00  0.66339850305E+03  0.66339850305E+03  0.25500000000E-02 0.  1.
          2   -1    0    0  501    0  0.00000000000E+00 -0.00000000000E+00 -0.40446980264E+04  0.40446980264E+04  0.25500000000E-02 0. -1.
    8880023    1    1    2    0    0 -0.87191138227E+03 -0.24233184702E+03  0.84863293533E+02  0.11224821457E+04  0.65864270000E+03 0.  0.
    8880022    1    1    2    0    0  0.87191138227E+03  0.24233184702E+03 -0.34661628169E+04  0.35856143837E+04  0.15294330000E+03 0. -1.
<mgrwt>
<rscale>  0 0.10650925E+04</rscale>
<asrwt>0</asrwt>
<pdfrwt beam="1">  1        2 0.62226122E+00 0.11192696E+04</pdfrwt>
<pdfrwt beam="2">  1       -2 0.10206131E+00 0.11192696E+04</pdfrwt>
<totfact> 0.25466509E-01</totfact>
</mgrwt>
</event>
<event>
 4    5  0.7289609E-008  0.1658667E+04  0.7818608E-02  0.8805029E-01
          2   -1    0    0  501    0  0.00000000000E+00  0.00000000000E+00  0.16031148638E+04  0.16031148638E+04  0.25500000000E-02 0. -1.
         -2   -1    0    0    0  501 -0.00000000000E+00 -0.00000000000E+00 -0.19470265146E+04  0.19470265146E+04  0.25500000000E-02 0.  1.
    8880023    1    1    2    0    0 -0.19738650163E+03  0.15094388564E+04 -0.94193441722E+03  0.19074636942E+04  0.65864270000E+03 0.  0.
    8880022    1    1    2    0    0  0.19738650163E+03 -0.15094388564E+04  0.59802276634E+03  0.16426776842E+04  0.15294330000E+03 0.  0.
<mgrwt>
<rscale>  0 0.16255078E+04</rscale>
<asrwt>0</asrwt>
<pdfrwt beam="1">  1        2 0.24663306E+00 0.16586673E+04</pdfrwt>
<pdfrwt beam="2">  1       -2 0.29954254E+00 0.16586673E+04</pdfrwt>
<totfact> 0.32853854E-01</totfact>
</mgrwt>
</event>
<event>
 4    5  0.7289609E-008  0.6719103E+03  0.7818608E-02  0.1014329E+00
          2   -1    0    0  501    0  0.00000000000E+00  0.00000000000E+00  0.65106866761E+03  0.65106866762E+03  0.25500000000E-02 0. -1.
         -2   -1    0    0    0  501 -0.00000000000E+00 -0.00000000000E+00 -0.11090352574E+04  0.11090352574E+04  0.25500000000E-02 0.  1.
    8880023    1    1    2    0    0 -0.82237832091E+02 -0.10435592195E+03 -0.98677637996E+03  0.11938136579E+04  0.65864270000E+03 0.  1.
    8880022    1    1    2    0    0  0.82237832091E+02  0.10435592195E+03  0.52880979016E+03  0.56629026714E+03  0.15294330000E+03 0.  0.
<mgrwt>
<rscale>  0 0.49789851E+03</rscale>
<asrwt>0</asrwt>
<pdfrwt beam="1">  1        2 0.10016441E+00 0.67191028E+03</pdfrwt>
<pdfrwt beam="2">  1       -2 0.17062081E+00 0.67191028E+03</pdfrwt>
<totfact> 0.97124617E+00</totfact>
</mgrwt>
</event>
<event>
 4    5  0.7289609E-008  0.9657885E+03  0.7818608E-02  0.9427753E-01
          2   -1    0    0  501    0  0.00000000000E+00  0.00000000000E+00  0.12590038564E+04  0.12590038564E+04  0.25500000000E-02 0. -1.
         -2   -1    0    0    0  501 -0.00000000000E+00 -0.00000000000E+00 -0.10680978519E+04  0.10680978519E+04  0.25500000000E-02 0.  1.
    8880023    1    1    2    0    0 -0.65969988535E+03  0.25245439466E+03 -0.69052606544E+03  0.11872546540E+04  0.65864270000E+03 0.  0.
    8880022    1    1    2    0    0  0.65969988535E+03 -0.25245439466E+03  0.88143207002E+03  0.11398470543E+04  0.15294330000E+03 0.  0.
<mgrwt>
<rscale>  0 0.89826507E+03</rscale>
<asrwt>0</asrwt>
<pdfrwt beam="1">  1        2 0.19369290E+00 0.96578847E+03</pdfrwt>
<pdfrwt beam="2">  1       -2 0.16432275E+00 0.96578847E+03</pdfrwt>
<totfact> 0.40716951E+00</totfact>
</mgrwt>
</event>
<event>
 4    5  0.7289609E-008  0.8210093E+03  0.7818608E-02  0.9667085E-01
          2   -1    0    0  501    0  0.00000000000E+00  0.00000000000E+00  0.36783426620E+03  0.36783426620E+03  0.25500000000E-02 0. -1.
         -2   -1    0    0    0  501 -0.00000000000E+00 -0.00000000000E+00 -0.17200213464E+04  0.17200213464E+04  0.25500000000E-02 0.  1.
    8880023    1    1    2    0    0 -0.46104154176E+03  0.16639326578E+03 -0.13432920203E+04  0.15743219747E+04  0.65864270000E+03 0.  1.
    8880022    1    1    2    0    0  0.46104154176E+03 -0.16639326578E+03 -0.88950599340E+01  0.51353363788E+03  0.15294330000E+03 0.  0.
<mgrwt>
<rscale>  0 0.73010779E+03</rscale>
<asrwt>0</asrwt>
<pdfrwt beam="1">  1        2 0.56589888E-01 0.82100927E+03</pdfrwt>
<pdfrwt beam="2">  1       -2 0.26461866E+00 0.82100927E+03</pdfrwt>
<totfact> 0.46722001E+00</totfact>
</mgrwt>
</event>
<event>
 4    5  0.7289609E-008  0.9842030E+03  0.7818608E-02  0.9402523E-01
         -2   -1    0    0    0  501 -0.00000000000E+00  0.00000000000E+00  0.54082960790E+03  0.54082960790E+03  0.25500000000E-02 0.  1.
          2   -1    0    0  501    0  0.00000000000E+00 -0.00000000000E+00 -0.26776814177E+04  0.26776814177E+04  0.25500000000E-02 0. -1.
    8880023    1    1    2    0    0 -0.53584313337E+03 -0.49771230946E+03 -0.31712153431E+02  0.98471380284E+03  0.65864270000E+03 0.  1.
    8880022    1    1    2    0    0  0.53584313337E+03  0.49771230946E+03 -0.21051396563E+04  0.22337972227E+04  0.15294330000E+03 0.  0.
<mgrwt>
<rscale>  0 0.91868338E+03</rscale>
<asrwt>0</asrwt>
<pdfrwt beam="1">  1        2 0.41195098E+00 0.98420303E+03</pdfrwt>
<pdfrwt beam="2">  1       -2 0.83204557E-01 0.98420303E+03</pdfrwt>
<totfact> 0.35180655E+00</totfact>
</mgrwt>
</event>
<event>
 4    5  0.7289609E-008  0.1352739E+04  0.7818608E-02  0.9021304E-01
         -2   -1    0    0    0  501 -0.00000000000E+00  0.00000000000E+00  0.24832457210E+04  0.24832457210E+04  0.25500000000E-02 0.  1.
          2   -1    0    0  501    0  0.00000000000E+00 -0.00000000000E+00 -0.16673491526E+04  0.16673491526E+04  0.25500000000E-02 0. -1.
    8880023    1    1    2    0    0 -0.27664838549E+03  0.11487201232E+04  0.20365470519E+04  0.24448775740E+04  0.65864270000E+03 0.  0.
    8880022    1    1    2    0    0  0.27664838549E+03 -0.11487201232E+04 -0.12206504836E+04  0.17057172997E+04  0.15294330000E+03 0.  0.
<mgrwt>
<rscale>  0 0.13104691E+04</rscale>
<asrwt>0</asrwt>
<pdfrwt beam="1">  1        2 0.25651526E+00 0.13527389E+04</pdfrwt>
<pdfrwt beam="2">  1       -2 0.38203780E+00 0.13527389E+04</pdfrwt>
<totfact> 0.95377940E-02</totfact>
</mgrwt>
</event>
<event>
 4    5  0.7289609E-008  0.7086062E+03  0.7818608E-02  0.9963214E-01
          2   -1    0    0  501    0  0.00000000000E+00  0.00000000000E+00  0.86398612564E+03  0.86398612564E+03  0.25500000000E-02 0. -1.
         -2   -1    0    0    0  501 -0.00000000000E+00 -0.00000000000E+00 -0.11692527519E+04  0.11692527519E+04  0.25500000000E-02 0.  1.
    8880023    1    1    2    0    0  0.25957836390E+03  0.30522335007E+02 -0.10286100573E+04  0.12490642082E+04  0.65864270000E+03 0.  1.
    8880022    1    1    2    0    0 -0.25957836390E+03 -0.30522335007E+02  0.72334343100E+03  0.78417466940E+03  0.15294330000E+03 0.  0.
<mgrwt>
<rscale>  0 0.57293105E+03</rscale>
<asrwt>0</asrwt>
<pdfrwt beam="1">  1        2 0.13292094E+00 0.70860620E+03</pdfrwt>
<pdfrwt beam="2">  1       -2 0.17988504E+00 0.70860620E+03</pdfrwt>
<totfact> 0.57810297E+00</totfact>
</mgrwt>
</event>
<event>
 4    5  0.7289609E-008  0.7421397E+03  0.7818608E-02  0.9853758E-01
          2   -1    0    0  501    0  0.00000000000E+00  0.00000000000E+00  0.18940584990E+04  0.18940584990E+04  0.25500000000E-02 0. -1.
         -2   -1    0    0    0  501 -0.00000000000E+00 -0.00000000000E+00 -0.36194631894E+03  0.36194631894E+03  0.25500000000E-02 0.  1.
    8880023    1    1    2    0    0 -0.15940574704E+03 -0.30257374138E+03  0.68600748156E+02  0.74530351540E+03  0.65864270000E+03 0.  1.
    8880022    1    1    2    0    0  0.15940574704E+03  0.30257374138E+03  0.14635114319E+04  0.15107013025E+04  0.15294330000E+03 0.  0.
<mgrwt>
<rscale>  0 0.62555692E+03</rscale>
<asrwt>0</asrwt>
<pdfrwt beam="1">  1        2 0.29139362E+00 0.74213965E+03</pdfrwt>
<pdfrwt beam="2">  1       -2 0.55684049E-01 0.74213965E+03</pdfrwt>
<totfact> 0.23931553E+01</totfact>
</mgrwt>
</event>
<event>
 4    5  0.7289609E-008  0.1021089E+04  0.7818608E-02  0.9354473E-01
         -2   -1    0    0    0  501 -0.00000000000E+00  0.00000000000E+00  0.74564004885E+03  0.74564004886E+03  0.25500000000E-02 0.  1.
          2   -1    0    0  501    0  0.00000000000E+00 -0.00000000000E+00 -0.18952393290E+04  0.18952393290E+04  0.25500000000E-02 0. -1.
    8880023    1    1    2    0    0 -0.66059386665E+03  0.41524396107E+03  0.23173208764E+03  0.10470538528E+04  0.65864270000E+03 0.  0.
    8880022    1    1    2    0    0  0.66059386665E+03 -0.41524396107E+03 -0.13813313678E+04  0.15938255251E+04  0.15294330000E+03 0.  0.
<mgrwt>
<rscale>  0 0.95919011E+03</rscale>
<asrwt>0</asrwt>
<pdfrwt beam="1">  1        2 0.29157528E+00 0.10210886E+04</pdfrwt>
<pdfrwt beam="2">  1       -2 0.11471385E+00 0.10210886E+04</pdfrwt>
<totfact> 0.45121625E+00</totfact>
</mgrwt>
</event>
<event>
 4    5  0.7289609E-008  0.6999726E+03  0.7818608E-02  0.9997315E-01
         -2   -1    0    0    0  501 -0.00000000000E+00  0.00000000000E+00  0.75796474724E+03  0.75796474725E+03  0.25500000000E-02 0.  1.
          2   -1    0    0  501    0  0.00000000000E+00 -0.00000000000E+00 -0.61698573487E+03  0.61698573488E+03  0.25500000000E-02 0. -1.
    8880023    1    1    2    0    0 -0.20654990780E+03  0.11614059083E+03  0.54158137302E+03  0.88502660475E+03  0.65864270000E+03 0.  1.
    8880022    1    1    2    0    0  0.20654990780E+03 -0.11614059083E+03 -0.40060236065E+03  0.48992387738E+03  0.15294330000E+03 0.  0.
<mgrwt>
<rscale>  0 0.55768139E+03</rscale>
<asrwt>0</asrwt>
<pdfrwt beam="1">  1        2 0.94920882E-01 0.69997265E+03</pdfrwt>
<pdfrwt beam="2">  1       -2 0.11660996E+00 0.69997265E+03</pdfrwt>
<totfact> 0.27796575E+01</totfact>
</mgrwt>
</event>
<event>
 4    5  0.7289609E-008  0.6925863E+03  0.7818608E-02  0.1002947E+00
         -2   -1    0    0    0  501 -0.00000000000E+00  0.00000000000E+00  0.76740317951E+03  0.76740317951E+03  0.25500000000E-02 0.  1.
          2   -1    0    0  501    0  0.00000000000E+00 -0.00000000000E+00 -0.88828749713E+03  0.88828749713E+03  0.25500000000E-02 0. -1.
    8880023    1    1    2    0    0  0.18221662315E+03  0.11252856580E+03  0.58231685841E+03  0.90485838987E+03  0.65864270000E+03 0.  1.
    8880022    1    1    2    0    0 -0.18221662315E+03 -0.11252856580E+03 -0.70320117603E+03  0.75083228677E+03  0.15294330000E+03 0.  0.
<mgrwt>
<rscale>  0 0.54376789E+03</rscale>
<asrwt>0</asrwt>
<pdfrwt beam="1">  1        2 0.13665962E+00 0.69258630E+03</pdfrwt>
<pdfrwt beam="2">  1       -2 0.11806203E+00 0.69258630E+03</pdfrwt>
<totfact> 0.16872645E+01</totfact>
</mgrwt>
</event>
<event>
 4    5  0.7289609E-008  0.7308638E+03  0.7818608E-02  0.9887407E-01
          2   -1    0    0  501    0  0.00000000000E+00  0.00000000000E+00  0.13231581674E+04  0.13231581674E+04  0.25500000000E-02 0. -1.
         -2   -1    0    0    0  501 -0.00000000000E+00 -0.00000000000E+00 -0.96521247625E+03  0.96521247625E+03  0.25500000000E-02 0.  1.
    8880023    1    1    2    0    0 -0.22400777355E+03 -0.22399143167E+03 -0.79680356410E+03  0.10812297490E+04  0.65864270000E+03 0.  1.
    8880022    1    1    2    0    0  0.22400777355E+03  0.22399143167E+03  0.11547492553E+04  0.12071408947E+04  0.15294330000E+03 0.  0.
<mgrwt>
<rscale>  0 0.60875499E+03</rscale>
<asrwt>0</asrwt>
<pdfrwt beam="1">  1        2 0.20356279E+00 0.73086377E+03</pdfrwt>
<pdfrwt beam="2">  1       -2 0.14849423E+00 0.73086377E+03</pdfrwt>
<totfact> 0.50604734E+00</totfact>
</mgrwt>
</event>
<event>
 4    5  0.7289609E-008  0.1524848E+04  0.7818608E-02  0.8892286E-01
         -2   -1    0    0    0  501 -0.00000000000E+00  0.00000000000E+00  0.22787926960E+04  0.22787926960E+04  0.25500000000E-02 0.  1.
          2   -1    0    0  501    0  0.00000000000E+00 -0.00000000000E+00 -0.11739598360E+04  0.11739598360E+04  0.25500000000E-02 0. -1.
    8880023    1    1    2    0    0 -0.84529048902E+03 -0.10848201288E+04  0.13628962013E+04  0.20451520688E+04  0.65864270000E+03 0.  1.
    8880022    1    1    2    0    0  0.84529048902E+03  0.10848201288E+04 -0.25806334126E+03  0.14076004631E+04  0.15294330000E+03 0.  0.
<mgrwt>
<rscale>  0 0.14882767E+04</rscale>
<asrwt>0</asrwt>
<pdfrwt beam="1">  1        2 0.18060921E+00 0.15248478E+04</pdfrwt>
<pdfrwt beam="2">  1       -2 0.35058349E+00 0.15248478E+04</pdfrwt>
<totfact> 0.28586402E-01</totfact>
</mgrwt>
</event>
<event>
 4    5  0.7289609E-008  0.6747668E+03  0.7818608E-02  0.1012454E+00
         -2   -1    0    0    0  501 -0.00000000000E+00  0.00000000000E+00  0.22629583836E+03  0.22629583837E+03  0.25500000000E-02 0.  1.
          2   -1    0    0  501    0  0.00000000000E+00 -0.00000000000E+00 -0.14080448654E+04  0.14080448654E+04  0.25500000000E-02 0. -1.
    8880023    1    1    2    0    0  0.86716258963E+02 -0.11823846480E+03 -0.31976600738E+03  0.74669977224E+03  0.65864270000E+03 0.  1.
    8880022    1    1    2    0    0 -0.86716258963E+02  0.11823846480E+03 -0.86198301971E+03  0.88764093157E+03  0.15294330000E+03 0.  0.
<mgrwt>
<rscale>  0 0.50511008E+03</rscale>
<asrwt>0</asrwt>
<pdfrwt beam="1">  1        2 0.21662228E+00 0.67476681E+03</pdfrwt>
<pdfrwt beam="2">  1       -2 0.34814745E-01 0.67476681E+03</pdfrwt>
<totfact> 0.11339277E+02</totfact>
</mgrwt>
</event>
<event>
 4    5  0.7289609E-008  0.6749540E+03  0.7818608E-02  0.1012335E+00
         -2   -1    0    0    0  501 -0.00000000000E+00  0.00000000000E+00  0.41960993854E+03  0.41960993854E+03  0.25500000000E-02 0.  1.
          2   -1    0    0  501    0  0.00000000000E+00 -0.00000000000E+00 -0.10330555366E+04  0.10330555366E+04  0.25500000000E-02 0. -1.
    8880023    1    1    2    0    0 -0.10043588242E+03  0.10800598972E+03  0.12309862290E+03  0.68608755820E+03  0.65864270000E+03 0.  1.
    8880022    1    1    2    0    0  0.10043588242E+03 -0.10800598972E+03 -0.73654422101E+03  0.76657791698E+03  0.15294330000E+03 0.  0.
<mgrwt>
<rscale>  0 0.50556966E+03</rscale>
<asrwt>0</asrwt>
<pdfrwt beam="1">  1        2 0.15893162E+00 0.67495397E+03</pdfrwt>
<pdfrwt beam="2">  1       -2 0.64555376E-01 0.67495397E+03</pdfrwt>
<totfact> 0.54362840E+01</totfact>
</mgrwt>
</event>
<event>
 4    5  0.7289609E-008  0.8724894E+03  0.7818608E-02  0.9571722E-01
         -2   -1    0    0    0  501 -0.00000000000E+00  0.00000000000E+00  0.38013096913E+03  0.38013096914E+03  0.25500000000E-02 0.  1.
          2   -1    0    0  501    0  0.00000000000E+00 -0.00000000000E+00 -0.16235538641E+04  0.16235538641E+04  0.25500000000E-02 0. -1.
    8880023    1    1    2    0    0 -0.21192563423E+03 -0.53152147624E+03 -0.36847092069E+03  0.94710536890E+03  0.65864270000E+03 0.  1.
    8880022    1    1    2    0    0  0.21192563423E+03  0.53152147624E+03 -0.87495197424E+03  0.10565794643E+04  0.15294330000E+03 0. -1.
<mgrwt>
<rscale>  0 0.79196418E+03</rscale>
<asrwt>0</asrwt>
<pdfrwt beam="1">  1        2 0.24977751E+00 0.87248940E+03</pdfrwt>
<pdfrwt beam="2">  1       -2 0.58481688E-01 0.87248940E+03</pdfrwt>
<totfact> 0.29923610E+01</totfact>
</mgrwt>
</event>
<event>
 4    5  0.7289609E-008  0.1177638E+04  0.7818608E-02  0.9179172E-01
          2   -1    0    0  501    0  0.00000000000E+00  0.00000000000E+00  0.27177371278E+04  0.27177371278E+04  0.25500000000E-02 0. -1.
         -2   -1    0    0    0  501 -0.00000000000E+00 -0.00000000000E+00 -0.85823992429E+03  0.85823992429E+03  0.25500000000E-02 0.  1.
    8880023    1    1    2    0    0 -0.84902462608E+03 -0.48184994986E+03 -0.28774271177E+03  0.12122822544E+04  0.65864270000E+03 0.  0.
    8880022    1    1    2    0    0  0.84902462608E+03  0.48184994986E+03  0.21472399153E+04  0.23636947977E+04  0.15294330000E+03 0.  0.
<mgrwt>
<rscale>  0 0.11271020E+04</rscale>
<asrwt>0</asrwt>
<pdfrwt beam="1">  1        2 0.41811340E+00 0.11776385E+04</pdfrwt>
<pdfrwt beam="2">  1       -2 0.13203691E+00 0.11776385E+04</pdfrwt>
<totfact> 0.10658448E+00</totfact>
</mgrwt>
</event>
<event>
 4    5  0.7289609E-008  0.9932948E+03  0.7818608E-02  0.9390383E-01
         -2   -1    0    0    0  501 -0.00000000000E+00  0.00000000000E+00  0.71745084546E+03  0.71745084546E+03  0.25500000000E-02 0.  1.
          2   -1    0    0  501    0  0.00000000000E+00 -0.00000000000E+00 -0.14993746989E+04  0.14993746989E+04  0.25500000000E-02 0. -1.
    8880023    1    1    2    0    0 -0.16682398042E+03 -0.72456475200E+03  0.16106685006E+03  0.10062688789E+04  0.65864270000E+03 0.  1.
    8880022    1    1    2    0    0  0.16682398042E+03  0.72456475200E+03 -0.94299070351E+03  0.12105566654E+04  0.15294330000E+03 0.  0.
<mgrwt>
<rscale>  0 0.92871354E+03</rscale>
<asrwt>0</asrwt>
<pdfrwt beam="1">  1        2 0.23067303E+00 0.99329478E+03</pdfrwt>
<pdfrwt beam="2">  1       -2 0.11037705E+00 0.99329478E+03</pdfrwt>
<totfact> 0.82397354E+00</totfact>
</mgrwt>
</event>
<event>
 4    5  0.7289609E-008  0.1884648E+04  0.7818608E-02  0.8677103E-01
         -2   -1    0    0    0  501 -0.00000000000E+00  0.00000000000E+00  0.14219457693E+04  0.14219457693E+04  0.25500000000E-02 0.  1.
          2   -1    0    0  501    0  0.00000000000E+00 -0.00000000000E+00 -0.34534957992E+04  0.34534957992E+04  0.25500000000E-02 0. -1.
    8880023    1    1    2    0    0  0.53847719765E+03 -0.16817049689E+04  0.33966504234E+03  0.19150122303E+04  0.65864270000E+03 0.  0.
    8880022    1    1    2    0    0 -0.53847719765E+03  0.16817049689E+04 -0.23712150722E+04  0.29604293382E+04  0.15294330000E+03 0.  0.
<mgrwt>
<rscale>  0 0.18559427E+04</rscale>
<asrwt>0</asrwt>
<pdfrwt beam="1">  1        2 0.53130704E+00 0.18846484E+04</pdfrwt>
<pdfrwt beam="2">  1       -2 0.21876089E+00 0.18846484E+04</pdfrwt>
<totfact> 0.79548632E-02</totfact>
</mgrwt>
</event>
<event>
 4    5  0.7289609E-008  0.7367222E+03  0.7818608E-02  0.9869600E-01
          2   -1    0    0  501    0  0.00000000000E+00  0.00000000000E+00  0.77619876278E+03  0.77619876279E+03  0.25500000000E-02 0. -1.
         -2   -1    0    0    0  501 -0.00000000000E+00 -0.00000000000E+00 -0.79126923475E+03  0.79126923475E+03  0.25500000000E-02 0.  1.
    8880023    1    1    2    0    0 -0.31392544347E+03  0.10198149835E+03 -0.55082731448E+03  0.91987517996E+03  0.65864270000E+03 0.  0.
    8880022    1    1    2    0    0  0.31392544347E+03 -0.10198149835E+03  0.53575684252E+03  0.64759281758E+03  0.15294330000E+03 0.  0.
<mgrwt>
<rscale>  0 0.61757492E+03</rscale>
<asrwt>0</asrwt>
<pdfrwt beam="1">  1        2 0.11941519E+00 0.73672221E+03</pdfrwt>
<pdfrwt beam="2">  1       -2 0.12173373E+00 0.73672221E+03</pdfrwt>
<totfact> 0.18660057E+01</totfact>
</mgrwt>
</event>
<event>
 4    5  0.7289609E-008  0.1006772E+04  0.7818608E-02  0.9372751E-01
          2   -1    0    0  501    0  0.00000000000E+00  0.00000000000E+00  0.15797363928E+04  0.15797363928E+04  0.25500000000E-02 0. -1.
         -2   -1    0    0    0  501 -0.00000000000E+00 -0.00000000000E+00 -0.12589277329E+04  0.12589277329E+04  0.25500000000E-02 0.  1.
    8880023    1    1    2    0    0 -0.20535370275E+03 -0.73321906884E+03 -0.92723339395E+03  0.13687046136E+04  0.65864270000E+03 0.  1.
    8880022    1    1    2    0    0  0.20535370275E+03  0.73321906884E+03  0.12480420539E+04  0.14699595121E+04  0.15294330000E+03 0.  0.
<mgrwt>
<rscale>  0 0.94352542E+03</rscale>
<asrwt>0</asrwt>
<pdfrwt beam="1">  1        2 0.24303637E+00 0.10067723E+04</pdfrwt>
<pdfrwt beam="2">  1       -2 0.19368119E+00 0.10067723E+04</pdfrwt>
<totfact> 0.16646569E+00</totfact>
</mgrwt>
</event>
<event>
 4    5  0.7289609E-008  0.1037219E+04  0.7818608E-02  0.9334405E-01
          2   -1    0    0  501    0  0.00000000000E+00  0.00000000000E+00  0.11069047366E+04  0.11069047366E+04  0.25500000000E-02 0. -1.
         -2   -1    0    0    0  501 -0.00000000000E+00 -0.00000000000E+00 -0.20317343226E+04  0.20317343226E+04  0.25500000000E-02 0.  1.
    8880023    1    1    2    0    0  0.79916681912E+03 -0.57847633318E+02 -0.17141611234E+04  0.20035399963E+04  0.65864270000E+03 0.  1.
    8880022    1    1    2    0    0 -0.79916681912E+03  0.57847633318E+02  0.78933153749E+03  0.11350990629E+04  0.15294330000E+03 0.  0.
<mgrwt>
<rscale>  0 0.97676208E+03</rscale>
<asrwt>0</asrwt>
<pdfrwt beam="1">  1        2 0.17029304E+00 0.10372194E+04</pdfrwt>
<pdfrwt beam="2">  1       -2 0.31257451E+00 0.10372194E+04</pdfrwt>
<totfact> 0.57408084E-01</totfact>
</mgrwt>
</event>
<event>
 4    5  0.7289609E-008  0.9110352E+03  0.7818608E-02  0.9508544E-01
          2   -1    0    0  501    0  0.00000000000E+00  0.00000000000E+00  0.13829476609E+04  0.13829476609E+04  0.25500000000E-02 0. -1.
         -2   -1    0    0    0  501 -0.00000000000E+00 -0.00000000000E+00 -0.12928491997E+04  0.12928491997E+04  0.25500000000E-02 0.  1.
    8880023    1    1    2    0    0 -0.26451163764E+03  0.57114665650E+03 -0.10342075068E+04  0.13782489916E+04  0.65864270000E+03 0.  0.
    8880022    1    1    2    0    0  0.26451163764E+03 -0.57114665650E+03  0.11243059680E+04  0.12975478690E+04  0.15294330000E+03 0. -1.
<mgrwt>
<rscale>  0 0.83656843E+03</rscale>
<asrwt>0</asrwt>
<pdfrwt beam="1">  1        2 0.21276118E+00 0.91103519E+03</pdfrwt>
<pdfrwt beam="2">  1       -2 0.19889988E+00 0.91103519E+03</pdfrwt>
<totfact> 0.20109131E+00</totfact>
</mgrwt>
</event>
<event>
 4    5  0.8610089E-008  0.1291134E+04  0.7818608E-02  0.9073254E-01
         -2   -1    0    0    0  501 -0.00000000000E+00  0.00000000000E+00  0.14915764762E+04  0.14915764762E+04  0.25500000000E-02 0.  1.
          2   -1    0    0  501    0  0.00000000000E+00 -0.00000000000E+00 -0.28824149892E+04  0.28824149892E+04  0.25500000000E-02 0. -1.
    8880023    1    1    2    0    0  0.11001667939E+04 -0.15115948968E+03  0.10654618770E+04  0.16739878683E+04  0.65864270000E+03 0.  0.
    8880022    1    1    2    0    0 -0.11001667939E+04  0.15115948968E+03 -0.24563003900E+04  0.27000035971E+04  0.15294330000E+03 0.  0.
<mgrwt>
<rscale>  0 0.12463166E+04</rscale>
<asrwt>0</asrwt>
<pdfrwt beam="1">  1        2 0.44344846E+00 0.12911338E+04</pdfrwt>
<pdfrwt beam="2">  1       -2 0.22947331E+00 0.12911338E+04</pdfrwt>
<totfact> 0.17171687E-01</totfact>
</mgrwt>
</event>
<event>
 4    5  0.7289609E-008  0.9205806E+03  0.7818608E-02  0.9493769E-01
          2   -1    0    0  501    0  0.00000000000E+00  0.00000000000E+00  0.20165133888E+04  0.20165133888E+04  0.25500000000E-02 0. -1.
         -2   -1    0    0    0  501 -0.00000000000E+00 -0.00000000000E+00 -0.82371107601E+03  0.82371107602E+03  0.25500000000E-02 0.  1.
    8880023    1    1    2    0    0  0.50599618776E+01 -0.64314291063E+03 -0.48238354631E+03  0.10393086638E+04  0.65864270000E+03 0.  0.
    8880022    1    1    2    0    0 -0.50599618776E+01  0.64314291063E+03  0.16751858591E+04  0.18009158010E+04  0.15294330000E+03 0.  0.
<mgrwt>
<rscale>  0 0.84744741E+03</rscale>
<asrwt>0</asrwt>
<pdfrwt beam="1">  1        2 0.31023283E+00 0.92058058E+03</pdfrwt>
<pdfrwt beam="2">  1       -2 0.12672478E+00 0.92058058E+03</pdfrwt>
<totfact> 0.30594209E+00</totfact>
</mgrwt>
</event>
<event>
 4    5  0.7289609E-008  0.6976187E+03  0.7818608E-02  0.1000723E+00
         -2   -1    0    0    0  501 -0.00000000000E+00  0.00000000000E+00  0.23628679813E+03  0.23628679815E+03  0.25500000000E-02 0.  1.
          2   -1    0    0  501    0  0.00000000000E+00 -0.00000000000E+00 -0.31929234989E+04  0.31929234989E+04  0.25500000000E-02 0. -1.
    8880023    1    1    2    0    0  0.20872461772E+03  0.96413769727E+02 -0.30188525904E+03  0.76013584110E+03  0.65864270000E+03 0.  1.
    8880022    1    1    2    0    0 -0.20872461772E+03 -0.96413769727E+02 -0.26547514418E+04  0.26690744560E+04  0.15294330000E+03 0.  0.
<mgrwt>
<rscale>  0 0.55334482E+03</rscale>
<asrwt>0</asrwt>
<pdfrwt beam="1">  1        2 0.49121897E+00 0.69761865E+03</pdfrwt>
<pdfrwt beam="2">  1       -2 0.36351817E-01 0.69761865E+03</pdfrwt>
<totfact> 0.10082058E+01</totfact>
</mgrwt>
</event>
<event>
 4    5  0.7289609E-008  0.1190134E+04  0.7818608E-02  0.9166773E-01
         -2   -1    0    0    0  501 -0.00000000000E+00  0.00000000000E+00  0.12240591111E+04  0.12240591111E+04  0.25500000000E-02 0.  1.
          2   -1    0    0  501    0  0.00000000000E+00 -0.00000000000E+00 -0.33049537536E+04  0.33049537536E+04  0.25500000000E-02 0. -1.
    8880023    1    1    2    0    0 -0.29425709314E+03 -0.94658396595E+03  0.82946802090E+03  0.14506673793E+04  0.65864270000E+03 0.  0.
    8880022    1    1    2    0    0  0.29425709314E+03  0.94658396595E+03 -0.29103626634E+04  0.30783454854E+04  0.15294330000E+03 0.  0.
<mgrwt>
<rscale>  0 0.11403065E+04</rscale>
<asrwt>0</asrwt>
<pdfrwt beam="1">  1        2 0.50845442E+00 0.11901339E+04</pdfrwt>
<pdfrwt beam="2">  1       -2 0.18831679E+00 0.11901339E+04</pdfrwt>
<totfact> 0.17416752E-01</totfact>
</mgrwt>
</event>
<event>
 4    5  0.7289609E-008  0.1289373E+04  0.7818608E-02  0.9074791E-01
         -2   -1    0    0    0  501 -0.00000000000E+00  0.00000000000E+00  0.66720364695E+03  0.66720364695E+03  0.25500000000E-02 0.  1.
          2   -1    0    0  501    0  0.00000000000E+00 -0.00000000000E+00 -0.23470123942E+04  0.23470123942E+04  0.25500000000E-02 0. -1.
    8880023    1    1    2    0    0  0.86184455121E+03  0.69706345394E+03 -0.48583701897E+03  0.13778683916E+04  0.65864270000E+03 0.  0.
    8880022    1    1    2    0    0 -0.86184455121E+03 -0.69706345394E+03 -0.11939717282E+04  0.16363476495E+04  0.15294330000E+03 0.  0.
<mgrwt>
<rscale>  0 0.12444785E+04</rscale>
<asrwt>0</asrwt>
<pdfrwt beam="1">  1        2 0.36107883E+00 0.12893734E+04</pdfrwt>
<pdfrwt beam="2">  1       -2 0.10264672E+00 0.12893734E+04</pdfrwt>
<totfact> 0.32157397E+00</totfact>
</mgrwt>
</event>
<event>
 4    5  0.7289609E-008  0.6949886E+03  0.7818608E-02  0.1001866E+00
          2   -1    0    0  501    0  0.00000000000E+00  0.00000000000E+00  0.25084067882E+04  0.25084067882E+04  0.25500000000E-02 0. -1.
         -2   -1    0    0    0  501 -0.00000000000E+00 -0.00000000000E+00 -0.28270855357E+03  0.28270855358E+03  0.25500000000E-02 0.  1.
    8880023    1    1    2    0    0 -0.21366165974E+03 -0.59562533744E+02  0.16688088117E+03  0.71474361490E+03  0.65864270000E+03 0.  1.
    8880022    1    1    2    0    0  0.21366165974E+03  0.59562533744E+02  0.20588173534E+04  0.20763717269E+04  0.15294330000E+03 0.  0.
<mgrwt>
<rscale>  0 0.54839485E+03</rscale>
<asrwt>0</asrwt>
<pdfrwt beam="1">  1        2 0.38590874E+00 0.69498864E+03</pdfrwt>
<pdfrwt beam="2">  1       -2 0.43493623E-01 0.69498864E+03</pdfrwt>
<totfact> 0.18217252E+01</totfact>
</mgrwt>
</event>
<event>
 4    5  0.7289609E-008  0.1881808E+04  0.7818608E-02  0.8678584E-01
         -2   -1    0    0    0  501 -0.00000000000E+00  0.00000000000E+00  0.10854250934E+04  0.10854250934E+04  0.25500000000E-02 0.  1.
          2   -1    0    0  501    0  0.00000000000E+00 -0.00000000000E+00 -0.35326264761E+04  0.35326264761E+04  0.25500000000E-02 0. -1.
    8880023    1    1    2    0    0  0.51667501929E+03 -0.16853601688E+04 -0.42157527280E+03  0.19284522008E+04  0.65864270000E+03 0.  0.
    8880022    1    1    2    0    0 -0.51667501929E+03  0.16853601688E+04 -0.20256261098E+04  0.26895993687E+04  0.15294330000E+03 0.  0.
<mgrwt>
<rscale>  0 0.18530543E+04</rscale>
<asrwt>0</asrwt>
<pdfrwt beam="1">  1        2 0.54348099E+00 0.18818082E+04</pdfrwt>
<pdfrwt beam="2">  1       -2 0.16698848E+00 0.18818082E+04</pdfrwt>
<totfact> 0.15721253E-01</totfact>
</mgrwt>
</event>
<event>
 4    5  0.7289609E-008  0.6894396E+03  0.7818608E-02  0.1004420E+00
          2   -1    0    0  501    0  0.00000000000E+00  0.00000000000E+00  0.20091455082E+04  0.20091455082E+04  0.25500000000E-02 0. -1.
         -2   -1    0    0    0  501 -0.00000000000E+00 -0.00000000000E+00 -0.16840340727E+03  0.16840340729E+03  0.25500000000E-02 0.  1.
    8880023    1    1    2    0    0  0.20330785233E+03 -0.13517777003E+02  0.60950821479E+03  0.92023218987E+03  0.65864270000E+03 0.  1.
    8880022    1    1    2    0    0 -0.20330785233E+03  0.13517777003E+02  0.12312338861E+04  0.12573167256E+04  0.15294330000E+03 0.  0.
<mgrwt>
<rscale>  0 0.53753885E+03</rscale>
<asrwt>0</asrwt>
<pdfrwt beam="1">  1        2 0.30909933E+00 0.68943964E+03</pdfrwt>
<pdfrwt beam="2">  1       -2 0.25908215E-01 0.68943964E+03</pdfrwt>
<totfact> 0.91712297E+01</totfact>
</mgrwt>
</event>
<event>
 4    5  0.7289609E-008  0.1079012E+04  0.7818608E-02  0.9284792E-01
         -2   -1    0    0    0  501 -0.00000000000E+00  0.00000000000E+00  0.10480065090E+04  0.10480065090E+04  0.25500000000E-02 0.  1.
          2   -1    0    0  501    0  0.00000000000E+00 -0.00000000000E+00 -0.13354608690E+04  0.13354608690E+04  0.25500000000E-02 0. -1.
    8880023    1    1    2    0    0  0.84607404802E+03 -0.12089116644E+03  0.52001324954E+03  0.11977812633E+04  0.65864270000E+03 0.  1.
    8880022    1    1    2    0    0 -0.84607404802E+03  0.12089116644E+03 -0.80746760960E+03  0.11856861146E+04  0.15294330000E+03 0.  0.
<mgrwt>
<rscale>  0 0.10219509E+04</rscale>
<asrwt>0</asrwt>
<pdfrwt beam="1">  1        2 0.20545552E+00 0.10790117E+04</pdfrwt>
<pdfrwt beam="2">  1       -2 0.16123177E+00 0.10790117E+04</pdfrwt>
<totfact> 0.38234712E+00</totfact>
</mgrwt>
</event>
<event>
 4    5  0.7289609E-008  0.1379786E+04  0.7818608E-02  0.8999551E-01
         -2   -1    0    0    0  501 -0.00000000000E+00  0.00000000000E+00  0.90320680627E+03  0.90320680628E+03  0.25500000000E-02 0.  1.
          2   -1    0    0  501    0  0.00000000000E+00 -0.00000000000E+00 -0.22310023774E+04  0.22310023774E+04  0.25500000000E-02 0. -1.
    8880023    1    1    2    0    0 -0.11333171501E+04  0.43080414055E+03 -0.71569921352E+02  0.13816412089E+04  0.65864270000E+03 0.  0.
    8880022    1    1    2    0    0  0.11333171501E+04 -0.43080414055E+03 -0.12562256498E+04  0.17525679748E+04  0.15294330000E+03 0.  0.
<mgrwt>
<rscale>  0 0.13385376E+04</rscale>
<asrwt>0</asrwt>
<pdfrwt beam="1">  1        2 0.34323113E+00 0.13797863E+04</pdfrwt>
<pdfrwt beam="2">  1       -2 0.13895489E+00 0.13797863E+04</pdfrwt>
<totfact> 0.17385970E+00</totfact>
</mgrwt>
</event>
<event>
 4    5  0.7289609E-008  0.9979071E+03  0.7818608E-02  0.9384301E-01
          2   -1    0    0  501    0  0.00000000000E+00  0.00000000000E+00  0.10368050197E+04  0.10368050197E+04  0.25500000000E-02 0. -1.
         -2   -1    0    0    0  501 -0.00000000000E+00 -0.00000000000E+00 -0.24169854742E+04  0.24169854742E+04  0.25500000000E-02 0.  1.
    8880023    1    1    2    0    0  0.68079474275E+03 -0.31388997123E+03 -0.21488390783E+04  0.23692462908E+04  0.65864270000E+03 0.  1.
    8880022    1    1    2    0    0 -0.68079474275E+03  0.31388997123E+03  0.76865862368E+03  0.10845442031E+04  0.15294330000E+03 0.  0.
<mgrwt>
<rscale>  0 0.93378992E+03</rscale>
<asrwt>0</asrwt>
<pdfrwt beam="1">  1        2 0.15950847E+00 0.99790711E+03</pdfrwt>
<pdfrwt beam="2">  1       -2 0.37184392E+00 0.99790711E+03</pdfrwt>
<totfact> 0.27351482E-01</totfact>
</mgrwt>
</event>
<event>
 4    5  0.7289609E-008  0.8400739E+03  0.7818608E-02  0.9630041E-01
          2   -1    0    0  501    0  0.00000000000E+00  0.00000000000E+00  0.40627428263E+04  0.40627428263E+04  0.25500000000E-02 0. -1.
         -2   -1    0    0    0  501 -0.00000000000E+00 -0.00000000000E+00 -0.14107207272E+03  0.14107207275E+03  0.25500000000E-02 0.  1.
    8880023    1    1    2    0    0  0.11812851663E+03  0.50789731849E+03  0.14743628553E+04  0.16969001350E+04  0.65864270000E+03 0.  1.
    8880022    1    1    2    0    0 -0.11812851663E+03 -0.50789731849E+03  0.24473078982E+04  0.25069147641E+04  0.15294330000E+03 0.  0.
<mgrwt>
<rscale>  0 0.75339392E+03</rscale>
<asrwt>0</asrwt>
<pdfrwt beam="1">  1        2 0.62503725E+00 0.84007395E+03</pdfrwt>
<pdfrwt beam="2">  1       -2 0.21703400E-01 0.84007395E+03</pdfrwt>
<totfact> 0.60998620E+00</totfact>
</mgrwt>
</event>
<event>
 4    5  0.7289609E-008  0.8644186E+03  0.7818608E-02  0.9585751E-01
          2   -1    0    0  501    0  0.00000000000E+00  0.00000000000E+00  0.52726322013E+03  0.52726322014E+03  0.25500000000E-02 0. -1.
         -2   -1    0    0    0  501 -0.00000000000E+00 -0.00000000000E+00 -0.22565646348E+04  0.22565646348E+04  0.25500000000E-02 0.  1.
    8880023    1    1    2    0    0 -0.53980762345E+03  0.14838130837E+03 -0.19732590985E+04  0.21542912893E+04  0.65864270000E+03 0.  1.
    8880022    1    1    2    0    0  0.53980762345E+03 -0.14838130837E+03  0.24395768381E+03  0.62953656567E+03  0.15294330000E+03 0.  0.
<mgrwt>
<rscale>  0 0.78246466E+03</rscale>
<asrwt>0</asrwt>
<pdfrwt beam="1">  1        2 0.81117419E-01 0.86441858E+03</pdfrwt>
<pdfrwt beam="2">  1       -2 0.34716379E+00 0.86441858E+03</pdfrwt>
<totfact> 0.96975018E-01</totfact>
</mgrwt>
</event>
<event>
 4    5  0.7289609E-008  0.8708606E+03  0.7818608E-02  0.9574529E-01
          2   -1    0    0  501    0  0.00000000000E+00  0.00000000000E+00  0.15245148735E+04  0.15245148735E+04  0.25500000000E-02 0. -1.
         -2   -1    0    0    0  501 -0.00000000000E+00 -0.00000000000E+00 -0.13486850351E+04  0.13486850351E+04  0.25500000000E-02 0.  1.
    8880023    1    1    2    0    0 -0.53251712152E+03 -0.20251804692E+03 -0.11380191693E+04  0.14329989114E+04  0.65864270000E+03 0.  0.
    8880022    1    1    2    0    0  0.53251712152E+03  0.20251804692E+03  0.13138490077E+04  0.14402009972E+04  0.15294330000E+03 0.  0.
<mgrwt>
<rscale>  0 0.79005210E+03</rscale>
<asrwt>0</asrwt>
<pdfrwt beam="1">  1        2 0.23454075E+00 0.87086064E+03</pdfrwt>
<pdfrwt beam="2">  1       -2 0.20749001E+00 0.87086064E+03</pdfrwt>
<totfact> 0.14805853E+00</totfact>
</mgrwt>
</event>
<event>
 4    5  0.7289609E-008  0.1821388E+04  0.7818608E-02  0.8710797E-01
         -2   -1    0    0    0  501 -0.00000000000E+00  0.00000000000E+00  0.26569623493E+04  0.26569623493E+04  0.25500000000E-02 0.  1.
          2   -1    0    0  501    0  0.00000000000E+00 -0.00000000000E+00 -0.20119485278E+04  0.20119485278E+04  0.25500000000E-02 0. -1.
    8880023    1    1    2    0    0 -0.15995982253E+04 -0.57002569513E+03  0.18382964701E+04  0.25878152743E+04  0.65864270000E+03 0.  0.
    8880022    1    1    2    0    0  0.15995982253E+04  0.57002569513E+03 -0.11932826486E+04  0.20810956028E+04  0.15294330000E+03 0.  0.
<mgrwt>
<rscale>  0 0.17915673E+04</rscale>
<asrwt>0</asrwt>
<pdfrwt beam="1">  1        2 0.30953054E+00 0.18213879E+04</pdfrwt>
<pdfrwt beam="2">  1       -2 0.40876344E+00 0.18213879E+04</pdfrwt>
<totfact> 0.38615675E-02</totfact>
</mgrwt>
</event>
<event>
 4    5  0.7289609E-008  0.1129866E+04  0.7818608E-02  0.9228511E-01
          2   -1    0    0  501    0  0.00000000000E+00  0.00000000000E+00  0.12629441633E+04  0.12629441633E+04  0.25500000000E-02 0. -1.
         -2   -1    0    0    0  501 -0.00000000000E+00 -0.00000000000E+00 -0.10292003074E+04  0.10292003074E+04  0.25500000000E-02 0.  1.
    8880023    1    1    2    0    0  0.34718540547E+03  0.84985249028E+03 -0.36279877901E+03  0.11866845079E+04  0.65864270000E+03 0.  0.
    8880022    1    1    2    0    0 -0.34718540547E+03 -0.84985249028E+03  0.59654263493E+03  0.11054599628E+04  0.15294330000E+03 0.  0.
<mgrwt>
<rscale>  0 0.10763937E+04</rscale>
<asrwt>0</asrwt>
<pdfrwt beam="1">  1        2 0.19429910E+00 0.11298660E+04</pdfrwt>
<pdfrwt beam="2">  1       -2 0.15833851E+00 0.11298660E+04</pdfrwt>
<totfact> 0.44067513E+00</totfact>
</mgrwt>
</event>
<event>
 4    5  0.7289609E-008  0.1229700E+04  0.7818608E-02  0.9128779E-01
         -2   -1    0    0    0  501 -0.00000000000E+00  0.00000000000E+00  0.11065077878E+04  0.11065077879E+04  0.25500000000E-02 0.  1.
          2   -1    0    0  501    0  0.00000000000E+00 -0.00000000000E+00 -0.14445379995E+04  0.14445379995E+04  0.25500000000E-02 0. -1.
    8880023    1    1    2    0    0  0.10310764926E+04  0.12342009013E+03 -0.73063956010E+03  0.14303830345E+04  0.65864270000E+03 0. -1.
    8880022    1    1    2    0    0 -0.10310764926E+04 -0.12342009013E+03  0.39260934843E+03  0.11206627529E+04  0.15294330000E+03 0.  0.
<mgrwt>
<rscale>  0 0.11819779E+04</rscale>
<asrwt>0</asrwt>
<pdfrwt beam="1">  1        2 0.22223662E+00 0.12296997E+04</pdfrwt>
<pdfrwt beam="2">  1       -2 0.17023197E+00 0.12296997E+04</pdfrwt>
<totfact> 0.28050455E+00</totfact>
</mgrwt>
</event>
<event>
 4    5  0.7289609E-008  0.9466526E+03  0.7818608E-02  0.9454947E-01
          2   -1    0    0  501    0  0.00000000000E+00  0.00000000000E+00  0.39676653530E+04  0.39676653530E+04  0.25500000000E-02 0. -1.
         -2   -1    0    0    0  501 -0.00000000000E+00 -0.00000000000E+00 -0.20138793696E+03  0.20138793697E+03  0.25500000000E-02 0.  1.
    8880023    1    1    2    0    0  0.67910709430E+03  0.33976589547E+02  0.13128582606E+04  0.16185635214E+04  0.65864270000E+03 0.  0.
    8880022    1    1    2    0    0 -0.67910709430E+03 -0.33976589547E+02  0.24534191554E+04  0.25504897685E+04  0.15294330000E+03 0.  0.
<mgrwt>
<rscale>  0 0.87688493E+03</rscale>
<asrwt>0</asrwt>
<pdfrwt beam="1">  1        2 0.61040996E+00 0.94665256E+03</pdfrwt>
<pdfrwt beam="2">  1       -2 0.30982765E-01 0.94665256E+03</pdfrwt>
<totfact> 0.37255059E+00</totfact>
</mgrwt>
</event>
<event>
 4    5  0.7289609E-008  0.1878214E+04  0.7818608E-02  0.8680462E-01
          2   -1    0    0  501    0  0.00000000000E+00  0.00000000000E+00  0.17474362774E+04  0.17474362774E+04  0.25500000000E-02 0. -1.
         -2   -1    0    0    0  501 -0.00000000000E+00 -0.00000000000E+00 -0.29746425711E+04  0.29746425711E+04  0.25500000000E-02 0.  1.
    8880023    1    1    2    0    0  0.25247173025E+02 -0.17587612865E+04  0.79327773952E+03  0.20388669552E+04  0.65864270000E+03 0.  0.
    8880022    1    1    2    0    0 -0.25247173025E+02  0.17587612865E+04 -0.20204840332E+04  0.26832118933E+04  0.15294330000E+03 0.  0.
<mgrwt>
<rscale>  0 0.18493992E+04</rscale>
<asrwt>0</asrwt>
<pdfrwt beam="1">  1        2 0.26883635E+00 0.18782143E+04</pdfrwt>
<pdfrwt beam="2">  1       -2 0.45763732E+00 0.18782143E+04</pdfrwt>
<totfact> 0.25565033E-02</totfact>
</mgrwt>
</event>
<event>
 4    5  0.7289609E-008  0.1701520E+04  0.7818608E-02  0.8779062E-01
          2   -1    0    0  501    0  0.00000000000E+00  0.00000000000E+00  0.31478401845E+04  0.31478401845E+04  0.25500000000E-02 0. -1.
         -2   -1    0    0    0  501 -0.00000000000E+00 -0.00000000000E+00 -0.97319296094E+03  0.97319296094E+03  0.25500000000E-02 0.  1.
    8880023    1    1    2    0    0  0.38814654753E+03  0.15200992648E+04  0.18465142593E+04  0.25109330205E+04  0.65864270000E+03 0.  0.
    8880022    1    1    2    0    0 -0.38814654753E+03 -0.15200992648E+04  0.32813296432E+03  0.16101001250E+04  0.15294330000E+03 0.  0.
<mgrwt>
<rscale>  0 0.16693143E+04</rscale>
<asrwt>0</asrwt>
<pdfrwt beam="1">  1        2 0.48428311E+00 0.17015198E+04</pdfrwt>
<pdfrwt beam="2">  1       -2 0.14972199E+00 0.17015198E+04</pdfrwt>
<totfact> 0.39192148E-01</totfact>
</mgrwt>
</event>
<event>
 4    5  0.7289609E-008  0.6695052E+03  0.7818608E-02  0.1016020E+00
         -2   -1    0    0    0  501 -0.00000000000E+00  0.00000000000E+00  0.53497246762E+03  0.53497246762E+03  0.25500000000E-02 0.  1.
          2   -1    0    0  501    0  0.00000000000E+00 -0.00000000000E+00 -0.11158311747E+04  0.11158311747E+04  0.25500000000E-02 0. -1.
    8880023    1    1    2    0    0 -0.75698335765E+02 -0.93256474533E+02  0.31083988742E+03  0.73814541247E+03  0.65864270000E+03 0.  1.
    8880022    1    1    2    0    0  0.75698335765E+02  0.93256474533E+02 -0.89169859454E+03  0.91265822990E+03  0.15294330000E+03 0.  0.
<mgrwt>
<rscale>  0 0.49150590E+03</rscale>
<asrwt>0</asrwt>
<pdfrwt beam="1">  1        2 0.17166633E+00 0.66950520E+03</pdfrwt>
<pdfrwt beam="2">  1       -2 0.82303457E-01 0.66950520E+03</pdfrwt>
<totfact> 0.28350193E+01</totfact>
</mgrwt>
</event>
<event>
 4    5  0.7289609E-008  0.1629228E+04  0.7818608E-02  0.8823393E-01
          2   -1    0    0  501    0  0.00000000000E+00  0.00000000000E+00  0.25725267977E+04  0.25725267977E+04  0.25500000000E-02 0. -1.
         -2   -1    0    0    0  501 -0.00000000000E+00 -0.00000000000E+00 -0.14285269131E+04  0.14285269131E+04  0.25500000000E-02 0.  1.
    8880023    1    1    2    0    0 -0.12440599360E+04  0.82029815515E+03 -0.56874862441E+03  0.17256475282E+04  0.65864270000E+03 0.  0.
    8880022    1    1    2    0    0  0.12440599360E+04 -0.82029815515E+03  0.17127485090E+04  0.22754061826E+04  0.15294330000E+03 0.  0.
<mgrwt>
<rscale>  0 0.15953775E+04</rscale>
<asrwt>0</asrwt>
<pdfrwt beam="1">  1        2 0.39577335E+00 0.16292282E+04</pdfrwt>
<pdfrwt beam="2">  1       -2 0.21977337E+00 0.16292282E+04</pdfrwt>
<totfact> 0.28980283E-01</totfact>
</mgrwt>
</event>
<event>
 4    5  0.7289609E-008  0.8630035E+03  0.7818608E-02  0.9588243E-01
          2   -1    0    0  501    0  0.00000000000E+00  0.00000000000E+00  0.15479720769E+04  0.15479720769E+04  0.25500000000E-02 0. -1.
         -2   -1    0    0    0  501 -0.00000000000E+00 -0.00000000000E+00 -0.61996884181E+03  0.61996884181E+03  0.25500000000E-02 0.  1.
    8880023    1    1    2    0    0  0.29814614392E+03  0.47124696327E+03 -0.21289623701E+03  0.88887560295E+03  0.65864270000E+03 0.  1.
    8880022    1    1    2    0    0 -0.29814614392E+03 -0.47124696327E+03  0.11408994721E+04  0.12790653158E+04  0.15294330000E+03 0.  0.
<mgrwt>
<rscale>  0 0.78079250E+03</rscale>
<asrwt>0</asrwt>
<pdfrwt beam="1">  1        2 0.23814955E+00 0.86300349E+03</pdfrwt>
<pdfrwt beam="2">  1       -2 0.95379824E-01 0.86300349E+03</pdfrwt>
<totfact> 0.11134295E+01</totfact>
</mgrwt>
</event>
<event>
 4    5  0.7289609E-008  0.9436542E+03  0.7818608E-02  0.9459304E-01
         -2   -1    0    0    0  501 -0.00000000000E+00  0.00000000000E+00  0.19429296823E+04  0.19429296823E+04  0.25500000000E-02 0.  1.
          2   -1    0    0  501    0  0.00000000000E+00 -0.00000000000E+00 -0.73712815979E+03  0.73712815980E+03  0.25500000000E-02 0. -1.
    8880023    1    1    2    0    0 -0.48227592898E+03  0.47337395734E+03  0.16185635033E+04  0.18735610467E+04  0.65864270000E+03 0.  1.
    8880022    1    1    2    0    0  0.48227592898E+03 -0.47337395734E+03 -0.41276198082E+03  0.80649679540E+03  0.15294330000E+03 0.  0.
<mgrwt>
<rscale>  0 0.87351850E+03</rscale>
<asrwt>0</asrwt>
<pdfrwt beam="1">  1        2 0.11340434E+00 0.94365416E+03</pdfrwt>
<pdfrwt beam="2">  1       -2 0.29891225E+00 0.94365416E+03</pdfrwt>
<totfact> 0.12530714E+00</totfact>
</mgrwt>
</event>
<event>
 4    5  0.7289609E-008  0.7281852E+03  0.7818608E-02  0.9895804E-01
         -2   -1    0    0    0  501 -0.00000000000E+00  0.00000000000E+00  0.66098702065E+03  0.66098702066E+03  0.25500000000E-02 0.  1.
          2   -1    0    0  501    0  0.00000000000E+00 -0.00000000000E+00 -0.76893058348E+03  0.76893058348E+03  0.25500000000E-02 0. -1.
    8880023    1    1    2    0    0  0.30582198211E+03  0.54003858636E+02  0.38800225517E+03  0.82510572521E+03  0.65864270000E+03 0.  1.
    8880022    1    1    2    0    0 -0.30582198211E+03 -0.54003858636E+02 -0.49594581800E+03  0.60481187893E+03  0.15294330000E+03 0.  0.
<mgrwt>
<rscale>  0 0.60465051E+03</rscale>
<asrwt>0</asrwt>
<pdfrwt beam="1">  1        2 0.11829701E+00 0.72818522E+03</pdfrwt>
<pdfrwt beam="2">  1       -2 0.10169031E+00 0.72818522E+03</pdfrwt>
<totfact> 0.29268574E+01</totfact>
</mgrwt>
</event>
<event>
 4    5  0.7289609E-008  0.6739538E+03  0.7818608E-02  0.1012974E+00
         -2   -1    0    0    0  501 -0.00000000000E+00  0.00000000000E+00  0.35692476862E+03  0.35692476863E+03  0.25500000000E-02 0.  1.
          2   -1    0    0  501    0  0.00000000000E+00 -0.00000000000E+00 -0.19511943422E+04  0.19511943422E+04  0.25500000000E-02 0. -1.
    8880023    1    1    2    0    0  0.13629949223E+03  0.42730705573E+02  0.25937473343E+02  0.67445268445E+03  0.65864270000E+03 0.  1.
    8880022    1    1    2    0    0 -0.13629949223E+03 -0.42730705573E+02 -0.16202070469E+04  0.16336664264E+04  0.15294330000E+03 0.  0.
<mgrwt>
<rscale>  0 0.50309591E+03</rscale>
<asrwt>0</asrwt>
<pdfrwt beam="1">  1        2 0.30018374E+00 0.67395376E+03</pdfrwt>
<pdfrwt beam="2">  1       -2 0.54911504E-01 0.67395376E+03</pdfrwt>
<totfact> 0.23156580E+01</totfact>
</mgrwt>
</event>
<event>
 4    5  0.7289609E-008  0.1019875E+04  0.7818608E-02  0.9356005E-01
         -2   -1    0    0    0  501 -0.00000000000E+00  0.00000000000E+00  0.54299508209E+03  0.54299508210E+03  0.25500000000E-02 0.  1.
          2   -1    0    0  501    0  0.00000000000E+00 -0.00000000000E+00 -0.22395872481E+04  0.22395872481E+04  0.25500000000E-02 0. -1.
    8880023    1    1    2    0    0 -0.30594593550E+03  0.71605300191E+03 -0.13217004140E+03  0.10284035896E+04  0.65864270000E+03 0.  0.
    8880022    1    1    2    0    0  0.30594593550E+03 -0.71605300191E+03 -0.15644221246E+04  0.17541787406E+04  0.15294330000E+03 0.  0.
<mgrwt>
<rscale>  0 0.95786478E+03</rscale>
<asrwt>0</asrwt>
<pdfrwt beam="1">  1        2 0.34455188E+00 0.10198750E+04</pdfrwt>
<pdfrwt beam="2">  1       -2 0.83537706E-01 0.10198750E+04</pdfrwt>
<totfact> 0.61661534E+00</totfact>
</mgrwt>
</event>
<event>
 4    5  0.7289609E-008  0.1353516E+04  0.7818608E-02  0.9020670E-01
          2   -1    0    0  501    0  0.00000000000E+00  0.00000000000E+00  0.15835477695E+04  0.15835477695E+04  0.25500000000E-02 0. -1.
         -2   -1    0    0    0  501 -0.00000000000E+00 -0.00000000000E+00 -0.19728491516E+04  0.19728491516E+04  0.25500000000E-02 0.  1.
    8880023    1    1    2    0    0 -0.11796477129E+04 -0.81411807457E+02 -0.14334693446E+04  0.19715073363E+04  0.65864270000E+03 0.  1.
    8880022    1    1    2    0    0  0.11796477129E+04  0.81411807457E+02  0.10441679625E+04  0.15848895848E+04  0.15294330000E+03 0.  0.
<mgrwt>
<rscale>  0 0.13112768E+04</rscale>
<asrwt>0</asrwt>
<pdfrwt beam="1">  1        2 0.24362273E+00 0.13535165E+04</pdfrwt>
<pdfrwt beam="2">  1       -2 0.30351525E+00 0.13535165E+04</pdfrwt>
<totfact> 0.32953919E-01</totfact>
</mgrwt>
</event>
<event>
 4    5  0.7289609E-008  0.1115953E+04  0.7818608E-02  0.9243499E-01
         -2   -1    0    0    0  501 -0.00000000000E+00  0.00000000000E+00  0.43470381978E+03  0.43470381978E+03  0.25500000000E-02 0.  1.
          2   -1    0    0  501    0  0.00000000000E+00 -0.00000000000E+00 -0.43442203791E+04  0.43442203791E+04  0.25500000000E-02 0. -1.
    8880023    1    1    2    0    0  0.16118091345E+03 -0.88631867561E+03 -0.45422173234E+03  0.12048517212E+04  0.65864270000E+03 0.  1.
    8880022    1    1    2    0    0 -0.16118091345E+03  0.88631867561E+03 -0.34552948270E+04  0.35740724777E+04  0.15294330000E+03 0.  0.
<mgrwt>
<rscale>  0 0.10615506E+04</rscale>
<asrwt>0</asrwt>
<pdfrwt beam="1">  1        2 0.66834157E+00 0.11159526E+04</pdfrwt>
<pdfrwt beam="2">  1       -2 0.66877514E-01 0.11159526E+04</pdfrwt>
<totfact> 0.37084400E-01</totfact>
</mgrwt>
</event>
<event>
 4    5  0.7289609E-008  0.9967168E+03  0.7818608E-02  0.9385866E-01
          2   -1    0    0  501    0  0.00000000000E+00  0.00000000000E+00  0.31475980132E+04  0.31475980132E+04  0.25500000000E-02 0. -1.
         -2   -1    0    0    0  501 -0.00000000000E+00 -0.00000000000E+00 -0.75498884306E+03  0.75498884306E+03  0.25500000000E-02 0.  1.
    8880023    1    1    2    0    0 -0.58738882929E+02 -0.74577735242E+03 -0.34945009256E+03  0.10562005914E+04  0.65864270000E+03 0.  0.
    8880022    1    1    2    0    0  0.58738882929E+02  0.74577735242E+03  0.27420592628E+04  0.28463862649E+04  0.15294330000E+03 0.  0.
<mgrwt>
<rscale>  0 0.93248057E+03</rscale>
<asrwt>0</asrwt>
<pdfrwt beam="1">  1        2 0.48424585E+00 0.99671677E+03</pdfrwt>
<pdfrwt beam="2">  1       -2 0.11615213E+00 0.99671677E+03</pdfrwt>
<totfact> 0.82535411E-01</totfact>
</mgrwt>
</event>
<event>
 4    5  0.7289609E-008  0.9056365E+03  0.7818608E-02  0.9517043E-01
         -2   -1    0    0    0  501 -0.00000000000E+00  0.00000000000E+00  0.15363123682E+04  0.15363123682E+04  0.25500000000E-02 0.  1.
          2   -1    0    0  501    0  0.00000000000E+00 -0.00000000000E+00 -0.10445122257E+04  0.10445122257E+04  0.25500000000E-02 0. -1.
    8880023    1    1    2    0    0 -0.20248503612E+03 -0.58767939066E+03  0.12783976572E+04  0.15666773861E+04  0.65864270000E+03 0.  1.
    8880022    1    1    2    0    0  0.20248503612E+03  0.58767939066E+03 -0.78659751466E+03  0.10141472078E+04  0.15294330000E+03 0.  0.
<mgrwt>
<rscale>  0 0.83038881E+03</rscale>
<asrwt>0</asrwt>
<pdfrwt beam="1">  1        2 0.16069419E+00 0.90563650E+03</pdfrwt>
<pdfrwt beam="2">  1       -2 0.23635575E+00 0.90563650E+03</pdfrwt>
<totfact> 0.18551980E+00</totfact>
</mgrwt>
</event>
<event>
 4    5  0.7289609E-008  0.7275987E+03  0.7818608E-02  0.9897666E-01
          2   -1    0    0  501    0  0.00000000000E+00  0.00000000000E+00  0.79930524968E+03  0.79930524968E+03  0.25500000000E-02 0. -1.
         -2   -1    0    0    0  501 -0.00000000000E+00 -0.00000000000E+00 -0.30722261285E+04  0.30722261285E+04  0.25500000000E-02 0.  1.
    8880023    1    1    2    0    0 -0.27478803810E+03 -0.14170792038E+03 -0.29892245014E+04  0.30765017352E+04  0.65864270000E+03 0.  0.
    8880022    1    1    2    0    0  0.27478803810E+03  0.14170792038E+03  0.71630362255E+03  0.79502964302E+03  0.15294330000E+03 0.  0.
<mgrwt>
<rscale>  0 0.60374526E+03</rscale>
<asrwt>0</asrwt>
<pdfrwt beam="1">  1        2 0.12297004E+00 0.72759866E+03</pdfrwt>
<pdfrwt beam="2">  1       -2 0.47265017E+00 0.72759866E+03</pdfrwt>
<totfact> 0.91151513E-02</totfact>
</mgrwt>
</event>
<event>
 4    5  0.7289609E-008  0.8804032E+03  0.7818608E-02  0.9558253E-01
         -2   -1    0    0    0  501 -0.00000000000E+00  0.00000000000E+00  0.31278635813E+03  0.31278635814E+03  0.25500000000E-02 0.  1.
          2   -1    0    0  501    0  0.00000000000E+00 -0.00000000000E+00 -0.37582992242E+04  0.37582992242E+04  0.25500000000E-02 0. -1.
    8880023    1    1    2    0    0 -0.36910919369E+03 -0.45283330002E+03 -0.40129580575E+03  0.96754747917E+03  0.65864270000E+03 0.  0.
    8880022    1    1    2    0    0  0.36910919369E+03  0.45283330002E+03 -0.30442170603E+04  0.31035381031E+04  0.15294330000E+03 0.  0.
<mgrwt>
<rscale>  0 0.80122018E+03</rscale>
<asrwt>0</asrwt>
<pdfrwt beam="1">  1        2 0.57819985E+00 0.88040320E+03</pdfrwt>
<pdfrwt beam="2">  1       -2 0.48120981E-01 0.88040320E+03</pdfrwt>
<totfact> 0.23083363E+00</totfact>
</mgrwt>
</event>
<event>
 4    5  0.7289609E-008  0.1021192E+04  0.7818608E-02  0.9354342E-01
         -2   -1    0    0    0  501 -0.00000000000E+00  0.00000000000E+00  0.11300773519E+04  0.11300773519E+04  0.25500000000E-02 0.  1.
          2   -1    0    0  501    0  0.00000000000E+00 -0.00000000000E+00 -0.35560681115E+04  0.35560681115E+04  0.25500000000E-02 0. -1.
    8880023    1    1    2    0    0  0.66057319346E+03 -0.41553174171E+03  0.84152243505E+03  0.13232512185E+04  0.65864270000E+03 0.  0.
    8880022    1    1    2    0    0 -0.66057319346E+03  0.41553174171E+03 -0.32675131947E+04  0.33628942449E+04  0.15294330000E+03 0.  0.
<mgrwt>
<rscale>  0 0.95930332E+03</rscale>
<asrwt>0</asrwt>
<pdfrwt beam="1">  1        2 0.54708740E+00 0.10211923E+04</pdfrwt>
<pdfrwt beam="2">  1       -2 0.17385806E+00 0.10211923E+04</pdfrwt>
<totfact> 0.15268411E-01</totfact>
</mgrwt>
</event>
<event>
 4    5  0.7289609E-008  0.7653467E+03  0.7818608E-02  0.9791457E-01
         -2   -1    0    0    0  501 -0.00000000000E+00  0.00000000000E+00  0.10934809246E+04  0.10934809246E+04  0.25500000000E-02 0.  1.
          2   -1    0    0  501    0  0.00000000000E+00 -0.00000000000E+00 -0.12633346972E+04  0.12633346972E+04  0.25500000000E-02 0. -1.
    8880023    1    1    2    0    0  0.38480240986E+03 -0.62228639880E+02  0.91562796400E+03  0.11933692107E+04  0.65864270000E+03 0.  0.
    8880022    1    1    2    0    0 -0.38480240986E+03  0.62228639880E+02 -0.10854817366E+04  0.11634464112E+04  0.15294330000E+03 0.  0.
<mgrwt>
<rscale>  0 0.65823023E+03</rscale>
<asrwt>0</asrwt>
<pdfrwt beam="1">  1        2 0.19435918E+00 0.76534666E+03</pdfrwt>
<pdfrwt beam="2">  1       -2 0.16822784E+00 0.76534666E+03</pdfrwt>
<totfact> 0.38940214E+00</totfact>
</mgrwt>
</event>
<event>
 4    5  0.7289609E-008  0.9562318E+03  0.7818608E-02  0.9441204E-01
          2   -1    0    0  501    0  0.00000000000E+00  0.00000000000E+00  0.33387002491E+04  0.33387002491E+04  0.25500000000E-02 0. -1.
         -2   -1    0    0    0  501 -0.00000000000E+00 -0.00000000000E+00 -0.34054558162E+03  0.34054558163E+03  0.25500000000E-02 0.  1.
    8880023    1    1    2    0    0 -0.69321536416E+03  0.46456658586E+01  0.49377438337E+03  0.10761935101E+04  0.65864270000E+03 0. -1.
    8880022    1    1    2    0    0  0.69321536416E+03 -0.46456658586E+01  0.25043802841E+04  0.26030523206E+04  0.15294330000E+03 0.  0.
<mgrwt>
<rscale>  0 0.88760960E+03</rscale>
<asrwt>0</asrwt>
<pdfrwt beam="1">  1        2 0.51364618E+00 0.95623184E+03</pdfrwt>
<pdfrwt beam="2">  1       -2 0.52391630E-01 0.95623184E+03</pdfrwt>
<totfact> 0.37493623E+00</totfact>
</mgrwt>
</event>
<event>
 4    5  0.7289609E-008  0.1134419E+04  0.7818608E-02  0.9223669E-01
         -2   -1    0    0    0  501 -0.00000000000E+00  0.00000000000E+00  0.13450986430E+04  0.13450986430E+04  0.25500000000E-02 0.  1.
          2   -1    0    0  501    0  0.00000000000E+00 -0.00000000000E+00 -0.98327426383E+03  0.98327426383E+03  0.25500000000E-02 0. -1.
    8880023    1    1    2    0    0  0.26504860429E+03  0.88478584155E+03  0.69994346495E+03  0.13329770472E+04  0.65864270000E+03 0.  0.
    8880022    1    1    2    0    0 -0.26504860429E+03 -0.88478584155E+03 -0.33811908581E+03  0.99539585957E+03  0.15294330000E+03 0.  0.
<mgrwt>
<rscale>  0 0.10812434E+04</rscale>
<asrwt>0</asrwt>
<pdfrwt beam="1">  1        2 0.15127296E+00 0.11344192E+04</pdfrwt>
<pdfrwt beam="2">  1       -2 0.20693825E+00 0.11344192E+04</pdfrwt>
<totfact> 0.30292888E+00</totfact>
</mgrwt>
</event>
<event>
 4    5  0.7289609E-008  0.8053787E+03  0.7818608E-02  0.9699285E-01
         -2   -1    0    0    0  501 -0.00000000000E+00  0.00000000000E+00  0.12362816327E+04  0.12362816327E+04  0.25500000000E-02 0.  1.
          2   -1    0    0  501    0  0.00000000000E+00 -0.00000000000E+00 -0.11048213481E+04  0.11048213481E+04  0.25500000000E-02 0. -1.
    8880023    1    1    2    0    0  0.34131473445E+03  0.31357439234E+03  0.10366360672E+04  0.13127258623E+04  0.65864270000E+03 0.  1.
    8880022    1    1    2    0    0 -0.34131473445E+03 -0.31357439234E+03 -0.90517578262E+03  0.10283771185E+04  0.15294330000E+03 0.  0.
<mgrwt>
<rscale>  0 0.71059401E+03</rscale>
<asrwt>0</asrwt>
<pdfrwt beam="1">  1        2 0.16997252E+00 0.80537870E+03</pdfrwt>
<pdfrwt beam="2">  1       -2 0.19019717E+00 0.80537870E+03</pdfrwt>
<totfact> 0.33970253E+00</totfact>
</mgrwt>
</event>
<event>
 4    5  0.7289609E-008  0.7418313E+03  0.7818608E-02  0.9854645E-01
         -2   -1    0    0    0  501 -0.00000000000E+00  0.00000000000E+00  0.68614886088E+03  0.68614886088E+03  0.25500000000E-02 0.  1.
          2   -1    0    0  501    0  0.00000000000E+00 -0.00000000000E+00 -0.14141399139E+04  0.14141399139E+04  0.25500000000E-02 0. -1.
    8880023    1    1    2    0    0 -0.25636352277E+03 -0.22534672715E+03  0.44775368193E+03  0.86648541199E+03  0.65864270000E+03 0.  1.
    8880022    1    1    2    0    0  0.25636352277E+03  0.22534672715E+03 -0.11757447350E+04  0.12338033628E+04  0.15294330000E+03 0.  0.
<mgrwt>
<rscale>  0 0.62510668E+03</rscale>
<asrwt>0</asrwt>
<pdfrwt beam="1">  1        2 0.21755999E+00 0.74183125E+03</pdfrwt>
<pdfrwt beam="2">  1       -2 0.10556136E+00 0.74183125E+03</pdfrwt>
<totfact> 0.10557303E+01</totfact>
</mgrwt>
</event>
<event>
 4    5  0.7289609E-008  0.9651344E+03  0.7818608E-02  0.9428665E-01
         -2   -1    0    0    0  501 -0.00000000000E+00  0.00000000000E+00  0.31621057785E+03  0.31621057786E+03  0.25500000000E-02 0.  1.
          2   -1    0    0  501    0  0.00000000000E+00 -0.00000000000E+00 -0.33371942011E+04  0.33371942011E+04  0.25500000000E-02 0. -1.
    8880023    1    1    2    0    0  0.56453802616E+02 -0.70319787811E+03 -0.62207143631E+03  0.11482409877E+04  0.65864270000E+03 0.  0.
    8880022    1    1    2    0    0 -0.56453802616E+02  0.70319787811E+03 -0.23989121870E+04  0.25051637913E+04  0.15294330000E+03 0.  0.
<mgrwt>
<rscale>  0 0.89753718E+03</rscale>
<asrwt>0</asrwt>
<pdfrwt beam="1">  1        2 0.51341447E+00 0.96513444E+03</pdfrwt>
<pdfrwt beam="2">  1       -2 0.48647784E-01 0.96513444E+03</pdfrwt>
<totfact> 0.43676615E+00</totfact>
</mgrwt>
</event>
<event>
 4    5  0.7289609E-008  0.7267120E+03  0.7818608E-02  0.9900497E-01
         -2   -1    0    0    0  501 -0.00000000000E+00  0.00000000000E+00  0.27969463239E+03  0.27969463240E+03  0.25500000000E-02 0.  1.
          2   -1    0    0  501    0  0.00000000000E+00 -0.00000000000E+00 -0.20869724597E+04  0.20869724597E+04  0.25500000000E-02 0. -1.
    8880023    1    1    2    0    0 -0.28781867246E+03 -0.10705361806E+03 -0.24459509621E+03  0.76677052154E+03  0.65864270000E+03 0.  1.
    8880022    1    1    2    0    0  0.28781867246E+03  0.10705361806E+03 -0.15626827312E+04  0.15998965706E+04  0.15294330000E+03 0. -1.
<mgrwt>
<rscale>  0 0.60237227E+03</rscale>
<asrwt>0</asrwt>
<pdfrwt beam="1">  1        2 0.32107268E+00 0.72671196E+03</pdfrwt>
<pdfrwt beam="2">  1       -2 0.43029945E-01 0.72671196E+03</pdfrwt>
<totfact> 0.31736620E+01</totfact>
</mgrwt>
</event>
<event>
 4    5  0.7289609E-008  0.7625795E+03  0.7818608E-02  0.9798475E-01
         -2   -1    0    0    0  501 -0.00000000000E+00  0.00000000000E+00  0.20846047931E+03  0.20846047933E+03  0.25500000000E-02 0.  1.
          2   -1    0    0  501    0  0.00000000000E+00 -0.00000000000E+00 -0.21655620912E+04  0.21655620912E+04  0.25500000000E-02 0. -1.
    8880023    1    1    2    0    0 -0.18952018844E+03  0.33436407975E+03 -0.64667322764E+03  0.99985684439E+03  0.65864270000E+03 0.  0.
    8880022    1    1    2    0    0  0.18952018844E+03 -0.33436407975E+03 -0.13104283842E+04  0.13741657261E+04  0.15294330000E+03 0.  0.
<mgrwt>
<rscale>  0 0.65444462E+03</rscale>
<asrwt>0</asrwt>
<pdfrwt beam="1">  1        2 0.33316338E+00 0.76257947E+03</pdfrwt>
<pdfrwt beam="2">  1       -2 0.32070844E-01 0.76257947E+03</pdfrwt>
<totfact> 0.50372218E+01</totfact>
</mgrwt>
</event>
<event>
 4    5  0.7289609E-008  0.6883326E+03  0.7818608E-02  0.1004955E+00
          2   -1    0    0  501    0  0.00000000000E+00  0.00000000000E+00  0.16896304031E+04  0.16896304031E+04  0.25500000000E-02 0. -1.
         -2   -1    0    0    0  501 -0.00000000000E+00 -0.00000000000E+00 -0.72600981468E+03  0.72600981469E+03  0.25500000000E-02 0.  1.
    8880023    1    1    2    0    0 -0.10375231794E+03 -0.17095903817E+03 -0.55009001728E+03  0.88113606758E+03  0.65864270000E+03 0.  1.
    8880022    1    1    2    0    0  0.10375231794E+03  0.17095903817E+03  0.15137106057E+04  0.15345041502E+04  0.15294330000E+03 0.  0.
<mgrwt>
<rscale>  0 0.53529786E+03</rscale>
<asrwt>0</asrwt>
<pdfrwt beam="1">  1        2 0.25994314E+00 0.68833258E+03</pdfrwt>
<pdfrwt beam="2">  1       -2 0.11169382E+00 0.68833258E+03</pdfrwt>
<totfact> 0.65364390E+00</totfact>
</mgrwt>
</event>
<event>
 4    5  0.7289609E-008  0.9541990E+03  0.7818608E-02  0.9444098E-01
         -2   -1    0    0    0  501 -0.00000000000E+00  0.00000000000E+00  0.35697112708E+03  0.35697112709E+03  0.25500000000E-02 0.  1.
          2   -1    0    0  501    0  0.00000000000E+00 -0.00000000000E+00 -0.35146512304E+04  0.35146512304E+04  0.25500000000E-02 0. -1.
    8880023    1    1    2    0    0  0.68496755903E+03  0.86630866407E+02 -0.41727835706E+03  0.10414494215E+04  0.65864270000E+03 0.  1.
    8880022    1    1    2    0    0 -0.68496755903E+03 -0.86630866407E+02 -0.27404017462E+04  0.28301729360E+04  0.15294330000E+03 0.  0.
<mgrwt>
<rscale>  0 0.88533744E+03</rscale>
<asrwt>0</asrwt>
<pdfrwt beam="1">  1        2 0.54071555E+00 0.95419897E+03</pdfrwt>
<pdfrwt beam="2">  1       -2 0.54918637E-01 0.95419897E+03</pdfrwt>
<totfact> 0.25883559E+00</totfact>
</mgrwt>
</event>
<event>
 4    5  0.7289609E-008  0.6780954E+03  0.7818608E-02  0.1010422E+00
          2   -1    0    0  501    0  0.00000000000E+00  0.00000000000E+00  0.27970830699E+04  0.27970830699E+04  0.25500000000E-02 0. -1.
         -2   -1    0    0    0  501 -0.00000000000E+00 -0.00000000000E+00 -0.35550412576E+03  0.35550412577E+03  0.25500000000E-02 0.  1.
    8880023    1    1    2    0    0 -0.11401363111E+03  0.11403555725E+03 -0.22535896143E+02  0.67846981456E+03  0.65864270000E+03 0.  1.
    8880022    1    1    2    0    0  0.11401363111E+03 -0.11403555725E+03  0.24641148403E+04  0.24741173811E+04  0.15294330000E+03 0.  0.
<mgrwt>
<rscale>  0 0.51307204E+03</rscale>
<asrwt>0</asrwt>
<pdfrwt beam="1">  1        2 0.43032048E+00 0.67809544E+03</pdfrwt>
<pdfrwt beam="2">  1       -2 0.54692942E-01 0.67809544E+03</pdfrwt>
<totfact> 0.78333578E+00</totfact>
</mgrwt>
</event>
<event>
 4    5  0.7289609E-008  0.1090546E+04  0.7818608E-02  0.9271656E-01
          2   -1    0    0  501    0  0.00000000000E+00  0.00000000000E+00  0.91195857928E+03  0.91195857928E+03  0.25500000000E-02 0. -1.
         -2   -1    0    0    0  501 -0.00000000000E+00 -0.00000000000E+00 -0.15601852001E+04  0.15601852001E+04  0.25500000000E-02 0.  1.
    8880023    1    1    2    0    0  0.74799024948E+03  0.44270803738E+03 -0.10396438057E+04  0.15067014531E+04  0.65864270000E+03 0.  0.
    8880022    1    1    2    0    0 -0.74799024948E+03 -0.44270803738E+03  0.39141718492E+03  0.96544232627E+03  0.15294330000E+03 0.  0.
<mgrwt>
<rscale>  0 0.10343467E+04</rscale>
<asrwt>0</asrwt>
<pdfrwt beam="1">  1        2 0.14030132E+00 0.10905457E+04</pdfrwt>
<pdfrwt beam="2">  1       -2 0.24002849E+00 0.10905457E+04</pdfrwt>
<totfact> 0.21005976E+00</totfact>
</mgrwt>
</event>
<event>
 4    5  0.7289609E-008  0.7985138E+03  0.7818608E-02  0.9714019E-01
          2   -1    0    0  501    0  0.00000000000E+00  0.00000000000E+00  0.16489838910E+04  0.16489838911E+04  0.25500000000E-02 0. -1.
         -2   -1    0    0    0  501 -0.00000000000E+00 -0.00000000000E+00 -0.83880900383E+03  0.83880900383E+03  0.25500000000E-02 0.  1.
    8880023    1    1    2    0    0 -0.20377033538E+03 -0.40285439387E+03 -0.60027485696E+03  0.99897653747E+03  0.65864270000E+03 0.  1.
    8880022    1    1    2    0    0  0.20377033538E+03  0.40285439387E+03  0.14104497442E+04  0.14888163574E+04  0.15294330000E+03 0.  0.
<mgrwt>
<rscale>  0 0.70188215E+03</rscale>
<asrwt>0</asrwt>
<pdfrwt beam="1">  1        2 0.25368983E+00 0.79851376E+03</pdfrwt>
<pdfrwt beam="2">  1       -2 0.12904754E+00 0.79851376E+03</pdfrwt>
<totfact> 0.47301139E+00</totfact>
</mgrwt>
</event>
<event>
 4    5  0.7289609E-008  0.1038062E+04  0.7818608E-02  0.9333372E-01
          2   -1    0    0  501    0  0.00000000000E+00  0.00000000000E+00  0.13613286182E+04  0.13613286182E+04  0.25500000000E-02 0. -1.
         -2   -1    0    0    0  501 -0.00000000000E+00 -0.00000000000E+00 -0.92133515631E+03  0.92133515631E+03  0.25500000000E-02 0.  1.
    8880023    1    1    2    0    0 -0.34818171651E+03 -0.72286417810E+03 -0.39866091006E+03  0.11119819491E+04  0.65864270000E+03 0.  0.
    8880022    1    1    2    0    0  0.34818171651E+03  0.72286417810E+03  0.83865437192E+03  0.11706818254E+04  0.15294330000E+03 0.  0.
<mgrwt>
<rscale>  0 0.97767810E+03</rscale>
<asrwt>0</asrwt>
<pdfrwt beam="1">  1        2 0.20943517E+00 0.10380623E+04</pdfrwt>
<pdfrwt beam="2">  1       -2 0.14174387E+00 0.10380623E+04</pdfrwt>
<totfact> 0.52339612E+00</totfact>
</mgrwt>
</event>
<event>
 4    5  0.7289609E-008  0.8357683E+03  0.7818608E-02  0.9638212E-01
         -2   -1    0    0    0  501 -0.00000000000E+00  0.00000000000E+00  0.15348616278E+04  0.15348616278E+04  0.25500000000E-02 0.  1.
          2   -1    0    0  501    0  0.00000000000E+00 -0.00000000000E+00 -0.41335378879E+03  0.41335378879E+03  0.25500000000E-02 0. -1.
    8880023    1    1    2    0    0 -0.23241762275E+03  0.45899948420E+03  0.11371500018E+04  0.14112472535E+04  0.65864270000E+03 0.  0.
    8880022    1    1    2    0    0  0.23241762275E+03 -0.45899948420E+03 -0.15642162755E+02  0.53696816305E+03  0.15294330000E+03 0. -1.
<mgrwt>
<rscale>  0 0.74817893E+03</rscale>
<asrwt>0</asrwt>
<pdfrwt beam="1">  1        2 0.63592890E-01 0.83576832E+03</pdfrwt>
<pdfrwt beam="2">  1       -2 0.23613256E+00 0.83576832E+03</pdfrwt>
<totfact> 0.60913324E+00</totfact>
</mgrwt>
</event>
<event>
 4    5  0.7289609E-008  0.8423987E+03  0.7818608E-02  0.9625674E-01
         -2   -1    0    0    0  501 -0.00000000000E+00  0.00000000000E+00  0.43613079086E+03  0.43613079086E+03  0.25500000000E-02 0.  1.
          2   -1    0    0  501    0  0.00000000000E+00 -0.00000000000E+00 -0.12278426063E+04  0.12278426063E+04  0.25500000000E-02 0. -1.
    8880023    1    1    2    0    0  0.36217614865E+03 -0.38033379880E+03 -0.72778838065E+03  0.11132436815E+04  0.65864270000E+03 0.  0.
    8880022    1    1    2    0    0 -0.36217614865E+03  0.38033379880E+03 -0.63923434780E+02  0.55072971564E+03  0.15294330000E+03 0.  0.
<mgrwt>
<rscale>  0 0.75619979E+03</rscale>
<asrwt>0</asrwt>
<pdfrwt beam="1">  1        2 0.18889886E+00 0.84239870E+03</pdfrwt>
<pdfrwt beam="2">  1       -2 0.67097045E-01 0.84239870E+03</pdfrwt>
<totfact> 0.37526029E+01</totfact>
</mgrwt>
</event>
<event>
 4    5  0.7289609E-008  0.7853714E+03  0.7818608E-02  0.9743367E-01
         -2   -1    0    0    0  501 -0.00000000000E+00  0.00000000000E+00  0.71300504028E+03  0.71300504028E+03  0.25500000000E-02 0.  1.
          2   -1    0    0  501    0  0.00000000000E+00 -0.00000000000E+00 -0.82285445947E+03  0.82285445948E+03  0.25500000000E-02 0. -1.
    8880023    1    1    2    0    0 -0.42071754744E+03 -0.77426437231E+02  0.37596601590E+03  0.87072312435E+03  0.65864270000E+03 0.  1.
    8880022    1    1    2    0    0  0.42071754744E+03  0.77426437231E+02 -0.48581543509E+03  0.66513637541E+03  0.15294330000E+03 0.  0.
<mgrwt>
<rscale>  0 0.68492395E+03</rscale>
<asrwt>0</asrwt>
<pdfrwt beam="1">  1        2 0.12659299E+00 0.78537145E+03</pdfrwt>
<pdfrwt beam="2">  1       -2 0.10969308E+00 0.78537145E+03</pdfrwt>
<totfact> 0.22188981E+01</totfact>
</mgrwt>
</event>
<event>
 4    5  0.7289609E-008  0.1164074E+04  0.7818608E-02  0.9192861E-01
          2   -1    0    0  501    0  0.00000000000E+00  0.00000000000E+00  0.39029751830E+04  0.39029751830E+04  0.25500000000E-02 0. -1.
         -2   -1    0    0    0  501 -0.00000000000E+00 -0.00000000000E+00 -0.82685346212E+03  0.82685346212E+03  0.25500000000E-02 0.  1.
    8880023    1    1    2    0    0 -0.43298216758E+03 -0.85661286155E+03 -0.31191413292E+03  0.12051389068E+04  0.65864270000E+03 0.  0.
    8880022    1    1    2    0    0  0.43298216758E+03  0.85661286155E+03  0.33880358539E+04  0.35246897384E+04  0.15294330000E+03 0.  0.
<mgrwt>
<rscale>  0 0.11127420E+04</rscale>
<asrwt>0</asrwt>
<pdfrwt beam="1">  1        2 0.60045774E+00 0.11640745E+04</pdfrwt>
<pdfrwt beam="2">  1       -2 0.12720822E+00 0.11640745E+04</pdfrwt>
<totfact> 0.19012444E-01</totfact>
</mgrwt>
</event>
<event>
 4    5  0.7289609E-008  0.9721493E+03  0.7818608E-02  0.9418938E-01
         -2   -1    0    0    0  501 -0.00000000000E+00  0.00000000000E+00  0.41438139901E+03  0.41438139902E+03  0.25500000000E-02 0.  1.
          2   -1    0    0  501    0  0.00000000000E+00 -0.00000000000E+00 -0.28956884959E+04  0.28956884959E+04  0.25500000000E-02 0. -1.
    8880023    1    1    2    0    0  0.22067967247E+03 -0.68012096523E+03 -0.31222354789E+03  0.10210571949E+04  0.65864270000E+03 0.  1.
    8880022    1    1    2    0    0 -0.22067967247E+03  0.68012096523E+03 -0.21690835490E+04  0.22890127000E+04  0.15294330000E+03 0.  0.
<mgrwt>
<rscale>  0 0.90533435E+03</rscale>
<asrwt>0</asrwt>
<pdfrwt beam="1">  1        2 0.44549053E+00 0.97214929E+03</pdfrwt>
<pdfrwt beam="2">  1       -2 0.63750986E-01 0.97214929E+03</pdfrwt>
<totfact> 0.47115605E+00</totfact>
</mgrwt>
</event>
<event>
 4    5  0.7289609E-008  0.7367198E+03  0.7818608E-02  0.9869607E-01
          2   -1    0    0  501    0  0.00000000000E+00  0.00000000000E+00  0.19964034539E+04  0.19964034539E+04  0.25500000000E-02 0. -1.
         -2   -1    0    0    0  501 -0.00000000000E+00 -0.00000000000E+00 -0.30201259691E+03  0.30201259692E+03  0.25500000000E-02 0.  1.
    8880023    1    1    2    0    0  0.26185213956E+03  0.20094621067E+03  0.20424392341E+03  0.76450749446E+03  0.65864270000E+03 0.  1.
    8880022    1    1    2    0    0 -0.26185213956E+03 -0.20094621067E+03  0.14901469336E+04  0.15339085564E+04  0.15294330000E+03 0.  0.
<mgrwt>
<rscale>  0 0.61757140E+03</rscale>
<asrwt>0</asrwt>
<pdfrwt beam="1">  1        2 0.30713899E+00 0.73671984E+03</pdfrwt>
<pdfrwt beam="2">  1       -2 0.46463476E-01 0.73671984E+03</pdfrwt>
<totfact> 0.30484262E+01</totfact>
</mgrwt>
</event>
<event>
 4    5  0.7289609E-008  0.1298503E+04  0.7818608E-02  0.9066854E-01
          2   -1    0    0  501    0  0.00000000000E+00  0.00000000000E+00  0.18893339718E+04  0.18893339718E+04  0.25500000000E-02 0. -1.
         -2   -1    0    0    0  501 -0.00000000000E+00 -0.00000000000E+00 -0.15940778678E+04  0.15940778678E+04  0.25500000000E-02 0.  1.
    8880023    1    1    2    0    0 -0.56360966370E+03 -0.96676994894E+03 -0.10905010589E+04  0.16956717704E+04  0.65864270000E+03 0.  1.
    8880022    1    1    2    0    0  0.56360966370E+03  0.96676994894E+03  0.13857571629E+04  0.17877400692E+04  0.15294330000E+03 0.  0.
<mgrwt>
<rscale>  0 0.12540084E+04</rscale>
<asrwt>0</asrwt>
<pdfrwt beam="1">  1        2 0.29066676E+00 0.12985031E+04</pdfrwt>
<pdfrwt beam="2">  1       -2 0.24524275E+00 0.12985031E+04</pdfrwt>
<totfact> 0.50795997E-01</totfact>
</mgrwt>
</event>
<event>
 4    5  0.7289609E-008  0.1078213E+04  0.7818608E-02  0.9285710E-01
          2   -1    0    0  501    0  0.00000000000E+00  0.00000000000E+00  0.30132610492E+04  0.30132610492E+04  0.25500000000E-02 0. -1.
         -2   -1    0    0    0  501 -0.00000000000E+00 -0.00000000000E+00 -0.36847536817E+03  0.36847536818E+03  0.25500000000E-02 0.  1.
    8880023    1    1    2    0    0 -0.84674169090E+03 -0.10844960318E+03  0.79780932365E+03  0.13412839859E+04  0.65864270000E+03 0. -1.
    8880022    1    1    2    0    0  0.84674169090E+03  0.10844960318E+03  0.18469763573E+04  0.20404524315E+04  0.15294330000E+03 0.  0.
<mgrwt>
<rscale>  0 0.10210914E+04</rscale>
<asrwt>0</asrwt>
<pdfrwt beam="1">  1        2 0.46357861E+00 0.10782129E+04</pdfrwt>
<pdfrwt beam="2">  1       -2 0.56688520E-01 0.10782129E+04</pdfrwt>
<totfact> 0.50470785E+00</totfact>
</mgrwt>
</event>
<event>
 4    5  0.7289609E-008  0.7769748E+03  0.7818608E-02  0.9762992E-01
          2   -1    0    0  501    0  0.00000000000E+00  0.00000000000E+00  0.24824514396E+04  0.24824514396E+04  0.25500000000E-02 0. -1.
         -2   -1    0    0    0  501 -0.00000000000E+00 -0.00000000000E+00 -0.27559126480E+03  0.27559126482E+03  0.25500000000E-02 0.  1.
    8880023    1    1    2    0    0 -0.39053483285E+03 -0.13176559429E+03  0.35413725345E+03  0.85387530006E+03  0.65864270000E+03 0.  1.
    8880022    1    1    2    0    0  0.39053483285E+03  0.13176559429E+03  0.18527229214E+04  0.19041674044E+04  0.15294330000E+03 0.  0.
<mgrwt>
<rscale>  0 0.67386999E+03</rscale>
<asrwt>0</asrwt>
<pdfrwt beam="1">  1        2 0.38191562E+00 0.77697480E+03</pdfrwt>
<pdfrwt beam="2">  1       -2 0.42398655E-01 0.77697480E+03</pdfrwt>
<totfact> 0.19565166E+01</totfact>
</mgrwt>
</event>
<event>
 4    5  0.7289609E-008  0.7392923E+03  0.7818608E-02  0.9862013E-01
          2   -1    0    0  501    0  0.00000000000E+00  0.00000000000E+00  0.13746399991E+04  0.13746399991E+04  0.25500000000E-02 0. -1.
         -2   -1    0    0    0  501 -0.00000000000E+00 -0.00000000000E+00 -0.87312157319E+03  0.87312157319E+03  0.25500000000E-02 0.  1.
    8880023    1    1    2    0    0 -0.15086493086E+03 -0.29997107826E+03 -0.68337297289E+03  0.10067530489E+04  0.65864270000E+03 0.  1.
    8880022    1    1    2    0    0  0.15086493086E+03  0.29997107826E+03  0.11848913988E+04  0.12410085234E+04  0.15294330000E+03 0.  0.
<mgrwt>
<rscale>  0 0.62138128E+03</rscale>
<asrwt>0</asrwt>
<pdfrwt beam="1">  1        2 0.21148308E+00 0.73929228E+03</pdfrwt>
<pdfrwt beam="2">  1       -2 0.13432640E+00 0.73929228E+03</pdfrwt>
<totfact> 0.61281663E+00</totfact>
</mgrwt>
</event>
<event>
 4    5  0.7289609E-008  0.9739856E+03  0.7818608E-02  0.9416413E-01
          2   -1    0    0  501    0  0.00000000000E+00  0.00000000000E+00  0.17001234883E+04  0.17001234883E+04  0.25500000000E-02 0. -1.
         -2   -1    0    0    0  501 -0.00000000000E+00 -0.00000000000E+00 -0.55417955882E+03  0.55417955882E+03  0.25500000000E-02 0.  1.
    8880023    1    1    2    0    0  0.15688691593E+03 -0.70016021850E+03  0.10334469268E+03  0.97945299414E+03  0.65864270000E+03 0.  0.
    8880022    1    1    2    0    0 -0.15688691593E+03  0.70016021850E+03  0.10425992368E+04  0.12748500529E+04  0.15294330000E+03 0.  0.
<mgrwt>
<rscale>  0 0.90737196E+03</rscale>
<asrwt>0</asrwt>
<pdfrwt beam="1">  1        2 0.26155746E+00 0.97398565E+03</pdfrwt>
<pdfrwt beam="2">  1       -2 0.85258395E-01 0.97398565E+03</pdfrwt>
<totfact> 0.11745066E+01</totfact>
</mgrwt>
</event>
<event>
 4    5  0.7289609E-008  0.7918462E+03  0.7818608E-02  0.9728712E-01
         -2   -1    0    0    0  501 -0.00000000000E+00  0.00000000000E+00  0.52241732156E+03  0.52241732156E+03  0.25500000000E-02 0.  1.
          2   -1    0    0  501    0  0.00000000000E+00 -0.00000000000E+00 -0.34941062252E+04  0.34941062252E+04  0.25500000000E-02 0. -1.
    8880023    1    1    2    0    0  0.14895412989E+03  0.41354911491E+03  0.19525568018E+03  0.81556433845E+03  0.65864270000E+03 0.  0.
    8880022    1    1    2    0    0 -0.14895412989E+03 -0.41354911491E+03 -0.31669445838E+04  0.32009592083E+04  0.15294330000E+03 0. -1.
<mgrwt>
<rscale>  0 0.69332746E+03</rscale>
<asrwt>0</asrwt>
<pdfrwt beam="1">  1        2 0.53755479E+00 0.79184620E+03</pdfrwt>
<pdfrwt beam="2">  1       -2 0.80371898E-01 0.79184620E+03</pdfrwt>
<totfact> 0.12100045E+00</totfact>
</mgrwt>
</event>
<event>
 4    5  0.7289609E-008  0.7324210E+03  0.7818608E-02  0.9882601E-01
          2   -1    0    0  501    0  0.00000000000E+00  0.00000000000E+00  0.20332374470E+04  0.20332374470E+04  0.25500000000E-02 0. -1.
         -2   -1    0    0    0  501 -0.00000000000E+00 -0.00000000000E+00 -0.16826131869E+03  0.16826131871E+03  0.25500000000E-02 0.  1.
    8880023    1    1    2    0    0  0.31902702340E+03 -0.29189233933E+02  0.15962520895E+04  0.17562634177E+04  0.65864270000E+03 0. -1.
    8880022    1    1    2    0    0 -0.31902702340E+03  0.29189233933E+02  0.26872403885E+03  0.44523534800E+03  0.15294330000E+03 0.  0.
<mgrwt>
<rscale>  0 0.61111976E+03</rscale>
<asrwt>0</asrwt>
<pdfrwt beam="1">  1        2 0.31280575E+00 0.73242096E+03</pdfrwt>
<pdfrwt beam="2">  1       -2 0.25886357E-01 0.73242096E+03</pdfrwt>
<totfact> 0.88679554E+01</totfact>
</mgrwt>
</event>
<event>
 4    5  0.7289609E-008  0.7197925E+03  0.7818608E-02  0.9923289E-01
         -2   -1    0    0    0  501 -0.00000000000E+00  0.00000000000E+00  0.81380628459E+03  0.81380628459E+03  0.25500000000E-02 0.  1.
          2   -1    0    0  501    0  0.00000000000E+00 -0.00000000000E+00 -0.93483051081E+03  0.93483051081E+03  0.25500000000E-02 0. -1.
    8880023    1    1    2    0    0 -0.61726964660E+02 -0.28369150951E+03  0.61245767625E+03  0.94509560479E+03  0.65864270000E+03 0.  1.
    8880022    1    1    2    0    0  0.61726964660E+02  0.28369150951E+03 -0.73348190247E+03  0.80354119061E+03  0.15294330000E+03 0.  0.
<mgrwt>
<rscale>  0 0.59145781E+03</rscale>
<asrwt>0</asrwt>
<pdfrwt beam="1">  1        2 0.14382008E+00 0.71979254E+03</pdfrwt>
<pdfrwt beam="2">  1       -2 0.12520097E+00 0.71979254E+03</pdfrwt>
<totfact> 0.13531259E+01</totfact>
</mgrwt>
</event>
<event>
 4    5  0.7289609E-008  0.6843969E+03  0.7818608E-02  0.1006938E+00
         -2   -1    0    0    0  501 -0.00000000000E+00  0.00000000000E+00  0.93084201602E+03  0.93084201603E+03  0.25500000000E-02 0.  1.
          2   -1    0    0  501    0  0.00000000000E+00 -0.00000000000E+00 -0.98092436278E+03  0.98092436278E+03  0.25500000000E-02 0. -1.
    8880023    1    1    2    0    0  0.73305166624E+02  0.17092467359E+03  0.78570489768E+03  0.10419843012E+04  0.65864270000E+03 0.  1.
    8880022    1    1    2    0    0 -0.73305166624E+02 -0.17092467359E+03 -0.83578724444E+03  0.86978207758E+03  0.15294330000E+03 0.  0.
<mgrwt>
<rscale>  0 0.52709792E+03</rscale>
<asrwt>0</asrwt>
<pdfrwt beam="1">  1        2 0.15091144E+00 0.68439689E+03</pdfrwt>
<pdfrwt beam="2">  1       -2 0.14320646E+00 0.68439689E+03</pdfrwt>
<totfact> 0.90038920E+00</totfact>
</mgrwt>
</event>
<event>
 4    5  0.7289609E-008  0.7822396E+03  0.7818608E-02  0.9750602E-01
         -2   -1    0    0    0  501 -0.00000000000E+00  0.00000000000E+00  0.11806613438E+04  0.11806613438E+04  0.25500000000E-02 0.  1.
          2   -1    0    0  501    0  0.00000000000E+00 -0.00000000000E+00 -0.24067437801E+04  0.24067437801E+04  0.25500000000E-02 0. -1.
    8880023    1    1    2    0    0 -0.27970626899E+03  0.31599527220E+03  0.10264742673E+04  0.12905612100E+04  0.65864270000E+03 0.  0.
    8880022    1    1    2    0    0  0.27970626899E+03 -0.31599527220E+03 -0.22525567036E+04  0.22968439139E+04  0.15294330000E+03 0.  0.
<mgrwt>
<rscale>  0 0.68082253E+03</rscale>
<asrwt>0</asrwt>
<pdfrwt beam="1">  1        2 0.37026827E+00 0.78223961E+03</pdfrwt>
<pdfrwt beam="2">  1       -2 0.18164021E+00 0.78223961E+03</pdfrwt>
<totfact> 0.72772975E-01</totfact>
</mgrwt>
</event>
<event>
 4    5  0.7289609E-008  0.6849593E+03  0.7818608E-02  0.1006647E+00
         -2   -1    0    0    0  501 -0.00000000000E+00  0.00000000000E+00  0.42400487427E+03  0.42400487428E+03  0.25500000000E-02 0.  1.
          2   -1    0    0  501    0  0.00000000000E+00 -0.00000000000E+00 -0.72155186989E+03  0.72155186990E+03  0.25500000000E-02 0. -1.
    8880023    1    1    2    0    0 -0.34093830418E+02 -0.18492319054E+03  0.87547022804E+02  0.69053143530E+03  0.65864270000E+03 0.  1.
    8880022    1    1    2    0    0  0.34093830418E+02  0.18492319054E+03 -0.38509401843E+03  0.45502530888E+03  0.15294330000E+03 0.  0.
<mgrwt>
<rscale>  0 0.52829332E+03</rscale>
<asrwt>0</asrwt>
<pdfrwt beam="1">  1        2 0.11100798E+00 0.68495926E+03</pdfrwt>
<pdfrwt beam="2">  1       -2 0.65231519E-01 0.68495926E+03</pdfrwt>
<totfact> 0.86834924E+01</totfact>
</mgrwt>
</event>
<event>
 4    5  0.7289609E-008  0.1280053E+04  0.7818608E-02  0.9082979E-01
          2   -1    0    0  501    0  0.00000000000E+00  0.00000000000E+00  0.15195804224E+04  0.15195804224E+04  0.25500000000E-02 0. -1.
         -2   -1    0    0    0  501 -0.00000000000E+00 -0.00000000000E+00 -0.14659455298E+04  0.14659455298E+04  0.25500000000E-02 0.  1.
    8880023    1    1    2    0    0  0.43582760560E+03 -0.10073631259E+04 -0.86597137234E+03  0.15454587646E+04  0.65864270000E+03 0.  1.
    8880022    1    1    2    0    0 -0.43582760560E+03  0.10073631259E+04  0.91960626494E+03  0.14400671876E+04  0.15294330000E+03 0.  0.
<mgrwt>
<rscale>  0 0.12347415E+04</rscale>
<asrwt>0</asrwt>
<pdfrwt beam="1">  1        2 0.23378160E+00 0.12800533E+04</pdfrwt>
<pdfrwt beam="2">  1       -2 0.22553008E+00 0.12800533E+04</pdfrwt>
<totfact> 0.10854116E+00</totfact>
</mgrwt>
</event>
<event>
 4    5  0.7289609E-008  0.6600549E+03  0.7818608E-02  0.1024100E+00
          2   -1    0    0  501    0  0.00000000000E+00  0.00000000000E+00  0.19761800024E+04  0.19761800024E+04  0.25500000000E-02 0. -1.
         -2   -1    0    0    0  501 -0.00000000000E+00 -0.00000000000E+00 -0.10819884388E+03  0.10819884391E+03  0.25500000000E-02 0.  1.
    8880023    1    1    2    0    0 -0.42436767203E+02  0.78323859543E+01  0.97527896824E+03  0.11776423471E+04  0.65864270000E+03 0.  1.
    8880022    1    1    2    0    0  0.42436767203E+02 -0.78323859543E+01  0.89270219033E+03  0.90673649927E+03  0.15294330000E+03 0.  0.
<mgrwt>
<rscale>  0 0.46235551E+03</rscale>
<asrwt>0</asrwt>
<pdfrwt beam="1">  1        2 0.30402766E+00 0.66005487E+03</pdfrwt>
<pdfrwt beam="2">  1       -2 0.16645978E-01 0.66005487E+03</pdfrwt>
<totfact> 0.20857374E+02</totfact>
</mgrwt>
</event>
<event>
 4    5  0.7289609E-008  0.1500312E+04  0.7818608E-02  0.8909416E-01
          2   -1    0    0  501    0  0.00000000000E+00  0.00000000000E+00  0.10944378690E+04  0.10944378690E+04  0.25500000000E-02 0. -1.
         -2   -1    0    0    0  501 -0.00000000000E+00 -0.00000000000E+00 -0.23705683179E+04  0.23705683180E+04  0.25500000000E-02 0.  1.
    8880023    1    1    2    0    0  0.12504526108E+04  0.50348140284E+03  0.13639675577E+03  0.15064990993E+04  0.65864270000E+03 0.  0.
    8880022    1    1    2    0    0 -0.12504526108E+04 -0.50348140284E+03 -0.14125272048E+04  0.19585070876E+04  0.15294330000E+03 0.  0.
<mgrwt>
<rscale>  0 0.14630313E+04</rscale>
<asrwt>0</asrwt>
<pdfrwt beam="1">  1        2 0.16837506E+00 0.15003118E+04</pdfrwt>
<pdfrwt beam="2">  1       -2 0.36470282E+00 0.15003118E+04</pdfrwt>
<totfact> 0.26123871E-01</totfact>
</mgrwt>
</event>
<event>
 4    5  0.7289609E-008  0.7066981E+03  0.7818608E-02  0.9970473E-01
         -2   -1    0    0    0  501 -0.00000000000E+00  0.00000000000E+00  0.28291075932E+03  0.28291075934E+03  0.25500000000E-02 0.  1.
          2   -1    0    0  501    0  0.00000000000E+00 -0.00000000000E+00 -0.14015564838E+04  0.14015564838E+04  0.25500000000E-02 0. -1.
    8880023    1    1    2    0    0 -0.25457595261E+03 -0.28338485912E+02 -0.22393636848E+03  0.74132967620E+03  0.65864270000E+03 0.  0.
    8880022    1    1    2    0    0  0.25457595261E+03  0.28338485912E+02 -0.89470935596E+03  0.94313756690E+03  0.15294330000E+03 0.  0.
<mgrwt>
<rscale>  0 0.56964122E+03</rscale>
<asrwt>0</asrwt>
<pdfrwt beam="1">  1        2 0.21562407E+00 0.70669809E+03</pdfrwt>
<pdfrwt beam="2">  1       -2 0.43524733E-01 0.70669809E+03</pdfrwt>
<totfact> 0.73944360E+01</totfact>
</mgrwt>
</event>
<event>
 4    5  0.7289609E-008  0.1021212E+04  0.7818608E-02  0.9354317E-01
          2   -1    0    0  501    0  0.00000000000E+00  0.00000000000E+00  0.13744472156E+04  0.13744472156E+04  0.25500000000E-02 0. -1.
         -2   -1    0    0    0  501 -0.00000000000E+00 -0.00000000000E+00 -0.80899868599E+03  0.80899868599E+03  0.25500000000E-02 0.  1.
    8880023    1    1    2    0    0 -0.81091309992E+02 -0.77620087021E+03 -0.24266306137E+03  0.10496471593E+04  0.65864270000E+03 0.  0.
    8880022    1    1    2    0    0  0.81091309992E+02  0.77620087021E+03  0.80811159101E+03  0.11337987423E+04  0.15294330000E+03 0.  0.
<mgrwt>
<rscale>  0 0.95932471E+03</rscale>
<asrwt>0</asrwt>
<pdfrwt beam="1">  1        2 0.21145342E+00 0.10212119E+04</pdfrwt>
<pdfrwt beam="2">  1       -2 0.12446134E+00 0.10212119E+04</pdfrwt>
<totfact> 0.71889843E+00</totfact>
</mgrwt>
</event>
<event>
 4    5  0.7289609E-008  0.1132298E+04  0.7818608E-02  0.9225921E-01
         -2   -1    0    0    0  501 -0.00000000000E+00  0.00000000000E+00  0.10055293893E+04  0.10055293893E+04  0.25500000000E-02 0.  1.
          2   -1    0    0  501    0  0.00000000000E+00 -0.00000000000E+00 -0.12117258092E+04  0.12117258092E+04  0.25500000000E-02 0. -1.
    8880023    1    1    2    0    0 -0.85548122167E+03  0.34123372749E+03 -0.50099341447E+03  0.12381814023E+04  0.65864270000E+03 0.  0.
    8880022    1    1    2    0    0  0.85548122167E+03 -0.34123372749E+03  0.29479699456E+03  0.97907379621E+03  0.15294330000E+03 0.  0.
<mgrwt>
<rscale>  0 0.10789845E+04</rscale>
<asrwt>0</asrwt>
<pdfrwt beam="1">  1        2 0.18641935E+00 0.11322980E+04</pdfrwt>
<pdfrwt beam="2">  1       -2 0.15469683E+00 0.11322980E+04</pdfrwt>
<totfact> 0.50329897E+00</totfact>
</mgrwt>
</event>
<event>
 4    5  0.7289609E-008  0.7005286E+03  0.7818608E-02  0.9995016E-01
         -2   -1    0    0    0  501 -0.00000000000E+00  0.00000000000E+00  0.23641117004E+03  0.23641117006E+03  0.25500000000E-02 0.  1.
          2   -1    0    0  501    0  0.00000000000E+00 -0.00000000000E+00 -0.16638703470E+04  0.16638703470E+04  0.25500000000E-02 0. -1.
    8880023    1    1    2    0    0  0.18769271395E+03  0.14731428293E+03 -0.34412348156E+03  0.78048781518E+03  0.65864270000E+03 0.  1.
    8880022    1    1    2    0    0 -0.18769271395E+03 -0.14731428293E+03 -0.10833356954E+04  0.11197937019E+04  0.15294330000E+03 0.  0.
<mgrwt>
<rscale>  0 0.55869335E+03</rscale>
<asrwt>0</asrwt>
<pdfrwt beam="1">  1        2 0.25598005E+00 0.70052856E+03</pdfrwt>
<pdfrwt beam="2">  1       -2 0.36370950E-01 0.70052856E+03</pdfrwt>
<totfact> 0.75093118E+01</totfact>
</mgrwt>
</event>
<event>
 4    5  0.7289609E-008  0.9968127E+03  0.7818608E-02  0.9385740E-01
         -2   -1    0    0    0  501 -0.00000000000E+00  0.00000000000E+00  0.31068951801E+03  0.31068951802E+03  0.25500000000E-02 0.  1.
          2   -1    0    0  501    0  0.00000000000E+00 -0.00000000000E+00 -0.24985256141E+04  0.24985256141E+04  0.25500000000E-02 0. -1.
    8880023    1    1    2    0    0 -0.32095776546E+03 -0.67587824234E+03 -0.11788267079E+04  0.15437836310E+04  0.65864270000E+03 0. -1.
    8880022    1    1    2    0    0  0.32095776546E+03  0.67587824234E+03 -0.10090093882E+04  0.12654315012E+04  0.15294330000E+03 0.  1.
<mgrwt>
<rscale>  0 0.93258608E+03</rscale>
<asrwt>0</asrwt>
<pdfrwt beam="1">  1        2 0.38438854E+00 0.99681267E+03</pdfrwt>
<pdfrwt beam="2">  1       -2 0.47798389E-01 0.99681267E+03</pdfrwt>
<totfact> 0.14647162E+01</totfact>
</mgrwt>
</event>
<event>
 4    5  0.7289609E-008  0.9040022E+03  0.7818608E-02  0.9519637E-01
         -2   -1    0    0    0  501 -0.00000000000E+00  0.00000000000E+00  0.40583347066E+03  0.40583347066E+03  0.25500000000E-02 0.  1.
          2   -1    0    0  501    0  0.00000000000E+00 -0.00000000000E+00 -0.18310226295E+04  0.18310226295E+04  0.25500000000E-02 0. -1.
    8880023    1    1    2    0    0  0.30058761696E+03 -0.54134726562E+03 -0.31651733866E+03  0.95781167742E+03  0.65864270000E+03 0.  0.
    8880022    1    1    2    0    0 -0.30058761696E+03  0.54134726562E+03 -0.11086718202E+04  0.12790444227E+04  0.15294330000E+03 0.  0.
<mgrwt>
<rscale>  0 0.82851414E+03</rscale>
<asrwt>0</asrwt>
<pdfrwt beam="1">  1        2 0.28169579E+00 0.90400220E+03</pdfrwt>
<pdfrwt beam="2">  1       -2 0.62435919E-01 0.90400220E+03</pdfrwt>
<totfact> 0.19962684E+01</totfact>
</mgrwt>
</event>
<event>
 4    5  0.7289609E-008  0.6714658E+03  0.7818608E-02  0.1014633E+00
          2   -1    0    0  501    0  0.00000000000E+00  0.00000000000E+00  0.17502143709E+04  0.17502143709E+04  0.25500000000E-02 0. -1.
         -2   -1    0    0    0  501 -0.00000000000E+00 -0.00000000000E+00 -0.35020072276E+03  0.35020072277E+03  0.25500000000E-02 0.  1.
    8880023    1    1    2    0    0  0.94657724294E+02  0.89977844305E+02 -0.14552631588E+02  0.67162346786E+03  0.65864270000E+03 0.  1.
    8880022    1    1    2    0    0 -0.94657724294E+02 -0.89977844305E+02  0.14145662798E+04  0.14287916258E+04  0.15294330000E+03 0.  0.
<mgrwt>
<rscale>  0 0.49674066E+03</rscale>
<asrwt>0</asrwt>
<pdfrwt beam="1">  1        2 0.26926374E+00 0.67146579E+03</pdfrwt>
<pdfrwt beam="2">  1       -2 0.53877035E-01 0.67146579E+03</pdfrwt>
<totfact> 0.30980000E+01</totfact>
</mgrwt>
</event>
<event>
 4    5  0.7289609E-008  0.9309489E+03  0.7818608E-02  0.9478071E-01
         -2   -1    0    0    0  501 -0.00000000000E+00  0.00000000000E+00  0.32945727571E+03  0.32945727572E+03  0.25500000000E-02 0.  1.
          2   -1    0    0  501    0  0.00000000000E+00 -0.00000000000E+00 -0.21274036214E+04  0.21274036214E+04  0.25500000000E-02 0. -1.
    8880023    1    1    2    0    0  0.60893073650E+03 -0.24911655550E+03 -0.68817490517E+03  0.11576919307E+04  0.65864270000E+03 0.  1.
    8880022    1    1    2    0    0 -0.60893073650E+03  0.24911655550E+03 -0.11097714405E+04  0.12991689664E+04  0.15294330000E+03 0.  0.
<mgrwt>
<rscale>  0 0.85920033E+03</rscale>
<asrwt>0</asrwt>
<pdfrwt beam="1">  1        2 0.32729286E+00 0.93094893E+03</pdfrwt>
<pdfrwt beam="2">  1       -2 0.50685736E-01 0.93094893E+03</pdfrwt>
<totfact> 0.21152921E+01</totfact>
</mgrwt>
</event>
<event>
 4    5  0.7289609E-008  0.7388309E+03  0.7818608E-02  0.9863366E-01
         -2   -1    0    0    0  501 -0.00000000000E+00  0.00000000000E+00  0.98101470979E+03  0.98101470980E+03  0.25500000000E-02 0.  1.
          2   -1    0    0  501    0  0.00000000000E+00 -0.00000000000E+00 -0.60519960485E+03  0.60519960485E+03  0.25500000000E-02 0. -1.
    8880023    1    1    2    0    0 -0.71370841137E+01 -0.33467878347E+03  0.75599712814E+03  0.10570726986E+04  0.65864270000E+03 0.  1.
    8880022    1    1    2    0    0  0.71370841137E+01  0.33467878347E+03 -0.38018202320E+03  0.52914161606E+03  0.15294330000E+03 0.  0.
<mgrwt>
<rscale>  0 0.62070056E+03</rscale>
<asrwt>0</asrwt>
<pdfrwt beam="1">  1        2 0.93107632E-01 0.73883086E+03</pdfrwt>
<pdfrwt beam="2">  1       -2 0.15092534E+00 0.73883086E+03</pdfrwt>
<totfact> 0.14693311E+01</totfact>
</mgrwt>
</event>
<event>
 4    5  0.7289609E-008  0.7712533E+03  0.7818608E-02  0.9776799E-01
         -2   -1    0    0    0  501 -0.00000000000E+00  0.00000000000E+00  0.96085656690E+03  0.96085656691E+03  0.25500000000E-02 0.  1.
          2   -1    0    0  501    0  0.00000000000E+00 -0.00000000000E+00 -0.11631649647E+04  0.11631649647E+04  0.25500000000E-02 0. -1.
    8880023    1    1    2    0    0 -0.11639437551E+02 -0.40110589068E+03  0.75221993312E+03  0.10773423068E+04  0.65864270000E+03 0.  0.
    8880022    1    1    2    0    0  0.11639437551E+02  0.40110589068E+03 -0.95452833095E+03  0.10466792248E+04  0.15294330000E+03 0. -1.
<mgrwt>
<rscale>  0 0.66622623E+03</rscale>
<asrwt>0</asrwt>
<pdfrwt beam="1">  1        2 0.17894846E+00 0.77125328E+03</pdfrwt>
<pdfrwt beam="2">  1       -2 0.14782409E+00 0.77125328E+03</pdfrwt>
<totfact> 0.63177347E+00</totfact>
</mgrwt>
</event>
<event>
 4    5  0.7289609E-008  0.6605624E+03  0.7818608E-02  0.1023587E+00
          2   -1    0    0  501    0  0.00000000000E+00  0.00000000000E+00  0.10721072249E+04  0.10721072249E+04  0.25500000000E-02 0. -1.
         -2   -1    0    0    0  501 -0.00000000000E+00 -0.00000000000E+00 -0.11826856469E+04  0.11826856469E+04  0.25500000000E-02 0.  1.
    8880023    1    1    2    0    0 -0.43756075104E+02  0.24856872897E+02 -0.10833134237E+04  0.12688225402E+04  0.65864270000E+03 0.  1.
    8880022    1    1    2    0    0  0.43756075104E+02 -0.24856872897E+02  0.97273500173E+03  0.98597033162E+03  0.15294330000E+03 0.  0.
<mgrwt>
<rscale>  0 0.46413932E+03</rscale>
<asrwt>0</asrwt>
<pdfrwt beam="1">  1        2 0.16493957E+00 0.66056239E+03</pdfrwt>
<pdfrwt beam="2">  1       -2 0.18195164E+00 0.66056239E+03</pdfrwt>
<totfact> 0.41325172E+00</totfact>
</mgrwt>
</event>
<event>
 4    5  0.7289609E-008  0.7707854E+03  0.7818608E-02  0.9777945E-01
          2   -1    0    0  501    0  0.00000000000E+00  0.00000000000E+00  0.27488341589E+04  0.27488341589E+04  0.25500000000E-02 0. -1.
         -2   -1    0    0    0  501 -0.00000000000E+00 -0.00000000000E+00 -0.25439043511E+03  0.25439043512E+03  0.25500000000E-02 0.  1.
    8880023    1    1    2    0    0 -0.40036649988E+03 -0.25749386870E+01  0.40584203528E+03  0.87110156032E+03  0.65864270000E+03 0.  1.
    8880022    1    1    2    0    0  0.40036649988E+03  0.25749386870E+01  0.20886016885E+04  0.21321230337E+04  0.15294330000E+03 0.  0.
<mgrwt>
<rscale>  0 0.66559690E+03</rscale>
<asrwt>0</asrwt>
<pdfrwt beam="1">  1        2 0.42289753E+00 0.77078542E+03</pdfrwt>
<pdfrwt beam="2">  1       -2 0.39136993E-01 0.77078542E+03</pdfrwt>
<totfact> 0.16087735E+01</totfact>
</mgrwt>
</event>
<event>
 4    5  0.7289609E-008  0.8509455E+03  0.7818608E-02  0.9609877E-01
          2   -1    0    0  501    0  0.00000000000E+00  0.00000000000E+00  0.17499973353E+04  0.17499973353E+04  0.25500000000E-02 0. -1.
         -2   -1    0    0    0  501 -0.00000000000E+00 -0.00000000000E+00 -0.94860983210E+03  0.94860983211E+03  0.25500000000E-02 0.  1.
    8880023    1    1    2    0    0  0.39964366529E+03 -0.36136273505E+03 -0.69636481905E+03  0.10995600270E+04  0.65864270000E+03 0.  1.
    8880022    1    1    2    0    0 -0.39964366529E+03  0.36136273505E+03  0.14977523222E+04  0.15990471404E+04  0.15294330000E+03 0.  0.
<mgrwt>
<rscale>  0 0.76645888E+03</rscale>
<asrwt>0</asrwt>
<pdfrwt beam="1">  1        2 0.26923036E+00 0.85094553E+03</pdfrwt>
<pdfrwt beam="2">  1       -2 0.14593998E+00 0.85094553E+03</pdfrwt>
<totfact> 0.30086246E+00</totfact>
</mgrwt>
</event>
<event>
 4    5  0.7289609E-008  0.6644335E+03  0.7818608E-02  0.1020013E+00
          2   -1    0    0  501    0  0.00000000000E+00  0.00000000000E+00  0.98130027045E+03  0.98130027045E+03  0.25500000000E-02 0. -1.
         -2   -1    0    0    0  501 -0.00000000000E+00 -0.00000000000E+00 -0.36604022165E+03  0.36604022166E+03  0.25500000000E-02 0.  1.
    8880023    1    1    2    0    0  0.85001318951E+02 -0.20892700685E+02 -0.43075271776E+02  0.66582836712E+03  0.65864270000E+03 0.  1.
    8880022    1    1    2    0    0 -0.85001318951E+02  0.20892700685E+02  0.65833532058E+03  0.68151212499E+03  0.15294330000E+03 0.  0.
<mgrwt>
<rscale>  0 0.47681760E+03</rscale>
<asrwt>0</asrwt>
<pdfrwt beam="1">  1        2 0.15096927E+00 0.66443354E+03</pdfrwt>
<pdfrwt beam="2">  1       -2 0.56313880E-01 0.66443354E+03</pdfrwt>
<totfact> 0.78293409E+01</totfact>
</mgrwt>
</event>
<event>
 4    5  0.7289609E-008  0.8550119E+03  0.7818608E-02  0.9602499E-01
          2   -1    0    0  501    0  0.00000000000E+00  0.00000000000E+00  0.96322028555E+03  0.96322028556E+03  0.25500000000E-02 0. -1.
         -2   -1    0    0    0  501 -0.00000000000E+00 -0.00000000000E+00 -0.77175485300E+03  0.77175485301E+03  0.25500000000E-02 0.  1.
    8880023    1    1    2    0    0 -0.51567960877E+03 -0.17694563074E+03 -0.37535977730E+03  0.93377748089E+03  0.65864270000E+03 0.  0.
    8880022    1    1    2    0    0  0.51567960877E+03  0.17694563074E+03  0.56682520985E+03  0.80119765768E+03  0.15294330000E+03 0.  0.
<mgrwt>
<rscale>  0 0.77131029E+03</rscale>
<asrwt>0</asrwt>
<pdfrwt beam="1">  1        2 0.14818774E+00 0.85501194E+03</pdfrwt>
<pdfrwt beam="2">  1       -2 0.11873152E+00 0.85501194E+03</pdfrwt>
<totfact> 0.14589643E+01</totfact>
</mgrwt>
</event>
<event>
 4    5  0.7289609E-008  0.1164898E+04  0.7818608E-02  0.9192022E-01
          2   -1    0    0  501    0  0.00000000000E+00  0.00000000000E+00  0.30816486082E+04  0.30816486082E+04  0.25500000000E-02 0. -1.
         -2   -1    0    0    0  501 -0.00000000000E+00 -0.00000000000E+00 -0.79393631124E+03  0.79393631125E+03  0.25500000000E-02 0.  1.
    8880023    1    1    2    0    0  0.28853363947E+03 -0.91647505954E+03 -0.22023536651E+03  0.11855344865E+04  0.65864270000E+03 0.  1.
    8880022    1    1    2    0    0 -0.28853363947E+03  0.91647505954E+03  0.25079476635E+04  0.26900504329E+04  0.15294330000E+03 0.  0.
<mgrwt>
<rscale>  0 0.11136152E+04</rscale>
<asrwt>0</asrwt>
<pdfrwt beam="1">  1        2 0.47409979E+00 0.11648985E+04</pdfrwt>
<pdfrwt beam="2">  1       -2 0.12214405E+00 0.11648985E+04</pdfrwt>
<totfact> 0.78080049E-01</totfact>
</mgrwt>
</event>
<event>
 4    5  0.7289609E-008  0.1912936E+04  0.7818608E-02  0.8662509E-01
         -2   -1    0    0    0  501 -0.00000000000E+00  0.00000000000E+00  0.25734359010E+04  0.25734359010E+04  0.25500000000E-02 0.  1.
          2   -1    0    0  501    0  0.00000000000E+00 -0.00000000000E+00 -0.20391850429E+04  0.20391850429E+04  0.25500000000E-02 0. -1.
    8880023    1    1    2    0    0 -0.11288531557E+04  0.13968553711E+04 -0.10767323276E+04  0.21951485340E+04  0.65864270000E+03 0. -1.
    8880022    1    1    2    0    0  0.11288531557E+04 -0.13968553711E+04  0.16109831857E+04  0.24174724099E+04  0.15294330000E+03 0.  0.
<mgrwt>
<rscale>  0 0.18847011E+04</rscale>
<asrwt>0</asrwt>
<pdfrwt beam="1">  1        2 0.31372078E+00 0.19129361E+04</pdfrwt>
<pdfrwt beam="2">  1       -2 0.39591322E+00 0.19129361E+04</pdfrwt>
<totfact> 0.44833685E-02</totfact>
</mgrwt>
</event>
<event>
 4    5  0.9728471E-008  0.1334575E+04  0.7818608E-02  0.9036263E-01
         -2   -1    0    0    0  501 -0.00000000000E+00  0.00000000000E+00  0.22626529897E+04  0.22626529897E+04  0.25500000000E-02 0.  1.
          2   -1    0    0  501    0  0.00000000000E+00 -0.00000000000E+00 -0.20283299985E+04  0.20283299985E+04  0.25500000000E-02 0. -1.
    8880023    1    1    2    0    0 -0.22872434142E+03  0.11379649326E+04  0.18589879067E+04  0.22884329257E+04  0.65864270000E+03 0.  1.
    8880022    1    1    2    0    0  0.22872434142E+03 -0.11379649326E+04 -0.16246649155E+04  0.20025500625E+04  0.15294330000E+03 0.  0.
<mgrwt>
<rscale>  0 0.12915873E+04</rscale>
<asrwt>0</asrwt>
<pdfrwt beam="1">  1        2 0.31205077E+00 0.13345745E+04</pdfrwt>
<pdfrwt beam="2">  1       -2 0.34810046E+00 0.13345745E+04</pdfrwt>
<totfact> 0.99028899E-02</totfact>
</mgrwt>
</event>
<event>
 4    5  0.7289609E-008  0.8253833E+03  0.7818608E-02  0.9658383E-01
          2   -1    0    0  501    0  0.00000000000E+00  0.00000000000E+00  0.80691045615E+03  0.80691045615E+03  0.25500000000E-02 0. -1.
         -2   -1    0    0    0  501 -0.00000000000E+00 -0.00000000000E+00 -0.97397555988E+03  0.97397555988E+03  0.25500000000E-02 0.  1.
    8880023    1    1    2    0    0 -0.23137022694E+03  0.44035811748E+03 -0.66551455924E+03  0.10602675551E+04  0.65864270000E+03 0.  1.
    8880022    1    1    2    0    0  0.23137022694E+03 -0.44035811748E+03  0.49844945551E+03  0.72061846095E+03  0.15294330000E+03 0.  0.
<mgrwt>
<rscale>  0 0.73549664E+03</rscale>
<asrwt>0</asrwt>
<pdfrwt beam="1">  1        2 0.12414007E+00 0.82538334E+03</pdfrwt>
<pdfrwt beam="2">  1       -2 0.14984239E+00 0.82538334E+03</pdfrwt>
<totfact> 0.10313861E+01</totfact>
</mgrwt>
</event>
<event>
 4    5  0.7289609E-008  0.7282460E+03  0.7818608E-02  0.9895612E-01
         -2   -1    0    0    0  501 -0.00000000000E+00  0.00000000000E+00  0.17812651492E+04  0.17812651492E+04  0.25500000000E-02 0.  1.
          2   -1    0    0  501    0  0.00000000000E+00 -0.00000000000E+00 -0.17999962497E+04  0.17999962497E+04  0.25500000000E-02 0. -1.
    8880023    1    1    2    0    0 -0.19246950433E+03 -0.24390075764E+03  0.16887163094E+04  0.18390500454E+04  0.65864270000E+03 0.  1.
    8880022    1    1    2    0    0  0.19246950433E+03  0.24390075764E+03 -0.17074474099E+04  0.17422113535E+04  0.15294330000E+03 0.  0.
<mgrwt>
<rscale>  0 0.60474425E+03</rscale>
<asrwt>0</asrwt>
<pdfrwt beam="1">  1        2 0.27692250E+00 0.72824604E+03</pdfrwt>
<pdfrwt beam="2">  1       -2 0.27404079E+00 0.72824604E+03</pdfrwt>
<totfact> 0.41884031E-01</totfact>
</mgrwt>
</event>
<event>
 4    5  0.7289609E-008  0.8137817E+03  0.7818608E-02  0.9681753E-01
         -2   -1    0    0    0  501 -0.00000000000E+00  0.00000000000E+00  0.76337573813E+03  0.76337573813E+03  0.25500000000E-02 0.  1.
          2   -1    0    0  501    0  0.00000000000E+00 -0.00000000000E+00 -0.12356433837E+04  0.12356433837E+04  0.25500000000E-02 0. -1.
    8880023    1    1    2    0    0  0.39967271838E+03 -0.26209201707E+03  0.46398476096E+03  0.93676174767E+03  0.65864270000E+03 0.  1.
    8880022    1    1    2    0    0 -0.39967271838E+03  0.26209201707E+03 -0.93625240649E+03  0.10622573741E+04  0.15294330000E+03 0.  0.
<mgrwt>
<rscale>  0 0.72113686E+03</rscale>
<asrwt>0</asrwt>
<pdfrwt beam="1">  1        2 0.19009898E+00 0.81378174E+03</pdfrwt>
<pdfrwt beam="2">  1       -2 0.11744242E+00 0.81378174E+03</pdfrwt>
<totfact> 0.10227575E+01</totfact>
</mgrwt>
</event>
<event>
 4    5  0.7289609E-008  0.6951510E+03  0.7818608E-02  0.1001794E+00
          2   -1    0    0  501    0  0.00000000000E+00  0.00000000000E+00  0.25916408212E+04  0.25916408212E+04  0.25500000000E-02 0. -1.
         -2   -1    0    0    0  501 -0.00000000000E+00 -0.00000000000E+00 -0.23266139528E+03  0.23266139529E+03  0.25500000000E-02 0.  1.
    8880023    1    1    2    0    0  0.18999376178E+03  0.11544289561E+03  0.31604355740E+03  0.76362191436E+03  0.65864270000E+03 0.  1.
    8880022    1    1    2    0    0 -0.18999376178E+03 -0.11544289561E+03  0.20429358685E+04  0.20606803021E+04  0.15294330000E+03 0.  0.
<mgrwt>
<rscale>  0 0.54870380E+03</rscale>
<asrwt>0</asrwt>
<pdfrwt beam="1">  1        2 0.39871398E+00 0.69515099E+03</pdfrwt>
<pdfrwt beam="2">  1       -2 0.35794060E-01 0.69515099E+03</pdfrwt>
<totfact> 0.23852963E+01</totfact>
</mgrwt>
</event>
<event>
 4    5  0.7289609E-008  0.9960730E+03  0.7818608E-02  0.9386714E-01
          2   -1    0    0  501    0  0.00000000000E+00  0.00000000000E+00  0.15745854286E+04  0.15745854286E+04  0.25500000000E-02 0. -1.
         -2   -1    0    0    0  501 -0.00000000000E+00 -0.00000000000E+00 -0.61454467480E+03  0.61454467481E+03  0.25500000000E-02 0.  1.
    8880023    1    1    2    0    0 -0.29785548622E+03  0.68529791687E+03  0.43887021528E+02  0.99703931841E+03  0.65864270000E+03 0.  1.
    8880022    1    1    2    0    0  0.29785548622E+03 -0.68529791687E+03  0.91615373231E+03  0.11920907850E+04  0.15294330000E+03 0.  0.
<mgrwt>
<rscale>  0 0.93177217E+03</rscale>
<asrwt>0</asrwt>
<pdfrwt beam="1">  1        2 0.24224391E+00 0.99607296E+03</pdfrwt>
<pdfrwt beam="2">  1       -2 0.94545335E-01 0.99607296E+03</pdfrwt>
<totfact> 0.10827227E+01</totfact>
</mgrwt>
</event>
<event>
 4    5  0.7289609E-008  0.9239883E+03  0.7818608E-02  0.9488571E-01
         -2   -1    0    0    0  501 -0.00000000000E+00  0.00000000000E+00  0.49954431862E+03  0.49954431863E+03  0.25500000000E-02 0.  1.
          2   -1    0    0  501    0  0.00000000000E+00 -0.00000000000E+00 -0.22282452018E+04  0.22282452019E+04  0.25500000000E-02 0. -1.
    8880023    1    1    2    0    0  0.37347741678E+03 -0.52958365204E+03 -0.53982618440E+02  0.92556391174E+03  0.65864270000E+03 0.  0.
    8880022    1    1    2    0    0 -0.37347741678E+03  0.52958365204E+03 -0.16747182648E+04  0.18022256087E+04  0.15294330000E+03 0.  0.
<mgrwt>
<rscale>  0 0.85131733E+03</rscale>
<asrwt>0</asrwt>
<pdfrwt beam="1">  1        2 0.34280695E+00 0.92398833E+03</pdfrwt>
<pdfrwt beam="2">  1       -2 0.76852973E-01 0.92398833E+03</pdfrwt>
<totfact> 0.76447132E+00</totfact>
</mgrwt>
</event>
<event>
 4    5  0.7289609E-008  0.8803869E+03  0.7818608E-02  0.9558280E-01
         -2   -1    0    0    0  501 -0.00000000000E+00  0.00000000000E+00  0.71240253683E+03  0.71240253684E+03  0.25500000000E-02 0.  1.
          2   -1    0    0  501    0  0.00000000000E+00 -0.00000000000E+00 -0.11911793317E+04  0.11911793317E+04  0.25500000000E-02 0. -1.
    8880023    1    1    2    0    0 -0.97016277429E+02 -0.57607181444E+03  0.28915591957E+03  0.92665648736E+03  0.65864270000E+03 0.  0.
    8880022    1    1    2    0    0  0.97016277429E+02  0.57607181444E+03 -0.76793271444E+03  0.97692538119E+03  0.15294330000E+03 0.  0.
<mgrwt>
<rscale>  0 0.80120117E+03</rscale>
<asrwt>0</asrwt>
<pdfrwt beam="1">  1        2 0.18325836E+00 0.88038690E+03</pdfrwt>
<pdfrwt beam="2">  1       -2 0.10960039E+00 0.88038690E+03</pdfrwt>
<totfact> 0.12769439E+01</totfact>
</mgrwt>
</event>
<event>
 4    5  0.7289609E-008  0.6979262E+03  0.7818608E-02  0.1000592E+00
          2   -1    0    0  501    0  0.00000000000E+00  0.00000000000E+00  0.24569995835E+04  0.24569995835E+04  0.25500000000E-02 0. -1.
         -2   -1    0    0    0  501 -0.00000000000E+00 -0.00000000000E+00 -0.48378818677E+03  0.48378818678E+03  0.25500000000E-02 0.  1.
    8880023    1    1    2    0    0 -0.20324117006E+03 -0.10947035595E+03 -0.21874954631E+03  0.73140433572E+03  0.65864270000E+03 0.  1.
    8880022    1    1    2    0    0  0.20324117006E+03  0.10947035595E+03  0.21919609431E+04  0.22093834346E+04  0.15294330000E+03 0.  0.
<mgrwt>
<rscale>  0 0.55391620E+03</rscale>
<asrwt>0</asrwt>
<pdfrwt beam="1">  1        2 0.37799992E+00 0.69792617E+03</pdfrwt>
<pdfrwt beam="2">  1       -2 0.74428954E-01 0.69792617E+03</pdfrwt>
<totfact> 0.63353469E+00</totfact>
</mgrwt>
</event>
<event>
 4    5  0.7289609E-008  0.9916585E+03  0.7818608E-02  0.9392553E-01
         -2   -1    0    0    0  501 -0.00000000000E+00  0.00000000000E+00  0.50269631327E+03  0.50269631328E+03  0.25500000000E-02 0.  1.
          2   -1    0    0  501    0  0.00000000000E+00 -0.00000000000E+00 -0.28357817346E+04  0.28357817346E+04  0.25500000000E-02 0. -1.
    8880023    1    1    2    0    0  0.50101562476E+02 -0.73963922339E+03 -0.11923842127E+03  0.99880145910E+03  0.65864270000E+03 0.  0.
    8880022    1    1    2    0    0 -0.50101562476E+02  0.73963922339E+03 -0.22138470000E+04  0.23396765888E+04  0.15294330000E+03 0.  0.
<mgrwt>
<rscale>  0 0.92691070E+03</rscale>
<asrwt>0</asrwt>
<pdfrwt beam="1">  1        2 0.43627410E+00 0.99165849E+03</pdfrwt>
<pdfrwt beam="2">  1       -2 0.77337896E-01 0.99165849E+03</pdfrwt>
<totfact> 0.33417935E+00</totfact>
</mgrwt>
</event>
<event>
 4    5  0.7289609E-008  0.7143143E+03  0.7818608E-02  0.9942316E-01
         -2   -1    0    0    0  501 -0.00000000000E+00  0.00000000000E+00  0.32022711106E+03  0.32022711107E+03  0.25500000000E-02 0.  1.
          2   -1    0    0  501    0  0.00000000000E+00 -0.00000000000E+00 -0.19424221121E+04  0.19424221121E+04  0.25500000000E-02 0. -1.
    8880023    1    1    2    0    0 -0.12596236588E+03  0.24610601378E+03 -0.11599930721E+03  0.72367170262E+03  0.65864270000E+03 0.  0.
    8880022    1    1    2    0    0  0.12596236588E+03 -0.24610601378E+03 -0.15061956939E+04  0.15389775206E+04  0.15294330000E+03 0. -1.
<mgrwt>
<rscale>  0 0.58253583E+03</rscale>
<asrwt>0</asrwt>
<pdfrwt beam="1">  1        2 0.29883416E+00 0.71431428E+03</pdfrwt>
<pdfrwt beam="2">  1       -2 0.49265711E-01 0.71431428E+03</pdfrwt>
<totfact> 0.29073135E+01</totfact>
</mgrwt>
</event>
<event>
 4    5  0.7289609E-008  0.9693515E+03  0.7818608E-02  0.9422802E-01
         -2   -1    0    0    0  501 -0.00000000000E+00  0.00000000000E+00  0.84129095736E+03  0.84129095736E+03  0.25500000000E-02 0.  1.
          2   -1    0    0  501    0  0.00000000000E+00 -0.00000000000E+00 -0.10180415146E+04  0.10180415146E+04  0.25500000000E-02 0. -1.
    8880023    1    1    2    0    0 -0.69985583214E+03 -0.12662484650E+03  0.26921275456E+03  0.10060406309E+04  0.65864270000E+03 0.  0.
    8880022    1    1    2    0    0  0.69985583214E+03  0.12662484650E+03 -0.44596331179E+03  0.85329184105E+03  0.15294330000E+03 0.  0.
<mgrwt>
<rscale>  0 0.90222708E+03</rscale>
<asrwt>0</asrwt>
<pdfrwt beam="1">  1        2 0.15662177E+00 0.96935146E+03</pdfrwt>
<pdfrwt beam="2">  1       -2 0.12942938E+00 0.96935146E+03</pdfrwt>
<totfact> 0.10714938E+01</totfact>
</mgrwt>
</event>
<event>
 4    5  0.7289609E-008  0.1092654E+04  0.7818608E-02  0.9269279E-01
         -2   -1    0    0    0  501 -0.00000000000E+00  0.00000000000E+00  0.28786739704E+03  0.28786739705E+03  0.25500000000E-02 0.  1.
          2   -1    0    0  501    0  0.00000000000E+00 -0.00000000000E+00 -0.40721963773E+04  0.40721963773E+04  0.25500000000E-02 0. -1.
    8880023    1    1    2    0    0 -0.41771888097E+02  0.87082624907E+03 -0.11742478433E+04  0.16039798785E+04  0.65864270000E+03 0.  0.
    8880022    1    1    2    0    0  0.41771888097E+02 -0.87082624907E+03 -0.26100811369E+04  0.27560838959E+04  0.15294330000E+03 0.  0.
<mgrwt>
<rscale>  0 0.10366096E+04</rscale>
<asrwt>0</asrwt>
<pdfrwt beam="1">  1        2 0.62649171E+00 0.10926543E+04</pdfrwt>
<pdfrwt beam="2">  1       -2 0.44287295E-01 0.10926543E+04</pdfrwt>
<totfact> 0.15026936E+00</totfact>
</mgrwt>
</event>
<event>
 4    5  0.7289609E-008  0.7341261E+03  0.7818608E-02  0.9877400E-01
          2   -1    0    0  501    0  0.00000000000E+00  0.00000000000E+00  0.87706662586E+03  0.87706662587E+03  0.25500000000E-02 0. -1.
         -2   -1    0    0    0  501 -0.00000000000E+00 -0.00000000000E+00 -0.12938921984E+04  0.12938921984E+04  0.25500000000E-02 0.  1.
    8880023    1    1    2    0    0  0.13339165688E+03  0.29552922346E+03 -0.11445305171E+04  0.13597393746E+04  0.65864270000E+03 0.  1.
    8880022    1    1    2    0    0 -0.13339165688E+03 -0.29552922346E+03  0.72770494460E+03  0.81121944962E+03  0.15294330000E+03 0.  0.
<mgrwt>
<rscale>  0 0.61369188E+03</rscale>
<asrwt>0</asrwt>
<pdfrwt beam="1">  1        2 0.13493333E+00 0.73412605E+03</pdfrwt>
<pdfrwt beam="2">  1       -2 0.19906034E+00 0.73412605E+03</pdfrwt>
<totfact> 0.42026723E+00</totfact>
</mgrwt>
</event>
<event>
 4    5  0.7289609E-008  0.1441059E+04  0.7818608E-02  0.8952418E-01
          2   -1    0    0  501    0  0.00000000000E+00  0.00000000000E+00  0.28051328736E+04  0.28051328736E+04  0.25500000000E-02 0. -1.
         -2   -1    0    0    0  501 -0.00000000000E+00 -0.00000000000E+00 -0.10339685305E+04  0.10339685305E+04  0.25500000000E-02 0.  1.
    8880023    1    1    2    0    0 -0.66772490483E+03  0.10940683838E+04 -0.22843504728E+03  0.14590527592E+04  0.65864270000E+03 0.  1.
    8880022    1    1    2    0    0  0.66772490483E+03 -0.10940683838E+04  0.19995993904E+04  0.23800486449E+04  0.15294330000E+03 0.  0.
<mgrwt>
<rscale>  0 0.14019367E+04</rscale>
<asrwt>0</asrwt>
<pdfrwt beam="1">  1        2 0.43155890E+00 0.14410595E+04</pdfrwt>
<pdfrwt beam="2">  1       -2 0.15907208E+00 0.14410595E+04</pdfrwt>
<totfact> 0.55906501E-01</totfact>
</mgrwt>
</event>
<event>
 4    5  0.7289609E-008  0.6734047E+03  0.7818608E-02  0.1013331E+00
          2   -1    0    0  501    0  0.00000000000E+00  0.00000000000E+00  0.22699256679E+04  0.22699256679E+04  0.25500000000E-02 0. -1.
         -2   -1    0    0    0  501 -0.00000000000E+00 -0.00000000000E+00 -0.84649016082E+03  0.84649016082E+03  0.25500000000E-02 0.  1.
    8880023    1    1    2    0    0  0.13757423982E+03  0.27148786699E+02 -0.70671893930E+03  0.97617907861E+03  0.65864270000E+03 0.  1.
    8880022    1    1    2    0    0 -0.13757423982E+03 -0.27148786699E+02  0.21301544464E+04  0.21402367501E+04  0.15294330000E+03 0.  0.
<mgrwt>
<rscale>  0 0.50171901E+03</rscale>
<asrwt>0</asrwt>
<pdfrwt beam="1">  1        2 0.34921933E+00 0.67340473E+03</pdfrwt>
<pdfrwt beam="2">  1       -2 0.13022926E+00 0.67340473E+03</pdfrwt>
<totfact> 0.21620809E+00</totfact>
</mgrwt>
</event>
<event>
 4    5  0.7289609E-008  0.8734979E+03  0.7818608E-02  0.9569990E-01
         -2   -1    0    0    0  501 -0.00000000000E+00  0.00000000000E+00  0.45098016643E+03  0.45098016644E+03  0.25500000000E-02 0.  1.
          2   -1    0    0  501    0  0.00000000000E+00 -0.00000000000E+00 -0.19584308647E+04  0.19584308647E+04  0.25500000000E-02 0. -1.
    8880023    1    1    2    0    0  0.20555916686E+03  0.53566201059E+03 -0.96753107127E+02  0.87883999151E+03  0.65864270000E+03 0.  1.
    8880022    1    1    2    0    0 -0.20555916686E+03 -0.53566201059E+03 -0.14106975911E+04  0.15305710396E+04  0.15294330000E+03 0.  0.
<mgrwt>
<rscale>  0 0.79314686E+03</rscale>
<asrwt>0</asrwt>
<pdfrwt beam="1">  1        2 0.30129705E+00 0.87349789E+03</pdfrwt>
<pdfrwt beam="2">  1       -2 0.69381565E-01 0.87349789E+03</pdfrwt>
<totfact> 0.13583265E+01</totfact>
</mgrwt>
</event>
<event>
 4    5  0.7289609E-008  0.7533110E+03  0.7818608E-02  0.9822743E-01
          2   -1    0    0  501    0  0.00000000000E+00  0.00000000000E+00  0.56338418415E+03  0.56338418416E+03  0.25500000000E-02 0. -1.
         -2   -1    0    0    0  501 -0.00000000000E+00 -0.00000000000E+00 -0.14593402529E+04  0.14593402529E+04  0.25500000000E-02 0.  1.
    8880023    1    1    2    0    0 -0.34543825814E+03 -0.11974813965E+03 -0.12707543359E+04  0.14772589467E+04  0.65864270000E+03 0.  1.
    8880022    1    1    2    0    0  0.34543825814E+03  0.11974813965E+03  0.37479826713E+03  0.54546549038E+03  0.15294330000E+03 0.  0.
<mgrwt>
<rscale>  0 0.64156184E+03</rscale>
<asrwt>0</asrwt>
<pdfrwt beam="1">  1        2 0.86674490E-01 0.75331097E+03</pdfrwt>
<pdfrwt beam="2">  1       -2 0.22451388E+00 0.75331097E+03</pdfrwt>
<totfact> 0.50692595E+00</totfact>
</mgrwt>
</event>
<event>
 4    5  0.7289609E-008  0.1393020E+04  0.7818608E-02  0.8989125E-01
          2   -1    0    0  501    0  0.00000000000E+00  0.00000000000E+00  0.17363501517E+04  0.17363501517E+04  0.25500000000E-02 0. -1.
         -2   -1    0    0    0  501 -0.00000000000E+00 -0.00000000000E+00 -0.12397697547E+04  0.12397697547E+04  0.25500000000E-02 0.  1.
    8880023    1    1    2    0    0 -0.10570573999E+04  0.62395946730E+03 -0.39893611909E+03  0.14490189774E+04  0.65864270000E+03 0.  0.
    8880022    1    1    2    0    0  0.10570573999E+04 -0.62395946730E+03  0.89551651613E+03  0.15271009290E+04  0.15294330000E+03 0.  0.
<mgrwt>
<rscale>  0 0.13522521E+04</rscale>
<asrwt>0</asrwt>
<pdfrwt beam="1">  1        2 0.26713079E+00 0.13930204E+04</pdfrwt>
<pdfrwt beam="2">  1       -2 0.19073381E+00 0.13930204E+04</pdfrwt>
<totfact> 0.13639185E+00</totfact>
</mgrwt>
</event>
<event>
 4    5  0.7289609E-008  0.1052251E+04  0.7818608E-02  0.9316181E-01
          2   -1    0    0  501    0  0.00000000000E+00  0.00000000000E+00  0.13792433391E+04  0.13792433391E+04  0.25500000000E-02 0. -1.
         -2   -1    0    0    0  501 -0.00000000000E+00 -0.00000000000E+00 -0.17012219124E+04  0.17012219124E+04  0.25500000000E-02 0.  1.
    8880023    1    1    2    0    0  0.81604013493E+03  0.86599362790E+02 -0.13783462374E+04  0.17340903979E+04  0.65864270000E+03 0.  0.
    8880022    1    1    2    0    0 -0.81604013493E+03 -0.86599362790E+02  0.10563676642E+04  0.13463748536E+04  0.15294330000E+03 0.  0.
<mgrwt>
<rscale>  0 0.99306771E+03</rscale>
<asrwt>0</asrwt>
<pdfrwt beam="1">  1        2 0.21219128E+00 0.10522505E+04</pdfrwt>
<pdfrwt beam="2">  1       -2 0.26172645E+00 0.10522505E+04</pdfrwt>
<totfact> 0.80301427E-01</totfact>
</mgrwt>
</event>
<event>
 4    5  0.7289609E-008  0.1386605E+04  0.7818608E-02  0.8994161E-01
          2   -1    0    0  501    0  0.00000000000E+00  0.00000000000E+00  0.33226533235E+04  0.33226533235E+04  0.25500000000E-02 0. -1.
         -2   -1    0    0    0  501 -0.00000000000E+00 -0.00000000000E+00 -0.92937098217E+03  0.92937098217E+03  0.25500000000E-02 0.  1.
    8880023    1    1    2    0    0 -0.59146973132E+03 -0.10672524061E+04 -0.18170707932E+03  0.13984605144E+04  0.65864270000E+03 0.  0.
    8880022    1    1    2    0    0  0.59146973132E+03  0.10672524061E+04  0.25749894207E+04  0.28535637913E+04  0.15294330000E+03 0.  0.
<mgrwt>
<rscale>  0 0.13456057E+04</rscale>
<asrwt>0</asrwt>
<pdfrwt beam="1">  1        2 0.51117744E+00 0.13866053E+04</pdfrwt>
<pdfrwt beam="2">  1       -2 0.14298015E+00 0.13866053E+04</pdfrwt>
<totfact> 0.35313086E-01</totfact>
</mgrwt>
</event>
<event>
 4    5  0.7289609E-008  0.6615036E+03  0.7818608E-02  0.1022666E+00
         -2   -1    0    0    0  501 -0.00000000000E+00  0.00000000000E+00  0.32226528537E+03  0.32226528538E+03  0.25500000000E-02 0.  1.
          2   -1    0    0  501    0  0.00000000000E+00 -0.00000000000E+00 -0.77698379849E+03  0.77698379849E+03  0.25500000000E-02 0. -1.
    8880023    1    1    2    0    0 -0.61031289513E+02  0.72129124867E+01 -0.51339029185E+02  0.66349283838E+03  0.65864270000E+03 0.  1.
    8880022    1    1    2    0    0  0.61031289513E+02 -0.72129124867E+01 -0.40337948394E+03  0.43575624549E+03  0.15294330000E+03 0.  0.
<mgrwt>
<rscale>  0 0.46736628E+03</rscale>
<asrwt>0</asrwt>
<pdfrwt beam="1">  1        2 0.11953597E+00 0.66150363E+03</pdfrwt>
<pdfrwt beam="2">  1       -2 0.49579275E-01 0.66150363E+03</pdfrwt>
<totfact> 0.14015033E+02</totfact>
</mgrwt>
</event>
<event>
 4    5  0.7289609E-008  0.6809674E+03  0.7818608E-02  0.1008782E+00
          2   -1    0    0  501    0  0.00000000000E+00  0.00000000000E+00  0.20977961078E+04  0.20977961078E+04  0.25500000000E-02 0. -1.
         -2   -1    0    0    0  501 -0.00000000000E+00 -0.00000000000E+00 -0.95068962752E+03  0.95068962752E+03  0.25500000000E-02 0.  1.
    8880023    1    1    2    0    0  0.13358883877E+03  0.10981983029E+03 -0.82112926631E+03  0.10667566973E+04  0.65864270000E+03 0.  1.
    8880022    1    1    2    0    0 -0.13358883877E+03 -0.10981983029E+03  0.19682357466E+04  0.19817290381E+04  0.15294330000E+03 0.  0.
<mgrwt>
<rscale>  0 0.51961733E+03</rscale>
<asrwt>0</asrwt>
<pdfrwt beam="1">  1        2 0.32273786E+00 0.68096738E+03</pdfrwt>
<pdfrwt beam="2">  1       -2 0.14625994E+00 0.68096738E+03</pdfrwt>
<totfact> 0.19905633E+00</totfact>
</mgrwt>
</event>
<event>
 4    5  0.7289609E-008  0.8173467E+03  0.7818608E-02  0.9674472E-01
          2   -1    0    0  501    0  0.00000000000E+00  0.00000000000E+00  0.17033579584E+04  0.17033579584E+04  0.25500000000E-02 0. -1.
         -2   -1    0    0    0  501 -0.00000000000E+00 -0.00000000000E+00 -0.38293358131E+03  0.38293358132E+03  0.25500000000E-02 0.  1.
    8880023    1    1    2    0    0  0.31315737296E+03 -0.36902289881E+03  0.17845820013E+03  0.83660204132E+03  0.65864270000E+03 0.  1.
    8880022    1    1    2    0    0 -0.31315737296E+03  0.36902289881E+03  0.11419661769E+04  0.12496894984E+04  0.15294330000E+03 0.  0.
<mgrwt>
<rscale>  0 0.72557246E+03</rscale>
<asrwt>0</asrwt>
<pdfrwt beam="1">  1        2 0.26205506E+00 0.81734671E+03</pdfrwt>
<pdfrwt beam="2">  1       -2 0.58912860E-01 0.81734671E+03</pdfrwt>
<totfact> 0.26786526E+01</totfact>
</mgrwt>
</event>
<event>
 4    5  0.7289609E-008  0.1159781E+04  0.7818608E-02  0.9197246E-01
         -2   -1    0    0    0  501 -0.00000000000E+00  0.00000000000E+00  0.15568495409E+04  0.15568495409E+04  0.25500000000E-02 0.  1.
          2   -1    0    0  501    0  0.00000000000E+00 -0.00000000000E+00 -0.11132409301E+04  0.11132409301E+04  0.25500000000E-02 0. -1.
    8880023    1    1    2    0    0 -0.53427386636E+03 -0.79109551686E+03  0.10200177264E+04  0.15445151503E+04  0.65864270000E+03 0.  1.
    8880022    1    1    2    0    0  0.53427386636E+03  0.79109551686E+03 -0.57640911557E+03  0.11255753207E+04  0.15294330000E+03 0.  0.
<mgrwt>
<rscale>  0 0.11081901E+04</rscale>
<asrwt>0</asrwt>
<pdfrwt beam="1">  1        2 0.17126784E+00 0.11597805E+04</pdfrwt>
<pdfrwt beam="2">  1       -2 0.23951531E+00 0.11597805E+04</pdfrwt>
<totfact> 0.15579437E+00</totfact>
</mgrwt>
</event>
<event>
 4    5  0.7289609E-008  0.1072888E+04  0.7818608E-02  0.9291860E-01
          2   -1    0    0  501    0  0.00000000000E+00  0.00000000000E+00  0.16747217675E+04  0.16747217675E+04  0.25500000000E-02 0. -1.
         -2   -1    0    0    0  501 -0.00000000000E+00 -0.00000000000E+00 -0.10705692995E+04  0.10705692995E+04  0.25500000000E-02 0.  1.
    8880023    1    1    2    0    0  0.80599733028E+03 -0.26008887382E+03 -0.62737145987E+03  0.12428527964E+04  0.65864270000E+03 0.  1.
    8880022    1    1    2    0    0 -0.80599733028E+03  0.26008887382E+03  0.12315239279E+04  0.15024382705E+04  0.15294330000E+03 0.  0.
<mgrwt>
<rscale>  0 0.10153570E+04</rscale>
<asrwt>0</asrwt>
<pdfrwt beam="1">  1        2 0.25764950E+00 0.10728878E+04</pdfrwt>
<pdfrwt beam="2">  1       -2 0.16470297E+00 0.10728878E+04</pdfrwt>
<totfact> 0.23216923E+00</totfact>
</mgrwt>
</event>
<event>
 4    5  0.7289609E-008  0.9777116E+03  0.7818608E-02  0.9411317E-01
         -2   -1    0    0    0  501 -0.00000000000E+00  0.00000000000E+00  0.93964942678E+03  0.93964942678E+03  0.25500000000E-02 0.  1.
          2   -1    0    0  501    0  0.00000000000E+00 -0.00000000000E+00 -0.15951493882E+04  0.15951493882E+04  0.25500000000E-02 0. -1.
    8880023    1    1    2    0    0 -0.41856091167E+03  0.58899627644E+03  0.54943437302E+03  0.11215160217E+04  0.65864270000E+03 0.  0.
    8880022    1    1    2    0    0  0.41856091167E+03 -0.58899627644E+03 -0.12049343345E+04  0.14132827933E+04  0.15294330000E+03 0.  0.
<mgrwt>
<rscale>  0 0.91150191E+03</rscale>
<asrwt>0</asrwt>
<pdfrwt beam="1">  1        2 0.24540760E+00 0.97771164E+03</pdfrwt>
<pdfrwt beam="2">  1       -2 0.14456145E+00 0.97771164E+03</pdfrwt>
<totfact> 0.36925080E+00</totfact>
</mgrwt>
</event>
<event>
 4    5  0.7289609E-008  0.1370392E+04  0.7818608E-02  0.9007037E-01
         -2   -1    0    0    0  501 -0.00000000000E+00  0.00000000000E+00  0.87802811533E+03  0.87802811533E+03  0.25500000000E-02 0.  1.
          2   -1    0    0  501    0  0.00000000000E+00 -0.00000000000E+00 -0.43114720069E+04  0.43114720069E+04  0.25500000000E-02 0. -1.
    8880023    1    1    2    0    0  0.12016926093E+04 -0.98997450505E+01  0.17650091360E+03  0.13817112256E+04  0.65864270000E+03 0.  0.
    8880022    1    1    2    0    0 -0.12016926093E+04  0.98997450505E+01 -0.36099448052E+04  0.38077888967E+04  0.15294330000E+03 0.  0.
<mgrwt>
<rscale>  0 0.13287945E+04</rscale>
<asrwt>0</asrwt>
<pdfrwt beam="1">  1        2 0.66330337E+00 0.13703917E+04</pdfrwt>
<pdfrwt beam="2">  1       -2 0.13508125E+00 0.13703917E+04</pdfrwt>
<totfact> 0.72163156E-02</totfact>
</mgrwt>
</event>
<event>
 4    5  0.7289609E-008  0.1357856E+04  0.7818608E-02  0.9017142E-01
         -2   -1    0    0    0  501 -0.00000000000E+00  0.00000000000E+00  0.13021819468E+04  0.13021819468E+04  0.25500000000E-02 0.  1.
          2   -1    0    0  501    0  0.00000000000E+00 -0.00000000000E+00 -0.29333553917E+04  0.29333553917E+04  0.25500000000E-02 0. -1.
    8880023    1    1    2    0    0 -0.80866180886E+03 -0.86949857735E+03  0.76384067427E+03  0.15579552237E+04  0.65864270000E+03 0.  1.
    8880022    1    1    2    0    0  0.80866180886E+03  0.86949857735E+03 -0.23950141192E+04  0.26775821147E+04  0.15294330000E+03 0.  0.
<mgrwt>
<rscale>  0 0.13157833E+04</rscale>
<asrwt>0</asrwt>
<pdfrwt beam="1">  1        2 0.45128544E+00 0.13578556E+04</pdfrwt>
<pdfrwt beam="2">  1       -2 0.20033568E+00 0.13578556E+04</pdfrwt>
<totfact> 0.24327349E-01</totfact>
</mgrwt>
</event>
<event>
 4    5  0.7289609E-008  0.7888197E+03  0.7818608E-02  0.9735513E-01
          2   -1    0    0  501    0  0.00000000000E+00  0.00000000000E+00  0.20320892717E+04  0.20320892717E+04  0.25500000000E-02 0. -1.
         -2   -1    0    0    0  501 -0.00000000000E+00 -0.00000000000E+00 -0.14200127032E+04  0.14200127032E+04  0.25500000000E-02 0.  1.
    8880023    1    1    2    0    0 -0.79519268579E+01 -0.43400822059E+03 -0.12807204362E+04  0.15041547163E+04  0.65864270000E+03 0.  1.
    8880022    1    1    2    0    0  0.79519268579E+01  0.43400822059E+03  0.18927970047E+04  0.19479472587E+04  0.15294330000E+03 0.  0.
<mgrwt>
<rscale>  0 0.68941176E+03</rscale>
<asrwt>0</asrwt>
<pdfrwt beam="1">  1        2 0.31262912E+00 0.78881974E+03</pdfrwt>
<pdfrwt beam="2">  1       -2 0.21846349E+00 0.78881974E+03</pdfrwt>
<totfact> 0.67365116E-01</totfact>
</mgrwt>
</event>
<event>
 4    5  0.7289609E-008  0.1123832E+04  0.7818608E-02  0.9234974E-01
          2   -1    0    0  501    0  0.00000000000E+00  0.00000000000E+00  0.50993139824E+04  0.50993139824E+04  0.25500000000E-02 0. -1.
         -2   -1    0    0    0  501 -0.00000000000E+00 -0.00000000000E+00 -0.33666315812E+03  0.33666315813E+03  0.25500000000E-02 0.  1.
    8880023    1    1    2    0    0 -0.90388981652E+03  0.11032860300E+03  0.83190309779E+03  0.13982353777E+04  0.65864270000E+03 0.  1.
    8880022    1    1    2    0    0  0.90388981652E+03 -0.11032860300E+03  0.39307477265E+04  0.40377417629E+04  0.15294330000E+03 0.  0.
<mgrwt>
<rscale>  0 0.10699614E+04</rscale>
<asrwt>0</asrwt>
<pdfrwt beam="1">  1        2 0.78450984E+00 0.11238325E+04</pdfrwt>
<pdfrwt beam="2">  1       -2 0.51794332E-01 0.11238325E+04</pdfrwt>
<totfact> 0.96983597E-02</totfact>
</mgrwt>
</event>
<event>
 4    5  0.7289609E-008  0.8008600E+03  0.7818608E-02  0.9708940E-01
          2   -1    0    0  501    0  0.00000000000E+00  0.00000000000E+00  0.17526596571E+04  0.17526596571E+04  0.25500000000E-02 0. -1.
         -2   -1    0    0    0  501 -0.00000000000E+00 -0.00000000000E+00 -0.32221459968E+03  0.32221459969E+03  0.25500000000E-02 0.  1.
    8880023    1    1    2    0    0 -0.28403339783E+03  0.35621834527E+03  0.31550007859E+03  0.86076534924E+03  0.65864270000E+03 0.  1.
    8880022    1    1    2    0    0  0.28403339783E+03 -0.35621834527E+03  0.11149449789E+04  0.12141089076E+04  0.15294330000E+03 0.  0.
<mgrwt>
<rscale>  0 0.70487011E+03</rscale>
<asrwt>0</asrwt>
<pdfrwt beam="1">  1        2 0.26963995E+00 0.80085997E+03</pdfrwt>
<pdfrwt beam="2">  1       -2 0.49571476E-01 0.80085997E+03</pdfrwt>
<totfact> 0.36050722E+01</totfact>
</mgrwt>
</event>
<event>
 4    5  0.9186214E-008  0.1257303E+04  0.7818608E-02  0.9103338E-01
         -2   -1    0    0    0  501 -0.00000000000E+00  0.00000000000E+00  0.11494385211E+04  0.11494385211E+04  0.25500000000E-02 0.  1.
          2   -1    0    0  501    0  0.00000000000E+00 -0.00000000000E+00 -0.25026297868E+04  0.25026297868E+04  0.25500000000E-02 0. -1.
    8880023    1    1    2    0    0  0.10444439799E+04 -0.23693157164E+03  0.61992664963E+03  0.14018270414E+04  0.65864270000E+03 0.  1.
    8880022    1    1    2    0    0 -0.10444439799E+04  0.23693157164E+03 -0.19731179153E+04  0.22502412665E+04  0.15294330000E+03 0.  0.
<mgrwt>
<rscale>  0 0.12109362E+04</rscale>
<asrwt>0</asrwt>
<pdfrwt beam="1">  1        2 0.38501996E+00 0.12573027E+04</pdfrwt>
<pdfrwt beam="2">  1       -2 0.17683670E+00 0.12573027E+04</pdfrwt>
<totfact> 0.64103696E-01</totfact>
</mgrwt>
</event>
<event>
 4    5  0.7289609E-008  0.1071407E+04  0.7818608E-02  0.9293579E-01
         -2   -1    0    0    0  501 -0.00000000000E+00  0.00000000000E+00  0.58750921202E+03  0.58750921202E+03  0.25500000000E-02 0.  1.
          2   -1    0    0  501    0  0.00000000000E+00 -0.00000000000E+00 -0.15867212261E+04  0.15867212261E+04  0.25500000000E-02 0. -1.
    8880023    1    1    2    0    0  0.83915259446E+03 -0.99630046745E+02 -0.58649032342E+03  0.12214271688E+04  0.65864270000E+03 0.  0.
    8880022    1    1    2    0    0 -0.83915259446E+03  0.99630046745E+02 -0.41272169063E+03  0.95280326927E+03  0.15294330000E+03 0.  1.
<mgrwt>
<rscale>  0 0.10137615E+04</rscale>
<asrwt>0</asrwt>
<pdfrwt beam="1">  1        2 0.24411096E+00 0.10714072E+04</pdfrwt>
<pdfrwt beam="2">  1       -2 0.90386033E-01 0.10714072E+04</pdfrwt>
<totfact> 0.11752863E+01</totfact>
</mgrwt>
</event>
<event>
 4    5  0.7289609E-008  0.7294205E+03  0.7818608E-02  0.9891911E-01
          2   -1    0    0  501    0  0.00000000000E+00  0.00000000000E+00  0.14109439350E+04  0.14109439351E+04  0.25500000000E-02 0. -1.
         -2   -1    0    0    0  501 -0.00000000000E+00 -0.00000000000E+00 -0.54495044795E+03  0.54495044795E+03  0.25500000000E-02 0.  1.
    8880023    1    1    2    0    0  0.16700114336E+03 -0.26524458480E+03 -0.26212926654E+03  0.77509098194E+03  0.65864270000E+03 0.  1.
    8880022    1    1    2    0    0 -0.16700114336E+03  0.26524458480E+03  0.11281227536E+04  0.11808034011E+04  0.15294330000E+03 0.  0.
<mgrwt>
<rscale>  0 0.60654932E+03</rscale>
<asrwt>0</asrwt>
<pdfrwt beam="1">  1        2 0.21706829E+00 0.72942051E+03</pdfrwt>
<pdfrwt beam="2">  1       -2 0.83838532E-01 0.72942051E+03</pdfrwt>
<totfact> 0.18177707E+01</totfact>
</mgrwt>
</event>
<event>
 4    5  0.7289609E-008  0.1212165E+04  0.7818608E-02  0.9145387E-01
          2   -1    0    0  501    0  0.00000000000E+00  0.00000000000E+00  0.14505184475E+04  0.14505184475E+04  0.25500000000E-02 0. -1.
         -2   -1    0    0    0  501 -0.00000000000E+00 -0.00000000000E+00 -0.12147946290E+04  0.12147946290E+04  0.25500000000E-02 0.  1.
    8880023    1    1    2    0    0  0.64940794697E+03  0.78345516273E+03  0.83739292703E+03  0.14732853743E+04  0.65864270000E+03 0.  0.
    8880022    1    1    2    0    0 -0.64940794697E+03 -0.78345516273E+03 -0.60166910856E+03  0.11920277022E+04  0.15294330000E+03 0.  0.
<mgrwt>
<rscale>  0 0.11635346E+04</rscale>
<asrwt>0</asrwt>
<pdfrwt beam="1">  1        2 0.22315668E+00 0.12121645E+04</pdfrwt>
<pdfrwt beam="2">  1       -2 0.18689148E+00 0.12121645E+04</pdfrwt>
<totfact> 0.21345386E+00</totfact>
</mgrwt>
</event>
<event>
 4    5  0.7289609E-008  0.1150291E+04  0.7818608E-02  0.9207027E-01
         -2   -1    0    0    0  501 -0.00000000000E+00  0.00000000000E+00  0.11886420856E+04  0.11886420856E+04  0.25500000000E-02 0.  1.
          2   -1    0    0  501    0  0.00000000000E+00 -0.00000000000E+00 -0.13227858659E+04  0.13227858659E+04  0.25500000000E-02 0. -1.
    8880023    1    1    2    0    0  0.21027098422E+03  0.91931729507E+03  0.60853256910E+03  0.13013378769E+04  0.65864270000E+03 0.  0.
    8880022    1    1    2    0    0 -0.21027098422E+03 -0.91931729507E+03 -0.74267634936E+03  0.12100900746E+04  0.15294330000E+03 0.  0.
<mgrwt>
<rscale>  0 0.10981196E+04</rscale>
<asrwt>0</asrwt>
<pdfrwt beam="1">  1        2 0.20350552E+00 0.11502906E+04</pdfrwt>
<pdfrwt beam="2">  1       -2 0.18286801E+00 0.11502906E+04</pdfrwt>
<totfact> 0.27103597E+00</totfact>
</mgrwt>
</event>
<event>
 4    5  0.7289609E-008  0.7880767E+03  0.7818608E-02  0.9737196E-01
         -2   -1    0    0    0  501 -0.00000000000E+00  0.00000000000E+00  0.38595521628E+03  0.38595521629E+03  0.25500000000E-02 0.  1.
          2   -1    0    0  501    0  0.00000000000E+00 -0.00000000000E+00 -0.16637609823E+04  0.16637609823E+04  0.25500000000E-02 0. -1.
    8880023    1    1    2    0    0  0.42024590677E+03 -0.10318917904E+03 -0.11095720814E+03  0.79584944376E+03  0.65864270000E+03 0.  1.
    8880022    1    1    2    0    0 -0.42024590677E+03  0.10318917904E+03 -0.11668485579E+04  0.12538667548E+04  0.15294330000E+03 0.  0.
<mgrwt>
<rscale>  0 0.68844710E+03</rscale>
<asrwt>0</asrwt>
<pdfrwt beam="1">  1        2 0.25596322E+00 0.78807667E+03</pdfrwt>
<pdfrwt beam="2">  1       -2 0.59377726E-01 0.78807667E+03</pdfrwt>
<totfact> 0.27791843E+01</totfact>
</mgrwt>
</event>
<event>
 4    5  0.7289609E-008  0.9090472E+03  0.7818608E-02  0.9511661E-01
          2   -1    0    0  501    0  0.00000000000E+00  0.00000000000E+00  0.26262263801E+04  0.26262263801E+04  0.25500000000E-02 0. -1.
         -2   -1    0    0    0  501 -0.00000000000E+00 -0.00000000000E+00 -0.65855795216E+03  0.65855795216E+03  0.25500000000E-02 0.  1.
    8880023    1    1    2    0    0  0.15220850720E+03 -0.60777398890E+03 -0.27619098745E+03  0.95007805946E+03  0.65864270000E+03 0.  1.
    8880022    1    1    2    0    0 -0.15220850720E+03  0.60777398890E+03  0.22438594154E+04  0.23347062728E+04  0.15294330000E+03 0.  0.
<mgrwt>
<rscale>  0 0.83429522E+03</rscale>
<asrwt>0</asrwt>
<pdfrwt beam="1">  1        2 0.40403482E+00 0.90904723E+03</pdfrwt>
<pdfrwt beam="2">  1       -2 0.10131661E+00 0.90904723E+03</pdfrwt>
<totfact> 0.24106595E+00</totfact>
</mgrwt>
</event>
<event>
 4    5  0.7289609E-008  0.6848865E+03  0.7818608E-02  0.1006684E+00
         -2   -1    0    0    0  501 -0.00000000000E+00  0.00000000000E+00  0.36920153881E+03  0.36920153882E+03  0.25500000000E-02 0.  1.
          2   -1    0    0  501    0  0.00000000000E+00 -0.00000000000E+00 -0.27099259845E+04  0.27099259845E+04  0.25500000000E-02 0. -1.
    8880023    1    1    2    0    0  0.13303702857E+03  0.13251594031E+03  0.40060104702E+02  0.68605709941E+03  0.65864270000E+03 0.  0.
    8880022    1    1    2    0    0 -0.13303702857E+03 -0.13251594031E+03 -0.23807845504E+04  0.23930704239E+04  0.15294330000E+03 0. -1.
<mgrwt>
<rscale>  0 0.52813916E+03</rscale>
<asrwt>0</asrwt>
<pdfrwt beam="1">  1        2 0.41691168E+00 0.68488651E+03</pdfrwt>
<pdfrwt beam="2">  1       -2 0.56800239E-01 0.68488651E+03</pdfrwt>
<totfact> 0.81328970E+00</totfact>
</mgrwt>
</event>
<event>
 4    5  0.7289609E-008  0.6764287E+03  0.7818608E-02  0.1011420E+00
         -2   -1    0    0    0  501 -0.00000000000E+00  0.00000000000E+00  0.15639639409E+03  0.15639639411E+03  0.25500000000E-02 0.  1.
          2   -1    0    0  501    0  0.00000000000E+00 -0.00000000000E+00 -0.15495061230E+04  0.15495061230E+04  0.25500000000E-02 0. -1.
    8880023    1    1    2    0    0 -0.17023498746E+02  0.15315263814E+03 -0.67466077652E+03  0.95536532265E+03  0.65864270000E+03 0. -1.
    8880022    1    1    2    0    0  0.17023498746E+02 -0.15315263814E+03 -0.71844895239E+03  0.75053719447E+03  0.15294330000E+03 0.  0.
<mgrwt>
<rscale>  0 0.50913969E+03</rscale>
<asrwt>0</asrwt>
<pdfrwt beam="1">  1        2 0.23838555E+00 0.67642866E+03</pdfrwt>
<pdfrwt beam="2">  1       -2 0.24060985E-01 0.67642866E+03</pdfrwt>
<totfact> 0.18686255E+02</totfact>
</mgrwt>
</event>
<event>
 4    5  0.7289609E-008  0.7417489E+03  0.7818608E-02  0.9854882E-01
         -2   -1    0    0    0  501 -0.00000000000E+00  0.00000000000E+00  0.46240310877E+03  0.46240310878E+03  0.25500000000E-02 0.  1.
          2   -1    0    0  501    0  0.00000000000E+00 -0.00000000000E+00 -0.20467321345E+04  0.20467321345E+04  0.25500000000E-02 0. -1.
    8880023    1    1    2    0    0  0.25961400813E+03 -0.22131829214E+03  0.13126808898E+03  0.75327467573E+03  0.65864270000E+03 0.  1.
    8880022    1    1    2    0    0 -0.25961400813E+03  0.22131829214E+03 -0.17155971147E+04  0.17558605676E+04  0.15294330000E+03 0.  0.
<mgrwt>
<rscale>  0 0.62498637E+03</rscale>
<asrwt>0</asrwt>
<pdfrwt beam="1">  1        2 0.31488186E+00 0.74174890E+03</pdfrwt>
<pdfrwt beam="2">  1       -2 0.71138941E-01 0.74174890E+03</pdfrwt>
<totfact> 0.11715293E+01</totfact>
</mgrwt>
</event>
<event>
 4    5  0.7289609E-008  0.1053415E+04  0.7818608E-02  0.9314788E-01
         -2   -1    0    0    0  501 -0.00000000000E+00  0.00000000000E+00  0.10036702572E+04  0.10036702572E+04  0.25500000000E-02 0.  1.
          2   -1    0    0  501    0  0.00000000000E+00 -0.00000000000E+00 -0.98231880625E+03  0.98231880625E+03  0.25500000000E-02 0. -1.
    8880023    1    1    2    0    0 -0.77888512367E+03  0.26307866493E+03  0.31533160467E+03  0.10995984026E+04  0.65864270000E+03 0.  1.
    8880022    1    1    2    0    0  0.77888512367E+03 -0.26307866493E+03 -0.29398015374E+03  0.88639066084E+03  0.15294330000E+03 0. -1.
<mgrwt>
<rscale>  0 0.99432806E+03</rscale>
<asrwt>0</asrwt>
<pdfrwt beam="1">  1        2 0.15112597E+00 0.10534147E+04</pdfrwt>
<pdfrwt beam="2">  1       -2 0.15441081E+00 0.10534147E+04</pdfrwt>
<totfact> 0.70743513E+00</totfact>
</mgrwt>
</event>
<event>
 4    5  0.7289609E-008  0.7125184E+03  0.7818608E-02  0.9948765E-01
          2   -1    0    0  501    0  0.00000000000E+00  0.00000000000E+00  0.16389432624E+04  0.16389432624E+04  0.25500000000E-02 0. -1.
         -2   -1    0    0    0  501 -0.00000000000E+00 -0.00000000000E+00 -0.24336811853E+03  0.24336811855E+03  0.25500000000E-02 0.  1.
    8880023    1    1    2    0    0 -0.84564908221E+02  0.25830412274E+03  0.35510152122E+03  0.79610271960E+03  0.65864270000E+03 0.  1.
    8880022    1    1    2    0    0  0.84564908221E+02 -0.25830412274E+03  0.10404736226E+04  0.10862086613E+04  0.15294330000E+03 0.  0.
<mgrwt>
<rscale>  0 0.57955014E+03</rscale>
<asrwt>0</asrwt>
<pdfrwt beam="1">  1        2 0.25214511E+00 0.71251839E+03</pdfrwt>
<pdfrwt beam="2">  1       -2 0.37441250E-01 0.71251839E+03</pdfrwt>
<totfact> 0.73198930E+01</totfact>
</mgrwt>
</event>
<event>
 4    5  0.7289609E-008  0.7751166E+03  0.7818608E-02  0.9767436E-01
         -2   -1    0    0    0  501 -0.00000000000E+00  0.00000000000E+00  0.47776339103E+03  0.47776339103E+03  0.25500000000E-02 0.  1.
          2   -1    0    0  501    0  0.00000000000E+00 -0.00000000000E+00 -0.28597382107E+04  0.28597382107E+04  0.25500000000E-02 0. -1.
    8880023    1    1    2    0    0  0.15460237571E+03 -0.37827726722E+03  0.13171036015E+03  0.78622732762E+03  0.65864270000E+03 0.  0.
    8880022    1    1    2    0    0 -0.15460237571E+03  0.37827726722E+03 -0.25136851798E+04  0.25512742741E+04  0.15294330000E+03 0.  0.
<mgrwt>
<rscale>  0 0.67139797E+03</rscale>
<asrwt>0</asrwt>
<pdfrwt beam="1">  1        2 0.43995971E+00 0.77511663E+03</pdfrwt>
<pdfrwt beam="2">  1       -2 0.73502062E-01 0.77511663E+03</pdfrwt>
<totfact> 0.37525774E+00</totfact>
</mgrwt>
</event>
<event>
 4    5  0.7289609E-008  0.6980741E+03  0.7818608E-02  0.1000529E+00
         -2   -1    0    0    0  501 -0.00000000000E+00  0.00000000000E+00  0.27089907553E+03  0.27089907554E+03  0.25500000000E-02 0.  1.
          2   -1    0    0  501    0  0.00000000000E+00 -0.00000000000E+00 -0.18305777531E+04  0.18305777531E+04  0.25500000000E-02 0. -1.
    8880023    1    1    2    0    0 -0.23079660281E+03 -0.15171119599E+02 -0.21782083646E+03  0.73126832134E+03  0.65864270000E+03 0.  1.
    8880022    1    1    2    0    0  0.23079660281E+03  0.15171119599E+02 -0.13418578411E+04  0.13702085073E+04  0.15294330000E+03 0.  0.
<mgrwt>
<rscale>  0 0.55419051E+03</rscale>
<asrwt>0</asrwt>
<pdfrwt beam="1">  1        2 0.28162734E+00 0.69807409E+03</pdfrwt>
<pdfrwt beam="2">  1       -2 0.41676782E-01 0.69807409E+03</pdfrwt>
<totfact> 0.46794448E+01</totfact>
</mgrwt>
</event>
<event>
 4    5  0.7289609E-008  0.8898001E+03  0.7818608E-02  0.9542608E-01
         -2   -1    0    0    0  501 -0.00000000000E+00  0.00000000000E+00  0.53257347958E+03  0.53257347959E+03  0.25500000000E-02 0.  1.
          2   -1    0    0  501    0  0.00000000000E+00 -0.00000000000E+00 -0.14023231774E+04  0.14023231774E+04  0.25500000000E-02 0. -1.
    8880023    1    1    2    0    0 -0.59803155313E+03  0.17097151030E+02 -0.27112127192E+02  0.89021307832E+03  0.65864270000E+03 0.  1.
    8880022    1    1    2    0    0  0.59803155313E+03 -0.17097151030E+02 -0.84263757065E+03  0.10446835787E+04  0.15294330000E+03 0.  0.
<mgrwt>
<rscale>  0 0.81214085E+03</rscale>
<asrwt>0</asrwt>
<pdfrwt beam="1">  1        2 0.21574203E+00 0.88980012E+03</pdfrwt>
<pdfrwt beam="2">  1       -2 0.81934382E-01 0.88980012E+03</pdfrwt>
<totfact> 0.19022748E+01</totfact>
</mgrwt>
</event>
<event>
 4    5  0.7289609E-008  0.8404027E+03  0.7818608E-02  0.9629421E-01
         -2   -1    0    0    0  501 -0.00000000000E+00  0.00000000000E+00  0.82815662228E+03  0.82815662228E+03  0.25500000000E-02 0.  1.
          2   -1    0    0  501    0  0.00000000000E+00 -0.00000000000E+00 -0.19157145159E+04  0.19157145159E+04  0.25500000000E-02 0. -1.
    8880023    1    1    2    0    0  0.38347832660E+03  0.35413397646E+03  0.55930749830E+03  0.10095056137E+04  0.65864270000E+03 0.  0.
    8880022    1    1    2    0    0 -0.38347832660E+03 -0.35413397646E+03 -0.16468653920E+04  0.17343655245E+04  0.15294330000E+03 0.  0.
<mgrwt>
<rscale>  0 0.75379113E+03</rscale>
<asrwt>0</asrwt>
<pdfrwt beam="1">  1        2 0.29472531E+00 0.84040270E+03</pdfrwt>
<pdfrwt beam="2">  1       -2 0.12740871E+00 0.84040270E+03</pdfrwt>
<totfact> 0.34680710E+00</totfact>
</mgrwt>
</event>
<event>
 4    5  0.7289609E-008  0.1043998E+04  0.7818608E-02  0.9326132E-01
          2   -1    0    0  501    0  0.00000000000E+00  0.00000000000E+00  0.21980424610E+04  0.21980424610E+04  0.25500000000E-02 0. -1.
         -2   -1    0    0    0  501 -0.00000000000E+00 -0.00000000000E+00 -0.55303620632E+03  0.55303620632E+03  0.25500000000E-02 0.  1.
    8880023    1    1    2    0    0  0.62451833720E+03  0.51584734352E+03  0.16495128406E+03  0.10569488009E+04  0.65864270000E+03 0.  1.
    8880022    1    1    2    0    0 -0.62451833720E+03 -0.51584734352E+03  0.14800549707E+04  0.16941298665E+04  0.15294330000E+03 0.  0.
<mgrwt>
<rscale>  0 0.98412326E+03</rscale>
<asrwt>0</asrwt>
<pdfrwt beam="1">  1        2 0.33816039E+00 0.10439980E+04</pdfrwt>
<pdfrwt beam="2">  1       -2 0.85082491E-01 0.10439980E+04</pdfrwt>
<totfact> 0.62193221E+00</totfact>
</mgrwt>
</event>
<event>
 4    5  0.7289609E-008  0.8025708E+03  0.7818608E-02  0.9705265E-01
          2   -1    0    0  501    0  0.00000000000E+00  0.00000000000E+00  0.31805359778E+04  0.31805359778E+04  0.25500000000E-02 0. -1.
         -2   -1    0    0    0  501 -0.00000000000E+00 -0.00000000000E+00 -0.33350373302E+03  0.33350373303E+03  0.25500000000E-02 0.  1.
    8880023    1    1    2    0    0  0.44274915943E+03 -0.11951109874E+03  0.20526446113E+03  0.82840414422E+03  0.65864270000E+03 0.  1.
    8880022    1    1    2    0    0 -0.44274915943E+03  0.11951109874E+03  0.26417677836E+04  0.26856355666E+04  0.15294330000E+03 0.  0.
<mgrwt>
<rscale>  0 0.70704195E+03</rscale>
<asrwt>0</asrwt>
<pdfrwt beam="1">  1        2 0.48931322E+00 0.80257082E+03</pdfrwt>
<pdfrwt beam="2">  1       -2 0.51308267E-01 0.80257082E+03</pdfrwt>
<totfact> 0.50871890E+00</totfact>
</mgrwt>
</event>
<event>
 4    5  0.7289609E-008  0.1287033E+04  0.7818608E-02  0.9076839E-01
         -2   -1    0    0    0  501 -0.00000000000E+00  0.00000000000E+00  0.27518532295E+04  0.27518532295E+04  0.25500000000E-02 0.  1.
          2   -1    0    0  501    0  0.00000000000E+00 -0.00000000000E+00 -0.64453936193E+03  0.64453936193E+03  0.25500000000E-02 0. -1.
    8880023    1    1    2    0    0  0.37380085723E+02  0.11051000402E+04  0.18452967623E+04  0.22497941499E+04  0.65864270000E+03 0.  0.
    8880022    1    1    2    0    0 -0.37380085723E+02 -0.11051000402E+04  0.26201710528E+03  0.11465984415E+04  0.15294330000E+03 0.  0.
<mgrwt>
<rscale>  0 0.12420341E+04</rscale>
<asrwt>0</asrwt>
<pdfrwt beam="1">  1        2 0.99159903E-01 0.12870329E+04</pdfrwt>
<pdfrwt beam="2">  1       -2 0.42336203E+00 0.12870329E+04</pdfrwt>
<totfact> 0.23210220E-01</totfact>
</mgrwt>
</event>
<event>
 4    5  0.7289609E-008  0.7950276E+03  0.7818608E-02  0.9721652E-01
         -2   -1    0    0    0  501 -0.00000000000E+00  0.00000000000E+00  0.34190152578E+03  0.34190152579E+03  0.25500000000E-02 0.  1.
          2   -1    0    0  501    0  0.00000000000E+00 -0.00000000000E+00 -0.24992193172E+04  0.24992193172E+04  0.25500000000E-02 0. -1.
    8880023    1    1    2    0    0 -0.40839286810E+03  0.17740882474E+03 -0.18886844295E+03  0.81715367026E+03  0.65864270000E+03 0.  1.
    8880022    1    1    2    0    0  0.40839286810E+03 -0.17740882474E+03 -0.19684493485E+04  0.20239671727E+04  0.15294330000E+03 0.  0.
<mgrwt>
<rscale>  0 0.69742125E+03</rscale>
<asrwt>0</asrwt>
<pdfrwt beam="1">  1        2 0.38449527E+00 0.79502757E+03</pdfrwt>
<pdfrwt beam="2">  1       -2 0.52600236E-01 0.79502757E+03</pdfrwt>
<totfact> 0.12364276E+01</totfact>
</mgrwt>
</event>
<event>
 4    5  0.7289609E-008  0.1239353E+04  0.7818608E-02  0.9119786E-01
          2   -1    0    0  501    0  0.00000000000E+00  0.00000000000E+00  0.17535476479E+04  0.17535476479E+04  0.25500000000E-02 0. -1.
         -2   -1    0    0    0  501 -0.00000000000E+00 -0.00000000000E+00 -0.90025780401E+03  0.90025780401E+03  0.25500000000E-02 0.  1.
    8880023    1    1    2    0    0 -0.61157163982E+03 -0.85332702665E+03 -0.78423514796E+02  0.12418322507E+04  0.65864270000E+03 0.  0.
    8880022    1    1    2    0    0  0.61157163982E+03  0.85332702665E+03  0.93171335870E+03  0.14119732012E+04  0.15294330000E+03 0.  0.
<mgrwt>
<rscale>  0 0.11921156E+04</rscale>
<asrwt>0</asrwt>
<pdfrwt beam="1">  1        2 0.26977656E+00 0.12393535E+04</pdfrwt>
<pdfrwt beam="2">  1       -2 0.13850120E+00 0.12393535E+04</pdfrwt>
<totfact> 0.32786527E+00</totfact>
</mgrwt>
</event>
<event>
 4    5  0.7289609E-008  0.1035255E+04  0.7818608E-02  0.9336820E-01
          2   -1    0    0  501    0  0.00000000000E+00  0.00000000000E+00  0.14522465011E+04  0.14522465011E+04  0.25500000000E-02 0. -1.
         -2   -1    0    0    0  501 -0.00000000000E+00 -0.00000000000E+00 -0.11341837751E+04  0.11341837751E+04  0.25500000000E-02 0.  1.
    8880023    1    1    2    0    0  0.23698267495E+03 -0.76274630563E+03 -0.72495571717E+03  0.12638487699E+04  0.65864270000E+03 0.  0.
    8880022    1    1    2    0    0 -0.23698267495E+03  0.76274630563E+03  0.10430184432E+04  0.13225815063E+04  0.15294330000E+03 0.  0.
<mgrwt>
<rscale>  0 0.97462633E+03</rscale>
<asrwt>0</asrwt>
<pdfrwt beam="1">  1        2 0.22342254E+00 0.10352550E+04</pdfrwt>
<pdfrwt beam="2">  1       -2 0.17448981E+00 0.10352550E+04</pdfrwt>
<totfact> 0.26447718E+00</totfact>
</mgrwt>
</event>
<event>
 4    5  0.7289609E-008  0.1289001E+04  0.7818608E-02  0.9075117E-01
          2   -1    0    0  501    0  0.00000000000E+00  0.00000000000E+00  0.16945156226E+04  0.16945156227E+04  0.25500000000E-02 0. -1.
         -2   -1    0    0    0  501 -0.00000000000E+00 -0.00000000000E+00 -0.10984452292E+04  0.10984452292E+04  0.25500000000E-02 0.  1.
    8880023    1    1    2    0    0 -0.89739078286E+03  0.64992531036E+03 -0.34148736681E+03  0.13334680177E+04  0.65864270000E+03 0.  0.
    8880022    1    1    2    0    0  0.89739078286E+03 -0.64992531036E+03  0.93755776025E+03  0.14594928342E+04  0.15294330000E+03 0.  0.
<mgrwt>
<rscale>  0 0.12440895E+04</rscale>
<asrwt>0</asrwt>
<pdfrwt beam="1">  1        2 0.26069471E+00 0.12890009E+04</pdfrwt>
<pdfrwt beam="2">  1       -2 0.16899157E+00 0.12890009E+04</pdfrwt>
<totfact> 0.20588238E+00</totfact>
</mgrwt>
</event>
<event>
 4    5  0.7289609E-008  0.8432246E+03  0.7818608E-02  0.9624130E-01
         -2   -1    0    0    0  501 -0.00000000000E+00  0.00000000000E+00  0.70088776284E+03  0.70088776285E+03  0.25500000000E-02 0.  1.
          2   -1    0    0  501    0  0.00000000000E+00 -0.00000000000E+00 -0.23039197089E+04  0.23039197089E+04  0.25500000000E-02 0. -1.
    8880023    1    1    2    0    0  0.41183407053E+03  0.32803988109E+03  0.39626539319E+03  0.93169412005E+03  0.65864270000E+03 0.  0.
    8880022    1    1    2    0    0 -0.41183407053E+03 -0.32803988109E+03 -0.19992973393E+04  0.20731133517E+04  0.15294330000E+03 0.  0.
<mgrwt>
<rscale>  0 0.75719495E+03</rscale>
<asrwt>0</asrwt>
<pdfrwt beam="1">  1        2 0.35444918E+00 0.84322457E+03</pdfrwt>
<pdfrwt beam="2">  1       -2 0.10782889E+00 0.84322457E+03</pdfrwt>
<totfact> 0.31967602E+00</totfact>
</mgrwt>
</event>
<event>
 4    5  0.7289609E-008  0.1004078E+04  0.7818608E-02  0.9376241E-01
          2   -1    0    0  501    0  0.00000000000E+00  0.00000000000E+00  0.14144071269E+04  0.14144071269E+04  0.25500000000E-02 0. -1.
         -2   -1    0    0    0  501 -0.00000000000E+00 -0.00000000000E+00 -0.93699821099E+03  0.93699821099E+03  0.25500000000E-02 0.  1.
    8880023    1    1    2    0    0  0.14551697809E+03 -0.74376591492E+03 -0.48650545754E+03  0.11157332538E+04  0.65864270000E+03 0.  0.
    8880022    1    1    2    0    0 -0.14551697809E+03  0.74376591492E+03  0.96391437342E+03  0.12356720841E+04  0.15294330000E+03 0.  0.
<mgrwt>
<rscale>  0 0.94056981E+03</rscale>
<asrwt>0</asrwt>
<pdfrwt beam="1">  1        2 0.21760110E+00 0.10040783E+04</pdfrwt>
<pdfrwt beam="2">  1       -2 0.14415357E+00 0.10040783E+04</pdfrwt>
<totfact> 0.46863109E+00</totfact>
</mgrwt>
</event>
<event>
 4    5  0.7289609E-008  0.6871283E+03  0.7818608E-02  0.1005548E+00
         -2   -1    0    0    0  501 -0.00000000000E+00  0.00000000000E+00  0.88013922787E+03  0.88013922787E+03  0.25500000000E-02 0.  1.
          2   -1    0    0  501    0  0.00000000000E+00 -0.00000000000E+00 -0.21917948940E+04  0.21917948940E+04  0.25500000000E-02 0. -1.
    8880023    1    1    2    0    0  0.12246704499E+03 -0.15276419193E+03  0.73737130584E+03  0.10078996599E+04  0.65864270000E+03 0.  1.
    8880022    1    1    2    0    0 -0.12246704499E+03  0.15276419193E+03 -0.20490269720E+04  0.20640344620E+04  0.15294330000E+03 0.  0.
<mgrwt>
<rscale>  0 0.53282860E+03</rscale>
<asrwt>0</asrwt>
<pdfrwt beam="1">  1        2 0.33719921E+00 0.68712829E+03</pdfrwt>
<pdfrwt beam="2">  1       -2 0.13540604E+00 0.68712829E+03</pdfrwt>
<totfact> 0.21561575E+00</totfact>
</mgrwt>
</event>
<event>
 4    5  0.7289609E-008  0.6942704E+03  0.7818608E-02  0.1002185E+00
         -2   -1    0    0    0  501 -0.00000000000E+00  0.00000000000E+00  0.92599636883E+03  0.92599636883E+03  0.25500000000E-02 0.  1.
          2   -1    0    0  501    0  0.00000000000E+00 -0.00000000000E+00 -0.72258190766E+03  0.72258190767E+03  0.25500000000E-02 0. -1.
    8880023    1    1    2    0    0 -0.16399690374E+03  0.14596665499E+03  0.76100244758E+03  0.10301146442E+04  0.65864270000E+03 0.  0.
    8880022    1    1    2    0    0  0.16399690374E+03 -0.14596665499E+03 -0.55758798642E+03  0.61846363225E+03  0.15294330000E+03 0.  0.
<mgrwt>
<rscale>  0 0.54702258E+03</rscale>
<asrwt>0</asrwt>
<pdfrwt beam="1">  1        2 0.11116645E+00 0.69427045E+03</pdfrwt>
<pdfrwt beam="2">  1       -2 0.14246098E+00 0.69427045E+03</pdfrwt>
<totfact> 0.13788128E+01</totfact>
</mgrwt>
</event>
<event>
 4    5  0.7289609E-008  0.1461173E+04  0.7818608E-02  0.8937551E-01
         -2   -1    0    0    0  501 -0.00000000000E+00  0.00000000000E+00  0.12129819606E+04  0.12129819606E+04  0.25500000000E-02 0.  1.
          2   -1    0    0  501    0  0.00000000000E+00 -0.00000000000E+00 -0.17273885785E+04  0.17273885785E+04  0.25500000000E-02 0. -1.
    8880023    1    1    2    0    0  0.83571953105E+03 -0.10013933951E+04  0.14958445042E+03  0.14688095793E+04  0.65864270000E+03 0.  0.
    8880022    1    1    2    0    0 -0.83571953105E+03  0.10013933951E+04 -0.66399106832E+03  0.14715609597E+04  0.15294330000E+03 0.  0.
<mgrwt>
<rscale>  0 0.14226972E+04</rscale>
<asrwt>0</asrwt>
<pdfrwt beam="1">  1        2 0.26575209E+00 0.14611728E+04</pdfrwt>
<pdfrwt beam="2">  1       -2 0.18661261E+00 0.14611728E+04</pdfrwt>
<totfact> 0.14617948E+00</totfact>
</mgrwt>
</event>
<event>
 4    5  0.7289609E-008  0.7961383E+03  0.7818608E-02  0.9719209E-01
          2   -1    0    0  501    0  0.00000000000E+00  0.00000000000E+00  0.41344179592E+03  0.41344179592E+03  0.25500000000E-02 0. -1.
         -2   -1    0    0    0  501 -0.00000000000E+00 -0.00000000000E+00 -0.14958079277E+04  0.14958079277E+04  0.25500000000E-02 0.  1.
    8880023    1    1    2    0    0  0.22528939919E+03  0.38635570235E+03 -0.11830363995E+04  0.14259773388E+04  0.65864270000E+03 0.  0.
    8880022    1    1    2    0    0 -0.22528939919E+03 -0.38635570235E+03  0.10067026766E+03  0.48327238482E+03  0.15294330000E+03 0.  0.
<mgrwt>
<rscale>  0 0.69884538E+03</rscale>
<asrwt>0</asrwt>
<pdfrwt beam="1">  1        2 0.63606431E-01 0.79613833E+03</pdfrwt>
<pdfrwt beam="2">  1       -2 0.23012429E+00 0.79613833E+03</pdfrwt>
<totfact> 0.66606452E+00</totfact>
</mgrwt>
</event>
<event>
 4    5  0.7289609E-008  0.9062169E+03  0.7818608E-02  0.9516124E-01
          2   -1    0    0  501    0  0.00000000000E+00  0.00000000000E+00  0.12990304052E+04  0.12990304052E+04  0.25500000000E-02 0. -1.
         -2   -1    0    0    0  501 -0.00000000000E+00 -0.00000000000E+00 -0.14895848944E+04  0.14895848944E+04  0.25500000000E-02 0.  1.
    8880023    1    1    2    0    0 -0.57888424564E+03  0.22871796046E+03 -0.12538674788E+04  0.15470658473E+04  0.65864270000E+03 0.  0.
    8880022    1    1    2    0    0  0.57888424564E+03 -0.22871796046E+03  0.10633129897E+04  0.12415494522E+04  0.15294330000E+03 0.  0.
<mgrwt>
<rscale>  0 0.83105414E+03</rscale>
<asrwt>0</asrwt>
<pdfrwt beam="1">  1        2 0.19985083E+00 0.90621691E+03</pdfrwt>
<pdfrwt beam="2">  1       -2 0.22916691E+00 0.90621691E+03</pdfrwt>
<totfact> 0.14438912E+00</totfact>
</mgrwt>
</event>
<event>
 4    5  0.7289609E-008  0.8197522E+03  0.7818608E-02  0.9669610E-01
          2   -1    0    0  501    0  0.00000000000E+00  0.00000000000E+00  0.14765059392E+04  0.14765059392E+04  0.25500000000E-02 0. -1.
         -2   -1    0    0    0  501 -0.00000000000E+00 -0.00000000000E+00 -0.32774150592E+03  0.32774150593E+03  0.25500000000E-02 0.  1.
    8880023    1    1    2    0    0  0.48650563707E+03  0.38675584530E+02  0.95188888428E+03  0.12562190056E+04  0.65864270000E+03 0.  0.
    8880022    1    1    2    0    0 -0.48650563707E+03 -0.38675584530E+02  0.19687554902E+03  0.54802843955E+03  0.15294330000E+03 0.  0.
<mgrwt>
<rscale>  0 0.72855363E+03</rscale>
<asrwt>0</asrwt>
<pdfrwt beam="1">  1        2 0.22715476E+00 0.81975224E+03</pdfrwt>
<pdfrwt beam="2">  1       -2 0.50421770E-01 0.81975224E+03</pdfrwt>
<totfact> 0.49385592E+01</totfact>
</mgrwt>
</event>
<event>
 4    5  0.7289609E-008  0.7029569E+03  0.7818608E-02  0.9985149E-01
          2   -1    0    0  501    0  0.00000000000E+00  0.00000000000E+00  0.10245345553E+04  0.10245345553E+04  0.25500000000E-02 0. -1.
         -2   -1    0    0    0  501 -0.00000000000E+00 -0.00000000000E+00 -0.51037342097E+03  0.51037342097E+03  0.25500000000E-02 0.  1.
    8880023    1    1    2    0    0  0.16673209306E+03 -0.18038447912E+03 -0.22745518799E+03  0.73883977963E+03  0.65864270000E+03 0.  0.
    8880022    1    1    2    0    0 -0.16673209306E+03  0.18038447912E+03  0.74161632235E+03  0.79606819667E+03  0.15294330000E+03 0. -1.
<mgrwt>
<rscale>  0 0.56306239E+03</rscale>
<asrwt>0</asrwt>
<pdfrwt beam="1">  1        2 0.15762070E+00 0.70295687E+03</pdfrwt>
<pdfrwt beam="2">  1       -2 0.78518988E-01 0.70295687E+03</pdfrwt>
<totfact> 0.35752959E+01</totfact>
</mgrwt>
</event>
<event>
 4    5  0.7289609E-008  0.7711676E+03  0.7818608E-02  0.9777009E-01
         -2   -1    0    0    0  501 -0.00000000000E+00  0.00000000000E+00  0.75145890827E+03  0.75145890827E+03  0.25500000000E-02 0.  1.
          2   -1    0    0  501    0  0.00000000000E+00 -0.00000000000E+00 -0.81550547685E+03  0.81550547685E+03  0.25500000000E-02 0. -1.
    8880023    1    1    2    0    0 -0.37652909344E+03  0.13825736880E+03  0.45344116852E+03  0.89459955165E+03  0.65864270000E+03 0.  0.
    8880022    1    1    2    0    0  0.37652909344E+03 -0.13825736880E+03 -0.51748773710E+03  0.67236483348E+03  0.15294330000E+03 0.  0.
<mgrwt>
<rscale>  0 0.66611103E+03</rscale>
<asrwt>0</asrwt>
<pdfrwt beam="1">  1        2 0.12546238E+00 0.77116760E+03</pdfrwt>
<pdfrwt beam="2">  1       -2 0.11560906E+00 0.77116760E+03</pdfrwt>
<totfact> 0.19788909E+01</totfact>
</mgrwt>
</event>
<event>
 4    5  0.7289609E-008  0.9585977E+03  0.7818608E-02  0.9437850E-01
          2   -1    0    0  501    0  0.00000000000E+00  0.00000000000E+00  0.12347615269E+04  0.12347615269E+04  0.25500000000E-02 0. -1.
         -2   -1    0    0    0  501 -0.00000000000E+00 -0.00000000000E+00 -0.12500565332E+04  0.12500565332E+04  0.25500000000E-02 0.  1.
    8880023    1    1    2    0    0  0.18534125494E+03  0.67137759426E+03 -0.92285461907E+03  0.13306277124E+04  0.65864270000E+03 0.  1.
    8880022    1    1    2    0    0 -0.18534125494E+03 -0.67137759426E+03  0.90755961283E+03  0.11541903477E+04  0.15294330000E+03 0.  0.
<mgrwt>
<rscale>  0 0.89025141E+03</rscale>
<asrwt>0</asrwt>
<pdfrwt beam="1">  1        2 0.18996331E+00 0.95859765E+03</pdfrwt>
<pdfrwt beam="2">  1       -2 0.19231639E+00 0.95859765E+03</pdfrwt>
<totfact> 0.26926059E+00</totfact>
</mgrwt>
</event>
<event>
 4    5  0.7596300E-008  0.1014542E+04  0.7818608E-02  0.9362775E-01
          2   -1    0    0  501    0  0.00000000000E+00  0.00000000000E+00  0.25676006237E+04  0.25676006237E+04  0.25500000000E-02 0. -1.
         -2   -1    0    0    0  501 -0.00000000000E+00 -0.00000000000E+00 -0.12802755315E+04  0.12802755315E+04  0.25500000000E-02 0.  1.
    8880023    1    1    2    0    0 -0.16540969530E+03  0.75374077669E+03 -0.10027386468E+04  0.14264573340E+04  0.65864270000E+03 0.  1.
    8880022    1    1    2    0    0  0.16540969530E+03 -0.75374077669E+03  0.22900637390E+04  0.24214188212E+04  0.15294330000E+03 0.  0.
<mgrwt>
<rscale>  0 0.95203546E+03</rscale>
<asrwt>0</asrwt>
<pdfrwt beam="1">  1        2 0.39501548E+00 0.10145421E+04</pdfrwt>
<pdfrwt beam="2">  1       -2 0.19696547E+00 0.10145421E+04</pdfrwt>
<totfact> 0.44514387E-01</totfact>
</mgrwt>
</event>
<event>
 4    5  0.7289609E-008  0.8476301E+03  0.7818608E-02  0.9615958E-01
         -2   -1    0    0    0  501 -0.00000000000E+00  0.00000000000E+00  0.21620367265E+03  0.21620367267E+03  0.25500000000E-02 0.  1.
          2   -1    0    0  501    0  0.00000000000E+00 -0.00000000000E+00 -0.23000074274E+04  0.23000074274E+04  0.25500000000E-02 0. -1.
    8880023    1    1    2    0    0 -0.42913751179E+03  0.31702918486E+03 -0.13852107571E+04  0.16239721537E+04  0.65864270000E+03 0. -1.
    8880022    1    1    2    0    0  0.42913751179E+03 -0.31702918486E+03 -0.69859299764E+03  0.89223894638E+03  0.15294330000E+03 0.  0.
<mgrwt>
<rscale>  0 0.76248947E+03</rscale>
<asrwt>0</asrwt>
<pdfrwt beam="1">  1        2 0.35384728E+00 0.84763006E+03</pdfrwt>
<pdfrwt beam="2">  1       -2 0.33262105E-01 0.84763006E+03</pdfrwt>
<totfact> 0.39215711E+01</totfact>
</mgrwt>
</event>
<event>
 4    5  0.7289609E-008  0.1468102E+04  0.7818608E-02  0.8932495E-01
         -2   -1    0    0    0  501 -0.00000000000E+00  0.00000000000E+00  0.21702112182E+04  0.21702112182E+04  0.25500000000E-02 0.  1.
          2   -1    0    0  501    0  0.00000000000E+00 -0.00000000000E+00 -0.11415313936E+04  0.11415313936E+04  0.25500000000E-02 0. -1.
    8880023    1    1    2    0    0 -0.12849946426E+04 -0.26514661148E+03  0.13026201332E+04  0.19626877935E+04  0.65864270000E+03 0.  0.
    8880022    1    1    2    0    0  0.12849946426E+04  0.26514661148E+03 -0.27394030861E+03  0.13490548183E+04  0.15294330000E+03 0.  0.
<mgrwt>
<rscale>  0 0.14298442E+04</rscale>
<asrwt>0</asrwt>
<pdfrwt beam="1">  1        2 0.17562022E+00 0.14681022E+04</pdfrwt>
<pdfrwt beam="2">  1       -2 0.33387864E+00 0.14681022E+04</pdfrwt>
<totfact> 0.38306073E-01</totfact>
</mgrwt>
</event>
<event>
 4    5  0.7289609E-008  0.9052984E+03  0.7818608E-02  0.9517579E-01
          2   -1    0    0  501    0  0.00000000000E+00  0.00000000000E+00  0.21218463735E+04  0.21218463735E+04  0.25500000000E-02 0. -1.
         -2   -1    0    0    0  501 -0.00000000000E+00 -0.00000000000E+00 -0.92768587408E+03  0.92768587408E+03  0.25500000000E-02 0.  1.
    8880023    1    1    2    0    0  0.30765260659E+03  0.53954130325E+03 -0.63892112329E+03  0.11080547605E+04  0.65864270000E+03 0.  0.
    8880022    1    1    2    0    0 -0.30765260659E+03 -0.53954130325E+03  0.18330816227E+04  0.19414774871E+04  0.15294330000E+03 0.  0.
<mgrwt>
<rscale>  0 0.83000111E+03</rscale>
<asrwt>0</asrwt>
<pdfrwt beam="1">  1        2 0.32643790E+00 0.90529838E+03</pdfrwt>
<pdfrwt beam="2">  1       -2 0.14272091E+00 0.90529838E+03</pdfrwt>
<totfact> 0.19778071E+00</totfact>
</mgrwt>
</event>
<event>
 4    5  0.7289609E-008  0.7530417E+03  0.7818608E-02  0.9823467E-01
          2   -1    0    0  501    0  0.00000000000E+00  0.00000000000E+00  0.40127264570E+04  0.40127264570E+04  0.25500000000E-02 0. -1.
         -2   -1    0    0    0  501 -0.00000000000E+00 -0.00000000000E+00 -0.11699944489E+03  0.11699944492E+03  0.25500000000E-02 0.  1.
    8880023    1    1    2    0    0  0.25245658691E+03  0.26368026378E+03  0.12868072547E+04  0.14909543007E+04  0.65864270000E+03 0.  0.
    8880022    1    1    2    0    0 -0.25245658691E+03 -0.26368026378E+03  0.26089197573E+04  0.26387716011E+04  0.15294330000E+03 0.  0.
<mgrwt>
<rscale>  0 0.64118256E+03</rscale>
<asrwt>0</asrwt>
<pdfrwt beam="1">  1        2 0.61734257E+00 0.75304171E+03</pdfrwt>
<pdfrwt beam="2">  1       -2 0.17999914E-01 0.75304171E+03</pdfrwt>
<totfact> 0.94385524E+00</totfact>
</mgrwt>
</event>
<event>
 4    5  0.7289609E-008  0.7009770E+03  0.7818608E-02  0.9993172E-01
          2   -1    0    0  501    0  0.00000000000E+00  0.00000000000E+00  0.24991303464E+04  0.24991303464E+04  0.25500000000E-02 0. -1.
         -2   -1    0    0    0  501 -0.00000000000E+00 -0.00000000000E+00 -0.17434051353E+03  0.17434051355E+03  0.25500000000E-02 0.  1.
    8880023    1    1    2    0    0  0.59949431869E+02  0.23230294003E+03  0.59210671112E+03  0.91758332262E+03  0.65864270000E+03 0.  1.
    8880022    1    1    2    0    0 -0.59949431869E+02 -0.23230294003E+03  0.17326831217E+04  0.17558875373E+04  0.15294330000E+03 0.  0.
<mgrwt>
<rscale>  0 0.55950647E+03</rscale>
<asrwt>0</asrwt>
<pdfrwt beam="1">  1        2 0.38448160E+00 0.70097703E+03</pdfrwt>
<pdfrwt beam="2">  1       -2 0.26821617E-01 0.70097703E+03</pdfrwt>
<totfact> 0.46071474E+01</totfact>
</mgrwt>
</event>
<event>
 4    5  0.7289609E-008  0.7338137E+03  0.7818608E-02  0.9878348E-01
          2   -1    0    0  501    0  0.00000000000E+00  0.00000000000E+00  0.33272502396E+03  0.33272502397E+03  0.25500000000E-02 0. -1.
         -2   -1    0    0    0  501 -0.00000000000E+00 -0.00000000000E+00 -0.12825905170E+04  0.12825905170E+04  0.25500000000E-02 0.  1.
    8880023    1    1    2    0    0 -0.29056272036E+03  0.14228742370E+03 -0.16415981633E+03  0.75195149908E+03  0.65864270000E+03 0.  0.
    8880022    1    1    2    0    0  0.29056272036E+03 -0.14228742370E+03 -0.78570567668E+03  0.86336404187E+03  0.15294330000E+03 0.  0.
<mgrwt>
<rscale>  0 0.61322209E+03</rscale>
<asrwt>0</asrwt>
<pdfrwt beam="1">  1        2 0.51188466E-01 0.73381374E+03</pdfrwt>
<pdfrwt beam="2">  1       -2 0.19732162E+00 0.73381374E+03</pdfrwt>
<totfact> 0.13804606E+01</totfact>
</mgrwt>
</event>
<event>
 4    5  0.7289609E-008  0.9681963E+03  0.7818608E-02  0.9424403E-01
          2   -1    0    0  501    0  0.00000000000E+00  0.00000000000E+00  0.15079021122E+04  0.15079021122E+04  0.25500000000E-02 0. -1.
         -2   -1    0    0    0  501 -0.00000000000E+00 -0.00000000000E+00 -0.75007926216E+03  0.75007926216E+03  0.25500000000E-02 0.  1.
    8880023    1    1    2    0    0  0.45874995311E+03  0.54142613654E+03 -0.26492640495E+03  0.10037878198E+04  0.65864270000E+03 0.  0.
    8880022    1    1    2    0    0 -0.45874995311E+03 -0.54142613654E+03  0.10227492550E+04  0.12541935546E+04  0.15294330000E+03 0.  0.
<mgrwt>
<rscale>  0 0.90094312E+03</rscale>
<asrwt>0</asrwt>
<pdfrwt beam="1">  1        2 0.23198494E+00 0.96819625E+03</pdfrwt>
<pdfrwt beam="2">  1       -2 0.11539681E+00 0.96819625E+03</pdfrwt>
<totfact> 0.73299335E+00</totfact>
</mgrwt>
</event>
<event>
 4    5  0.7289609E-008  0.1240472E+04  0.7818608E-02  0.9118751E-01
          2   -1    0    0  501    0  0.00000000000E+00  0.00000000000E+00  0.34624315295E+04  0.34624315295E+04  0.25500000000E-02 0. -1.
         -2   -1    0    0    0  501 -0.00000000000E+00 -0.00000000000E+00 -0.63857952204E+03  0.63857952204E+03  0.25500000000E-02 0.  1.
    8880023    1    1    2    0    0  0.10018886816E+04  0.31808759897E+03  0.18219118293E+03  0.12537800781E+04  0.65864270000E+03 0.  0.
    8880022    1    1    2    0    0 -0.10018886816E+04 -0.31808759897E+03  0.26416608245E+04  0.28472309734E+04  0.15294330000E+03 0.  0.
<mgrwt>
<rscale>  0 0.11932895E+04</rscale>
<asrwt>0</asrwt>
<pdfrwt beam="1">  1        2 0.53268177E+00 0.12404720E+04</pdfrwt>
<pdfrwt beam="2">  1       -2 0.98243004E-01 0.12404720E+04</pdfrwt>
<totfact> 0.73938044E-01</totfact>
</mgrwt>
</event>
<event>
 4    5  0.7289609E-008  0.7798839E+03  0.7818608E-02  0.9756110E-01
         -2   -1    0    0    0  501 -0.00000000000E+00  0.00000000000E+00  0.10725174607E+04  0.10725174607E+04  0.25500000000E-02 0.  1.
          2   -1    0    0  501    0  0.00000000000E+00 -0.00000000000E+00 -0.44167869684E+03  0.44167869685E+03  0.25500000000E-02 0. -1.
    8880023    1    1    2    0    0 -0.27185675085E+02 -0.41673681753E+03  0.71905727282E+03  0.10607837687E+04  0.65864270000E+03 0.  0.
    8880022    1    1    2    0    0  0.27185675085E+02  0.41673681753E+03 -0.88218508988E+02  0.45341238885E+03  0.15294330000E+03 0.  0.
<mgrwt>
<rscale>  0 0.67772080E+03</rscale>
<asrwt>0</asrwt>
<pdfrwt beam="1">  1        2 0.67950570E-01 0.77988386E+03</pdfrwt>
<pdfrwt beam="2">  1       -2 0.16500268E+00 0.77988386E+03</pdfrwt>
<totfact> 0.16643032E+01</totfact>
</mgrwt>
</event>
<event>
 4    5  0.1783243E-007  0.1082002E+04  0.7818608E-02  0.9281365E-01
          2   -1    0    0  501    0  0.00000000000E+00  0.00000000000E+00  0.22413528489E+04  0.22413528489E+04  0.25500000000E-02 0. -1.
         -2   -1    0    0    0  501 -0.00000000000E+00 -0.00000000000E+00 -0.25675697567E+04  0.25675697567E+04  0.25500000000E-02 0.  1.
    8880023    1    1    2    0    0  0.82165563034E+03  0.24859439065E+03 -0.23599377926E+04  0.25961574947E+04  0.65864270000E+03 0.  1.
    8880022    1    1    2    0    0 -0.82165563034E+03 -0.24859439065E+03  0.20337208848E+04  0.22127651110E+04  0.15294330000E+03 0.  0.
<mgrwt>
<rscale>  0 0.10251671E+04</rscale>
<asrwt>0</asrwt>
<pdfrwt beam="1">  1        2 0.34482352E+00 0.10820015E+04</pdfrwt>
<pdfrwt beam="2">  1       -2 0.39501073E+00 0.10820015E+04</pdfrwt>
<totfact> 0.39505747E-02</totfact>
</mgrwt>
</event>
<event>
 4    5  0.7289609E-008  0.7427263E+03  0.7818608E-02  0.9852076E-01
         -2   -1    0    0    0  501 -0.00000000000E+00  0.00000000000E+00  0.12325326245E+04  0.12325326245E+04  0.25500000000E-02 0.  1.
          2   -1    0    0  501    0  0.00000000000E+00 -0.00000000000E+00 -0.35222864001E+03  0.35222864002E+03  0.25500000000E-02 0. -1.
    8880023    1    1    2    0    0  0.31976691694E+03  0.12482485883E+03  0.94655756690E+03  0.12031681347E+04  0.65864270000E+03 0.  1.
    8880022    1    1    2    0    0 -0.31976691694E+03 -0.12482485883E+03 -0.66253582420E+02  0.38159312985E+03  0.15294330000E+03 0.  0.
<mgrwt>
<rscale>  0 0.62641201E+03</rscale>
<asrwt>0</asrwt>
<pdfrwt beam="1">  1        2 0.54189021E-01 0.74272628E+03</pdfrwt>
<pdfrwt beam="2">  1       -2 0.18962041E+00 0.74272628E+03</pdfrwt>
<totfact> 0.14552363E+01</totfact>
</mgrwt>
</event>
<event>
 4    5  0.7289609E-008  0.6824141E+03  0.7818608E-02  0.1007990E+00
         -2   -1    0    0    0  501 -0.00000000000E+00  0.00000000000E+00  0.22046129673E+03  0.22046129675E+03  0.25500000000E-02 0.  1.
          2   -1    0    0  501    0  0.00000000000E+00 -0.00000000000E+00 -0.20915822971E+04  0.20915822971E+04  0.25500000000E-02 0. -1.
    8880023    1    1    2    0    0 -0.15364620661E+03  0.90948492560E+02 -0.33897678069E+03  0.76196735443E+03  0.65864270000E+03 0. -1.
    8880022    1    1    2    0    0  0.15364620661E+03 -0.90948492560E+02 -0.15321442197E+04  0.15500762394E+04  0.15294330000E+03 0.  0.
<mgrwt>
<rscale>  0 0.52281447E+03</rscale>
<asrwt>0</asrwt>
<pdfrwt beam="1">  1        2 0.32178188E+00 0.68241409E+03</pdfrwt>
<pdfrwt beam="2">  1       -2 0.33917124E-01 0.68241409E+03</pdfrwt>
<totfact> 0.50281368E+01</totfact>
</mgrwt>
</event>
<event>
 4    5  0.7289609E-008  0.7226050E+03  0.7818608E-02  0.9913868E-01
          2   -1    0    0  501    0  0.00000000000E+00  0.00000000000E+00  0.38007054227E+04  0.38007054227E+04  0.25500000000E-02 0. -1.
         -2   -1    0    0    0  501 -0.00000000000E+00 -0.00000000000E+00 -0.90762022446E+02  0.90762022482E+02  0.25500000000E-02 0.  1.
    8880023    1    1    2    0    0 -0.28286536298E+03  0.91295852671E+02  0.16052433078E+04  0.17603874658E+04  0.65864270000E+03 0.  0.
    8880022    1    1    2    0    0  0.28286536298E+03 -0.91295852671E+02  0.21047000924E+04  0.21310799793E+04  0.15294330000E+03 0.  0.
<mgrwt>
<rscale>  0 0.59593858E+03</rscale>
<asrwt>0</asrwt>
<pdfrwt beam="1">  1        2 0.58472405E+00 0.72260498E+03</pdfrwt>
<pdfrwt beam="2">  1       -2 0.13963385E-01 0.72260498E+03</pdfrwt>
<totfact> 0.21248990E+01</totfact>
</mgrwt>
</event>
<event>
 4    5  0.7289609E-008  0.8298771E+03  0.7818608E-02  0.9649572E-01
          2   -1    0    0  501    0  0.00000000000E+00  0.00000000000E+00  0.25803454563E+03  0.25803454565E+03  0.25500000000E-02 0. -1.
         -2   -1    0    0    0  501 -0.00000000000E+00 -0.00000000000E+00 -0.20495770199E+04  0.20495770199E+04  0.25500000000E-02 0.  1.
    8880023    1    1    2    0    0  0.49801403625E+03 -0.82872584429E+02 -0.66418608828E+03  0.10629389501E+04  0.65864270000E+03 0. -1.
    8880022    1    1    2    0    0 -0.49801403625E+03  0.82872584429E+02 -0.11273563860E+04  0.12446726154E+04  0.15294330000E+03 0.  0.
<mgrwt>
<rscale>  0 0.74100324E+03</rscale>
<asrwt>0</asrwt>
<pdfrwt beam="1">  1        2 0.39697624E-01 0.82987713E+03</pdfrwt>
<pdfrwt beam="2">  1       -2 0.31531953E+00 0.82987713E+03</pdfrwt>
<totfact> 0.34309158E+00</totfact>
</mgrwt>
</event>
<event>
 4    5  0.7289609E-008  0.9363645E+03  0.7818608E-02  0.9470010E-01
          2   -1    0    0  501    0  0.00000000000E+00  0.00000000000E+00  0.23433104343E+04  0.23433104343E+04  0.25500000000E-02 0. -1.
         -2   -1    0    0    0  501 -0.00000000000E+00 -0.00000000000E+00 -0.33551996185E+03  0.33551996186E+03  0.25500000000E-02 0.  1.
    8880023    1    1    2    0    0 -0.30016267336E+03 -0.59402920545E+03  0.59436575229E+03  0.11090758230E+04  0.65864270000E+03 0.  0.
    8880022    1    1    2    0    0  0.30016267336E+03  0.59402920545E+03  0.14134247201E+04  0.15697545731E+04  0.15294330000E+03 0.  0.
<mgrwt>
<rscale>  0 0.86531429E+03</rscale>
<asrwt>0</asrwt>
<pdfrwt beam="1">  1        2 0.36050929E+00 0.93636453E+03</pdfrwt>
<pdfrwt beam="2">  1       -2 0.51618457E-01 0.93636453E+03</pdfrwt>
<totfact> 0.15440923E+01</totfact>
</mgrwt>
</event>
<event>
 4    5  0.7289609E-008  0.1330660E+04  0.7818608E-02  0.9039525E-01
         -2   -1    0    0    0  501 -0.00000000000E+00  0.00000000000E+00  0.77100909209E+03  0.77100909210E+03  0.25500000000E-02 0.  1.
          2   -1    0    0  501    0  0.00000000000E+00 -0.00000000000E+00 -0.30291480554E+04  0.30291480554E+04  0.25500000000E-02 0. -1.
    8880023    1    1    2    0    0  0.98387958424E+03  0.60731057168E+03 -0.22729052621E+04  0.26337717637E+04  0.65864270000E+03 0. -1.
    8880022    1    1    2    0    0 -0.98387958424E+03 -0.60731057168E+03  0.14766298812E+02  0.11663853837E+04  0.15294330000E+03 0.  0.
<mgrwt>
<rscale>  0 0.12875144E+04</rscale>
<asrwt>0</asrwt>
<pdfrwt beam="1">  1        2 0.46602277E+00 0.13306598E+04</pdfrwt>
<pdfrwt beam="2">  1       -2 0.11861678E+00 0.13306598E+04</pdfrwt>
<totfact> 0.88665487E-01</totfact>
</mgrwt>
</event>
<event>
 4    5  0.7289609E-008  0.1291305E+04  0.7818608E-02  0.9073105E-01
          2   -1    0    0  501    0  0.00000000000E+00  0.00000000000E+00  0.23204407946E+04  0.23204407946E+04  0.25500000000E-02 0. -1.
         -2   -1    0    0    0  501 -0.00000000000E+00 -0.00000000000E+00 -0.10648297264E+04  0.10648297264E+04  0.25500000000E-02 0.  1.
    8880023    1    1    2    0    0 -0.10041415566E+04 -0.47471937119E+03 -0.42984187946E+03  0.13609676685E+04  0.65864270000E+03 0.  1.
    8880022    1    1    2    0    0  0.10041415566E+04  0.47471937119E+03  0.16854529476E+04  0.20243028525E+04  0.15294330000E+03 0.  0.
<mgrwt>
<rscale>  0 0.12464956E+04</rscale>
<asrwt>0</asrwt>
<pdfrwt beam="1">  1        2 0.35699089E+00 0.12913051E+04</pdfrwt>
<pdfrwt beam="2">  1       -2 0.16381996E+00 0.12913051E+04</pdfrwt>
<totfact> 0.10048994E+00</totfact>
</mgrwt>
</event>
<event>
 4    5  0.7289609E-008  0.2978650E+04  0.7818608E-02  0.8254936E-01
          2   -1    0    0  501    0  0.00000000000E+00  0.00000000000E+00  0.31100961399E+04  0.31100961399E+04  0.25500000000E-02 0. -1.
         -2   -1    0    0    0  501 -0.00000000000E+00 -0.00000000000E+00 -0.33522503849E+04  0.33522503849E+04  0.25500000000E-02 0.  1.
    8880023    1    1    2    0    0  0.19759330479E+04 -0.21293742683E+04  0.12051942729E+04  0.32132304035E+04  0.65864270000E+03 0.  0.
    8880022    1    1    2    0    0 -0.19759330479E+04  0.21293742683E+04 -0.14473485179E+04  0.32491161213E+04  0.15294330000E+03 0.  0.
<mgrwt>
<rscale>  0 0.29610678E+04</rscale>
<asrwt>0</asrwt>
<pdfrwt beam="1">  1        2 0.47847633E+00 0.29786501E+04</pdfrwt>
<pdfrwt beam="2">  1       -2 0.51573083E+00 0.29786501E+04</pdfrwt>
<totfact> 0.15460164E-03</totfact>
</mgrwt>
</event>
<event>
 4    5  0.7289609E-008  0.7351416E+03  0.7818608E-02  0.9874332E-01
          2   -1    0    0  501    0  0.00000000000E+00  0.00000000000E+00  0.11225353202E+04  0.11225353202E+04  0.25500000000E-02 0. -1.
         -2   -1    0    0    0  501 -0.00000000000E+00 -0.00000000000E+00 -0.47804254627E+03  0.47804254627E+03  0.25500000000E-02 0.  1.
    8880023    1    1    2    0    0  0.18952902774E+03  0.26589781971E+03 -0.12973688496E+03  0.74650168684E+03  0.65864270000E+03 0.  0.
    8880022    1    1    2    0    0 -0.18952902774E+03 -0.26589781971E+03  0.77422965887E+03  0.85407617960E+03  0.15294330000E+03 0. -1.
<mgrwt>
<rscale>  0 0.61521544E+03</rscale>
<asrwt>0</asrwt>
<pdfrwt beam="1">  1        2 0.17269774E+00 0.73514156E+03</pdfrwt>
<pdfrwt beam="2">  1       -2 0.73545007E-01 0.73514156E+03</pdfrwt>
<totfact> 0.35853801E+01</totfact>
</mgrwt>
</event>
<event>
 4    5  0.7289609E-008  0.8877489E+03  0.7818608E-02  0.9545992E-01
         -2   -1    0    0    0  501 -0.00000000000E+00  0.00000000000E+00  0.91920396514E+03  0.91920396514E+03  0.25500000000E-02 0.  1.
          2   -1    0    0  501    0  0.00000000000E+00 -0.00000000000E+00 -0.10799566310E+04  0.10799566310E+04  0.25500000000E-02 0. -1.
    8880023    1    1    2    0    0 -0.27022510042E+03 -0.53034538897E+03  0.56181799215E+03  0.10505891200E+04  0.65864270000E+03 0.  1.
    8880022    1    1    2    0    0  0.27022510042E+03  0.53034538897E+03 -0.72257065797E+03  0.94857147610E+03  0.15294330000E+03 0.  0.
<mgrwt>
<rscale>  0 0.80976317E+03</rscale>
<asrwt>0</asrwt>
<pdfrwt beam="1">  1        2 0.16614718E+00 0.88774886E+03</pdfrwt>
<pdfrwt beam="2">  1       -2 0.14141599E+00 0.88774886E+03</pdfrwt>
<totfact> 0.78650052E+00</totfact>
</mgrwt>
</event>
<event>
 4    5  0.7289609E-008  0.7011235E+03  0.7818608E-02  0.9992572E-01
         -2   -1    0    0    0  501 -0.00000000000E+00  0.00000000000E+00  0.27651620732E+03  0.27651620733E+03  0.25500000000E-02 0.  1.
          2   -1    0    0  501    0  0.00000000000E+00 -0.00000000000E+00 -0.28025331248E+04  0.28025331248E+04  0.25500000000E-02 0. -1.
    8880023    1    1    2    0    0  0.51427644750E+02  0.23477470904E+03 -0.19093888469E+03  0.72665798736E+03  0.65864270000E+03 0.  1.
    8880022    1    1    2    0    0 -0.51427644750E+02 -0.23477470904E+03 -0.23350780328E+04  0.23523913448E+04  0.15294330000E+03 0.  0.
<mgrwt>
<rscale>  0 0.55977142E+03</rscale>
<asrwt>0</asrwt>
<pdfrwt beam="1">  1        2 0.43115892E+00 0.70112351E+03</pdfrwt>
<pdfrwt beam="2">  1       -2 0.42540957E-01 0.70112351E+03</pdfrwt>
<totfact> 0.12857046E+01</totfact>
</mgrwt>
</event>
<event>
 4    5  0.7289609E-008  0.8275928E+03  0.7818608E-02  0.9654034E-01
         -2   -1    0    0    0  501 -0.00000000000E+00  0.00000000000E+00  0.84676453206E+03  0.84676453207E+03  0.25500000000E-02 0.  1.
          2   -1    0    0  501    0  0.00000000000E+00 -0.00000000000E+00 -0.12327770348E+04  0.12327770348E+04  0.25500000000E-02 0. -1.
    8880023    1    1    2    0    0 -0.49166748717E+03  0.96760781447E+02  0.55922270595E+03  0.99881920680E+03  0.65864270000E+03 0.  0.
    8880022    1    1    2    0    0  0.49166748717E+03 -0.96760781447E+02 -0.94523520865E+03  0.10807223600E+04  0.15294330000E+03 0.  0.
<mgrwt>
<rscale>  0 0.73820770E+03</rscale>
<asrwt>0</asrwt>
<pdfrwt beam="1">  1        2 0.18965801E+00 0.82759276E+03</pdfrwt>
<pdfrwt beam="2">  1       -2 0.13027147E+00 0.82759276E+03</pdfrwt>
<totfact> 0.79074668E+00</totfact>
</mgrwt>
</event>
<event>
 4    5  0.7289609E-008  0.7110357E+03  0.7818608E-02  0.9954175E-01
          2   -1    0    0  501    0  0.00000000000E+00  0.00000000000E+00  0.17206722888E+04  0.17206722888E+04  0.25500000000E-02 0. -1.
         -2   -1    0    0    0  501 -0.00000000000E+00 -0.00000000000E+00 -0.18056874274E+03  0.18056874276E+03  0.25500000000E-02 0.  1.
    8880023    1    1    2    0    0 -0.86886317759E+02 -0.25340148994E+03  0.66571779312E+03  0.97403897954E+03  0.65864270000E+03 0.  0.
    8880022    1    1    2    0    0  0.86886317759E+02  0.25340148994E+03  0.87438575291E+03  0.92720205200E+03  0.15294330000E+03 0.  0.
<mgrwt>
<rscale>  0 0.57706067E+03</rscale>
<asrwt>0</asrwt>
<pdfrwt beam="1">  1        2 0.26471883E+00 0.71103569E+03</pdfrwt>
<pdfrwt beam="2">  1       -2 0.27779805E-01 0.71103569E+03</pdfrwt>
<totfact> 0.11566767E+02</totfact>
</mgrwt>
</event>
<event>
 4    5  0.7289609E-008  0.6944569E+03  0.7818608E-02  0.1002102E+00
         -2   -1    0    0    0  501 -0.00000000000E+00  0.00000000000E+00  0.12468939974E+04  0.12468939974E+04  0.25500000000E-02 0.  1.
          2   -1    0    0  501    0  0.00000000000E+00 -0.00000000000E+00 -0.44474139345E+03  0.44474139345E+03  0.25500000000E-02 0. -1.
    8880023    1    1    2    0    0 -0.19779847146E+03  0.96622475810E+02  0.10937254748E+04  0.12955715953E+04  0.65864270000E+03 0.  1.
    8880022    1    1    2    0    0  0.19779847146E+03 -0.96622475810E+02 -0.29157287081E+03  0.39606379556E+03  0.15294330000E+03 0.  0.
<mgrwt>
<rscale>  0 0.54737966E+03</rscale>
<asrwt>0</asrwt>
<pdfrwt beam="1">  1        2 0.68421753E-01 0.69445687E+03</pdfrwt>
<pdfrwt beam="2">  1       -2 0.19182985E+00 0.69445687E+03</pdfrwt>
<totfact> 0.10873897E+01</totfact>
</mgrwt>
</event>
<event>
 4    5  0.7289609E-008  0.8392669E+03  0.7818608E-02  0.9631564E-01
         -2   -1    0    0    0  501 -0.00000000000E+00  0.00000000000E+00  0.98350723701E+03  0.98350723701E+03  0.25500000000E-02 0.  1.
          2   -1    0    0  501    0  0.00000000000E+00 -0.00000000000E+00 -0.11957953917E+04  0.11957953917E+04  0.25500000000E-02 0. -1.
    8880023    1    1    2    0    0  0.47562991480E+03  0.21055855331E+03 -0.94753172795E+03  0.12657745858E+04  0.65864270000E+03 0. -1.
    8880022    1    1    2    0    0 -0.47562991480E+03 -0.21055855331E+03  0.73524357326E+03  0.91352804295E+03  0.15294330000E+03 0.  0.
<mgrwt>
<rscale>  0 0.75241825E+03</rscale>
<asrwt>0</asrwt>
<pdfrwt beam="1">  1        2 0.18396852E+00 0.83926690E+03</pdfrwt>
<pdfrwt beam="2">  1       -2 0.15130881E+00 0.83926690E+03</pdfrwt>
<totfact> 0.56305313E+00</totfact>
</mgrwt>
</event>
<event>
 4    5  0.7289609E-008  0.6598003E+03  0.7818608E-02  0.1024362E+00
         -2   -1    0    0    0  501 -0.00000000000E+00  0.00000000000E+00  0.19123041199E+03  0.19123041201E+03  0.25500000000E-02 0.  1.
          2   -1    0    0  501    0  0.00000000000E+00 -0.00000000000E+00 -0.20956469876E+04  0.20956469876E+04  0.25500000000E-02 0. -1.
    8880023    1    1    2    0    0 -0.50124909934E+01 -0.38744653287E+02 -0.39452447366E+03  0.76875616407E+03  0.65864270000E+03 0.  1.
    8880022    1    1    2    0    0  0.50124909934E+01  0.38744653287E+02 -0.15098921020E+04  0.15181212356E+04  0.15294330000E+03 0.  0.
<mgrwt>
<rscale>  0 0.46144866E+03</rscale>
<asrwt>0</asrwt>
<pdfrwt beam="1">  1        2 0.32240721E+00 0.65980033E+03</pdfrwt>
<pdfrwt beam="2">  1       -2 0.29420065E-01 0.65980033E+03</pdfrwt>
<totfact> 0.65455410E+01</totfact>
</mgrwt>
</event>
<event>
 4    5  0.7289609E-008  0.7706578E+03  0.7818608E-02  0.9778258E-01
          2   -1    0    0  501    0  0.00000000000E+00  0.00000000000E+00  0.22139001513E+04  0.22139001513E+04  0.25500000000E-02 0. -1.
         -2   -1    0    0    0  501 -0.00000000000E+00 -0.00000000000E+00 -0.33323046385E+03  0.33323046386E+03  0.25500000000E-02 0.  1.
    8880023    1    1    2    0    0 -0.13251590627E+03 -0.37754841425E+03  0.17738810243E+03  0.79080972153E+03  0.65864270000E+03 0.  0.
    8880022    1    1    2    0    0  0.13251590627E+03  0.37754841425E+03  0.17032815851E+04  0.17563208937E+04  0.15294330000E+03 0.  0.
<mgrwt>
<rscale>  0 0.66542513E+03</rscale>
<asrwt>0</asrwt>
<pdfrwt beam="1">  1        2 0.34060003E+00 0.77065782E+03</pdfrwt>
<pdfrwt beam="2">  1       -2 0.51266224E-01 0.77065782E+03</pdfrwt>
<totfact> 0.18890226E+01</totfact>
</mgrwt>
</event>
<event>
 4    5  0.7289609E-008  0.1082179E+04  0.7818608E-02  0.9281162E-01
          2   -1    0    0  501    0  0.00000000000E+00  0.00000000000E+00  0.10226622993E+04  0.10226622993E+04  0.25500000000E-02 0. -1.
         -2   -1    0    0    0  501 -0.00000000000E+00 -0.00000000000E+00 -0.10214630941E+04  0.10214630941E+04  0.25500000000E-02 0.  1.
    8880023    1    1    2    0    0  0.58131001130E+03  0.63196433957E+03  0.29863291033E+03  0.11226273100E+04  0.65864270000E+03 0.  0.
    8880022    1    1    2    0    0 -0.58131001130E+03 -0.63196433957E+03 -0.29743370511E+03  0.92149808338E+03  0.15294330000E+03 0.  0.
<mgrwt>
<rscale>  0 0.10253575E+04</rscale>
<asrwt>0</asrwt>
<pdfrwt beam="1">  1        2 0.15733266E+00 0.10821786E+04</pdfrwt>
<pdfrwt beam="2">  1       -2 0.15714817E+00 0.10821786E+04</pdfrwt>
<totfact> 0.63378784E+00</totfact>
</mgrwt>
</event>
<event>
 4    5  0.7289609E-008  0.8622117E+03  0.7818608E-02  0.9589641E-01
         -2   -1    0    0    0  501 -0.00000000000E+00  0.00000000000E+00  0.40551931983E+03  0.40551931984E+03  0.25500000000E-02 0.  1.
          2   -1    0    0  501    0  0.00000000000E+00 -0.00000000000E+00 -0.21567466922E+04  0.21567466922E+04  0.25500000000E-02 0. -1.
    8880023    1    1    2    0    0 -0.55192785670E+03  0.70529520906E+02 -0.16970144885E+03  0.87875341270E+03  0.65864270000E+03 0.  0.
    8880022    1    1    2    0    0  0.55192785670E+03 -0.70529520906E+02 -0.15815259235E+04  0.16835125993E+04  0.15294330000E+03 0.  0.
<mgrwt>
<rscale>  0 0.77985596E+03</rscale>
<asrwt>0</asrwt>
<pdfrwt beam="1">  1        2 0.33180718E+00 0.86221168E+03</pdfrwt>
<pdfrwt beam="2">  1       -2 0.62387589E-01 0.86221168E+03</pdfrwt>
<totfact> 0.13310997E+01</totfact>
</mgrwt>
</event>
<event>
 4    5  0.7289609E-008  0.1237668E+04  0.7818608E-02  0.9121349E-01
          2   -1    0    0  501    0  0.00000000000E+00  0.00000000000E+00  0.12519676858E+04  0.12519676858E+04  0.25500000000E-02 0. -1.
         -2   -1    0    0    0  501 -0.00000000000E+00 -0.00000000000E+00 -0.12481007040E+04  0.12481007040E+04  0.25500000000E-02 0.  1.
    8880023    1    1    2    0    0 -0.81945008616E+03 -0.65307958678E+03 -0.49059297088E+03  0.13313538447E+04  0.65864270000E+03 0.  0.
    8880022    1    1    2    0    0  0.81945008616E+03  0.65307958678E+03  0.49445995266E+03  0.11687145452E+04  0.15294330000E+03 0.  0.
<mgrwt>
<rscale>  0 0.11903462E+04</rscale>
<asrwt>0</asrwt>
<pdfrwt beam="1">  1        2 0.19261041E+00 0.12376678E+04</pdfrwt>
<pdfrwt beam="2">  1       -2 0.19201549E+00 0.12376678E+04</pdfrwt>
<totfact> 0.25639215E+00</totfact>
</mgrwt>
</event>
<event>
 4    5  0.7289609E-008  0.1124389E+04  0.7818608E-02  0.9234376E-01
         -2   -1    0    0    0  501 -0.00000000000E+00  0.00000000000E+00  0.13915052914E+04  0.13915052914E+04  0.25500000000E-02 0.  1.
          2   -1    0    0  501    0  0.00000000000E+00 -0.00000000000E+00 -0.16095065510E+04  0.16095065510E+04  0.25500000000E-02 0. -1.
    8880023    1    1    2    0    0 -0.89103035790E+03  0.19106378551E+03  0.97760273082E+03  0.14899522725E+04  0.65864270000E+03 0.  1.
    8880022    1    1    2    0    0  0.89103035790E+03 -0.19106378551E+03 -0.11956039904E+04  0.15110595698E+04  0.15294330000E+03 0.  0.
<mgrwt>
<rscale>  0 0.10705551E+04</rscale>
<asrwt>0</asrwt>
<pdfrwt beam="1">  1        2 0.24761639E+00 0.11243890E+04</pdfrwt>
<pdfrwt beam="2">  1       -2 0.21407774E+00 0.11243890E+04</pdfrwt>
<totfact> 0.11627751E+00</totfact>
</mgrwt>
</event>
<event>
 4    5  0.7289609E-008  0.9333305E+03  0.7818608E-02  0.9474515E-01
         -2   -1    0    0    0  501 -0.00000000000E+00  0.00000000000E+00  0.63603508192E+03  0.63603508192E+03  0.25500000000E-02 0.  1.
          2   -1    0    0  501    0  0.00000000000E+00 -0.00000000000E+00 -0.52647436954E+04  0.52647436954E+04  0.25500000000E-02 0. -1.
    8880023    1    1    2    0    0 -0.55374767715E+03  0.36146791050E+03  0.25706491739E+03  0.96808476813E+03  0.65864270000E+03 0.  1.
    8880022    1    1    2    0    0  0.55374767715E+03 -0.36146791050E+03 -0.48857735309E+04  0.49326940092E+04  0.15294330000E+03 0.  0.
<mgrwt>
<rscale>  0 0.86189100E+03</rscale>
<asrwt>0</asrwt>
<pdfrwt beam="1">  1        2 0.80996054E+00 0.93333046E+03</pdfrwt>
<pdfrwt beam="2">  1       -2 0.97851555E-01 0.93333046E+03</pdfrwt>
<totfact> 0.14686687E-02</totfact>
</mgrwt>
</event>
<event>
 4    5  0.7289609E-008  0.8425929E+03  0.7818608E-02  0.9625310E-01
          2   -1    0    0  501    0  0.00000000000E+00  0.00000000000E+00  0.86727650965E+03  0.86727650965E+03  0.25500000000E-02 0. -1.
         -2   -1    0    0    0  501 -0.00000000000E+00 -0.00000000000E+00 -0.12711292550E+04  0.12711292550E+04  0.25500000000E-02 0.  1.
    8880023    1    1    2    0    0 -0.16685833032E+03  0.49830801489E+03 -0.10142408898E+04  0.13185777827E+04  0.65864270000E+03 0.  1.
    8880022    1    1    2    0    0  0.16685833032E+03 -0.49830801489E+03  0.61038814448E+03  0.81982798198E+03  0.15294330000E+03 0.  0.
<mgrwt>
<rscale>  0 0.75643387E+03</rscale>
<asrwt>0</asrwt>
<pdfrwt beam="1">  1        2 0.13342715E+00 0.84259289E+03</pdfrwt>
<pdfrwt beam="2">  1       -2 0.19555835E+00 0.84259289E+03</pdfrwt>
<totfact> 0.44361626E+00</totfact>
</mgrwt>
</event>
<event>
 4    5  0.7289609E-008  0.8217173E+03  0.7818608E-02  0.9665668E-01
          2   -1    0    0  501    0  0.00000000000E+00  0.00000000000E+00  0.13650468060E+04  0.13650468060E+04  0.25500000000E-02 0. -1.
         -2   -1    0    0    0  501 -0.00000000000E+00 -0.00000000000E+00 -0.48641642565E+03  0.48641642565E+03  0.25500000000E-02 0.  1.
    8880023    1    1    2    0    0 -0.12697380901E+03 -0.47464375892E+03 -0.13197973124E+02  0.82182324062E+03  0.65864270000E+03 0.  1.
    8880022    1    1    2    0    0  0.12697380901E+03  0.47464375892E+03  0.89182835345E+03  0.10296399910E+04  0.15294330000E+03 0.  0.
<mgrwt>
<rscale>  0 0.73098202E+03</rscale>
<asrwt>0</asrwt>
<pdfrwt beam="1">  1        2 0.21000720E+00 0.82171726E+03</pdfrwt>
<pdfrwt beam="2">  1       -2 0.74833297E-01 0.82171726E+03</pdfrwt>
<totfact> 0.24648711E+01</totfact>
</mgrwt>
</event>
<event>
 4    5  0.7289609E-008  0.1002990E+04  0.7818608E-02  0.9377657E-01
         -2   -1    0    0    0  501 -0.00000000000E+00  0.00000000000E+00  0.32138765055E+03  0.32138765056E+03  0.25500000000E-02 0.  1.
          2   -1    0    0  501    0  0.00000000000E+00 -0.00000000000E+00 -0.43769232619E+04  0.43769232619E+04  0.25500000000E-02 0. -1.
    8880023    1    1    2    0    0 -0.71276864383E+03  0.25325624361E+03 -0.62442146060E+03  0.11814779859E+04  0.65864270000E+03 0.  1.
    8880022    1    1    2    0    0  0.71276864383E+03 -0.25325624361E+03 -0.34311141507E+04  0.35168329265E+04  0.15294330000E+03 0.  0.
<mgrwt>
<rscale>  0 0.93937472E+03</rscale>
<asrwt>0</asrwt>
<pdfrwt beam="1">  1        2 0.67337277E+00 0.10029896E+04</pdfrwt>
<pdfrwt beam="2">  1       -2 0.49444257E-01 0.10029896E+04</pdfrwt>
<totfact> 0.66815427E-01</totfact>
</mgrwt>
</event>
<event>
 4    5  0.7289609E-008  0.1134621E+04  0.7818608E-02  0.9223454E-01
          2   -1    0    0  501    0  0.00000000000E+00  0.00000000000E+00  0.25258562583E+04  0.25258562583E+04  0.25500000000E-02 0. -1.
         -2   -1    0    0    0  501 -0.00000000000E+00 -0.00000000000E+00 -0.54004927771E+03  0.54004927771E+03  0.25500000000E-02 0.  1.
    8880023    1    1    2    0    0  0.78564437281E+03 -0.48612613968E+03  0.36120073009E+03  0.11907274574E+04  0.65864270000E+03 0.  1.
    8880022    1    1    2    0    0 -0.78564437281E+03  0.48612613968E+03  0.16246062505E+04  0.18751780786E+04  0.15294330000E+03 0.  0.
<mgrwt>
<rscale>  0 0.10814587E+04</rscale>
<asrwt>0</asrwt>
<pdfrwt beam="1">  1        2 0.38859327E+00 0.11346215E+04</pdfrwt>
<pdfrwt beam="2">  1       -2 0.83084505E-01 0.11346215E+04</pdfrwt>
<totfact> 0.42398187E+00</totfact>
</mgrwt>
</event>
<event>
 4    5  0.7289609E-008  0.1235947E+04  0.7818608E-02  0.9122947E-01
         -2   -1    0    0    0  501 -0.00000000000E+00  0.00000000000E+00  0.78591228569E+03  0.78591228569E+03  0.25500000000E-02 0.  1.
          2   -1    0    0  501    0  0.00000000000E+00 -0.00000000000E+00 -0.28569460099E+04  0.28569460099E+04  0.25500000000E-02 0. -1.
    8880023    1    1    2    0    0  0.91109158256E+03  0.51348570155E+03  0.87913078364E+02  0.12390699549E+04  0.65864270000E+03 0.  1.
    8880022    1    1    2    0    0 -0.91109158256E+03 -0.51348570155E+03 -0.21589468025E+04  0.24037883407E+04  0.15294330000E+03 0.  0.
<mgrwt>
<rscale>  0 0.11885399E+04</rscale>
<asrwt>0</asrwt>
<pdfrwt beam="1">  1        2 0.43953015E+00 0.12359473E+04</pdfrwt>
<pdfrwt beam="2">  1       -2 0.12090958E+00 0.12359473E+04</pdfrwt>
<totfact> 0.10913018E+00</totfact>
</mgrwt>
</event>
<event>
 4    5  0.7289609E-008  0.9947529E+03  0.7818608E-02  0.9388455E-01
         -2   -1    0    0    0  501 -0.00000000000E+00  0.00000000000E+00  0.83792910444E+03  0.83792910444E+03  0.25500000000E-02 0.  1.
          2   -1    0    0  501    0  0.00000000000E+00 -0.00000000000E+00 -0.23743744094E+04  0.23743744094E+04  0.25500000000E-02 0. -1.
    8880023    1    1    2    0    0 -0.67689892131E+03 -0.31229952246E+03  0.44499767036E+03  0.10897505560E+04  0.65864270000E+03 0.  0.
    8880022    1    1    2    0    0  0.67689892131E+03  0.31229952246E+03 -0.19814429753E+04  0.21225529579E+04  0.15294330000E+03 0.  0.
<mgrwt>
<rscale>  0 0.93031922E+03</rscale>
<asrwt>0</asrwt>
<pdfrwt beam="1">  1        2 0.36528837E+00 0.99475291E+03</pdfrwt>
<pdfrwt beam="2">  1       -2 0.12891217E+00 0.99475291E+03</pdfrwt>
<totfact> 0.18335724E+00</totfact>
</mgrwt>
</event>
<event>
 4    5  0.7289609E-008  0.1495618E+04  0.7818608E-02  0.8912736E-01
         -2   -1    0    0    0  501 -0.00000000000E+00  0.00000000000E+00  0.15097362265E+04  0.15097362265E+04  0.25500000000E-02 0.  1.
          2   -1    0    0  501    0  0.00000000000E+00 -0.00000000000E+00 -0.13563023115E+04  0.13563023115E+04  0.25500000000E-02 0. -1.
    8880023    1    1    2    0    0 -0.10357246229E+04  0.85459796271E+03  0.22615205513E+03  0.15126196253E+04  0.65864270000E+03 0.  0.
    8880022    1    1    2    0    0  0.10357246229E+04 -0.85459796271E+03 -0.72718140210E+02  0.13534189127E+04  0.15294330000E+03 0.  0.
<mgrwt>
<rscale>  0 0.14581985E+04</rscale>
<asrwt>0</asrwt>
<pdfrwt beam="1">  1        2 0.20866190E+00 0.14956181E+04</pdfrwt>
<pdfrwt beam="2">  1       -2 0.23226711E+00 0.14956181E+04</pdfrwt>
<totfact> 0.11961232E+00</totfact>
</mgrwt>
</event>
<event>
 4    5  0.7289609E-008  0.7972300E+03  0.7818608E-02  0.9716818E-01
         -2   -1    0    0    0  501 -0.00000000000E+00  0.00000000000E+00  0.94833801368E+03  0.94833801368E+03  0.25500000000E-02 0.  1.
          2   -1    0    0  501    0  0.00000000000E+00 -0.00000000000E+00 -0.12519577785E+04  0.12519577785E+04  0.25500000000E-02 0. -1.
    8880023    1    1    2    0    0  0.23539734355E+03  0.38256189389E+03  0.71861150271E+03  0.10733024784E+04  0.65864270000E+03 0.  0.
    8880022    1    1    2    0    0 -0.23539734355E+03 -0.38256189389E+03 -0.10222312676E+04  0.11269933138E+04  0.15294330000E+03 0.  0.
<mgrwt>
<rscale>  0 0.70024249E+03</rscale>
<asrwt>0</asrwt>
<pdfrwt beam="1">  1        2 0.19260889E+00 0.79723003E+03</pdfrwt>
<pdfrwt beam="2">  1       -2 0.14589816E+00 0.79723003E+03</pdfrwt>
<totfact> 0.57746095E+00</totfact>
</mgrwt>
</event>
<event>
 4    5  0.7289609E-008  0.1129010E+04  0.7818608E-02  0.9229424E-01
          2   -1    0    0  501    0  0.00000000000E+00  0.00000000000E+00  0.34747996639E+04  0.34747996639E+04  0.25500000000E-02 0. -1.
         -2   -1    0    0    0  501 -0.00000000000E+00 -0.00000000000E+00 -0.56014164531E+03  0.56014164531E+03  0.25500000000E-02 0.  1.
    8880023    1    1    2    0    0 -0.89874763435E+03 -0.18195037139E+03  0.17580802357E+03  0.11426162590E+04  0.65864270000E+03 0.  0.
    8880022    1    1    2    0    0  0.89874763435E+03  0.18195037139E+03  0.27388499950E+04  0.28923250502E+04  0.15294330000E+03 0.  0.
<mgrwt>
<rscale>  0 0.10754815E+04</rscale>
<asrwt>0</asrwt>
<pdfrwt beam="1">  1        2 0.53458457E+00 0.11290099E+04</pdfrwt>
<pdfrwt beam="2">  1       -2 0.86175637E-01 0.11290099E+04</pdfrwt>
<totfact> 0.10009478E+00</totfact>
</mgrwt>
</event>
<event>
 4    5  0.7289609E-008  0.7257158E+03  0.7818608E-02  0.9903700E-01
          2   -1    0    0  501    0  0.00000000000E+00  0.00000000000E+00  0.21706008231E+04  0.21706008231E+04  0.25500000000E-02 0. -1.
         -2   -1    0    0    0  501 -0.00000000000E+00 -0.00000000000E+00 -0.33416294572E+03  0.33416294573E+03  0.25500000000E-02 0.  1.
    8880023    1    1    2    0    0 -0.29795764821E+03 -0.63831716725E+02  0.96933296496E+02  0.73216085556E+03  0.65864270000E+03 0.  1.
    8880022    1    1    2    0    0  0.29795764821E+03  0.63831716725E+02  0.17395045809E+04  0.17726029133E+04  0.15294330000E+03 0.  0.
<mgrwt>
<rscale>  0 0.60082318E+03</rscale>
<asrwt>0</asrwt>
<pdfrwt beam="1">  1        2 0.33393859E+00 0.72571582E+03</pdfrwt>
<pdfrwt beam="2">  1       -2 0.51409684E-01 0.72571582E+03</pdfrwt>
<totfact> 0.19971810E+01</totfact>
</mgrwt>
</event>
<event>
 4    5  0.9736721E-008  0.1192975E+04  0.7818608E-02  0.9163982E-01
          2   -1    0    0  501    0  0.00000000000E+00  0.00000000000E+00  0.22189716190E+04  0.22189716190E+04  0.25500000000E-02 0. -1.
         -2   -1    0    0    0  501 -0.00000000000E+00 -0.00000000000E+00 -0.13440585933E+04  0.13440585933E+04  0.25500000000E-02 0.  1.
    8880023    1    1    2    0    0  0.98340672702E+03  0.14929748792E+03 -0.91914268209E+03  0.15059920342E+04  0.65864270000E+03 0.  0.
    8880022    1    1    2    0    0 -0.98340672702E+03 -0.14929748792E+03  0.17940557078E+04  0.20570381781E+04  0.15294330000E+03 0.  0.
<mgrwt>
<rscale>  0 0.11433055E+04</rscale>
<asrwt>0</asrwt>
<pdfrwt beam="1">  1        2 0.34138025E+00 0.11929747E+04</pdfrwt>
<pdfrwt beam="2">  1       -2 0.20677824E+00 0.11929747E+04</pdfrwt>
<totfact> 0.58943974E-01</totfact>
</mgrwt>
</event>
<event>
 4    5  0.7289609E-008  0.1272974E+04  0.7818608E-02  0.9089257E-01
         -2   -1    0    0    0  501 -0.00000000000E+00  0.00000000000E+00  0.10617231303E+04  0.10617231303E+04  0.25500000000E-02 0.  1.
          2   -1    0    0  501    0  0.00000000000E+00 -0.00000000000E+00 -0.24859552098E+04  0.24859552098E+04  0.25500000000E-02 0. -1.
    8880023    1    1    2    0    0 -0.69971305517E+03  0.83489789489E+03  0.47019799416E+03  0.13570369245E+04  0.65864270000E+03 0.  1.
    8880022    1    1    2    0    0  0.69971305517E+03 -0.83489789489E+03 -0.18944300737E+04  0.21906414156E+04  0.15294330000E+03 0.  0.
<mgrwt>
<rscale>  0 0.12273399E+04</rscale>
<asrwt>0</asrwt>
<pdfrwt beam="1">  1        2 0.38245465E+00 0.12729741E+04</pdfrwt>
<pdfrwt beam="2">  1       -2 0.16334202E+00 0.12729741E+04</pdfrwt>
<totfact> 0.81696371E-01</totfact>
</mgrwt>
</event>
<event>
 4    5  0.7289609E-008  0.7698816E+03  0.7818608E-02  0.9780165E-01
          2   -1    0    0  501    0  0.00000000000E+00  0.00000000000E+00  0.84264327145E+03  0.84264327146E+03  0.25500000000E-02 0. -1.
         -2   -1    0    0    0  501 -0.00000000000E+00 -0.00000000000E+00 -0.21123721862E+04  0.21123721862E+04  0.25500000000E-02 0.  1.
    8880023    1    1    2    0    0 -0.25410869003E+03 -0.30714214650E+03 -0.19810512823E+04  0.21253898264E+04  0.65864270000E+03 0.  1.
    8880022    1    1    2    0    0  0.25410869003E+03  0.30714214650E+03  0.71132236757E+03  0.82962563131E+03  0.15294330000E+03 0.  0.
<mgrwt>
<rscale>  0 0.66437925E+03</rscale>
<asrwt>0</asrwt>
<pdfrwt beam="1">  1        2 0.12963743E+00 0.76988163E+03</pdfrwt>
<pdfrwt beam="2">  1       -2 0.32498033E+00 0.76988163E+03</pdfrwt>
<totfact> 0.74998588E-01</totfact>
</mgrwt>
</event>
<event>
 4    5  0.7289609E-008  0.7378424E+03  0.7818608E-02  0.9866277E-01
          2   -1    0    0  501    0  0.00000000000E+00  0.00000000000E+00  0.14811474083E+04  0.14811474083E+04  0.25500000000E-02 0. -1.
         -2   -1    0    0    0  501 -0.00000000000E+00 -0.00000000000E+00 -0.10639896929E+04  0.10639896929E+04  0.25500000000E-02 0.  1.
    8880023    1    1    2    0    0  0.28645456573E+03  0.16895276679E+03 -0.90820794625E+03  0.11701509029E+04  0.65864270000E+03 0.  0.
    8880022    1    1    2    0    0 -0.28645456573E+03 -0.16895276679E+03  0.13253656617E+04  0.13749861984E+04  0.15294330000E+03 0.  0.
<mgrwt>
<rscale>  0 0.61923850E+03</rscale>
<asrwt>0</asrwt>
<pdfrwt beam="1">  1        2 0.22786883E+00 0.73784244E+03</pdfrwt>
<pdfrwt beam="2">  1       -2 0.16369072E+00 0.73784244E+03</pdfrwt>
<totfact> 0.31692602E+00</totfact>
</mgrwt>
</event>
<event>
 4    5  0.7289609E-008  0.6881680E+03  0.7818608E-02  0.1005036E+00
          2   -1    0    0  501    0  0.00000000000E+00  0.00000000000E+00  0.24613573285E+04  0.24613573285E+04  0.25500000000E-02 0. -1.
         -2   -1    0    0    0  501 -0.00000000000E+00 -0.00000000000E+00 -0.11462320233E+03  0.11462320236E+03  0.25500000000E-02 0.  1.
    8880023    1    1    2    0    0  0.13564634886E+03 -0.14616782424E+03  0.10520652825E+04  0.12571461847E+04  0.65864270000E+03 0.  1.
    8880022    1    1    2    0    0 -0.13564634886E+03  0.14616782424E+03  0.12946688437E+04  0.13188343462E+04  0.15294330000E+03 0.  0.
<mgrwt>
<rscale>  0 0.53496233E+03</rscale>
<asrwt>0</asrwt>
<pdfrwt beam="1">  1        2 0.37867032E+00 0.68816798E+03</pdfrwt>
<pdfrwt beam="2">  1       -2 0.17634341E-01 0.68816798E+03</pdfrwt>
<totfact> 0.10176064E+02</totfact>
</mgrwt>
</event>
<event>
 4    5  0.7289609E-008  0.8084694E+03  0.7818608E-02  0.9692774E-01
          2   -1    0    0  501    0  0.00000000000E+00  0.00000000000E+00  0.35586248515E+04  0.35586248515E+04  0.25500000000E-02 0. -1.
         -2   -1    0    0    0  501 -0.00000000000E+00 -0.00000000000E+00 -0.57991474636E+03  0.57991474636E+03  0.25500000000E-02 0.  1.
    8880023    1    1    2    0    0  0.25203364817E+03  0.39533743147E+03 -0.27019047954E+03  0.85242345464E+03  0.65864270000E+03 0.  1.
    8880022    1    1    2    0    0 -0.25203364817E+03 -0.39533743147E+03  0.32489005847E+04  0.32861161432E+04  0.15294330000E+03 0.  0.
<mgrwt>
<rscale>  0 0.71448665E+03</rscale>
<asrwt>0</asrwt>
<pdfrwt beam="1">  1        2 0.54748075E+00 0.80846945E+03</pdfrwt>
<pdfrwt beam="2">  1       -2 0.89217653E-01 0.80846945E+03</pdfrwt>
<totfact> 0.85798206E-01</totfact>
</mgrwt>
</event>
<event>
 4    5  0.7289609E-008  0.1668480E+04  0.7818608E-02  0.8799005E-01
          2   -1    0    0  501    0  0.00000000000E+00  0.00000000000E+00  0.19244766964E+04  0.19244766964E+04  0.25500000000E-02 0. -1.
         -2   -1    0    0    0  501 -0.00000000000E+00 -0.00000000000E+00 -0.24372658497E+04  0.24372658497E+04  0.25500000000E-02 0.  1.
    8880023    1    1    2    0    0 -0.44187463842E+03  0.14679104276E+04 -0.17261481456E+04  0.24007106961E+04  0.65864270000E+03 0.  0.
    8880022    1    1    2    0    0  0.44187463842E+03 -0.14679104276E+04  0.12133589924E+04  0.19610318500E+04  0.15294330000E+03 0.  0.
<mgrwt>
<rscale>  0 0.16355438E+04</rscale>
<asrwt>0</asrwt>
<pdfrwt beam="1">  1        2 0.29607333E+00 0.16684797E+04</pdfrwt>
<pdfrwt beam="2">  1       -2 0.37496398E+00 0.16684797E+04</pdfrwt>
<totfact> 0.73086727E-02</totfact>
</mgrwt>
</event>
<event>
 4    5  0.7289609E-008  0.6782817E+03  0.7818608E-02  0.1010313E+00
         -2   -1    0    0    0  501 -0.00000000000E+00  0.00000000000E+00  0.27237256533E+03  0.27237256535E+03  0.25500000000E-02 0.  1.
          2   -1    0    0  501    0  0.00000000000E+00 -0.00000000000E+00 -0.25700460702E+04  0.25700460702E+04  0.25500000000E-02 0. -1.
    8880023    1    1    2    0    0 -0.16156228896E+03  0.12391493865E+02 -0.16490167082E+03  0.69803917486E+03  0.65864270000E+03 0.  1.
    8880022    1    1    2    0    0  0.16156228896E+03 -0.12391493865E+02 -0.21327718340E+04  0.21443794606E+04  0.15294330000E+03 0.  0.
<mgrwt>
<rscale>  0 0.51350521E+03</rscale>
<asrwt>0</asrwt>
<pdfrwt beam="1">  1        2 0.39539169E+00 0.67828175E+03</pdfrwt>
<pdfrwt beam="2">  1       -2 0.41903473E-01 0.67828175E+03</pdfrwt>
<totfact> 0.18138489E+01</totfact>
</mgrwt>
</event>
<event>
 4    5  0.7289609E-008  0.8590215E+03  0.7818608E-02  0.9595306E-01
         -2   -1    0    0    0  501 -0.00000000000E+00  0.00000000000E+00  0.53189488360E+03  0.53189488361E+03  0.25500000000E-02 0.  1.
          2   -1    0    0  501    0  0.00000000000E+00 -0.00000000000E+00 -0.15395090660E+04  0.15395090660E+04  0.25500000000E-02 0. -1.
    8880023    1    1    2    0    0 -0.18373572463E+03  0.51995082304E+03  0.58914349220E+02  0.86103936129E+03  0.65864270000E+03 0.  1.
    8880022    1    1    2    0    0  0.18373572463E+03 -0.51995082304E+03 -0.10665285316E+04  0.12103645883E+04  0.15294330000E+03 0.  0.
<mgrwt>
<rscale>  0 0.77607611E+03</rscale>
<asrwt>0</asrwt>
<pdfrwt beam="1">  1        2 0.23684755E+00 0.85902147E+03</pdfrwt>
<pdfrwt beam="2">  1       -2 0.81829982E-01 0.85902147E+03</pdfrwt>
<totfact> 0.16025186E+01</totfact>
</mgrwt>
</event>
<event>
 4    5  0.7289609E-008  0.7377677E+03  0.7818608E-02  0.9866498E-01
          2   -1    0    0  501    0  0.00000000000E+00  0.00000000000E+00  0.21553717184E+04  0.21553717184E+04  0.25500000000E-02 0. -1.
         -2   -1    0    0    0  501 -0.00000000000E+00 -0.00000000000E+00 -0.43703382047E+03  0.43703382048E+03  0.25500000000E-02 0.  1.
    8880023    1    1    2    0    0  0.18917086617E+03  0.27332284360E+03 -0.93790472954E+02  0.74370548776E+03  0.65864270000E+03 0.  1.
    8880022    1    1    2    0    0 -0.18917086617E+03 -0.27332284360E+03  0.18121283709E+04  0.18487000512E+04  0.15294330000E+03 0.  0.
<mgrwt>
<rscale>  0 0.61912775E+03</rscale>
<asrwt>0</asrwt>
<pdfrwt beam="1">  1        2 0.33159566E+00 0.73776771E+03</pdfrwt>
<pdfrwt beam="2">  1       -2 0.67235971E-01 0.73776771E+03</pdfrwt>
<totfact> 0.11557080E+01</totfact>
</mgrwt>
</event>
<event>
 4    5  0.7289609E-008  0.9743546E+03  0.7818608E-02  0.9415907E-01
          2   -1    0    0  501    0  0.00000000000E+00  0.00000000000E+00  0.19317389661E+04  0.19317389661E+04  0.25500000000E-02 0. -1.
         -2   -1    0    0    0  501 -0.00000000000E+00 -0.00000000000E+00 -0.48839722967E+03  0.48839722967E+03  0.25500000000E-02 0.  1.
    8880023    1    1    2    0    0 -0.66278866550E+03  0.27616638773E+03  0.22863645848E+03  0.10008204261E+04  0.65864270000E+03 0.  0.
    8880022    1    1    2    0    0  0.66278866550E+03 -0.27616638773E+03  0.12147052779E+04  0.14193157697E+04  0.15294330000E+03 0.  0.
<mgrwt>
<rscale>  0 0.90778118E+03</rscale>
<asrwt>0</asrwt>
<pdfrwt beam="1">  1        2 0.29719061E+00 0.97435460E+03</pdfrwt>
<pdfrwt beam="2">  1       -2 0.75138035E-01 0.97435460E+03</pdfrwt>
<totfact> 0.11647886E+01</totfact>
</mgrwt>
</event>
<event>
 4    5  0.7289609E-008  0.7261784E+03  0.7818608E-02  0.9902209E-01
          2   -1    0    0  501    0  0.00000000000E+00  0.00000000000E+00  0.33782592111E+04  0.33782592111E+04  0.25500000000E-02 0. -1.
         -2   -1    0    0    0  501 -0.00000000000E+00 -0.00000000000E+00 -0.16441103935E+03  0.16441103937E+03  0.25500000000E-02 0.  1.
    8880023    1    1    2    0    0  0.29397001126E+03  0.84300112077E+02  0.71004581889E+03  0.10156279573E+04  0.65864270000E+03 0.  1.
    8880022    1    1    2    0    0 -0.29397001126E+03 -0.84300112077E+02  0.25038023528E+04  0.25270422932E+04  0.15294330000E+03 0.  0.
<mgrwt>
<rscale>  0 0.60154343E+03</rscale>
<asrwt>0</asrwt>
<pdfrwt beam="1">  1        2 0.51973215E+00 0.72617841E+03</pdfrwt>
<pdfrwt beam="2">  1       -2 0.25294008E-01 0.72617841E+03</pdfrwt>
<totfact> 0.14923132E+01</totfact>
</mgrwt>
</event>
<event>
 4    5  0.7289609E-008  0.1094672E+04  0.7818608E-02  0.9267011E-01
          2   -1    0    0  501    0  0.00000000000E+00  0.00000000000E+00  0.12432035959E+04  0.12432035959E+04  0.25500000000E-02 0. -1.
         -2   -1    0    0    0  501 -0.00000000000E+00 -0.00000000000E+00 -0.21024422375E+04  0.21024422375E+04  0.25500000000E-02 0.  1.
    8880023    1    1    2    0    0  0.53368652826E+03  0.69258668825E+03 -0.17653556676E+04  0.20772068916E+04  0.65864270000E+03 0.  1.
    8880022    1    1    2    0    0 -0.53368652826E+03 -0.69258668825E+03  0.90611702602E+03  0.12684389418E+04  0.15294330000E+03 0.  0.
<mgrwt>
<rscale>  0 0.10387745E+04</rscale>
<asrwt>0</asrwt>
<pdfrwt beam="1">  1        2 0.19126209E+00 0.10946725E+04</pdfrwt>
<pdfrwt beam="2">  1       -2 0.32345265E+00 0.10946725E+04</pdfrwt>
<totfact> 0.40411513E-01</totfact>
</mgrwt>
</event>
<event>
 4    5  0.7289609E-008  0.8310508E+03  0.7818608E-02  0.9647291E-01
          2   -1    0    0  501    0  0.00000000000E+00  0.00000000000E+00  0.26102989627E+04  0.26102989627E+04  0.25500000000E-02 0. -1.
         -2   -1    0    0    0  501 -0.00000000000E+00 -0.00000000000E+00 -0.40321356986E+03  0.40321356987E+03  0.25500000000E-02 0.  1.
    8880023    1    1    2    0    0  0.32462031577E+03 -0.38917457594E+03  0.95425690781E+02  0.83651148749E+03  0.65864270000E+03 0.  0.
    8880022    1    1    2    0    0 -0.32462031577E+03  0.38917457594E+03  0.21116597021E+04  0.21770010451E+04  0.15294330000E+03 0. -1.
<mgrwt>
<rscale>  0 0.74243663E+03</rscale>
<asrwt>0</asrwt>
<pdfrwt beam="1">  1        2 0.40158446E+00 0.83105078E+03</pdfrwt>
<pdfrwt beam="2">  1       -2 0.62032856E-01 0.83105078E+03</pdfrwt>
<totfact> 0.75197964E+00</totfact>
</mgrwt>
</event>
<event>
 4    5  0.7289609E-008  0.9984277E+03  0.7818608E-02  0.9383618E-01
          2   -1    0    0  501    0  0.00000000000E+00  0.00000000000E+00  0.24421172863E+04  0.24421172863E+04  0.25500000000E-02 0. -1.
         -2   -1    0    0    0  501 -0.00000000000E+00 -0.00000000000E+00 -0.99839375751E+03  0.99839375751E+03  0.25500000000E-02 0.  1.
    8880023    1    1    2    0    0  0.66116509874E+03 -0.35483569042E+03 -0.66327547243E+03  0.11986626771E+04  0.65864270000E+03 0.  0.
    8880022    1    1    2    0    0 -0.66116509874E+03  0.35483569042E+03  0.21069990012E+04  0.22418483667E+04  0.15294330000E+03 0.  0.
<mgrwt>
<rscale>  0 0.93436239E+03</rscale>
<asrwt>0</asrwt>
<pdfrwt beam="1">  1        2 0.37571035E+00 0.99842769E+03</pdfrwt>
<pdfrwt beam="2">  1       -2 0.15359904E+00 0.99842769E+03</pdfrwt>
<totfact> 0.10627773E+00</totfact>
</mgrwt>
</event>
<event>
 4    5  0.7289609E-008  0.7604087E+03  0.7818608E-02  0.9804050E-01
          2   -1    0    0  501    0  0.00000000000E+00  0.00000000000E+00  0.22114688339E+04  0.22114688339E+04  0.25500000000E-02 0. -1.
         -2   -1    0    0    0  501 -0.00000000000E+00 -0.00000000000E+00 -0.22950115612E+03  0.22950115614E+03  0.25500000000E-02 0.  1.
    8880023    1    1    2    0    0  0.13894446834E+03  0.35370279923E+03  0.51627252859E+03  0.91910759191E+03  0.65864270000E+03 0.  1.
    8880022    1    1    2    0    0 -0.13894446834E+03 -0.35370279923E+03  0.14656951492E+04  0.15218623981E+04  0.15294330000E+03 0.  0.
<mgrwt>
<rscale>  0 0.65145624E+03</rscale>
<asrwt>0</asrwt>
<pdfrwt beam="1">  1        2 0.34022599E+00 0.76040873E+03</pdfrwt>
<pdfrwt beam="2">  1       -2 0.35307868E-01 0.76040873E+03</pdfrwt>
<totfact> 0.39626894E+01</totfact>
</mgrwt>
</event>
<event>
 4    5  0.7289609E-008  0.6672116E+03  0.7818608E-02  0.1017746E+00
          2   -1    0    0  501    0  0.00000000000E+00  0.00000000000E+00  0.82526024301E+03  0.82526024301E+03  0.25500000000E-02 0. -1.
         -2   -1    0    0    0  501 -0.00000000000E+00 -0.00000000000E+00 -0.64803128749E+03  0.64803128749E+03  0.25500000000E-02 0.  1.
    8880023    1    1    2    0    0  0.23744649480E+02  0.10390976797E+03 -0.45930549221E+03  0.81002024030E+03  0.65864270000E+03 0.  1.
    8880022    1    1    2    0    0 -0.23744649480E+02 -0.10390976797E+03  0.63653444773E+03  0.66327129021E+03  0.15294330000E+03 0.  0.
<mgrwt>
<rscale>  0 0.48508879E+03</rscale>
<asrwt>0</asrwt>
<pdfrwt beam="1">  1        2 0.12696311E+00 0.66721155E+03</pdfrwt>
<pdfrwt beam="2">  1       -2 0.99697121E-01 0.66721155E+03</pdfrwt>
<totfact> 0.28109196E+01</totfact>
</mgrwt>
</event>
<event>
 4    5  0.7289609E-008  0.6770527E+03  0.7818608E-02  0.1011042E+00
          2   -1    0    0  501    0  0.00000000000E+00  0.00000000000E+00  0.14460954843E+04  0.14460954843E+04  0.25500000000E-02 0. -1.
         -2   -1    0    0    0  501 -0.00000000000E+00 -0.00000000000E+00 -0.34186723154E+03  0.34186723155E+03  0.25500000000E-02 0.  1.
    8880023    1    1    2    0    0  0.62302058542E+02  0.14390466206E+03  0.15304397147E+02  0.67722561167E+03  0.65864270000E+03 0.  1.
    8880022    1    1    2    0    0 -0.62302058542E+02 -0.14390466206E+03  0.10889238556E+04  0.11107371042E+04  0.15294330000E+03 0.  0.
<mgrwt>
<rscale>  0 0.51062415E+03</rscale>
<asrwt>0</asrwt>
<pdfrwt beam="1">  1        2 0.22247623E+00 0.67705266E+03</pdfrwt>
<pdfrwt beam="2">  1       -2 0.52594958E-01 0.67705266E+03</pdfrwt>
<totfact> 0.47815699E+01</totfact>
</mgrwt>
</event>
<event>
 4    5  0.7289609E-008  0.1841408E+04  0.7818608E-02  0.8699970E-01
          2   -1    0    0  501    0  0.00000000000E+00  0.00000000000E+00  0.14951423415E+04  0.14951423415E+04  0.25500000000E-02 0. -1.
         -2   -1    0    0    0  501 -0.00000000000E+00 -0.00000000000E+00 -0.25804169404E+04  0.25804169404E+04  0.25500000000E-02 0.  1.
    8880023    1    1    2    0    0  0.10277722440E+04 -0.13786435922E+04  0.29544546598E+03  0.18649590262E+04  0.65864270000E+03 0.  0.
    8880022    1    1    2    0    0 -0.10277722440E+04  0.13786435922E+04 -0.13807200649E+04  0.22106002557E+04  0.15294330000E+03 0.  0.
<mgrwt>
<rscale>  0 0.18119502E+04</rscale>
<asrwt>0</asrwt>
<pdfrwt beam="1">  1        2 0.23002190E+00 0.18414082E+04</pdfrwt>
<pdfrwt beam="2">  1       -2 0.39698722E+00 0.18414082E+04</pdfrwt>
<totfact> 0.90052572E-02</totfact>
</mgrwt>
</event>
<event>
 4    5  0.7289609E-008  0.7824472E+03  0.7818608E-02  0.9750119E-01
         -2   -1    0    0    0  501 -0.00000000000E+00  0.00000000000E+00  0.76748977665E+03  0.76748977665E+03  0.25500000000E-02 0.  1.
          2   -1    0    0  501    0  0.00000000000E+00 -0.00000000000E+00 -0.17195468630E+04  0.17195468630E+04  0.25500000000E-02 0. -1.
    8880023    1    1    2    0    0 -0.42001357507E+02  0.42029672735E+03  0.52560742969E+03  0.94259579325E+03  0.65864270000E+03 0.  1.
    8880022    1    1    2    0    0  0.42001357507E+02 -0.42029672735E+03 -0.14776645160E+04  0.15444408464E+04  0.15294330000E+03 0.  0.
<mgrwt>
<rscale>  0 0.68109518E+03</rscale>
<asrwt>0</asrwt>
<pdfrwt beam="1">  1        2 0.26454567E+00 0.78244722E+03</pdfrwt>
<pdfrwt beam="2">  1       -2 0.11807535E+00 0.78244722E+03</pdfrwt>
<totfact> 0.54164081E+00</totfact>
</mgrwt>
</event>
<event>
 4    5  0.7289609E-008  0.1041774E+04  0.7818608E-02  0.9328836E-01
         -2   -1    0    0    0  501 -0.00000000000E+00  0.00000000000E+00  0.12977003242E+04  0.12977003242E+04  0.25500000000E-02 0.  1.
          2   -1    0    0  501    0  0.00000000000E+00 -0.00000000000E+00 -0.82022694916E+03  0.82022694916E+03  0.25500000000E-02 0. -1.
    8880023    1    1    2    0    0  0.21586994224E+03 -0.77774235610E+03  0.71409386630E+03  0.12630214806E+04  0.65864270000E+03 0.  0.
    8880022    1    1    2    0    0 -0.21586994224E+03  0.77774235610E+03 -0.23662049129E+03  0.85490579267E+03  0.15294330000E+03 0.  0.
<mgrwt>
<rscale>  0 0.98170962E+03</rscale>
<asrwt>0</asrwt>
<pdfrwt beam="1">  1        2 0.12618876E+00 0.10417741E+04</pdfrwt>
<pdfrwt beam="2">  1       -2 0.19964620E+00 0.10417741E+04</pdfrwt>
<totfact> 0.44037586E+00</totfact>
</mgrwt>
</event>
<event>
 4    5  0.7289609E-008  0.9256664E+03  0.7818608E-02  0.9486025E-01
          2   -1    0    0  501    0  0.00000000000E+00  0.00000000000E+00  0.37189222833E+04  0.37189222833E+04  0.25500000000E-02 0. -1.
         -2   -1    0    0    0  501 -0.00000000000E+00 -0.00000000000E+00 -0.56842593124E+03  0.56842593124E+03  0.25500000000E-02 0.  1.
    8880023    1    1    2    0    0 -0.23523446653E+03 -0.60639321894E+03 -0.13423511946E+03  0.93534873912E+03  0.65864270000E+03 0.  0.
    8880022    1    1    2    0    0  0.23523446653E+03  0.60639321894E+03  0.32847314715E+04  0.33519994754E+04  0.15294330000E+03 0.  0.
<mgrwt>
<rscale>  0 0.85322034E+03</rscale>
<asrwt>0</asrwt>
<pdfrwt beam="1">  1        2 0.57214190E+00 0.92566635E+03</pdfrwt>
<pdfrwt beam="2">  1       -2 0.87450142E-01 0.92566635E+03</pdfrwt>
<totfact> 0.67433412E-01</totfact>
</mgrwt>
</event>
<event>
 4    5  0.7289609E-008  0.1403271E+04  0.7818608E-02  0.8981145E-01
         -2   -1    0    0    0  501 -0.00000000000E+00  0.00000000000E+00  0.80487774310E+03  0.80487774310E+03  0.25500000000E-02 0.  1.
          2   -1    0    0  501    0  0.00000000000E+00 -0.00000000000E+00 -0.25521612402E+04  0.25521612402E+04  0.25500000000E-02 0. -1.
    8880023    1    1    2    0    0 -0.12280863350E+04 -0.16481201761E+03 -0.28082026826E+03  0.14310937344E+04  0.65864270000E+03 0.  0.
    8880022    1    1    2    0    0  0.12280863350E+04  0.16481201761E+03 -0.14664632288E+04  0.19259452489E+04  0.15294330000E+03 0.  0.
<mgrwt>
<rscale>  0 0.13628662E+04</rscale>
<asrwt>0</asrwt>
<pdfrwt beam="1">  1        2 0.39264019E+00 0.14032709E+04</pdfrwt>
<pdfrwt beam="2">  1       -2 0.12382735E+00 0.14032709E+04</pdfrwt>
<totfact> 0.15276976E+00</totfact>
</mgrwt>
</event>
<event>
 4    5  0.7289609E-008  0.6626970E+03  0.7818608E-02  0.1021549E+00
         -2   -1    0    0    0  501 -0.00000000000E+00  0.00000000000E+00  0.33977524822E+03  0.33977524823E+03  0.25500000000E-02 0.  1.
          2   -1    0    0  501    0  0.00000000000E+00 -0.00000000000E+00 -0.63968273616E+03  0.63968273616E+03  0.25500000000E-02 0. -1.
    8880023    1    1    2    0    0 -0.63139446120E+02  0.37021145333E+02 -0.33339613908E+02  0.66353514675E+03  0.65864270000E+03 0.  1.
    8880022    1    1    2    0    0  0.63139446120E+02 -0.37021145333E+02 -0.26656787404E+03  0.31592283764E+03  0.15294330000E+03 0.  0.
<mgrwt>
<rscale>  0 0.47131770E+03</rscale>
<asrwt>0</asrwt>
<pdfrwt beam="1">  1        2 0.98412729E-01 0.66269704E+03</pdfrwt>
<pdfrwt beam="2">  1       -2 0.52273115E-01 0.66269704E+03</pdfrwt>
<totfact> 0.16079284E+02</totfact>
</mgrwt>
</event>
<event>
 4    5  0.7289609E-008  0.1958037E+04  0.7818608E-02  0.8639812E-01
          2   -1    0    0  501    0  0.00000000000E+00  0.00000000000E+00  0.37321199284E+04  0.37321199284E+04  0.25500000000E-02 0. -1.
         -2   -1    0    0    0  501 -0.00000000000E+00 -0.00000000000E+00 -0.12116838889E+04  0.12116838889E+04  0.25500000000E-02 0.  1.
    8880023    1    1    2    0    0  0.16005730729E+04 -0.91556688194E+03  0.18864254037E+03  0.19671027150E+04  0.65864270000E+03 0.  0.
    8880022    1    1    2    0    0 -0.16005730729E+04  0.91556688194E+03  0.23317934991E+04  0.29767011023E+04  0.15294330000E+03 0.  0.
<mgrwt>
<rscale>  0 0.19305195E+04</rscale>
<asrwt>0</asrwt>
<pdfrwt beam="1">  1        2 0.57417228E+00 0.19580365E+04</pdfrwt>
<pdfrwt beam="2">  1       -2 0.18641291E+00 0.19580365E+04</pdfrwt>
<totfact> 0.81574186E-02</totfact>
</mgrwt>
</event>
<event>
 4    5  0.7289609E-008  0.9471300E+03  0.7818608E-02  0.9454255E-01
         -2   -1    0    0    0  501 -0.00000000000E+00  0.00000000000E+00  0.54678679486E+03  0.54678679487E+03  0.25500000000E-02 0.  1.
          2   -1    0    0  501    0  0.00000000000E+00 -0.00000000000E+00 -0.17641691368E+04  0.17641691368E+04  0.25500000000E-02 0. -1.
    8880023    1    1    2    0    0  0.26889064168E+03  0.62525424014E+03 -0.46813210557E+02  0.94828620413E+03  0.65864270000E+03 0.  1.
    8880022    1    1    2    0    0 -0.26889064168E+03 -0.62525424014E+03 -0.11705691313E+04  0.13626697275E+04  0.15294330000E+03 0.  0.
<mgrwt>
<rscale>  0 0.87742055E+03</rscale>
<asrwt>0</asrwt>
<pdfrwt beam="1">  1        2 0.27141063E+00 0.94713001E+03</pdfrwt>
<pdfrwt beam="2">  1       -2 0.84121046E-01 0.94713001E+03</pdfrwt>
<totfact> 0.11198106E+01</totfact>
</mgrwt>
</event>
<event>
 4    5  0.7289609E-008  0.1383223E+04  0.7818608E-02  0.8996830E-01
          2   -1    0    0  501    0  0.00000000000E+00  0.00000000000E+00  0.33144440165E+04  0.33144440165E+04  0.25500000000E-02 0. -1.
         -2   -1    0    0    0  501 -0.00000000000E+00 -0.00000000000E+00 -0.68366086752E+03  0.68366086753E+03  0.25500000000E-02 0.  1.
    8880023    1    1    2    0    0  0.60482475028E+03 -0.10553117052E+04  0.37894839708E+03  0.14341924096E+04  0.65864270000E+03 0.  0.
    8880022    1    1    2    0    0 -0.60482475028E+03  0.10553117052E+04  0.22518347519E+04  0.25639124744E+04  0.15294330000E+03 0.  0.
<mgrwt>
<rscale>  0 0.13421003E+04</rscale>
<asrwt>0</asrwt>
<pdfrwt beam="1">  1        2 0.50991445E+00 0.13832230E+04</pdfrwt>
<pdfrwt beam="2">  1       -2 0.10517860E+00 0.13832230E+04</pdfrwt>
<totfact> 0.77511974E-01</totfact>
</mgrwt>
</event>
<event>
 4    5  0.7289609E-008  0.7231866E+03  0.7818608E-02  0.9911947E-01
          2   -1    0    0  501    0  0.00000000000E+00  0.00000000000E+00  0.15772393231E+04  0.15772393231E+04  0.25500000000E-02 0. -1.
         -2   -1    0    0    0  501 -0.00000000000E+00 -0.00000000000E+00 -0.24498881769E+03  0.24498881770E+03  0.25500000000E-02 0.  1.
    8880023    1    1    2    0    0  0.10625775636E+03 -0.27910212868E+03  0.38919639688E+03  0.82126289982E+03  0.65864270000E+03 0.  1.
    8880022    1    1    2    0    0 -0.10625775636E+03  0.27910212868E+03  0.94305410853E+03  0.10009652410E+04  0.15294330000E+03 0.  0.
<mgrwt>
<rscale>  0 0.59685746E+03</rscale>
<asrwt>0</asrwt>
<pdfrwt beam="1">  1        2 0.24265220E+00 0.72318664E+03</pdfrwt>
<pdfrwt beam="2">  1       -2 0.37690588E-01 0.72318664E+03</pdfrwt>
<totfact> 0.78055267E+01</totfact>
</mgrwt>
</event>
<event>
 4    5  0.7289609E-008  0.6963998E+03  0.7818608E-02  0.1001248E+00
         -2   -1    0    0    0  501 -0.00000000000E+00  0.00000000000E+00  0.27435057310E+03  0.27435057311E+03  0.25500000000E-02 0.  1.
          2   -1    0    0  501    0  0.00000000000E+00 -0.00000000000E+00 -0.14501053696E+04  0.14501053696E+04  0.25500000000E-02 0. -1.
    8880023    1    1    2    0    0 -0.20064936728E+03  0.10441435366E+03 -0.21978867771E+03  0.73026008720E+03  0.65864270000E+03 0.  0.
    8880022    1    1    2    0    0  0.20064936728E+03 -0.10441435366E+03 -0.95596611877E+03  0.99419585550E+03  0.15294330000E+03 0.  0.
<mgrwt>
<rscale>  0 0.55106521E+03</rscale>
<asrwt>0</asrwt>
<pdfrwt beam="1">  1        2 0.22309313E+00 0.69639984E+03</pdfrwt>
<pdfrwt beam="2">  1       -2 0.42207781E-01 0.69639984E+03</pdfrwt>
<totfact> 0.73862838E+01</totfact>
</mgrwt>
</event>
<event>
 4    5  0.7289609E-008  0.8867103E+03  0.7818608E-02  0.9547712E-01
         -2   -1    0    0    0  501 -0.00000000000E+00  0.00000000000E+00  0.49010258564E+03  0.49010258565E+03  0.25500000000E-02 0.  1.
          2   -1    0    0  501    0  0.00000000000E+00 -0.00000000000E+00 -0.32278742800E+04  0.32278742800E+04  0.25500000000E-02 0. -1.
    8880023    1    1    2    0    0  0.25157787163E+03 -0.53773001155E+03  0.25937074879E+02  0.88708958337E+03  0.65864270000E+03 0.  1.
    8880022    1    1    2    0    0 -0.25157787163E+03  0.53773001155E+03 -0.27637087693E+04  0.28308872823E+04  0.15294330000E+03 0.  0.
<mgrwt>
<rscale>  0 0.80855807E+03</rscale>
<asrwt>0</asrwt>
<pdfrwt beam="1">  1        2 0.49659603E+00 0.88671032E+03</pdfrwt>
<pdfrwt beam="2">  1       -2 0.75400400E-01 0.88671032E+03</pdfrwt>
<totfact> 0.20552170E+00</totfact>
</mgrwt>
</event>
<event>
 4    5  0.7289609E-008  0.6871223E+03  0.7818608E-02  0.1005551E+00
          2   -1    0    0  501    0  0.00000000000E+00  0.00000000000E+00  0.13196230016E+04  0.13196230016E+04  0.25500000000E-02 0. -1.
         -2   -1    0    0    0  501 -0.00000000000E+00 -0.00000000000E+00 -0.18989852369E+03  0.18989852371E+03  0.25500000000E-02 0.  1.
    8880023    1    1    2    0    0 -0.15381681286E+03  0.12110838030E+03  0.55453994097E+03  0.88297882426E+03  0.65864270000E+03 0.  1.
    8880022    1    1    2    0    0  0.15381681286E+03 -0.12110838030E+03  0.57518453694E+03  0.62654270106E+03  0.15294330000E+03 0.  0.
<mgrwt>
<rscale>  0 0.53281625E+03</rscale>
<asrwt>0</asrwt>
<pdfrwt beam="1">  1        2 0.20301892E+00 0.68712230E+03</pdfrwt>
<pdfrwt beam="2">  1       -2 0.29215158E-01 0.68712230E+03</pdfrwt>
<totfact> 0.17654205E+02</totfact>
</mgrwt>
</event>
<event>
 4    5  0.7289609E-008  0.1048175E+04  0.7818608E-02  0.9321078E-01
         -2   -1    0    0    0  501 -0.00000000000E+00  0.00000000000E+00  0.78416201708E+03  0.78416201709E+03  0.25500000000E-02 0.  1.
          2   -1    0    0  501    0  0.00000000000E+00 -0.00000000000E+00 -0.14262540112E+04  0.14262540112E+04  0.25500000000E-02 0. -1.
    8880023    1    1    2    0    0 -0.75662330781E+03 -0.30394514331E+03  0.15542914251E+03  0.10596366852E+04  0.65864270000E+03 0.  1.
    8880022    1    1    2    0    0  0.75662330781E+03  0.30394514331E+03 -0.79752113668E+03  0.11507793431E+04  0.15294330000E+03 0.  0.
<mgrwt>
<rscale>  0 0.98865325E+03</rscale>
<asrwt>0</asrwt>
<pdfrwt beam="1">  1        2 0.21942369E+00 0.10481754E+04</pdfrwt>
<pdfrwt beam="2">  1       -2 0.12064031E+00 0.10481754E+04</pdfrwt>
<totfact> 0.72421737E+00</totfact>
</mgrwt>
</event>
<event>
 4    5  0.7289609E-008  0.7570091E+03  0.7818608E-02  0.9812913E-01
          2   -1    0    0  501    0  0.00000000000E+00  0.00000000000E+00  0.14086195397E+04  0.14086195397E+04  0.25500000000E-02 0. -1.
         -2   -1    0    0    0  501 -0.00000000000E+00 -0.00000000000E+00 -0.60647488544E+03  0.60647488544E+03  0.25500000000E-02 0.  1.
    8880023    1    1    2    0    0  0.30435131069E+03  0.21592338767E+03 -0.32061184476E+03  0.82210388086E+03  0.65864270000E+03 0.  0.
    8880022    1    1    2    0    0 -0.30435131069E+03 -0.21592338767E+03  0.11227564990E+04  0.11929905443E+04  0.15294330000E+03 0.  0.
<mgrwt>
<rscale>  0 0.64674144E+03</rscale>
<asrwt>0</asrwt>
<pdfrwt beam="1">  1        2 0.21671070E+00 0.75700914E+03</pdfrwt>
<pdfrwt beam="2">  1       -2 0.93303828E-01 0.75700914E+03</pdfrwt>
<totfact> 0.14210556E+01</totfact>
</mgrwt>
</event>
<event>
 4    5  0.7289609E-008  0.6659093E+03  0.7818608E-02  0.1018782E+00
          2   -1    0    0  501    0  0.00000000000E+00  0.00000000000E+00  0.10048844945E+04  0.10048844945E+04  0.25500000000E-02 0. -1.
         -2   -1    0    0    0  501 -0.00000000000E+00 -0.00000000000E+00 -0.34879841981E+03  0.34879841982E+03  0.25500000000E-02 0.  1.
    8880023    1    1    2    0    0 -0.87954377543E+02 -0.43462710276E+02 -0.72104110866E+01  0.66594832833E+03  0.65864270000E+03 0.  1.
    8880022    1    1    2    0    0  0.87954377543E+02  0.43462710276E+02  0.66329648574E+03  0.68773458596E+03  0.15294330000E+03 0.  0.
<mgrwt>
<rscale>  0 0.48128564E+03</rscale>
<asrwt>0</asrwt>
<pdfrwt beam="1">  1        2 0.15459761E+00 0.66590929E+03</pdfrwt>
<pdfrwt beam="2">  1       -2 0.53661296E-01 0.66590929E+03</pdfrwt>
<totfact> 0.83566841E+01</totfact>
</mgrwt>
</event>
<event>
 4    5  0.7289609E-008  0.1140606E+04  0.7818608E-02  0.9217139E-01
         -2   -1    0    0    0  501 -0.00000000000E+00  0.00000000000E+00  0.16998787348E+04  0.16998787348E+04  0.25500000000E-02 0.  1.
          2   -1    0    0  501    0  0.00000000000E+00 -0.00000000000E+00 -0.12806518668E+04  0.12806518668E+04  0.25500000000E-02 0. -1.
    8880023    1    1    2    0    0 -0.27992028654E+03 -0.88815284679E+03  0.12720785334E+04  0.17085563636E+04  0.65864270000E+03 0.  1.
    8880022    1    1    2    0    0  0.27992028654E+03  0.88815284679E+03 -0.85285166538E+03  0.12719742380E+04  0.15294330000E+03 0.  0.
<mgrwt>
<rscale>  0 0.10878266E+04</rscale>
<asrwt>0</asrwt>
<pdfrwt beam="1">  1        2 0.19702336E+00 0.11406056E+04</pdfrwt>
<pdfrwt beam="2">  1       -2 0.26151981E+00 0.11406056E+04</pdfrwt>
<totfact> 0.90817529E-01</totfact>
</mgrwt>
</event>
<event>
 4    5  0.7289609E-008  0.8192570E+03  0.7818608E-02  0.9670608E-01
          2   -1    0    0  501    0  0.00000000000E+00  0.00000000000E+00  0.35095628018E+04  0.35095628018E+04  0.25500000000E-02 0. -1.
         -2   -1    0    0    0  501 -0.00000000000E+00 -0.00000000000E+00 -0.98884879913E+03  0.98884879913E+03  0.25500000000E-02 0.  1.
    8880023    1    1    2    0    0  0.36624206446E+03 -0.32130762738E+03 -0.79620160032E+03  0.11424180652E+04  0.65864270000E+03 0.  1.
    8880022    1    1    2    0    0 -0.36624206446E+03  0.32130762738E+03  0.33169156030E+04  0.33559935357E+04  0.15294330000E+03 0.  0.
<mgrwt>
<rscale>  0 0.72794065E+03</rscale>
<asrwt>0</asrwt>
<pdfrwt beam="1">  1        2 0.53993274E+00 0.81925701E+03</pdfrwt>
<pdfrwt beam="2">  1       -2 0.15213058E+00 0.81925701E+03</pdfrwt>
<totfact> 0.24775015E-01</totfact>
</mgrwt>
</event>
<event>
 4    5  0.7289609E-008  0.8672452E+03  0.7818608E-02  0.9580803E-01
         -2   -1    0    0    0  501 -0.00000000000E+00  0.00000000000E+00  0.13393702480E+04  0.13393702480E+04  0.25500000000E-02 0.  1.
          2   -1    0    0  501    0  0.00000000000E+00 -0.00000000000E+00 -0.96328799542E+03  0.96328799542E+03  0.25500000000E-02 0. -1.
    8880023    1    1    2    0    0  0.29569811715E+03 -0.48048587916E+03  0.10816582572E+04  0.13863977958E+04  0.65864270000E+03 0.  0.
    8880022    1    1    2    0    0 -0.29569811715E+03  0.48048587916E+03 -0.70557600463E+03  0.91626044762E+03  0.15294330000E+03 0.  0.
<mgrwt>
<rscale>  0 0.78579882E+03</rscale>
<asrwt>0</asrwt>
<pdfrwt beam="1">  1        2 0.14819815E+00 0.86724521E+03</pdfrwt>
<pdfrwt beam="2">  1       -2 0.20605696E+00 0.86724521E+03</pdfrwt>
<totfact> 0.32579183E+00</totfact>
</mgrwt>
</event>
<event>
 4    5  0.7289609E-008  0.6794405E+03  0.7818608E-02  0.1009642E+00
         -2   -1    0    0    0  501 -0.00000000000E+00  0.00000000000E+00  0.37991140529E+03  0.37991140530E+03  0.25500000000E-02 0.  1.
          2   -1    0    0  501    0  0.00000000000E+00 -0.00000000000E+00 -0.22061798222E+04  0.22061798222E+04  0.25500000000E-02 0. -1.
    8880023    1    1    2    0    0  0.61221182388E+02 -0.15518084470E+03  0.63884436851E+02  0.68243721709E+03  0.65864270000E+03 0.  1.
    8880022    1    1    2    0    0 -0.61221182388E+02  0.15518084470E+03 -0.18901528537E+04  0.19036540104E+04  0.15294330000E+03 0.  0.
<mgrwt>
<rscale>  0 0.51617186E+03</rscale>
<asrwt>0</asrwt>
<pdfrwt beam="1">  1        2 0.33941227E+00 0.67944046E+03</pdfrwt>
<pdfrwt beam="2">  1       -2 0.58447910E-01 0.67944046E+03</pdfrwt>
<totfact> 0.14743546E+01</totfact>
</mgrwt>
</event>
<event>
 4    5  0.7289609E-008  0.1867452E+04  0.7818608E-02  0.8686114E-01
         -2   -1    0    0    0  501 -0.00000000000E+00  0.00000000000E+00  0.17272142074E+04  0.17272142074E+04  0.25500000000E-02 0.  1.
          2   -1    0    0  501    0  0.00000000000E+00 -0.00000000000E+00 -0.27264988004E+04  0.27264988004E+04  0.25500000000E-02 0. -1.
    8880023    1    1    2    0    0  0.15057752555E+04  0.88668320497E+03 -0.17373477029E+04  0.25506378561E+04  0.65864270000E+03 0.  0.
    8880022    1    1    2    0    0 -0.15057752555E+04 -0.88668320497E+03  0.73806310989E+03  0.19030751517E+04  0.15294330000E+03 0.  0.
<mgrwt>
<rscale>  0 0.18384518E+04</rscale>
<asrwt>0</asrwt>
<pdfrwt beam="1">  1        2 0.41946135E+00 0.18674519E+04</pdfrwt>
<pdfrwt beam="2">  1       -2 0.26572526E+00 0.18674519E+04</pdfrwt>
<totfact> 0.11853472E-01</totfact>
</mgrwt>
</event>
<event>
 4    5  0.7289609E-008  0.7719258E+03  0.7818608E-02  0.9775157E-01
         -2   -1    0    0    0  501 -0.00000000000E+00  0.00000000000E+00  0.18181701674E+04  0.18181701674E+04  0.25500000000E-02 0.  1.
          2   -1    0    0  501    0  0.00000000000E+00 -0.00000000000E+00 -0.56587897615E+03  0.56587897615E+03  0.25500000000E-02 0. -1.
    8880023    1    1    2    0    0 -0.37965054904E+02 -0.40077167050E+03  0.16349126912E+04  0.18079847874E+04  0.65864270000E+03 0.  1.
    8880022    1    1    2    0    0  0.37965054904E+02  0.40077167050E+03 -0.38262149992E+03  0.57606435620E+03  0.15294330000E+03 0.  0.
<mgrwt>
<rscale>  0 0.66712975E+03</rscale>
<asrwt>0</asrwt>
<pdfrwt beam="1">  1        2 0.87058304E-01 0.77192583E+03</pdfrwt>
<pdfrwt beam="2">  1       -2 0.27971849E+00 0.77192583E+03</pdfrwt>
<totfact> 0.23251961E+00</totfact>
</mgrwt>
</event>
<event>
 4    5  0.7289609E-008  0.6893370E+03  0.7818608E-02  0.1004469E+00
         -2   -1    0    0    0  501 -0.00000000000E+00  0.00000000000E+00  0.63390967131E+03  0.63390967132E+03  0.25500000000E-02 0.  1.
          2   -1    0    0  501    0  0.00000000000E+00 -0.00000000000E+00 -0.10523272185E+04  0.10523272185E+04  0.25500000000E-02 0. -1.
    8880023    1    1    2    0    0 -0.14970829949E+03 -0.13770525508E+03  0.42191945365E+03  0.80820884915E+03  0.65864270000E+03 0.  1.
    8880022    1    1    2    0    0  0.14970829949E+03  0.13770525508E+03 -0.84033700081E+03  0.87802804064E+03  0.15294330000E+03 0.  0.
<mgrwt>
<rscale>  0 0.53733223E+03</rscale>
<asrwt>0</asrwt>
<pdfrwt beam="1">  1        2 0.16189650E+00 0.68933701E+03</pdfrwt>
<pdfrwt beam="2">  1       -2 0.97524565E-01 0.68933701E+03</pdfrwt>
<totfact> 0.20934876E+01</totfact>
</mgrwt>
</event>
<event>
 4    5  0.7289609E-008  0.1013969E+04  0.7818608E-02  0.9363506E-01
          2   -1    0    0  501    0  0.00000000000E+00  0.00000000000E+00  0.22812315497E+04  0.22812315497E+04  0.25500000000E-02 0. -1.
         -2   -1    0    0    0  501 -0.00000000000E+00 -0.00000000000E+00 -0.10556081448E+04  0.10556081448E+04  0.25500000000E-02 0.  1.
    8880023    1    1    2    0    0 -0.50414092048E+02 -0.76927286456E+03 -0.71659251487E+03  0.12416269003E+04  0.65864270000E+03 0.  0.
    8880022    1    1    2    0    0  0.50414092048E+02  0.76927286456E+03  0.19422159198E+04  0.20952127942E+04  0.15294330000E+03 0.  0.
<mgrwt>
<rscale>  0 0.95140809E+03</rscale>
<asrwt>0</asrwt>
<pdfrwt beam="1">  1        2 0.35095870E+00 0.10139687E+04</pdfrwt>
<pdfrwt beam="2">  1       -2 0.16240125E+00 0.10139687E+04</pdfrwt>
<totfact> 0.11232260E+00</totfact>
</mgrwt>
</event>
<event>
 4    5  0.7289609E-008  0.8545647E+03  0.7818608E-02  0.9603306E-01
         -2   -1    0    0    0  501 -0.00000000000E+00  0.00000000000E+00  0.62075133440E+03  0.62075133440E+03  0.25500000000E-02 0.  1.
          2   -1    0    0  501    0  0.00000000000E+00 -0.00000000000E+00 -0.99911325663E+03  0.99911325663E+03  0.25500000000E-02 0. -1.
    8880023    1    1    2    0    0  0.37669142134E+03 -0.39315923260E+03  0.12386585450E+03  0.86349497119E+03  0.65864270000E+03 0.  1.
    8880022    1    1    2    0    0 -0.37669142134E+03  0.39315923260E+03 -0.50222777673E+03  0.75636961985E+03  0.15294330000E+03 0.  0.
<mgrwt>
<rscale>  0 0.77077760E+03</rscale>
<asrwt>0</asrwt>
<pdfrwt beam="1">  1        2 0.15370973E+00 0.85456469E+03</pdfrwt>
<pdfrwt beam="2">  1       -2 0.95500205E-01 0.85456469E+03</pdfrwt>
<totfact> 0.23366398E+01</totfact>
</mgrwt>
</event>
<event>
 4    5  0.7289609E-008  0.8339397E+03  0.7818608E-02  0.9641715E-01
         -2   -1    0    0    0  501 -0.00000000000E+00  0.00000000000E+00  0.30794440181E+03  0.30794440182E+03  0.25500000000E-02 0.  1.
          2   -1    0    0  501    0  0.00000000000E+00 -0.00000000000E+00 -0.19047430518E+04  0.19047430518E+04  0.25500000000E-02 0. -1.
    8880023    1    1    2    0    0 -0.32605366094E+03  0.39412456216E+03 -0.44977163632E+03  0.94749664454E+03  0.65864270000E+03 0.  1.
    8880022    1    1    2    0    0  0.32605366094E+03 -0.39412456216E+03 -0.11470270137E+04  0.12651908091E+04  0.15294330000E+03 0.  0.
<mgrwt>
<rscale>  0 0.74595665E+03</rscale>
<asrwt>0</asrwt>
<pdfrwt beam="1">  1        2 0.29303739E+00 0.83393967E+03</pdfrwt>
<pdfrwt beam="2">  1       -2 0.47376063E-01 0.83393967E+03</pdfrwt>
<totfact> 0.32508035E+01</totfact>
</mgrwt>
</event>
<event>
 4    5  0.7289609E-008  0.6721232E+03  0.7818608E-02  0.1014184E+00
         -2   -1    0    0    0  501 -0.00000000000E+00  0.00000000000E+00  0.11256415639E+03  0.11256415641E+03  0.25500000000E-02 0.  1.
          2   -1    0    0  501    0  0.00000000000E+00 -0.00000000000E+00 -0.24952885224E+04  0.24952885224E+04  0.25500000000E-02 0. -1.
    8880023    1    1    2    0    0  0.74466092937E+02  0.11132910073E+03 -0.96721006320E+03  0.11778136017E+04  0.65864270000E+03 0.  1.
    8880022    1    1    2    0    0 -0.74466092937E+02 -0.11132910073E+03 -0.14155143028E+04  0.14300390772E+04  0.15294330000E+03 0.  0.
<mgrwt>
<rscale>  0 0.49844951E+03</rscale>
<asrwt>0</asrwt>
<pdfrwt beam="1">  1        2 0.38389050E+00 0.67212318E+03</pdfrwt>
<pdfrwt beam="2">  1       -2 0.17317564E-01 0.67212318E+03</pdfrwt>
<totfact> 0.10066443E+02</totfact>
</mgrwt>
</event>
<event>
 4    5  0.7289609E-008  0.7167641E+03  0.7818608E-02  0.9933691E-01
          2   -1    0    0  501    0  0.00000000000E+00  0.00000000000E+00  0.19817090979E+04  0.19817090979E+04  0.25500000000E-02 0. -1.
         -2   -1    0    0    0  501 -0.00000000000E+00 -0.00000000000E+00 -0.12016629436E+04  0.12016629436E+04  0.25500000000E-02 0.  1.
    8880023    1    1    2    0    0 -0.20053914033E+03 -0.19931025483E+03 -0.10797510040E+04  0.12959988277E+04  0.65864270000E+03 0.  1.
    8880022    1    1    2    0    0  0.20053914033E+03  0.19931025483E+03  0.18597971584E+04  0.18873732137E+04  0.15294330000E+03 0.  0.
<mgrwt>
<rscale>  0 0.58655888E+03</rscale>
<asrwt>0</asrwt>
<pdfrwt beam="1">  1        2 0.30487832E+00 0.71676407E+03</pdfrwt>
<pdfrwt beam="2">  1       -2 0.18487122E+00 0.71676407E+03</pdfrwt>
<totfact> 0.12036066E+00</totfact>
</mgrwt>
</event>
<event>
 4    5  0.7289609E-008  0.1020273E+04  0.7818608E-02  0.9355502E-01
          2   -1    0    0  501    0  0.00000000000E+00  0.00000000000E+00  0.18842537701E+04  0.18842537701E+04  0.25500000000E-02 0. -1.
         -2   -1    0    0    0  501 -0.00000000000E+00 -0.00000000000E+00 -0.15237733307E+04  0.15237733307E+04  0.25500000000E-02 0.  1.
    8880023    1    1    2    0    0  0.57961020512E+03 -0.52076703200E+03 -0.12493433811E+04  0.16130143774E+04  0.65864270000E+03 0.  0.
    8880022    1    1    2    0    0 -0.57961020512E+03  0.52076703200E+03  0.16098238204E+04  0.17950127234E+04  0.15294330000E+03 0.  0.
<mgrwt>
<rscale>  0 0.95829919E+03</rscale>
<asrwt>0</asrwt>
<pdfrwt beam="1">  1        2 0.28988520E+00 0.10202728E+04</pdfrwt>
<pdfrwt beam="2">  1       -2 0.23442667E+00 0.10202728E+04</pdfrwt>
<totfact> 0.61959655E-01</totfact>
</mgrwt>
</event>
<event>
 4    5  0.7289609E-008  0.1703905E+04  0.7818608E-02  0.8777642E-01
         -2   -1    0    0    0  501 -0.00000000000E+00  0.00000000000E+00  0.10303593571E+04  0.10303593571E+04  0.25500000000E-02 0.  1.
          2   -1    0    0  501    0  0.00000000000E+00 -0.00000000000E+00 -0.33189690042E+04  0.33189690042E+04  0.25500000000E-02 0. -1.
    8880023    1    1    2    0    0 -0.48279505281E+02  0.15707171516E+04 -0.17752571301E+03  0.17131283858E+04  0.65864270000E+03 0.  0.
    8880022    1    1    2    0    0  0.48279505281E+02 -0.15707171516E+04 -0.21110839341E+04  0.26361999755E+04  0.15294330000E+03 0.  0.
<mgrwt>
<rscale>  0 0.16717513E+04</rscale>
<asrwt>0</asrwt>
<pdfrwt beam="1">  1        2 0.51061061E+00 0.17039054E+04</pdfrwt>
<pdfrwt beam="2">  1       -2 0.15851683E+00 0.17039054E+04</pdfrwt>
<totfact> 0.25928322E-01</totfact>
</mgrwt>
</event>
<event>
 4    5  0.7289609E-008  0.9370438E+03  0.7818608E-02  0.9469006E-01
         -2   -1    0    0    0  501 -0.00000000000E+00  0.00000000000E+00  0.37271163296E+03  0.37271163297E+03  0.25500000000E-02 0.  1.
          2   -1    0    0  501    0  0.00000000000E+00 -0.00000000000E+00 -0.26286300598E+04  0.26286300598E+04  0.25500000000E-02 0. -1.
    8880023    1    1    2    0    0 -0.48609933518E+03 -0.45601349039E+03 -0.39162915541E+03  0.10155906994E+04  0.65864270000E+03 0. -1.
    8880022    1    1    2    0    0  0.48609933518E+03  0.45601349039E+03 -0.18642892715E+04  0.19857509934E+04  0.15294330000E+03 0.  0.
<mgrwt>
<rscale>  0 0.86607999E+03</rscale>
<asrwt>0</asrwt>
<pdfrwt beam="1">  1        2 0.40440461E+00 0.93704379E+03</pdfrwt>
<pdfrwt beam="2">  1       -2 0.57340253E-01 0.93704379E+03</pdfrwt>
<totfact> 0.85331774E+00</totfact>
</mgrwt>
</event>
<event>
 4    5  0.7289609E-008  0.7254709E+03  0.7818608E-02  0.9904491E-01
         -2   -1    0    0    0  501 -0.00000000000E+00  0.00000000000E+00  0.12189671401E+04  0.12189671401E+04  0.25500000000E-02 0.  1.
          2   -1    0    0  501    0  0.00000000000E+00 -0.00000000000E+00 -0.52183729562E+03  0.52183729562E+03  0.25500000000E-02 0. -1.
    8880023    1    1    2    0    0  0.18936992966E+02 -0.30354442619E+03  0.10331854752E+04  0.12624501023E+04  0.65864270000E+03 0.  1.
    8880022    1    1    2    0    0 -0.18936992966E+02  0.30354442619E+03 -0.33605563070E+03  0.47835433343E+03  0.15294330000E+03 0.  0.
<mgrwt>
<rscale>  0 0.60044123E+03</rscale>
<asrwt>0</asrwt>
<pdfrwt beam="1">  1        2 0.80282661E-01 0.72547091E+03</pdfrwt>
<pdfrwt beam="2">  1       -2 0.18753341E+00 0.72547091E+03</pdfrwt>
<totfact> 0.96262611E+00</totfact>
</mgrwt>
</event>
<event>
 4    5  0.7289609E-008  0.1141894E+04  0.7818608E-02  0.9215786E-01
          2   -1    0    0  501    0  0.00000000000E+00  0.00000000000E+00  0.25359446719E+04  0.25359446719E+04  0.25500000000E-02 0. -1.
         -2   -1    0    0    0  501 -0.00000000000E+00 -0.00000000000E+00 -0.56627670792E+03  0.56627670793E+03  0.25500000000E-02 0.  1.
    8880023    1    1    2    0    0 -0.38914634812E+03 -0.84774794192E+03  0.18151010588E+04  0.21444144920E+04  0.65864270000E+03 0.  0.
    8880022    1    1    2    0    0  0.38914634812E+03  0.84774794192E+03  0.15456690516E+03  0.95780688788E+03  0.15294330000E+03 0.  0.
<mgrwt>
<rscale>  0 0.10891967E+04</rscale>
<asrwt>0</asrwt>
<pdfrwt beam="1">  1        2 0.39014533E+00 0.11418939E+04</pdfrwt>
<pdfrwt beam="2">  1       -2 0.87119494E-01 0.11418939E+04</pdfrwt>
<totfact> 0.37494988E+00</totfact>
</mgrwt>
</event>
<event>
 4    5  0.7289609E-008  0.1137417E+04  0.7818608E-02  0.9220497E-01
         -2   -1    0    0    0  501 -0.00000000000E+00  0.00000000000E+00  0.53270506349E+03  0.53270506350E+03  0.25500000000E-02 0.  1.
          2   -1    0    0  501    0  0.00000000000E+00 -0.00000000000E+00 -0.26717453124E+04  0.26717453124E+04  0.25500000000E-02 0. -1.
    8880023    1    1    2    0    0  0.92543754748E+03 -0.58932153400E+02 -0.36105354953E+03  0.11933471938E+04  0.65864270000E+03 0.  0.
    8880022    1    1    2    0    0 -0.92543754748E+03  0.58932153400E+02 -0.17779866994E+04  0.20111031821E+04  0.15294330000E+03 0.  0.
<mgrwt>
<rscale>  0 0.10844345E+04</rscale>
<asrwt>0</asrwt>
<pdfrwt beam="1">  1        2 0.41103773E+00 0.11374172E+04</pdfrwt>
<pdfrwt beam="2">  1       -2 0.81954627E-01 0.11374172E+04</pdfrwt>
<totfact> 0.35971823E+00</totfact>
</mgrwt>
</event>
<event>
 4    5  0.7289609E-008  0.9310947E+03  0.7818608E-02  0.9477853E-01
          2   -1    0    0  501    0  0.00000000000E+00  0.00000000000E+00  0.97860392377E+03  0.97860392378E+03  0.25500000000E-02 0. -1.
         -2   -1    0    0    0  501 -0.00000000000E+00 -0.00000000000E+00 -0.14220435962E+04  0.14220435962E+04  0.25500000000E-02 0.  1.
    8880023    1    1    2    0    0 -0.46808429154E+03  0.46262751902E+03 -0.11118553560E+04  0.14502274526E+04  0.65864270000E+03 0.  1.
    8880022    1    1    2    0    0  0.46808429154E+03 -0.46262751902E+03  0.66841568359E+03  0.95042006736E+03  0.15294330000E+03 0.  0.
<mgrwt>
<rscale>  0 0.85936512E+03</rscale>
<asrwt>0</asrwt>
<pdfrwt beam="1">  1        2 0.15055445E+00 0.93109470E+03</pdfrwt>
<pdfrwt beam="2">  1       -2 0.21877594E+00 0.93109470E+03</pdfrwt>
<totfact> 0.26211723E+00</totfact>
</mgrwt>
</event>
<event>
 4    5  0.7289609E-008  0.1275689E+04  0.7818608E-02  0.9086843E-01
         -2   -1    0    0    0  501 -0.00000000000E+00  0.00000000000E+00  0.16242332432E+04  0.16242332432E+04  0.25500000000E-02 0.  1.
          2   -1    0    0  501    0  0.00000000000E+00 -0.00000000000E+00 -0.17140473120E+04  0.17140473120E+04  0.25500000000E-02 0. -1.
    8880023    1    1    2    0    0  0.91543121779E+03  0.59628679728E+03  0.11224589338E+04  0.16992046738E+04  0.65864270000E+03 0.  0.
    8880022    1    1    2    0    0 -0.91543121779E+03 -0.59628679728E+03 -0.12122730026E+04  0.16390758814E+04  0.15294330000E+03 0.  0.
<mgrwt>
<rscale>  0 0.12301790E+04</rscale>
<asrwt>0</asrwt>
<pdfrwt beam="1">  1        2 0.26369959E+00 0.12756890E+04</pdfrwt>
<pdfrwt beam="2">  1       -2 0.24988204E+00 0.12756890E+04</pdfrwt>
<totfact> 0.59678719E-01</totfact>
</mgrwt>
</event>
<event>
 4    5  0.8766858E-008  0.1708404E+04  0.7818608E-02  0.8774971E-01
          2   -1    0    0  501    0  0.00000000000E+00  0.00000000000E+00  0.46320088648E+04  0.46320088648E+04  0.25500000000E-02 0. -1.
         -2   -1    0    0    0  501 -0.00000000000E+00 -0.00000000000E+00 -0.17535544490E+04  0.17535544490E+04  0.25500000000E-02 0.  1.
    8880023    1    1    2    0    0 -0.15759811547E+04 -0.33406360277E+02 -0.11483693825E+04  0.20584933883E+04  0.65864270000E+03 0.  1.
    8880022    1    1    2    0    0  0.15759811547E+04  0.33406360277E+02  0.40268237983E+04  0.43270699255E+04  0.15294330000E+03 0.  0.
<mgrwt>
<rscale>  0 0.16763460E+04</rscale>
<asrwt>0</asrwt>
<pdfrwt beam="1">  1        2 0.71261674E+00 0.17084036E+04</pdfrwt>
<pdfrwt beam="2">  1       -2 0.26977761E+00 0.17084036E+04</pdfrwt>
<totfact> 0.41095827E-03</totfact>
</mgrwt>
</event>
<event>
 4    5  0.7289609E-008  0.7279134E+03  0.7818608E-02  0.9896666E-01
          2   -1    0    0  501    0  0.00000000000E+00  0.00000000000E+00  0.11112201282E+04  0.11112201282E+04  0.25500000000E-02 0. -1.
         -2   -1    0    0    0  501 -0.00000000000E+00 -0.00000000000E+00 -0.34344978038E+03  0.34344978039E+03  0.25500000000E-02 0.  1.
    8880023    1    1    2    0    0  0.27934112101E+03 -0.13422468873E+03  0.14467980807E+03  0.74215239815E+03  0.65864270000E+03 0.  0.
    8880022    1    1    2    0    0 -0.27934112101E+03  0.13422468873E+03  0.62309053969E+03  0.71251751040E+03  0.15294330000E+03 0.  0.
<mgrwt>
<rscale>  0 0.60423132E+03</rscale>
<asrwt>0</asrwt>
<pdfrwt beam="1">  1        2 0.17095694E+00 0.72791341E+03</pdfrwt>
<pdfrwt beam="2">  1       -2 0.52838429E-01 0.72791341E+03</pdfrwt>
<totfact> 0.73707346E+01</totfact>
</mgrwt>
</event>
<event>
 4    5  0.7289609E-008  0.9231104E+03  0.7818608E-02  0.9489906E-01
         -2   -1    0    0    0  501 -0.00000000000E+00  0.00000000000E+00  0.36861967262E+03  0.36861967263E+03  0.25500000000E-02 0.  1.
          2   -1    0    0  501    0  0.00000000000E+00 -0.00000000000E+00 -0.29414874739E+04  0.29414874739E+04  0.25500000000E-02 0. -1.
    8880023    1    1    2    0    0  0.50478374669E+03  0.40437103822E+03 -0.34541989775E+03  0.98562045408E+03  0.65864270000E+03 0.  1.
    8880022    1    1    2    0    0 -0.50478374669E+03 -0.40437103822E+03 -0.22274479035E+04  0.23244866924E+04  0.15294330000E+03 0.  0.
<mgrwt>
<rscale>  0 0.85032099E+03</rscale>
<asrwt>0</asrwt>
<pdfrwt beam="1">  1        2 0.45253652E+00 0.92311038E+03</pdfrwt>
<pdfrwt beam="2">  1       -2 0.56710721E-01 0.92311038E+03</pdfrwt>
<totfact> 0.57051642E+00</totfact>
</mgrwt>
</event>
<event>
 4    5  0.7289609E-008  0.1148004E+04  0.7818608E-02  0.9209402E-01
         -2   -1    0    0    0  501 -0.00000000000E+00  0.00000000000E+00  0.86443691801E+03  0.86443691802E+03  0.25500000000E-02 0.  1.
          2   -1    0    0  501    0  0.00000000000E+00 -0.00000000000E+00 -0.24960186603E+04  0.24960186603E+04  0.25500000000E-02 0. -1.
    8880023    1    1    2    0    0  0.25794390275E+03 -0.90419454469E+03  0.31743854238E+03  0.11910836520E+04  0.65864270000E+03 0.  0.
    8880022    1    1    2    0    0 -0.25794390275E+03  0.90419454469E+03 -0.19490202846E+04  0.21693719263E+04  0.15294330000E+03 0.  0.
<mgrwt>
<rscale>  0 0.10956908E+04</rscale>
<asrwt>0</asrwt>
<pdfrwt beam="1">  1        2 0.38400287E+00 0.11480039E+04</pdfrwt>
<pdfrwt beam="2">  1       -2 0.13299030E+00 0.11480039E+04</pdfrwt>
<totfact> 0.14141344E+00</totfact>
</mgrwt>
</event>
<event>
 4    5  0.7289609E-008  0.6821268E+03  0.7818608E-02  0.1008145E+00
         -2   -1    0    0    0  501 -0.00000000000E+00  0.00000000000E+00  0.43949101257E+03  0.43949101258E+03  0.25500000000E-02 0.  1.
          2   -1    0    0  501    0  0.00000000000E+00 -0.00000000000E+00 -0.95932291186E+03  0.95932291187E+03  0.25500000000E-02 0. -1.
    8880023    1    1    2    0    0  0.14939372563E+03 -0.95751250367E+02  0.14199591049E+03  0.69674947583E+03  0.65864270000E+03 0.  1.
    8880022    1    1    2    0    0 -0.14939372563E+03  0.95751250367E+02 -0.66182780978E+03  0.70206444862E+03  0.15294330000E+03 0.  0.
<mgrwt>
<rscale>  0 0.52218460E+03</rscale>
<asrwt>0</asrwt>
<pdfrwt beam="1">  1        2 0.14758814E+00 0.68212682E+03</pdfrwt>
<pdfrwt beam="2">  1       -2 0.67614002E-01 0.68212682E+03</pdfrwt>
<totfact> 0.54792895E+01</totfact>
</mgrwt>
</event>
<event>
 4    5  0.7289609E-008  0.8238823E+03  0.7818608E-02  0.9661355E-01
          2   -1    0    0  501    0  0.00000000000E+00  0.00000000000E+00  0.98904317575E+03  0.98904317575E+03  0.25500000000E-02 0. -1.
         -2   -1    0    0    0  501 -0.00000000000E+00 -0.00000000000E+00 -0.62601110609E+03  0.62601110610E+03  0.25500000000E-02 0.  1.
    8880023    1    1    2    0    0  0.49488816650E+03  0.75820074042E+01 -0.20220845312E+03  0.84833380750E+03  0.65864270000E+03 0.  0.
    8880022    1    1    2    0    0 -0.49488816650E+03 -0.75820074042E+01  0.56524052278E+03  0.76672047435E+03  0.15294330000E+03 0.  0.
<mgrwt>
<rscale>  0 0.73365061E+03</rscale>
<asrwt>0</asrwt>
<pdfrwt beam="1">  1        2 0.15216049E+00 0.82388227E+03</pdfrwt>
<pdfrwt beam="2">  1       -2 0.96309401E-01 0.82388227E+03</pdfrwt>
<totfact> 0.23316844E+01</totfact>
</mgrwt>
</event>
<event>
 4    5  0.7289609E-008  0.1212910E+04  0.7818608E-02  0.9144674E-01
          2   -1    0    0  501    0  0.00000000000E+00  0.00000000000E+00  0.11807156823E+04  0.11807156823E+04  0.25500000000E-02 0. -1.
         -2   -1    0    0    0  501 -0.00000000000E+00 -0.00000000000E+00 -0.19154457911E+04  0.19154457911E+04  0.25500000000E-02 0.  1.
    8880023    1    1    2    0    0 -0.95094936560E+03  0.36474009505E+03 -0.14135961409E+04  0.18626336969E+04  0.65864270000E+03 0.  0.
    8880022    1    1    2    0    0  0.95094936560E+03 -0.36474009505E+03  0.67886603212E+03  0.12335277765E+04  0.15294330000E+03 0.  0.
<mgrwt>
<rscale>  0 0.11643192E+04</rscale>
<asrwt>0</asrwt>
<pdfrwt beam="1">  1        2 0.18164857E+00 0.12129098E+04</pdfrwt>
<pdfrwt beam="2">  1       -2 0.29468397E+00 0.12129098E+04</pdfrwt>
<totfact> 0.64949954E-01</totfact>
</mgrwt>
</event>
<event>
 4    5  0.7289609E-008  0.1018583E+04  0.7818608E-02  0.9357639E-01
         -2   -1    0    0    0  501 -0.00000000000E+00  0.00000000000E+00  0.13909345970E+04  0.13909345970E+04  0.25500000000E-02 0.  1.
          2   -1    0    0  501    0  0.00000000000E+00 -0.00000000000E+00 -0.11686951728E+04  0.11686951728E+04  0.25500000000E-02 0. -1.
    8880023    1    1    2    0    0  0.36216013884E+03 -0.68741673325E+03  0.10158121007E+04  0.14385361176E+04  0.65864270000E+03 0.  1.
    8880022    1    1    2    0    0 -0.36216013884E+03  0.68741673325E+03 -0.79357267650E+03  0.11210936523E+04  0.15294330000E+03 0.  0.
<mgrwt>
<rscale>  0 0.95645368E+03</rscale>
<asrwt>0</asrwt>
<pdfrwt beam="1">  1        2 0.17979926E+00 0.10185833E+04</pdfrwt>
<pdfrwt beam="2">  1       -2 0.21398994E+00 0.10185833E+04</pdfrwt>
<totfact> 0.21157695E+00</totfact>
</mgrwt>
</event>
<event>
 4    5  0.7289609E-008  0.6870204E+03  0.7818608E-02  0.1005602E+00
          2   -1    0    0  501    0  0.00000000000E+00  0.00000000000E+00  0.26566881538E+04  0.26566881538E+04  0.25500000000E-02 0. -1.
         -2   -1    0    0    0  501 -0.00000000000E+00 -0.00000000000E+00 -0.82340312301E+03  0.82340312301E+03  0.25500000000E-02 0.  1.
    8880023    1    1    2    0    0 -0.14243769634E+03 -0.13378453921E+03 -0.67289419082E+03  0.96165669476E+03  0.65864270000E+03 0.  1.
    8880022    1    1    2    0    0  0.14243769634E+03  0.13378453921E+03  0.25061792216E+04  0.25184345821E+04  0.15294330000E+03 0.  0.
<mgrwt>
<rscale>  0 0.53260570E+03</rscale>
<asrwt>0</asrwt>
<pdfrwt beam="1">  1        2 0.40872125E+00 0.68702038E+03</pdfrwt>
<pdfrwt beam="2">  1       -2 0.12667741E+00 0.68702038E+03</pdfrwt>
<totfact> 0.13991707E+00</totfact>
</mgrwt>
</event>
<event>
 4    5  0.7667626E-008  0.1013716E+04  0.7818608E-02  0.9363830E-01
         -2   -1    0    0    0  501 -0.00000000000E+00  0.00000000000E+00  0.14698463208E+04  0.14698463208E+04  0.25500000000E-02 0.  1.
          2   -1    0    0  501    0  0.00000000000E+00 -0.00000000000E+00 -0.18043559083E+04  0.18043559083E+04  0.25500000000E-02 0. -1.
    8880023    1    1    2    0    0 -0.62777316898E+03 -0.44688903114E+03  0.11875338255E+04  0.15613634269E+04  0.65864270000E+03 0.  0.
    8880022    1    1    2    0    0  0.62777316898E+03  0.44688903114E+03 -0.15220434131E+04  0.17128388022E+04  0.15294330000E+03 0.  0.
<mgrwt>
<rscale>  0 0.95113107E+03</rscale>
<asrwt>0</asrwt>
<pdfrwt beam="1">  1        2 0.27759322E+00 0.10137155E+04</pdfrwt>
<pdfrwt beam="2">  1       -2 0.22613020E+00 0.10137155E+04</pdfrwt>
<totfact> 0.77287650E-01</totfact>
</mgrwt>
</event>
<event>
 4    5  0.7289609E-008  0.7752274E+03  0.7818608E-02  0.9767170E-01
          2   -1    0    0  501    0  0.00000000000E+00  0.00000000000E+00  0.24456708212E+04  0.24456708212E+04  0.25500000000E-02 0. -1.
         -2   -1    0    0    0  501 -0.00000000000E+00 -0.00000000000E+00 -0.25725082719E+03  0.25725082721E+03  0.25500000000E-02 0.  1.
    8880023    1    1    2    0    0  0.40430932818E+03 -0.60837750305E+02  0.42054649167E+03  0.88195057834E+03  0.65864270000E+03 0.  1.
    8880022    1    1    2    0    0 -0.40430932818E+03  0.60837750305E+02  0.17678735023E+04  0.18209710700E+04  0.15294330000E+03 0.  0.
<mgrwt>
<rscale>  0 0.67154556E+03</rscale>
<asrwt>0</asrwt>
<pdfrwt beam="1">  1        2 0.37625704E+00 0.77522737E+03</pdfrwt>
<pdfrwt beam="2">  1       -2 0.39577051E-01 0.77522737E+03</pdfrwt>
<totfact> 0.23496508E+01</totfact>
</mgrwt>
</event>
<event>
 4    5  0.7289609E-008  0.7099183E+03  0.7818608E-02  0.9958304E-01
          2   -1    0    0  501    0  0.00000000000E+00  0.00000000000E+00  0.19108962484E+04  0.19108962484E+04  0.25500000000E-02 0. -1.
         -2   -1    0    0    0  501 -0.00000000000E+00 -0.00000000000E+00 -0.28020945208E+03  0.28020945210E+03  0.25500000000E-02 0.  1.
    8880023    1    1    2    0    0  0.21640931150E+03 -0.15277707253E+03  0.21356338035E+03  0.74134563308E+03  0.65864270000E+03 0.  1.
    8880022    1    1    2    0    0 -0.21640931150E+03  0.15277707253E+03  0.14171234160E+04  0.14497600674E+04  0.15294330000E+03 0.  0.
<mgrwt>
<rscale>  0 0.57516936E+03</rscale>
<asrwt>0</asrwt>
<pdfrwt beam="1">  1        2 0.29398403E+00 0.70991833E+03</pdfrwt>
<pdfrwt beam="2">  1       -2 0.43109147E-01 0.70991833E+03</pdfrwt>
<totfact> 0.39532431E+01</totfact>
</mgrwt>
</event>
<event>
 4    5  0.7289609E-008  0.8287091E+03  0.7818608E-02  0.9651849E-01
          2   -1    0    0  501    0  0.00000000000E+00  0.00000000000E+00  0.33397677697E+04  0.33397677697E+04  0.25500000000E-02 0. -1.
         -2   -1    0    0    0  501 -0.00000000000E+00 -0.00000000000E+00 -0.46085539135E+03  0.46085539136E+03  0.25500000000E-02 0.  1.
    8880023    1    1    2    0    0 -0.42426765407E+03 -0.27008442494E+03 -0.44904988881E+02  0.82992487803E+03  0.65864270000E+03 0.  0.
    8880022    1    1    2    0    0  0.42426765407E+03  0.27008442494E+03  0.29238173672E+04  0.29706982830E+04  0.15294330000E+03 0.  0.
<mgrwt>
<rscale>  0 0.73957483E+03</rscale>
<asrwt>0</asrwt>
<pdfrwt beam="1">  1        2 0.51381042E+00 0.82870914E+03</pdfrwt>
<pdfrwt beam="2">  1       -2 0.70900831E-01 0.82870914E+03</pdfrwt>
<totfact> 0.20130080E+00</totfact>
</mgrwt>
</event>
<event>
 4    5  0.7289609E-008  0.8138526E+03  0.7818608E-02  0.9681607E-01
         -2   -1    0    0    0  501 -0.00000000000E+00  0.00000000000E+00  0.35351263762E+03  0.35351263762E+03  0.25500000000E-02 0.  1.
          2   -1    0    0  501    0  0.00000000000E+00 -0.00000000000E+00 -0.16760716890E+04  0.16760716890E+04  0.25500000000E-02 0. -1.
    8880023    1    1    2    0    0  0.47311246311E+03 -0.68632295741E+02 -0.25989457602E+03  0.85434254938E+03  0.65864270000E+03 0.  1.
    8880022    1    1    2    0    0 -0.47311246311E+03  0.68632295741E+02 -0.10626644754E+04  0.11752417772E+04  0.15294330000E+03 0.  0.
<mgrwt>
<rscale>  0 0.72122520E+03</rscale>
<asrwt>0</asrwt>
<pdfrwt beam="1">  1        2 0.25785718E+00 0.81385257E+03</pdfrwt>
<pdfrwt beam="2">  1       -2 0.54386561E-01 0.81385257E+03</pdfrwt>
<totfact> 0.32781126E+01</totfact>
</mgrwt>
</event>
<event>
 4    5  0.7289609E-008  0.6847209E+03  0.7818608E-02  0.1006770E+00
          2   -1    0    0  501    0  0.00000000000E+00  0.00000000000E+00  0.10694701474E+04  0.10694701474E+04  0.25500000000E-02 0. -1.
         -2   -1    0    0    0  501 -0.00000000000E+00 -0.00000000000E+00 -0.51369921178E+03  0.51369921179E+03  0.25500000000E-02 0.  1.
    8880023    1    1    2    0    0 -0.10982935473E+03  0.15155874778E+03 -0.25993905935E+03  0.73240088888E+03  0.65864270000E+03 0.  1.
    8880022    1    1    2    0    0  0.10982935473E+03 -0.15155874778E+03  0.81570999493E+03  0.85076847029E+03  0.15294330000E+03 0.  0.
<mgrwt>
<rscale>  0 0.52778773E+03</rscale>
<asrwt>0</asrwt>
<pdfrwt beam="1">  1        2 0.16453387E+00 0.68472093E+03</pdfrwt>
<pdfrwt beam="2">  1       -2 0.79030649E-01 0.68472093E+03</pdfrwt>
<totfact> 0.33098845E+01</totfact>
</mgrwt>
</event>
<event>
 4    5  0.7289609E-008  0.7652758E+03  0.7818608E-02  0.9791636E-01
          2   -1    0    0  501    0  0.00000000000E+00  0.00000000000E+00  0.12213379025E+04  0.12213379025E+04  0.25500000000E-02 0. -1.
         -2   -1    0    0    0  501 -0.00000000000E+00 -0.00000000000E+00 -0.57004927039E+03  0.57004927039E+03  0.25500000000E-02 0.  1.
    8880023    1    1    2    0    0 -0.34075413158E+03 -0.18900666612E+03 -0.24386554538E+03  0.80319207449E+03  0.65864270000E+03 0.  0.
    8880022    1    1    2    0    0  0.34075413158E+03  0.18900666612E+03  0.89515417752E+03  0.98819509844E+03  0.15294330000E+03 0.  0.
<mgrwt>
<rscale>  0 0.65813367E+03</rscale>
<asrwt>0</asrwt>
<pdfrwt beam="1">  1        2 0.18789814E+00 0.76527584E+03</pdfrwt>
<pdfrwt beam="2">  1       -2 0.87699888E-01 0.76527584E+03</pdfrwt>
<totfact> 0.20996812E+01</totfact>
</mgrwt>
</event>
<event>
 4    5  0.7289609E-008  0.6762116E+03  0.7818608E-02  0.1011553E+00
          2   -1    0    0  501    0  0.00000000000E+00  0.00000000000E+00  0.16227202618E+04  0.16227202618E+04  0.25500000000E-02 0. -1.
         -2   -1    0    0    0  501 -0.00000000000E+00 -0.00000000000E+00 -0.12729630436E+03  0.12729630439E+03  0.25500000000E-02 0.  1.
    8880023    1    1    2    0    0 -0.14089630430E+03 -0.60001604364E+02  0.97660994002E+03  0.11878674767E+04  0.65864270000E+03 0.  1.
    8880022    1    1    2    0    0  0.14089630430E+03  0.60001604364E+02  0.51881401746E+03  0.56214908950E+03  0.15294330000E+03 0.  1.
<mgrwt>
<rscale>  0 0.50861982E+03</rscale>
<asrwt>0</asrwt>
<pdfrwt beam="1">  1        2 0.24964927E+00 0.67621163E+03</pdfrwt>
<pdfrwt beam="2">  1       -2 0.19584047E-01 0.67621163E+03</pdfrwt>
<totfact> 0.24501905E+02</totfact>
</mgrwt>
</event>
<event>
 4    5  0.7289609E-008  0.1554551E+04  0.7818608E-02  0.8872046E-01
         -2   -1    0    0    0  501 -0.00000000000E+00  0.00000000000E+00  0.16053487013E+04  0.16053487013E+04  0.25500000000E-02 0.  1.
          2   -1    0    0  501    0  0.00000000000E+00 -0.00000000000E+00 -0.15257684702E+04  0.15257684702E+04  0.25500000000E-02 0. -1.
    8880023    1    1    2    0    0 -0.10783878960E+04  0.90548288880E+03  0.53382312291E+03  0.16436535672E+04  0.65864270000E+03 0.  0.
    8880022    1    1    2    0    0  0.10783878960E+04 -0.90548288880E+03 -0.45424289182E+03  0.14874636042E+04  0.15294330000E+03 0.  0.
<mgrwt>
<rscale>  0 0.15188011E+04</rscale>
<asrwt>0</asrwt>
<pdfrwt beam="1">  1        2 0.23473361E+00 0.15545514E+04</pdfrwt>
<pdfrwt beam="2">  1       -2 0.24697672E+00 0.15545514E+04</pdfrwt>
<totfact> 0.77023583E-01</totfact>
</mgrwt>
</event>
<event>
 4    5  0.7490787E-008  0.1075695E+04  0.7818608E-02  0.9288611E-01
         -2   -1    0    0    0  501 -0.00000000000E+00  0.00000000000E+00  0.11551048510E+04  0.11551048510E+04  0.25500000000E-02 0.  1.
          2   -1    0    0  501    0  0.00000000000E+00 -0.00000000000E+00 -0.22755833289E+04  0.22755833289E+04  0.25500000000E-02 0. -1.
    8880023    1    1    2    0    0  0.70535643728E+03  0.47516543915E+03  0.78950127180E+03  0.13343284313E+04  0.65864270000E+03 0.  1.
    8880022    1    1    2    0    0 -0.70535643728E+03 -0.47516543915E+03 -0.19099797497E+04  0.20963597486E+04  0.15294330000E+03 0.  0.
<mgrwt>
<rscale>  0 0.10183810E+04</rscale>
<asrwt>0</asrwt>
<pdfrwt beam="1">  1        2 0.35008974E+00 0.10756952E+04</pdfrwt>
<pdfrwt beam="2">  1       -2 0.17770844E+00 0.10756952E+04</pdfrwt>
<totfact> 0.87196313E-01</totfact>
</mgrwt>
</event>
<event>
 4    5  0.7289609E-008  0.7232904E+03  0.7818608E-02  0.9911606E-01
         -2   -1    0    0    0  501 -0.00000000000E+00  0.00000000000E+00  0.29695626391E+03  0.29695626392E+03  0.25500000000E-02 0.  1.
          2   -1    0    0  501    0  0.00000000000E+00 -0.00000000000E+00 -0.11727944043E+04  0.11727944043E+04  0.25500000000E-02 0. -1.
    8880023    1    1    2    0    0 -0.28414861463E+03  0.92727266561E+02 -0.87337276671E+03  0.11339880851E+04  0.65864270000E+03 0. -1.
    8880022    1    1    2    0    0  0.28414861463E+03 -0.92727266561E+02 -0.24653736554E+01  0.33576258315E+03  0.15294330000E+03 0.  0.
<mgrwt>
<rscale>  0 0.59702108E+03</rscale>
<asrwt>0</asrwt>
<pdfrwt beam="1">  1        2 0.18042991E+00 0.72329039E+03</pdfrwt>
<pdfrwt beam="2">  1       -2 0.45685580E-01 0.72329039E+03</pdfrwt>
<totfact> 0.90925873E+01</totfact>
</mgrwt>
</event>
<event>
 4    5  0.7289609E-008  0.1907448E+04  0.7818608E-02  0.8665319E-01
          2   -1    0    0  501    0  0.00000000000E+00  0.00000000000E+00  0.24175200862E+04  0.24175200863E+04  0.25500000000E-02 0. -1.
         -2   -1    0    0    0  501 -0.00000000000E+00 -0.00000000000E+00 -0.19094901819E+04  0.19094901819E+04  0.25500000000E-02 0.  1.
    8880023    1    1    2    0    0 -0.13068009065E+04  0.12234450064E+04 -0.83666599737E+03  0.20828745739E+04  0.65864270000E+03 0.  1.
    8880022    1    1    2    0    0  0.13068009065E+04 -0.12234450064E+04  0.13446959017E+04  0.22441356943E+04  0.15294330000E+03 0.  0.
<mgrwt>
<rscale>  0 0.18791226E+04</rscale>
<asrwt>0</asrwt>
<pdfrwt beam="1">  1        2 0.37192617E+00 0.19074476E+04</pdfrwt>
<pdfrwt beam="2">  1       -2 0.29376772E+00 0.19074476E+04</pdfrwt>
<totfact> 0.12070550E-01</totfact>
</mgrwt>
</event>
<event>
 4    5  0.7289609E-008  0.7088621E+03  0.7818608E-02  0.9962251E-01
          2   -1    0    0  501    0  0.00000000000E+00  0.00000000000E+00  0.44710780670E+03  0.44710780670E+03  0.25500000000E-02 0. -1.
         -2   -1    0    0    0  501 -0.00000000000E+00 -0.00000000000E+00 -0.78579780173E+03  0.78579780173E+03  0.25500000000E-02 0.  1.
    8880023    1    1    2    0    0  0.63669880366E+02 -0.25420746905E+03 -0.52026940712E+03  0.87929844378E+03  0.65864270000E+03 0.  1.
    8880022    1    1    2    0    0 -0.63669880366E+02  0.25420746905E+03  0.18157941209E+03  0.35360716466E+03  0.15294330000E+03 0.  0.
<mgrwt>
<rscale>  0 0.57336911E+03</rscale>
<asrwt>0</asrwt>
<pdfrwt beam="1">  1        2 0.68785816E-01 0.70886211E+03</pdfrwt>
<pdfrwt beam="2">  1       -2 0.12089197E+00 0.70886211E+03</pdfrwt>
<totfact> 0.37065712E+01</totfact>
</mgrwt>
</event>
<event>
 4    5  0.7289609E-008  0.6699826E+03  0.7818608E-02  0.1015675E+00
         -2   -1    0    0    0  501 -0.00000000000E+00  0.00000000000E+00  0.23031836509E+03  0.23031836511E+03  0.25500000000E-02 0.  1.
          2   -1    0    0  501    0  0.00000000000E+00 -0.00000000000E+00 -0.97692381128E+03  0.97692381128E+03  0.25500000000E-02 0. -1.
    8880023    1    1    2    0    0 -0.84391002499E+02  0.89132752928E+02 -0.33012250869E+03  0.74689863165E+03  0.65864270000E+03 0.  1.
    8880022    1    1    2    0    0  0.84391002499E+02 -0.89132752928E+02 -0.41648293749E+03  0.46034354474E+03  0.15294330000E+03 0.  0.
<mgrwt>
<rscale>  0 0.49280055E+03</rscale>
<asrwt>0</asrwt>
<pdfrwt beam="1">  1        2 0.15029597E+00 0.66998261E+03</pdfrwt>
<pdfrwt beam="2">  1       -2 0.35433595E-01 0.66998261E+03</pdfrwt>
<totfact> 0.19798604E+02</totfact>
</mgrwt>
</event>
<event>
 4    5  0.7289609E-008  0.8407355E+03  0.7818608E-02  0.9628795E-01
         -2   -1    0    0    0  501 -0.00000000000E+00  0.00000000000E+00  0.24318044509E+04  0.24318044510E+04  0.25500000000E-02 0.  1.
          2   -1    0    0  501    0  0.00000000000E+00 -0.00000000000E+00 -0.46584157561E+03  0.46584157562E+03  0.25500000000E-02 0. -1.
    8880023    1    1    2    0    0  0.34418998576E+03  0.39314021565E+03  0.21614251956E+04  0.23191798244E+04  0.65864270000E+03 0.  0.
    8880022    1    1    2    0    0 -0.34418998576E+03 -0.39314021565E+03 -0.19546232021E+03  0.57846620221E+03  0.15294330000E+03 0.  0.
<mgrwt>
<rscale>  0 0.75419308E+03</rscale>
<asrwt>0</asrwt>
<pdfrwt beam="1">  1        2 0.71667934E-01 0.84073550E+03</pdfrwt>
<pdfrwt beam="2">  1       -2 0.37412377E+00 0.84073550E+03</pdfrwt>
<totfact> 0.76117745E-01</totfact>
</mgrwt>
</event>
<event>
 4    5  0.7289609E-008  0.7838987E+03  0.7818608E-02  0.9746757E-01
         -2   -1    0    0    0  501 -0.00000000000E+00  0.00000000000E+00  0.72530680170E+03  0.72530680170E+03  0.25500000000E-02 0.  1.
          2   -1    0    0  501    0  0.00000000000E+00 -0.00000000000E+00 -0.15502772859E+04  0.15502772859E+04  0.25500000000E-02 0. -1.
    8880023    1    1    2    0    0 -0.21542414187E+03  0.36644145354E+03  0.46318265002E+03  0.91051374142E+03  0.65864270000E+03 0.  1.
    8880022    1    1    2    0    0  0.21542414187E+03 -0.36644145354E+03 -0.12881531342E+04  0.13650703461E+04  0.15294330000E+03 0.  0.
<mgrwt>
<rscale>  0 0.68299828E+03</rscale>
<asrwt>0</asrwt>
<pdfrwt beam="1">  1        2 0.23850420E+00 0.78389866E+03</pdfrwt>
<pdfrwt beam="2">  1       -2 0.11158566E+00 0.78389866E+03</pdfrwt>
<totfact> 0.77053489E+00</totfact>
</mgrwt>
</event>
<event>
 4    5  0.7289609E-008  0.9705350E+03  0.7818608E-02  0.9421165E-01
          2   -1    0    0  501    0  0.00000000000E+00  0.00000000000E+00  0.19921511356E+04  0.19921511356E+04  0.25500000000E-02 0. -1.
         -2   -1    0    0    0  501 -0.00000000000E+00 -0.00000000000E+00 -0.98437907610E+03  0.98437907610E+03  0.25500000000E-02 0.  1.
    8880023    1    1    2    0    0 -0.70552122753E+03  0.10182254798E+03 -0.64825768392E+03  0.11671230718E+04  0.65864270000E+03 0.  1.
    8880022    1    1    2    0    0  0.70552122753E+03 -0.10182254798E+03  0.16560297434E+04  0.18094071399E+04  0.15294330000E+03 0.  0.
<mgrwt>
<rscale>  0 0.90354197E+03</rscale>
<asrwt>0</asrwt>
<pdfrwt beam="1">  1        2 0.30648479E+00 0.97053503E+03</pdfrwt>
<pdfrwt beam="2">  1       -2 0.15144294E+00 0.97053503E+03</pdfrwt>
<totfact> 0.19745934E+00</totfact>
</mgrwt>
</event>
<event>
 4    5  0.7289609E-008  0.6626668E+03  0.7818608E-02  0.1021577E+00
          2   -1    0    0  501    0  0.00000000000E+00  0.00000000000E+00  0.79652154617E+03  0.79652154618E+03  0.25500000000E-02 0. -1.
         -2   -1    0    0    0  501 -0.00000000000E+00 -0.00000000000E+00 -0.45937100347E+03  0.45937100348E+03  0.25500000000E-02 0.  1.
    8880023    1    1    2    0    0 -0.19349027822E+02 -0.70304766698E+02 -0.20037180195E+03  0.69229777580E+03  0.65864270000E+03 0.  1.
    8880022    1    1    2    0    0  0.19349027822E+02  0.70304766698E+02  0.53752234465E+03  0.56359477385E+03  0.15294330000E+03 0.  0.
<mgrwt>
<rscale>  0 0.47121956E+03</rscale>
<asrwt>0</asrwt>
<pdfrwt beam="1">  1        2 0.12254177E+00 0.66266685E+03</pdfrwt>
<pdfrwt beam="2">  1       -2 0.70672463E-01 0.66266685E+03</pdfrwt>
<totfact> 0.64351820E+01</totfact>
</mgrwt>
</event>
<event>
 4    5  0.7289609E-008  0.6746150E+03  0.7818608E-02  0.1012550E+00
         -2   -1    0    0    0  501 -0.00000000000E+00  0.00000000000E+00  0.32342785054E+03  0.32342785055E+03  0.25500000000E-02 0.  1.
          2   -1    0    0  501    0  0.00000000000E+00 -0.00000000000E+00 -0.31512950375E+04  0.31512950375E+04  0.25500000000E-02 0. -1.
    8880023    1    1    2    0    0 -0.12875881672E+03 -0.68675280566E+02 -0.36753424038E+02  0.67561538429E+03  0.65864270000E+03 0.  1.
    8880022    1    1    2    0    0  0.12875881672E+03  0.68675280566E+02 -0.27911137629E+04  0.27991075038E+04  0.15294330000E+03 0.  0.
<mgrwt>
<rscale>  0 0.50473608E+03</rscale>
<asrwt>0</asrwt>
<pdfrwt beam="1">  1        2 0.48481460E+00 0.67461495E+03</pdfrwt>
<pdfrwt beam="2">  1       -2 0.49758133E-01 0.67461495E+03</pdfrwt>
<totfact> 0.57973762E+00</totfact>
</mgrwt>
</event>
<event>
 4    5  0.7289609E-008  0.6619586E+03  0.7818608E-02  0.1022234E+00
          2   -1    0    0  501    0  0.00000000000E+00  0.00000000000E+00  0.92055366088E+03  0.92055366088E+03  0.25500000000E-02 0. -1.
         -2   -1    0    0    0  501 -0.00000000000E+00 -0.00000000000E+00 -0.37315435357E+03  0.37315435358E+03  0.25500000000E-02 0.  1.
    8880023    1    1    2    0    0 -0.42593015821E+00  0.66172116126E+02 -0.59232449942E+02  0.66460335521E+03  0.65864270000E+03 0.  1.
    8880022    1    1    2    0    0  0.42593015821E+00 -0.66172116126E+02  0.60663175725E+03  0.62910465925E+03  0.15294330000E+03 0.  0.
<mgrwt>
<rscale>  0 0.46889028E+03</rscale>
<asrwt>0</asrwt>
<pdfrwt beam="1">  1        2 0.14162364E+00 0.66195856E+03</pdfrwt>
<pdfrwt beam="2">  1       -2 0.57408363E-01 0.66195856E+03</pdfrwt>
<totfact> 0.82404983E+01</totfact>
</mgrwt>
</event>
<event>
 4    5  0.7289609E-008  0.7051535E+03  0.7818608E-02  0.9976458E-01
          2   -1    0    0  501    0  0.00000000000E+00  0.00000000000E+00  0.12490124461E+04  0.12490124461E+04  0.25500000000E-02 0. -1.
         -2   -1    0    0    0  501 -0.00000000000E+00 -0.00000000000E+00 -0.40953194171E+03  0.40953194171E+03  0.25500000000E-02 0.  1.
    8880023    1    1    2    0    0 -0.10882414330E+03 -0.22713125633E+03 -0.64169753226E+02  0.70806727453E+03  0.65864270000E+03 0.  1.
    8880022    1    1    2    0    0  0.10882414330E+03  0.22713125633E+03  0.90365025760E+03  0.95047711326E+03  0.15294330000E+03 0.  0.
<mgrwt>
<rscale>  0 0.56694651E+03</rscale>
<asrwt>0</asrwt>
<pdfrwt beam="1">  1        2 0.19215576E+00 0.70515354E+03</pdfrwt>
<pdfrwt beam="2">  1       -2 0.63004914E-01 0.70515354E+03</pdfrwt>
<totfact> 0.42310082E+01</totfact>
</mgrwt>
</event>
<event>
 4    5  0.7289609E-008  0.1612523E+04  0.7818608E-02  0.8834012E-01
         -2   -1    0    0    0  501 -0.00000000000E+00  0.00000000000E+00  0.12359273343E+04  0.12359273343E+04  0.25500000000E-02 0.  1.
          2   -1    0    0  501    0  0.00000000000E+00 -0.00000000000E+00 -0.23412436464E+04  0.23412436464E+04  0.25500000000E-02 0. -1.
    8880023    1    1    2    0    0  0.69548108451E+02 -0.14702322298E+04 -0.13173966974E+04  0.20822497481E+04  0.65864270000E+03 0.  0.
    8880022    1    1    2    0    0 -0.69548108451E+02  0.14702322298E+04  0.21208038531E+03  0.14949212326E+04  0.15294330000E+03 0.  0.
<mgrwt>
<rscale>  0 0.15782662E+04</rscale>
<asrwt>0</asrwt>
<pdfrwt beam="1">  1        2 0.36019133E+00 0.16125229E+04</pdfrwt>
<pdfrwt beam="2">  1       -2 0.19014267E+00 0.16125229E+04</pdfrwt>
<totfact> 0.61736459E-01</totfact>
</mgrwt>
</event>
<event>
 4    5  0.7289609E-008  0.7561447E+03  0.7818608E-02  0.9815193E-01
          2   -1    0    0  501    0  0.00000000000E+00  0.00000000000E+00  0.35311773263E+04  0.35311773263E+04  0.25500000000E-02 0. -1.
         -2   -1    0    0    0  501 -0.00000000000E+00 -0.00000000000E+00 -0.13764396299E+03  0.13764396301E+03  0.25500000000E-02 0.  1.
    8880023    1    1    2    0    0  0.13732994712E+03 -0.34508709799E+03  0.10663720613E+04  0.13072506259E+04  0.65864270000E+03 0.  0.
    8880022    1    1    2    0    0 -0.13732994712E+03  0.34508709799E+03  0.23271613020E+04  0.23615706634E+04  0.15294330000E+03 0.  0.
<mgrwt>
<rscale>  0 0.64553559E+03</rscale>
<asrwt>0</asrwt>
<pdfrwt beam="1">  1        2 0.54325804E+00 0.75614471E+03</pdfrwt>
<pdfrwt beam="2">  1       -2 0.21175995E-01 0.75614471E+03</pdfrwt>
<totfact> 0.16072258E+01</totfact>
</mgrwt>
</event>
<event>
 4    5  0.7289609E-008  0.1515728E+04  0.7818608E-02  0.8898609E-01
          2   -1    0    0  501    0  0.00000000000E+00  0.00000000000E+00  0.40996357206E+04  0.40996357206E+04  0.25500000000E-02 0. -1.
         -2   -1    0    0    0  501 -0.00000000000E+00 -0.00000000000E+00 -0.10568724105E+04  0.10568724105E+04  0.25500000000E-02 0.  1.
    8880023    1    1    2    0    0 -0.75316232095E+03  0.11385818735E+04 -0.29764346094E+03  0.15446760180E+04  0.65864270000E+03 0.  0.
    8880022    1    1    2    0    0  0.75316232095E+03 -0.11385818735E+04  0.33404067710E+04  0.36118321131E+04  0.15294330000E+03 0.  0.
<mgrwt>
<rscale>  0 0.14788969E+04</rscale>
<asrwt>0</asrwt>
<pdfrwt beam="1">  1        2 0.63071318E+00 0.15157283E+04</pdfrwt>
<pdfrwt beam="2">  1       -2 0.16259576E+00 0.15157283E+04</pdfrwt>
<totfact> 0.65468782E-02</totfact>
</mgrwt>
</event>
<event>
 4    5  0.7289609E-008  0.1177653E+04  0.7818608E-02  0.9179157E-01
          2   -1    0    0  501    0  0.00000000000E+00  0.00000000000E+00  0.50436083357E+04  0.50436083357E+04  0.25500000000E-02 0. -1.
         -2   -1    0    0    0  501 -0.00000000000E+00 -0.00000000000E+00 -0.26176689073E+03  0.26176689075E+03  0.25500000000E-02 0.  1.
    8880023    1    1    2    0    0  0.48187285520E+03 -0.84903133751E+03  0.34605791982E+04  0.36554718237E+04  0.65864270000E+03 0. -1.
    8880022    1    1    2    0    0 -0.48187285520E+03  0.84903133751E+03  0.13212622468E+04  0.16499034028E+04  0.15294330000E+03 0.  0.
<mgrwt>
<rscale>  0 0.11271171E+04</rscale>
<asrwt>0</asrwt>
<pdfrwt beam="1">  1        2 0.77593977E+00 0.11776527E+04</pdfrwt>
<pdfrwt beam="2">  1       -2 0.40271828E-01 0.11776527E+04</pdfrwt>
<totfact> 0.18806231E-01</totfact>
</mgrwt>
</event>
<event>
 4    5  0.7289609E-008  0.1096780E+04  0.7818608E-02  0.9264649E-01
         -2   -1    0    0    0  501 -0.00000000000E+00  0.00000000000E+00  0.11081350111E+04  0.11081350111E+04  0.25500000000E-02 0.  1.
          2   -1    0    0  501    0  0.00000000000E+00 -0.00000000000E+00 -0.20904269237E+04  0.20904269237E+04  0.25500000000E-02 0. -1.
    8880023    1    1    2    0    0 -0.62818056943E+03  0.61196872099E+03  0.69586067884E+03  0.12989029348E+04  0.65864270000E+03 0.  0.
    8880022    1    1    2    0    0  0.62818056943E+03 -0.61196872099E+03 -0.16781525915E+04  0.18996590001E+04  0.15294330000E+03 0.  0.
<mgrwt>
<rscale>  0 0.10410346E+04</rscale>
<asrwt>0</asrwt>
<pdfrwt beam="1">  1        2 0.32160414E+00 0.10967802E+04</pdfrwt>
<pdfrwt beam="2">  1       -2 0.17048231E+00 0.10967802E+04</pdfrwt>
<totfact> 0.12395948E+00</totfact>
</mgrwt>
</event>
<event>
 4    5  0.7289609E-008  0.7443597E+03  0.7818608E-02  0.9847425E-01
          2   -1    0    0  501    0  0.00000000000E+00  0.00000000000E+00  0.27961535496E+04  0.27961535496E+04  0.25500000000E-02 0. -1.
         -2   -1    0    0    0  501 -0.00000000000E+00 -0.00000000000E+00 -0.10829921610E+04  0.10829921610E+04  0.25500000000E-02 0.  1.
    8880023    1    1    2    0    0 -0.54742857330E+02 -0.34243890662E+03 -0.94001109450E+03  0.11990380516E+04  0.65864270000E+03 0.  1.
    8880022    1    1    2    0    0  0.54742857330E+02  0.34243890662E+03  0.26531724832E+04  0.26801076590E+04  0.15294330000E+03 0.  0.
<mgrwt>
<rscale>  0 0.62878392E+03</rscale>
<asrwt>0</asrwt>
<pdfrwt beam="1">  1        2 0.43017746E+00 0.74435972E+03</pdfrwt>
<pdfrwt beam="2">  1       -2 0.16661418E+00 0.74435972E+03</pdfrwt>
<totfact> 0.55816295E-01</totfact>
</mgrwt>
</event>
<event>
 4    5  0.7289609E-008  0.9338353E+03  0.7818608E-02  0.9473763E-01
          2   -1    0    0  501    0  0.00000000000E+00  0.00000000000E+00  0.34426641567E+04  0.34426641567E+04  0.25500000000E-02 0. -1.
         -2   -1    0    0    0  501 -0.00000000000E+00 -0.00000000000E+00 -0.27348551962E+03  0.27348551963E+03  0.25500000000E-02 0.  1.
    8880023    1    1    2    0    0 -0.92937626156E+02  0.65543934275E+03  0.73344770758E+03  0.11874316319E+04  0.65864270000E+03 0.  1.
    8880022    1    1    2    0    0  0.92937626156E+02 -0.65543934275E+03  0.24357309295E+04  0.25287180444E+04  0.15294330000E+03 0.  0.
<mgrwt>
<rscale>  0 0.86246095E+03</rscale>
<asrwt>0</asrwt>
<pdfrwt beam="1">  1        2 0.52964065E+00 0.93383529E+03</pdfrwt>
<pdfrwt beam="2">  1       -2 0.42074694E-01 0.93383529E+03</pdfrwt>
<totfact> 0.49910356E+00</totfact>
</mgrwt>
</event>
<event>
 4    5  0.7289609E-008  0.9952719E+03  0.7818608E-02  0.9387770E-01
         -2   -1    0    0    0  501 -0.00000000000E+00  0.00000000000E+00  0.81885227833E+03  0.81885227833E+03  0.25500000000E-02 0.  1.
          2   -1    0    0  501    0  0.00000000000E+00 -0.00000000000E+00 -0.10340266381E+04  0.10340266381E+04  0.25500000000E-02 0. -1.
    8880023    1    1    2    0    0  0.64832804996E+03  0.36935987811E+03  0.15287228407E+03  0.10069439515E+04  0.65864270000E+03 0.  0.
    8880022    1    1    2    0    0 -0.64832804996E+03 -0.36935987811E+03 -0.36804664388E+03  0.84593496500E+03  0.15294330000E+03 0.  0.
<mgrwt>
<rscale>  0 0.93089056E+03</rscale>
<asrwt>0</asrwt>
<pdfrwt beam="1">  1        2 0.15908102E+00 0.99527192E+03</pdfrwt>
<pdfrwt beam="2">  1       -2 0.12597727E+00 0.99527192E+03</pdfrwt>
<totfact> 0.11182037E+01</totfact>
</mgrwt>
</event>
<event>
 4    5  0.7289609E-008  0.8686890E+03  0.7818608E-02  0.9578290E-01
         -2   -1    0    0    0  501 -0.00000000000E+00  0.00000000000E+00  0.86103126710E+03  0.86103126711E+03  0.25500000000E-02 0.  1.
          2   -1    0    0  501    0  0.00000000000E+00 -0.00000000000E+00 -0.14885731660E+04  0.14885731660E+04  0.25500000000E-02 0. -1.
    8880023    1    1    2    0    0  0.33049426592E+03  0.45998244702E+03  0.55407862727E+03  0.10303512231E+04  0.65864270000E+03 0.  1.
    8880022    1    1    2    0    0 -0.33049426592E+03 -0.45998244702E+03 -0.11816205262E+04  0.13192532101E+04  0.15294330000E+03 0.  0.
<mgrwt>
<rscale>  0 0.78749879E+03</rscale>
<asrwt>0</asrwt>
<pdfrwt beam="1">  1        2 0.22901126E+00 0.86868896E+03</pdfrwt>
<pdfrwt beam="2">  1       -2 0.13246635E+00 0.86868896E+03</pdfrwt>
<totfact> 0.53813929E+00</totfact>
</mgrwt>
</event>
<event>
 4    5  0.7289609E-008  0.1016577E+04  0.7818608E-02  0.9360184E-01
         -2   -1    0    0    0  501 -0.00000000000E+00  0.00000000000E+00  0.96246321850E+03  0.96246321850E+03  0.25500000000E-02 0.  1.
          2   -1    0    0  501    0  0.00000000000E+00 -0.00000000000E+00 -0.49550935055E+04  0.49550935055E+04  0.25500000000E-02 0. -1.
    8880023    1    1    2    0    0 -0.55518096545E+03  0.53980775440E+03  0.65110770351E+03  0.12072157073E+04  0.65864270000E+03 0.  1.
    8880022    1    1    2    0    0  0.55518096545E+03 -0.53980775440E+03 -0.46437379906E+04  0.47103410168E+04  0.15294330000E+03 0.  0.
<mgrwt>
<rscale>  0 0.95426071E+03</rscale>
<asrwt>0</asrwt>
<pdfrwt beam="1">  1        2 0.76232206E+00 0.10165769E+04</pdfrwt>
<pdfrwt beam="2">  1       -2 0.14807127E+00 0.10165769E+04</pdfrwt>
<totfact> 0.13206351E-02</totfact>
</mgrwt>
</event>
<event>
 4    5  0.7289609E-008  0.1463942E+04  0.7818608E-02  0.8935527E-01
          2   -1    0    0  501    0  0.00000000000E+00  0.00000000000E+00  0.24736418768E+04  0.24736418768E+04  0.25500000000E-02 0. -1.
         -2   -1    0    0    0  501 -0.00000000000E+00 -0.00000000000E+00 -0.13173814731E+04  0.13173814731E+04  0.25500000000E-02 0.  1.
    8880023    1    1    2    0    0 -0.53316980657E+03  0.11937526934E+04 -0.61190756921E+03  0.15866810061E+04  0.65864270000E+03 0.  0.
    8880022    1    1    2    0    0  0.53316980657E+03 -0.11937526934E+04  0.17681679729E+04  0.22043423439E+04  0.15294330000E+03 0.  0.
<mgrwt>
<rscale>  0 0.14255535E+04</rscale>
<asrwt>0</asrwt>
<pdfrwt beam="1">  1        2 0.38056028E+00 0.14639419E+04</pdfrwt>
<pdfrwt beam="2">  1       -2 0.20267408E+00 0.14639419E+04</pdfrwt>
<totfact> 0.43446700E-01</totfact>
</mgrwt>
</event>
<event>
 4    5  0.7289609E-008  0.8623286E+03  0.7818608E-02  0.9589435E-01
          2   -1    0    0  501    0  0.00000000000E+00  0.00000000000E+00  0.35408483831E+04  0.35408483831E+04  0.25500000000E-02 0. -1.
         -2   -1    0    0    0  501 -0.00000000000E+00 -0.00000000000E+00 -0.34846596554E+03  0.34846596555E+03  0.25500000000E-02 0.  1.
    8880023    1    1    2    0    0 -0.48023781890E+03  0.28137541129E+03  0.26001879934E+03  0.90067778204E+03  0.65864270000E+03 0.  1.
    8880022    1    1    2    0    0  0.48023781890E+03 -0.28137541129E+03  0.29323636182E+04  0.29886365666E+04  0.15294330000E+03 0.  0.
<mgrwt>
<rscale>  0 0.77999434E+03</rscale>
<asrwt>0</asrwt>
<pdfrwt beam="1">  1        2 0.54474589E+00 0.86232864E+03</pdfrwt>
<pdfrwt beam="2">  1       -2 0.53610150E-01 0.86232864E+03</pdfrwt>
<totfact> 0.26530918E+00</totfact>
</mgrwt>
</event>
<event>
 4    5  0.7289609E-008  0.1661083E+04  0.7818608E-02  0.8803541E-01
         -2   -1    0    0    0  501 -0.00000000000E+00  0.00000000000E+00  0.14723895944E+04  0.14723895944E+04  0.25500000000E-02 0.  1.
          2   -1    0    0  501    0  0.00000000000E+00 -0.00000000000E+00 -0.33309591030E+04  0.33309591030E+04  0.25500000000E-02 0. -1.
    8880023    1    1    2    0    0 -0.10248752157E+04  0.11291670152E+04  0.71466640752E+03  0.18082991003E+04  0.65864270000E+03 0.  0.
    8880022    1    1    2    0    0  0.10248752157E+04 -0.11291670152E+04 -0.25732359161E+04  0.29950495970E+04  0.15294330000E+03 0.  0.
<mgrwt>
<rscale>  0 0.16279791E+04</rscale>
<asrwt>0</asrwt>
<pdfrwt beam="1">  1        2 0.51245525E+00 0.16610832E+04</pdfrwt>
<pdfrwt beam="2">  1       -2 0.22652148E+00 0.16610832E+04</pdfrwt>
<totfact> 0.88292065E-02</totfact>
</mgrwt>
</event>
<event>
 4    5  0.7289609E-008  0.1201226E+04  0.7818608E-02  0.9155932E-01
         -2   -1    0    0    0  501 -0.00000000000E+00  0.00000000000E+00  0.60832317461E+03  0.60832317461E+03  0.25500000000E-02 0.  1.
          2   -1    0    0  501    0  0.00000000000E+00 -0.00000000000E+00 -0.34090641748E+04  0.34090641748E+04  0.25500000000E-02 0. -1.
    8880023    1    1    2    0    0  0.97511670241E+03  0.24141483951E+03 -0.19037201995E+03  0.12162176698E+04  0.65864270000E+03 0.  0.
    8880022    1    1    2    0    0 -0.97511670241E+03 -0.24141483951E+03 -0.26103689802E+04  0.28011696796E+04  0.15294330000E+03 0.  0.
<mgrwt>
<rscale>  0 0.11520097E+04</rscale>
<asrwt>0</asrwt>
<pdfrwt beam="1">  1        2 0.52447140E+00 0.12012260E+04</pdfrwt>
<pdfrwt beam="2">  1       -2 0.93588183E-01 0.12012260E+04</pdfrwt>
<totfact> 0.90643575E-01</totfact>
</mgrwt>
</event>
<event>
 4    5  0.7289609E-008  0.8342041E+03  0.7818608E-02  0.9641207E-01
          2   -1    0    0  501    0  0.00000000000E+00  0.00000000000E+00  0.24824834478E+04  0.24824834478E+04  0.25500000000E-02 0. -1.
         -2   -1    0    0    0  501 -0.00000000000E+00 -0.00000000000E+00 -0.31739808206E+03  0.31739808207E+03  0.25500000000E-02 0.  1.
    8880023    1    1    2    0    0  0.25978609258E+03  0.44113206298E+03  0.34454588850E+03  0.90255658351E+03  0.65864270000E+03 0.  0.
    8880022    1    1    2    0    0 -0.25978609258E+03 -0.44113206298E+03  0.18205394772E+04  0.18973249464E+04  0.15294330000E+03 0.  0.
<mgrwt>
<rscale>  0 0.74627832E+03</rscale>
<asrwt>0</asrwt>
<pdfrwt beam="1">  1        2 0.38192051E+00 0.83420412E+03</pdfrwt>
<pdfrwt beam="2">  1       -2 0.48830477E-01 0.83420412E+03</pdfrwt>
<totfact> 0.14627255E+01</totfact>
</mgrwt>
</event>
<event>
 4    5  0.7289609E-008  0.6696819E+03  0.7818608E-02  0.1015892E+00
          2   -1    0    0  501    0  0.00000000000E+00  0.00000000000E+00  0.37622017907E+04  0.37622017907E+04  0.25500000000E-02 0. -1.
         -2   -1    0    0    0  501 -0.00000000000E+00 -0.00000000000E+00 -0.50290809390E+02  0.50290809454E+02  0.25500000000E-02 0.  1.
    8880023    1    1    2    0    0  0.25909804176E+02  0.11828894314E+03  0.26881399761E+04  0.27703014871E+04  0.65864270000E+03 0.  0.
    8880022    1    1    2    0    0 -0.25909804176E+02 -0.11828894314E+03  0.10237710051E+04  0.10421911130E+04  0.15294330000E+03 0. -1.
<mgrwt>
<rscale>  0 0.49198654E+03</rscale>
<asrwt>0</asrwt>
<pdfrwt beam="1">  1        2 0.57880054E+00 0.66968186E+03</pdfrwt>
<pdfrwt beam="2">  1       -2 0.77370441E-02 0.66968186E+03</pdfrwt>
<totfact> 0.60062618E+01</totfact>
</mgrwt>
</event>
<event>
 4    5  0.7289609E-008  0.8881662E+03  0.7818608E-02  0.9545302E-01
         -2   -1    0    0    0  501 -0.00000000000E+00  0.00000000000E+00  0.91225337860E+03  0.91225337860E+03  0.25500000000E-02 0.  1.
          2   -1    0    0  501    0  0.00000000000E+00 -0.00000000000E+00 -0.68075829522E+03  0.68075829522E+03  0.25500000000E-02 0. -1.
    8880023    1    1    2    0    0 -0.58807060016E+03 -0.95926456259E+02  0.37049548526E+03  0.96234402718E+03  0.65864270000E+03 0.  0.
    8880022    1    1    2    0    0  0.58807060016E+03  0.95926456259E+02 -0.13900040189E+03  0.63066764664E+03  0.15294330000E+03 0.  0.
<mgrwt>
<rscale>  0 0.81024714E+03</rscale>
<asrwt>0</asrwt>
<pdfrwt beam="1">  1        2 0.10473205E+00 0.88816616E+03</pdfrwt>
<pdfrwt beam="2">  1       -2 0.14034667E+00 0.88816616E+03</pdfrwt>
<totfact> 0.15172635E+01</totfact>
</mgrwt>
</event>
<event>
 4    5  0.7289609E-008  0.8415273E+03  0.7818608E-02  0.9627307E-01
          2   -1    0    0  501    0  0.00000000000E+00  0.00000000000E+00  0.12069626337E+04  0.12069626338E+04  0.25500000000E-02 0. -1.
         -2   -1    0    0    0  501 -0.00000000000E+00 -0.00000000000E+00 -0.40413473287E+03  0.40413473287E+03  0.25500000000E-02 0.  1.
    8880023    1    1    2    0    0 -0.46855461369E+03  0.23412523965E+03  0.57812208612E+03  0.10209766925E+04  0.65864270000E+03 0.  0.
    8880022    1    1    2    0    0  0.46855461369E+03 -0.23412523965E+03  0.22470581476E+03  0.59012067415E+03  0.15294330000E+03 0.  0.
<mgrwt>
<rscale>  0 0.75514889E+03</rscale>
<asrwt>0</asrwt>
<pdfrwt beam="1">  1        2 0.18568656E+00 0.84152734E+03</pdfrwt>
<pdfrwt beam="2">  1       -2 0.62174575E-01 0.84152734E+03</pdfrwt>
<totfact> 0.45479659E+01</totfact>
</mgrwt>
</event>
<event>
 4    5  0.7289609E-008  0.6639946E+03  0.7818608E-02  0.1020392E+00
          2   -1    0    0  501    0  0.00000000000E+00  0.00000000000E+00  0.19029036481E+04  0.19029036481E+04  0.25500000000E-02 0. -1.
         -2   -1    0    0    0  501 -0.00000000000E+00 -0.00000000000E+00 -0.13535578416E+03  0.13535578418E+03  0.25500000000E-02 0.  1.
    8880023    1    1    2    0    0  0.15434086501E+02 -0.82706474769E+02  0.73275565951E+03  0.98884762972E+03  0.65864270000E+03 0.  1.
    8880022    1    1    2    0    0 -0.15434086501E+02  0.82706474769E+02  0.10347922044E+04  0.10494118025E+04  0.15294330000E+03 0.  0.
<mgrwt>
<rscale>  0 0.47545328E+03</rscale>
<asrwt>0</asrwt>
<pdfrwt beam="1">  1        2 0.29275441E+00 0.66399456E+03</pdfrwt>
<pdfrwt beam="2">  1       -2 0.20823966E-01 0.66399456E+03</pdfrwt>
<totfact> 0.15507377E+02</totfact>
</mgrwt>
</event>
<event>
 4    5  0.7289609E-008  0.7760409E+03  0.7818608E-02  0.9765220E-01
          2   -1    0    0  501    0  0.00000000000E+00  0.00000000000E+00  0.80300851470E+03  0.80300851470E+03  0.25500000000E-02 0. -1.
         -2   -1    0    0    0  501 -0.00000000000E+00 -0.00000000000E+00 -0.60030920816E+03  0.60030920816E+03  0.25500000000E-02 0.  1.
    8880023    1    1    2    0    0  0.17737613129E+03 -0.37009058303E+03 -0.20744085860E+03  0.80328777389E+03  0.65864270000E+03 0.  1.
    8880022    1    1    2    0    0 -0.17737613129E+03  0.37009058303E+03  0.41014016514E+03  0.60002994898E+03  0.15294330000E+03 0.  0.
<mgrwt>
<rscale>  0 0.67262885E+03</rscale>
<asrwt>0</asrwt>
<pdfrwt beam="1">  1        2 0.12353977E+00 0.77604094E+03</pdfrwt>
<pdfrwt beam="2">  1       -2 0.92355263E-01 0.77604094E+03</pdfrwt>
<totfact> 0.34520506E+01</totfact>
</mgrwt>
</event>
<event>
 4    5  0.7289609E-008  0.9506792E+03  0.7818608E-02  0.9449138E-01
         -2   -1    0    0    0  501 -0.00000000000E+00  0.00000000000E+00  0.19646306670E+04  0.19646306670E+04  0.25500000000E-02 0.  1.
          2   -1    0    0  501    0  0.00000000000E+00 -0.00000000000E+00 -0.13187965023E+04  0.13187965023E+04  0.25500000000E-02 0. -1.
    8880023    1    1    2    0    0 -0.68526167492E+03 -0.19928175303E+02  0.17402524242E+04  0.19829950584E+04  0.65864270000E+03 0.  1.
    8880022    1    1    2    0    0  0.68526167492E+03  0.19928175303E+02 -0.10944182595E+04  0.13004321109E+04  0.15294330000E+03 0.  0.
<mgrwt>
<rscale>  0 0.88139856E+03</rscale>
<asrwt>0</asrwt>
<pdfrwt beam="1">  1        2 0.20289177E+00 0.95067918E+03</pdfrwt>
<pdfrwt beam="2">  1       -2 0.30225087E+00 0.95067918E+03</pdfrwt>
<totfact> 0.50268186E-01</totfact>
</mgrwt>
</event>
<event>
 4    5  0.7289609E-008  0.1399799E+04  0.7818608E-02  0.8983839E-01
         -2   -1    0    0    0  501 -0.00000000000E+00  0.00000000000E+00  0.16116708781E+04  0.16116708781E+04  0.25500000000E-02 0.  1.
          2   -1    0    0  501    0  0.00000000000E+00 -0.00000000000E+00 -0.17241045842E+04  0.17241045842E+04  0.25500000000E-02 0. -1.
    8880023    1    1    2    0    0 -0.11665516666E+04  0.40593601812E+03  0.95631047637E+03  0.16952777870E+04  0.65864270000E+03 0.  0.
    8880022    1    1    2    0    0  0.11665516666E+04 -0.40593601812E+03 -0.10687441825E+04  0.16404976752E+04  0.15294330000E+03 0.  0.
<mgrwt>
<rscale>  0 0.13592718E+04</rscale>
<asrwt>0</asrwt>
<pdfrwt beam="1">  1        2 0.26524686E+00 0.13997989E+04</pdfrwt>
<pdfrwt beam="2">  1       -2 0.24794937E+00 0.13997989E+04</pdfrwt>
<totfact> 0.59689082E-01</totfact>
</mgrwt>
</event>
<event>
 4    5  0.7289609E-008  0.7653844E+03  0.7818608E-02  0.9791362E-01
          2   -1    0    0  501    0  0.00000000000E+00  0.00000000000E+00  0.15974737393E+04  0.15974737393E+04  0.25500000000E-02 0. -1.
         -2   -1    0    0    0  501 -0.00000000000E+00 -0.00000000000E+00 -0.56871399275E+03  0.56871399275E+03  0.25500000000E-02 0.  1.
    8880023    1    1    2    0    0  0.24577753758E+03 -0.30264909501E+03 -0.26215685870E+03  0.80903615341E+03  0.65864270000E+03 0.  1.
    8880022    1    1    2    0    0 -0.24577753758E+03  0.30264909501E+03  0.12909166053E+04  0.13571515787E+04  0.15294330000E+03 0.  0.
<mgrwt>
<rscale>  0 0.65828168E+03</rscale>
<asrwt>0</asrwt>
<pdfrwt beam="1">  1        2 0.24576518E+00 0.76538440E+03</pdfrwt>
<pdfrwt beam="2">  1       -2 0.87494463E-01 0.76538440E+03</pdfrwt>
<totfact> 0.12923354E+01</totfact>
</mgrwt>
</event>
<event>
 4    5  0.7289609E-008  0.1214773E+04  0.7818608E-02  0.9142894E-01
         -2   -1    0    0    0  501 -0.00000000000E+00  0.00000000000E+00  0.14763120795E+04  0.14763120795E+04  0.25500000000E-02 0.  1.
          2   -1    0    0  501    0  0.00000000000E+00 -0.00000000000E+00 -0.94843642747E+03  0.94843642747E+03  0.25500000000E-02 0. -1.
    8880023    1    1    2    0    0 -0.19283944253E+03 -0.10023353584E+04  0.66284581838E+03  0.13838489825E+04  0.65864270000E+03 0.  1.
    8880022    1    1    2    0    0  0.19283944253E+03  0.10023353584E+04 -0.13497016635E+03  0.10408995245E+04  0.15294330000E+03 0.  0.
<mgrwt>
<rscale>  0 0.11662806E+04</rscale>
<asrwt>0</asrwt>
<pdfrwt beam="1">  1        2 0.14591330E+00 0.12147730E+04</pdfrwt>
<pdfrwt beam="2">  1       -2 0.22712494E+00 0.12147730E+04</pdfrwt>
<totfact> 0.23581350E+00</totfact>
</mgrwt>
</event>
<event>
 4    5  0.7289609E-008  0.1335466E+04  0.7818608E-02  0.9035523E-01
          2   -1    0    0  501    0  0.00000000000E+00  0.00000000000E+00  0.20601898400E+04  0.20601898400E+04  0.25500000000E-02 0. -1.
         -2   -1    0    0    0  501 -0.00000000000E+00 -0.00000000000E+00 -0.12564474462E+04  0.12564474462E+04  0.25500000000E-02 0.  1.
    8880023    1    1    2    0    0  0.85590620114E+03  0.78554602599E+03 -0.62028090635E+03  0.14724865341E+04  0.65864270000E+03 0.  1.
    8880022    1    1    2    0    0 -0.85590620114E+03 -0.78554602599E+03  0.14240233001E+04  0.18441507521E+04  0.15294330000E+03 0.  0.
<mgrwt>
<rscale>  0 0.12925141E+04</rscale>
<asrwt>0</asrwt>
<pdfrwt beam="1">  1        2 0.31695228E+00 0.13354655E+04</pdfrwt>
<pdfrwt beam="2">  1       -2 0.19329961E+00 0.13354655E+04</pdfrwt>
<totfact> 0.87123278E-01</totfact>
</mgrwt>
</event>
<event>
 4    5  0.7289609E-008  0.1096238E+04  0.7818608E-02  0.9265256E-01
         -2   -1    0    0    0  501 -0.00000000000E+00  0.00000000000E+00  0.27014105394E+04  0.27014105394E+04  0.25500000000E-02 0.  1.
          2   -1    0    0  501    0  0.00000000000E+00 -0.00000000000E+00 -0.47251319419E+03  0.47251319420E+03  0.25500000000E-02 0. -1.
    8880023    1    1    2    0    0  0.46816612236E+03  0.74077506042E+03  0.19580631326E+04  0.22440473805E+04  0.65864270000E+03 0.  0.
    8880022    1    1    2    0    0 -0.46816612236E+03 -0.74077506042E+03  0.27083421253E+03  0.92987635305E+03  0.15294330000E+03 0.  0.
<mgrwt>
<rscale>  0 0.10404532E+04</rscale>
<asrwt>0</asrwt>
<pdfrwt beam="1">  1        2 0.72694337E-01 0.10962378E+04</pdfrwt>
<pdfrwt beam="2">  1       -2 0.41560163E+00 0.10962378E+04</pdfrwt>
<totfact> 0.38850385E-01</totfact>
</mgrwt>
</event>
<event>
 4    5  0.7289609E-008  0.7409331E+03  0.7818608E-02  0.9857237E-01
          2   -1    0    0  501    0  0.00000000000E+00  0.00000000000E+00  0.19559623061E+04  0.19559623061E+04  0.25500000000E-02 0. -1.
         -2   -1    0    0    0  501 -0.00000000000E+00 -0.00000000000E+00 -0.17337785733E+03  0.17337785735E+03  0.25500000000E-02 0.  1.
    8880023    1    1    2    0    0  0.31698591168E+03  0.12120870584E+03  0.86394943274E+03  0.11381522074E+04  0.65864270000E+03 0.  1.
    8880022    1    1    2    0    0 -0.31698591168E+03 -0.12120870584E+03  0.91863501600E+03  0.99118795605E+03  0.15294330000E+03 0.  0.
<mgrwt>
<rscale>  0 0.62379265E+03</rscale>
<asrwt>0</asrwt>
<pdfrwt beam="1">  1        2 0.30091726E+00 0.74093308E+03</pdfrwt>
<pdfrwt beam="2">  1       -2 0.26673518E-01 0.74093308E+03</pdfrwt>
<totfact> 0.92456441E+01</totfact>
</mgrwt>
</event>
<event>
 4    5  0.7289609E-008  0.8494583E+03  0.7818608E-02  0.9612597E-01
         -2   -1    0    0    0  501 -0.00000000000E+00  0.00000000000E+00  0.54454409589E+03  0.54454409590E+03  0.25500000000E-02 0.  1.
          2   -1    0    0  501    0  0.00000000000E+00 -0.00000000000E+00 -0.25224706528E+04  0.25224706528E+04  0.25500000000E-02 0. -1.
    8880023    1    1    2    0    0 -0.99848897253E+01 -0.53634829614E+03  0.15401292706E+03  0.86330723428E+03  0.65864270000E+03 0.  1.
    8880022    1    1    2    0    0  0.99848897253E+01  0.53634829614E+03 -0.21319394840E+04  0.22037075144E+04  0.15294330000E+03 0.  0.
<mgrwt>
<rscale>  0 0.76467988E+03</rscale>
<asrwt>0</asrwt>
<pdfrwt beam="1">  1        2 0.38807240E+00 0.84945830E+03</pdfrwt>
<pdfrwt beam="2">  1       -2 0.83776016E-01 0.84945830E+03</pdfrwt>
<totfact> 0.43453347E+00</totfact>
</mgrwt>
</event>
<event>
 4    5  0.7289609E-008  0.8542510E+03  0.7818608E-02  0.9603873E-01
         -2   -1    0    0    0  501 -0.00000000000E+00  0.00000000000E+00  0.16189869065E+04  0.16189869065E+04  0.25500000000E-02 0.  1.
          2   -1    0    0  501    0  0.00000000000E+00 -0.00000000000E+00 -0.57988722680E+03  0.57988722680E+03  0.25500000000E-02 0. -1.
    8880023    1    1    2    0    0 -0.15336019781E+03 -0.52193404397E+03  0.13165002918E+04  0.15693685740E+04  0.65864270000E+03 0.  1.
    8880022    1    1    2    0    0  0.15336019781E+03  0.52193404397E+03 -0.27740061213E+03  0.62950555927E+03  0.15294330000E+03 0.  0.
<mgrwt>
<rscale>  0 0.77040380E+03</rscale>
<asrwt>0</asrwt>
<pdfrwt beam="1">  1        2 0.89213419E-01 0.85425096E+03</pdfrwt>
<pdfrwt beam="2">  1       -2 0.24907491E+00 0.85425096E+03</pdfrwt>
<totfact> 0.34174051E+00</totfact>
</mgrwt>
</event>
<event>
 4    5  0.7289609E-008  0.1049366E+04  0.7818608E-02  0.9319644E-01
         -2   -1    0    0    0  501 -0.00000000000E+00  0.00000000000E+00  0.16674979184E+04  0.16674979184E+04  0.25500000000E-02 0.  1.
          2   -1    0    0  501    0  0.00000000000E+00 -0.00000000000E+00 -0.11997930969E+04  0.11997930969E+04  0.25500000000E-02 0. -1.
    8880023    1    1    2    0    0 -0.61590064258E+03 -0.53668009662E+03  0.13136914867E+04  0.16813550060E+04  0.65864270000E+03 0.  0.
    8880022    1    1    2    0    0  0.61590064258E+03  0.53668009662E+03 -0.84598666515E+03  0.11859360093E+04  0.15294330000E+03 0.  0.
<mgrwt>
<rscale>  0 0.98994363E+03</rscale>
<asrwt>0</asrwt>
<pdfrwt beam="1">  1        2 0.18458355E+00 0.10493662E+04</pdfrwt>
<pdfrwt beam="2">  1       -2 0.25653814E+00 0.10493662E+04</pdfrwt>
<totfact> 0.11000739E+00</totfact>
</mgrwt>
</event>
<event>
 4    5  0.7289609E-008  0.9036426E+03  0.7818608E-02  0.9520209E-01
         -2   -1    0    0    0  501 -0.00000000000E+00  0.00000000000E+00  0.58304001862E+03  0.58304001863E+03  0.25500000000E-02 0.  1.
          2   -1    0    0  501    0  0.00000000000E+00 -0.00000000000E+00 -0.18103097327E+04  0.18103097327E+04  0.25500000000E-02 0. -1.
    8880023    1    1    2    0    0 -0.20587820111E+03 -0.58341569533E+03  0.11163181152E+03  0.91051171045E+03  0.65864270000E+03 0.  1.
    8880022    1    1    2    0    0  0.20587820111E+03  0.58341569533E+03 -0.13389015256E+04  0.14828380409E+04  0.15294330000E+03 0.  0.
<mgrwt>
<rscale>  0 0.82810137E+03</rscale>
<asrwt>0</asrwt>
<pdfrwt beam="1">  1        2 0.27850919E+00 0.90364258E+03</pdfrwt>
<pdfrwt beam="2">  1       -2 0.89698465E-01 0.90364258E+03</pdfrwt>
<totfact> 0.91617746E+00</totfact>
</mgrwt>
</event>
<event>
 4    5  0.7289609E-008  0.1038189E+04  0.7818608E-02  0.9333216E-01
          2   -1    0    0  501    0  0.00000000000E+00  0.00000000000E+00  0.19806304777E+04  0.19806304777E+04  0.25500000000E-02 0. -1.
         -2   -1    0    0    0  501 -0.00000000000E+00 -0.00000000000E+00 -0.52124046638E+03  0.52124046638E+03  0.25500000000E-02 0.  1.
    8880023    1    1    2    0    0  0.72894925022E+03  0.33564774646E+03  0.13097689575E+04  0.16713262241E+04  0.65864270000E+03 0.  0.
    8880022    1    1    2    0    0 -0.72894925022E+03 -0.33564774646E+03  0.14962105380E+03  0.83054471997E+03  0.15294330000E+03 0.  0.
<mgrwt>
<rscale>  0 0.97781590E+03</rscale>
<asrwt>0</asrwt>
<pdfrwt beam="1">  1        2 0.30471238E+00 0.10381891E+04</pdfrwt>
<pdfrwt beam="2">  1       -2 0.80190841E-01 0.10381891E+04</pdfrwt>
<totfact> 0.93947517E+00</totfact>
</mgrwt>
</event>
<event>
 4    5  0.7289609E-008  0.9980442E+03  0.7818608E-02  0.9384121E-01
          2   -1    0    0  501    0  0.00000000000E+00  0.00000000000E+00  0.18842787693E+04  0.18842787693E+04  0.25500000000E-02 0. -1.
         -2   -1    0    0    0  501 -0.00000000000E+00 -0.00000000000E+00 -0.89810069817E+03  0.89810069817E+03  0.25500000000E-02 0.  1.
    8880023    1    1    2    0    0  0.73589383989E+03  0.14402162987E+03 -0.49584254707E+03  0.11144290068E+04  0.65864270000E+03 0.  0.
    8880022    1    1    2    0    0 -0.73589383989E+03 -0.14402162987E+03  0.14820206182E+04  0.16679504607E+04  0.15294330000E+03 0.  0.
<mgrwt>
<rscale>  0 0.93394066E+03</rscale>
<asrwt>0</asrwt>
<pdfrwt beam="1">  1        2 0.28988903E+00 0.99804418E+03</pdfrwt>
<pdfrwt beam="2">  1       -2 0.13816934E+00 0.99804418E+03</pdfrwt>
<totfact> 0.28704136E+00</totfact>
</mgrwt>
</event>
<event>
 4    5  0.7289609E-008  0.8818689E+03  0.7818608E-02  0.9555788E-01
          2   -1    0    0  501    0  0.00000000000E+00  0.00000000000E+00  0.20598689420E+04  0.20598689420E+04  0.25500000000E-02 0. -1.
         -2   -1    0    0    0  501 -0.00000000000E+00 -0.00000000000E+00 -0.51247666458E+03  0.51247666458E+03  0.25500000000E-02 0.  1.
    8880023    1    1    2    0    0  0.38901890875E+03  0.43880165940E+03 -0.30167040982E+02  0.88238475977E+03  0.65864270000E+03 0.  0.
    8880022    1    1    2    0    0 -0.38901890875E+03 -0.43880165940E+03  0.15775593184E+04  0.16899608468E+04  0.15294330000E+03 0.  0.
<mgrwt>
<rscale>  0 0.80292845E+03</rscale>
<asrwt>0</asrwt>
<pdfrwt beam="1">  1        2 0.31690291E+00 0.88186893E+03</pdfrwt>
<pdfrwt beam="2">  1       -2 0.78842564E-01 0.88186893E+03</pdfrwt>
<totfact> 0.89932900E+00</totfact>
</mgrwt>
</event>
<event>
 4    5  0.7289609E-008  0.1121793E+04  0.7818608E-02  0.9237172E-01
          2   -1    0    0  501    0  0.00000000000E+00  0.00000000000E+00  0.25412041118E+04  0.25412041118E+04  0.25500000000E-02 0. -1.
         -2   -1    0    0    0  501 -0.00000000000E+00 -0.00000000000E+00 -0.42705272384E+03  0.42705272385E+03  0.25500000000E-02 0.  1.
    8880023    1    1    2    0    0  0.41547648744E+03  0.80745795109E+03  0.14480087648E+04  0.18317064840E+04  0.65864270000E+03 0.  1.
    8880022    1    1    2    0    0 -0.41547648744E+03 -0.80745795109E+03  0.66614262319E+03  0.11365503517E+04  0.15294330000E+03 0. -1.
<mgrwt>
<rscale>  0 0.10677855E+04</rscale>
<asrwt>0</asrwt>
<pdfrwt beam="1">  1        2 0.39095446E+00 0.11217929E+04</pdfrwt>
<pdfrwt beam="2">  1       -2 0.65700422E-01 0.11217929E+04</pdfrwt>
<totfact> 0.70098661E+00</totfact>
</mgrwt>
</event>
<event>
 4    5  0.7289609E-008  0.7682597E+03  0.7818608E-02  0.9784175E-01
          2   -1    0    0  501    0  0.00000000000E+00  0.00000000000E+00  0.84259497351E+03  0.84259497351E+03  0.25500000000E-02 0. -1.
         -2   -1    0    0    0  501 -0.00000000000E+00 -0.00000000000E+00 -0.56747730981E+03  0.56747730981E+03  0.25500000000E-02 0.  1.
    8880023    1    1    2    0    0  0.30369454075E+03 -0.25334257756E+03  0.51307462939E+03  0.92383365238E+03  0.65864270000E+03 0.  0.
    8880022    1    1    2    0    0 -0.30369454075E+03  0.25334257756E+03 -0.23795696569E+03  0.48623863094E+03  0.15294330000E+03 0.  0.
<mgrwt>
<rscale>  0 0.66218773E+03</rscale>
<asrwt>0</asrwt>
<pdfrwt beam="1">  1        2 0.12963000E+00 0.76825975E+03</pdfrwt>
<pdfrwt beam="2">  1       -2 0.87304201E-01 0.76825975E+03</pdfrwt>
<totfact> 0.36870442E+01</totfact>
</mgrwt>
</event>
<event>
 4    5  0.7289609E-008  0.9673354E+03  0.7818608E-02  0.9425599E-01
         -2   -1    0    0    0  501 -0.00000000000E+00  0.00000000000E+00  0.17337448472E+04  0.17337448472E+04  0.25500000000E-02 0.  1.
          2   -1    0    0  501    0  0.00000000000E+00 -0.00000000000E+00 -0.13846340883E+04  0.13846340884E+04  0.25500000000E-02 0. -1.
    8880023    1    1    2    0    0  0.60162670920E+03 -0.37412936560E+03  0.14842112657E+04  0.17716152988E+04  0.65864270000E+03 0.  0.
    8880022    1    1    2    0    0 -0.60162670920E+03  0.37412936560E+03 -0.11351005069E+04  0.13467636367E+04  0.15294330000E+03 0. -1.
<mgrwt>
<rscale>  0 0.89998588E+03</rscale>
<asrwt>0</asrwt>
<pdfrwt beam="1">  1        2 0.21302063E+00 0.96733535E+03</pdfrwt>
<pdfrwt beam="2">  1       -2 0.26672998E+00 0.96733535E+03</pdfrwt>
<totfact> 0.75300126E-01</totfact>
</mgrwt>
</event>
<event>
 4    5  0.7289609E-008  0.1566915E+04  0.7818608E-02  0.8863775E-01
          2   -1    0    0  501    0  0.00000000000E+00  0.00000000000E+00  0.17890302892E+04  0.17890302892E+04  0.25500000000E-02 0. -1.
         -2   -1    0    0    0  501 -0.00000000000E+00 -0.00000000000E+00 -0.18625257968E+04  0.18625257968E+04  0.25500000000E-02 0.  1.
    8880023    1    1    2    0    0  0.12077857529E+04 -0.75011046469E+03  0.10040905942E+04  0.18610266687E+04  0.65864270000E+03 0.  1.
    8880022    1    1    2    0    0 -0.12077857529E+04  0.75011046469E+03 -0.10775861018E+04  0.17905294173E+04  0.15294330000E+03 0.  0.
<mgrwt>
<rscale>  0 0.15314948E+04</rscale>
<asrwt>0</asrwt>
<pdfrwt beam="1">  1        2 0.27523543E+00 0.15669149E+04</pdfrwt>
<pdfrwt beam="2">  1       -2 0.28654243E+00 0.15669149E+04</pdfrwt>
<totfact> 0.31317880E-01</totfact>
</mgrwt>
</event>
<event>
 4    5  0.7289609E-008  0.8337296E+03  0.7818608E-02  0.9642119E-01
         -2   -1    0    0    0  501 -0.00000000000E+00  0.00000000000E+00  0.18936388746E+04  0.18936388746E+04  0.25500000000E-02 0.  1.
          2   -1    0    0  501    0  0.00000000000E+00 -0.00000000000E+00 -0.43092750169E+03  0.43092750170E+03  0.25500000000E-02 0. -1.
    8880023    1    1    2    0    0 -0.25266474464E+03 -0.44435952741E+03  0.15724808066E+04  0.17798317213E+04  0.65864270000E+03 0.  1.
    8880022    1    1    2    0    0  0.25266474464E+03  0.44435952741E+03 -0.10976943367E+03  0.54473465501E+03  0.15294330000E+03 0.  0.
<mgrwt>
<rscale>  0 0.74570110E+03</rscale>
<asrwt>0</asrwt>
<pdfrwt beam="1">  1        2 0.66296538E-01 0.83372961E+03</pdfrwt>
<pdfrwt beam="2">  1       -2 0.29132906E+00 0.83372961E+03</pdfrwt>
<totfact> 0.26944951E+00</totfact>
</mgrwt>
</event>
<event>
 4    5  0.7289609E-008  0.1037216E+04  0.7818608E-02  0.9334409E-01
          2   -1    0    0  501    0  0.00000000000E+00  0.00000000000E+00  0.27906815867E+04  0.27906815867E+04  0.25500000000E-02 0. -1.
         -2   -1    0    0    0  501 -0.00000000000E+00 -0.00000000000E+00 -0.35981586890E+03  0.35981586891E+03  0.25500000000E-02 0.  1.
    8880023    1    1    2    0    0  0.66264899807E+03 -0.45044866710E+03  0.74307985389E+03  0.12759253786E+04  0.65864270000E+03 0.  0.
    8880022    1    1    2    0    0 -0.66264899807E+03  0.45044866710E+03  0.16877858640E+04  0.18745720770E+04  0.15294330000E+03 0.  0.
<mgrwt>
<rscale>  0 0.97675880E+03</rscale>
<asrwt>0</asrwt>
<pdfrwt beam="1">  1        2 0.42933563E+00 0.10372164E+04</pdfrwt>
<pdfrwt beam="2">  1       -2 0.55356287E-01 0.10372164E+04</pdfrwt>
<totfact> 0.72797728E+00</totfact>
</mgrwt>
</event>
<event>
 4    5  0.7289609E-008  0.8067880E+03  0.7818608E-02  0.9696307E-01
          2   -1    0    0  501    0  0.00000000000E+00  0.00000000000E+00  0.10431710282E+04  0.10431710282E+04  0.25500000000E-02 0. -1.
         -2   -1    0    0    0  501 -0.00000000000E+00 -0.00000000000E+00 -0.10515367257E+04  0.10515367257E+04  0.25500000000E-02 0.  1.
    8880023    1    1    2    0    0  0.45274598680E+03  0.11008056836E+03 -0.81749661319E+03  0.11485676205E+04  0.65864270000E+03 0.  1.
    8880022    1    1    2    0    0 -0.45274598680E+03 -0.11008056836E+03  0.80913091573E+03  0.94614013334E+03  0.15294330000E+03 0.  0.
<mgrwt>
<rscale>  0 0.71237114E+03</rscale>
<asrwt>0</asrwt>
<pdfrwt beam="1">  1        2 0.16048785E+00 0.80678799E+03</pdfrwt>
<pdfrwt beam="2">  1       -2 0.16177488E+00 0.80678799E+03</pdfrwt>
<totfact> 0.58509857E+00</totfact>
</mgrwt>
</event>
<event>
 4    5  0.7289609E-008  0.8872339E+03  0.7818608E-02  0.9546844E-01
          2   -1    0    0  501    0  0.00000000000E+00  0.00000000000E+00  0.31252335951E+04  0.31252335951E+04  0.25500000000E-02 0. -1.
         -2   -1    0    0    0  501 -0.00000000000E+00 -0.00000000000E+00 -0.50381540099E+03  0.50381540099E+03  0.25500000000E-02 0.  1.
    8880023    1    1    2    0    0  0.43960012180E+03  0.40015684723E+03 -0.49396655713E+02  0.88860790303E+03  0.65864270000E+03 0.  0.
    8880022    1    1    2    0    0 -0.43960012180E+03 -0.40015684723E+03  0.26708148498E+04  0.27404410931E+04  0.15294330000E+03 0.  0.
<mgrwt>
<rscale>  0 0.80916571E+03</rscale>
<asrwt>0</asrwt>
<pdfrwt beam="1">  1        2 0.48080516E+00 0.88723389E+03</pdfrwt>
<pdfrwt beam="2">  1       -2 0.77510062E-01 0.88723389E+03</pdfrwt>
<totfact> 0.22459544E+00</totfact>
</mgrwt>
</event>
<event>
 4    5  0.7289609E-008  0.1412528E+04  0.7818608E-02  0.8974008E-01
          2   -1    0    0  501    0  0.00000000000E+00  0.00000000000E+00  0.36741006367E+04  0.36741006367E+04  0.25500000000E-02 0. -1.
         -2   -1    0    0    0  501 -0.00000000000E+00 -0.00000000000E+00 -0.70844404683E+03  0.70844404684E+03  0.25500000000E-02 0.  1.
    8880023    1    1    2    0    0 -0.10387732078E+04 -0.69453342337E+03  0.31368393340E+03  0.14469396220E+04  0.65864270000E+03 0.  0.
    8880022    1    1    2    0    0  0.10387732078E+04  0.69453342337E+03  0.26519726565E+04  0.29356050615E+04  0.15294330000E+03 0.  0.
<mgrwt>
<rscale>  0 0.13724462E+04</rscale>
<asrwt>0</asrwt>
<pdfrwt beam="1">  1        2 0.56524625E+00 0.14125285E+04</pdfrwt>
<pdfrwt beam="2">  1       -2 0.10899139E+00 0.14125285E+04</pdfrwt>
<totfact> 0.39888732E-01</totfact>
</mgrwt>
</event>
<event>
 4    5  0.7289609E-008  0.8486229E+03  0.7818608E-02  0.9614130E-01
         -2   -1    0    0    0  501 -0.00000000000E+00  0.00000000000E+00  0.83789207129E+03  0.83789207130E+03  0.25500000000E-02 0.  1.
          2   -1    0    0  501    0  0.00000000000E+00 -0.00000000000E+00 -0.14738780903E+04  0.14738780903E+04  0.25500000000E-02 0. -1.
    8880023    1    1    2    0    0 -0.32964184506E+01  0.53510726127E+03  0.54337996269E+03  0.10076818137E+04  0.65864270000E+03 0.  0.
    8880022    1    1    2    0    0  0.32964184506E+01 -0.53510726127E+03 -0.11793659817E+04  0.13040883479E+04  0.15294330000E+03 0.  0.
<mgrwt>
<rscale>  0 0.76367950E+03</rscale>
<asrwt>0</asrwt>
<pdfrwt beam="1">  1        2 0.22675048E+00 0.84862292E+03</pdfrwt>
<pdfrwt beam="2">  1       -2 0.12890647E+00 0.84862292E+03</pdfrwt>
<totfact> 0.58923313E+00</totfact>
</mgrwt>
</event>
<event>
 4    5  0.7684676E-008  0.1239821E+04  0.7818608E-02  0.9119353E-01
         -2   -1    0    0    0  501 -0.00000000000E+00  0.00000000000E+00  0.13009182557E+04  0.13009182557E+04  0.25500000000E-02 0.  1.
          2   -1    0    0  501    0  0.00000000000E+00 -0.00000000000E+00 -0.27422132488E+04  0.27422132488E+04  0.25500000000E-02 0. -1.
    8880023    1    1    2    0    0  0.67407176928E+03 -0.80558897343E+03  0.85995604678E+03  0.15088674405E+04  0.65864270000E+03 0.  1.
    8880022    1    1    2    0    0 -0.67407176928E+03  0.80558897343E+03 -0.23012510399E+04  0.25342640640E+04  0.15294330000E+03 0.  0.
<mgrwt>
<rscale>  0 0.11926065E+04</rscale>
<asrwt>0</asrwt>
<pdfrwt beam="1">  1        2 0.42187896E+00 0.12398212E+04</pdfrwt>
<pdfrwt beam="2">  1       -2 0.20014127E+00 0.12398212E+04</pdfrwt>
<totfact> 0.32359949E-01</totfact>
</mgrwt>
</event>
<event>
 4    5  0.7289609E-008  0.7309308E+03  0.7818608E-02  0.9887199E-01
         -2   -1    0    0    0  501 -0.00000000000E+00  0.00000000000E+00  0.62138213703E+03  0.62138213704E+03  0.25500000000E-02 0.  1.
          2   -1    0    0  501    0  0.00000000000E+00 -0.00000000000E+00 -0.13815362318E+04  0.13815362318E+04  0.25500000000E-02 0. -1.
    8880023    1    1    2    0    0 -0.29504055362E+03  0.11576156484E+03  0.36999899405E+03  0.81924302258E+03  0.65864270000E+03 0.  1.
    8880022    1    1    2    0    0  0.29504055362E+03 -0.11576156484E+03 -0.11301530889E+04  0.11836753463E+04  0.15294330000E+03 0.  0.
<mgrwt>
<rscale>  0 0.60885714E+03</rscale>
<asrwt>0</asrwt>
<pdfrwt beam="1">  1        2 0.21254404E+00 0.73093083E+03</pdfrwt>
<pdfrwt beam="2">  1       -2 0.95597252E-01 0.73093083E+03</pdfrwt>
<totfact> 0.13955543E+01</totfact>
</mgrwt>
</event>
<event>
 4    5  0.7289609E-008  0.1488885E+04  0.7818608E-02  0.8917524E-01
          2   -1    0    0  501    0  0.00000000000E+00  0.00000000000E+00  0.23155128077E+04  0.23155128077E+04  0.25500000000E-02 0. -1.
         -2   -1    0    0    0  501 -0.00000000000E+00 -0.00000000000E+00 -0.12758385430E+04  0.12758385430E+04  0.25500000000E-02 0.  1.
    8880023    1    1    2    0    0  0.71069903166E+03  0.11304318133E+04 -0.47835944985E+03  0.15638437158E+04  0.65864270000E+03 0.  0.
    8880022    1    1    2    0    0 -0.71069903166E+03 -0.11304318133E+04  0.15180337146E+04  0.20275076349E+04  0.15294330000E+03 0.  0.
<mgrwt>
<rscale>  0 0.14512642E+04</rscale>
<asrwt>0</asrwt>
<pdfrwt beam="1">  1        2 0.35623274E+00 0.14888853E+04</pdfrwt>
<pdfrwt beam="2">  1       -2 0.19628285E+00 0.14888853E+04</pdfrwt>
<totfact> 0.58807706E-01</totfact>
</mgrwt>
</event>
<event>
 4    5  0.7289609E-008  0.9635227E+03  0.7818608E-02  0.9430919E-01
          2   -1    0    0  501    0  0.00000000000E+00  0.00000000000E+00  0.17033874495E+04  0.17033874495E+04  0.25500000000E-02 0. -1.
         -2   -1    0    0    0  501 -0.00000000000E+00 -0.00000000000E+00 -0.10430289300E+04  0.10430289300E+04  0.25500000000E-02 0.  1.
    8880023    1    1    2    0    0 -0.14544112303E+03  0.68804994058E+03 -0.71115309156E+03  0.11975453089E+04  0.65864270000E+03 0.  1.
    8880022    1    1    2    0    0  0.14544112303E+03 -0.68804994058E+03  0.13715116110E+04  0.15488710706E+04  0.15294330000E+03 0.  0.
<mgrwt>
<rscale>  0 0.89574262E+03</rscale>
<asrwt>0</asrwt>
<pdfrwt beam="1">  1        2 0.26205961E+00 0.96352273E+03</pdfrwt>
<pdfrwt beam="2">  1       -2 0.16046599E+00 0.96352273E+03</pdfrwt>
<totfact> 0.24376279E+00</totfact>
</mgrwt>
</event>
<event>
 4    5  0.7289609E-008  0.6678002E+03  0.7818608E-02  0.1017291E+00
          2   -1    0    0  501    0  0.00000000000E+00  0.00000000000E+00  0.72030006334E+03  0.72030006334E+03  0.25500000000E-02 0. -1.
         -2   -1    0    0    0  501 -0.00000000000E+00 -0.00000000000E+00 -0.34772052950E+03  0.34772052951E+03  0.25500000000E-02 0.  1.
    8880023    1    1    2    0    0 -0.10962843630E+03 -0.11334512604E+02  0.19873855430E+02  0.66809583266E+03  0.65864270000E+03 0.  0.
    8880022    1    1    2    0    0  0.10962843630E+03  0.11334512604E+02  0.35270567841E+03  0.39992476020E+03  0.15294330000E+03 0. -1.
<mgrwt>
<rscale>  0 0.48676833E+03</rscale>
<asrwt>0</asrwt>
<pdfrwt beam="1">  1        2 0.11081539E+00 0.66780017E+03</pdfrwt>
<pdfrwt beam="2">  1       -2 0.53495466E-01 0.66780017E+03</pdfrwt>
<totfact> 0.13221174E+02</totfact>
</mgrwt>
</event>
<event>
 4    5  0.7289609E-008  0.8419640E+03  0.7818608E-02  0.9626488E-01
         -2   -1    0    0    0  501 -0.00000000000E+00  0.00000000000E+00  0.53088862902E+03  0.53088862903E+03  0.25500000000E-02 0.  1.
          2   -1    0    0  501    0  0.00000000000E+00 -0.00000000000E+00 -0.19666320515E+04  0.19666320515E+04  0.25500000000E-02 0. -1.
    8880023    1    1    2    0    0 -0.25428233715E+03 -0.45873045426E+03  0.11830474598E+03  0.85023488274E+03  0.65864270000E+03 0.  1.
    8880022    1    1    2    0    0  0.25428233715E+03  0.45873045426E+03 -0.15540481684E+04  0.16472857978E+04  0.15294330000E+03 0.  0.
<mgrwt>
<rscale>  0 0.75567562E+03</rscale>
<asrwt>0</asrwt>
<pdfrwt beam="1">  1        2 0.30255877E+00 0.84196398E+03</pdfrwt>
<pdfrwt beam="2">  1       -2 0.81675175E-01 0.84196398E+03</pdfrwt>
<totfact> 0.93930551E+00</totfact>
</mgrwt>
</event>
<event>
 4    5  0.7289609E-008  0.1114687E+04  0.7818608E-02  0.9244878E-01
         -2   -1    0    0    0  501 -0.00000000000E+00  0.00000000000E+00  0.12287361065E+04  0.12287361065E+04  0.25500000000E-02 0.  1.
          2   -1    0    0  501    0  0.00000000000E+00 -0.00000000000E+00 -0.10688759658E+04  0.10688759658E+04  0.25500000000E-02 0. -1.
    8880023    1    1    2    0    0  0.29522844599E+02 -0.89880205925E+03 -0.44809742385E+03  0.12013818076E+04  0.65864270000E+03 0.  0.
    8880022    1    1    2    0    0 -0.29522844599E+02  0.89880205925E+03  0.60795756458E+03  0.10962302648E+04  0.15294330000E+03 0.  0.
<mgrwt>
<rscale>  0 0.10601985E+04</rscale>
<asrwt>0</asrwt>
<pdfrwt beam="1">  1        2 0.16444246E+00 0.11146869E+04</pdfrwt>
<pdfrwt beam="2">  1       -2 0.18903632E+00 0.11146869E+04</pdfrwt>
<totfact> 0.35118541E+00</totfact>
</mgrwt>
</event>
<event>
 4    5  0.7289609E-008  0.9798424E+03  0.7818608E-02  0.9408418E-01
         -2   -1    0    0    0  501 -0.00000000000E+00  0.00000000000E+00  0.38042860068E+03  0.38042860069E+03  0.25500000000E-02 0.  1.
          2   -1    0    0  501    0  0.00000000000E+00 -0.00000000000E+00 -0.42673657275E+04  0.42673657275E+04  0.25500000000E-02 0. -1.
    8880023    1    1    2    0    0  0.33787446868E+03  0.64196716665E+03 -0.36017066800E+03  0.10439416248E+04  0.65864270000E+03 0.  0.
    8880022    1    1    2    0    0 -0.33787446868E+03 -0.64196716665E+03 -0.35267664588E+04  0.36038527033E+04  0.15294330000E+03 0.  0.
<mgrwt>
<rscale>  0 0.91386112E+03</rscale>
<asrwt>0</asrwt>
<pdfrwt beam="1">  1        2 0.65651777E+00 0.97984244E+03</pdfrwt>
<pdfrwt beam="2">  1       -2 0.58527480E-01 0.97984244E+03</pdfrwt>
<totfact> 0.59241295E-01</totfact>
</mgrwt>
</event>
<event>
 4    5  0.7289609E-008  0.8937035E+03  0.7818608E-02  0.9536216E-01
          2   -1    0    0  501    0  0.00000000000E+00  0.00000000000E+00  0.24302636386E+04  0.24302636386E+04  0.25500000000E-02 0. -1.
         -2   -1    0    0    0  501 -0.00000000000E+00 -0.00000000000E+00 -0.46237518156E+03  0.46237518156E+03  0.25500000000E-02 0.  1.
    8880023    1    1    2    0    0 -0.29876135353E+03  0.52501173646E+03  0.71569669609E+02  0.89656460652E+03  0.65864270000E+03 0.  1.
    8880022    1    1    2    0    0  0.29876135353E+03 -0.52501173646E+03  0.18963187874E+04  0.19960742136E+04  0.15294330000E+03 0.  0.
<mgrwt>
<rscale>  0 0.81665614E+03</rscale>
<asrwt>0</asrwt>
<pdfrwt beam="1">  1        2 0.37388671E+00 0.89370346E+03</pdfrwt>
<pdfrwt beam="2">  1       -2 0.71134644E-01 0.89370346E+03</pdfrwt>
<totfact> 0.70197779E+00</totfact>
</mgrwt>
</event>
<event>
 4    5  0.7289609E-008  0.1432528E+04  0.7818608E-02  0.8958811E-01
          2   -1    0    0  501    0  0.00000000000E+00  0.00000000000E+00  0.99816939965E+03  0.99816939966E+03  0.25500000000E-02 0. -1.
         -2   -1    0    0    0  501 -0.00000000000E+00 -0.00000000000E+00 -0.25224561938E+04  0.25224561938E+04  0.25500000000E-02 0.  1.
    8880023    1    1    2    0    0 -0.52551986283E+03 -0.11585146467E+04 -0.17047027806E+04  0.22266901646E+04  0.65864270000E+03 0.  0.
    8880022    1    1    2    0    0  0.52551986283E+03  0.11585146467E+04  0.18041598644E+03  0.12939354288E+04  0.15294330000E+03 0.  0.
<mgrwt>
<rscale>  0 0.13931240E+04</rscale>
<asrwt>0</asrwt>
<pdfrwt beam="1">  1        2 0.15356452E+00 0.14325284E+04</pdfrwt>
<pdfrwt beam="2">  1       -2 0.38807018E+00 0.14325284E+04</pdfrwt>
<totfact> 0.21460018E-01</totfact>
</mgrwt>
</event>
<event>
 4    5  0.7289609E-008  0.1109139E+04  0.7818608E-02  0.9250948E-01
         -2   -1    0    0    0  501 -0.00000000000E+00  0.00000000000E+00  0.99159561284E+03  0.99159561285E+03  0.25500000000E-02 0.  1.
          2   -1    0    0  501    0  0.00000000000E+00 -0.00000000000E+00 -0.13947669950E+04  0.13947669950E+04  0.25500000000E-02 0. -1.
    8880023    1    1    2    0    0  0.88257858145E+03 -0.13204168150E+03  0.39699014889E+03  0.11780455605E+04  0.65864270000E+03 0.  0.
    8880022    1    1    2    0    0 -0.88257858145E+03  0.13204168150E+03 -0.80016153107E+03  0.12083170473E+04  0.15294330000E+03 0.  0.
<mgrwt>
<rscale>  0 0.10542684E+04</rscale>
<asrwt>0</asrwt>
<pdfrwt beam="1">  1        2 0.21457954E+00 0.11091394E+04</pdfrwt>
<pdfrwt beam="2">  1       -2 0.15255317E+00 0.11091394E+04</pdfrwt>
<totfact> 0.40930386E+00</totfact>
</mgrwt>
</event>
<event>
 4    5  0.7289609E-008  0.1264586E+04  0.7818608E-02  0.9096762E-01
         -2   -1    0    0    0  501 -0.00000000000E+00  0.00000000000E+00  0.82215780905E+03  0.82215780905E+03  0.25500000000E-02 0.  1.
          2   -1    0    0  501    0  0.00000000000E+00 -0.00000000000E+00 -0.30671636908E+04  0.30671636908E+04  0.25500000000E-02 0. -1.
    8880023    1    1    2    0    0  0.31734570798E+03  0.10318233077E+04  0.13469528869E+03  0.12717392279E+04  0.65864270000E+03 0.  0.
    8880022    1    1    2    0    0 -0.31734570798E+03 -0.10318233077E+04 -0.23797011705E+04  0.26175822720E+04  0.15294330000E+03 0.  0.
<mgrwt>
<rscale>  0 0.12185631E+04</rscale>
<asrwt>0</asrwt>
<pdfrwt beam="1">  1        2 0.47187133E+00 0.12645860E+04</pdfrwt>
<pdfrwt beam="2">  1       -2 0.12648582E+00 0.12645860E+04</pdfrwt>
<totfact> 0.71998009E-01</totfact>
</mgrwt>
</event>
<event>
 4    5  0.7289609E-008  0.7276833E+03  0.7818608E-02  0.9897397E-01
          2   -1    0    0  501    0  0.00000000000E+00  0.00000000000E+00  0.65359542343E+03  0.65359542344E+03  0.25500000000E-02 0. -1.
         -2   -1    0    0    0  501 -0.00000000000E+00 -0.00000000000E+00 -0.15448986349E+04  0.15448986349E+04  0.25500000000E-02 0.  1.
    8880023    1    1    2    0    0 -0.22549216305E+03 -0.21181598467E+03 -0.14034703836E+04  0.15809022901E+04  0.65864270000E+03 0.  1.
    8880022    1    1    2    0    0  0.22549216305E+03  0.21181598467E+03  0.51216717214E+03  0.61759176823E+03  0.15294330000E+03 0.  0.
<mgrwt>
<rscale>  0 0.60387598E+03</rscale>
<asrwt>0</asrwt>
<pdfrwt beam="1">  1        2 0.10055314E+00 0.72768326E+03</pdfrwt>
<pdfrwt beam="2">  1       -2 0.23767671E+00 0.72768326E+03</pdfrwt>
<totfact> 0.35252339E+00</totfact>
</mgrwt>
</event>
<event>
 4    5  0.7289609E-008  0.1568299E+04  0.7818608E-02  0.8862855E-01
         -2   -1    0    0    0  501 -0.00000000000E+00  0.00000000000E+00  0.20254274459E+04  0.20254274459E+04  0.25500000000E-02 0.  1.
          2   -1    0    0  501    0  0.00000000000E+00 -0.00000000000E+00 -0.22861030985E+04  0.22861030985E+04  0.25500000000E-02 0. -1.
    8880023    1    1    2    0    0 -0.26075701376E+02 -0.14230503727E+04 -0.16782120301E+04  0.22969453911E+04  0.65864270000E+03 0.  0.
    8880022    1    1    2    0    0  0.26075701376E+02  0.14230503727E+04  0.14175363775E+04  0.20145851533E+04  0.15294330000E+03 0.  0.
<mgrwt>
<rscale>  0 0.15329157E+04</rscale>
<asrwt>0</asrwt>
<pdfrwt beam="1">  1        2 0.35170817E+00 0.15682992E+04</pdfrwt>
<pdfrwt beam="2">  1       -2 0.31160422E+00 0.15682992E+04</pdfrwt>
<totfact> 0.11581809E-01</totfact>
</mgrwt>
</event>
<event>
 4    5  0.7289609E-008  0.1002379E+04  0.7818608E-02  0.9378452E-01
         -2   -1    0    0    0  501 -0.00000000000E+00  0.00000000000E+00  0.14781444716E+04  0.14781444716E+04  0.25500000000E-02 0.  1.
          2   -1    0    0  501    0  0.00000000000E+00 -0.00000000000E+00 -0.10121805571E+04  0.10121805571E+04  0.25500000000E-02 0. -1.
    8880023    1    1    2    0    0 -0.62536360259E+03  0.42411528045E+03  0.11028678450E+04  0.14903291906E+04  0.65864270000E+03 0.  1.
    8880022    1    1    2    0    0  0.62536360259E+03 -0.42411528045E+03 -0.63690393052E+03  0.99999583813E+03  0.15294330000E+03 0.  0.
<mgrwt>
<rscale>  0 0.93870427E+03</rscale>
<asrwt>0</asrwt>
<pdfrwt beam="1">  1        2 0.15572009E+00 0.10023790E+04</pdfrwt>
<pdfrwt beam="2">  1       -2 0.22740684E+00 0.10023790E+04</pdfrwt>
<totfact> 0.21827265E+00</totfact>
</mgrwt>
</event>
<event>
 4    5  0.7289609E-008  0.8190902E+03  0.7818608E-02  0.9670944E-01
          2   -1    0    0  501    0  0.00000000000E+00  0.00000000000E+00  0.22048179408E+04  0.22048179408E+04  0.25500000000E-02 0. -1.
         -2   -1    0    0    0  501 -0.00000000000E+00 -0.00000000000E+00 -0.41248029662E+03  0.41248029663E+03  0.25500000000E-02 0.  1.
    8880023    1    1    2    0    0 -0.43698233087E+03  0.21481380796E+03  0.71312298492E+02  0.82218865217E+03  0.65864270000E+03 0.  1.
    8880022    1    1    2    0    0  0.43698233087E+03 -0.21481380796E+03  0.17210253457E+04  0.17951095853E+04  0.15294330000E+03 0.  0.
<mgrwt>
<rscale>  0 0.72773408E+03</rscale>
<asrwt>0</asrwt>
<pdfrwt beam="1">  1        2 0.33920277E+00 0.81909019E+03</pdfrwt>
<pdfrwt beam="2">  1       -2 0.63458506E-01 0.81909019E+03</pdfrwt>
<totfact> 0.12145277E+01</totfact>
</mgrwt>
</event>
<event>
 4    5  0.7289609E-008  0.1178751E+04  0.7818608E-02  0.9178060E-01
         -2   -1    0    0    0  501 -0.00000000000E+00  0.00000000000E+00  0.11290233794E+04  0.11290233794E+04  0.25500000000E-02 0.  1.
          2   -1    0    0  501    0  0.00000000000E+00 -0.00000000000E+00 -0.17838597021E+04  0.17838597021E+04  0.25500000000E-02 0. -1.
    8880023    1    1    2    0    0 -0.30570926474E+03  0.92853939333E+03  0.59369018174E+03  0.13198188503E+04  0.65864270000E+03 0.  1.
    8880022    1    1    2    0    0  0.30570926474E+03 -0.92853939333E+03 -0.12485265044E+04  0.15930642312E+04  0.15294330000E+03 0.  0.
<mgrwt>
<rscale>  0 0.11282785E+04</rscale>
<asrwt>0</asrwt>
<pdfrwt beam="1">  1        2 0.27443995E+00 0.11787509E+04</pdfrwt>
<pdfrwt beam="2">  1       -2 0.17369590E+00 0.11787509E+04</pdfrwt>
<totfact> 0.17205089E+00</totfact>
</mgrwt>
</event>
<event>
 4    5  0.7289609E-008  0.9025695E+03  0.7818608E-02  0.9521919E-01
         -2   -1    0    0    0  501 -0.00000000000E+00  0.00000000000E+00  0.25382026609E+03  0.25382026610E+03  0.25500000000E-02 0.  1.
          2   -1    0    0  501    0  0.00000000000E+00 -0.00000000000E+00 -0.30543640479E+04  0.30543640479E+04  0.25500000000E-02 0. -1.
    8880023    1    1    2    0    0  0.55953696375E+03 -0.26026877756E+03 -0.23813295775E+04  0.25466374327E+04  0.65864270000E+03 0. -1.
    8880022    1    1    2    0    0 -0.55953696375E+03  0.26026877756E+03 -0.41921420424E+03  0.76154688130E+03  0.15294330000E+03 0.  0.
<mgrwt>
<rscale>  0 0.82686913E+03</rscale>
<asrwt>0</asrwt>
<pdfrwt beam="1">  1        2 0.46990213E+00 0.90256947E+03</pdfrwt>
<pdfrwt beam="2">  1       -2 0.39049274E-01 0.90256947E+03</pdfrwt>
<totfact> 0.10357762E+01</totfact>
</mgrwt>
</event>
<event>
 4    5  0.7289609E-008  0.8483434E+03  0.7818608E-02  0.9614644E-01
          2   -1    0    0  501    0  0.00000000000E+00  0.00000000000E+00  0.18738967965E+04  0.18738967965E+04  0.25500000000E-02 0. -1.
         -2   -1    0    0    0  501 -0.00000000000E+00 -0.00000000000E+00 -0.31870404405E+03  0.31870404406E+03  0.25500000000E-02 0.  1.
    8880023    1    1    2    0    0 -0.22442587284E+03 -0.48529302416E+03  0.46175958186E+03  0.96587183902E+03  0.65864270000E+03 0.  1.
    8880022    1    1    2    0    0  0.22442587284E+03  0.48529302416E+03  0.10934331706E+04  0.12267290016E+04  0.15294330000E+03 0. -1.
<mgrwt>
<rscale>  0 0.76334457E+03</rscale>
<asrwt>0</asrwt>
<pdfrwt beam="1">  1        2 0.28829181E+00 0.84834338E+03</pdfrwt>
<pdfrwt beam="2">  1       -2 0.49031393E-01 0.84834338E+03</pdfrwt>
<totfact> 0.31475208E+01</totfact>
</mgrwt>
</event>
<event>
 4    5  0.8658306E-008  0.7496003E+03  0.7818608E-02  0.9832816E-01
          2   -1    0    0  501    0  0.00000000000E+00  0.00000000000E+00  0.23125897949E+04  0.23125897949E+04  0.25500000000E-02 0. -1.
         -2   -1    0    0    0  501 -0.00000000000E+00 -0.00000000000E+00 -0.11094006204E+04  0.11094006204E+04  0.25500000000E-02 0.  1.
    8880023    1    1    2    0    0 -0.15962647532E+03  0.32032767367E+03 -0.96342714087E+03  0.12206934473E+04  0.65864270000E+03 0.  0.
    8880022    1    1    2    0    0  0.15962647532E+03 -0.32032767367E+03  0.21666163154E+04  0.22012969680E+04  0.15294330000E+03 0. -1.
<mgrwt>
<rscale>  0 0.63630814E+03</rscale>
<asrwt>0</asrwt>
<pdfrwt beam="1">  1        2 0.35578305E+00 0.74960032E+03</pdfrwt>
<pdfrwt beam="2">  1       -2 0.17067702E+00 0.74960032E+03</pdfrwt>
<totfact> 0.98570417E-01</totfact>
</mgrwt>
</event>
<event>
 4    5  0.7289609E-008  0.7087651E+03  0.7818608E-02  0.9962616E-01
          2   -1    0    0  501    0  0.00000000000E+00  0.00000000000E+00  0.12894439741E+04  0.12894439741E+04  0.25500000000E-02 0. -1.
         -2   -1    0    0    0  501 -0.00000000000E+00 -0.00000000000E+00 -0.44713197240E+03  0.44713197241E+03  0.25500000000E-02 0.  1.
    8880023    1    1    2    0    0 -0.45202301591E+02 -0.25786516327E+03 -0.12779292980E+03  0.72019367511E+03  0.65864270000E+03 0.  1.
    8880022    1    1    2    0    0  0.45202301591E+02  0.25786516327E+03  0.97010493154E+03  0.10163822714E+04  0.15294330000E+03 0.  0.
<mgrwt>
<rscale>  0 0.57320305E+03</rscale>
<asrwt>0</asrwt>
<pdfrwt beam="1">  1        2 0.19837599E+00 0.70876505E+03</pdfrwt>
<pdfrwt beam="2">  1       -2 0.68789536E-01 0.70876505E+03</pdfrwt>
<totfact> 0.33168549E+01</totfact>
</mgrwt>
</event>
<event>
 4    5  0.7289609E-008  0.1228835E+04  0.7818608E-02  0.9129590E-01
         -2   -1    0    0    0  501 -0.00000000000E+00  0.00000000000E+00  0.92560847063E+03  0.92560847063E+03  0.25500000000E-02 0.  1.
          2   -1    0    0  501    0  0.00000000000E+00 -0.00000000000E+00 -0.18150607641E+04  0.18150607641E+04  0.25500000000E-02 0. -1.
    8880023    1    1    2    0    0 -0.10265040273E+04  0.15004865270E+03  0.18109476033E+03  0.12421073362E+04  0.65864270000E+03 0.  0.
    8880022    1    1    2    0    0  0.10265040273E+04 -0.15004865270E+03 -0.10705470538E+04  0.14985618985E+04  0.15294330000E+03 0.  0.
<mgrwt>
<rscale>  0 0.11810692E+04</rscale>
<asrwt>0</asrwt>
<pdfrwt beam="1">  1        2 0.27924012E+00 0.12288349E+04</pdfrwt>
<pdfrwt beam="2">  1       -2 0.14240130E+00 0.12288349E+04</pdfrwt>
<totfact> 0.28214891E+00</totfact>
</mgrwt>
</event>
<event>
 4    5  0.7289609E-008  0.9223479E+03  0.7818608E-02  0.9491068E-01
         -2   -1    0    0    0  501 -0.00000000000E+00  0.00000000000E+00  0.41183470789E+03  0.41183470790E+03  0.25500000000E-02 0.  1.
          2   -1    0    0  501    0  0.00000000000E+00 -0.00000000000E+00 -0.16052798846E+04  0.16052798847E+04  0.25500000000E-02 0. -1.
    8880023    1    1    2    0    0  0.24259464644E+02 -0.64523398404E+03 -0.90954705180E+03  0.12953769573E+04  0.65864270000E+03 0.  0.
    8880022    1    1    2    0    0 -0.24259464644E+02  0.64523398404E+03 -0.28389812496E+03  0.72173763526E+03  0.15294330000E+03 0. -1.
<mgrwt>
<rscale>  0 0.84945529E+03</rscale>
<asrwt>0</asrwt>
<pdfrwt beam="1">  1        2 0.24696613E+00 0.92234789E+03</pdfrwt>
<pdfrwt beam="2">  1       -2 0.63359187E-01 0.92234789E+03</pdfrwt>
<totfact> 0.25710363E+01</totfact>
</mgrwt>
</event>
<event>
 4    5  0.7289609E-008  0.1059754E+04  0.7818608E-02  0.9307247E-01
          2   -1    0    0  501    0  0.00000000000E+00  0.00000000000E+00  0.21378330718E+04  0.21378330718E+04  0.25500000000E-02 0. -1.
         -2   -1    0    0    0  501 -0.00000000000E+00 -0.00000000000E+00 -0.56479327883E+03  0.56479327883E+03  0.25500000000E-02 0.  1.
    8880023    1    1    2    0    0 -0.66652569901E+03  0.49498601403E+03  0.18171177822E+03  0.10752195302E+04  0.65864270000E+03 0.  0.
    8880022    1    1    2    0    0  0.66652569901E+03 -0.49498601403E+03  0.13913280148E+04  0.16274068204E+04  0.15294330000E+03 0.  0.
<mgrwt>
<rscale>  0 0.10011841E+04</rscale>
<asrwt>0</asrwt>
<pdfrwt beam="1">  1        2 0.32889739E+00 0.10597537E+04</pdfrwt>
<pdfrwt beam="2">  1       -2 0.86891275E-01 0.10597537E+04</pdfrwt>
<totfact> 0.63895579E+00</totfact>
</mgrwt>
</event>
<event>
 4    5  0.7289609E-008  0.6702648E+03  0.7818608E-02  0.1015474E+00
          2   -1    0    0  501    0  0.00000000000E+00  0.00000000000E+00  0.12746026069E+04  0.12746026069E+04  0.25500000000E-02 0. -1.
         -2   -1    0    0    0  501 -0.00000000000E+00 -0.00000000000E+00 -0.23151596546E+03  0.23151596547E+03  0.25500000000E-02 0.  1.
    8880023    1    1    2    0    0  0.10487581574E+03  0.66676458250E+02  0.29464770546E+03  0.73216949090E+03  0.65864270000E+03 0.  1.
    8880022    1    1    2    0    0 -0.10487581574E+03 -0.66676458250E+02  0.74843893601E+03  0.77394908151E+03  0.15294330000E+03 0.  0.
<mgrwt>
<rscale>  0 0.49355959E+03</rscale>
<asrwt>0</asrwt>
<pdfrwt beam="1">  1        2 0.19609271E+00 0.67026479E+03</pdfrwt>
<pdfrwt beam="2">  1       -2 0.35617841E-01 0.67026479E+03</pdfrwt>
<totfact> 0.12939991E+02</totfact>
</mgrwt>
</event>
<event>
 4    5  0.7289609E-008  0.7846268E+03  0.7818608E-02  0.9745079E-01
          2   -1    0    0  501    0  0.00000000000E+00  0.00000000000E+00  0.18867572922E+04  0.18867572922E+04  0.25500000000E-02 0. -1.
         -2   -1    0    0    0  501 -0.00000000000E+00 -0.00000000000E+00 -0.80494010831E+03  0.80494010832E+03  0.25500000000E-02 0.  1.
    8880023    1    1    2    0    0 -0.30419024605E+03 -0.29882652252E+03 -0.57583745442E+03  0.97325637760E+03  0.65864270000E+03 0.  1.
    8880022    1    1    2    0    0  0.30419024605E+03  0.29882652252E+03  0.16576546383E+04  0.17184410229E+04  0.15294330000E+03 0.  0.
<mgrwt>
<rscale>  0 0.68395099E+03</rscale>
<asrwt>0</asrwt>
<pdfrwt beam="1">  1        2 0.29027035E+00 0.78462679E+03</pdfrwt>
<pdfrwt beam="2">  1       -2 0.12383694E+00 0.78462679E+03</pdfrwt>
<totfact> 0.38968868E+00</totfact>
</mgrwt>
</event>
<event>
 4    5  0.7289609E-008  0.1350683E+04  0.7818608E-02  0.9022983E-01
         -2   -1    0    0    0  501 -0.00000000000E+00  0.00000000000E+00  0.79154955025E+03  0.79154955026E+03  0.25500000000E-02 0.  1.
          2   -1    0    0  501    0  0.00000000000E+00 -0.00000000000E+00 -0.22915558837E+04  0.22915558837E+04  0.25500000000E-02 0. -1.
    8880023    1    1    2    0    0  0.26180767349E+02  0.11789187969E+04 -0.27984609105E+03  0.13793690598E+04  0.65864270000E+03 0.  0.
    8880022    1    1    2    0    0 -0.26180767349E+02 -0.11789187969E+04 -0.12201602424E+04  0.17037363741E+04  0.15294330000E+03 0.  0.
<mgrwt>
<rscale>  0 0.13083336E+04</rscale>
<asrwt>0</asrwt>
<pdfrwt beam="1">  1        2 0.35254706E+00 0.13506832E+04</pdfrwt>
<pdfrwt beam="2">  1       -2 0.12177685E+00 0.13506832E+04</pdfrwt>
<totfact> 0.22588067E+00</totfact>
</mgrwt>
</event>
<event>
 4    5  0.7289609E-008  0.9725130E+03  0.7818608E-02  0.9418437E-01
         -2   -1    0    0    0  501 -0.00000000000E+00  0.00000000000E+00  0.75380915228E+03  0.75380915228E+03  0.25500000000E-02 0.  1.
          2   -1    0    0  501    0  0.00000000000E+00 -0.00000000000E+00 -0.17261715822E+04  0.17261715823E+04  0.25500000000E-02 0. -1.
    8880023    1    1    2    0    0  0.69890405057E+03  0.15331136404E+03  0.29525883713E+03  0.10163460205E+04  0.65864270000E+03 0.  1.
    8880022    1    1    2    0    0 -0.69890405057E+03 -0.15331136404E+03 -0.12676212671E+04  0.14636347140E+04  0.15294330000E+03 0.  0.
<mgrwt>
<rscale>  0 0.90573798E+03</rscale>
<asrwt>0</asrwt>
<pdfrwt beam="1">  1        2 0.26556486E+00 0.97251296E+03</pdfrwt>
<pdfrwt beam="2">  1       -2 0.11597064E+00 0.97251296E+03</pdfrwt>
<totfact> 0.54746215E+00</totfact>
</mgrwt>
</event>
<event>
 4    5  0.7289609E-008  0.7374369E+03  0.7818608E-02  0.9867477E-01
          2   -1    0    0  501    0  0.00000000000E+00  0.00000000000E+00  0.47595817391E+03  0.47595817391E+03  0.25500000000E-02 0. -1.
         -2   -1    0    0    0  501 -0.00000000000E+00 -0.00000000000E+00 -0.12579801162E+04  0.12579801162E+04  0.25500000000E-02 0.  1.
    8880023    1    1    2    0    0 -0.31794502027E+03  0.94413959802E+02 -0.10484759445E+04  0.12818404910E+04  0.65864270000E+03 0.  1.
    8880022    1    1    2    0    0  0.31794502027E+03 -0.94413959802E+02  0.26645400222E+03  0.45209779919E+03  0.15294330000E+03 0.  0.
<mgrwt>
<rscale>  0 0.61863713E+03</rscale>
<asrwt>0</asrwt>
<pdfrwt beam="1">  1        2 0.73224335E-01 0.73743694E+03</pdfrwt>
<pdfrwt beam="2">  1       -2 0.19353540E+00 0.73743694E+03</pdfrwt>
<totfact> 0.97576944E+00</totfact>
</mgrwt>
</event>
<event>
 4    5  0.7289609E-008  0.1429699E+04  0.7818608E-02  0.8960943E-01
          2   -1    0    0  501    0  0.00000000000E+00  0.00000000000E+00  0.15316658267E+04  0.15316658267E+04  0.25500000000E-02 0. -1.
         -2   -1    0    0    0  501 -0.00000000000E+00 -0.00000000000E+00 -0.14641988363E+04  0.14641988363E+04  0.25500000000E-02 0.  1.
    8880023    1    1    2    0    0 -0.72315533197E+03 -0.10427252396E+04 -0.60404655747E+03  0.15520670118E+04  0.65864270000E+03 0.  0.
    8880022    1    1    2    0    0  0.72315533197E+03  0.10427252396E+04  0.67151354787E+03  0.14437976511E+04  0.15294330000E+03 0.  0.
<mgrwt>
<rscale>  0 0.13902004E+04</rscale>
<asrwt>0</asrwt>
<pdfrwt beam="1">  1        2 0.23564090E+00 0.14296992E+04</pdfrwt>
<pdfrwt beam="2">  1       -2 0.22526136E+00 0.14296992E+04</pdfrwt>
<totfact> 0.10562920E+00</totfact>
</mgrwt>
</event>
<event>
 4    5  0.7289609E-008  0.9420275E+03  0.7818608E-02  0.9461679E-01
          2   -1    0    0  501    0  0.00000000000E+00  0.00000000000E+00  0.17957594006E+04  0.17957594006E+04  0.25500000000E-02 0. -1.
         -2   -1    0    0    0  501 -0.00000000000E+00 -0.00000000000E+00 -0.62636212123E+03  0.62636212124E+03  0.25500000000E-02 0.  1.
    8880023    1    1    2    0    0 -0.45418149256E+03 -0.49731759620E+03 -0.12963325736E+03  0.95090515161E+03  0.65864270000E+03 0.  1.
    8880022    1    1    2    0    0  0.45418149256E+03  0.49731759620E+03  0.12990305367E+04  0.14712163702E+04  0.15294330000E+03 0.  0.
<mgrwt>
<rscale>  0 0.87169022E+03</rscale>
<asrwt>0</asrwt>
<pdfrwt beam="1">  1        2 0.27627067E+00 0.94202751E+03</pdfrwt>
<pdfrwt beam="2">  1       -2 0.96363405E-01 0.94202751E+03</pdfrwt>
<totfact> 0.78593817E+00</totfact>
</mgrwt>
</event>
<event>
 4    5  0.7289609E-008  0.9163686E+03  0.7818608E-02  0.9500250E-01
          2   -1    0    0  501    0  0.00000000000E+00  0.00000000000E+00  0.14429843680E+04  0.14429843680E+04  0.25500000000E-02 0. -1.
         -2   -1    0    0    0  501 -0.00000000000E+00 -0.00000000000E+00 -0.92933092478E+03  0.92933092479E+03  0.25500000000E-02 0.  1.
    8880023    1    1    2    0    0  0.27819272721E+03 -0.57317539436E+03 -0.58924462129E+03  0.10894680611E+04  0.65864270000E+03 0.  0.
    8880022    1    1    2    0    0 -0.27819272721E+03  0.57317539436E+03  0.11028980645E+04  0.12828472317E+04  0.15294330000E+03 0.  0.
<mgrwt>
<rscale>  0 0.84265421E+03</rscale>
<asrwt>0</asrwt>
<pdfrwt beam="1">  1        2 0.22199759E+00 0.91636861E+03</pdfrwt>
<pdfrwt beam="2">  1       -2 0.14297399E+00 0.91636861E+03</pdfrwt>
<totfact> 0.46600116E+00</totfact>
</mgrwt>
</event>
<event>
 4    5  0.7289609E-008  0.7857810E+03  0.7818608E-02  0.9742429E-01
         -2   -1    0    0    0  501 -0.00000000000E+00  0.00000000000E+00  0.65663313820E+03  0.65663313821E+03  0.25500000000E-02 0.  1.
          2   -1    0    0  501    0  0.00000000000E+00 -0.00000000000E+00 -0.88341532394E+03  0.88341532394E+03  0.25500000000E-02 0. -1.
    8880023    1    1    2    0    0  0.28505547316E+03 -0.31997636720E+03  0.30256658190E+03  0.84202033295E+03  0.65864270000E+03 0.  1.
    8880022    1    1    2    0    0 -0.28505547316E+03  0.31997636720E+03 -0.52934876764E+03  0.69802812920E+03  0.15294330000E+03 0.  0.
<mgrwt>
<rscale>  0 0.68545841E+03</rscale>
<asrwt>0</asrwt>
<pdfrwt beam="1">  1        2 0.13591005E+00 0.78578095E+03</pdfrwt>
<pdfrwt beam="2">  1       -2 0.10102048E+00 0.78578095E+03</pdfrwt>
<totfact> 0.24548428E+01</totfact>
</mgrwt>
</event>
<event>
 4    5  0.7289609E-008  0.8613980E+03  0.7818608E-02  0.9591081E-01
          2   -1    0    0  501    0  0.00000000000E+00  0.00000000000E+00  0.22886501987E+04  0.22886501987E+04  0.25500000000E-02 0. -1.
         -2   -1    0    0    0  501 -0.00000000000E+00 -0.00000000000E+00 -0.48639978073E+03  0.48639978074E+03  0.25500000000E-02 0.  1.
    8880023    1    1    2    0    0  0.15208320494E+03  0.53391670768E+03 -0.22403262085E+02  0.86168930850E+03  0.65864270000E+03 0.  1.
    8880022    1    1    2    0    0 -0.15208320494E+03 -0.53391670768E+03  0.18246536800E+04  0.19133606709E+04  0.15294330000E+03 0.  0.
<mgrwt>
<rscale>  0 0.77889292E+03</rscale>
<asrwt>0</asrwt>
<pdfrwt beam="1">  1        2 0.35210003E+00 0.86139803E+03</pdfrwt>
<pdfrwt beam="2">  1       -2 0.74830736E-01 0.86139803E+03</pdfrwt>
<totfact> 0.75723311E+00</totfact>
</mgrwt>
</event>
<event>
 4    5  0.7289609E-008  0.7562272E+03  0.7818608E-02  0.9814975E-01
         -2   -1    0    0    0  501 -0.00000000000E+00  0.00000000000E+00  0.51037828321E+03  0.51037828321E+03  0.25500000000E-02 0.  1.
          2   -1    0    0  501    0  0.00000000000E+00 -0.00000000000E+00 -0.18671638619E+04  0.18671638619E+04  0.25500000000E-02 0. -1.
    8880023    1    1    2    0    0  0.36830216778E+03  0.49222509103E+02  0.18974057847E+03  0.77966725953E+03  0.65864270000E+03 0.  0.
    8880022    1    1    2    0    0 -0.36830216778E+03 -0.49222509103E+02 -0.15465261572E+04  0.15978748856E+04  0.15294330000E+03 0.  0.
<mgrwt>
<rscale>  0 0.64565076E+03</rscale>
<asrwt>0</asrwt>
<pdfrwt beam="1">  1        2 0.28725598E+00 0.75622718E+03</pdfrwt>
<pdfrwt beam="2">  1       -2 0.78519737E-01 0.75622718E+03</pdfrwt>
<totfact> 0.11771206E+01</totfact>
</mgrwt>
</event>
<event>
 4    5  0.7289609E-008  0.8822228E+03  0.7818608E-02  0.9555194E-01
          2   -1    0    0  501    0  0.00000000000E+00  0.00000000000E+00  0.19252120806E+04  0.19252120806E+04  0.25500000000E-02 0. -1.
         -2   -1    0    0    0  501 -0.00000000000E+00 -0.00000000000E+00 -0.59927806936E+03  0.59927806936E+03  0.25500000000E-02 0.  1.
    8880023    1    1    2    0    0 -0.42147902525E+03 -0.40848777470E+03 -0.18052932231E+03  0.90050423279E+03  0.65864270000E+03 0.  0.
    8880022    1    1    2    0    0  0.42147902525E+03  0.40848777470E+03  0.15064633335E+04  0.16239859171E+04  0.15294330000E+03 0.  0.
<mgrwt>
<rscale>  0 0.80334057E+03</rscale>
<asrwt>0</asrwt>
<pdfrwt beam="1">  1        2 0.29618648E+00 0.88222278E+03</pdfrwt>
<pdfrwt beam="2">  1       -2 0.92196626E-01 0.88222278E+03</pdfrwt>
<totfact> 0.74557973E+00</totfact>
</mgrwt>
</event>
<event>
 4    5  0.7289609E-008  0.9192667E+03  0.7818608E-02  0.9495784E-01
         -2   -1    0    0    0  501 -0.00000000000E+00  0.00000000000E+00  0.35450089368E+03  0.35450089369E+03  0.25500000000E-02 0.  1.
          2   -1    0    0  501    0  0.00000000000E+00 -0.00000000000E+00 -0.40561853693E+04  0.40561853693E+04  0.25500000000E-02 0. -1.
    8880023    1    1    2    0    0 -0.60518332875E+03 -0.21211845729E+03 -0.33241476069E+03  0.97752282874E+03  0.65864270000E+03 0.  1.
    8880022    1    1    2    0    0  0.60518332875E+03  0.21211845729E+03 -0.33692697149E+04  0.34331634342E+04  0.15294330000E+03 0.  0.
<mgrwt>
<rscale>  0 0.84595344E+03</rscale>
<asrwt>0</asrwt>
<pdfrwt beam="1">  1        2 0.62402849E+00 0.91926672E+03</pdfrwt>
<pdfrwt beam="2">  1       -2 0.54538602E-01 0.91926672E+03</pdfrwt>
<totfact> 0.10453526E+00</totfact>
</mgrwt>
</event>
<event>
 4    5  0.7289609E-008  0.7585215E+03  0.7818608E-02  0.9808950E-01
         -2   -1    0    0    0  501 -0.00000000000E+00  0.00000000000E+00  0.39945997017E+03  0.39945997018E+03  0.25500000000E-02 0.  1.
          2   -1    0    0  501    0  0.00000000000E+00 -0.00000000000E+00 -0.14007247669E+04  0.14007247669E+04  0.25500000000E-02 0. -1.
    8880023    1    1    2    0    0 -0.95692575892E+02  0.36385113473E+03 -0.43378921277E+02  0.75976091924E+03  0.65864270000E+03 0.  0.
    8880022    1    1    2    0    0  0.95692575892E+02 -0.36385113473E+03 -0.95788587543E+03  0.10404238178E+04  0.15294330000E+03 0.  0.
<mgrwt>
<rscale>  0 0.64884430E+03</rscale>
<asrwt>0</asrwt>
<pdfrwt beam="1">  1        2 0.21549612E+00 0.75852154E+03</pdfrwt>
<pdfrwt beam="2">  1       -2 0.61455381E-01 0.75852154E+03</pdfrwt>
<totfact> 0.36308279E+01</totfact>
</mgrwt>
</event>
<event>
 4    5  0.7289609E-008  0.1030048E+04  0.7818608E-02  0.9343260E-01
          2   -1    0    0  501    0  0.00000000000E+00  0.00000000000E+00  0.20270606319E+04  0.20270606319E+04  0.25500000000E-02 0. -1.
         -2   -1    0    0    0  501 -0.00000000000E+00 -0.00000000000E+00 -0.66016028479E+03  0.66016028480E+03  0.25500000000E-02 0.  1.
    8880023    1    1    2    0    0  0.78045881257E+03 -0.13443512041E+03 -0.77406987614E+02  0.10329524712E+04  0.65864270000E+03 0.  1.
    8880022    1    1    2    0    0 -0.78045881257E+03  0.13443512041E+03  0.14443073348E+04  0.16542684456E+04  0.15294330000E+03 0.  0.
<mgrwt>
<rscale>  0 0.96895974E+03</rscale>
<asrwt>0</asrwt>
<pdfrwt beam="1">  1        2 0.31185548E+00 0.10300480E+04</pdfrwt>
<pdfrwt beam="2">  1       -2 0.10156312E+00 0.10300480E+04</pdfrwt>
<totfact> 0.51224534E+00</totfact>
</mgrwt>
</event>
<event>
 4    5  0.7289609E-008  0.1259163E+04  0.7818608E-02  0.9101652E-01
          2   -1    0    0  501    0  0.00000000000E+00  0.00000000000E+00  0.18101404850E+04  0.18101404850E+04  0.25500000000E-02 0. -1.
         -2   -1    0    0    0  501 -0.00000000000E+00 -0.00000000000E+00 -0.11521736852E+04  0.11521736852E+04  0.25500000000E-02 0.  1.
    8880023    1    1    2    0    0  0.83358164144E+03  0.67588704561E+03 -0.51925345632E+03  0.13620264350E+04  0.65864270000E+03 0.  0.
    8880022    1    1    2    0    0 -0.83358164144E+03 -0.67588704561E+03  0.11772202561E+04  0.16002877353E+04  0.15294330000E+03 0.  0.
<mgrwt>
<rscale>  0 0.12128850E+04</rscale>
<asrwt>0</asrwt>
<pdfrwt beam="1">  1        2 0.27848315E+00 0.12591632E+04</pdfrwt>
<pdfrwt beam="2">  1       -2 0.17725749E+00 0.12591632E+04</pdfrwt>
<totfact> 0.15565006E+00</totfact>
</mgrwt>
</event>
<event>
 4    5  0.7289609E-008  0.7098672E+03  0.7818608E-02  0.9958494E-01
         -2   -1    0    0    0  501 -0.00000000000E+00  0.00000000000E+00  0.52959035233E+03  0.52959035234E+03  0.25500000000E-02 0.  1.
          2   -1    0    0  501    0  0.00000000000E+00 -0.00000000000E+00 -0.76626490438E+03  0.76626490438E+03  0.25500000000E-02 0. -1.
    8880023    1    1    2    0    0 -0.18405154727E+03  0.19033192894E+03  0.22273850636E+03  0.74399184384E+03  0.65864270000E+03 0.  1.
    8880022    1    1    2    0    0  0.18405154727E+03 -0.19033192894E+03 -0.45941305840E+03  0.55186341288E+03  0.15294330000E+03 0.  0.
<mgrwt>
<rscale>  0 0.57508248E+03</rscale>
<asrwt>0</asrwt>
<pdfrwt beam="1">  1        2 0.11788691E+00 0.70986719E+03</pdfrwt>
<pdfrwt beam="2">  1       -2 0.81475439E-01 0.70986719E+03</pdfrwt>
<totfact> 0.49176463E+01</totfact>
</mgrwt>
</event>
<event>
 4    5  0.7289609E-008  0.9722300E+03  0.7818608E-02  0.9418827E-01
         -2   -1    0    0    0  501 -0.00000000000E+00  0.00000000000E+00  0.11590188264E+04  0.11590188264E+04  0.25500000000E-02 0.  1.
          2   -1    0    0  501    0  0.00000000000E+00 -0.00000000000E+00 -0.10492533189E+04  0.10492533189E+04  0.25500000000E-02 0. -1.
    8880023    1    1    2    0    0  0.50510556306E+03  0.50625021232E+03  0.75660730785E+03  0.12319438834E+04  0.65864270000E+03 0.  1.
    8880022    1    1    2    0    0 -0.50510556306E+03 -0.50625021232E+03 -0.64684180032E+03  0.97632826189E+03  0.15294330000E+03 0.  0.
<mgrwt>
<rscale>  0 0.90542390E+03</rscale>
<asrwt>0</asrwt>
<pdfrwt beam="1">  1        2 0.16142359E+00 0.97222997E+03</pdfrwt>
<pdfrwt beam="2">  1       -2 0.17831059E+00 0.97222997E+03</pdfrwt>
<totfact> 0.43400907E+00</totfact>
</mgrwt>
</event>
<event>
 4    5  0.7289609E-008  0.8088316E+03  0.7818608E-02  0.9692016E-01
          2   -1    0    0  501    0  0.00000000000E+00  0.00000000000E+00  0.28490659775E+04  0.28490659775E+04  0.25500000000E-02 0. -1.
         -2   -1    0    0    0  501 -0.00000000000E+00 -0.00000000000E+00 -0.34426807509E+03  0.34426807510E+03  0.25500000000E-02 0.  1.
    8880023    1    1    2    0    0  0.82368805287E+01 -0.46939374542E+03  0.19587900536E+03  0.83221218775E+03  0.65864270000E+03 0.  1.
    8880022    1    1    2    0    0 -0.82368805287E+01  0.46939374542E+03  0.23089188970E+04  0.23611218648E+04  0.15294330000E+03 0.  0.
<mgrwt>
<rscale>  0 0.71494159E+03</rscale>
<asrwt>0</asrwt>
<pdfrwt beam="1">  1        2 0.43831786E+00 0.80883159E+03</pdfrwt>
<pdfrwt beam="2">  1       -2 0.52964318E-01 0.80883159E+03</pdfrwt>
<totfact> 0.76132801E+00</totfact>
</mgrwt>
</event>
<event>
 4    5  0.7289609E-008  0.7744583E+03  0.7818608E-02  0.9769019E-01
          2   -1    0    0  501    0  0.00000000000E+00  0.00000000000E+00  0.21046937773E+04  0.21046937773E+04  0.25500000000E-02 0. -1.
         -2   -1    0    0    0  501 -0.00000000000E+00 -0.00000000000E+00 -0.42443987602E+03  0.42443987603E+03  0.25500000000E-02 0.  1.
    8880023    1    1    2    0    0  0.37273460872E+03 -0.16445168623E+03 -0.19354863780E+02  0.77470011144E+03  0.65864270000E+03 0.  1.
    8880022    1    1    2    0    0 -0.37273460872E+03  0.16445168623E+03  0.16996087651E+04  0.17544335419E+04  0.15294330000E+03 0.  0.
<mgrwt>
<rscale>  0 0.67051978E+03</rscale>
<asrwt>0</asrwt>
<pdfrwt beam="1">  1        2 0.32379904E+00 0.77445830E+03</pdfrwt>
<pdfrwt beam="2">  1       -2 0.65298443E-01 0.77445830E+03</pdfrwt>
<totfact> 0.13052131E+01</totfact>
</mgrwt>
</event>
<event>
 4    5  0.7289609E-008  0.8164641E+03  0.7818608E-02  0.9676266E-01
          2   -1    0    0  501    0  0.00000000000E+00  0.00000000000E+00  0.28318071720E+04  0.28318071720E+04  0.25500000000E-02 0. -1.
         -2   -1    0    0    0  501 -0.00000000000E+00 -0.00000000000E+00 -0.51793843682E+03  0.51793843683E+03  0.25500000000E-02 0.  1.
    8880023    1    1    2    0    0  0.37961221453E+03  0.29782214164E+03 -0.15369488187E+03  0.83080429973E+03  0.65864270000E+03 0.  1.
    8880022    1    1    2    0    0 -0.37961221453E+03 -0.29782214164E+03  0.24675636171E+04  0.25189413091E+04  0.15294330000E+03 0.  0.
<mgrwt>
<rscale>  0 0.72447630E+03</rscale>
<asrwt>0</asrwt>
<pdfrwt beam="1">  1        2 0.43566265E+00 0.81646413E+03</pdfrwt>
<pdfrwt beam="2">  1       -2 0.79682836E-01 0.81646413E+03</pdfrwt>
<totfact> 0.32325024E+00</totfact>
</mgrwt>
</event>
<event>
 4    5  0.7289609E-008  0.7952222E+03  0.7818608E-02  0.9721224E-01
         -2   -1    0    0    0  501 -0.00000000000E+00  0.00000000000E+00  0.73493691346E+03  0.73493691346E+03  0.25500000000E-02 0.  1.
          2   -1    0    0  501    0  0.00000000000E+00 -0.00000000000E+00 -0.32545189673E+04  0.32545189673E+04  0.25500000000E-02 0. -1.
    8880023    1    1    2    0    0 -0.22419773654E+03  0.38510185992E+03  0.49604392926E+03  0.93725015530E+03  0.65864270000E+03 0.  1.
    8880022    1    1    2    0    0  0.22419773654E+03 -0.38510185992E+03 -0.30156259831E+04  0.30522057255E+04  0.15294330000E+03 0.  0.
<mgrwt>
<rscale>  0 0.69767092E+03</rscale>
<asrwt>0</asrwt>
<pdfrwt beam="1">  1        2 0.50069522E+00 0.79522215E+03</pdfrwt>
<pdfrwt beam="2">  1       -2 0.11306722E+00 0.79522215E+03</pdfrwt>
<totfact> 0.78318313E-01</totfact>
</mgrwt>
</event>
<event>
 4    5  0.7289609E-008  0.1593683E+04  0.7818608E-02  0.8846168E-01
          2   -1    0    0  501    0  0.00000000000E+00  0.00000000000E+00  0.17988468452E+04  0.17988468452E+04  0.25500000000E-02 0. -1.
         -2   -1    0    0    0  501 -0.00000000000E+00 -0.00000000000E+00 -0.15603916008E+04  0.15603916008E+04  0.25500000000E-02 0.  1.
    8880023    1    1    2    0    0  0.11859162091E+04 -0.83643178081E+03 -0.56811539048E+03  0.16919162752E+04  0.65864270000E+03 0.  0.
    8880022    1    1    2    0    0 -0.11859162091E+04  0.83643178081E+03  0.80657063493E+03  0.16673221708E+04  0.15294330000E+03 0.  0.
<mgrwt>
<rscale>  0 0.15589558E+04</rscale>
<asrwt>0</asrwt>
<pdfrwt beam="1">  1        2 0.27674567E+00 0.15936830E+04</pdfrwt>
<pdfrwt beam="2">  1       -2 0.24006025E+00 0.15936830E+04</pdfrwt>
<totfact> 0.59466908E-01</totfact>
</mgrwt>
</event>
<event>
 4    5  0.7289609E-008  0.9226575E+03  0.7818608E-02  0.9490596E-01
          2   -1    0    0  501    0  0.00000000000E+00  0.00000000000E+00  0.27562134594E+04  0.27562134594E+04  0.25500000000E-02 0. -1.
         -2   -1    0    0    0  501 -0.00000000000E+00 -0.00000000000E+00 -0.27309511873E+03  0.27309511874E+03  0.25500000000E-02 0.  1.
    8880023    1    1    2    0    0  0.59130490738E+03  0.26047112591E+03  0.80450198939E+03  0.12241406611E+04  0.65864270000E+03 0.  1.
    8880022    1    1    2    0    0 -0.59130490738E+03 -0.26047112591E+03  0.16786163513E+04  0.18051679170E+04  0.15294330000E+03 0.  0.
<mgrwt>
<rscale>  0 0.84980688E+03</rscale>
<asrwt>0</asrwt>
<pdfrwt beam="1">  1        2 0.42403285E+00 0.92265752E+03</pdfrwt>
<pdfrwt beam="2">  1       -2 0.42014633E-01 0.92265752E+03</pdfrwt>
<totfact> 0.13557492E+01</totfact>
</mgrwt>
</event>
<event>
 4    5  0.7289609E-008  0.7179861E+03  0.7818608E-02  0.9929460E-01
         -2   -1    0    0    0  501 -0.00000000000E+00  0.00000000000E+00  0.37547715659E+03  0.37547715660E+03  0.25500000000E-02 0.  1.
          2   -1    0    0  501    0  0.00000000000E+00 -0.00000000000E+00 -0.13124146577E+04  0.13124146577E+04  0.25500000000E-02 0. -1.
    8880023    1    1    2    0    0 -0.22288795438E+03  0.17892688372E+03 -0.23206493733E+02  0.71836106349E+03  0.65864270000E+03 0.  1.
    8880022    1    1    2    0    0  0.22288795438E+03 -0.17892688372E+03 -0.91373100739E+03  0.96953075083E+03  0.15294330000E+03 0.  0.
<mgrwt>
<rscale>  0 0.58854531E+03</rscale>
<asrwt>0</asrwt>
<pdfrwt beam="1">  1        2 0.20190994E+00 0.71798613E+03</pdfrwt>
<pdfrwt beam="2">  1       -2 0.57765717E-01 0.71798613E+03</pdfrwt>
<totfact> 0.46649560E+01</totfact>
</mgrwt>
</event>
<event>
 4    5  0.7289609E-008  0.6925864E+03  0.7818608E-02  0.1002947E+00
          2   -1    0    0  501    0  0.00000000000E+00  0.00000000000E+00  0.11446386365E+04  0.11446386365E+04  0.25500000000E-02 0. -1.
         -2   -1    0    0    0  501 -0.00000000000E+00 -0.00000000000E+00 -0.58012113954E+03  0.58012113955E+03  0.25500000000E-02 0.  1.
    8880023    1    1    2    0    0  0.11442368406E+03 -0.18103289480E+03 -0.34796575734E+03  0.77508455217E+03  0.65864270000E+03 0.  1.
    8880022    1    1    2    0    0 -0.11442368406E+03  0.18103289480E+03  0.91248325431E+03  0.94967522389E+03  0.15294330000E+03 0.  0.
<mgrwt>
<rscale>  0 0.54376805E+03</rscale>
<asrwt>0</asrwt>
<pdfrwt beam="1">  1        2 0.17609825E+00 0.69258638E+03</pdfrwt>
<pdfrwt beam="2">  1       -2 0.89249407E-01 0.69258638E+03</pdfrwt>
<totfact> 0.22585847E+01</totfact>
</mgrwt>
</event>
<event>
 4    5  0.7289609E-008  0.7751962E+03  0.7818608E-02  0.9767245E-01
         -2   -1    0    0    0  501 -0.00000000000E+00  0.00000000000E+00  0.30206876501E+03  0.30206876502E+03  0.25500000000E-02 0.  1.
          2   -1    0    0  501    0  0.00000000000E+00 -0.00000000000E+00 -0.33784108999E+04  0.33784108999E+04  0.25500000000E-02 0. -1.
    8880023    1    1    2    0    0 -0.15247064654E+03  0.37930417029E+03 -0.24108079316E+03  0.81181839518E+03  0.65864270000E+03 0.  1.
    8880022    1    1    2    0    0  0.15247064654E+03 -0.37930417029E+03 -0.28352613417E+04  0.28686612697E+04  0.15294330000E+03 0.  0.
<mgrwt>
<rscale>  0 0.67150403E+03</rscale>
<asrwt>0</asrwt>
<pdfrwt beam="1">  1        2 0.51975550E+00 0.77519621E+03</pdfrwt>
<pdfrwt beam="2">  1       -2 0.46472120E-01 0.77519621E+03</pdfrwt>
<totfact> 0.46511750E+00</totfact>
</mgrwt>
</event>
<event>
 4    5  0.7289609E-008  0.1052043E+04  0.7818608E-02  0.9316430E-01
          2   -1    0    0  501    0  0.00000000000E+00  0.00000000000E+00  0.61887648754E+03  0.61887648754E+03  0.25500000000E-02 0. -1.
         -2   -1    0    0    0  501 -0.00000000000E+00 -0.00000000000E+00 -0.19623886926E+04  0.19623886926E+04  0.25500000000E-02 0.  1.
    8880023    1    1    2    0    0 -0.77247553592E+03  0.27616114398E+03 -0.13926182355E+04  0.17453306813E+04  0.65864270000E+03 0.  0.
    8880022    1    1    2    0    0  0.77247553592E+03 -0.27616114398E+03  0.49106030468E+02  0.83593449880E+03  0.15294330000E+03 0.  0.
<mgrwt>
<rscale>  0 0.99284259E+03</rscale>
<asrwt>0</asrwt>
<pdfrwt beam="1">  1        2 0.95211768E-01 0.10520426E+04</pdfrwt>
<pdfrwt beam="2">  1       -2 0.30190595E+00 0.10520426E+04</pdfrwt>
<totfact> 0.14775241E+00</totfact>
</mgrwt>
</event>
<event>
 4    5  0.7289609E-008  0.1289714E+04  0.7818608E-02  0.9074494E-01
         -2   -1    0    0    0  501 -0.00000000000E+00  0.00000000000E+00  0.15022439420E+04  0.15022439420E+04  0.25500000000E-02 0.  1.
          2   -1    0    0  501    0  0.00000000000E+00 -0.00000000000E+00 -0.11798991974E+04  0.11798991974E+04  0.25500000000E-02 0. -1.
    8880023    1    1    2    0    0 -0.77371520908E+03 -0.79430230647E+03  0.74057011328E+03  0.14872140659E+04  0.65864270000E+03 0.  1.
    8880022    1    1    2    0    0  0.77371520908E+03  0.79430230647E+03 -0.41822536864E+03  0.11949290736E+04  0.15294330000E+03 0.  0.
<mgrwt>
<rscale>  0 0.12448339E+04</rscale>
<asrwt>0</asrwt>
<pdfrwt beam="1">  1        2 0.18152295E+00 0.12897138E+04</pdfrwt>
<pdfrwt beam="2">  1       -2 0.23111445E+00 0.12897138E+04</pdfrwt>
<totfact> 0.15778136E+00</totfact>
</mgrwt>
</event>
<event>
 4    5  0.7289609E-008  0.1077084E+04  0.7818608E-02  0.9287010E-01
          2   -1    0    0  501    0  0.00000000000E+00  0.00000000000E+00  0.22889047273E+04  0.22889047273E+04  0.25500000000E-02 0. -1.
         -2   -1    0    0    0  501 -0.00000000000E+00 -0.00000000000E+00 -0.66802406853E+03  0.66802406853E+03  0.25500000000E-02 0.  1.
    8880023    1    1    2    0    0  0.34049665856E+03 -0.78125623922E+03 -0.46556337126E+02  0.10780895068E+04  0.65864270000E+03 0.  0.
    8880022    1    1    2    0    0 -0.34049665856E+03  0.78125623922E+03  0.16674369959E+04  0.18788392890E+04  0.15294330000E+03 0.  0.
<mgrwt>
<rscale>  0 0.10198761E+04</rscale>
<asrwt>0</asrwt>
<pdfrwt beam="1">  1        2 0.35213919E+00 0.10770838E+04</pdfrwt>
<pdfrwt beam="2">  1       -2 0.10277293E+00 0.10770838E+04</pdfrwt>
<totfact> 0.35409805E+00</totfact>
</mgrwt>
</event>
<event>
 4    5  0.7289609E-008  0.6593073E+03  0.7818608E-02  0.1024878E+00
          2   -1    0    0  501    0  0.00000000000E+00  0.00000000000E+00  0.10632556778E+04  0.10632556778E+04  0.25500000000E-02 0. -1.
         -2   -1    0    0    0  501 -0.00000000000E+00 -0.00000000000E+00 -0.24058266227E+03  0.24058266228E+03  0.25500000000E-02 0.  1.
    8880023    1    1    2    0    0 -0.21677025020E+02 -0.20149561253E+02  0.24149384788E+03  0.70214342058E+03  0.65864270000E+03 0.  1.
    8880022    1    1    2    0    0  0.21677025020E+02  0.20149561253E+02  0.58117916769E+03  0.60169491955E+03  0.15294330000E+03 0.  0.
<mgrwt>
<rscale>  0 0.45966788E+03</rscale>
<asrwt>0</asrwt>
<pdfrwt beam="1">  1        2 0.16357780E+00 0.65930729E+03</pdfrwt>
<pdfrwt beam="2">  1       -2 0.37012717E-01 0.65930729E+03</pdfrwt>
<totfact> 0.16083130E+02</totfact>
</mgrwt>
</event>
<event>
 4    5  0.7289609E-008  0.9118574E+03  0.7818608E-02  0.9507259E-01
         -2   -1    0    0    0  501 -0.00000000000E+00  0.00000000000E+00  0.24485380042E+03  0.24485380043E+03  0.25500000000E-02 0.  1.
          2   -1    0    0  501    0  0.00000000000E+00 -0.00000000000E+00 -0.39256287721E+04  0.39256287721E+04  0.25500000000E-02 0. -1.
    8880023    1    1    2    0    0  0.56795046504E+03  0.27405468459E+03 -0.78596893492E+03  0.12038401363E+04  0.65864270000E+03 0.  1.
    8880022    1    1    2    0    0 -0.56795046504E+03 -0.27405468459E+03 -0.28948060367E+04  0.29666424362E+04  0.15294330000E+03 0.  0.
<mgrwt>
<rscale>  0 0.83750784E+03</rscale>
<asrwt>0</asrwt>
<pdfrwt beam="1">  1        2 0.60394284E+00 0.91185739E+03</pdfrwt>
<pdfrwt beam="2">  1       -2 0.37669818E-01 0.91185739E+03</pdfrwt>
<totfact> 0.27867377E+00</totfact>
</mgrwt>
</event>
<event>
 4    5  0.7289609E-008  0.6686694E+03  0.7818608E-02  0.1016635E+00
          2   -1    0    0  501    0  0.00000000000E+00  0.00000000000E+00  0.14244027569E+04  0.14244027569E+04  0.25500000000E-02 0. -1.
         -2   -1    0    0    0  501 -0.00000000000E+00 -0.00000000000E+00 -0.13330175202E+03  0.13330175204E+03  0.25500000000E-02 0.  1.
    8880023    1    1    2    0    0  0.11517169646E+03  0.66336709057E+01  0.10987876209E+04  0.12862554052E+04  0.65864270000E+03 0.  0.
    8880022    1    1    2    0    0 -0.11517169646E+03 -0.66336709057E+01  0.19231338396E+03  0.27144910374E+03  0.15294330000E+03 0.  0.
<mgrwt>
<rscale>  0 0.48920636E+03</rscale>
<asrwt>0</asrwt>
<pdfrwt beam="1">  1        2 0.21913888E+00 0.66866937E+03</pdfrwt>
<pdfrwt beam="2">  1       -2 0.20507962E-01 0.66866937E+03</pdfrwt>
<totfact> 0.29125591E+02</totfact>
</mgrwt>
</event>
<event>
 4    5  0.7289609E-008  0.9188743E+03  0.7818608E-02  0.9496387E-01
          2   -1    0    0  501    0  0.00000000000E+00  0.00000000000E+00  0.35995278956E+04  0.35995278956E+04  0.25500000000E-02 0. -1.
         -2   -1    0    0    0  501 -0.00000000000E+00 -0.00000000000E+00 -0.44626340441E+03  0.44626340442E+03  0.25500000000E-02 0.  1.
    8880023    1    1    2    0    0  0.45699509855E+03 -0.44908273553E+03  0.10232908579E+03  0.92455463414E+03  0.65864270000E+03 0.  0.
    8880022    1    1    2    0    0 -0.45699509855E+03  0.44908273553E+03  0.30509354054E+04  0.31212366659E+04  0.15294330000E+03 0.  0.
<mgrwt>
<rscale>  0 0.84550704E+03</rscale>
<asrwt>0</asrwt>
<pdfrwt beam="1">  1        2 0.55377355E+00 0.91887433E+03</pdfrwt>
<pdfrwt beam="2">  1       -2 0.68655904E-01 0.91887433E+03</pdfrwt>
<totfact> 0.14130389E+00</totfact>
</mgrwt>
</event>
<event>
 4    5  0.7289609E-008  0.8225533E+03  0.7818608E-02  0.9663999E-01
          2   -1    0    0  501    0  0.00000000000E+00  0.00000000000E+00  0.10724409301E+04  0.10724409301E+04  0.25500000000E-02 0. -1.
         -2   -1    0    0    0  501 -0.00000000000E+00 -0.00000000000E+00 -0.49788765802E+03  0.49788765802E+03  0.25500000000E-02 0.  1.
    8880023    1    1    2    0    0  0.39562708421E+03  0.29370548073E+03  0.34250513489E+02  0.82326605852E+03  0.65864270000E+03 0.  0.
    8880022    1    1    2    0    0 -0.39562708421E+03 -0.29370548073E+03  0.54030275856E+03  0.74706252957E+03  0.15294330000E+03 0.  0.
<mgrwt>
<rscale>  0 0.73201336E+03</rscale>
<asrwt>0</asrwt>
<pdfrwt beam="1">  1        2 0.16499091E+00 0.82255328E+03</pdfrwt>
<pdfrwt beam="2">  1       -2 0.76598102E-01 0.82255328E+03</pdfrwt>
<totfact> 0.34876020E+01</totfact>
</mgrwt>
</event>
<event>
 4    5  0.7289609E-008  0.1067621E+04  0.7818608E-02  0.9297993E-01
          2   -1    0    0  501    0  0.00000000000E+00  0.00000000000E+00  0.93363459765E+03  0.93363459766E+03  0.25500000000E-02 0. -1.
         -2   -1    0    0    0  501 -0.00000000000E+00 -0.00000000000E+00 -0.13801473262E+04  0.13801473262E+04  0.25500000000E-02 0.  1.
    8880023    1    1    2    0    0  0.67360344617E+03  0.50225685342E+03 -0.85432519184E+03  0.13673643586E+04  0.65864270000E+03 0.  1.
    8880022    1    1    2    0    0 -0.67360344617E+03 -0.50225685342E+03  0.40781246333E+03  0.94641756522E+03  0.15294330000E+03 0.  0.
<mgrwt>
<rscale>  0 0.10096784E+04</rscale>
<asrwt>0</asrwt>
<pdfrwt beam="1">  1        2 0.14363609E+00 0.10676206E+04</pdfrwt>
<pdfrwt beam="2">  1       -2 0.21233036E+00 0.10676206E+04</pdfrwt>
<totfact> 0.30361579E+00</totfact>
</mgrwt>
</event>
<event>
 4    5  0.7289609E-008  0.1084648E+04  0.7818608E-02  0.9278344E-01
         -2   -1    0    0    0  501 -0.00000000000E+00  0.00000000000E+00  0.24058845974E+04  0.24058845974E+04  0.25500000000E-02 0.  1.
          2   -1    0    0  501    0  0.00000000000E+00 -0.00000000000E+00 -0.10238810734E+04  0.10238810734E+04  0.25500000000E-02 0. -1.
    8880023    1    1    2    0    0 -0.78501657251E+03 -0.35552924113E+03  0.20563498325E+04  0.23248735235E+04  0.65864270000E+03 0.  0.
    8880022    1    1    2    0    0  0.78501657251E+03  0.35552924113E+03 -0.67434630854E+03  0.11048921473E+04  0.15294330000E+03 0.  0.
<mgrwt>
<rscale>  0 0.10280126E+04</rscale>
<asrwt>0</asrwt>
<pdfrwt beam="1">  1        2 0.15752016E+00 0.10846485E+04</pdfrwt>
<pdfrwt beam="2">  1       -2 0.37013609E+00 0.10846485E+04</pdfrwt>
<totfact> 0.28189195E-01</totfact>
</mgrwt>
</event>
<event>
 4    5  0.7289609E-008  0.1045662E+04  0.7818608E-02  0.9324114E-01
         -2   -1    0    0    0  501 -0.00000000000E+00  0.00000000000E+00  0.10617847426E+04  0.10617847426E+04  0.25500000000E-02 0.  1.
          2   -1    0    0  501    0  0.00000000000E+00 -0.00000000000E+00 -0.23750595209E+04  0.23750595209E+04  0.25500000000E-02 0. -1.
    8880023    1    1    2    0    0 -0.80277036202E+03  0.12312414276E+03  0.70149238469E+03  0.12591670186E+04  0.65864270000E+03 0.  0.
    8880022    1    1    2    0    0  0.80277036202E+03 -0.12312414276E+03 -0.20147671630E+04  0.21776772448E+04  0.15294330000E+03 0.  0.
<mgrwt>
<rscale>  0 0.98592880E+03</rscale>
<asrwt>0</asrwt>
<pdfrwt beam="1">  1        2 0.36539377E+00 0.10456625E+04</pdfrwt>
<pdfrwt beam="2">  1       -2 0.16335150E+00 0.10456625E+04</pdfrwt>
<totfact> 0.97425940E-01</totfact>
</mgrwt>
</event>
<event>
 4    5  0.7289609E-008  0.7225327E+03  0.7818608E-02  0.9914107E-01
          2   -1    0    0  501    0  0.00000000000E+00  0.00000000000E+00  0.93169711736E+03  0.93169711736E+03  0.25500000000E-02 0. -1.
         -2   -1    0    0    0  501 -0.00000000000E+00 -0.00000000000E+00 -0.87221958938E+03  0.87221958938E+03  0.25500000000E-02 0.  1.
    8880023    1    1    2    0    0 -0.18632260902E+03  0.23135946788E+03 -0.68016514472E+03  0.99230950230E+03  0.65864270000E+03 0.  1.
    8880022    1    1    2    0    0  0.18632260902E+03 -0.23135946788E+03  0.73964267270E+03  0.81160720444E+03  0.15294330000E+03 0.  0.
<mgrwt>
<rscale>  0 0.59582424E+03</rscale>
<asrwt>0</asrwt>
<pdfrwt beam="1">  1        2 0.14333802E+00 0.72253272E+03</pdfrwt>
<pdfrwt beam="2">  1       -2 0.13418763E+00 0.72253272E+03</pdfrwt>
<totfact> 0.11408181E+01</totfact>
</mgrwt>
</event>
<event>
 4    5  0.7289609E-008  0.1099237E+04  0.7818608E-02  0.9261906E-01
         -2   -1    0    0    0  501 -0.00000000000E+00  0.00000000000E+00  0.72851570308E+03  0.72851570308E+03  0.25500000000E-02 0.  1.
          2   -1    0    0  501    0  0.00000000000E+00 -0.00000000000E+00 -0.22504322564E+04  0.22504322564E+04  0.25500000000E-02 0. -1.
    8880023    1    1    2    0    0  0.63461090756E+03  0.60973872054E+03  0.12405540792E+03  0.11062152873E+04  0.65864270000E+03 0.  0.
    8880022    1    1    2    0    0 -0.63461090756E+03 -0.60973872054E+03 -0.16459719612E+04  0.18727326722E+04  0.15294330000E+03 0.  0.
<mgrwt>
<rscale>  0 0.10436681E+04</rscale>
<asrwt>0</asrwt>
<pdfrwt beam="1">  1        2 0.34622034E+00 0.10992372E+04</pdfrwt>
<pdfrwt beam="2">  1       -2 0.11207934E+00 0.10992372E+04</pdfrwt>
<totfact> 0.30080115E+00</totfact>
</mgrwt>
</event>
<event>
 4    5  0.7289609E-008  0.6594732E+03  0.7818608E-02  0.1024703E+00
         -2   -1    0    0    0  501 -0.00000000000E+00  0.00000000000E+00  0.64850236050E+03  0.64850236050E+03  0.25500000000E-02 0.  1.
          2   -1    0    0  501    0  0.00000000000E+00 -0.00000000000E+00 -0.16400738196E+04  0.16400738196E+04  0.25500000000E-02 0. -1.
    8880023    1    1    2    0    0  0.99975654508E+01  0.31538877842E+02  0.47560182979E+03  0.81308176643E+03  0.65864270000E+03 0.  1.
    8880022    1    1    2    0    0 -0.99975654508E+01 -0.31538877842E+02 -0.14671732889E+04  0.14754944137E+04  0.15294330000E+03 0.  0.
<mgrwt>
<rscale>  0 0.46027062E+03</rscale>
<asrwt>0</asrwt>
<pdfrwt beam="1">  1        2 0.25231905E+00 0.65947317E+03</pdfrwt>
<pdfrwt beam="2">  1       -2 0.99769595E-01 0.65947317E+03</pdfrwt>
<totfact> 0.91634272E+00</totfact>
</mgrwt>
</event>
<event>
 4    5  0.7289609E-008  0.6652517E+03  0.7818608E-02  0.1019323E+00
          2   -1    0    0  501    0  0.00000000000E+00  0.00000000000E+00  0.20858868902E+04  0.20858868902E+04  0.25500000000E-02 0. -1.
         -2   -1    0    0    0  501 -0.00000000000E+00 -0.00000000000E+00 -0.13948647830E+04  0.13948647830E+04  0.25500000000E-02 0.  1.
    8880023    1    1    2    0    0  0.92371408477E+02 -0.14734647745E+02 -0.13113119432E+04  0.14704077004E+04  0.65864270000E+03 0.  1.
    8880022    1    1    2    0    0 -0.92371408477E+02  0.14734647745E+02  0.20023340503E+04  0.20103439728E+04  0.15294330000E+03 0.  0.
<mgrwt>
<rscale>  0 0.47931643E+03</rscale>
<asrwt>0</asrwt>
<pdfrwt beam="1">  1        2 0.32090568E+00 0.66525168E+03</pdfrwt>
<pdfrwt beam="2">  1       -2 0.21459458E+00 0.66525168E+03</pdfrwt>
<totfact> 0.68469727E-01</totfact>
</mgrwt>
</event>
<event>
 4    5  0.7289609E-008  0.7162796E+03  0.7818608E-02  0.9935382E-01
         -2   -1    0    0    0  501 -0.00000000000E+00  0.00000000000E+00  0.76587333915E+03  0.76587333916E+03  0.25500000000E-02 0.  1.
          2   -1    0    0  501    0  0.00000000000E+00 -0.00000000000E+00 -0.10226998754E+04  0.10226998754E+04  0.25500000000E-02 0. -1.
    8880023    1    1    2    0    0  0.26677239025E+03 -0.89881704184E+02  0.56126630354E+03  0.90998697721E+03  0.65864270000E+03 0.  1.
    8880022    1    1    2    0    0 -0.26677239025E+03  0.89881704184E+02 -0.81809283981E+03  0.87858623738E+03  0.15294330000E+03 0.  0.
<mgrwt>
<rscale>  0 0.58576766E+03</rscale>
<asrwt>0</asrwt>
<pdfrwt beam="1">  1        2 0.15733844E+00 0.71627958E+03</pdfrwt>
<pdfrwt beam="2">  1       -2 0.11782667E+00 0.71627958E+03</pdfrwt>
<totfact> 0.13819930E+01</totfact>
</mgrwt>
</event>
<event>
 4    5  0.7289609E-008  0.7436861E+03  0.7818608E-02  0.9849337E-01
         -2   -1    0    0    0  501 -0.00000000000E+00  0.00000000000E+00  0.42987988501E+03  0.42987988501E+03  0.25500000000E-02 0.  1.
          2   -1    0    0  501    0  0.00000000000E+00 -0.00000000000E+00 -0.11608274701E+04  0.11608274701E+04  0.25500000000E-02 0. -1.
    8880023    1    1    2    0    0  0.81269441905E+02  0.33563974771E+03  0.26670384139E+02  0.74416414727E+03  0.65864270000E+03 0.  0.
    8880022    1    1    2    0    0 -0.81269441905E+02 -0.33563974771E+03 -0.75761796924E+03  0.84654320786E+03  0.15294330000E+03 0.  0.
<mgrwt>
<rscale>  0 0.62780730E+03</rscale>
<asrwt>0</asrwt>
<pdfrwt beam="1">  1        2 0.17858884E+00 0.74368607E+03</pdfrwt>
<pdfrwt beam="2">  1       -2 0.66135367E-01 0.74368607E+03</pdfrwt>
<totfact> 0.42823180E+01</totfact>
</mgrwt>
</event>
<event>
 4    5  0.7289609E-008  0.1642896E+04  0.7818608E-02  0.8814812E-01
          2   -1    0    0  501    0  0.00000000000E+00  0.00000000000E+00  0.21898077832E+04  0.21898077832E+04  0.25500000000E-02 0. -1.
         -2   -1    0    0    0  501 -0.00000000000E+00 -0.00000000000E+00 -0.24228141239E+04  0.24228141239E+04  0.25500000000E-02 0.  1.
    8880023    1    1    2    0    0  0.14412390254E+04 -0.43373676250E+03 -0.17982743605E+04  0.24357541726E+04  0.65864270000E+03 0.  1.
    8880022    1    1    2    0    0 -0.14412390254E+04  0.43373676250E+03  0.15652680198E+04  0.21768677346E+04  0.15294330000E+03 0.  0.
<mgrwt>
<rscale>  0 0.16093701E+04</rscale>
<asrwt>0</asrwt>
<pdfrwt beam="1">  1        2 0.33689351E+00 0.16428961E+04</pdfrwt>
<pdfrwt beam="2">  1       -2 0.37274063E+00 0.16428961E+04</pdfrwt>
<totfact> 0.53789641E-02</totfact>
</mgrwt>
</event>
<event>
 4    5  0.7289609E-008  0.1436545E+04  0.7818608E-02  0.8955795E-01
          2   -1    0    0  501    0  0.00000000000E+00  0.00000000000E+00  0.33313447832E+04  0.33313447832E+04  0.25500000000E-02 0. -1.
         -2   -1    0    0    0  501 -0.00000000000E+00 -0.00000000000E+00 -0.12076095855E+04  0.12076095855E+04  0.25500000000E-02 0.  1.
    8880023    1    1    2    0    0  0.67604940092E+02  0.12748646167E+04 -0.57674366695E+03  0.15479966674E+04  0.65864270000E+03 0.  0.
    8880022    1    1    2    0    0 -0.67604940092E+02 -0.12748646167E+04  0.27004788647E+04  0.29909577012E+04  0.15294330000E+03 0.  0.
<mgrwt>
<rscale>  0 0.13972734E+04</rscale>
<asrwt>0</asrwt>
<pdfrwt beam="1">  1        2 0.51251457E+00 0.14365446E+04</pdfrwt>
<pdfrwt beam="2">  1       -2 0.18578609E+00 0.14365446E+04</pdfrwt>
<totfact> 0.16773590E-01</totfact>
</mgrwt>
</event>
<event>
 4    5  0.7289609E-008  0.1324588E+04  0.7818608E-02  0.9044612E-01
          2   -1    0    0  501    0  0.00000000000E+00  0.00000000000E+00  0.14054061587E+04  0.14054061587E+04  0.25500000000E-02 0. -1.
         -2   -1    0    0    0  501 -0.00000000000E+00 -0.00000000000E+00 -0.13979247593E+04  0.13979247593E+04  0.25500000000E-02 0.  1.
    8880023    1    1    2    0    0 -0.26494892125E+03  0.11182693146E+04 -0.64466898629E+03  0.14731369587E+04  0.65864270000E+03 0.  0.
    8880022    1    1    2    0    0  0.26494892125E+03 -0.11182693146E+04  0.65215038564E+03  0.13301939593E+04  0.15294330000E+03 0.  0.
<mgrwt>
<rscale>  0 0.12811952E+04</rscale>
<asrwt>0</asrwt>
<pdfrwt beam="1">  1        2 0.21621633E+00 0.13245884E+04</pdfrwt>
<pdfrwt beam="2">  1       -2 0.21506535E+00 0.13245884E+04</pdfrwt>
<totfact> 0.14622452E+00</totfact>
</mgrwt>
</event>
<event>
 4    5  0.7289609E-008  0.6834526E+03  0.7818608E-02  0.1007434E+00
          2   -1    0    0  501    0  0.00000000000E+00  0.00000000000E+00  0.68305073648E+03  0.68305073648E+03  0.25500000000E-02 0. -1.
         -2   -1    0    0    0  501 -0.00000000000E+00 -0.00000000000E+00 -0.21517612729E+04  0.21517612729E+04  0.25500000000E-02 0.  1.
    8880023    1    1    2    0    0  0.18586695558E+02  0.18152621190E+03 -0.20743560400E+04  0.21840467985E+04  0.65864270000E+03 0.  1.
    8880022    1    1    2    0    0 -0.18586695558E+02 -0.18152621190E+03  0.60564550353E+03  0.65076521098E+03  0.15294330000E+03 0.  0.
<mgrwt>
<rscale>  0 0.52507160E+03</rscale>
<asrwt>0</asrwt>
<pdfrwt beam="1">  1        2 0.10508473E+00 0.68345259E+03</pdfrwt>
<pdfrwt beam="2">  1       -2 0.33104019E+00 0.68345259E+03</pdfrwt>
<totfact> 0.92020595E-01</totfact>
</mgrwt>
</event>
<event>
 4    5  0.7289609E-008  0.8498598E+03  0.7818608E-02  0.9611862E-01
         -2   -1    0    0    0  501 -0.00000000000E+00  0.00000000000E+00  0.53162585191E+03  0.53162585191E+03  0.25500000000E-02 0.  1.
          2   -1    0    0  501    0  0.00000000000E+00 -0.00000000000E+00 -0.19651281211E+04  0.19651281211E+04  0.25500000000E-02 0. -1.
    8880023    1    1    2    0    0  0.37994461260E+03  0.37959667847E+03  0.10849231434E+03  0.85675687070E+03  0.65864270000E+03 0.  0.
    8880022    1    1    2    0    0 -0.37994461260E+03 -0.37959667847E+03 -0.15419945836E+04  0.16399971023E+04  0.15294330000E+03 0.  0.
<mgrwt>
<rscale>  0 0.76516045E+03</rscale>
<asrwt>0</asrwt>
<pdfrwt beam="1">  1        2 0.30232740E+00 0.84985984E+03</pdfrwt>
<pdfrwt beam="2">  1       -2 0.81788593E-01 0.84985984E+03</pdfrwt>
<totfact> 0.93713946E+00</totfact>
</mgrwt>
</event>
<event>
 4    5  0.7289609E-008  0.7680561E+03  0.7818608E-02  0.9784681E-01
         -2   -1    0    0    0  501 -0.00000000000E+00  0.00000000000E+00  0.36098826503E+03  0.36098826504E+03  0.25500000000E-02 0.  1.
          2   -1    0    0  501    0  0.00000000000E+00 -0.00000000000E+00 -0.13316514049E+04  0.13316514049E+04  0.25500000000E-02 0. -1.
    8880023    1    1    2    0    0  0.32711594662E+03  0.22157402234E+03 -0.16977389389E+03  0.78659600255E+03  0.65864270000E+03 0.  1.
    8880022    1    1    2    0    0 -0.32711594662E+03 -0.22157402234E+03 -0.80088924597E+03  0.90604366740E+03  0.15294330000E+03 0.  0.
<mgrwt>
<rscale>  0 0.66191189E+03</rscale>
<asrwt>0</asrwt>
<pdfrwt beam="1">  1        2 0.20486945E+00 0.76805605E+03</pdfrwt>
<pdfrwt beam="2">  1       -2 0.55536657E-01 0.76805605E+03</pdfrwt>
<totfact> 0.49125699E+01</totfact>
</mgrwt>
</event>
<event>
 4    5  0.7289609E-008  0.6603740E+03  0.7818608E-02  0.1023776E+00
          2   -1    0    0  501    0  0.00000000000E+00  0.00000000000E+00  0.62226096062E+03  0.62226096062E+03  0.25500000000E-02 0. -1.
         -2   -1    0    0    0  501 -0.00000000000E+00 -0.00000000000E+00 -0.63891643973E+03  0.63891643974E+03  0.25500000000E-02 0.  1.
    8880023    1    1    2    0    0  0.19774322305E+02  0.43504312275E+02 -0.45002425235E+03  0.79913433350E+03  0.65864270000E+03 0.  1.
    8880022    1    1    2    0    0 -0.19774322305E+02 -0.43504312275E+02  0.43336877323E+03  0.46204306686E+03  0.15294330000E+03 0.  0.
<mgrwt>
<rscale>  0 0.46348100E+03</rscale>
<asrwt>0</asrwt>
<pdfrwt beam="1">  1        2 0.95732456E-01 0.66037403E+03</pdfrwt>
<pdfrwt beam="2">  1       -2 0.98294836E-01 0.66037403E+03</pdfrwt>
<totfact> 0.41628027E+01</totfact>
</mgrwt>
</event>
<event>
 4    5  0.7289609E-008  0.1609476E+04  0.7818608E-02  0.8835965E-01
          2   -1    0    0  501    0  0.00000000000E+00  0.00000000000E+00  0.33049253881E+04  0.33049253881E+04  0.25500000000E-02 0. -1.
         -2   -1    0    0    0  501 -0.00000000000E+00 -0.00000000000E+00 -0.10146085625E+04  0.10146085625E+04  0.25500000000E-02 0.  1.
    8880023    1    1    2    0    0 -0.47544828219E+03 -0.13894430987E+04  0.17899809591E+02  0.16095756593E+04  0.65864270000E+03 0.  0.
    8880022    1    1    2    0    0  0.47544828219E+03  0.13894430987E+04  0.22724170160E+04  0.27099582914E+04  0.15294330000E+03 0.  0.
<mgrwt>
<rscale>  0 0.15751443E+04</rscale>
<asrwt>0</asrwt>
<pdfrwt beam="1">  1        2 0.50845006E+00 0.16094761E+04</pdfrwt>
<pdfrwt beam="2">  1       -2 0.15609363E+00 0.16094761E+04</pdfrwt>
<totfact> 0.27923119E-01</totfact>
</mgrwt>
</event>
<event>
 4    5  0.7289609E-008  0.8937182E+03  0.7818608E-02  0.9536192E-01
         -2   -1    0    0    0  501 -0.00000000000E+00  0.00000000000E+00  0.17012905480E+04  0.17012905480E+04  0.25500000000E-02 0.  1.
          2   -1    0    0  501    0  0.00000000000E+00 -0.00000000000E+00 -0.55755231075E+03  0.55755231076E+03  0.25500000000E-02 0. -1.
    8880023    1    1    2    0    0  0.24566528940E+03  0.55187907943E+03  0.13354157851E+04  0.16068812893E+04  0.65864270000E+03 0.  1.
    8880022    1    1    2    0    0 -0.24566528940E+03 -0.55187907943E+03 -0.19167754778E+03  0.65196156947E+03  0.15294330000E+03 0.  0.
<mgrwt>
<rscale>  0 0.81667313E+03</rscale>
<asrwt>0</asrwt>
<pdfrwt beam="1">  1        2 0.85777278E-01 0.89371817E+03</pdfrwt>
<pdfrwt beam="2">  1       -2 0.26173701E+00 0.89371817E+03</pdfrwt>
<totfact> 0.29874607E+00</totfact>
</mgrwt>
</event>
<event>
 4    5  0.7289609E-008  0.9767299E+03  0.7818608E-02  0.9412656E-01
         -2   -1    0    0    0  501 -0.00000000000E+00  0.00000000000E+00  0.60018585691E+03  0.60018585692E+03  0.25500000000E-02 0.  1.
          2   -1    0    0  501    0  0.00000000000E+00 -0.00000000000E+00 -0.14633738197E+04  0.14633738197E+04  0.25500000000E-02 0. -1.
    8880023    1    1    2    0    0 -0.10038508874E+02 -0.72117292131E+03 -0.67889741682E+02  0.97908650148E+03  0.65864270000E+03 0.  0.
    8880022    1    1    2    0    0  0.10038508874E+02  0.72117292131E+03 -0.79529822111E+03  0.10844731751E+04  0.15294330000E+03 0.  0.
<mgrwt>
<rscale>  0 0.91041433E+03</rscale>
<asrwt>0</asrwt>
<pdfrwt beam="1">  1        2 0.22513443E+00 0.97672993E+03</pdfrwt>
<pdfrwt beam="2">  1       -2 0.92336286E-01 0.97672993E+03</pdfrwt>
<totfact> 0.13235342E+01</totfact>
</mgrwt>
</event>
<event>
 4    5  0.7289609E-008  0.8975933E+03  0.7818608E-02  0.9529906E-01
          2   -1    0    0  501    0  0.00000000000E+00  0.00000000000E+00  0.13020808510E+04  0.13020808510E+04  0.25500000000E-02 0. -1.
         -2   -1    0    0    0  501 -0.00000000000E+00 -0.00000000000E+00 -0.10985168885E+04  0.10985168885E+04  0.25500000000E-02 0.  1.
    8880023    1    1    2    0    0 -0.21758373514E+03  0.56966735849E+03 -0.80923999152E+03  0.12085293340E+04  0.65864270000E+03 0.  0.
    8880022    1    1    2    0    0  0.21758373514E+03 -0.56966735849E+03  0.10128039540E+04  0.11920684055E+04  0.15294330000E+03 0.  0.
<mgrwt>
<rscale>  0 0.82114418E+03</rscale>
<asrwt>0</asrwt>
<pdfrwt beam="1">  1        2 0.20032013E+00 0.89759333E+03</pdfrwt>
<pdfrwt beam="2">  1       -2 0.16900260E+00 0.89759333E+03</pdfrwt>
<totfact> 0.35851605E+00</totfact>
</mgrwt>
</event>
<event>
 4    5  0.7289609E-008  0.1250794E+04  0.7818608E-02  0.9109262E-01
         -2   -1    0    0    0  501 -0.00000000000E+00  0.00000000000E+00  0.80768654842E+03  0.80768654842E+03  0.25500000000E-02 0.  1.
          2   -1    0    0  501    0  0.00000000000E+00 -0.00000000000E+00 -0.19452150896E+04  0.19452150896E+04  0.25500000000E-02 0. -1.
    8880023    1    1    2    0    0 -0.93996946358E+03 -0.49712416804E+03 -0.92539184269E+02  0.12542123974E+04  0.65864270000E+03 0.  0.
    8880022    1    1    2    0    0  0.93996946358E+03  0.49712416804E+03 -0.10449893569E+04  0.14986892407E+04  0.15294330000E+03 0.  0.
<mgrwt>
<rscale>  0 0.12041155E+04</rscale>
<asrwt>0</asrwt>
<pdfrwt beam="1">  1        2 0.29926386E+00 0.12507938E+04</pdfrwt>
<pdfrwt beam="2">  1       -2 0.12425947E+00 0.12507938E+04</pdfrwt>
<totfact> 0.33849235E+00</totfact>
</mgrwt>
</event>
<event>
 4    5  0.7289609E-008  0.7708593E+03  0.7818608E-02  0.9777764E-01
          2   -1    0    0  501    0  0.00000000000E+00  0.00000000000E+00  0.10899306377E+04  0.10899306377E+04  0.25500000000E-02 0. -1.
         -2   -1    0    0    0  501 -0.00000000000E+00 -0.00000000000E+00 -0.54901061097E+03  0.54901061097E+03  0.25500000000E-02 0.  1.
    8880023    1    1    2    0    0 -0.39841937011E+03 -0.40936543081E+02 -0.18784940569E+03  0.79341754488E+03  0.65864270000E+03 0.  0.
    8880022    1    1    2    0    0  0.39841937011E+03  0.40936543081E+02  0.72876943247E+03  0.84552370384E+03  0.15294330000E+03 0.  0.
<mgrwt>
<rscale>  0 0.66569626E+03</rscale>
<asrwt>0</asrwt>
<pdfrwt beam="1">  1        2 0.16768163E+00 0.77085926E+03</pdfrwt>
<pdfrwt beam="2">  1       -2 0.84463172E-01 0.77085926E+03</pdfrwt>
<totfact> 0.27427257E+01</totfact>
</mgrwt>
</event>
<event>
 4    5  0.7289609E-008  0.7520124E+03  0.7818608E-02  0.9826243E-01
          2   -1    0    0  501    0  0.00000000000E+00  0.00000000000E+00  0.12827706589E+04  0.12827706589E+04  0.25500000000E-02 0. -1.
         -2   -1    0    0    0  501 -0.00000000000E+00 -0.00000000000E+00 -0.43266358366E+03  0.43266358367E+03  0.25500000000E-02 0.  1.
    8880023    1    1    2    0    0  0.27298243760E+03 -0.23915074692E+03 -0.28547600168E+02  0.75255409290E+03  0.65864270000E+03 0.  1.
    8880022    1    1    2    0    0 -0.27298243760E+03  0.23915074692E+03  0.87865467536E+03  0.96288014963E+03  0.15294330000E+03 0.  0.
<mgrwt>
<rscale>  0 0.63972996E+03</rscale>
<asrwt>0</asrwt>
<pdfrwt beam="1">  1        2 0.19734933E+00 0.75201243E+03</pdfrwt>
<pdfrwt beam="2">  1       -2 0.66563628E-01 0.75201243E+03</pdfrwt>
<totfact> 0.35769591E+01</totfact>
</mgrwt>
</event>
<event>
 4    5  0.7289609E-008  0.9956794E+03  0.7818608E-02  0.9387232E-01
          2   -1    0    0  501    0  0.00000000000E+00  0.00000000000E+00  0.12956668128E+04  0.12956668128E+04  0.25500000000E-02 0. -1.
         -2   -1    0    0    0  501 -0.00000000000E+00 -0.00000000000E+00 -0.83111530379E+03  0.83111530380E+03  0.25500000000E-02 0.  1.
    8880023    1    1    2    0    0  0.63349923692E+03  0.39527953095E+03 -0.30729543938E+03  0.10420210574E+04  0.65864270000E+03 0.  1.
    8880022    1    1    2    0    0 -0.63349923692E+03 -0.39527953095E+03  0.77184694838E+03  0.10847610592E+04  0.15294330000E+03 0. -1.
<mgrwt>
<rscale>  0 0.93133902E+03</rscale>
<asrwt>0</asrwt>
<pdfrwt beam="1">  1        2 0.19933336E+00 0.99567936E+03</pdfrwt>
<pdfrwt beam="2">  1       -2 0.12786389E+00 0.99567936E+03</pdfrwt>
<totfact> 0.74775558E+00</totfact>
</mgrwt>
</event>
<event>
 4    5  0.7289609E-008  0.8540258E+03  0.7818608E-02  0.9604280E-01
         -2   -1    0    0    0  501 -0.00000000000E+00  0.00000000000E+00  0.20588608341E+04  0.20588608341E+04  0.25500000000E-02 0.  1.
          2   -1    0    0  501    0  0.00000000000E+00 -0.00000000000E+00 -0.59173669048E+03  0.59173669049E+03  0.25500000000E-02 0. -1.
    8880023    1    1    2    0    0  0.29162568596E+03 -0.45880750496E+03  0.18019262380E+04  0.19940657564E+04  0.65864270000E+03 0.  0.
    8880022    1    1    2    0    0 -0.29162568596E+03  0.45880750496E+03 -0.33480209434E+03  0.65653176824E+03  0.15294330000E+03 0.  0.
<mgrwt>
<rscale>  0 0.77013547E+03</rscale>
<asrwt>0</asrwt>
<pdfrwt beam="1">  1        2 0.91036414E-01 0.85402580E+03</pdfrwt>
<pdfrwt beam="2">  1       -2 0.31674782E+00 0.85402580E+03</pdfrwt>
<totfact> 0.13016815E+00</totfact>
</mgrwt>
</event>
<event>
 4    5  0.7289609E-008  0.1014374E+04  0.7818608E-02  0.9362989E-01
         -2   -1    0    0    0  501 -0.00000000000E+00  0.00000000000E+00  0.43311606504E+03  0.43311606504E+03  0.25500000000E-02 0.  1.
          2   -1    0    0  501    0  0.00000000000E+00 -0.00000000000E+00 -0.21946286744E+04  0.21946286744E+04  0.25500000000E-02 0. -1.
    8880023    1    1    2    0    0 -0.50714780982E+03  0.58133039191E+03 -0.47546173121E+03  0.11202758543E+04  0.65864270000E+03 0.  0.
    8880022    1    1    2    0    0  0.50714780982E+03 -0.58133039191E+03 -0.12860508782E+04  0.15074688852E+04  0.15294330000E+03 0.  0.
<mgrwt>
<rscale>  0 0.95185127E+03</rscale>
<asrwt>0</asrwt>
<pdfrwt beam="1">  1        2 0.33763517E+00 0.10143738E+04</pdfrwt>
<pdfrwt beam="2">  1       -2 0.66633242E-01 0.10143738E+04</pdfrwt>
<totfact> 0.10807021E+01</totfact>
</mgrwt>
</event>
<event>
 4    5  0.7289609E-008  0.9616801E+03  0.7818608E-02  0.9433504E-01
          2   -1    0    0  501    0  0.00000000000E+00  0.00000000000E+00  0.99842382973E+03  0.99842382974E+03  0.25500000000E-02 0. -1.
         -2   -1    0    0    0  501 -0.00000000000E+00 -0.00000000000E+00 -0.72431429032E+03  0.72431429033E+03  0.25500000000E-02 0.  1.
    8880023    1    1    2    0    0 -0.69119197438E+03  0.11520450750E+03  0.29281384626E+03  0.10052704009E+04  0.65864270000E+03 0.  0.
    8880022    1    1    2    0    0  0.69119197438E+03 -0.11520450750E+03 -0.18704306848E+02  0.71746771921E+03  0.15294330000E+03 0.  0.
<mgrwt>
<rscale>  0 0.89368951E+03</rscale>
<asrwt>0</asrwt>
<pdfrwt beam="1">  1        2 0.15360367E+00 0.96168011E+03</pdfrwt>
<pdfrwt beam="2">  1       -2 0.11143297E+00 0.96168011E+03</pdfrwt>
<totfact> 0.16016639E+01</totfact>
</mgrwt>
</event>
<event>
 4    5  0.7289609E-008  0.1258950E+04  0.7818608E-02  0.9101846E-01
          2   -1    0    0  501    0  0.00000000000E+00  0.00000000000E+00  0.18380636982E+04  0.18380636982E+04  0.25500000000E-02 0. -1.
         -2   -1    0    0    0  501 -0.00000000000E+00 -0.00000000000E+00 -0.23635472976E+04  0.23635472976E+04  0.25500000000E-02 0.  1.
    8880023    1    1    2    0    0 -0.15924646372E+03  0.10610299399E+04 -0.20050854731E+04  0.23675561092E+04  0.65864270000E+03 0.  0.
    8880022    1    1    2    0    0  0.15924646372E+03 -0.10610299399E+04  0.14796018737E+04  0.18340548866E+04  0.15294330000E+03 0.  0.
<mgrwt>
<rscale>  0 0.12126614E+04</rscale>
<asrwt>0</asrwt>
<pdfrwt beam="1">  1        2 0.28277903E+00 0.12589496E+04</pdfrwt>
<pdfrwt beam="2">  1       -2 0.36362266E+00 0.12589496E+04</pdfrwt>
<totfact> 0.10193297E-01</totfact>
</mgrwt>
</event>
<event>
 4    5  0.7289609E-008  0.9777773E+03  0.7818608E-02  0.9411227E-01
         -2   -1    0    0    0  501 -0.00000000000E+00  0.00000000000E+00  0.14194124028E+04  0.14194124028E+04  0.25500000000E-02 0.  1.
          2   -1    0    0  501    0  0.00000000000E+00 -0.00000000000E+00 -0.11831371353E+04  0.11831371353E+04  0.25500000000E-02 0. -1.
    8880023    1    1    2    0    0  0.69861199471E+03  0.18487716155E+03  0.10962097382E+04  0.14689194261E+04  0.65864270000E+03 0.  0.
    8880022    1    1    2    0    0 -0.69861199471E+03 -0.18487716155E+03 -0.85993447069E+03  0.11336301120E+04  0.15294330000E+03 0.  0.
<mgrwt>
<rscale>  0 0.91157466E+03</rscale>
<asrwt>0</asrwt>
<pdfrwt beam="1">  1        2 0.18202110E+00 0.97777732E+03</pdfrwt>
<pdfrwt beam="2">  1       -2 0.21837114E+00 0.97777732E+03</pdfrwt>
<totfact> 0.19551619E+00</totfact>
</mgrwt>
</event>
<event>
 4    5  0.7289609E-008  0.1202148E+04  0.7818608E-02  0.9155037E-01
         -2   -1    0    0    0  501 -0.00000000000E+00  0.00000000000E+00  0.26719049721E+04  0.26719049721E+04  0.25500000000E-02 0.  1.
          2   -1    0    0  501    0  0.00000000000E+00 -0.00000000000E+00 -0.90788764555E+03  0.90788764555E+03  0.25500000000E-02 0. -1.
    8880023    1    1    2    0    0 -0.47575618739E+03  0.88600566693E+03  0.21730550204E+04  0.24834106224E+04  0.65864270000E+03 0.  1.
    8880022    1    1    2    0    0  0.47575618739E+03 -0.88600566693E+03 -0.40903769377E+03  0.10963819953E+04  0.15294330000E+03 0.  0.
<mgrwt>
<rscale>  0 0.11529819E+04</rscale>
<asrwt>0</asrwt>
<pdfrwt beam="1">  1        2 0.13967502E+00 0.12021482E+04</pdfrwt>
<pdfrwt beam="2">  1       -2 0.41106230E+00 0.12021482E+04</pdfrwt>
<totfact> 0.17951474E-01</totfact>
</mgrwt>
</event>
<event>
 4    5  0.7289609E-008  0.1981654E+04  0.7818608E-02  0.8628195E-01
          2   -1    0    0  501    0  0.00000000000E+00  0.00000000000E+00  0.24624663060E+04  0.24624663060E+04  0.25500000000E-02 0. -1.
         -2   -1    0    0    0  501 -0.00000000000E+00 -0.00000000000E+00 -0.15431820577E+04  0.15431820577E+04  0.25500000000E-02 0.  1.
    8880023    1    1    2    0    0  0.62475243206E+02 -0.18679503125E+04  0.17953181490E+03  0.19897696864E+04  0.65864270000E+03 0. -1.
    8880022    1    1    2    0    0 -0.62475243206E+02  0.18679503125E+04  0.73975243338E+03  0.20158786773E+04  0.15294330000E+03 0.  0.
<mgrwt>
<rscale>  0 0.19544978E+04</rscale>
<asrwt>0</asrwt>
<pdfrwt beam="1">  1        2 0.37884097E+00 0.19816538E+04</pdfrwt>
<pdfrwt beam="2">  1       -2 0.23741263E+00 0.19816538E+04</pdfrwt>
<totfact> 0.25119816E-01</totfact>
</mgrwt>
</event>
<event>
 4    5  0.7289609E-008  0.1428571E+04  0.7818608E-02  0.8961794E-01
         -2   -1    0    0    0  501 -0.00000000000E+00  0.00000000000E+00  0.23065086303E+04  0.23065086303E+04  0.25500000000E-02 0.  1.
          2   -1    0    0  501    0  0.00000000000E+00 -0.00000000000E+00 -0.12176863958E+04  0.12176863958E+04  0.25500000000E-02 0. -1.
    8880023    1    1    2    0    0 -0.11272444672E+04 -0.57993490941E+03  0.16034436513E+04  0.21475209748E+04  0.65864270000E+03 0.  1.
    8880022    1    1    2    0    0  0.11272444672E+04  0.57993490941E+03 -0.51462141683E+03  0.13766740513E+04  0.15294330000E+03 0.  0.
<mgrwt>
<rscale>  0 0.13890344E+04</rscale>
<asrwt>0</asrwt>
<pdfrwt beam="1">  1        2 0.18733637E+00 0.14285709E+04</pdfrwt>
<pdfrwt beam="2">  1       -2 0.35484748E+00 0.14285709E+04</pdfrwt>
<totfact> 0.25553607E-01</totfact>
</mgrwt>
</event>
<event>
 4    5  0.7289609E-008  0.7881328E+03  0.7818608E-02  0.9737068E-01
         -2   -1    0    0    0  501 -0.00000000000E+00  0.00000000000E+00  0.20037664695E+03  0.20037664697E+03  0.25500000000E-02 0.  1.
          2   -1    0    0  501    0  0.00000000000E+00 -0.00000000000E+00 -0.23442105804E+04  0.23442105804E+04  0.25500000000E-02 0. -1.
    8880023    1    1    2    0    0  0.43100167650E+03 -0.39757206851E+02 -0.18184799372E+04  0.19819239564E+04  0.65864270000E+03 0.  0.
    8880022    1    1    2    0    0 -0.43100167650E+03  0.39757206851E+02 -0.32535399628E+03  0.56266327102E+03  0.15294330000E+03 0.  0.
<mgrwt>
<rscale>  0 0.68852000E+03</rscale>
<asrwt>0</asrwt>
<pdfrwt beam="1">  1        2 0.36064776E+00 0.78813279E+03</pdfrwt>
<pdfrwt beam="2">  1       -2 0.30827178E-01 0.78813279E+03</pdfrwt>
<totfact> 0.43049095E+01</totfact>
</mgrwt>
</event>
<event>
 4    5  0.7289609E-008  0.1893240E+04  0.7818608E-02  0.8672640E-01
          2   -1    0    0  501    0  0.00000000000E+00  0.00000000000E+00  0.14891877611E+04  0.14891877611E+04  0.25500000000E-02 0. -1.
         -2   -1    0    0    0  501 -0.00000000000E+00 -0.00000000000E+00 -0.24698300167E+04  0.24698300167E+04  0.25500000000E-02 0.  1.
    8880023    1    1    2    0    0  0.12501143614E+04  0.12600643039E+04 -0.10709898528E+04  0.21751729673E+04  0.65864270000E+03 0.  0.
    8880022    1    1    2    0    0 -0.12501143614E+04 -0.12600643039E+04  0.90347597281E+02  0.17838448105E+04  0.15294330000E+03 0.  0.
<mgrwt>
<rscale>  0 0.18646791E+04</rscale>
<asrwt>0</asrwt>
<pdfrwt beam="1">  1        2 0.22910581E+00 0.18932401E+04</pdfrwt>
<pdfrwt beam="2">  1       -2 0.37997385E+00 0.18932401E+04</pdfrwt>
<totfact> 0.11655935E-01</totfact>
</mgrwt>
</event>
<event>
 4    5  0.7289609E-008  0.1356669E+04  0.7818608E-02  0.9018105E-01
          2   -1    0    0  501    0  0.00000000000E+00  0.00000000000E+00  0.93796022440E+03  0.93796022440E+03  0.25500000000E-02 0. -1.
         -2   -1    0    0    0  501 -0.00000000000E+00 -0.00000000000E+00 -0.22930350543E+04  0.22930350543E+04  0.25500000000E-02 0.  1.
    8880023    1    1    2    0    0 -0.10763506165E+04 -0.49820627237E+03 -0.15044588558E+04  0.20258200301E+04  0.65864270000E+03 0.  0.
    8880022    1    1    2    0    0  0.10763506165E+04  0.49820627237E+03  0.14938402594E+03  0.12051752485E+04  0.15294330000E+03 0.  1.
<mgrwt>
<rscale>  0 0.13145509E+04</rscale>
<asrwt>0</asrwt>
<pdfrwt beam="1">  1        2 0.14430157E+00 0.13566688E+04</pdfrwt>
<pdfrwt beam="2">  1       -2 0.35277462E+00 0.13566688E+04</pdfrwt>
<totfact> 0.39887646E-01</totfact>
</mgrwt>
</event>
<event>
 4    5  0.7289609E-008  0.1309265E+04  0.7818608E-02  0.9057600E-01
          2   -1    0    0  501    0  0.00000000000E+00  0.00000000000E+00  0.31281835704E+04  0.31281835704E+04  0.25500000000E-02 0. -1.
         -2   -1    0    0    0  501 -0.00000000000E+00 -0.00000000000E+00 -0.52341844757E+03  0.52341844758E+03  0.25500000000E-02 0.  1.
    8880023    1    1    2    0    0 -0.10420162952E+04  0.44109694722E+03  0.86009552319E+03  0.15665053436E+04  0.65864270000E+03 0.  1.
    8880022    1    1    2    0    0  0.10420162952E+04 -0.44109694722E+03  0.17446695996E+04  0.20850966743E+04  0.15294330000E+03 0.  0.
<mgrwt>
<rscale>  0 0.12652321E+04</rscale>
<asrwt>0</asrwt>
<pdfrwt beam="1">  1        2 0.48125901E+00 0.13092649E+04</pdfrwt>
<pdfrwt beam="2">  1       -2 0.80525916E-01 0.13092649E+04</pdfrwt>
<totfact> 0.19313623E+00</totfact>
</mgrwt>
</event>
<event>
 4    5  0.7289609E-008  0.7928819E+03  0.7818608E-02  0.9726404E-01
          2   -1    0    0  501    0  0.00000000000E+00  0.00000000000E+00  0.83910504138E+03  0.83910504138E+03  0.25500000000E-02 0. -1.
         -2   -1    0    0    0  501 -0.00000000000E+00 -0.00000000000E+00 -0.58202983969E+03  0.58202983970E+03  0.25500000000E-02 0.  1.
    8880023    1    1    2    0    0  0.30760438628E+03 -0.31659274195E+03 -0.14347950195E+03  0.80575926706E+03  0.65864270000E+03 0.  1.
    8880022    1    1    2    0    0 -0.30760438628E+03  0.31659274195E+03  0.40055470364E+03  0.61537561402E+03  0.15294330000E+03 0.  0.
<mgrwt>
<rscale>  0 0.69466260E+03</rscale>
<asrwt>0</asrwt>
<pdfrwt beam="1">  1        2 0.12909308E+00 0.79288185E+03</pdfrwt>
<pdfrwt beam="2">  1       -2 0.89543052E-01 0.79288185E+03</pdfrwt>
<totfact> 0.34909274E+01</totfact>
</mgrwt>
</event>
<event>
 4    5  0.7289609E-008  0.7075995E+03  0.7818608E-02  0.9967025E-01
          2   -1    0    0  501    0  0.00000000000E+00  0.00000000000E+00  0.10916112582E+04  0.10916112582E+04  0.25500000000E-02 0. -1.
         -2   -1    0    0    0  501 -0.00000000000E+00 -0.00000000000E+00 -0.25251293903E+03  0.25251293904E+03  0.25500000000E-02 0.  1.
    8880023    1    1    2    0    0  0.24200990167E+03  0.91203368012E+02  0.40231333444E+03  0.81397363113E+03  0.65864270000E+03 0.  1.
    8880022    1    1    2    0    0 -0.24200990167E+03 -0.91203368012E+02  0.43678498469E+03  0.53015056607E+03  0.15294330000E+03 0.  0.
<mgrwt>
<rscale>  0 0.57120063E+03</rscale>
<asrwt>0</asrwt>
<pdfrwt beam="1">  1        2 0.16794019E+00 0.70759950E+03</pdfrwt>
<pdfrwt beam="2">  1       -2 0.38848144E-01 0.70759950E+03</pdfrwt>
<totfact> 0.14022591E+02</totfact>
</mgrwt>
</event>
<event>
 4    5  0.7289609E-008  0.2234666E+04  0.7818608E-02  0.8513931E-01
         -2   -1    0    0    0  501 -0.00000000000E+00  0.00000000000E+00  0.22791212928E+04  0.22791212928E+04  0.25500000000E-02 0.  1.
          2   -1    0    0  501    0  0.00000000000E+00 -0.00000000000E+00 -0.25037809467E+04  0.25037809467E+04  0.25500000000E-02 0. -1.
    8880023    1    1    2    0    0 -0.18926150419E+04  0.98890319006E+03  0.84574257153E+03  0.23893538708E+04  0.65864270000E+03 0.  0.
    8880022    1    1    2    0    0  0.18926150419E+04 -0.98890319006E+03 -0.10704022255E+04  0.23935483687E+04  0.15294330000E+03 0.  0.
<mgrwt>
<rscale>  0 0.22108378E+04</rscale>
<asrwt>0</asrwt>
<pdfrwt beam="1">  1        2 0.38519707E+00 0.22346658E+04</pdfrwt>
<pdfrwt beam="2">  1       -2 0.35063405E+00 0.22346658E+04</pdfrwt>
<totfact> 0.46120130E-02</totfact>
</mgrwt>
</event>
<event>
 4    5  0.7289609E-008  0.6931656E+03  0.7818608E-02  0.1002683E+00
          2   -1    0    0  501    0  0.00000000000E+00  0.00000000000E+00  0.30293869954E+03  0.30293869955E+03  0.25500000000E-02 0. -1.
         -2   -1    0    0    0  501 -0.00000000000E+00 -0.00000000000E+00 -0.30071862339E+04  0.30071862339E+04  0.25500000000E-02 0.  1.
    8880023    1    1    2    0    0  0.29586307463E+02  0.21399288616E+03 -0.28995051778E+04  0.29812092827E+04  0.65864270000E+03 0.  1.
    8880022    1    1    2    0    0 -0.29586307463E+02 -0.21399288616E+03  0.19525764349E+03  0.32891565070E+03  0.15294330000E+03 0.  0.
<mgrwt>
<rscale>  0 0.54489331E+03</rscale>
<asrwt>0</asrwt>
<pdfrwt beam="1">  1        2 0.46605956E-01 0.69316557E+03</pdfrwt>
<pdfrwt beam="2">  1       -2 0.46264402E+00 0.69316557E+03</pdfrwt>
<totfact> 0.33467917E-01</totfact>
</mgrwt>
</event>
<event>
 4    5  0.7289609E-008  0.1107798E+04  0.7818608E-02  0.9252424E-01
          2   -1    0    0  501    0  0.00000000000E+00  0.00000000000E+00  0.31613941872E+04  0.31613941872E+04  0.25500000000E-02 0. -1.
         -2   -1    0    0    0  501 -0.00000000000E+00 -0.00000000000E+00 -0.63410221038E+03  0.63410221039E+03  0.25500000000E-02 0.  1.
    8880023    1    1    2    0    0 -0.27731996305E+03  0.84646266523E+03 -0.38917001598E+01  0.11078044760E+04  0.65864270000E+03 0.  1.
    8880022    1    1    2    0    0  0.27731996305E+03 -0.84646266523E+03  0.25311836770E+04  0.26876919215E+04  0.15294330000E+03 0.  0.
<mgrwt>
<rscale>  0 0.10528333E+04</rscale>
<asrwt>0</asrwt>
<pdfrwt beam="1">  1        2 0.48636833E+00 0.11077976E+04</pdfrwt>
<pdfrwt beam="2">  1       -2 0.97554188E-01 0.11077976E+04</pdfrwt>
<totfact> 0.12114878E+00</totfact>
</mgrwt>
</event>
<event>
 4    5  0.7289609E-008  0.8134025E+03  0.7818608E-02  0.9682533E-01
          2   -1    0    0  501    0  0.00000000000E+00  0.00000000000E+00  0.17428045386E+04  0.17428045386E+04  0.25500000000E-02 0. -1.
         -2   -1    0    0    0  501 -0.00000000000E+00 -0.00000000000E+00 -0.41077864884E+03  0.41077864885E+03  0.25500000000E-02 0.  1.
    8880023    1    1    2    0    0  0.93148394069E+02 -0.46812057636E+03  0.95066035365E+02  0.81893910316E+03  0.65864270000E+03 0.  0.
    8880022    1    1    2    0    0 -0.93148394069E+02  0.46812057636E+03  0.12369598544E+04  0.13346440843E+04  0.15294330000E+03 0.  0.
<mgrwt>
<rscale>  0 0.72066381E+03</rscale>
<asrwt>0</asrwt>
<pdfrwt beam="1">  1        2 0.26812377E+00 0.81340255E+03</pdfrwt>
<pdfrwt beam="2">  1       -2 0.63196716E-01 0.81340255E+03</pdfrwt>
<totfact> 0.21968485E+01</totfact>
</mgrwt>
</event>
<event>
 4    5  0.7289609E-008  0.8568470E+03  0.7818608E-02  0.9599197E-01
         -2   -1    0    0    0  501 -0.00000000000E+00  0.00000000000E+00  0.61260596118E+03  0.61260596118E+03  0.25500000000E-02 0.  1.
          2   -1    0    0  501    0  0.00000000000E+00 -0.00000000000E+00 -0.14349544673E+04  0.14349544673E+04  0.25500000000E-02 0. -1.
    8880023    1    1    2    0    0  0.53470127608E+03 -0.12029588845E+03  0.19786668816E+03  0.87939637705E+03  0.65864270000E+03 0.  1.
    8880022    1    1    2    0    0 -0.53470127608E+03  0.12029588845E+03 -0.10202151943E+04  0.11681640514E+04  0.15294330000E+03 0.  0.
<mgrwt>
<rscale>  0 0.77349361E+03</rscale>
<asrwt>0</asrwt>
<pdfrwt beam="1">  1        2 0.22076222E+00 0.85684699E+03</pdfrwt>
<pdfrwt beam="2">  1       -2 0.94247072E-01 0.85684699E+03</pdfrwt>
<totfact> 0.13256848E+01</totfact>
</mgrwt>
</event>
<event>
 4    5  0.7289609E-008  0.1315924E+04  0.7818608E-02  0.9051929E-01
         -2   -1    0    0    0  501 -0.00000000000E+00  0.00000000000E+00  0.76730919229E+03  0.76730919229E+03  0.25500000000E-02 0.  1.
          2   -1    0    0  501    0  0.00000000000E+00 -0.00000000000E+00 -0.35382369785E+04  0.35382369785E+04  0.25500000000E-02 0. -1.
    8880023    1    1    2    0    0  0.97774339612E+03 -0.58469087518E+03 -0.11159492292E+02  0.13159712416E+04  0.65864270000E+03 0.  0.
    8880022    1    1    2    0    0 -0.97774339612E+03  0.58469087518E+03 -0.27597682939E+04  0.29895749292E+04  0.15294330000E+03 0.  0.
<mgrwt>
<rscale>  0 0.12721716E+04</rscale>
<asrwt>0</asrwt>
<pdfrwt beam="1">  1        2 0.54434414E+00 0.13159239E+04</pdfrwt>
<pdfrwt beam="2">  1       -2 0.11804757E+00 0.13159239E+04</pdfrwt>
<totfact> 0.41503254E-01</totfact>
</mgrwt>
</event>
<event>
 4    5  0.7289609E-008  0.7220583E+03  0.7818608E-02  0.9915682E-01
          2   -1    0    0  501    0  0.00000000000E+00  0.00000000000E+00  0.28177536639E+04  0.28177536639E+04  0.25500000000E-02 0. -1.
         -2   -1    0    0    0  501 -0.00000000000E+00 -0.00000000000E+00 -0.16004976184E+03  0.16004976186E+03  0.25500000000E-02 0.  1.
    8880023    1    1    2    0    0  0.12330139833E+03 -0.26898848601E+03  0.74943916605E+03  0.10406859806E+04  0.65864270000E+03 0.  0.
    8880022    1    1    2    0    0 -0.12330139833E+03  0.26898848601E+03  0.19082647360E+04  0.19371174451E+04  0.15294330000E+03 0.  0.
<mgrwt>
<rscale>  0 0.59507264E+03</rscale>
<asrwt>0</asrwt>
<pdfrwt beam="1">  1        2 0.43350056E+00 0.72205834E+03</pdfrwt>
<pdfrwt beam="2">  1       -2 0.24623041E-01 0.72205834E+03</pdfrwt>
<totfact> 0.35080223E+01</totfact>
</mgrwt>
</event>
<event>
 4    5  0.7289609E-008  0.8963307E+03  0.7818608E-02  0.9531948E-01
         -2   -1    0    0    0  501 -0.00000000000E+00  0.00000000000E+00  0.34108035210E+03  0.34108035211E+03  0.25500000000E-02 0.  1.
          2   -1    0    0  501    0  0.00000000000E+00 -0.00000000000E+00 -0.24833709943E+04  0.24833709943E+04  0.25500000000E-02 0. -1.
    8880023    1    1    2    0    0  0.38966606683E+03 -0.46664640505E+03 -0.41658372228E+03  0.98840817222E+03  0.65864270000E+03 0.  1.
    8880022    1    1    2    0    0 -0.38966606683E+03  0.46664640505E+03 -0.17257069199E+04  0.18360431742E+04  0.15294330000E+03 0.  0.
<mgrwt>
<rscale>  0 0.81968863E+03</rscale>
<asrwt>0</asrwt>
<pdfrwt beam="1">  1        2 0.38205706E+00 0.89633070E+03</pdfrwt>
<pdfrwt beam="2">  1       -2 0.52473902E-01 0.89633070E+03</pdfrwt>
<totfact> 0.12503687E+01</totfact>
</mgrwt>
</event>
<event>
 4    5  0.7289609E-008  0.8001342E+03  0.7818608E-02  0.9710506E-01
          2   -1    0    0  501    0  0.00000000000E+00  0.00000000000E+00  0.44630306465E+04  0.44630306465E+04  0.25500000000E-02 0. -1.
         -2   -1    0    0    0  501 -0.00000000000E+00 -0.00000000000E+00 -0.10553378570E+04  0.10553378570E+04  0.25500000000E-02 0.  1.
    8880023    1    1    2    0    0  0.32967250397E+03  0.31260294422E+03 -0.88840546269E+03  0.11956082272E+04  0.65864270000E+03 0.  1.
    8880022    1    1    2    0    0 -0.32967250397E+03 -0.31260294422E+03  0.42960982522E+04  0.43227602763E+04  0.15294330000E+03 0.  0.
<mgrwt>
<rscale>  0 0.70394705E+03</rscale>
<asrwt>0</asrwt>
<pdfrwt beam="1">  1        2 0.68662010E+00 0.80013422E+03</pdfrwt>
<pdfrwt beam="2">  1       -2 0.16235967E+00 0.80013422E+03</pdfrwt>
<totfact> 0.36491578E-02</totfact>
</mgrwt>
</event>
<event>
 4    5  0.7289609E-008  0.1065429E+04  0.7818608E-02  0.9300560E-01
         -2   -1    0    0    0  501 -0.00000000000E+00  0.00000000000E+00  0.13964844642E+04  0.13964844642E+04  0.25500000000E-02 0.  1.
          2   -1    0    0  501    0  0.00000000000E+00 -0.00000000000E+00 -0.86150385523E+03  0.86150385524E+03  0.25500000000E-02 0. -1.
    8880023    1    1    2    0    0  0.18665436714E+03  0.81638770680E+03  0.83680409386E+03  0.13547619859E+04  0.65864270000E+03 0.  0.
    8880022    1    1    2    0    0 -0.18665436714E+03 -0.81638770680E+03 -0.30182348490E+03  0.90322633356E+03  0.15294330000E+03 0.  0.
<mgrwt>
<rscale>  0 0.10073136E+04</rscale>
<asrwt>0</asrwt>
<pdfrwt beam="1">  1        2 0.13253905E+00 0.10654290E+04</pdfrwt>
<pdfrwt beam="2">  1       -2 0.21484376E+00 0.10654290E+04</pdfrwt>
<totfact> 0.32776132E+00</totfact>
</mgrwt>
</event>
<event>
 4    5  0.7289609E-008  0.1369839E+04  0.7818608E-02  0.9007480E-01
         -2   -1    0    0    0  501 -0.00000000000E+00  0.00000000000E+00  0.16162825868E+04  0.16162825868E+04  0.25500000000E-02 0.  1.
          2   -1    0    0  501    0  0.00000000000E+00 -0.00000000000E+00 -0.34701307968E+04  0.34701307968E+04  0.25500000000E-02 0. -1.
    8880023    1    1    2    0    0  0.95458748203E+03  0.72897924919E+03 -0.30752656751E+04  0.33665586561E+04  0.65864270000E+03 0.  0.
    8880022    1    1    2    0    0 -0.95458748203E+03 -0.72897924919E+03  0.12214174651E+04  0.17198547275E+04  0.15294330000E+03 0.  0.
<mgrwt>
<rscale>  0 0.13282209E+04</rscale>
<asrwt>0</asrwt>
<pdfrwt beam="1">  1        2 0.53386627E+00 0.13698388E+04</pdfrwt>
<pdfrwt beam="2">  1       -2 0.24865886E+00 0.13698388E+04</pdfrwt>
<totfact> 0.53902162E-02</totfact>
</mgrwt>
</event>
<event>
 4    5  0.7289609E-008  0.1459915E+04  0.7818608E-02  0.8938472E-01
          2   -1    0    0  501    0  0.00000000000E+00  0.00000000000E+00  0.38206566939E+04  0.38206566939E+04  0.25500000000E-02 0. -1.
         -2   -1    0    0    0  501 -0.00000000000E+00 -0.00000000000E+00 -0.12751136358E+04  0.12751136358E+04  0.25500000000E-02 0.  1.
    8880023    1    1    2    0    0  0.82891443280E+03  0.10052081113E+04 -0.68233559632E+03  0.16115007155E+04  0.65864270000E+03 0.  0.
    8880022    1    1    2    0    0 -0.82891443280E+03 -0.10052081113E+04  0.32278786544E+04  0.34842696142E+04  0.15294330000E+03 0.  0.
<mgrwt>
<rscale>  0 0.14213999E+04</rscale>
<asrwt>0</asrwt>
<pdfrwt beam="1">  1        2 0.58779333E+00 0.14599153E+04</pdfrwt>
<pdfrwt beam="2">  1       -2 0.19617133E+00 0.14599153E+04</pdfrwt>
<totfact> 0.64001641E-02</totfact>
</mgrwt>
</event>
<event>
 4    5  0.7289609E-008  0.1608702E+04  0.7818608E-02  0.8836462E-01
         -2   -1    0    0    0  501 -0.00000000000E+00  0.00000000000E+00  0.11240022103E+04  0.11240022103E+04  0.25500000000E-02 0.  1.
          2   -1    0    0  501    0  0.00000000000E+00 -0.00000000000E+00 -0.43785809240E+04  0.43785809240E+04  0.25500000000E-02 0. -1.
    8880023    1    1    2    0    0 -0.44400821567E+03  0.13989164730E+04  0.31568815479E+03  0.16393839731E+04  0.65864270000E+03 0.  0.
    8880022    1    1    2    0    0  0.44400821567E+03 -0.13989164730E+04 -0.35702668685E+04  0.38631991612E+04  0.15294330000E+03 0.  0.
<mgrwt>
<rscale>  0 0.15743506E+04</rscale>
<asrwt>0</asrwt>
<pdfrwt beam="1">  1        2 0.67362783E+00 0.16087016E+04</pdfrwt>
<pdfrwt beam="2">  1       -2 0.17292342E+00 0.16087016E+04</pdfrwt>
<totfact> 0.31029415E-02</totfact>
</mgrwt>
</event>
<event>
 4    5  0.7289609E-008  0.7999498E+03  0.7818608E-02  0.9710905E-01
          2   -1    0    0  501    0  0.00000000000E+00  0.00000000000E+00  0.14576810304E+04  0.14576810304E+04  0.25500000000E-02 0. -1.
         -2   -1    0    0    0  501 -0.00000000000E+00 -0.00000000000E+00 -0.37222851389E+03  0.37222851390E+03  0.25500000000E-02 0.  1.
    8880023    1    1    2    0    0 -0.43097871285E+03  0.14271246039E+03  0.20220913389E+03  0.82511104548E+03  0.65864270000E+03 0.  1.
    8880022    1    1    2    0    0  0.43097871285E+03 -0.14271246039E+03  0.88324338263E+03  0.10047984988E+04  0.15294330000E+03 0.  0.
<mgrwt>
<rscale>  0 0.70371234E+03</rscale>
<asrwt>0</asrwt>
<pdfrwt beam="1">  1        2 0.22425862E+00 0.79994981E+03</pdfrwt>
<pdfrwt beam="2">  1       -2 0.57265925E-01 0.79994981E+03</pdfrwt>
<totfact> 0.38967045E+01</totfact>
</mgrwt>
</event>
<event>
 4    5  0.7289609E-008  0.1557374E+04  0.7818608E-02  0.8870150E-01
         -2   -1    0    0    0  501 -0.00000000000E+00  0.00000000000E+00  0.12007878281E+04  0.12007878281E+04  0.25500000000E-02 0.  1.
          2   -1    0    0  501    0  0.00000000000E+00 -0.00000000000E+00 -0.32025954446E+04  0.32025954446E+04  0.25500000000E-02 0. -1.
    8880023    1    1    2    0    0  0.11521859812E+04 -0.81490611327E+03  0.40498208401E+03  0.16091691034E+04  0.65864270000E+03 0.  0.
    8880022    1    1    2    0    0 -0.11521859812E+04  0.81490611327E+03 -0.24067897004E+04  0.27942141693E+04  0.15294330000E+03 0.  0.
<mgrwt>
<rscale>  0 0.15217000E+04</rscale>
<asrwt>0</asrwt>
<pdfrwt beam="1">  1        2 0.49270699E+00 0.15573743E+04</pdfrwt>
<pdfrwt beam="2">  1       -2 0.18473659E+00 0.15573743E+04</pdfrwt>
<totfact> 0.20405511E-01</totfact>
</mgrwt>
</event>
<event>
 4    5  0.7289609E-008  0.9506648E+03  0.7818608E-02  0.9449158E-01
          2   -1    0    0  501    0  0.00000000000E+00  0.00000000000E+00  0.80778951765E+03  0.80778951766E+03  0.25500000000E-02 0. -1.
         -2   -1    0    0    0  501 -0.00000000000E+00 -0.00000000000E+00 -0.30639595219E+04  0.30639595219E+04  0.25500000000E-02 0.  1.
    8880023    1    1    2    0    0 -0.62373524589E+03 -0.28444267675E+03 -0.28168995825E+04  0.29729928956E+04  0.65864270000E+03 0.  1.
    8880022    1    1    2    0    0  0.62373524589E+03  0.28444267675E+03  0.56072957824E+03  0.89875614393E+03  0.15294330000E+03 0.  0.
<mgrwt>
<rscale>  0 0.88138242E+03</rscale>
<asrwt>0</asrwt>
<pdfrwt beam="1">  1        2 0.12427531E+00 0.95066477E+03</pdfrwt>
<pdfrwt beam="2">  1       -2 0.47137838E+00 0.95066477E+03</pdfrwt>
<totfact> 0.87516905E-02</totfact>
</mgrwt>
</event>
<event>
 4    5  0.7289609E-008  0.8031991E+03  0.7818608E-02  0.9703921E-01
         -2   -1    0    0    0  501 -0.00000000000E+00  0.00000000000E+00  0.12740881031E+04  0.12740881031E+04  0.25500000000E-02 0.  1.
          2   -1    0    0  501    0  0.00000000000E+00 -0.00000000000E+00 -0.10257867671E+04  0.10257867671E+04  0.25500000000E-02 0. -1.
    8880023    1    1    2    0    0 -0.20484393115E+03  0.41153077514E+03  0.10748536275E+04  0.13418044350E+04  0.65864270000E+03 0.  0.
    8880022    1    1    2    0    0  0.20484393115E+03 -0.41153077514E+03 -0.82655229158E+03  0.95807043517E+03  0.15294330000E+03 0.  0.
<mgrwt>
<rscale>  0 0.70783809E+03</rscale>
<asrwt>0</asrwt>
<pdfrwt beam="1">  1        2 0.15781335E+00 0.80319912E+03</pdfrwt>
<pdfrwt beam="2">  1       -2 0.19601355E+00 0.80319912E+03</pdfrwt>
<totfact> 0.34821222E+00</totfact>
</mgrwt>
</event>
<event>
 4    5  0.7289609E-008  0.7934565E+03  0.7818608E-02  0.9725127E-01
          2   -1    0    0  501    0  0.00000000000E+00  0.00000000000E+00  0.24046925833E+04  0.24046925833E+04  0.25500000000E-02 0. -1.
         -2   -1    0    0    0  501 -0.00000000000E+00 -0.00000000000E+00 -0.24615762561E+03  0.24615762562E+03  0.25500000000E-02 0.  1.
    8880023    1    1    2    0    0 -0.44243012785E+03 -0.43050742966E+01  0.52465860728E+03  0.95123068293E+03  0.65864270000E+03 0.  0.
    8880022    1    1    2    0    0  0.44243012785E+03  0.43050742966E+01  0.16338763505E+04  0.16996195260E+04  0.15294330000E+03 0.  0.
<mgrwt>
<rscale>  0 0.69540235E+03</rscale>
<asrwt>0</asrwt>
<pdfrwt beam="1">  1        2 0.36995272E+00 0.79345646E+03</pdfrwt>
<pdfrwt beam="2">  1       -2 0.37870403E-01 0.79345646E+03</pdfrwt>
<totfact> 0.26922363E+01</totfact>
</mgrwt>
</event>
<event>
 4    5  0.7289609E-008  0.8984460E+03  0.7818608E-02  0.9528531E-01
          2   -1    0    0  501    0  0.00000000000E+00  0.00000000000E+00  0.19327415021E+04  0.19327415021E+04  0.25500000000E-02 0. -1.
         -2   -1    0    0    0  501 -0.00000000000E+00 -0.00000000000E+00 -0.14624298080E+04  0.14624298080E+04  0.25500000000E-02 0.  1.
    8880023    1    1    2    0    0 -0.18772367944E+03  0.58151077699E+03 -0.12635639159E+04  0.15504189561E+04  0.65864270000E+03 0.  1.
    8880022    1    1    2    0    0  0.18772367944E+03 -0.58151077699E+03  0.17338756100E+04  0.18447523540E+04  0.15294330000E+03 0.  0.
<mgrwt>
<rscale>  0 0.82212642E+03</rscale>
<asrwt>0</asrwt>
<pdfrwt beam="1">  1        2 0.29734485E+00 0.89844597E+03</pdfrwt>
<pdfrwt beam="2">  1       -2 0.22498920E+00 0.89844597E+03</pdfrwt>
<totfact> 0.68060764E-01</totfact>
</mgrwt>
</event>
<event>
 4    5  0.7289609E-008  0.1368331E+04  0.7818608E-02  0.9008690E-01
          2   -1    0    0  501    0  0.00000000000E+00  0.00000000000E+00  0.14876368029E+04  0.14876368029E+04  0.25500000000E-02 0. -1.
         -2   -1    0    0    0  501 -0.00000000000E+00 -0.00000000000E+00 -0.14878846399E+04  0.14878846399E+04  0.25500000000E-02 0.  1.
    8880023    1    1    2    0    0  0.11294664852E+04 -0.40351438445E+03 -0.74246981917E+03  0.15567883730E+04  0.65864270000E+03 0.  0.
    8880022    1    1    2    0    0 -0.11294664852E+04  0.40351438445E+03  0.74222198222E+03  0.14187330698E+04  0.15294330000E+03 0.  0.
<mgrwt>
<rscale>  0 0.13266561E+04</rscale>
<asrwt>0</asrwt>
<pdfrwt beam="1">  1        2 0.22886720E+00 0.13683306E+04</pdfrwt>
<pdfrwt beam="2">  1       -2 0.22890533E+00 0.13683306E+04</pdfrwt>
<totfact> 0.10679196E+00</totfact>
</mgrwt>
</event>
<event>
 4    5  0.8667808E-008  0.8706436E+03  0.7818608E-02  0.9574904E-01
         -2   -1    0    0    0  501 -0.00000000000E+00  0.00000000000E+00  0.40505775459E+04  0.40505775459E+04  0.25500000000E-02 0.  1.
          2   -1    0    0  501    0  0.00000000000E+00 -0.00000000000E+00 -0.13097337689E+04  0.13097337689E+04  0.25500000000E-02 0. -1.
    8880023    1    1    2    0    0  0.52340238009E+03  0.22418741592E+03  0.39341321976E+04  0.40293195956E+04  0.65864270000E+03 0.  0.
    8880022    1    1    2    0    0 -0.52340238009E+03 -0.22418741592E+03 -0.11932884206E+04  0.13309917193E+04  0.15294330000E+03 0.  0.
<mgrwt>
<rscale>  0 0.78979711E+03</rscale>
<asrwt>0</asrwt>
<pdfrwt beam="1">  1        2 0.20149751E+00 0.87064359E+03</pdfrwt>
<pdfrwt beam="2">  1       -2 0.62316576E+00 0.87064359E+03</pdfrwt>
<totfact> 0.68195441E-03</totfact>
</mgrwt>
</event>
<event>
 4    5  0.7289609E-008  0.8244328E+03  0.7818608E-02  0.9660263E-01
         -2   -1    0    0    0  501 -0.00000000000E+00  0.00000000000E+00  0.68501448994E+03  0.68501448994E+03  0.25500000000E-02 0.  1.
          2   -1    0    0  501    0  0.00000000000E+00 -0.00000000000E+00 -0.10349215944E+04  0.10349215944E+04  0.25500000000E-02 0. -1.
    8880023    1    1    2    0    0 -0.12833139914E+02 -0.49569598871E+03  0.30969604284E+03  0.88068214920E+03  0.65864270000E+03 0.  0.
    8880022    1    1    2    0    0  0.12833139914E+02  0.49569598871E+03 -0.65960314727E+03  0.83925393511E+03  0.15294330000E+03 0.  0.
<mgrwt>
<rscale>  0 0.73432803E+03</rscale>
<asrwt>0</asrwt>
<pdfrwt beam="1">  1        2 0.15921871E+00 0.82443278E+03</pdfrwt>
<pdfrwt beam="2">  1       -2 0.10538684E+00 0.82443278E+03</pdfrwt>
<totfact> 0.17595621E+01</totfact>
</mgrwt>
</event>
<event>
 4    5  0.7289609E-008  0.8547893E+03  0.7818608E-02  0.9602900E-01
          2   -1    0    0  501    0  0.00000000000E+00  0.00000000000E+00  0.31950896744E+04  0.31950896744E+04  0.25500000000E-02 0. -1.
         -2   -1    0    0    0  501 -0.00000000000E+00 -0.00000000000E+00 -0.38499272206E+03  0.38499272206E+03  0.25500000000E-02 0.  1.
    8880023    1    1    2    0    0  0.30693632388E+02 -0.54397830242E+03  0.15924146651E+03  0.86949556842E+03  0.65864270000E+03 0.  0.
    8880022    1    1    2    0    0 -0.30693632388E+02  0.54397830242E+03  0.26508554859E+04  0.27105868281E+04  0.15294330000E+03 0.  0.
<mgrwt>
<rscale>  0 0.77104511E+03</rscale>
<asrwt>0</asrwt>
<pdfrwt beam="1">  1        2 0.49155226E+00 0.85478927E+03</pdfrwt>
<pdfrwt beam="2">  1       -2 0.59229650E-01 0.85478927E+03</pdfrwt>
<totfact> 0.36596414E+00</totfact>
</mgrwt>
</event>
<event>
 4    5  0.7289609E-008  0.7259607E+03  0.7818608E-02  0.9902910E-01
          2   -1    0    0  501    0  0.00000000000E+00  0.00000000000E+00  0.22578456679E+04  0.22578456679E+04  0.25500000000E-02 0. -1.
         -2   -1    0    0    0  501 -0.00000000000E+00 -0.00000000000E+00 -0.33234811912E+03  0.33234811913E+03  0.25500000000E-02 0.  1.
    8880023    1    1    2    0    0 -0.20460546076E+03 -0.22659522807E+03  0.99742052810E+02  0.73278064611E+03  0.65864270000E+03 0.  1.
    8880022    1    1    2    0    0  0.20460546076E+03  0.22659522807E+03  0.18257554959E+04  0.18574131409E+04  0.15294330000E+03 0.  0.
<mgrwt>
<rscale>  0 0.60120471E+03</rscale>
<asrwt>0</asrwt>
<pdfrwt beam="1">  1        2 0.34736089E+00 0.72596074E+03</pdfrwt>
<pdfrwt beam="2">  1       -2 0.51130477E-01 0.72596074E+03</pdfrwt>
<totfact> 0.18077769E+01</totfact>
</mgrwt>
</event>
<event>
 4    5  0.7289609E-008  0.8748300E+03  0.7818608E-02  0.9567709E-01
         -2   -1    0    0    0  501 -0.00000000000E+00  0.00000000000E+00  0.19234866012E+04  0.19234866012E+04  0.25500000000E-02 0.  1.
          2   -1    0    0  501    0  0.00000000000E+00 -0.00000000000E+00 -0.97074921682E+03  0.97074921683E+03  0.25500000000E-02 0. -1.
    8880023    1    1    2    0    0  0.57034732075E+03 -0.78874841353E+02  0.17159220997E+04  0.19260623472E+04  0.65864270000E+03 0.  0.
    8880022    1    1    2    0    0 -0.57034732075E+03  0.78874841353E+02 -0.76318471531E+03  0.96817347082E+03  0.15294330000E+03 0.  0.
<mgrwt>
<rscale>  0 0.79470760E+03</rscale>
<asrwt>0</asrwt>
<pdfrwt beam="1">  1        2 0.14934603E+00 0.87482999E+03</pdfrwt>
<pdfrwt beam="2">  1       -2 0.29592101E+00 0.87482999E+03</pdfrwt>
<totfact> 0.90555139E-01</totfact>
</mgrwt>
</event>
<event>
 4    5  0.7289609E-008  0.8354105E+03  0.7818608E-02  0.9638896E-01
         -2   -1    0    0    0  501 -0.00000000000E+00  0.00000000000E+00  0.13125884503E+04  0.13125884503E+04  0.25500000000E-02 0.  1.
          2   -1    0    0  501    0  0.00000000000E+00 -0.00000000000E+00 -0.12748320318E+04  0.12748320318E+04  0.25500000000E-02 0. -1.
    8880023    1    1    2    0    0 -0.10742541253E+03  0.50255382751E+03  0.11096102659E+04  0.13889369018E+04  0.65864270000E+03 0.  1.
    8880022    1    1    2    0    0  0.10742541253E+03 -0.50255382751E+03 -0.10718538474E+04  0.11984835802E+04  0.15294330000E+03 0.  0.
<mgrwt>
<rscale>  0 0.74774450E+03</rscale>
<asrwt>0</asrwt>
<pdfrwt beam="1">  1        2 0.19612801E+00 0.83541054E+03</pdfrwt>
<pdfrwt beam="2">  1       -2 0.20193668E+00 0.83541054E+03</pdfrwt>
<totfact> 0.22418862E+00</totfact>
</mgrwt>
</event>
<event>
 4    5  0.7289609E-008  0.6910526E+03  0.7818608E-02  0.1003656E+00
         -2   -1    0    0    0  501 -0.00000000000E+00  0.00000000000E+00  0.14018979928E+03  0.14018979930E+03  0.25500000000E-02 0.  1.
          2   -1    0    0  501    0  0.00000000000E+00 -0.00000000000E+00 -0.16358650612E+04  0.16358650612E+04  0.25500000000E-02 0. -1.
    8880023    1    1    2    0    0 -0.17700139255E+03  0.11141786071E+03 -0.98268065956E+03  0.12013388022E+04  0.65864270000E+03 0.  0.
    8880022    1    1    2    0    0  0.17700139255E+03 -0.11141786071E+03 -0.51299460238E+03  0.57471605836E+03  0.15294330000E+03 0.  1.
<mgrwt>
<rscale>  0 0.54075682E+03</rscale>
<asrwt>0</asrwt>
<pdfrwt beam="1">  1        2 0.25167153E+00 0.69105256E+03</pdfrwt>
<pdfrwt beam="2">  1       -2 0.21567663E-01 0.69105256E+03</pdfrwt>
<totfact> 0.20322151E+02</totfact>
</mgrwt>
</event>
<event>
 4    5  0.7289609E-008  0.1049113E+04  0.7818608E-02  0.9319949E-01
          2   -1    0    0  501    0  0.00000000000E+00  0.00000000000E+00  0.19728400258E+04  0.19728400258E+04  0.25500000000E-02 0. -1.
         -2   -1    0    0    0  501 -0.00000000000E+00 -0.00000000000E+00 -0.60233496669E+03  0.60233496669E+03  0.25500000000E-02 0.  1.
    8880023    1    1    2    0    0  0.67855911846E+03 -0.45429565326E+03  0.95592548490E+02  0.10534586653E+04  0.65864270000E+03 0.  0.
    8880022    1    1    2    0    0 -0.67855911846E+03  0.45429565326E+03  0.12749125106E+04  0.15217163272E+04  0.15294330000E+03 0.  0.
<mgrwt>
<rscale>  0 0.98966887E+03</rscale>
<asrwt>0</asrwt>
<pdfrwt beam="1">  1        2 0.30351386E+00 0.10491126E+04</pdfrwt>
<pdfrwt beam="2">  1       -2 0.92666916E-01 0.10491126E+04</pdfrwt>
<totfact> 0.67991422E+00</totfact>
</mgrwt>
</event>
<event>
 4    5  0.7289609E-008  0.1243625E+04  0.7818608E-02  0.9115840E-01
          2   -1    0    0  501    0  0.00000000000E+00  0.00000000000E+00  0.21499655053E+04  0.21499655053E+04  0.25500000000E-02 0. -1.
         -2   -1    0    0    0  501 -0.00000000000E+00 -0.00000000000E+00 -0.11370415871E+04  0.11370415871E+04  0.25500000000E-02 0.  1.
    8880023    1    1    2    0    0  0.10541758033E+04 -0.38806031542E+02 -0.57850003774E+03  0.13715921523E+04  0.65864270000E+03 0.  0.
    8880022    1    1    2    0    0 -0.10541758033E+04  0.38806031542E+02  0.15914239560E+04  0.19154149401E+04  0.15294330000E+03 0.  0.
<mgrwt>
<rscale>  0 0.11965976E+04</rscale>
<asrwt>0</asrwt>
<pdfrwt beam="1">  1        2 0.33076392E+00 0.12436248E+04</pdfrwt>
<pdfrwt beam="2">  1       -2 0.17492948E+00 0.12436248E+04</pdfrwt>
<totfact> 0.10486891E+00</totfact>
</mgrwt>
</event>
<event>
 4    5  0.7289609E-008  0.9504260E+03  0.7818608E-02  0.9449501E-01
         -2   -1    0    0    0  501 -0.00000000000E+00  0.00000000000E+00  0.47749138005E+03  0.47749138005E+03  0.25500000000E-02 0.  1.
          2   -1    0    0  501    0  0.00000000000E+00 -0.00000000000E+00 -0.35745250835E+04  0.35745250835E+04  0.25500000000E-02 0. -1.
    8880023    1    1    2    0    0 -0.31383609554E+03 -0.60910289467E+03 -0.79339805647E+02  0.95373185025E+03  0.65864270000E+03 0.  1.
    8880022    1    1    2    0    0  0.31383609554E+03  0.60910289467E+03 -0.30176938978E+04  0.30982846133E+04  0.15294330000E+03 0.  0.
<mgrwt>
<rscale>  0 0.88111503E+03</rscale>
<asrwt>0</asrwt>
<pdfrwt beam="1">  1        2 0.54992692E+00 0.95042603E+03</pdfrwt>
<pdfrwt beam="2">  1       -2 0.73460215E-01 0.95042603E+03</pdfrwt>
<totfact> 0.12608128E+00</totfact>
</mgrwt>
</event>
<event>
 4    5  0.7289609E-008  0.6621766E+03  0.7818608E-02  0.1022030E+00
         -2   -1    0    0    0  501 -0.00000000000E+00  0.00000000000E+00  0.37306842968E+03  0.37306842969E+03  0.25500000000E-02 0.  1.
          2   -1    0    0  501    0  0.00000000000E+00 -0.00000000000E+00 -0.37408952048E+04  0.37408952048E+04  0.25500000000E-02 0. -1.
    8880023    1    1    2    0    0  0.56858138807E+02  0.37878111533E+02  0.75588100645E+02  0.66647683118E+03  0.65864270000E+03 0.  1.
    8880022    1    1    2    0    0 -0.56858138807E+02 -0.37878111533E+02 -0.34434148757E+04  0.34474868033E+04  0.15294330000E+03 0.  0.
<mgrwt>
<rscale>  0 0.46961274E+03</rscale>
<asrwt>0</asrwt>
<pdfrwt beam="1">  1        2 0.57552231E+00 0.66217657E+03</pdfrwt>
<pdfrwt beam="2">  1       -2 0.57395145E-01 0.66217657E+03</pdfrwt>
<totfact> 0.17379067E+00</totfact>
</mgrwt>
</event>
<event>
 4    5  0.7289609E-008  0.1165723E+04  0.7818608E-02  0.9191185E-01
         -2   -1    0    0    0  501 -0.00000000000E+00  0.00000000000E+00  0.20124059916E+04  0.20124059916E+04  0.25500000000E-02 0.  1.
          2   -1    0    0  501    0  0.00000000000E+00 -0.00000000000E+00 -0.10284313628E+04  0.10284313628E+04  0.25500000000E-02 0. -1.
    8880023    1    1    2    0    0  0.95732514431E+03 -0.92883685411E+02  0.15306389299E+04  0.19239970247E+04  0.65864270000E+03 0.  0.
    8880022    1    1    2    0    0 -0.95732514431E+03  0.92883685411E+02 -0.54666430118E+03  0.11168403297E+04  0.15294330000E+03 0.  0.
<mgrwt>
<rscale>  0 0.11144883E+04</rscale>
<asrwt>0</asrwt>
<pdfrwt beam="1">  1        2 0.15822021E+00 0.11657225E+04</pdfrwt>
<pdfrwt beam="2">  1       -2 0.30960092E+00 0.11657225E+04</pdfrwt>
<totfact> 0.65893794E-01</totfact>
</mgrwt>
</event>
<event>
 4    5  0.7289609E-008  0.9658100E+03  0.7818608E-02  0.9427723E-01
          2   -1    0    0  501    0  0.00000000000E+00  0.00000000000E+00  0.29568963627E+04  0.29568963627E+04  0.25500000000E-02 0. -1.
         -2   -1    0    0    0  501 -0.00000000000E+00 -0.00000000000E+00 -0.56228210227E+03  0.56228210228E+03  0.25500000000E-02 0.  1.
    8880023    1    1    2    0    0  0.69112363285E+03 -0.14603709185E+03 -0.52823370486E+02  0.96725344291E+03  0.65864270000E+03 0.  0.
    8880022    1    1    2    0    0 -0.69112363285E+03  0.14603709185E+03  0.24474376309E+04  0.25519250221E+04  0.15294330000E+03 0.  0.
<mgrwt>
<rscale>  0 0.89828900E+03</rscale>
<asrwt>0</asrwt>
<pdfrwt beam="1">  1        2 0.45490713E+00 0.96580998E+03</pdfrwt>
<pdfrwt beam="2">  1       -2 0.86504938E-01 0.96580998E+03</pdfrwt>
<totfact> 0.21982347E+00</totfact>
</mgrwt>
</event>
<event>
 4    5  0.7900826E-008  0.1052735E+04  0.7818608E-02  0.9315600E-01
          2   -1    0    0  501    0  0.00000000000E+00  0.00000000000E+00  0.25486047759E+04  0.25486047759E+04  0.25500000000E-02 0. -1.
         -2   -1    0    0    0  501 -0.00000000000E+00 -0.00000000000E+00 -0.12215030403E+04  0.12215030403E+04  0.25500000000E-02 0.  1.
    8880023    1    1    2    0    0 -0.52583474319E+03  0.63082435574E+03 -0.90408418271E+03  0.13876670929E+04  0.65864270000E+03 0.  1.
    8880022    1    1    2    0    0  0.52583474319E+03 -0.63082435574E+03  0.22311859184E+04  0.23824407233E+04  0.15294330000E+03 0.  0.
<mgrwt>
<rscale>  0 0.99359263E+03</rscale>
<asrwt>0</asrwt>
<pdfrwt beam="1">  1        2 0.39209304E+00 0.10527354E+04</pdfrwt>
<pdfrwt beam="2">  1       -2 0.18792355E+00 0.10527354E+04</pdfrwt>
<totfact> 0.52118028E-01</totfact>
</mgrwt>
</event>
<event>
 4    5  0.7289609E-008  0.1256938E+04  0.7818608E-02  0.9103668E-01
         -2   -1    0    0    0  501 -0.00000000000E+00  0.00000000000E+00  0.60189460469E+03  0.60189460469E+03  0.25500000000E-02 0.  1.
          2   -1    0    0  501    0  0.00000000000E+00 -0.00000000000E+00 -0.35460093322E+04  0.35460093322E+04  0.25500000000E-02 0. -1.
    8880023    1    1    2    0    0 -0.71132702293E+03  0.80006066160E+03 -0.30152141733E+03  0.12925976045E+04  0.65864270000E+03 0.  0.
    8880022    1    1    2    0    0  0.71132702293E+03 -0.80006066160E+03 -0.26425933102E+04  0.28553063324E+04  0.15294330000E+03 0.  0.
<mgrwt>
<rscale>  0 0.12105543E+04</rscale>
<asrwt>0</asrwt>
<pdfrwt beam="1">  1        2 0.54553988E+00 0.12569381E+04</pdfrwt>
<pdfrwt beam="2">  1       -2 0.92599172E-01 0.12569381E+04</pdfrwt>
<totfact> 0.74224667E-01</totfact>
</mgrwt>
</event>
<event>
 4    5  0.7289609E-008  0.7290897E+03  0.7818608E-02  0.9892950E-01
         -2   -1    0    0    0  501 -0.00000000000E+00  0.00000000000E+00  0.19122082177E+03  0.19122082178E+03  0.25500000000E-02 0.  1.
          2   -1    0    0  501    0  0.00000000000E+00 -0.00000000000E+00 -0.27157987115E+04  0.27157987115E+04  0.25500000000E-02 0. -1.
    8880023    1    1    2    0    0  0.31153609567E+03  0.26586924638E+02 -0.58031617444E+03  0.93184691449E+03  0.65864270000E+03 0.  1.
    8880022    1    1    2    0    0 -0.31153609567E+03 -0.26586924638E+02 -0.19442617153E+04  0.19751726188E+04  0.15294330000E+03 0.  0.
<mgrwt>
<rscale>  0 0.60604185E+03</rscale>
<asrwt>0</asrwt>
<pdfrwt beam="1">  1        2 0.41781516E+00 0.72908971E+03</pdfrwt>
<pdfrwt beam="2">  1       -2 0.29418590E-01 0.72908971E+03</pdfrwt>
<totfact> 0.29077012E+01</totfact>
</mgrwt>
</event>
<event>
 4    5  0.7289609E-008  0.9877449E+03  0.7818608E-02  0.9397770E-01
          2   -1    0    0  501    0  0.00000000000E+00  0.00000000000E+00  0.30388466458E+04  0.30388466458E+04  0.25500000000E-02 0. -1.
         -2   -1    0    0    0  501 -0.00000000000E+00 -0.00000000000E+00 -0.35733935581E+03  0.35733935582E+03  0.25500000000E-02 0.  1.
    8880023    1    1    2    0    0  0.37373007401E+03  0.63415741399E+03  0.53822082967E+03  0.11248651749E+04  0.65864270000E+03 0.  0.
    8880022    1    1    2    0    0 -0.37373007401E+03 -0.63415741399E+03  0.21432864603E+04  0.22713208267E+04  0.15294330000E+03 0.  0.
<mgrwt>
<rscale>  0 0.92259464E+03</rscale>
<asrwt>0</asrwt>
<pdfrwt beam="1">  1        2 0.46751487E+00 0.98774491E+03</pdfrwt>
<pdfrwt beam="2">  1       -2 0.54975285E-01 0.98774491E+03</pdfrwt>
<totfact> 0.52535321E+00</totfact>
</mgrwt>
</event>
<event>
 4    5  0.7289609E-008  0.6810494E+03  0.7818608E-02  0.1008736E+00
          2   -1    0    0  501    0  0.00000000000E+00  0.00000000000E+00  0.14440128375E+04  0.14440128375E+04  0.25500000000E-02 0. -1.
         -2   -1    0    0    0  501 -0.00000000000E+00 -0.00000000000E+00 -0.14383271360E+04  0.14383271360E+04  0.25500000000E-02 0.  1.
    8880023    1    1    2    0    0 -0.66804867628E+02  0.15986010453E+03 -0.13473572852E+04  0.15097019585E+04  0.65864270000E+03 0.  1.
    8880022    1    1    2    0    0  0.66804867628E+02 -0.15986010453E+03  0.13530429867E+04  0.13726380150E+04  0.15294330000E+03 0.  0.
<mgrwt>
<rscale>  0 0.51980039E+03</rscale>
<asrwt>0</asrwt>
<pdfrwt beam="1">  1        2 0.22215582E+00 0.68104945E+03</pdfrwt>
<pdfrwt beam="2">  1       -2 0.22128110E+00 0.68104945E+03</pdfrwt>
<totfact> 0.13898298E+00</totfact>
</mgrwt>
</event>
<event>
 4    5  0.7289609E-008  0.1287023E+04  0.7818608E-02  0.9076848E-01
         -2   -1    0    0    0  501 -0.00000000000E+00  0.00000000000E+00  0.66199370104E+03  0.66199370104E+03  0.25500000000E-02 0.  1.
          2   -1    0    0  501    0  0.00000000000E+00 -0.00000000000E+00 -0.25275348068E+04  0.25275348068E+04  0.25500000000E-02 0. -1.
    8880023    1    1    2    0    0  0.10038310397E+04 -0.46361833462E+03 -0.40091045218E+03  0.13480200716E+04  0.65864270000E+03 0.  0.
    8880022    1    1    2    0    0 -0.10038310397E+04  0.46361833462E+03 -0.14646306536E+04  0.18415084363E+04  0.15294330000E+03 0.  0.
<mgrwt>
<rscale>  0 0.12420241E+04</rscale>
<asrwt>0</asrwt>
<pdfrwt beam="1">  1        2 0.38885150E+00 0.12870233E+04</pdfrwt>
<pdfrwt beam="2">  1       -2 0.10184519E+00 0.12870233E+04</pdfrwt>
<totfact> 0.25838841E+00</totfact>
</mgrwt>
</event>
<event>
 4    5  0.7289609E-008  0.1272367E+04  0.7818608E-02  0.9089798E-01
         -2   -1    0    0    0  501 -0.00000000000E+00  0.00000000000E+00  0.20727201583E+04  0.20727201583E+04  0.25500000000E-02 0.  1.
          2   -1    0    0  501    0  0.00000000000E+00 -0.00000000000E+00 -0.16950261987E+04  0.16950261987E+04  0.25500000000E-02 0. -1.
    8880023    1    1    2    0    0 -0.10739713508E+04  0.17802532851E+03  0.16517386816E+04  0.20849840188E+04  0.65864270000E+03 0.  0.
    8880022    1    1    2    0    0  0.10739713508E+04 -0.17802532851E+03 -0.12740447221E+04  0.16827623382E+04  0.15294330000E+03 0.  0.
<mgrwt>
<rscale>  0 0.12267048E+04</rscale>
<asrwt>0</asrwt>
<pdfrwt beam="1">  1        2 0.26077326E+00 0.12723670E+04</pdfrwt>
<pdfrwt beam="2">  1       -2 0.31888002E+00 0.12723670E+04</pdfrwt>
<totfact> 0.23226984E-01</totfact>
</mgrwt>
</event>
<event>
 4    5  0.7289609E-008  0.9334480E+03  0.7818608E-02  0.9474340E-01
          2   -1    0    0  501    0  0.00000000000E+00  0.00000000000E+00  0.28019603470E+04  0.28019603470E+04  0.25500000000E-02 0. -1.
         -2   -1    0    0    0  501 -0.00000000000E+00 -0.00000000000E+00 -0.33151408499E+03  0.33151408500E+03  0.25500000000E-02 0.  1.
    8880023    1    1    2    0    0 -0.58576048560E+03 -0.30724523381E+03  0.52057759077E+03  0.10687966198E+04  0.65864270000E+03 0.  0.
    8880022    1    1    2    0    0  0.58576048560E+03  0.30724523381E+03  0.19498686713E+04  0.20646778122E+04  0.15294330000E+03 0.  0.
<mgrwt>
<rscale>  0 0.86202373E+03</rscale>
<asrwt>0</asrwt>
<pdfrwt beam="1">  1        2 0.43107082E+00 0.93344801E+03</pdfrwt>
<pdfrwt beam="2">  1       -2 0.51002167E-01 0.93344801E+03</pdfrwt>
<totfact> 0.86112850E+00</totfact>
</mgrwt>
</event>
<event>
 4    5  0.7289609E-008  0.7138195E+03  0.7818608E-02  0.9944082E-01
          2   -1    0    0  501    0  0.00000000000E+00  0.00000000000E+00  0.32532266681E+04  0.32532266681E+04  0.25500000000E-02 0. -1.
         -2   -1    0    0    0  501 -0.00000000000E+00 -0.00000000000E+00 -0.18803711774E+03  0.18803711776E+03  0.25500000000E-02 0.  1.
    8880023    1    1    2    0    0  0.21479534252E+03 -0.17202051104E+03  0.53625870063E+03  0.89281111981E+03  0.65864270000E+03 0.  1.
    8880022    1    1    2    0    0 -0.21479534252E+03  0.17202051104E+03  0.25289308497E+04  0.25484526661E+04  0.15294330000E+03 0.  0.
<mgrwt>
<rscale>  0 0.58171644E+03</rscale>
<asrwt>0</asrwt>
<pdfrwt beam="1">  1        2 0.50049641E+00 0.71381952E+03</pdfrwt>
<pdfrwt beam="2">  1       -2 0.28928787E-01 0.71381952E+03</pdfrwt>
<totfact> 0.14125434E+01</totfact>
</mgrwt>
</event>
<event>
 4    5  0.7289609E-008  0.8822757E+03  0.7818608E-02  0.9555106E-01
          2   -1    0    0  501    0  0.00000000000E+00  0.00000000000E+00  0.14478753919E+04  0.14478753920E+04  0.25500000000E-02 0. -1.
         -2   -1    0    0    0  501 -0.00000000000E+00 -0.00000000000E+00 -0.48736411105E+03  0.48736411106E+03  0.25500000000E-02 0.  1.
    8880023    1    1    2    0    0  0.38114023140E+03  0.44646655851E+03  0.10790359928E+03  0.88884962556E+03  0.65864270000E+03 0.  0.
    8880022    1    1    2    0    0 -0.38114023140E+03 -0.44646655851E+03  0.85260768162E+03  0.10463898775E+04  0.15294330000E+03 0.  0.
<mgrwt>
<rscale>  0 0.80340224E+03</rscale>
<asrwt>0</asrwt>
<pdfrwt beam="1">  1        2 0.22275006E+00 0.88227573E+03</pdfrwt>
<pdfrwt beam="2">  1       -2 0.74979095E-01 0.88227573E+03</pdfrwt>
<totfact> 0.21890318E+01</totfact>
</mgrwt>
</event>
<event>
 4    5  0.7289609E-008  0.8446169E+03  0.7818608E-02  0.9621535E-01
         -2   -1    0    0    0  501 -0.00000000000E+00  0.00000000000E+00  0.10489100986E+04  0.10489100986E+04  0.25500000000E-02 0.  1.
          2   -1    0    0  501    0  0.00000000000E+00 -0.00000000000E+00 -0.15743152622E+04  0.15743152622E+04  0.25500000000E-02 0. -1.
    8880023    1    1    2    0    0  0.42209759433E+03  0.31843537660E+03  0.81530684411E+03  0.11739262858E+04  0.65864270000E+03 0.  0.
    8880022    1    1    2    0    0 -0.42209759433E+03 -0.31843537660E+03 -0.13407120077E+04  0.14492990750E+04  0.15294330000E+03 0.  0.
<mgrwt>
<rscale>  0 0.75887076E+03</rscale>
<asrwt>0</asrwt>
<pdfrwt beam="1">  1        2 0.24220235E+00 0.84461688E+03</pdfrwt>
<pdfrwt beam="2">  1       -2 0.16137079E+00 0.84461688E+03</pdfrwt>
<totfact> 0.28765342E+00</totfact>
</mgrwt>
</event>
<event>
 4    5  0.7289609E-008  0.8166677E+03  0.7818608E-02  0.9675852E-01
          2   -1    0    0  501    0  0.00000000000E+00  0.00000000000E+00  0.15471006233E+04  0.15471006233E+04  0.25500000000E-02 0. -1.
         -2   -1    0    0    0  501 -0.00000000000E+00 -0.00000000000E+00 -0.28292506077E+03  0.28292506078E+03  0.25500000000E-02 0.  1.
    8880023    1    1    2    0    0  0.47649440501E+03 -0.78031695262E+02  0.77289228466E+03  0.11244147604E+04  0.65864270000E+03 0.  1.
    8880022    1    1    2    0    0 -0.47649440501E+03  0.78031695262E+02  0.49128327785E+03  0.70561092366E+03  0.15294330000E+03 0. -1.
<mgrwt>
<rscale>  0 0.72472921E+03</rscale>
<asrwt>0</asrwt>
<pdfrwt beam="1">  1        2 0.23801548E+00 0.81666766E+03</pdfrwt>
<pdfrwt beam="2">  1       -2 0.43526932E-01 0.81666766E+03</pdfrwt>
<totfact> 0.60653480E+01</totfact>
</mgrwt>
</event>
<event>
 4    5  0.7289609E-008  0.1309785E+04  0.7818608E-02  0.9057155E-01
          2   -1    0    0  501    0  0.00000000000E+00  0.00000000000E+00  0.27161083384E+04  0.27161083384E+04  0.25500000000E-02 0. -1.
         -2   -1    0    0    0  501 -0.00000000000E+00 -0.00000000000E+00 -0.10937728273E+04  0.10937728273E+04  0.25500000000E-02 0.  1.
    8880023    1    1    2    0    0  0.10546835202E+04 -0.41154574467E+03  0.21764501504E+04  0.25401717838E+04  0.65864270000E+03 0. -1.
    8880022    1    1    2    0    0 -0.10546835202E+04  0.41154574467E+03 -0.55411463931E+03  0.12697093818E+04  0.15294330000E+03 0.  0.
<mgrwt>
<rscale>  0 0.12657745E+04</rscale>
<asrwt>0</asrwt>
<pdfrwt beam="1">  1        2 0.41786282E+00 0.13097853E+04</pdfrwt>
<pdfrwt beam="2">  1       -2 0.16827274E+00 0.13097853E+04</pdfrwt>
<totfact> 0.54964143E-01</totfact>
</mgrwt>
</event>
<event>
 4    5  0.7289609E-008  0.7284117E+03  0.7818608E-02  0.9895088E-01
         -2   -1    0    0    0  501 -0.00000000000E+00  0.00000000000E+00  0.28846769719E+03  0.28846769720E+03  0.25500000000E-02 0.  1.
          2   -1    0    0  501    0  0.00000000000E+00 -0.00000000000E+00 -0.13669524216E+04  0.13669524216E+04  0.25500000000E-02 0. -1.
    8880023    1    1    2    0    0 -0.32400378031E+02  0.30939238085E+03 -0.27190817227E+03  0.77750735703E+03  0.65864270000E+03 0.  1.
    8880022    1    1    2    0    0  0.32400378031E+02 -0.30939238085E+03 -0.80657655218E+03  0.87791276182E+03  0.15294330000E+03 0. -1.
<mgrwt>
<rscale>  0 0.60499945E+03</rscale>
<asrwt>0</asrwt>
<pdfrwt beam="1">  1        2 0.21030037E+00 0.72841172E+03</pdfrwt>
<pdfrwt beam="2">  1       -2 0.44379647E-01 0.72841172E+03</pdfrwt>
<totfact> 0.74270845E+01</totfact>
</mgrwt>
</event>
<event>
 4    5  0.7289609E-008  0.1033141E+04  0.7818608E-02  0.9339429E-01
          2   -1    0    0  501    0  0.00000000000E+00  0.00000000000E+00  0.20143989499E+04  0.20143989499E+04  0.25500000000E-02 0. -1.
         -2   -1    0    0    0  501 -0.00000000000E+00 -0.00000000000E+00 -0.57421274132E+03  0.57421274133E+03  0.25500000000E-02 0.  1.
    8880023    1    1    2    0    0 -0.79261438082E+03  0.73020235520E+02  0.12084271189E+03  0.10401839639E+04  0.65864270000E+03 0.  1.
    8880022    1    1    2    0    0  0.79261438082E+03 -0.73020235520E+02  0.13193434967E+04  0.15484277273E+04  0.15294330000E+03 0. -1.
<mgrwt>
<rscale>  0 0.97232638E+03</rscale>
<asrwt>0</asrwt>
<pdfrwt beam="1">  1        2 0.30990753E+00 0.10331407E+04</pdfrwt>
<pdfrwt beam="2">  1       -2 0.88340421E-01 0.10331407E+04</pdfrwt>
<totfact> 0.72197033E+00</totfact>
</mgrwt>
</event>
<event>
 4    5  0.7289609E-008  0.8831981E+03  0.7818608E-02  0.9553561E-01
         -2   -1    0    0    0  501 -0.00000000000E+00  0.00000000000E+00  0.41367205668E+03  0.41367205669E+03  0.25500000000E-02 0.  1.
          2   -1    0    0  501    0  0.00000000000E+00 -0.00000000000E+00 -0.20443856872E+04  0.20443856872E+04  0.25500000000E-02 0. -1.
    8880023    1    1    2    0    0  0.37919812078E+03  0.44993044769E+03 -0.20291140830E+03  0.90620740918E+03  0.65864270000E+03 0.  0.
    8880022    1    1    2    0    0 -0.37919812078E+03 -0.44993044769E+03 -0.14278022222E+04  0.15518503347E+04  0.15294330000E+03 0.  0.
<mgrwt>
<rscale>  0 0.80447593E+03</rscale>
<asrwt>0</asrwt>
<pdfrwt beam="1">  1        2 0.31452087E+00 0.88319807E+03</pdfrwt>
<pdfrwt beam="2">  1       -2 0.63641856E-01 0.88319807E+03</pdfrwt>
<totfact> 0.14670892E+01</totfact>
</mgrwt>
</event>
<event>
 4    5  0.7289609E-008  0.7116891E+03  0.7818608E-02  0.9951781E-01
         -2   -1    0    0    0  501 -0.00000000000E+00  0.00000000000E+00  0.30862876836E+03  0.30862876837E+03  0.25500000000E-02 0.  1.
          2   -1    0    0  501    0  0.00000000000E+00 -0.00000000000E+00 -0.32004958260E+04  0.32004958260E+04  0.25500000000E-02 0. -1.
    8880023    1    1    2    0    0 -0.12997878858E+03  0.23621315341E+03 -0.12212485528E+03  0.72209128638E+03  0.65864270000E+03 0.  0.
    8880022    1    1    2    0    0  0.12997878858E+03 -0.23621315341E+03 -0.27697422023E+04  0.27870333080E+04  0.15294330000E+03 0.  0.
<mgrwt>
<rscale>  0 0.57816051E+03</rscale>
<asrwt>0</asrwt>
<pdfrwt beam="1">  1        2 0.49238395E+00 0.71168908E+03</pdfrwt>
<pdfrwt beam="2">  1       -2 0.47481351E-01 0.71168908E+03</pdfrwt>
<totfact> 0.58858405E+00</totfact>
</mgrwt>
</event>
<event>
 4    5  0.7289609E-008  0.7106357E+03  0.7818608E-02  0.9955648E-01
          2   -1    0    0  501    0  0.00000000000E+00  0.00000000000E+00  0.59988553262E+03  0.59988553263E+03  0.25500000000E-02 0. -1.
         -2   -1    0    0    0  501 -0.00000000000E+00 -0.00000000000E+00 -0.53555444294E+03  0.53555444295E+03  0.25500000000E-02 0.  1.
    8880023    1    1    2    0    0 -0.24356065211E+03 -0.10895461213E+03 -0.19084510902E+03  0.73581584698E+03  0.65864270000E+03 0.  0.
    8880022    1    1    2    0    0  0.24356065211E+03  0.10895461213E+03  0.25517619870E+03  0.39962412860E+03  0.15294330000E+03 0.  0.
<mgrwt>
<rscale>  0 0.57638516E+03</rscale>
<asrwt>0</asrwt>
<pdfrwt beam="1">  1        2 0.92290082E-01 0.71063570E+03</pdfrwt>
<pdfrwt beam="2">  1       -2 0.82392991E-01 0.71063570E+03</pdfrwt>
<totfact> 0.65101297E+01</totfact>
</mgrwt>
</event>
<event>
 4    5  0.7289609E-008  0.1311922E+04  0.7818608E-02  0.9055332E-01
          2   -1    0    0  501    0  0.00000000000E+00  0.00000000000E+00  0.23841735133E+04  0.23841735133E+04  0.25500000000E-02 0. -1.
         -2   -1    0    0    0  501 -0.00000000000E+00 -0.00000000000E+00 -0.84143019614E+03  0.84143019615E+03  0.25500000000E-02 0.  1.
    8880023    1    1    2    0    0 -0.10520503395E+04  0.42487555790E+03  0.93387320206E+01  0.13119552487E+04  0.65864270000E+03 0.  0.
    8880022    1    1    2    0    0  0.10520503395E+04 -0.42487555790E+03  0.15334045851E+04  0.19136484607E+04  0.15294330000E+03 0.  0.
<mgrwt>
<rscale>  0 0.12680016E+04</rscale>
<asrwt>0</asrwt>
<pdfrwt beam="1">  1        2 0.36679593E+00 0.13119220E+04</pdfrwt>
<pdfrwt beam="2">  1       -2 0.12945080E+00 0.13119220E+04</pdfrwt>
<totfact> 0.17213892E+00</totfact>
</mgrwt>
</event>
<event>
 4    5  0.7289609E-008  0.1376191E+04  0.7818608E-02  0.9002407E-01
         -2   -1    0    0    0  501 -0.00000000000E+00  0.00000000000E+00  0.21787074943E+04  0.21787074943E+04  0.25500000000E-02 0.  1.
          2   -1    0    0  501    0  0.00000000000E+00 -0.00000000000E+00 -0.18388105230E+04  0.18388105230E+04  0.25500000000E-02 0. -1.
    8880023    1    1    2    0    0 -0.96810161033E+03  0.72309814863E+03  0.17029908792E+04  0.21895387189E+04  0.65864270000E+03 0.  0.
    8880022    1    1    2    0    0  0.96810161033E+03 -0.72309814863E+03 -0.13630939080E+04  0.18279792984E+04  0.15294330000E+03 0.  0.
<mgrwt>
<rscale>  0 0.13348098E+04</rscale>
<asrwt>0</asrwt>
<pdfrwt beam="1">  1        2 0.28289393E+00 0.13761911E+04</pdfrwt>
<pdfrwt beam="2">  1       -2 0.33518577E+00 0.13761911E+04</pdfrwt>
<totfact> 0.15106346E-01</totfact>
</mgrwt>
</event>
<event>
 4    5  0.7289609E-008  0.7557660E+03  0.7818608E-02  0.9816195E-01
          2   -1    0    0  501    0  0.00000000000E+00  0.00000000000E+00  0.65343971203E+03  0.65343971204E+03  0.25500000000E-02 0. -1.
         -2   -1    0    0    0  501 -0.00000000000E+00 -0.00000000000E+00 -0.88620880357E+03  0.88620880357E+03  0.25500000000E-02 0.  1.
    8880023    1    1    2    0    0  0.36457353477E+03  0.66769716036E+02 -0.62352544830E+03  0.97977867306E+03  0.65864270000E+03 0.  0.
    8880022    1    1    2    0    0 -0.36457353477E+03 -0.66769716036E+02  0.39075635676E+03  0.55986984255E+03  0.15294330000E+03 0. -1.
<mgrwt>
<rscale>  0 0.64500639E+03</rscale>
<asrwt>0</asrwt>
<pdfrwt beam="1">  1        2 0.10052919E+00 0.75576601E+03</pdfrwt>
<pdfrwt beam="2">  1       -2 0.13633982E+00 0.75576601E+03</pdfrwt>
<totfact> 0.17413642E+01</totfact>
</mgrwt>
</event>
<event>
 4    5  0.1109552E-007  0.1548130E+04  0.7818608E-02  0.8876376E-01
         -2   -1    0    0    0  501 -0.00000000000E+00  0.00000000000E+00  0.23775449089E+04  0.23775449089E+04  0.25500000000E-02 0.  1.
          2   -1    0    0  501    0  0.00000000000E+00 -0.00000000000E+00 -0.26851736315E+04  0.26851736315E+04  0.25500000000E-02 0. -1.
    8880023    1    1    2    0    0 -0.13743854097E+04  0.27195984861E+03  0.18954969558E+04  0.24473692671E+04  0.65864270000E+03 0.  0.
    8880022    1    1    2    0    0  0.13743854097E+04 -0.27195984861E+03 -0.22031256784E+04  0.26153492733E+04  0.15294330000E+03 0.  0.
<mgrwt>
<rscale>  0 0.15122060E+04</rscale>
<asrwt>0</asrwt>
<pdfrwt beam="1">  1        2 0.41310363E+00 0.15481304E+04</pdfrwt>
<pdfrwt beam="2">  1       -2 0.36577614E+00 0.15481304E+04</pdfrwt>
<totfact> 0.31272546E-02</totfact>
</mgrwt>
</event>
<event>
 4    5  0.7289609E-008  0.1021511E+04  0.7818608E-02  0.9353940E-01
          2   -1    0    0  501    0  0.00000000000E+00  0.00000000000E+00  0.47797758163E+04  0.47797758163E+04  0.25500000000E-02 0. -1.
         -2   -1    0    0    0  501 -0.00000000000E+00 -0.00000000000E+00 -0.38398035379E+03  0.38398035380E+03  0.25500000000E-02 0.  1.
    8880023    1    1    2    0    0  0.54902670456E+03  0.55519833194E+03  0.41230457381E+03  0.11015810356E+04  0.65864270000E+03 0.  0.
    8880022    1    1    2    0    0 -0.54902670456E+03 -0.55519833194E+03  0.39834908887E+04  0.40621751345E+04  0.15294330000E+03 0.  0.
<mgrwt>
<rscale>  0 0.95965176E+03</rscale>
<asrwt>0</asrwt>
<pdfrwt beam="1">  1        2 0.73535013E+00 0.10215115E+04</pdfrwt>
<pdfrwt beam="2">  1       -2 0.59073900E-01 0.10215115E+04</pdfrwt>
<totfact> 0.18229142E-01</totfact>
</mgrwt>
</event>
<event>
 4    5  0.7289609E-008  0.1639511E+04  0.7818608E-02  0.8816928E-01
          2   -1    0    0  501    0  0.00000000000E+00  0.00000000000E+00  0.21461040889E+04  0.21461040889E+04  0.25500000000E-02 0. -1.
         -2   -1    0    0    0  501 -0.00000000000E+00 -0.00000000000E+00 -0.11920341254E+04  0.11920341254E+04  0.25500000000E-02 0.  1.
    8880023    1    1    2    0    0  0.77947206636E+03  0.12832034113E+04  0.79050201603E+03  0.18201349787E+04  0.65864270000E+03 0. -1.
    8880022    1    1    2    0    0 -0.77947206636E+03 -0.12832034113E+04  0.16356794749E+03  0.15180032356E+04  0.15294330000E+03 0.  0.
<mgrwt>
<rscale>  0 0.16059057E+04</rscale>
<asrwt>0</asrwt>
<pdfrwt beam="1">  1        2 0.33016985E+00 0.16395115E+04</pdfrwt>
<pdfrwt beam="2">  1       -2 0.18338987E+00 0.16395115E+04</pdfrwt>
<totfact> 0.88315128E-01</totfact>
</mgrwt>
</event>
<event>
 4    5  0.7289609E-008  0.8392566E+03  0.7818608E-02  0.9631584E-01
          2   -1    0    0  501    0  0.00000000000E+00  0.00000000000E+00  0.19027361183E+04  0.19027361183E+04  0.25500000000E-02 0. -1.
         -2   -1    0    0    0  501 -0.00000000000E+00 -0.00000000000E+00 -0.55671971482E+03  0.55671971483E+03  0.25500000000E-02 0.  1.
    8880023    1    1    2    0    0  0.50540582750E+03  0.12290828926E+03 -0.16393892057E+03  0.85511851458E+03  0.65864270000E+03 0.  1.
    8880022    1    1    2    0    0 -0.50540582750E+03 -0.12290828926E+03  0.15099553240E+04  0.16043373185E+04  0.15294330000E+03 0.  0.
<mgrwt>
<rscale>  0 0.75240584E+03</rscale>
<asrwt>0</asrwt>
<pdfrwt beam="1">  1        2 0.29272863E+00 0.83925664E+03</pdfrwt>
<pdfrwt beam="2">  1       -2 0.85649187E-01 0.83925664E+03</pdfrwt>
<totfact> 0.91415563E+00</totfact>
</mgrwt>
</event>
<event>
 4    5  0.7289609E-008  0.1630508E+04  0.7818608E-02  0.8822586E-01
         -2   -1    0    0    0  501 -0.00000000000E+00  0.00000000000E+00  0.12439079265E+04  0.12439079265E+04  0.25500000000E-02 0.  1.
          2   -1    0    0  501    0  0.00000000000E+00 -0.00000000000E+00 -0.24460395641E+04  0.24460395641E+04  0.25500000000E-02 0. -1.
    8880023    1    1    2    0    0  0.13961381167E+04 -0.52492177616E+03  0.19300301156E+03  0.16418906421E+04  0.65864270000E+03 0.  0.
    8880022    1    1    2    0    0 -0.13961381167E+04  0.52492177616E+03 -0.13951346492E+04  0.20480568484E+04  0.15294330000E+03 0.  0.
<mgrwt>
<rscale>  0 0.15966875E+04</rscale>
<asrwt>0</asrwt>
<pdfrwt beam="1">  1        2 0.37631378E+00 0.16305075E+04</pdfrwt>
<pdfrwt beam="2">  1       -2 0.19137045E+00 0.16305075E+04</pdfrwt>
<totfact> 0.52650306E-01</totfact>
</mgrwt>
</event>
<event>
 4    5  0.7289609E-008  0.6753609E+03  0.7818608E-02  0.1012080E+00
         -2   -1    0    0    0  501 -0.00000000000E+00  0.00000000000E+00  0.17504659692E+03  0.17504659694E+03  0.25500000000E-02 0.  1.
          2   -1    0    0  501    0  0.00000000000E+00 -0.00000000000E+00 -0.27153927424E+04  0.27153927424E+04  0.25500000000E-02 0. -1.
    8880023    1    1    2    0    0  0.14153921623E+03  0.47632406585E+02 -0.50346251425E+03  0.84236981511E+03  0.65864270000E+03 0.  1.
    8880022    1    1    2    0    0 -0.14153921623E+03 -0.47632406585E+02 -0.20368836312E+04  0.20480695242E+04  0.15294330000E+03 0.  0.
<mgrwt>
<rscale>  0 0.50656383E+03</rscale>
<asrwt>0</asrwt>
<pdfrwt beam="1">  1        2 0.41775270E+00 0.67536094E+03</pdfrwt>
<pdfrwt beam="2">  1       -2 0.26930248E-01 0.67536094E+03</pdfrwt>
<totfact> 0.34512406E+01</totfact>
</mgrwt>
</event>
<event>
 4    5  0.7289609E-008  0.6680364E+03  0.7818608E-02  0.1017111E+00
          2   -1    0    0  501    0  0.00000000000E+00  0.00000000000E+00  0.13579474126E+04  0.13579474126E+04  0.25500000000E-02 0. -1.
         -2   -1    0    0    0  501 -0.00000000000E+00 -0.00000000000E+00 -0.56546544568E+03  0.56546544569E+03  0.25500000000E-02 0.  1.
    8880023    1    1    2    0    0  0.91063953445E+02 -0.64573442706E+02 -0.35768256189E+03  0.75776605523E+03  0.65864270000E+03 0.  1.
    8880022    1    1    2    0    0 -0.91063953445E+02  0.64573442706E+02  0.11501645288E+04  0.11656468030E+04  0.15294330000E+03 0.  0.
<mgrwt>
<rscale>  0 0.48743568E+03</rscale>
<asrwt>0</asrwt>
<pdfrwt beam="1">  1        2 0.20891498E+00 0.66803636E+03</pdfrwt>
<pdfrwt beam="2">  1       -2 0.86994685E-01 0.66803636E+03</pdfrwt>
<totfact> 0.18047807E+01</totfact>
</mgrwt>
</event>
<event>
 4    5  0.7289609E-008  0.9213679E+03  0.7818608E-02  0.9492565E-01
         -2   -1    0    0    0  501 -0.00000000000E+00  0.00000000000E+00  0.61859655236E+03  0.61859655237E+03  0.25500000000E-02 0.  1.
          2   -1    0    0  501    0  0.00000000000E+00 -0.00000000000E+00 -0.27454001209E+04  0.27454001209E+04  0.25500000000E-02 0. -1.
    8880023    1    1    2    0    0 -0.90125972549E+02 -0.63795440457E+03  0.20168080134E+03  0.94318283759E+03  0.65864270000E+03 0.  1.
    8880022    1    1    2    0    0  0.90125972549E+02  0.63795440457E+03 -0.23284843699E+04  0.24208138357E+04  0.15294330000E+03 0.  0.
<mgrwt>
<rscale>  0 0.84834208E+03</rscale>
<asrwt>0</asrwt>
<pdfrwt beam="1">  1        2 0.42236924E+00 0.92136785E+03</pdfrwt>
<pdfrwt beam="2">  1       -2 0.95168702E-01 0.92136785E+03</pdfrwt>
<totfact> 0.23764018E+00</totfact>
</mgrwt>
</event>
<event>
 4    5  0.7289609E-008  0.6616410E+03  0.7818608E-02  0.1022535E+00
          2   -1    0    0  501    0  0.00000000000E+00  0.00000000000E+00  0.87772073123E+03  0.87772073124E+03  0.25500000000E-02 0. -1.
         -2   -1    0    0    0  501 -0.00000000000E+00 -0.00000000000E+00 -0.62307228349E+03  0.62307228350E+03  0.25500000000E-02 0.  1.
    8880023    1    1    2    0    0 -0.38756596991E+02  0.49562790921E+02 -0.43484442944E+03  0.79174391576E+03  0.65864270000E+03 0.  1.
    8880022    1    1    2    0    0  0.38756596991E+02 -0.49562790921E+02  0.68949287719E+03  0.70904909898E+03  0.15294330000E+03 0.  0.
<mgrwt>
<rscale>  0 0.46782868E+03</rscale>
<asrwt>0</asrwt>
<pdfrwt beam="1">  1        2 0.13503396E+00 0.66164095E+03</pdfrwt>
<pdfrwt beam="2">  1       -2 0.95857275E-01 0.66164095E+03</pdfrwt>
<totfact> 0.28373560E+01</totfact>
</mgrwt>
</event>
<event>
 4    5  0.7289609E-008  0.8091033E+03  0.7818608E-02  0.9691448E-01
          2   -1    0    0  501    0  0.00000000000E+00  0.00000000000E+00  0.26594856020E+04  0.26594856020E+04  0.25500000000E-02 0. -1.
         -2   -1    0    0    0  501 -0.00000000000E+00 -0.00000000000E+00 -0.34921982845E+03  0.34921982846E+03  0.25500000000E-02 0.  1.
    8880023    1    1    2    0    0 -0.52021751146E+02  0.46704561558E+03  0.18933657158E+03  0.83096113821E+03  0.65864270000E+03 0.  1.
    8880022    1    1    2    0    0  0.52021751146E+02 -0.46704561558E+03  0.21209292020E+04  0.21777442923E+04  0.15294330000E+03 0.  0.
<mgrwt>
<rscale>  0 0.71528272E+03</rscale>
<asrwt>0</asrwt>
<pdfrwt beam="1">  1        2 0.40915164E+00 0.80910325E+03</pdfrwt>
<pdfrwt beam="2">  1       -2 0.53726127E-01 0.80910325E+03</pdfrwt>
<totfact> 0.95560970E+00</totfact>
</mgrwt>
</event>
<event>
 4    5  0.7289609E-008  0.9236443E+03  0.7818608E-02  0.9489094E-01
         -2   -1    0    0    0  501 -0.00000000000E+00  0.00000000000E+00  0.16122146644E+04  0.16122146644E+04  0.25500000000E-02 0.  1.
          2   -1    0    0  501    0  0.00000000000E+00 -0.00000000000E+00 -0.10262480028E+04  0.10262480029E+04  0.25500000000E-02 0. -1.
    8880023    1    1    2    0    0  0.62910860118E+03 -0.15339818998E+03  0.13434026698E+04  0.16302912550E+04  0.65864270000E+03 0.  0.
    8880022    1    1    2    0    0 -0.62910860118E+03  0.15339818998E+03 -0.75743600826E+03  0.10081714122E+04  0.15294330000E+03 0.  0.
<mgrwt>
<rscale>  0 0.85092699E+03</rscale>
<asrwt>0</asrwt>
<pdfrwt beam="1">  1        2 0.15788431E+00 0.92364433E+03</pdfrwt>
<pdfrwt beam="2">  1       -2 0.24803302E+00 0.92364433E+03</pdfrwt>
<totfact> 0.16120346E+00</totfact>
</mgrwt>
</event>
<event>
 4    5  0.7289609E-008  0.7319855E+03  0.7818608E-02  0.9883939E-01
         -2   -1    0    0    0  501 -0.00000000000E+00  0.00000000000E+00  0.15894782805E+03  0.15894782807E+03  0.25500000000E-02 0.  1.
          2   -1    0    0  501    0  0.00000000000E+00 -0.00000000000E+00 -0.30543269816E+04  0.30543269816E+04  0.25500000000E-02 0. -1.
    8880023    1    1    2    0    0 -0.28914720861E+03 -0.13559658780E+03 -0.78472643769E+03  0.10731254965E+04  0.65864270000E+03 0.  0.
    8880022    1    1    2    0    0  0.28914720861E+03  0.13559658780E+03 -0.21106527159E+04  0.21401493132E+04  0.15294330000E+03 0.  0.
<mgrwt>
<rscale>  0 0.61045998E+03</rscale>
<asrwt>0</asrwt>
<pdfrwt beam="1">  1        2 0.46989641E+00 0.73198548E+03</pdfrwt>
<pdfrwt beam="2">  1       -2 0.24453514E-01 0.73198548E+03</pdfrwt>
<totfact> 0.25514290E+01</totfact>
</mgrwt>
</event>
<event>
 4    5  0.7289609E-008  0.8927392E+03  0.7818608E-02  0.9537790E-01
          2   -1    0    0  501    0  0.00000000000E+00  0.00000000000E+00  0.29731640926E+04  0.29731640926E+04  0.25500000000E-02 0. -1.
         -2   -1    0    0    0  501 -0.00000000000E+00 -0.00000000000E+00 -0.20906156470E+03  0.20906156472E+03  0.25500000000E-02 0.  1.
    8880023    1    1    2    0    0  0.13302497442E+03  0.58777326317E+03  0.11738873923E+04  0.14747863807E+04  0.65864270000E+03 0.  0.
    8880022    1    1    2    0    0 -0.13302497442E+03 -0.58777326317E+03  0.15902151356E+04  0.17074392766E+04  0.15294330000E+03 0.  0.
<mgrwt>
<rscale>  0 0.81554180E+03</rscale>
<asrwt>0</asrwt>
<pdfrwt beam="1">  1        2 0.45740985E+00 0.89273919E+03</pdfrwt>
<pdfrwt beam="2">  1       -2 0.32163319E-01 0.89273919E+03</pdfrwt>
<totfact> 0.16873710E+01</totfact>
</mgrwt>
</event>
<event>
 4    5  0.7289609E-008  0.1511713E+04  0.7818608E-02  0.8901409E-01
          2   -1    0    0  501    0  0.00000000000E+00  0.00000000000E+00  0.13918989756E+04  0.13918989756E+04  0.25500000000E-02 0. -1.
         -2   -1    0    0    0  501 -0.00000000000E+00 -0.00000000000E+00 -0.22657225052E+04  0.22657225052E+04  0.25500000000E-02 0.  1.
    8880023    1    1    2    0    0  0.12556537747E+04  0.52421262005E+03  0.61757140943E+03  0.16329941595E+04  0.65864270000E+03 0.  0.
    8880022    1    1    2    0    0 -0.12556537747E+04 -0.52421262005E+03 -0.14913949390E+04  0.20246273213E+04  0.15294330000E+03 0.  0.
<mgrwt>
<rscale>  0 0.14747655E+04</rscale>
<asrwt>0</asrwt>
<pdfrwt beam="1">  1        2 0.21413830E+00 0.15117128E+04</pdfrwt>
<pdfrwt beam="2">  1       -2 0.34857269E+00 0.15117128E+04</pdfrwt>
<totfact> 0.21885288E-01</totfact>
</mgrwt>
</event>
<event>
 4    5  0.7289609E-008  0.6939601E+03  0.7818608E-02  0.1002324E+00
          2   -1    0    0  501    0  0.00000000000E+00  0.00000000000E+00  0.22347616365E+04  0.22347616365E+04  0.25500000000E-02 0. -1.
         -2   -1    0    0    0  501 -0.00000000000E+00 -0.00000000000E+00 -0.36859832454E+03  0.36859832455E+03  0.25500000000E-02 0.  1.
    8880023    1    1    2    0    0 -0.21853982178E+03 -0.32855362895E+01 -0.24087945052E+02  0.69437805539E+03  0.65864270000E+03 0.  1.
    8880022    1    1    2    0    0  0.21853982178E+03  0.32855362895E+01  0.18902512570E+04  0.19089819057E+04  0.15294330000E+03 0.  0.
<mgrwt>
<rscale>  0 0.54642679E+03</rscale>
<asrwt>0</asrwt>
<pdfrwt beam="1">  1        2 0.34380948E+00 0.69396012E+03</pdfrwt>
<pdfrwt beam="2">  1       -2 0.56707434E-01 0.69396012E+03</pdfrwt>
<totfact> 0.15110437E+01</totfact>
</mgrwt>
</event>
<event>
 4    5  0.7289609E-008  0.6895174E+03  0.7818608E-02  0.1004383E+00
         -2   -1    0    0    0  501 -0.00000000000E+00  0.00000000000E+00  0.10053672194E+03  0.10053672198E+03  0.25500000000E-02 0.  1.
          2   -1    0    0  501    0  0.00000000000E+00 -0.00000000000E+00 -0.27143116765E+04  0.27143116765E+04  0.25500000000E-02 0. -1.
    8880023    1    1    2    0    0  0.18209017042E+02 -0.20320546615E+03 -0.12511264846E+04  0.14285488149E+04  0.65864270000E+03 0.  0.
    8880022    1    1    2    0    0 -0.18209017042E+02  0.20320546615E+03 -0.13626484700E+04  0.13862995837E+04  0.15294330000E+03 0.  0.
<mgrwt>
<rscale>  0 0.53769523E+03</rscale>
<asrwt>0</asrwt>
<pdfrwt beam="1">  1        2 0.41758635E+00 0.68951739E+03</pdfrwt>
<pdfrwt beam="2">  1       -2 0.15467190E-01 0.68951739E+03</pdfrwt>
<totfact> 0.91210737E+01</totfact>
</mgrwt>
</event>
<event>
 4    5  0.7289609E-008  0.9527767E+03  0.7818608E-02  0.9446130E-01
         -2   -1    0    0    0  501 -0.00000000000E+00  0.00000000000E+00  0.56553461598E+03  0.56553461599E+03  0.25500000000E-02 0.  1.
          2   -1    0    0  501    0  0.00000000000E+00 -0.00000000000E+00 -0.33933290215E+04  0.33933290215E+04  0.25500000000E-02 0. -1.
    8880023    1    1    2    0    0 -0.64706106291E+03 -0.23512796723E+03  0.90029437989E+02  0.95702073440E+03  0.65864270000E+03 0.  1.
    8880022    1    1    2    0    0  0.64706106291E+03  0.23512796723E+03 -0.29178238436E+04  0.30018429031E+04  0.15294330000E+03 0.  0.
<mgrwt>
<rscale>  0 0.88374653E+03</rscale>
<asrwt>0</asrwt>
<pdfrwt beam="1">  1        2 0.52205061E+00 0.95277667E+03</pdfrwt>
<pdfrwt beam="2">  1       -2 0.87005327E-01 0.95277667E+03</pdfrwt>
<totfact> 0.11445805E+00</totfact>
</mgrwt>
</event>
<event>
 4    5  0.8453459E-008  0.1222321E+04  0.7818608E-02  0.9135724E-01
          2   -1    0    0  501    0  0.00000000000E+00  0.00000000000E+00  0.19837788387E+04  0.19837788387E+04  0.25500000000E-02 0. -1.
         -2   -1    0    0    0  501 -0.00000000000E+00 -0.00000000000E+00 -0.18360486214E+04  0.18360486214E+04  0.25500000000E-02 0.  1.
    8880023    1    1    2    0    0 -0.98136296909E+03  0.31174660406E+03 -0.14602423547E+04  0.19043049028E+04  0.65864270000E+03 0.  0.
    8880022    1    1    2    0    0  0.98136296909E+03 -0.31174660406E+03  0.16079725720E+04  0.19155225573E+04  0.15294330000E+03 0.  0.
<mgrwt>
<rscale>  0 0.11742220E+04</rscale>
<asrwt>0</asrwt>
<pdfrwt beam="1">  1        2 0.30519674E+00 0.12223213E+04</pdfrwt>
<pdfrwt beam="2">  1       -2 0.28246902E+00 0.12223213E+04</pdfrwt>
<totfact> 0.26973567E-01</totfact>
</mgrwt>
</event>
<event>
 4    5  0.7289609E-008  0.9712927E+03  0.7818608E-02  0.9420118E-01
          2   -1    0    0  501    0  0.00000000000E+00  0.00000000000E+00  0.21484897866E+04  0.21484897866E+04  0.25500000000E-02 0. -1.
         -2   -1    0    0    0  501 -0.00000000000E+00 -0.00000000000E+00 -0.50894703782E+03  0.50894703783E+03  0.25500000000E-02 0.  1.
    8880023    1    1    2    0    0  0.42898932724E+02  0.71257211682E+03  0.12913100182E+03  0.97983894696E+03  0.65864270000E+03 0.  1.
    8880022    1    1    2    0    0 -0.42898932724E+02 -0.71257211682E+03  0.15104117469E+04  0.16775978774E+04  0.15294330000E+03 0.  0.
<mgrwt>
<rscale>  0 0.90438340E+03</rscale>
<asrwt>0</asrwt>
<pdfrwt beam="1">  1        2 0.33053689E+00 0.97129272E+03</pdfrwt>
<pdfrwt beam="2">  1       -2 0.78299545E-01 0.97129272E+03</pdfrwt>
<totfact> 0.80700818E+00</totfact>
</mgrwt>
</event>
<event>
 4    5  0.7289609E-008  0.1194220E+04  0.7818608E-02  0.9162761E-01
         -2   -1    0    0    0  501 -0.00000000000E+00  0.00000000000E+00  0.23241971556E+04  0.23241971556E+04  0.25500000000E-02 0.  1.
          2   -1    0    0  501    0  0.00000000000E+00 -0.00000000000E+00 -0.13786326794E+04  0.13786326794E+04  0.25500000000E-02 0. -1.
    8880023    1    1    2    0    0 -0.70308597112E+03 -0.70570688784E+03 -0.96985975810E+03  0.15384376006E+04  0.65864270000E+03 0.  0.
    8880022    1    1    2    0    0  0.70308597112E+03  0.70570688784E+03  0.19154242342E+04  0.21643922344E+04  0.15294330000E+03 0.  0.
<mgrwt>
<rscale>  0 0.11446201E+04</rscale>
<asrwt>0</asrwt>
<pdfrwt beam="1">  1        2 0.21209734E+00 0.11942204E+04</pdfrwt>
<pdfrwt beam="2">  1       -2 0.35756879E+00 0.11942204E+04</pdfrwt>
<totfact> 0.20365875E-01</totfact>
</mgrwt>
</event>
<event>
 4    5  0.7289609E-008  0.7344219E+03  0.7818608E-02  0.9876504E-01
          2   -1    0    0  501    0  0.00000000000E+00  0.00000000000E+00  0.10064873135E+04  0.10064873135E+04  0.25500000000E-02 0. -1.
         -2   -1    0    0    0  501 -0.00000000000E+00 -0.00000000000E+00 -0.50067823194E+03  0.50067823195E+03  0.25500000000E-02 0.  1.
    8880023    1    1    2    0    0  0.29965898870E+03  0.12557763195E+03 -0.15912046634E+03  0.75146176232E+03  0.65864270000E+03 0.  1.
    8880022    1    1    2    0    0 -0.29965898870E+03 -0.12557763195E+03  0.66492954788E+03  0.75570378312E+03  0.15294330000E+03 0.  0.
<mgrwt>
<rscale>  0 0.61413630E+03</rscale>
<asrwt>0</asrwt>
<pdfrwt beam="1">  1        2 0.15484420E+00 0.73442185E+03</pdfrwt>
<pdfrwt beam="2">  1       -2 0.77027421E-01 0.73442185E+03</pdfrwt>
<totfact> 0.38194364E+01</totfact>
</mgrwt>
</event>
<event>
 4    5  0.7289609E-008  0.9135245E+03  0.7818608E-02  0.9504660E-01
         -2   -1    0    0    0  501 -0.00000000000E+00  0.00000000000E+00  0.39382892995E+03  0.39382892996E+03  0.25500000000E-02 0.  1.
          2   -1    0    0  501    0  0.00000000000E+00 -0.00000000000E+00 -0.26275218215E+04  0.26275218215E+04  0.25500000000E-02 0. -1.
    8880023    1    1    2    0    0 -0.57405702531E+03  0.26678716175E+03 -0.21850192946E+04  0.23682982038E+04  0.65864270000E+03 0.  0.
    8880022    1    1    2    0    0  0.57405702531E+03 -0.26678716175E+03 -0.48673596965E+02  0.65305254769E+03  0.15294330000E+03 0.  1.
<mgrwt>
<rscale>  0 0.83941125E+03</rscale>
<asrwt>0</asrwt>
<pdfrwt beam="1">  1        2 0.40423412E+00 0.91352453E+03</pdfrwt>
<pdfrwt beam="2">  1       -2 0.60589068E-01 0.91352453E+03</pdfrwt>
<totfact> 0.76323054E+00</totfact>
</mgrwt>
</event>
<event>
 4    5  0.7289609E-008  0.8164967E+03  0.7818608E-02  0.9676200E-01
          2   -1    0    0  501    0  0.00000000000E+00  0.00000000000E+00  0.35949438238E+04  0.35949438238E+04  0.25500000000E-02 0. -1.
         -2   -1    0    0    0  501 -0.00000000000E+00 -0.00000000000E+00 -0.50706043475E+03  0.50706043475E+03  0.25500000000E-02 0.  1.
    8880023    1    1    2    0    0  0.11341229627E+03 -0.46903555033E+03 -0.14539327448E+03  0.82934076648E+03  0.65864270000E+03 0.  0.
    8880022    1    1    2    0    0 -0.11341229627E+03  0.46903555033E+03  0.32332766635E+04  0.32726634920E+04  0.15294330000E+03 0.  0.
<mgrwt>
<rscale>  0 0.72451682E+03</rscale>
<asrwt>0</asrwt>
<pdfrwt beam="1">  1        2 0.55306827E+00 0.81649673E+03</pdfrwt>
<pdfrwt beam="2">  1       -2 0.78009299E-01 0.81649673E+03</pdfrwt>
<totfact> 0.10960120E+00</totfact>
</mgrwt>
</event>
<event>
 4    5  0.7289609E-008  0.9992433E+03  0.7818608E-02  0.9382548E-01
         -2   -1    0    0    0  501 -0.00000000000E+00  0.00000000000E+00  0.87160252946E+03  0.87160252946E+03  0.25500000000E-02 0.  1.
          2   -1    0    0  501    0  0.00000000000E+00 -0.00000000000E+00 -0.13902559026E+04  0.13902559026E+04  0.25500000000E-02 0. -1.
    8880023    1    1    2    0    0  0.28202027689E+02 -0.75092047995E+03  0.39018158172E+03  0.10727202779E+04  0.65864270000E+03 0.  0.
    8880022    1    1    2    0    0 -0.28202027689E+02  0.75092047995E+03 -0.90883495483E+03  0.11891381542E+04  0.15294330000E+03 0.  0.
<mgrwt>
<rscale>  0 0.93525906E+03</rscale>
<asrwt>0</asrwt>
<pdfrwt beam="1">  1        2 0.21388552E+00 0.99924328E+03</pdfrwt>
<pdfrwt beam="2">  1       -2 0.13409270E+00 0.99924328E+03</pdfrwt>
<totfact> 0.58402824E+00</totfact>
</mgrwt>
</event>
<event>
 4    5  0.7289609E-008  0.1539865E+04  0.7818608E-02  0.8881987E-01
         -2   -1    0    0    0  501 -0.00000000000E+00  0.00000000000E+00  0.19984489338E+04  0.19984489338E+04  0.25500000000E-02 0.  1.
          2   -1    0    0  501    0  0.00000000000E+00 -0.00000000000E+00 -0.19969609405E+04  0.19969609405E+04  0.25500000000E-02 0. -1.
    8880023    1    1    2    0    0  0.10513223370E+04 -0.91219180656E+03  0.13526097202E+04  0.20495696645E+04  0.65864270000E+03 0.  1.
    8880022    1    1    2    0    0 -0.10513223370E+04  0.91219180656E+03 -0.13511217269E+04  0.19458402098E+04  0.15294330000E+03 0.  0.
<mgrwt>
<rscale>  0 0.15037134E+04</rscale>
<asrwt>0</asrwt>
<pdfrwt beam="1">  1        2 0.30722476E+00 0.15398645E+04</pdfrwt>
<pdfrwt beam="2">  1       -2 0.30745368E+00 0.15398645E+04</pdfrwt>
<totfact> 0.17915443E-01</totfact>
</mgrwt>
</event>
<event>
 4    5  0.7289609E-008  0.8051378E+03  0.7818608E-02  0.9699795E-01
         -2   -1    0    0    0  501 -0.00000000000E+00  0.00000000000E+00  0.36430756487E+03  0.36430756488E+03  0.25500000000E-02 0.  1.
          2   -1    0    0  501    0  0.00000000000E+00 -0.00000000000E+00 -0.17580612044E+04  0.17580612044E+04  0.25500000000E-02 0. -1.
    8880023    1    1    2    0    0  0.45853909290E+03 -0.64641881875E+02 -0.19529255752E+03  0.82848419532E+03  0.65864270000E+03 0.  1.
    8880022    1    1    2    0    0 -0.45853909290E+03  0.64641881875E+02 -0.11984610820E+04  0.12938845740E+04  0.15294330000E+03 0.  0.
<mgrwt>
<rscale>  0 0.71028985E+03</rscale>
<asrwt>0</asrwt>
<pdfrwt beam="1">  1        2 0.27047095E+00 0.80513780E+03</pdfrwt>
<pdfrwt beam="2">  1       -2 0.56047319E-01 0.80513780E+03</pdfrwt>
<totfact> 0.27792611E+01</totfact>
</mgrwt>
</event>
<event>
 4    5  0.7289609E-008  0.8321385E+03  0.7818608E-02  0.9645186E-01
          2   -1    0    0  501    0  0.00000000000E+00  0.00000000000E+00  0.23749625651E+04  0.23749625651E+04  0.25500000000E-02 0. -1.
         -2   -1    0    0    0  501 -0.00000000000E+00 -0.00000000000E+00 -0.60120951410E+03  0.60120951410E+03  0.25500000000E-02 0.  1.
    8880023    1    1    2    0    0 -0.42943963102E+03  0.27244438929E+03 -0.26190440090E+03  0.87238091647E+03  0.65864270000E+03 0.  1.
    8880022    1    1    2    0    0  0.42943963102E+03 -0.27244438929E+03  0.20356574519E+04  0.21037911628E+04  0.15294330000E+03 0.  0.
<mgrwt>
<rscale>  0 0.74376338E+03</rscale>
<asrwt>0</asrwt>
<pdfrwt beam="1">  1        2 0.36537886E+00 0.83213854E+03</pdfrwt>
<pdfrwt beam="2">  1       -2 0.92493771E-01 0.83213854E+03</pdfrwt>
<totfact> 0.42056095E+00</totfact>
</mgrwt>
</event>
<event>
 4    5  0.7289609E-008  0.8031368E+03  0.7818608E-02  0.9704054E-01
          2   -1    0    0  501    0  0.00000000000E+00  0.00000000000E+00  0.55558529636E+03  0.55558529637E+03  0.25500000000E-02 0. -1.
         -2   -1    0    0    0  501 -0.00000000000E+00 -0.00000000000E+00 -0.18463983130E+04  0.18463983130E+04  0.25500000000E-02 0.  1.
    8880023    1    1    2    0    0 -0.60426606177E+02  0.45559544274E+03 -0.16256016429E+04  0.18131766295E+04  0.65864270000E+03 0.  1.
    8880022    1    1    2    0    0  0.60426606177E+02 -0.45559544274E+03  0.33478862629E+03  0.58880697982E+03  0.15294330000E+03 0.  0.
<mgrwt>
<rscale>  0 0.70775921E+03</rscale>
<asrwt>0</asrwt>
<pdfrwt beam="1">  1        2 0.85474662E-01 0.80313684E+03</pdfrwt>
<pdfrwt beam="2">  1       -2 0.28406128E+00 0.80313684E+03</pdfrwt>
<totfact> 0.22279196E+00</totfact>
</mgrwt>
</event>
<event>
 4    5  0.7289609E-008  0.1312610E+04  0.7818608E-02  0.9054746E-01
         -2   -1    0    0    0  501 -0.00000000000E+00  0.00000000000E+00  0.74676581564E+03  0.74676581564E+03  0.25500000000E-02 0.  1.
          2   -1    0    0  501    0  0.00000000000E+00 -0.00000000000E+00 -0.32911844510E+04  0.32911844510E+04  0.25500000000E-02 0. -1.
    8880023    1    1    2    0    0  0.30687789553E+03 -0.10931431373E+04 -0.73865146151E+02  0.13146871215E+04  0.65864270000E+03 0.  0.
    8880022    1    1    2    0    0 -0.30687789553E+03  0.10931431373E+04 -0.24705534893E+04  0.27232631452E+04  0.15294330000E+03 0.  0.
<mgrwt>
<rscale>  0 0.12687190E+04</rscale>
<asrwt>0</asrwt>
<pdfrwt beam="1">  1        2 0.50633606E+00 0.13126104E+04</pdfrwt>
<pdfrwt beam="2">  1       -2 0.11488705E+00 0.13126104E+04</pdfrwt>
<totfact> 0.65308541E-01</totfact>
</mgrwt>
</event>
<event>
 4    5  0.7289609E-008  0.7746155E+03  0.7818608E-02  0.9768641E-01
          2   -1    0    0  501    0  0.00000000000E+00  0.00000000000E+00  0.11388762649E+04  0.11388762649E+04  0.25500000000E-02 0. -1.
         -2   -1    0    0    0  501 -0.00000000000E+00 -0.00000000000E+00 -0.63027655022E+03  0.63027655022E+03  0.25500000000E-02 0.  1.
    8880023    1    1    2    0    0  0.40713330061E+03 -0.21481604885E+02 -0.31604054976E+03  0.83660672910E+03  0.65864270000E+03 0.  1.
    8880022    1    1    2    0    0 -0.40713330061E+03  0.21481604885E+02  0.82464026446E+03  0.93254608605E+03  0.15294330000E+03 0.  0.
<mgrwt>
<rscale>  0 0.67072961E+03</rscale>
<asrwt>0</asrwt>
<pdfrwt beam="1">  1        2 0.17521173E+00 0.77461551E+03</pdfrwt>
<pdfrwt beam="2">  1       -2 0.96965623E-01 0.77461551E+03</pdfrwt>
<totfact> 0.18603736E+01</totfact>
</mgrwt>
</event>
<event>
 4    5  0.7289609E-008  0.1397283E+04  0.7818608E-02  0.8985797E-01
         -2   -1    0    0    0  501 -0.00000000000E+00  0.00000000000E+00  0.84940212873E+03  0.84940212873E+03  0.25500000000E-02 0.  1.
          2   -1    0    0  501    0  0.00000000000E+00 -0.00000000000E+00 -0.27420198696E+04  0.27420198696E+04  0.25500000000E-02 0. -1.
    8880023    1    1    2    0    0 -0.10015182986E+04  0.71801888341E+03 -0.86957637456E+02  0.13999863772E+04  0.65864270000E+03 0. -1.
    8880022    1    1    2    0    0  0.10015182986E+04 -0.71801888341E+03 -0.18056601034E+04  0.21914356211E+04  0.15294330000E+03 0.  0.
<mgrwt>
<rscale>  0 0.13566669E+04</rscale>
<asrwt>0</asrwt>
<pdfrwt beam="1">  1        2 0.42184921E+00 0.13972832E+04</pdfrwt>
<pdfrwt beam="2">  1       -2 0.13067725E+00 0.13972832E+04</pdfrwt>
<totfact> 0.10307495E+00</totfact>
</mgrwt>
</event>
<event>
 4    5  0.7289609E-008  0.7417717E+03  0.7818608E-02  0.9854816E-01
          2   -1    0    0  501    0  0.00000000000E+00  0.00000000000E+00  0.69827534021E+03  0.69827534021E+03  0.25500000000E-02 0. -1.
         -2   -1    0    0    0  501 -0.00000000000E+00 -0.00000000000E+00 -0.11083235860E+04  0.11083235860E+04  0.25500000000E-02 0.  1.
    8880023    1    1    2    0    0 -0.33884422235E+03  0.39996378517E+02 -0.91524072548E+03  0.11780878190E+04  0.65864270000E+03 0.  1.
    8880022    1    1    2    0    0  0.33884422235E+03 -0.39996378517E+02  0.50519247973E+03  0.62851110723E+03  0.15294330000E+03 0.  0.
<mgrwt>
<rscale>  0 0.62501975E+03</rscale>
<asrwt>0</asrwt>
<pdfrwt beam="1">  1        2 0.10742698E+00 0.74177175E+03</pdfrwt>
<pdfrwt beam="2">  1       -2 0.17051132E+00 0.74177175E+03</pdfrwt>
<totfact> 0.88435076E+00</totfact>
</mgrwt>
</event>
<event>
 4    5  0.7289609E-008  0.7559221E+03  0.7818608E-02  0.9815781E-01
          2   -1    0    0  501    0  0.00000000000E+00  0.00000000000E+00  0.79988066963E+03  0.79988066963E+03  0.25500000000E-02 0. -1.
         -2   -1    0    0    0  501 -0.00000000000E+00 -0.00000000000E+00 -0.18912632625E+04  0.18912632625E+04  0.25500000000E-02 0.  1.
    8880023    1    1    2    0    0  0.40006844377E+02  0.36879194830E+03 -0.17576916562E+04  0.19133473844E+04  0.65864270000E+03 0.  1.
    8880022    1    1    2    0    0 -0.40006844377E+02 -0.36879194830E+03  0.66630906336E+03  0.77779654773E+03  0.15294330000E+03 0.  0.
<mgrwt>
<rscale>  0 0.64522461E+03</rscale>
<asrwt>0</asrwt>
<pdfrwt beam="1">  1        2 0.12305857E+00 0.75592212E+03</pdfrwt>
<pdfrwt beam="2">  1       -2 0.29096358E+00 0.75592212E+03</pdfrwt>
<totfact> 0.12942521E+00</totfact>
</mgrwt>
</event>
<event>
 4    5  0.7289609E-008  0.8799297E+03  0.7818608E-02  0.9559051E-01
          2   -1    0    0  501    0  0.00000000000E+00  0.00000000000E+00  0.11978200135E+04  0.11978200135E+04  0.25500000000E-02 0. -1.
         -2   -1    0    0    0  501 -0.00000000000E+00 -0.00000000000E+00 -0.85023590916E+03  0.85023590916E+03  0.25500000000E-02 0.  1.
    8880023    1    1    2    0    0 -0.58204670531E+03  0.41081783237E+02 -0.49669087640E+03  0.10104346159E+04  0.65864270000E+03 0.  1.
    8880022    1    1    2    0    0  0.58204670531E+03 -0.41081783237E+02  0.84427498073E+03  0.10376213067E+04  0.15294330000E+03 0.  0.
<mgrwt>
<rscale>  0 0.80066793E+03</rscale>
<asrwt>0</asrwt>
<pdfrwt beam="1">  1        2 0.18428000E+00 0.87992971E+03</pdfrwt>
<pdfrwt beam="2">  1       -2 0.13080553E+00 0.87992971E+03</pdfrwt>
<totfact> 0.81584406E+00</totfact>
</mgrwt>
</event>
<event>
 4    5  0.7289609E-008  0.6614085E+03  0.7818608E-02  0.1022758E+00
         -2   -1    0    0    0  501 -0.00000000000E+00  0.00000000000E+00  0.11118644440E+04  0.11118644440E+04  0.25500000000E-02 0.  1.
          2   -1    0    0  501    0  0.00000000000E+00 -0.00000000000E+00 -0.18244463003E+04  0.18244463003E+04  0.25500000000E-02 0. -1.
    8880023    1    1    2    0    0  0.32057526922E+00  0.60422334530E+02  0.10092370290E+04  0.12066567649E+04  0.65864270000E+03 0.  1.
    8880022    1    1    2    0    0 -0.32057526922E+00 -0.60422334530E+02 -0.17218188854E+04  0.17296539794E+04  0.15294330000E+03 0.  0.
<mgrwt>
<rscale>  0 0.46704465E+03</rscale>
<asrwt>0</asrwt>
<pdfrwt beam="1">  1        2 0.28068404E+00 0.66140847E+03</pdfrwt>
<pdfrwt beam="2">  1       -2 0.17105607E+00 0.66140847E+03</pdfrwt>
<totfact> 0.18462152E+00</totfact>
</mgrwt>
</event>
<event>
 4    5  0.7289609E-008  0.6710814E+03  0.7818608E-02  0.1014899E+00
         -2   -1    0    0    0  501 -0.00000000000E+00  0.00000000000E+00  0.18408905138E+04  0.18408905138E+04  0.25500000000E-02 0.  1.
          2   -1    0    0  501    0  0.00000000000E+00 -0.00000000000E+00 -0.80824078924E+03  0.80824078924E+03  0.25500000000E-02 0. -1.
    8880023    1    1    2    0    0 -0.10473288154E+03  0.74639278493E+02  0.17659132148E+04  0.18891266995E+04  0.65864270000E+03 0.  1.
    8880022    1    1    2    0    0  0.10473288154E+03 -0.74639278493E+02 -0.73326349019E+03  0.76000460356E+03  0.15294330000E+03 0.  0.
<mgrwt>
<rscale>  0 0.49573096E+03</rscale>
<asrwt>0</asrwt>
<pdfrwt beam="1">  1        2 0.12434474E+00 0.67108137E+03</pdfrwt>
<pdfrwt beam="2">  1       -2 0.28321392E+00 0.67108137E+03</pdfrwt>
<totfact> 0.14430570E+00</totfact>
</mgrwt>
</event>
<event>
 4    5  0.7289609E-008  0.7480894E+03  0.7818608E-02  0.9836980E-01
          2   -1    0    0  501    0  0.00000000000E+00  0.00000000000E+00  0.11836746988E+04  0.11836746988E+04  0.25500000000E-02 0. -1.
         -2   -1    0    0    0  501 -0.00000000000E+00 -0.00000000000E+00 -0.36740317452E+03  0.36740317453E+03  0.25500000000E-02 0.  1.
    8880023    1    1    2    0    0 -0.24920549211E+03  0.25243655022E+03  0.12396180967E+03  0.75829039669E+03  0.65864270000E+03 0.  0.
    8880022    1    1    2    0    0  0.24920549211E+03 -0.25243655022E+03  0.69230971460E+03  0.79278747665E+03  0.15294330000E+03 0.  0.
<mgrwt>
<rscale>  0 0.63415182E+03</rscale>
<asrwt>0</asrwt>
<pdfrwt beam="1">  1        2 0.18210380E+00 0.74808943E+03</pdfrwt>
<pdfrwt beam="2">  1       -2 0.56523566E-01 0.74808943E+03</pdfrwt>
<totfact> 0.57874312E+01</totfact>
</mgrwt>
</event>
<event>
 4    5  0.7289609E-008  0.8672923E+03  0.7818608E-02  0.9580721E-01
         -2   -1    0    0    0  501 -0.00000000000E+00  0.00000000000E+00  0.49725054764E+03  0.49725054765E+03  0.25500000000E-02 0.  1.
          2   -1    0    0  501    0  0.00000000000E+00 -0.00000000000E+00 -0.22503907433E+04  0.22503907433E+04  0.25500000000E-02 0. -1.
    8880023    1    1    2    0    0  0.34970297968E+03  0.44282448402E+03  0.33344014520E+02  0.86793302001E+03  0.65864270000E+03 0.  0.
    8880022    1    1    2    0    0 -0.34970297968E+03 -0.44282448402E+03 -0.17864842102E+04  0.18797082710E+04  0.15294330000E+03 0.  0.
<mgrwt>
<rscale>  0 0.78585428E+03</rscale>
<asrwt>0</asrwt>
<pdfrwt beam="1">  1        2 0.34621396E+00 0.86729228E+03</pdfrwt>
<pdfrwt beam="2">  1       -2 0.76500085E-01 0.86729228E+03</pdfrwt>
<totfact> 0.75654256E+00</totfact>
</mgrwt>
</event>
<event>
 4    5  0.7289609E-008  0.6638604E+03  0.7818608E-02  0.1020509E+00
         -2   -1    0    0    0  501 -0.00000000000E+00  0.00000000000E+00  0.18237183486E+03  0.18237183488E+03  0.25500000000E-02 0.  1.
          2   -1    0    0  501    0  0.00000000000E+00 -0.00000000000E+00 -0.10240029404E+04  0.10240029404E+04  0.25500000000E-02 0. -1.
    8880023    1    1    2    0    0  0.35611896447E+02 -0.75047804186E+02 -0.53016712786E+03  0.84958093776E+03  0.65864270000E+03 0.  0.
    8880022    1    1    2    0    0 -0.35611896447E+02  0.75047804186E+02 -0.31146397769E+03  0.35679383753E+03  0.15294330000E+03 0.  0.
<mgrwt>
<rscale>  0 0.47503281E+03</rscale>
<asrwt>0</asrwt>
<pdfrwt beam="1">  1        2 0.15753891E+00 0.66386037E+03</pdfrwt>
<pdfrwt beam="2">  1       -2 0.28057206E-01 0.66386037E+03</pdfrwt>
<totfact> 0.28592590E+02</totfact>
</mgrwt>
</event>
<event>
 4    5  0.7289609E-008  0.1298017E+04  0.7818608E-02  0.9067275E-01
          2   -1    0    0  501    0  0.00000000000E+00  0.00000000000E+00  0.28559602772E+04  0.28559602772E+04  0.25500000000E-02 0. -1.
         -2   -1    0    0    0  501 -0.00000000000E+00 -0.00000000000E+00 -0.61923013840E+03  0.61923013841E+03  0.25500000000E-02 0.  1.
    8880023    1    1    2    0    0 -0.99664879037E+03 -0.50766944531E+03  0.47380532711E+03  0.13817882513E+04  0.65864270000E+03 0.  0.
    8880022    1    1    2    0    0  0.99664879037E+03  0.50766944531E+03  0.17629248117E+04  0.20934021643E+04  0.15294330000E+03 0.  0.
<mgrwt>
<rscale>  0 0.12535009E+04</rscale>
<asrwt>0</asrwt>
<pdfrwt beam="1">  1        2 0.43937850E+00 0.12980167E+04</pdfrwt>
<pdfrwt beam="2">  1       -2 0.95266176E-01 0.12980167E+04</pdfrwt>
<totfact> 0.19347156E+00</totfact>
</mgrwt>
</event>
<event>
 4    5  0.7289609E-008  0.8520377E+03  0.7818608E-02  0.9607887E-01
          2   -1    0    0  501    0  0.00000000000E+00  0.00000000000E+00  0.80811045786E+03  0.80811045787E+03  0.25500000000E-02 0. -1.
         -2   -1    0    0    0  501 -0.00000000000E+00 -0.00000000000E+00 -0.16512095333E+04  0.16512095333E+04  0.25500000000E-02 0.  1.
    8880023    1    1    2    0    0  0.28945193982E+03  0.45648180101E+03 -0.14187921523E+04  0.16549741502E+04  0.65864270000E+03 0.  1.
    8880022    1    1    2    0    0 -0.28945193982E+03 -0.45648180101E+03  0.57569307687E+03  0.80434584097E+03  0.15294330000E+03 0.  0.
<mgrwt>
<rscale>  0 0.76776372E+03</rscale>
<asrwt>0</asrwt>
<pdfrwt beam="1">  1        2 0.12432469E+00 0.85203771E+03</pdfrwt>
<pdfrwt beam="2">  1       -2 0.25403223E+00 0.85203771E+03</pdfrwt>
<totfact> 0.20980359E+00</totfact>
</mgrwt>
</event>
<event>
 4    5  0.7289609E-008  0.7504491E+03  0.7818608E-02  0.9830492E-01
         -2   -1    0    0    0  501 -0.00000000000E+00  0.00000000000E+00  0.58926402343E+03  0.58926402344E+03  0.25500000000E-02 0.  1.
          2   -1    0    0  501    0  0.00000000000E+00 -0.00000000000E+00 -0.11412625590E+04  0.11412625590E+04  0.25500000000E-02 0. -1.
    8880023    1    1    2    0    0  0.27074274552E+03 -0.23677431496E+03  0.28818861351E+03  0.80388220138E+03  0.65864270000E+03 0.  1.
    8880022    1    1    2    0    0 -0.27074274552E+03  0.23677431496E+03 -0.84018714908E+03  0.92664438107E+03  0.15294330000E+03 0.  0.
<mgrwt>
<rscale>  0 0.63751515E+03</rscale>
<asrwt>0</asrwt>
<pdfrwt beam="1">  1        2 0.17557885E+00 0.75044914E+03</pdfrwt>
<pdfrwt beam="2">  1       -2 0.90656004E-01 0.75044914E+03</pdfrwt>
<totfact> 0.21746390E+01</totfact>
</mgrwt>
</event>
<event>
 4    5  0.7289609E-008  0.7358251E+03  0.7818608E-02  0.9872280E-01
         -2   -1    0    0    0  501 -0.00000000000E+00  0.00000000000E+00  0.83293069054E+03  0.83293069054E+03  0.25500000000E-02 0.  1.
          2   -1    0    0  501    0  0.00000000000E+00 -0.00000000000E+00 -0.11712136386E+04  0.11712136386E+04  0.25500000000E-02 0. -1.
    8880023    1    1    2    0    0  0.17952427654E+03  0.27458939505E+03  0.63109511005E+03  0.96939132755E+03  0.65864270000E+03 0.  1.
    8880022    1    1    2    0    0 -0.17952427654E+03 -0.27458939505E+03 -0.96937805812E+03  0.10347530016E+04  0.15294330000E+03 0.  0.
<mgrwt>
<rscale>  0 0.61623748E+03</rscale>
<asrwt>0</asrwt>
<pdfrwt beam="1">  1        2 0.18018671E+00 0.73582505E+03</pdfrwt>
<pdfrwt beam="2">  1       -2 0.12814318E+00 0.73582505E+03</pdfrwt>
<totfact> 0.90686302E+00</totfact>
</mgrwt>
</event>
<event>
 4    5  0.7289609E-008  0.1219224E+04  0.7818608E-02  0.9138658E-01
         -2   -1    0    0    0  501 -0.00000000000E+00  0.00000000000E+00  0.47554797311E+03  0.47554797312E+03  0.25500000000E-02 0.  1.
          2   -1    0    0  501    0  0.00000000000E+00 -0.00000000000E+00 -0.34381118656E+04  0.34381118656E+04  0.25500000000E-02 0. -1.
    8880023    1    1    2    0    0  0.87974716276E+03 -0.52795952758E+03 -0.65585549365E+03  0.13844323631E+04  0.65864270000E+03 0.  0.
    8880022    1    1    2    0    0 -0.87974716276E+03  0.52795952758E+03 -0.23067083988E+04  0.25292274756E+04  0.15294330000E+03 0.  0.
<mgrwt>
<rscale>  0 0.11709640E+04</rscale>
<asrwt>0</asrwt>
<pdfrwt beam="1">  1        2 0.52894027E+00 0.12192237E+04</pdfrwt>
<pdfrwt beam="2">  1       -2 0.73161229E-01 0.12192237E+04</pdfrwt>
<totfact> 0.15150792E+00</totfact>
</mgrwt>
</event>
<event>
 4    5  0.7289609E-008  0.7856596E+03  0.7818608E-02  0.9742707E-01
          2   -1    0    0  501    0  0.00000000000E+00  0.00000000000E+00  0.22634286375E+04  0.22634286375E+04  0.25500000000E-02 0. -1.
         -2   -1    0    0    0  501 -0.00000000000E+00 -0.00000000000E+00 -0.63743009659E+03  0.63743009660E+03  0.25500000000E-02 0.  1.
    8880023    1    1    2    0    0  0.42798385197E+03 -0.16752884519E+02 -0.35945306628E+03  0.86398353561E+03  0.65864270000E+03 0.  0.
    8880022    1    1    2    0    0 -0.42798385197E+03  0.16752884519E+02  0.19854516072E+04  0.20368751985E+04  0.15294330000E+03 0.  0.
<mgrwt>
<rscale>  0 0.68530010E+03</rscale>
<asrwt>0</asrwt>
<pdfrwt beam="1">  1        2 0.34821979E+00 0.78565962E+03</pdfrwt>
<pdfrwt beam="2">  1       -2 0.98066169E-01 0.78565962E+03</pdfrwt>
<totfact> 0.42646412E+00</totfact>
</mgrwt>
</event>
<event>
 4    5  0.7289609E-008  0.7130650E+03  0.7818608E-02  0.9946791E-01
         -2   -1    0    0    0  501 -0.00000000000E+00  0.00000000000E+00  0.22858353404E+03  0.22858353406E+03  0.25500000000E-02 0.  1.
          2   -1    0    0  501    0  0.00000000000E+00 -0.00000000000E+00 -0.14512769148E+04  0.14512769148E+04  0.25500000000E-02 0. -1.
    8880023    1    1    2    0    0  0.18267222349E+03  0.20318047668E+03 -0.44256842857E+03  0.83924279417E+03  0.65864270000E+03 0.  0.
    8880022    1    1    2    0    0 -0.18267222349E+03 -0.20318047668E+03 -0.78012495220E+03  0.84061765470E+03  0.15294330000E+03 0.  0.
<mgrwt>
<rscale>  0 0.58046222E+03</rscale>
<asrwt>0</asrwt>
<pdfrwt beam="1">  1        2 0.22327337E+00 0.71306497E+03</pdfrwt>
<pdfrwt beam="2">  1       -2 0.35166699E-01 0.71306497E+03</pdfrwt>
<totfact> 0.10482454E+02</totfact>
</mgrwt>
</event>
<event>
 4    5  0.7289609E-008  0.6681712E+03  0.7818608E-02  0.1017009E+00
          2   -1    0    0  501    0  0.00000000000E+00  0.00000000000E+00  0.98895960997E+03  0.98895960997E+03  0.25500000000E-02 0. -1.
         -2   -1    0    0    0  501 -0.00000000000E+00 -0.00000000000E+00 -0.10727183615E+04  0.10727183615E+04  0.25500000000E-02 0.  1.
    8880023    1    1    2    0    0  0.36597067859E+02 -0.10631637334E+03 -0.95748165949E+03  0.11675717756E+04  0.65864270000E+03 0.  1.
    8880022    1    1    2    0    0 -0.36597067859E+02  0.10631637334E+03  0.87372290796E+03  0.89410619589E+03  0.15294330000E+03 0.  0.
<mgrwt>
<rscale>  0 0.48781496E+03</rscale>
<asrwt>0</asrwt>
<pdfrwt beam="1">  1        2 0.15214763E+00 0.66817118E+03</pdfrwt>
<pdfrwt beam="2">  1       -2 0.16503359E+00 0.66817118E+03</pdfrwt>
<totfact> 0.61102197E+00</totfact>
</mgrwt>
</event>
<event>
 4    5  0.7289609E-008  0.1206286E+04  0.7818608E-02  0.9151036E-01
          2   -1    0    0  501    0  0.00000000000E+00  0.00000000000E+00  0.20503830862E+04  0.20503830862E+04  0.25500000000E-02 0. -1.
         -2   -1    0    0    0  501 -0.00000000000E+00 -0.00000000000E+00 -0.10536314603E+04  0.10536314603E+04  0.25500000000E-02 0.  1.
    8880023    1    1    2    0    0 -0.90562616802E+03 -0.44850645980E+03 -0.48817057551E+03  0.13013214506E+04  0.65864270000E+03 0.  0.
    8880022    1    1    2    0    0  0.90562616802E+03  0.44850645980E+03  0.14849222014E+04  0.18026930959E+04  0.15294330000E+03 0.  0.
<mgrwt>
<rscale>  0 0.11573434E+04</rscale>
<asrwt>0</asrwt>
<pdfrwt beam="1">  1        2 0.31544355E+00 0.12062865E+04</pdfrwt>
<pdfrwt beam="2">  1       -2 0.16209715E+00 0.12062865E+04</pdfrwt>
<totfact> 0.14800052E+00</totfact>
</mgrwt>
</event>
<event>
 4    5  0.7289609E-008  0.6610559E+03  0.7818608E-02  0.1023100E+00
         -2   -1    0    0    0  501 -0.00000000000E+00  0.00000000000E+00  0.88588405400E+03  0.88588405401E+03  0.25500000000E-02 0.  1.
          2   -1    0    0  501    0  0.00000000000E+00 -0.00000000000E+00 -0.13496788963E+04  0.13496788963E+04  0.25500000000E-02 0. -1.
    8880023    1    1    2    0    0  0.40090649768E+02 -0.39716186297E+02  0.75638198466E+03  0.10045439506E+04  0.65864270000E+03 0.  1.
    8880022    1    1    2    0    0 -0.40090649768E+02  0.39716186297E+02 -0.12201768269E+04  0.12310189997E+04  0.15294330000E+03 0.  0.
<mgrwt>
<rscale>  0 0.46584389E+03</rscale>
<asrwt>0</asrwt>
<pdfrwt beam="1">  1        2 0.20764291E+00 0.66105585E+03</pdfrwt>
<pdfrwt beam="2">  1       -2 0.13628985E+00 0.66105585E+03</pdfrwt>
<totfact> 0.61749485E+00</totfact>
</mgrwt>
</event>
<event>
 4    5  0.7289609E-008  0.1151409E+04  0.7818608E-02  0.9205867E-01
          2   -1    0    0  501    0  0.00000000000E+00  0.00000000000E+00  0.14712267417E+04  0.14712267417E+04  0.25500000000E-02 0. -1.
         -2   -1    0    0    0  501 -0.00000000000E+00 -0.00000000000E+00 -0.21067989794E+04  0.21067989794E+04  0.25500000000E-02 0.  1.
    8880023    1    1    2    0    0 -0.28536236798E+03 -0.90027830311E+03 -0.17590510504E+04  0.21023804385E+04  0.65864270000E+03 0.  0.
    8880022    1    1    2    0    0  0.28536236798E+03  0.90027830311E+03  0.11234788128E+04  0.14756452826E+04  0.15294330000E+03 0.  0.
<mgrwt>
<rscale>  0 0.10993073E+04</rscale>
<asrwt>0</asrwt>
<pdfrwt beam="1">  1        2 0.22634257E+00 0.11514091E+04</pdfrwt>
<pdfrwt beam="2">  1       -2 0.32412292E+00 0.11514091E+04</pdfrwt>
<totfact> 0.29303771E-01</totfact>
</mgrwt>
</event>
<event>
 4    5  0.7289609E-008  0.9237959E+03  0.7818608E-02  0.9488863E-01
          2   -1    0    0  501    0  0.00000000000E+00  0.00000000000E+00  0.26655914116E+04  0.26655914116E+04  0.25500000000E-02 0. -1.
         -2   -1    0    0    0  501 -0.00000000000E+00 -0.00000000000E+00 -0.31714710170E+03  0.31714710171E+03  0.25500000000E-02 0.  1.
    8880023    1    1    2    0    0  0.32836612562E+03 -0.55835862958E+03  0.57405482900E+03  0.10876294519E+04  0.65864270000E+03 0.  0.
    8880022    1    1    2    0    0 -0.32836612562E+03  0.55835862958E+03  0.17743894809E+04  0.18951090614E+04  0.15294330000E+03 0.  0.
<mgrwt>
<rscale>  0 0.85109900E+03</rscale>
<asrwt>0</asrwt>
<pdfrwt beam="1">  1        2 0.41009101E+00 0.92379591E+03</pdfrwt>
<pdfrwt beam="2">  1       -2 0.48791859E-01 0.92379591E+03</pdfrwt>
<totfact> 0.11355517E+01</totfact>
</mgrwt>
</event>
<event>
 4    5  0.7289609E-008  0.1052739E+04  0.7818608E-02  0.9315596E-01
          2   -1    0    0  501    0  0.00000000000E+00  0.00000000000E+00  0.13012844907E+04  0.13012844907E+04  0.25500000000E-02 0. -1.
         -2   -1    0    0    0  501 -0.00000000000E+00 -0.00000000000E+00 -0.76083186665E+03  0.76083186665E+03  0.25500000000E-02 0.  1.
    8880023    1    1    2    0    0 -0.81332303956E+03  0.11381797410E+03 -0.25564977102E+02  0.10530492259E+04  0.65864270000E+03 0.  1.
    8880022    1    1    2    0    0  0.81332303956E+03 -0.11381797410E+03  0.56601760116E+03  0.10090671314E+04  0.15294330000E+03 0.  0.
<mgrwt>
<rscale>  0 0.99359641E+03</rscale>
<asrwt>0</asrwt>
<pdfrwt beam="1">  1        2 0.20019761E+00 0.10527389E+04</pdfrwt>
<pdfrwt beam="2">  1       -2 0.11705106E+00 0.10527389E+04</pdfrwt>
<totfact> 0.92090456E+00</totfact>
</mgrwt>
</event>
<event>
 4    5  0.7289609E-008  0.8157554E+03  0.7818608E-02  0.9677711E-01
          2   -1    0    0  501    0  0.00000000000E+00  0.00000000000E+00  0.23106018511E+04  0.23106018511E+04  0.25500000000E-02 0. -1.
         -2   -1    0    0    0  501 -0.00000000000E+00 -0.00000000000E+00 -0.41361311934E+03  0.41361311934E+03  0.25500000000E-02 0.  1.
    8880023    1    1    2    0    0 -0.34008926997E+03 -0.34056699837E+03  0.58750527950E+02  0.81786821843E+03  0.65864270000E+03 0.  0.
    8880022    1    1    2    0    0  0.34008926997E+03  0.34056699837E+03  0.18382382038E+04  0.19063467520E+04  0.15294330000E+03 0. -1.
<mgrwt>
<rscale>  0 0.72359509E+03</rscale>
<asrwt>0</asrwt>
<pdfrwt beam="1">  1        2 0.35547721E+00 0.81575535E+03</pdfrwt>
<pdfrwt beam="2">  1       -2 0.63632787E-01 0.81575535E+03</pdfrwt>
<totfact> 0.10552219E+01</totfact>
</mgrwt>
</event>
<event>
 4    5  0.7289609E-008  0.8910926E+03  0.7818608E-02  0.9540485E-01
         -2   -1    0    0    0  501 -0.00000000000E+00  0.00000000000E+00  0.11215532921E+04  0.11215532921E+04  0.25500000000E-02 0.  1.
          2   -1    0    0  501    0  0.00000000000E+00 -0.00000000000E+00 -0.10373749781E+04  0.10373749781E+04  0.25500000000E-02 0. -1.
    8880023    1    1    2    0    0 -0.53272880211E+03 -0.27647032291E+03  0.81037390052E+03  0.12044716190E+04  0.65864270000E+03 0.  1.
    8880022    1    1    2    0    0  0.53272880211E+03  0.27647032291E+03 -0.72619558658E+03  0.95445665120E+03  0.15294330000E+03 0.  0.
<mgrwt>
<rscale>  0 0.81363728E+03</rscale>
<asrwt>0</asrwt>
<pdfrwt beam="1">  1        2 0.15959615E+00 0.89109260E+03</pdfrwt>
<pdfrwt beam="2">  1       -2 0.17254666E+00 0.89109260E+03</pdfrwt>
<totfact> 0.48890904E+00</totfact>
</mgrwt>
</event>
<event>
 4    5  0.7289609E-008  0.8296122E+03  0.7818608E-02  0.9650087E-01
          2   -1    0    0  501    0  0.00000000000E+00  0.00000000000E+00  0.29122675925E+04  0.29122675925E+04  0.25500000000E-02 0. -1.
         -2   -1    0    0    0  501 -0.00000000000E+00 -0.00000000000E+00 -0.10530693089E+04  0.10530693089E+04  0.25500000000E-02 0.  1.
    8880023    1    1    2    0    0 -0.46585042176E+02 -0.50227091981E+03 -0.86034795867E+03  0.11951799276E+04  0.65864270000E+03 0.  0.
    8880022    1    1    2    0    0  0.46585042176E+02  0.50227091981E+03  0.27195462422E+04  0.27701569738E+04  0.15294330000E+03 0.  0.
<mgrwt>
<rscale>  0 0.74067945E+03</rscale>
<asrwt>0</asrwt>
<pdfrwt beam="1">  1        2 0.44804117E+00 0.82961223E+03</pdfrwt>
<pdfrwt beam="2">  1       -2 0.16201066E+00 0.82961223E+03</pdfrwt>
<totfact> 0.50397977E-01</totfact>
</mgrwt>
</event>
<event>
 4    5  0.7289609E-008  0.9705834E+03  0.7818608E-02  0.9421098E-01
          2   -1    0    0  501    0  0.00000000000E+00  0.00000000000E+00  0.82456913822E+03  0.82456913823E+03  0.25500000000E-02 0. -1.
         -2   -1    0    0    0  501 -0.00000000000E+00 -0.00000000000E+00 -0.15336997577E+04  0.15336997577E+04  0.25500000000E-02 0.  1.
    8880023    1    1    2    0    0  0.41426990988E+03  0.58017448566E+03 -0.11510827482E+04  0.15056638707E+04  0.65864270000E+03 0.  1.
    8880022    1    1    2    0    0 -0.41426990988E+03 -0.58017448566E+03  0.44195212869E+03  0.85260502527E+03  0.15294330000E+03 0.  0.
<mgrwt>
<rscale>  0 0.90359573E+03</rscale>
<asrwt>0</asrwt>
<pdfrwt beam="1">  1        2 0.12685679E+00 0.97058343E+03</pdfrwt>
<pdfrwt beam="2">  1       -2 0.23595381E+00 0.97058343E+03</pdfrwt>
<totfact> 0.25938142E+00</totfact>
</mgrwt>
</event>
<event>
 4    5  0.7289609E-008  0.1202202E+04  0.7818608E-02  0.9154985E-01
          2   -1    0    0  501    0  0.00000000000E+00  0.00000000000E+00  0.86994496425E+03  0.86994496426E+03  0.25500000000E-02 0. -1.
         -2   -1    0    0    0  501 -0.00000000000E+00 -0.00000000000E+00 -0.16478694484E+04  0.16478694484E+04  0.25500000000E-02 0.  1.
    8880023    1    1    2    0    0  0.10036471906E+04 -0.64584123611E+02 -0.88798470894E+03  0.14945921991E+04  0.65864270000E+03 0.  0.
    8880022    1    1    2    0    0 -0.10036471906E+04  0.64584123611E+02  0.11006022480E+03  0.10232222135E+04  0.15294330000E+03 0.  0.
<mgrwt>
<rscale>  0 0.11530384E+04</rscale>
<asrwt>0</asrwt>
<pdfrwt beam="1">  1        2 0.13383769E+00 0.12022017E+04</pdfrwt>
<pdfrwt beam="2">  1       -2 0.25351838E+00 0.12022017E+04</pdfrwt>
<totfact> 0.18338934E+00</totfact>
</mgrwt>
</event>
<event>
 4    5  0.7289609E-008  0.9378174E+03  0.7818608E-02  0.9467863E-01
          2   -1    0    0  501    0  0.00000000000E+00  0.00000000000E+00  0.32851404991E+04  0.32851404991E+04  0.25500000000E-02 0. -1.
         -2   -1    0    0    0  501 -0.00000000000E+00 -0.00000000000E+00 -0.20249723796E+03  0.20249723798E+03  0.25500000000E-02 0.  1.
    8880023    1    1    2    0    0  0.65212961258E+03 -0.14289232841E+03  0.16031965775E+04  0.18573477653E+04  0.65864270000E+03 0.  0.
    8880022    1    1    2    0    0 -0.65212961258E+03  0.14289232841E+03  0.14794466837E+04  0.16302899717E+04  0.15294330000E+03 0.  1.
<mgrwt>
<rscale>  0 0.86695172E+03</rscale>
<asrwt>0</asrwt>
<pdfrwt beam="1">  1        2 0.50540623E+00 0.93781739E+03</pdfrwt>
<pdfrwt beam="2">  1       -2 0.31153421E-01 0.93781739E+03</pdfrwt>
<totfact> 0.11312179E+01</totfact>
</mgrwt>
</event>
<event>
 4    5  0.7289609E-008  0.6946484E+03  0.7818608E-02  0.1002017E+00
         -2   -1    0    0    0  501 -0.00000000000E+00  0.00000000000E+00  0.31619619262E+03  0.31619619263E+03  0.25500000000E-02 0.  1.
          2   -1    0    0  501    0  0.00000000000E+00 -0.00000000000E+00 -0.13466200910E+04  0.13466200910E+04  0.25500000000E-02 0. -1.
    8880023    1    1    2    0    0  0.15283420564E+03 -0.15927295075E+03 -0.10911453711E+03  0.70316595177E+03  0.65864270000E+03 0.  1.
    8880022    1    1    2    0    0 -0.15283420564E+03  0.15927295075E+03 -0.92130936127E+03  0.95965033186E+03  0.15294330000E+03 0.  0.
<mgrwt>
<rscale>  0 0.54774585E+03</rscale>
<asrwt>0</asrwt>
<pdfrwt beam="1">  1        2 0.20717232E+00 0.69464838E+03</pdfrwt>
<pdfrwt beam="2">  1       -2 0.48645569E-01 0.69464838E+03</pdfrwt>
<totfact> 0.63668098E+01</totfact>
</mgrwt>
</event>
<event>
 4    5  0.7289609E-008  0.1091512E+04  0.7818608E-02  0.9270565E-01
         -2   -1    0    0    0  501 -0.00000000000E+00  0.00000000000E+00  0.42815380713E+03  0.42815380713E+03  0.25500000000E-02 0.  1.
          2   -1    0    0  501    0  0.00000000000E+00 -0.00000000000E+00 -0.26056100812E+04  0.26056100812E+04  0.25500000000E-02 0. -1.
    8880023    1    1    2    0    0  0.34710687612E+03  0.79818900650E+03 -0.65371998692E+03  0.12723006331E+04  0.65864270000E+03 0.  0.
    8880022    1    1    2    0    0 -0.34710687612E+03 -0.79818900650E+03 -0.15237362871E+04  0.17614632552E+04  0.15294330000E+03 0.  0.
<mgrwt>
<rscale>  0 0.10353841E+04</rscale>
<asrwt>0</asrwt>
<pdfrwt beam="1">  1        2 0.40086308E+00 0.10915123E+04</pdfrwt>
<pdfrwt beam="2">  1       -2 0.65869818E-01 0.10915123E+04</pdfrwt>
<totfact> 0.64199520E+00</totfact>
</mgrwt>
</event>
<event>
 4    5  0.7289609E-008  0.1857079E+04  0.7818608E-02  0.8691603E-01
         -2   -1    0    0    0  501 -0.00000000000E+00  0.00000000000E+00  0.17174978141E+04  0.17174978141E+04  0.25500000000E-02 0.  1.
          2   -1    0    0  501    0  0.00000000000E+00 -0.00000000000E+00 -0.24697689395E+04  0.24697689395E+04  0.25500000000E-02 0. -1.
    8880023    1    1    2    0    0 -0.61324138144E+03  0.16244590534E+04  0.63169799213E+03  0.19615771123E+04  0.65864270000E+03 0.  0.
    8880022    1    1    2    0    0  0.61324138144E+03 -0.16244590534E+04 -0.13839691175E+04  0.22256896413E+04  0.15294330000E+03 0.  0.
<mgrwt>
<rscale>  0 0.18278984E+04</rscale>
<asrwt>0</asrwt>
<pdfrwt beam="1">  1        2 0.37996445E+00 0.18570790E+04</pdfrwt>
<pdfrwt beam="2">  1       -2 0.26423043E+00 0.18570790E+04</pdfrwt>
<totfact> 0.17169622E-01</totfact>
</mgrwt>
</event>
<event>
 4    5  0.7289609E-008  0.9982025E+03  0.7818608E-02  0.9383913E-01
          2   -1    0    0  501    0  0.00000000000E+00  0.00000000000E+00  0.16003125423E+04  0.16003125423E+04  0.25500000000E-02 0. -1.
         -2   -1    0    0    0  501 -0.00000000000E+00 -0.00000000000E+00 -0.15211955854E+04  0.15211955854E+04  0.25500000000E-02 0.  1.
    8880023    1    1    2    0    0 -0.74185936082E+03  0.11064667797E+03 -0.12427419212E+04  0.15939936285E+04  0.65864270000E+03 0.  0.
    8880022    1    1    2    0    0  0.74185936082E+03 -0.11064667797E+03  0.13218588781E+04  0.15275144992E+04  0.15294330000E+03 0.  0.
<mgrwt>
<rscale>  0 0.93411475E+03</rscale>
<asrwt>0</asrwt>
<pdfrwt beam="1">  1        2 0.24620193E+00 0.99820249E+03</pdfrwt>
<pdfrwt beam="2">  1       -2 0.23403009E+00 0.99820249E+03</pdfrwt>
<totfact> 0.89709147E-01</totfact>
</mgrwt>
</event>
<event>
 4    5  0.7289609E-008  0.1296141E+04  0.7818608E-02  0.9068899E-01
          2   -1    0    0  501    0  0.00000000000E+00  0.00000000000E+00  0.26508586078E+04  0.26508586078E+04  0.25500000000E-02 0. -1.
         -2   -1    0    0    0  501 -0.00000000000E+00 -0.00000000000E+00 -0.66678715921E+03  0.66678715922E+03  0.25500000000E-02 0.  1.
    8880023    1    1    2    0    0 -0.93339499879E+03  0.61232863292E+03  0.17315848243E+04  0.21629537185E+04  0.65864270000E+03 0.  0.
    8880022    1    1    2    0    0  0.93339499879E+03 -0.61232863292E+03  0.25248662431E+03  0.11546920485E+04  0.15294330000E+03 0.  0.
<mgrwt>
<rscale>  0 0.12515441E+04</rscale>
<asrwt>0</asrwt>
<pdfrwt beam="1">  1        2 0.40782440E+00 0.12961415E+04</pdfrwt>
<pdfrwt beam="2">  1       -2 0.10258264E+00 0.12961415E+04</pdfrwt>
<totfact> 0.21501293E+00</totfact>
</mgrwt>
</event>
<event>
 4    5  0.7289609E-008  0.6643753E+03  0.7818608E-02  0.1020063E+00
          2   -1    0    0  501    0  0.00000000000E+00  0.00000000000E+00  0.23760693308E+04  0.23760693308E+04  0.25500000000E-02 0. -1.
         -2   -1    0    0    0  501 -0.00000000000E+00 -0.00000000000E+00 -0.25342783885E+03  0.25342783886E+03  0.25500000000E-02 0.  1.
    8880023    1    1    2    0    0 -0.16121344507E+02  0.85583149449E+02  0.19299272564E+03  0.69183868902E+03  0.65864270000E+03 0.  1.
    8880022    1    1    2    0    0  0.16121344507E+02 -0.85583149449E+02  0.19296487663E+04  0.19376584806E+04  0.15294330000E+03 0.  0.
<mgrwt>
<rscale>  0 0.47663764E+03</rscale>
<asrwt>0</asrwt>
<pdfrwt beam="1">  1        2 0.36554912E+00 0.66437533E+03</pdfrwt>
<pdfrwt beam="2">  1       -2 0.38988899E-01 0.66437533E+03</pdfrwt>
<totfact> 0.26914576E+01</totfact>
</mgrwt>
</event>
<event>
 4    5  0.1341092E-007  0.7387828E+03  0.7818608E-02  0.9863507E-01
          2   -1    0    0  501    0  0.00000000000E+00  0.00000000000E+00  0.29481822362E+04  0.29481822362E+04  0.25500000000E-02 0. -1.
         -2   -1    0    0    0  501 -0.00000000000E+00 -0.00000000000E+00 -0.17506721920E+04  0.17506721920E+04  0.25500000000E-02 0.  1.
    8880023    1    1    2    0    0 -0.39175053132E+02 -0.33234794340E+03 -0.16604080581E+04  0.18173483337E+04  0.65864270000E+03 0.  1.
    8880022    1    1    2    0    0  0.39175053132E+02  0.33234794340E+03  0.28579181023E+04  0.28815060945E+04  0.15294330000E+03 0.  0.
<mgrwt>
<rscale>  0 0.62062962E+03</rscale>
<asrwt>0</asrwt>
<pdfrwt beam="1">  1        2 0.45356650E+00 0.73878281E+03</pdfrwt>
<pdfrwt beam="2">  1       -2 0.26933418E+00 0.73878281E+03</pdfrwt>
<totfact> 0.10026959E-01</totfact>
</mgrwt>
</event>
<event>
 4    5  0.7289609E-008  0.7383772E+03  0.7818608E-02  0.9864700E-01
         -2   -1    0    0    0  501 -0.00000000000E+00  0.00000000000E+00  0.19524285336E+03  0.19524285337E+03  0.25500000000E-02 0.  1.
          2   -1    0    0  501    0  0.00000000000E+00 -0.00000000000E+00 -0.23355452262E+04  0.23355452262E+04  0.25500000000E-02 0. -1.
    8880023    1    1    2    0    0 -0.17383637320E+03 -0.28490623683E+03 -0.61207361501E+03  0.95908027031E+03  0.65864270000E+03 0.  0.
    8880022    1    1    2    0    0  0.17383637320E+03  0.28490623683E+03 -0.15282287579E+04  0.15717078093E+04  0.15294330000E+03 0.  0.
<mgrwt>
<rscale>  0 0.62003015E+03</rscale>
<asrwt>0</asrwt>
<pdfrwt beam="1">  1        2 0.35931463E+00 0.73837718E+03</pdfrwt>
<pdfrwt beam="2">  1       -2 0.30037364E-01 0.73837718E+03</pdfrwt>
<totfact> 0.45978151E+01</totfact>
</mgrwt>
</event>
<event>
 4    5  0.7289609E-008  0.7203370E+03  0.7818608E-02  0.9921447E-01
          2   -1    0    0  501    0  0.00000000000E+00  0.00000000000E+00  0.24421073827E+04  0.24421073827E+04  0.25500000000E-02 0. -1.
         -2   -1    0    0    0  501 -0.00000000000E+00 -0.00000000000E+00 -0.37110415452E+03  0.37110415453E+03  0.25500000000E-02 0.  1.
    8880023    1    1    2    0    0  0.13346521702E+02  0.29137087449E+03  0.42169302423E+01  0.72034929368E+03  0.65864270000E+03 0.  1.
    8880022    1    1    2    0    0 -0.13346521702E+02 -0.29137087449E+03  0.20667862979E+04  0.20928622436E+04  0.15294330000E+03 0.  0.
<mgrwt>
<rscale>  0 0.59233018E+03</rscale>
<asrwt>0</asrwt>
<pdfrwt beam="1">  1        2 0.37570881E+00 0.72033695E+03</pdfrwt>
<pdfrwt beam="2">  1       -2 0.57092950E-01 0.72033695E+03</pdfrwt>
<totfact> 0.11371078E+01</totfact>
</mgrwt>
</event>
<event>
 4    5  0.7289609E-008  0.1168470E+04  0.7818608E-02  0.9188398E-01
          2   -1    0    0  501    0  0.00000000000E+00  0.00000000000E+00  0.13329241792E+04  0.13329241792E+04  0.25500000000E-02 0. -1.
         -2   -1    0    0    0  501 -0.00000000000E+00 -0.00000000000E+00 -0.15702241579E+04  0.15702241579E+04  0.25500000000E-02 0.  1.
    8880023    1    1    2    0    0 -0.69823144910E+03 -0.66632158287E+03 -0.10961742020E+04  0.16021609456E+04  0.65864270000E+03 0.  0.
    8880022    1    1    2    0    0  0.69823144910E+03  0.66632158287E+03  0.85887422332E+03  0.13009873915E+04  0.15294330000E+03 0.  0.
<mgrwt>
<rscale>  0 0.11173984E+04</rscale>
<asrwt>0</asrwt>
<pdfrwt beam="1">  1        2 0.20506526E+00 0.11684699E+04</pdfrwt>
<pdfrwt beam="2">  1       -2 0.24157295E+00 0.11684699E+04</pdfrwt>
<totfact> 0.11172789E+00</totfact>
</mgrwt>
</event>
<event>
 4    5  0.7289609E-008  0.1107885E+04  0.7818608E-02  0.9252327E-01
          2   -1    0    0  501    0  0.00000000000E+00  0.00000000000E+00  0.47825904347E+03  0.47825904347E+03  0.25500000000E-02 0. -1.
         -2   -1    0    0    0  501 -0.00000000000E+00 -0.00000000000E+00 -0.23779419654E+04  0.23779419654E+04  0.25500000000E-02 0.  1.
    8880023    1    1    2    0    0  0.79179288080E+03 -0.40824408484E+03 -0.56335026669E+03  0.12428889444E+04  0.65864270000E+03 0.  0.
    8880022    1    1    2    0    0 -0.79179288080E+03  0.40824408484E+03 -0.13363326553E+04  0.16133120645E+04  0.15294330000E+03 0.  0.
<mgrwt>
<rscale>  0 0.10529268E+04</rscale>
<asrwt>0</asrwt>
<pdfrwt beam="1">  1        2 0.73578316E-01 0.11078851E+04</pdfrwt>
<pdfrwt beam="2">  1       -2 0.36583722E+00 0.11078851E+04</pdfrwt>
<totfact> 0.80290649E-01</totfact>
</mgrwt>
</event>
<event>
 4    5  0.7289609E-008  0.9820096E+03  0.7818608E-02  0.9405482E-01
          2   -1    0    0  501    0  0.00000000000E+00  0.00000000000E+00  0.11487826671E+04  0.11487826671E+04  0.25500000000E-02 0. -1.
         -2   -1    0    0    0  501 -0.00000000000E+00 -0.00000000000E+00 -0.22525230524E+04  0.22525230524E+04  0.25500000000E-02 0.  1.
    8880023    1    1    2    0    0 -0.43334611415E+03 -0.58544329482E+03 -0.20049360273E+04  0.22325123484E+04  0.65864270000E+03 0.  0.
    8880022    1    1    2    0    0  0.43334611415E+03  0.58544329482E+03  0.90119564196E+03  0.11687933710E+04  0.15294330000E+03 0.  0.
<mgrwt>
<rscale>  0 0.91625871E+03</rscale>
<asrwt>0</asrwt>
<pdfrwt beam="1">  1        2 0.17673580E+00 0.98200963E+03</pdfrwt>
<pdfrwt beam="2">  1       -2 0.34654201E+00 0.98200963E+03</pdfrwt>
<totfact> 0.33731961E-01</totfact>
</mgrwt>
</event>
<event>
 4    5  0.7289609E-008  0.1367290E+04  0.7818608E-02  0.9009526E-01
         -2   -1    0    0    0  501 -0.00000000000E+00  0.00000000000E+00  0.11015182445E+04  0.11015182445E+04  0.25500000000E-02 0.  1.
          2   -1    0    0  501    0  0.00000000000E+00 -0.00000000000E+00 -0.18018944110E+04  0.18018944110E+04  0.25500000000E-02 0. -1.
    8880023    1    1    2    0    0 -0.10599044865E+04 -0.55881406326E+03  0.21991376373E+03  0.13848620681E+04  0.65864270000E+03 0.  0.
    8880022    1    1    2    0    0  0.10599044865E+04  0.55881406326E+03 -0.92028993022E+03  0.15185505874E+04  0.15294330000E+03 0.  0.
<mgrwt>
<rscale>  0 0.13255760E+04</rscale>
<asrwt>0</asrwt>
<pdfrwt beam="1">  1        2 0.27721452E+00 0.13672896E+04</pdfrwt>
<pdfrwt beam="2">  1       -2 0.16946435E+00 0.13672896E+04</pdfrwt>
<totfact> 0.17666796E+00</totfact>
</mgrwt>
</event>
<event>
 4    5  0.7289609E-008  0.8884124E+03  0.7818608E-02  0.9544895E-01
          2   -1    0    0  501    0  0.00000000000E+00  0.00000000000E+00  0.29324509945E+04  0.29324509945E+04  0.25500000000E-02 0. -1.
         -2   -1    0    0    0  501 -0.00000000000E+00 -0.00000000000E+00 -0.57548842820E+03  0.57548842820E+03  0.25500000000E-02 0.  1.
    8880023    1    1    2    0    0 -0.15542712300E+03  0.57559431821E+03 -0.17220778659E+03  0.90494869343E+03  0.65864270000E+03 0.  1.
    8880022    1    1    2    0    0  0.15542712300E+03 -0.57559431821E+03  0.25291703529E+04  0.26029907292E+04  0.15294330000E+03 0.  0.
<mgrwt>
<rscale>  0 0.81053268E+03</rscale>
<asrwt>0</asrwt>
<pdfrwt beam="1">  1        2 0.45114630E+00 0.88841241E+03</pdfrwt>
<pdfrwt beam="2">  1       -2 0.88536682E-01 0.88841241E+03</pdfrwt>
<totfact> 0.21843347E+00</totfact>
</mgrwt>
</event>
<event>
 4    5  0.7289609E-008  0.7083456E+03  0.7818608E-02  0.9964196E-01
         -2   -1    0    0    0  501 -0.00000000000E+00  0.00000000000E+00  0.14369263933E+04  0.14369263933E+04  0.25500000000E-02 0.  1.
          2   -1    0    0  501    0  0.00000000000E+00 -0.00000000000E+00 -0.59970419714E+03  0.59970419714E+03  0.25500000000E-02 0. -1.
    8880023    1    1    2    0    0  0.22007971782E+03 -0.13967189584E+03  0.13020129650E+04  0.14822251138E+04  0.65864270000E+03 0.  1.
    8880022    1    1    2    0    0 -0.22007971782E+03  0.13967189584E+03 -0.46479076886E+03  0.55440547663E+03  0.15294330000E+03 0.  0.
<mgrwt>
<rscale>  0 0.57248426E+03</rscale>
<asrwt>0</asrwt>
<pdfrwt beam="1">  1        2 0.92262185E-01 0.70834563E+03</pdfrwt>
<pdfrwt beam="2">  1       -2 0.22106560E+00 0.70834563E+03</pdfrwt>
<totfact> 0.49715602E+00</totfact>
</mgrwt>
</event>
<event>
 4    5  0.7289609E-008  0.1042782E+04  0.7818608E-02  0.9327609E-01
          2   -1    0    0  501    0  0.00000000000E+00  0.00000000000E+00  0.14277456343E+04  0.14277456343E+04  0.25500000000E-02 0. -1.
         -2   -1    0    0    0  501 -0.00000000000E+00 -0.00000000000E+00 -0.72739733100E+03  0.72739733101E+03  0.25500000000E-02 0.  1.
    8880023    1    1    2    0    0  0.66541448696E+03  0.45913875901E+03 -0.46677603798E+02  0.10438265394E+04  0.65864270000E+03 0.  1.
    8880022    1    1    2    0    0 -0.66541448696E+03 -0.45913875901E+03  0.74702590707E+03  0.11113164258E+04  0.15294330000E+03 0.  0.
<mgrwt>
<rscale>  0 0.98280409E+03</rscale>
<asrwt>0</asrwt>
<pdfrwt beam="1">  1        2 0.21965317E+00 0.10427824E+04</pdfrwt>
<pdfrwt beam="2">  1       -2 0.11190728E+00 0.10427824E+04</pdfrwt>
<totfact> 0.87032743E+00</totfact>
</mgrwt>
</event>
<event>
 4    5  0.7289609E-008  0.1484938E+04  0.7818608E-02  0.8920346E-01
         -2   -1    0    0    0  501 -0.00000000000E+00  0.00000000000E+00  0.14531990227E+04  0.14531990227E+04  0.25500000000E-02 0.  1.
          2   -1    0    0  501    0  0.00000000000E+00 -0.00000000000E+00 -0.16939311068E+04  0.16939311068E+04  0.25500000000E-02 0. -1.
    8880023    1    1    2    0    0  0.13266572991E+04 -0.10587776636E+03  0.55931258830E+03  0.15867799054E+04  0.65864270000E+03 0. -1.
    8880022    1    1    2    0    0 -0.13266572991E+04  0.10587776636E+03 -0.80004467242E+03  0.15603502240E+04  0.15294330000E+03 0.  0.
<mgrwt>
<rscale>  0 0.14471974E+04</rscale>
<asrwt>0</asrwt>
<pdfrwt beam="1">  1        2 0.26060479E+00 0.14849377E+04</pdfrwt>
<pdfrwt beam="2">  1       -2 0.22356908E+00 0.14849377E+04</pdfrwt>
<totfact> 0.87257691E-01</totfact>
</mgrwt>
</event>
<event>
 4    5  0.7289609E-008  0.1558592E+04  0.7818608E-02  0.8869333E-01
          2   -1    0    0  501    0  0.00000000000E+00  0.00000000000E+00  0.26278228401E+04  0.26278228401E+04  0.25500000000E-02 0. -1.
         -2   -1    0    0    0  501 -0.00000000000E+00 -0.00000000000E+00 -0.89884894749E+03  0.89884894750E+03  0.25500000000E-02 0.  1.
    8880023    1    1    2    0    0  0.11567226075E+04 -0.81079622695E+03  0.13351134865E+04  0.20522514320E+04  0.65864270000E+03 0.  0.
    8880022    1    1    2    0    0 -0.11567226075E+04  0.81079622695E+03  0.39386040617E+03  0.14744203556E+04  0.15294330000E+03 0.  0.
<mgrwt>
<rscale>  0 0.15229500E+04</rscale>
<asrwt>0</asrwt>
<pdfrwt beam="1">  1        2 0.40428044E+00 0.15585916E+04</pdfrwt>
<pdfrwt beam="2">  1       -2 0.13828445E+00 0.15585916E+04</pdfrwt>
<totfact> 0.10233018E+00</totfact>
</mgrwt>
</event>
<event>
 4    5  0.7289609E-008  0.7264853E+03  0.7818608E-02  0.9901223E-01
          2   -1    0    0  501    0  0.00000000000E+00  0.00000000000E+00  0.97522628305E+03  0.97522628305E+03  0.25500000000E-02 0. -1.
         -2   -1    0    0    0  501 -0.00000000000E+00 -0.00000000000E+00 -0.15097615922E+04  0.15097615922E+04  0.25500000000E-02 0.  1.
    8880023    1    1    2    0    0  0.14960227667E+03  0.26756286776E+03 -0.13872859990E+04  0.15659959702E+04  0.65864270000E+03 0.  1.
    8880022    1    1    2    0    0 -0.14960227667E+03 -0.26756286776E+03  0.85275068989E+03  0.91899190503E+03  0.15294330000E+03 0.  0.
<mgrwt>
<rscale>  0 0.60202046E+03</rscale>
<asrwt>0</asrwt>
<pdfrwt beam="1">  1        2 0.15003481E+00 0.72648533E+03</pdfrwt>
<pdfrwt beam="2">  1       -2 0.23227102E+00 0.72648533E+03</pdfrwt>
<totfact> 0.22357208E+00</totfact>
</mgrwt>
</event>
<event>
 4    5  0.7289609E-008  0.7739305E+03  0.7818608E-02  0.9770292E-01
          2   -1    0    0  501    0  0.00000000000E+00  0.00000000000E+00  0.78734047251E+03  0.78734047251E+03  0.25500000000E-02 0. -1.
         -2   -1    0    0    0  501 -0.00000000000E+00 -0.00000000000E+00 -0.92466170654E+03  0.92466170655E+03  0.25500000000E-02 0.  1.
    8880023    1    1    2    0    0  0.25292010650E+02 -0.40560881239E+03 -0.67077578564E+03  0.10241623677E+04  0.65864270000E+03 0.  1.
    8880022    1    1    2    0    0 -0.25292010650E+02  0.40560881239E+03  0.53345455161E+03  0.68783981139E+03  0.15294330000E+03 0.  0.
<mgrwt>
<rscale>  0 0.66981480E+03</rscale>
<asrwt>0</asrwt>
<pdfrwt beam="1">  1        2 0.12112930E+00 0.77393049E+03</pdfrwt>
<pdfrwt beam="2">  1       -2 0.14225565E+00 0.77393049E+03</pdfrwt>
<totfact> 0.12278231E+01</totfact>
</mgrwt>
</event>
<event>
 4    5  0.7289609E-008  0.9974705E+03  0.7818608E-02  0.9384874E-01
         -2   -1    0    0    0  501 -0.00000000000E+00  0.00000000000E+00  0.23118782274E+03  0.23118782275E+03  0.25500000000E-02 0.  1.
          2   -1    0    0  501    0  0.00000000000E+00 -0.00000000000E+00 -0.35195204691E+04  0.35195204691E+04  0.25500000000E-02 0. -1.
    8880023    1    1    2    0    0 -0.46879986513E+03 -0.58426360213E+03 -0.22507054071E+04  0.24618331191E+04  0.65864270000E+03 0. -1.
    8880022    1    1    2    0    0  0.46879986513E+03  0.58426360213E+03 -0.10376272392E+04  0.12888751727E+04  0.15294330000E+03 0.  1.
<mgrwt>
<rscale>  0 0.93330976E+03</rscale>
<asrwt>0</asrwt>
<pdfrwt beam="1">  1        2 0.54146465E+00 0.99747054E+03</pdfrwt>
<pdfrwt beam="2">  1       -2 0.35567360E-01 0.99747054E+03</pdfrwt>
<totfact> 0.60723285E+00</totfact>
</mgrwt>
</event>
<event>
 4    5  0.7289609E-008  0.8058092E+03  0.7818608E-02  0.9698373E-01
         -2   -1    0    0    0  501 -0.00000000000E+00  0.00000000000E+00  0.11091148082E+04  0.11091148082E+04  0.25500000000E-02 0.  1.
          2   -1    0    0  501    0  0.00000000000E+00 -0.00000000000E+00 -0.14421701620E+04  0.14421701620E+04  0.25500000000E-02 0. -1.
    8880023    1    1    2    0    0  0.20038890883E+02  0.46380673484E+03  0.91005303800E+03  0.12155348546E+04  0.65864270000E+03 0.  1.
    8880022    1    1    2    0    0 -0.20038890883E+02 -0.46380673484E+03 -0.12431083918E+04  0.13357501156E+04  0.15294330000E+03 0.  0.
<mgrwt>
<rscale>  0 0.71113725E+03</rscale>
<asrwt>0</asrwt>
<pdfrwt beam="1">  1        2 0.22187233E+00 0.80580919E+03</pdfrwt>
<pdfrwt beam="2">  1       -2 0.17063305E+00 0.80580919E+03</pdfrwt>
<totfact> 0.29409230E+00</totfact>
</mgrwt>
</event>
<event>
 4    5  0.7289609E-008  0.6696483E+03  0.7818608E-02  0.1015916E+00
          2   -1    0    0  501    0  0.00000000000E+00  0.00000000000E+00  0.16885565404E+03  0.16885565406E+03  0.25500000000E-02 0. -1.
         -2   -1    0    0    0  501 -0.00000000000E+00 -0.00000000000E+00 -0.13192525691E+04  0.13192525691E+04  0.25500000000E-02 0.  1.
    8880023    1    1    2    0    0  0.12090654365E+03  0.49981743760E+00 -0.10982280772E+04  0.12862868101E+04  0.65864270000E+03 0.  1.
    8880022    1    1    2    0    0 -0.12090654365E+03 -0.49981743760E+00 -0.52168837915E+02  0.20182141308E+03  0.15294330000E+03 0.  0.
<mgrwt>
<rscale>  0 0.49189537E+03</rscale>
<asrwt>0</asrwt>
<pdfrwt beam="1">  1        2 0.25977794E-01 0.66964830E+03</pdfrwt>
<pdfrwt beam="2">  1       -2 0.20296193E+00 0.66964830E+03</pdfrwt>
<totfact> 0.27288584E+01</totfact>
</mgrwt>
</event>
<event>
 4    5  0.7289609E-008  0.1280281E+04  0.7818608E-02  0.9082778E-01
         -2   -1    0    0    0  501 -0.00000000000E+00  0.00000000000E+00  0.10826691372E+04  0.10826691372E+04  0.25500000000E-02 0.  1.
          2   -1    0    0  501    0  0.00000000000E+00 -0.00000000000E+00 -0.17191497992E+04  0.17191497993E+04  0.25500000000E-02 0. -1.
    8880023    1    1    2    0    0  0.64963230720E+03  0.88503470804E+03  0.33992245690E+03  0.13246380834E+04  0.65864270000E+03 0.  1.
    8880022    1    1    2    0    0 -0.64963230720E+03 -0.88503470804E+03 -0.97640311894E+03  0.14771808531E+04  0.15294330000E+03 0.  0.
<mgrwt>
<rscale>  0 0.12349792E+04</rscale>
<asrwt>0</asrwt>
<pdfrwt beam="1">  1        2 0.26448458E+00 0.12802807E+04</pdfrwt>
<pdfrwt beam="2">  1       -2 0.16656448E+00 0.12802807E+04</pdfrwt>
<totfact> 0.20786368E+00</totfact>
</mgrwt>
</event>
<event>
 4    5  0.7289609E-008  0.1017401E+04  0.7818608E-02  0.9359138E-01
         -2   -1    0    0    0  501 -0.00000000000E+00  0.00000000000E+00  0.40634967460E+03  0.40634967461E+03  0.25500000000E-02 0.  1.
          2   -1    0    0  501    0  0.00000000000E+00 -0.00000000000E+00 -0.23510988061E+04  0.23510988061E+04  0.25500000000E-02 0. -1.
    8880023    1    1    2    0    0  0.28197421993E+03 -0.72234636887E+03 -0.55567410473E+03  0.11592573719E+04  0.65864270000E+03 0.  0.
    8880022    1    1    2    0    0 -0.28197421993E+03  0.72234636887E+03 -0.13890750268E+04  0.15981911088E+04  0.15294330000E+03 0.  0.
<mgrwt>
<rscale>  0 0.95516116E+03</rscale>
<asrwt>0</asrwt>
<pdfrwt beam="1">  1        2 0.36170750E+00 0.10174006E+04</pdfrwt>
<pdfrwt beam="2">  1       -2 0.62515336E-01 0.10174006E+04</pdfrwt>
<totfact> 0.10131520E+01</totfact>
</mgrwt>
</event>
<event>
 4    5  0.7289609E-008  0.7001390E+03  0.7818608E-02  0.9996625E-01
          2   -1    0    0  501    0  0.00000000000E+00  0.00000000000E+00  0.31270321423E+04  0.31270321423E+04  0.25500000000E-02 0. -1.
         -2   -1    0    0    0  501 -0.00000000000E+00 -0.00000000000E+00 -0.43631357700E+03  0.43631357701E+03  0.25500000000E-02 0.  1.
    8880023    1    1    2    0    0  0.23557213523E+03  0.29836942837E+02 -0.14382990259E+03  0.71475990458E+03  0.65864270000E+03 0.  1.
    8880022    1    1    2    0    0 -0.23557213523E+03 -0.29836942837E+02  0.28345484679E+04  0.28485858147E+04  0.15294330000E+03 0.  0.
<mgrwt>
<rscale>  0 0.55798476E+03</rscale>
<asrwt>0</asrwt>
<pdfrwt beam="1">  1        2 0.48108187E+00 0.70013904E+03</pdfrwt>
<pdfrwt beam="2">  1       -2 0.67125166E-01 0.70013904E+03</pdfrwt>
<totfact> 0.31894746E+00</totfact>
</mgrwt>
</event>
<event>
 4    5  0.7289609E-008  0.1305154E+04  0.7818608E-02  0.9061121E-01
         -2   -1    0    0    0  501 -0.00000000000E+00  0.00000000000E+00  0.12060630519E+04  0.12060630519E+04  0.25500000000E-02 0.  1.
          2   -1    0    0  501    0  0.00000000000E+00 -0.00000000000E+00 -0.19691281664E+04  0.19691281664E+04  0.25500000000E-02 0. -1.
    8880023    1    1    2    0    0 -0.69865633667E+03  0.88402337363E+03  0.56899637597E+03  0.14237925003E+04  0.65864270000E+03 0.  0.
    8880022    1    1    2    0    0  0.69865633667E+03 -0.88402337363E+03 -0.13320614904E+04  0.17513987179E+04  0.15294330000E+03 0.  0.
<mgrwt>
<rscale>  0 0.12609465E+04</rscale>
<asrwt>0</asrwt>
<pdfrwt beam="1">  1        2 0.30294280E+00 0.13051545E+04</pdfrwt>
<pdfrwt beam="2">  1       -2 0.18554816E+00 0.13051545E+04</pdfrwt>
<totfact> 0.11080383E+00</totfact>
</mgrwt>
</event>
<event>
 4    5  0.7289609E-008  0.8234726E+03  0.7818608E-02  0.9662169E-01
          2   -1    0    0  501    0  0.00000000000E+00  0.00000000000E+00  0.30007682652E+04  0.30007682652E+04  0.25500000000E-02 0. -1.
         -2   -1    0    0    0  501 -0.00000000000E+00 -0.00000000000E+00 -0.44984149632E+03  0.44984149633E+03  0.25500000000E-02 0.  1.
    8880023    1    1    2    0    0  0.46465063978E+03  0.16851305497E+03 -0.24391425104E+02  0.82383372996E+03  0.65864270000E+03 0.  1.
    8880022    1    1    2    0    0 -0.46465063978E+03 -0.16851305497E+03  0.25753181940E+04  0.26267760316E+04  0.15294330000E+03 0.  0.
<mgrwt>
<rscale>  0 0.73314617E+03</rscale>
<asrwt>0</asrwt>
<pdfrwt beam="1">  1        2 0.46165666E+00 0.82347257E+03</pdfrwt>
<pdfrwt beam="2">  1       -2 0.69206384E-01 0.82347257E+03</pdfrwt>
<totfact> 0.34870286E+00</totfact>
</mgrwt>
</event>
<event>
 4    5  0.7289609E-008  0.6822651E+03  0.7818608E-02  0.1008070E+00
         -2   -1    0    0    0  501 -0.00000000000E+00  0.00000000000E+00  0.41814280946E+03  0.41814280946E+03  0.25500000000E-02 0.  1.
          2   -1    0    0  501    0  0.00000000000E+00 -0.00000000000E+00 -0.89754418333E+03  0.89754418334E+03  0.25500000000E-02 0. -1.
    8880023    1    1    2    0    0  0.17728292705E+03  0.15693588314E+02  0.10094509123E+03  0.68969242612E+03  0.65864270000E+03 0.  1.
    8880022    1    1    2    0    0 -0.17728292705E+03 -0.15693588314E+02 -0.58034646511E+03  0.62599456668E+03  0.15294330000E+03 0.  0.
<mgrwt>
<rscale>  0 0.52248821E+03</rscale>
<asrwt>0</asrwt>
<pdfrwt beam="1">  1        2 0.13808372E+00 0.68226515E+03</pdfrwt>
<pdfrwt beam="2">  1       -2 0.64329663E-01 0.68226515E+03</pdfrwt>
<totfact> 0.66993434E+01</totfact>
</mgrwt>
</event>
<event>
 4    5  0.7289609E-008  0.8284456E+03  0.7818608E-02  0.9652364E-01
          2   -1    0    0  501    0  0.00000000000E+00  0.00000000000E+00  0.13025849094E+04  0.13025849094E+04  0.25500000000E-02 0. -1.
         -2   -1    0    0    0  501 -0.00000000000E+00 -0.00000000000E+00 -0.83415048853E+03  0.83415048853E+03  0.25500000000E-02 0.  1.
    8880023    1    1    2    0    0 -0.40552593473E+03 -0.29675002857E+03 -0.54752144710E+03  0.99302658801E+03  0.65864270000E+03 0.  1.
    8880022    1    1    2    0    0  0.40552593473E+03  0.29675002857E+03  0.10159558679E+04  0.11437088099E+04  0.15294330000E+03 0.  0.
<mgrwt>
<rscale>  0 0.73925223E+03</rscale>
<asrwt>0</asrwt>
<pdfrwt beam="1">  1        2 0.20039768E+00 0.82844557E+03</pdfrwt>
<pdfrwt beam="2">  1       -2 0.12833085E+00 0.82844557E+03</pdfrwt>
<totfact> 0.74778151E+00</totfact>
</mgrwt>
</event>
<event>
 4    5  0.7289609E-008  0.7297042E+03  0.7818608E-02  0.9891022E-01
          2   -1    0    0  501    0  0.00000000000E+00  0.00000000000E+00  0.26583228721E+04  0.26583228721E+04  0.25500000000E-02 0. -1.
         -2   -1    0    0    0  501 -0.00000000000E+00 -0.00000000000E+00 -0.11822718554E+03  0.11822718557E+03  0.25500000000E-02 0.  1.
    8880023    1    1    2    0    0  0.31306869786E+03  0.25415970234E+02  0.13299083992E+04  0.15169457926E+04  0.65864270000E+03 0. -1.
    8880022    1    1    2    0    0 -0.31306869786E+03 -0.25415970234E+02  0.12101872874E+04  0.12596042651E+04  0.15294330000E+03 0.  0.
<mgrwt>
<rscale>  0 0.60698392E+03</rscale>
<asrwt>0</asrwt>
<pdfrwt beam="1">  1        2 0.40897274E+00 0.72970418E+03</pdfrwt>
<pdfrwt beam="2">  1       -2 0.18188798E-01 0.72970418E+03</pdfrwt>
<totfact> 0.74084182E+01</totfact>
</mgrwt>
</event>
<event>
 4    5  0.7289609E-008  0.8364101E+03  0.7818608E-02  0.9636987E-01
          2   -1    0    0  501    0  0.00000000000E+00  0.00000000000E+00  0.13436945945E+04  0.13436945945E+04  0.25500000000E-02 0. -1.
         -2   -1    0    0    0  501 -0.00000000000E+00 -0.00000000000E+00 -0.69354186712E+03  0.69354186712E+03  0.25500000000E-02 0.  1.
    8880023    1    1    2    0    0  0.41024515082E+03 -0.31220278007E+03 -0.34604706528E+03  0.90516873416E+03  0.65864270000E+03 0.  1.
    8880022    1    1    2    0    0 -0.41024515082E+03  0.31220278007E+03  0.99619979268E+03  0.11320677275E+04  0.15294330000E+03 0.  0.
<mgrwt>
<rscale>  0 0.74895781E+03</rscale>
<asrwt>0</asrwt>
<pdfrwt beam="1">  1        2 0.20672224E+00 0.83641011E+03</pdfrwt>
<pdfrwt beam="2">  1       -2 0.10669875E+00 0.83641011E+03</pdfrwt>
<totfact> 0.11151139E+01</totfact>
</mgrwt>
</event>
<event>
 4    5  0.1050059E-007  0.1047884E+04  0.7818608E-02  0.9321429E-01
          2   -1    0    0  501    0  0.00000000000E+00  0.00000000000E+00  0.29185931435E+04  0.29185931435E+04  0.25500000000E-02 0. -1.
         -2   -1    0    0    0  501 -0.00000000000E+00 -0.00000000000E+00 -0.16345397617E+04  0.16345397617E+04  0.25500000000E-02 0.  1.
    8880023    1    1    2    0    0 -0.10181347789E+02 -0.81495229896E+03 -0.13972486653E+04  0.17465294009E+04  0.65864270000E+03 0.  1.
    8880022    1    1    2    0    0  0.10181347789E+02  0.81495229896E+03  0.26813020471E+04  0.28066035043E+04  0.15294330000E+03 0.  0.
<mgrwt>
<rscale>  0 0.98833753E+03</rscale>
<asrwt>0</asrwt>
<pdfrwt beam="1">  1        2 0.44901432E+00 0.10478841E+04</pdfrwt>
<pdfrwt beam="2">  1       -2 0.25146766E+00 0.10478841E+04</pdfrwt>
<totfact> 0.12447361E-01</totfact>
</mgrwt>
</event>
<event>
 4    5  0.7289609E-008  0.6817353E+03  0.7818608E-02  0.1008359E+00
         -2   -1    0    0    0  501 -0.00000000000E+00  0.00000000000E+00  0.10639991522E+04  0.10639991522E+04  0.25500000000E-02 0.  1.
          2   -1    0    0  501    0  0.00000000000E+00 -0.00000000000E+00 -0.26907315211E+03  0.26907315212E+03  0.25500000000E-02 0. -1.
    8880023    1    1    2    0    0 -0.16473864571E+03 -0.61757412460E+02  0.85384971674E+03  0.10926217756E+04  0.65864270000E+03 0.  1.
    8880022    1    1    2    0    0  0.16473864571E+03  0.61757412460E+02 -0.58923716646E+02  0.24045052876E+03  0.15294330000E+03 0.  0.
<mgrwt>
<rscale>  0 0.52132222E+03</rscale>
<asrwt>0</asrwt>
<pdfrwt beam="1">  1        2 0.41395870E-01 0.68173529E+03</pdfrwt>
<pdfrwt beam="2">  1       -2 0.16369217E+00 0.68173529E+03</pdfrwt>
<totfact> 0.29851498E+01</totfact>
</mgrwt>
</event>
<event>
 4    5  0.7289609E-008  0.1648838E+04  0.7818608E-02  0.8811112E-01
          2   -1    0    0  501    0  0.00000000000E+00  0.00000000000E+00  0.30065952368E+04  0.30065952368E+04  0.25500000000E-02 0. -1.
         -2   -1    0    0    0  501 -0.00000000000E+00 -0.00000000000E+00 -0.89481968586E+03  0.89481968587E+03  0.25500000000E-02 0.  1.
    8880023    1    1    2    0    0  0.15011564018E+04 -0.17715811816E+03  0.16018732575E+04  0.22988396379E+04  0.65864270000E+03 0.  0.
    8880022    1    1    2    0    0 -0.15011564018E+04  0.17715811816E+03  0.50990229340E+03  0.16025752847E+04  0.15294330000E+03 0.  0.
<mgrwt>
<rscale>  0 0.16154507E+04</rscale>
<asrwt>0</asrwt>
<pdfrwt beam="1">  1        2 0.46255310E+00 0.16488377E+04</pdfrwt>
<pdfrwt beam="2">  1       -2 0.13766457E+00 0.16488377E+04</pdfrwt>
<totfact> 0.60491857E-01</totfact>
</mgrwt>
</event>
<event>
 4    5  0.7289609E-008  0.7161066E+03  0.7818608E-02  0.9935987E-01
         -2   -1    0    0    0  501 -0.00000000000E+00  0.00000000000E+00  0.37093429989E+03  0.37093429990E+03  0.25500000000E-02 0.  1.
          2   -1    0    0  501    0  0.00000000000E+00 -0.00000000000E+00 -0.11057388898E+04  0.11057388898E+04  0.25500000000E-02 0. -1.
    8880023    1    1    2    0    0  0.28105795631E+03  0.22043898839E+01 -0.46487122779E+02  0.71761388852E+03  0.65864270000E+03 0.  1.
    8880022    1    1    2    0    0 -0.28105795631E+03 -0.22043898839E+01 -0.68831746712E+03  0.75905930117E+03  0.15294330000E+03 0.  0.
<mgrwt>
<rscale>  0 0.58548462E+03</rscale>
<asrwt>0</asrwt>
<pdfrwt beam="1">  1        2 0.17011367E+00 0.71610658E+03</pdfrwt>
<pdfrwt beam="2">  1       -2 0.57066816E-01 0.71610658E+03</pdfrwt>
<totfact> 0.63383826E+01</totfact>
</mgrwt>
</event>
<event>
 4    5  0.7289609E-008  0.1397685E+04  0.7818608E-02  0.8985483E-01
          2   -1    0    0  501    0  0.00000000000E+00  0.00000000000E+00  0.29494701980E+04  0.29494701980E+04  0.25500000000E-02 0. -1.
         -2   -1    0    0    0  501 -0.00000000000E+00 -0.00000000000E+00 -0.14827623692E+04  0.14827623692E+04  0.25500000000E-02 0.  1.
    8880023    1    1    2    0    0  0.12133092440E+04  0.21816266697E+03 -0.96716094926E+03  0.16996837291E+04  0.65864270000E+03 0.  1.
    8880022    1    1    2    0    0 -0.12133092440E+04 -0.21816266697E+03  0.24338687780E+04  0.27325488381E+04  0.15294330000E+03 0.  0.
<mgrwt>
<rscale>  0 0.13570834E+04</rscale>
<asrwt>0</asrwt>
<pdfrwt beam="1">  1        2 0.45376465E+00 0.13976854E+04</pdfrwt>
<pdfrwt beam="2">  1       -2 0.22811729E+00 0.13976854E+04</pdfrwt>
<totfact> 0.15689343E-01</totfact>
</mgrwt>
</event>
<event>
 4    5  0.7289609E-008  0.1459451E+04  0.7818608E-02  0.8938813E-01
          2   -1    0    0  501    0  0.00000000000E+00  0.00000000000E+00  0.42027208835E+04  0.42027208835E+04  0.25500000000E-02 0. -1.
         -2   -1    0    0    0  501 -0.00000000000E+00 -0.00000000000E+00 -0.77967259796E+03  0.77967259797E+03  0.25500000000E-02 0.  1.
    8880023    1    1    2    0    0 -0.12880475248E+04  0.19266624344E+03  0.16303868516E+03  0.14685293755E+04  0.65864270000E+03 0.  0.
    8880022    1    1    2    0    0  0.12880475248E+04 -0.19266624344E+03  0.32600096004E+04  0.35138641060E+04  0.15294330000E+03 0.  0.
<mgrwt>
<rscale>  0 0.14209208E+04</rscale>
<asrwt>0</asrwt>
<pdfrwt beam="1">  1        2 0.64657245E+00 0.14594509E+04</pdfrwt>
<pdfrwt beam="2">  1       -2 0.11994963E+00 0.14594509E+04</pdfrwt>
<totfact> 0.11993716E-01</totfact>
</mgrwt>
</event>
<event>
 4    5  0.7289609E-008  0.7261165E+03  0.7818608E-02  0.9902408E-01
          2   -1    0    0  501    0  0.00000000000E+00  0.00000000000E+00  0.11668220033E+04  0.11668220033E+04  0.25500000000E-02 0. -1.
         -2   -1    0    0    0  501 -0.00000000000E+00 -0.00000000000E+00 -0.29520159684E+03  0.29520159685E+03  0.25500000000E-02 0.  1.
    8880023    1    1    2    0    0  0.29690407791E+03 -0.72683896392E+02  0.27894722453E+03  0.77785393270E+03  0.65864270000E+03 0.  1.
    8880022    1    1    2    0    0 -0.29690407791E+03  0.72683896392E+02  0.59267318193E+03  0.68416966746E+03  0.15294330000E+03 0.  0.
<mgrwt>
<rscale>  0 0.60144714E+03</rscale>
<asrwt>0</asrwt>
<pdfrwt beam="1">  1        2 0.17951107E+00 0.72611651E+03</pdfrwt>
<pdfrwt beam="2">  1       -2 0.45415632E-01 0.72611651E+03</pdfrwt>
<totfact> 0.92744822E+01</totfact>
</mgrwt>
</event>
<event>
 4    5  0.7289609E-008  0.7188737E+03  0.7818608E-02  0.9926416E-01
          2   -1    0    0  501    0  0.00000000000E+00  0.00000000000E+00  0.19420670996E+04  0.19420670996E+04  0.25500000000E-02 0. -1.
         -2   -1    0    0    0  501 -0.00000000000E+00 -0.00000000000E+00 -0.17859571116E+03  0.17859571117E+03  0.25500000000E-02 0.  1.
    8880023    1    1    2    0    0 -0.14407838007E+03 -0.24942043573E+03  0.68134361643E+03  0.99045871357E+03  0.65864270000E+03 0.  1.
    8880022    1    1    2    0    0  0.14407838007E+03  0.24942043573E+03  0.10821277720E+04  0.11302040972E+04  0.15294330000E+03 0.  0.
<mgrwt>
<rscale>  0 0.58997977E+03</rscale>
<asrwt>0</asrwt>
<pdfrwt beam="1">  1        2 0.29877956E+00 0.71887366E+03</pdfrwt>
<pdfrwt beam="2">  1       -2 0.27476263E-01 0.71887366E+03</pdfrwt>
<totfact> 0.89337542E+01</totfact>
</mgrwt>
</event>
<event>
 4    5  0.7289609E-008  0.7324077E+03  0.7818608E-02  0.9882641E-01
          2   -1    0    0  501    0  0.00000000000E+00  0.00000000000E+00  0.36140424012E+04  0.36140424012E+04  0.25500000000E-02 0. -1.
         -2   -1    0    0    0  501 -0.00000000000E+00 -0.00000000000E+00 -0.26585494870E+03  0.26585494871E+03  0.25500000000E-02 0.  1.
    8880023    1    1    2    0    0 -0.18645853730E+03 -0.26046903814E+03  0.26888876209E+03  0.78020656150E+03  0.65864270000E+03 0.  1.
    8880022    1    1    2    0    0  0.18645853730E+03  0.26046903814E+03  0.30792986905E+04  0.30996907885E+04  0.15294330000E+03 0.  0.
<mgrwt>
<rscale>  0 0.61109977E+03</rscale>
<asrwt>0</asrwt>
<pdfrwt beam="1">  1        2 0.55600653E+00 0.73240775E+03</pdfrwt>
<pdfrwt beam="2">  1       -2 0.40900761E-01 0.73240775E+03</pdfrwt>
<totfact> 0.41745713E+00</totfact>
</mgrwt>
</event>
<event>
 4    5  0.7289609E-008  0.8191261E+03  0.7818608E-02  0.9670872E-01
         -2   -1    0    0    0  501 -0.00000000000E+00  0.00000000000E+00  0.23718257885E+04  0.23718257885E+04  0.25500000000E-02 0.  1.
          2   -1    0    0  501    0  0.00000000000E+00 -0.00000000000E+00 -0.65667416256E+03  0.65667416257E+03  0.25500000000E-02 0. -1.
    8880023    1    1    2    0    0  0.20075575468E+03 -0.44368280261E+03  0.21857706599E+04  0.23342152613E+04  0.65864270000E+03 0.  1.
    8880022    1    1    2    0    0 -0.20075575468E+03  0.44368280261E+03 -0.47061903390E+03  0.69428468977E+03  0.15294330000E+03 0.  0.
<mgrwt>
<rscale>  0 0.72777851E+03</rscale>
<asrwt>0</asrwt>
<pdfrwt beam="1">  1        2 0.10102679E+00 0.81912606E+03</pdfrwt>
<pdfrwt beam="2">  1       -2 0.36489628E+00 0.81912606E+03</pdfrwt>
<totfact> 0.58067626E-01</totfact>
</mgrwt>
</event>
<event>
 4    5  0.7289609E-008  0.7403454E+03  0.7818608E-02  0.9858942E-01
         -2   -1    0    0    0  501 -0.00000000000E+00  0.00000000000E+00  0.16802178710E+04  0.16802178710E+04  0.25500000000E-02 0.  1.
          2   -1    0    0  501    0  0.00000000000E+00 -0.00000000000E+00 -0.51777341307E+03  0.51777341307E+03  0.25500000000E-02 0. -1.
    8880023    1    1    2    0    0  0.15603201717E+03 -0.29992527337E+03  0.15149520444E+04  0.16861764626E+04  0.65864270000E+03 0.  1.
    8880022    1    1    2    0    0 -0.15603201717E+03  0.29992527337E+03 -0.35250758644E+03  0.51181482149E+03  0.15294330000E+03 0.  0.
<mgrwt>
<rscale>  0 0.62293067E+03</rscale>
<asrwt>0</asrwt>
<pdfrwt beam="1">  1        2 0.79657448E-01 0.74034544E+03</pdfrwt>
<pdfrwt beam="2">  1       -2 0.25849506E+00 0.74034544E+03</pdfrwt>
<totfact> 0.34790801E+00</totfact>
</mgrwt>
</event>
<event>
 4    5  0.7289609E-008  0.7179581E+03  0.7818608E-02  0.9929556E-01
         -2   -1    0    0    0  501 -0.00000000000E+00  0.00000000000E+00  0.19949095200E+04  0.19949095200E+04  0.25500000000E-02 0.  1.
          2   -1    0    0  501    0  0.00000000000E+00 -0.00000000000E+00 -0.29693484458E+03  0.29693484459E+03  0.25500000000E-02 0. -1.
    8880023    1    1    2    0    0 -0.13089281508E+03 -0.25400930977E+03  0.18113745543E+04  0.19484716166E+04  0.65864270000E+03 0.  1.
    8880022    1    1    2    0    0  0.13089281508E+03  0.25400930977E+03 -0.11339987890E+03  0.34337274795E+03  0.15294330000E+03 0.  0.
<mgrwt>
<rscale>  0 0.58849993E+03</rscale>
<asrwt>0</asrwt>
<pdfrwt beam="1">  1        2 0.45682283E-01 0.71795812E+03</pdfrwt>
<pdfrwt beam="2">  1       -2 0.30690916E+00 0.71795812E+03</pdfrwt>
<totfact> 0.33489836E+00</totfact>
</mgrwt>
</event>
<event>
 4    5  0.7289609E-008  0.7632384E+03  0.7818608E-02  0.9796795E-01
         -2   -1    0    0    0  501 -0.00000000000E+00  0.00000000000E+00  0.93593251661E+03  0.93593251661E+03  0.25500000000E-02 0.  1.
          2   -1    0    0  501    0  0.00000000000E+00 -0.00000000000E+00 -0.11975302989E+04  0.11975302989E+04  0.25500000000E-02 0. -1.
    8880023    1    1    2    0    0 -0.13306836923E+03 -0.36196050598E+03  0.73150915531E+03  0.10571842079E+04  0.65864270000E+03 0.  1.
    8880022    1    1    2    0    0  0.13306836923E+03  0.36196050598E+03 -0.99310693764E+03  0.10762786077E+04  0.15294330000E+03 0.  0.
<mgrwt>
<rscale>  0 0.65534841E+03</rscale>
<asrwt>0</asrwt>
<pdfrwt beam="1">  1        2 0.18423543E+00 0.76323837E+03</pdfrwt>
<pdfrwt beam="2">  1       -2 0.14398962E+00 0.76323837E+03</pdfrwt>
<totfact> 0.64638646E+00</totfact>
</mgrwt>
</event>
<event>
 4    5  0.7289609E-008  0.9773192E+03  0.7818608E-02  0.9411852E-01
         -2   -1    0    0    0  501 -0.00000000000E+00  0.00000000000E+00  0.27494859641E+03  0.27494859642E+03  0.25500000000E-02 0.  1.
          2   -1    0    0  501    0  0.00000000000E+00 -0.00000000000E+00 -0.28290972656E+04  0.28290972656E+04  0.25500000000E-02 0. -1.
    8880023    1    1    2    0    0 -0.69373850610E+03 -0.20017384521E+03 -0.18037864201E+04  0.20515356050E+04  0.65864270000E+03 0.  0.
    8880022    1    1    2    0    0  0.69373850610E+03  0.20017384521E+03 -0.75036224910E+03  0.10525102570E+04  0.15294330000E+03 0.  0.
<mgrwt>
<rscale>  0 0.91106724E+03</rscale>
<asrwt>0</asrwt>
<pdfrwt beam="1">  1        2 0.43524571E+00 0.97731924E+03</pdfrwt>
<pdfrwt beam="2">  1       -2 0.42299786E-01 0.97731924E+03</pdfrwt>
<totfact> 0.12020557E+01</totfact>
</mgrwt>
</event>
<event>
 4    5  0.7289609E-008  0.1101053E+04  0.7818608E-02  0.9259885E-01
         -2   -1    0    0    0  501 -0.00000000000E+00  0.00000000000E+00  0.24375011909E+04  0.24375011909E+04  0.25500000000E-02 0.  1.
          2   -1    0    0  501    0  0.00000000000E+00 -0.00000000000E+00 -0.43612808682E+03  0.43612808683E+03  0.25500000000E-02 0. -1.
    8880023    1    1    2    0    0  0.52571969069E+03 -0.70860837491E+03  0.73964775139E+03  0.13264222648E+04  0.65864270000E+03 0. -1.
    8880022    1    1    2    0    0 -0.52571969069E+03  0.70860837491E+03  0.12617253527E+04  0.15472070129E+04  0.15294330000E+03 0.  0.
<mgrwt>
<rscale>  0 0.10456132E+04</rscale>
<asrwt>0</asrwt>
<pdfrwt beam="1">  1        2 0.67096629E-01 0.11010528E+04</pdfrwt>
<pdfrwt beam="2">  1       -2 0.37500018E+00 0.11010528E+04</pdfrwt>
<totfact> 0.78164107E-01</totfact>
</mgrwt>
</event>
<event>
 4    5  0.7289609E-008  0.7420165E+03  0.7818608E-02  0.9854112E-01
         -2   -1    0    0    0  501 -0.00000000000E+00  0.00000000000E+00  0.18098940723E+03  0.18098940725E+03  0.25500000000E-02 0.  1.
          2   -1    0    0  501    0  0.00000000000E+00 -0.00000000000E+00 -0.18977351172E+04  0.18977351172E+04  0.25500000000E-02 0. -1.
    8880023    1    1    2    0    0 -0.28401953530E+03  0.19002958175E+03 -0.81413190746E+03  0.11015440560E+04  0.65864270000E+03 0. -1.
    8880022    1    1    2    0    0  0.28401953530E+03 -0.19002958175E+03 -0.90261380250E+03  0.97718046841E+03  0.15294330000E+03 0.  0.
<mgrwt>
<rscale>  0 0.62537724E+03</rscale>
<asrwt>0</asrwt>
<pdfrwt beam="1">  1        2 0.29195924E+00 0.74201654E+03</pdfrwt>
<pdfrwt beam="2">  1       -2 0.27844525E-01 0.74201654E+03</pdfrwt>
<totfact> 0.91940965E+01</totfact>
</mgrwt>
</event>
<event>
 4    5  0.7289609E-008  0.8242973E+03  0.7818608E-02  0.9660532E-01
         -2   -1    0    0    0  501 -0.00000000000E+00  0.00000000000E+00  0.11919853208E+04  0.11919853208E+04  0.25500000000E-02 0.  1.
          2   -1    0    0  501    0  0.00000000000E+00 -0.00000000000E+00 -0.10539653387E+04  0.10539653387E+04  0.25500000000E-02 0. -1.
    8880023    1    1    2    0    0  0.45868108254E+03 -0.18779658873E+03  0.96539334362E+03  0.12694291664E+04  0.65864270000E+03 0.  0.
    8880022    1    1    2    0    0 -0.45868108254E+03  0.18779658873E+03 -0.82737336155E+03  0.97652149318E+03  0.15294330000E+03 0.  0.
<mgrwt>
<rscale>  0 0.73416141E+03</rscale>
<asrwt>0</asrwt>
<pdfrwt beam="1">  1        2 0.16214851E+00 0.82429734E+03</pdfrwt>
<pdfrwt beam="2">  1       -2 0.18338236E+00 0.82429734E+03</pdfrwt>
<totfact> 0.40487397E+00</totfact>
</mgrwt>
</event>
<event>
 4    5  0.7289609E-008  0.7326975E+03  0.7818608E-02  0.9881753E-01
          2   -1    0    0  501    0  0.00000000000E+00  0.00000000000E+00  0.19640933986E+04  0.19640933986E+04  0.25500000000E-02 0. -1.
         -2   -1    0    0    0  501 -0.00000000000E+00 -0.00000000000E+00 -0.24990760459E+03  0.24990760460E+03  0.25500000000E-02 0.  1.
    8880023    1    1    2    0    0 -0.31848481140E+03  0.40035634606E+02  0.36467360480E+03  0.81843293643E+03  0.65864270000E+03 0.  0.
    8880022    1    1    2    0    0  0.31848481140E+03 -0.40035634606E+02  0.13495121892E+04  0.13955680667E+04  0.15294330000E+03 0.  0.
<mgrwt>
<rscale>  0 0.61153814E+03</rscale>
<asrwt>0</asrwt>
<pdfrwt beam="1">  1        2 0.30216821E+00 0.73269750E+03</pdfrwt>
<pdfrwt beam="2">  1       -2 0.38447325E-01 0.73269750E+03</pdfrwt>
<totfact> 0.46125444E+01</totfact>
</mgrwt>
</event>
<event>
 4    5  0.7289609E-008  0.1015200E+04  0.7818608E-02  0.9361936E-01
          2   -1    0    0  501    0  0.00000000000E+00  0.00000000000E+00  0.22017437808E+04  0.22017437808E+04  0.25500000000E-02 0. -1.
         -2   -1    0    0    0  501 -0.00000000000E+00 -0.00000000000E+00 -0.86234168755E+03  0.86234168756E+03  0.25500000000E-02 0.  1.
    8880023    1    1    2    0    0 -0.52385565742E+02  0.77076355279E+03 -0.44892698021E+03  0.11100298832E+04  0.65864270000E+03 0.  1.
    8880022    1    1    2    0    0  0.52385565742E+02 -0.77076355279E+03  0.17883290734E+04  0.19540555851E+04  0.15294330000E+03 0.  0.
<mgrwt>
<rscale>  0 0.95275500E+03</rscale>
<asrwt>0</asrwt>
<pdfrwt beam="1">  1        2 0.33872981E+00 0.10151999E+04</pdfrwt>
<pdfrwt beam="2">  1       -2 0.13266795E+00 0.10151999E+04</pdfrwt>
<totfact> 0.21231818E+00</totfact>
</mgrwt>
</event>
<event>
 4    5  0.7289609E-008  0.8459004E+03  0.7818608E-02  0.9619153E-01
         -2   -1    0    0    0  501 -0.00000000000E+00  0.00000000000E+00  0.31599300292E+04  0.31599300292E+04  0.25500000000E-02 0.  1.
          2   -1    0    0  501    0  0.00000000000E+00 -0.00000000000E+00 -0.11389122491E+04  0.11389122491E+04  0.25500000000E-02 0. -1.
    8880023    1    1    2    0    0 -0.37514657181E+03  0.37550283411E+03  0.30314600811E+04  0.31472683010E+04  0.65864270000E+03 0.  1.
    8880022    1    1    2    0    0  0.37514657181E+03 -0.37550283411E+03 -0.10104423009E+04  0.11515739773E+04  0.15294330000E+03 0.  0.
<mgrwt>
<rscale>  0 0.76041358E+03</rscale>
<asrwt>0</asrwt>
<pdfrwt beam="1">  1        2 0.17521727E+00 0.84590043E+03</pdfrwt>
<pdfrwt beam="2">  1       -2 0.48614307E+00 0.84590043E+03</pdfrwt>
<totfact> 0.43449970E-02</totfact>
</mgrwt>
</event>
<event>
 4    5  0.7289609E-008  0.9437801E+03  0.7818608E-02  0.9459120E-01
         -2   -1    0    0    0  501 -0.00000000000E+00  0.00000000000E+00  0.15138302499E+04  0.15138302499E+04  0.25500000000E-02 0.  1.
          2   -1    0    0  501    0  0.00000000000E+00 -0.00000000000E+00 -0.99420800508E+03  0.99420800508E+03  0.25500000000E-02 0. -1.
    8880023    1    1    2    0    0 -0.55082421070E+03 -0.39179493460E+03  0.12068326296E+04  0.15320462735E+04  0.65864270000E+03 0.  1.
    8880022    1    1    2    0    0  0.55082421070E+03  0.39179493460E+03 -0.68721038483E+03  0.97599198148E+03  0.15294330000E+03 0. -1.
<mgrwt>
<rscale>  0 0.87365994E+03</rscale>
<asrwt>0</asrwt>
<pdfrwt beam="1">  1        2 0.15295508E+00 0.94378005E+03</pdfrwt>
<pdfrwt beam="2">  1       -2 0.23289696E+00 0.94378005E+03</pdfrwt>
<totfact> 0.20873396E+00</totfact>
</mgrwt>
</event>
<event>
 4    5  0.7289609E-008  0.8141930E+03  0.7818608E-02  0.9680908E-01
          2   -1    0    0  501    0  0.00000000000E+00  0.00000000000E+00  0.69228052851E+03  0.69228052852E+03  0.25500000000E-02 0. -1.
         -2   -1    0    0    0  501 -0.00000000000E+00 -0.00000000000E+00 -0.16578592504E+04  0.16578592504E+04  0.25500000000E-02 0.  1.
    8880023    1    1    2    0    0 -0.14591575182E+03 -0.45586036196E+03 -0.14431039692E+04  0.16569427716E+04  0.65864270000E+03 0.  1.
    8880022    1    1    2    0    0  0.14591575182E+03  0.45586036196E+03  0.47752524725E+03  0.69319700736E+03  0.15294330000E+03 0.  0.
<mgrwt>
<rscale>  0 0.72164969E+03</rscale>
<asrwt>0</asrwt>
<pdfrwt beam="1">  1        2 0.10650470E+00 0.81419303E+03</pdfrwt>
<pdfrwt beam="2">  1       -2 0.25505527E+00 0.81419303E+03</pdfrwt>
<totfact> 0.25413481E+00</totfact>
</mgrwt>
</event>
<event>
 4    5  0.7289609E-008  0.7616847E+03  0.7818608E-02  0.9800765E-01
         -2   -1    0    0    0  501 -0.00000000000E+00  0.00000000000E+00  0.43055823378E+03  0.43055823378E+03  0.25500000000E-02 0.  1.
          2   -1    0    0  501    0  0.00000000000E+00 -0.00000000000E+00 -0.19160176700E+04  0.19160176700E+04  0.25500000000E-02 0. -1.
    8880023    1    1    2    0    0  0.27784634819E+03 -0.26297284789E+03 -0.17138644825E+04  0.18754985958E+04  0.65864270000E+03 0. -1.
    8880022    1    1    2    0    0 -0.27784634819E+03  0.26297284789E+03  0.22840504632E+03  0.47107730802E+03  0.15294330000E+03 0.  0.
<mgrwt>
<rscale>  0 0.65321480E+03</rscale>
<asrwt>0</asrwt>
<pdfrwt beam="1">  1        2 0.29477195E+00 0.76168466E+03</pdfrwt>
<pdfrwt beam="2">  1       -2 0.66239729E-01 0.76168466E+03</pdfrwt>
<totfact> 0.16076947E+01</totfact>
</mgrwt>
</event>
<event>
 4    5  0.7289609E-008  0.7371522E+03  0.7818608E-02  0.9868322E-01
          2   -1    0    0  501    0  0.00000000000E+00  0.00000000000E+00  0.20283132563E+04  0.20283132563E+04  0.25500000000E-02 0. -1.
         -2   -1    0    0    0  501 -0.00000000000E+00 -0.00000000000E+00 -0.38671442730E+03  0.38671442731E+03  0.25500000000E-02 0.  1.
    8880023    1    1    2    0    0 -0.24712934652E+03  0.22025027119E+03  0.38387753557E+01  0.73716215199E+03  0.65864270000E+03 0.  1.
    8880022    1    1    2    0    0  0.24712934652E+03 -0.22025027119E+03  0.16377600537E+04  0.16778655317E+04  0.15294330000E+03 0.  0.
<mgrwt>
<rscale>  0 0.61821424E+03</rscale>
<asrwt>0</asrwt>
<pdfrwt beam="1">  1        2 0.31204819E+00 0.73715216E+03</pdfrwt>
<pdfrwt beam="2">  1       -2 0.59494528E-01 0.73715216E+03</pdfrwt>
<totfact> 0.17615244E+01</totfact>
</mgrwt>
</event>
<event>
 4    5  0.7289609E-008  0.7269895E+03  0.7818608E-02  0.9899608E-01
          2   -1    0    0  501    0  0.00000000000E+00  0.00000000000E+00  0.13306267137E+04  0.13306267137E+04  0.25500000000E-02 0. -1.
         -2   -1    0    0    0  501 -0.00000000000E+00 -0.00000000000E+00 -0.10131977333E+04  0.10131977333E+04  0.25500000000E-02 0.  1.
    8880023    1    1    2    0    0  0.27331854264E+03  0.14142326385E+03 -0.85487094437E+03  0.11221934339E+04  0.65864270000E+03 0.  1.
    8880022    1    1    2    0    0 -0.27331854264E+03 -0.14142326385E+03  0.11722999248E+04  0.12216310130E+04  0.15294330000E+03 0.  0.
<mgrwt>
<rscale>  0 0.60280265E+03</rscale>
<asrwt>0</asrwt>
<pdfrwt beam="1">  1        2 0.20471180E+00 0.72698953E+03</pdfrwt>
<pdfrwt beam="2">  1       -2 0.15587657E+00 0.72698953E+03</pdfrwt>
<totfact> 0.44078691E+00</totfact>
</mgrwt>
</event>
<event>
 4    5  0.7289609E-008  0.7526560E+03  0.7818608E-02  0.9824505E-01
         -2   -1    0    0    0  501 -0.00000000000E+00  0.00000000000E+00  0.18842394898E+03  0.18842394899E+03  0.25500000000E-02 0.  1.
          2   -1    0    0  501    0  0.00000000000E+00 -0.00000000000E+00 -0.18009891804E+04  0.18009891804E+04  0.25500000000E-02 0. -1.
    8880023    1    1    2    0    0 -0.29228715688E+03 -0.21736838395E+03 -0.88725929428E+03  0.11634947606E+04  0.65864270000E+03 0. -1.
    8880022    1    1    2    0    0  0.29228715688E+03  0.21736838395E+03 -0.72530593711E+03  0.82591836875E+03  0.15294330000E+03 0.  0.
<mgrwt>
<rscale>  0 0.64063869E+03</rscale>
<asrwt>0</asrwt>
<pdfrwt beam="1">  1        2 0.27707525E+00 0.75265597E+03</pdfrwt>
<pdfrwt beam="2">  1       -2 0.28988301E-01 0.75265597E+03</pdfrwt>
<totfact> 0.96291925E+01</totfact>
</mgrwt>
</event>
<event>
 4    5  0.8013755E-008  0.1652923E+04  0.7818608E-02  0.8808578E-01
          2   -1    0    0  501    0  0.00000000000E+00  0.00000000000E+00  0.25505750335E+04  0.25505750336E+04  0.25500000000E-02 0. -1.
         -2   -1    0    0    0  501 -0.00000000000E+00 -0.00000000000E+00 -0.16606075154E+04  0.16606075154E+04  0.25500000000E-02 0.  1.
    8880023    1    1    2    0    0  0.14206545370E+04  0.52923009171E+03 -0.88253270005E+03  0.18737710576E+04  0.65864270000E+03 0.  0.
    8880022    1    1    2    0    0 -0.14206545370E+04 -0.52923009171E+03  0.17725002182E+04  0.23374114914E+04  0.15294330000E+03 0.  0.
<mgrwt>
<rscale>  0 0.16196308E+04</rscale>
<asrwt>0</asrwt>
<pdfrwt beam="1">  1        2 0.39239616E+00 0.16529229E+04</pdfrwt>
<pdfrwt beam="2">  1       -2 0.25547808E+00 0.16529229E+04</pdfrwt>
<totfact> 0.17820866E-01</totfact>
</mgrwt>
</event>
<event>
 4    5  0.7289609E-008  0.6832202E+03  0.7818608E-02  0.1007558E+00
         -2   -1    0    0    0  501 -0.00000000000E+00  0.00000000000E+00  0.98946347270E+02  0.98946347303E+02  0.25500000000E-02 0.  1.
          2   -1    0    0  501    0  0.00000000000E+00 -0.00000000000E+00 -0.21474044229E+04  0.21474044229E+04  0.25500000000E-02 0. -1.
    8880023    1    1    2    0    0  0.17293114637E+03  0.55447528962E+02 -0.14674454601E+04  0.16186988585E+04  0.65864270000E+03 0. -1.
    8880022    1    1    2    0    0 -0.17293114637E+03 -0.55447528962E+02 -0.58101261552E+03  0.62765191170E+03  0.15294330000E+03 0.  1.
<mgrwt>
<rscale>  0 0.52456914E+03</rscale>
<asrwt>0</asrwt>
<pdfrwt beam="1">  1        2 0.33036988E+00 0.68322018E+03</pdfrwt>
<pdfrwt beam="2">  1       -2 0.15222517E-01 0.68322018E+03</pdfrwt>
<totfact> 0.19537267E+02</totfact>
</mgrwt>
</event>
<event>
 4    5  0.7289609E-008  0.6879397E+03  0.7818608E-02  0.1005148E+00
          2   -1    0    0  501    0  0.00000000000E+00  0.00000000000E+00  0.65172547817E+03  0.65172547817E+03  0.25500000000E-02 0. -1.
         -2   -1    0    0    0  501 -0.00000000000E+00 -0.00000000000E+00 -0.42452332918E+03  0.42452332919E+03  0.25500000000E-02 0.  1.
    8880023    1    1    2    0    0 -0.31460234108E+02  0.19611508627E+03 -0.65287816716E+02  0.69103080877E+03  0.65864270000E+03 0.  0.
    8880022    1    1    2    0    0  0.31460234108E+02 -0.19611508627E+03  0.29248996570E+03  0.38521799860E+03  0.15294330000E+03 0.  0.
<mgrwt>
<rscale>  0 0.53449605E+03</rscale>
<asrwt>0</asrwt>
<pdfrwt beam="1">  1        2 0.10026546E+00 0.68793974E+03</pdfrwt>
<pdfrwt beam="2">  1       -2 0.65311282E-01 0.68793974E+03</pdfrwt>
<totfact> 0.98349919E+01</totfact>
</mgrwt>
</event>
<event>
 4    5  0.7289609E-008  0.7090235E+03  0.7818608E-02  0.9961645E-01
          2   -1    0    0  501    0  0.00000000000E+00  0.00000000000E+00  0.12491758985E+04  0.12491758985E+04  0.25500000000E-02 0. -1.
         -2   -1    0    0    0  501 -0.00000000000E+00 -0.00000000000E+00 -0.50727131681E+03  0.50727131682E+03  0.25500000000E-02 0.  1.
    8880023    1    1    2    0    0 -0.23962936928E+03  0.10715352814E+03 -0.22425998033E+03  0.74364430896E+03  0.65864270000E+03 0.  1.
    8880022    1    1    2    0    0  0.23962936928E+03 -0.10715352814E+03  0.96616456202E+03  0.10128029064E+04  0.15294330000E+03 0.  0.
<mgrwt>
<rscale>  0 0.57364497E+03</rscale>
<asrwt>0</asrwt>
<pdfrwt beam="1">  1        2 0.19218091E+00 0.70902350E+03</pdfrwt>
<pdfrwt beam="2">  1       -2 0.78041741E-01 0.70902350E+03</pdfrwt>
<totfact> 0.26503456E+01</totfact>
</mgrwt>
</event>
<event>
 4    5  0.7289609E-008  0.1434889E+04  0.7818608E-02  0.8957036E-01
          2   -1    0    0  501    0  0.00000000000E+00  0.00000000000E+00  0.29948391641E+04  0.29948391641E+04  0.25500000000E-02 0. -1.
         -2   -1    0    0    0  501 -0.00000000000E+00 -0.00000000000E+00 -0.62103657389E+03  0.62103657389E+03  0.25500000000E-02 0.  1.
    8880023    1    1    2    0    0  0.12035804226E+04 -0.42010817607E+03  0.13967945952E+04  0.20024839726E+04  0.65864270000E+03 0.  0.
    8880022    1    1    2    0    0 -0.12035804226E+04  0.42010817607E+03  0.97700799511E+03  0.16133917654E+04  0.15294330000E+03 0.  0.
<mgrwt>
<rscale>  0 0.13955632E+04</rscale>
<asrwt>0</asrwt>
<pdfrwt beam="1">  1        2 0.46074448E+00 0.14348892E+04</pdfrwt>
<pdfrwt beam="2">  1       -2 0.95544089E-01 0.14348892E+04</pdfrwt>
<totfact> 0.15552407E+00</totfact>
</mgrwt>
</event>
<event>
 4    5  0.7289609E-008  0.1206027E+04  0.7818608E-02  0.9151286E-01
          2   -1    0    0  501    0  0.00000000000E+00  0.00000000000E+00  0.16172819744E+04  0.16172819744E+04  0.25500000000E-02 0. -1.
         -2   -1    0    0    0  501 -0.00000000000E+00 -0.00000000000E+00 -0.11562694758E+04  0.11562694758E+04  0.25500000000E-02 0.  1.
    8880023    1    1    2    0    0 -0.92995276788E+03 -0.39481493374E+03 -0.55943473967E+03  0.13294617018E+04  0.65864270000E+03 0.  0.
    8880022    1    1    2    0    0  0.92995276788E+03  0.39481493374E+03  0.10204472383E+04  0.14440897484E+04  0.15294330000E+03 0.  0.
<mgrwt>
<rscale>  0 0.11570700E+04</rscale>
<asrwt>0</asrwt>
<pdfrwt beam="1">  1        2 0.24881261E+00 0.12060270E+04</pdfrwt>
<pdfrwt beam="2">  1       -2 0.17788761E+00 0.12060270E+04</pdfrwt>
<totfact> 0.19838219E+00</totfact>
</mgrwt>
</event>
<event>
 4    5  0.7289609E-008  0.7571435E+03  0.7818608E-02  0.9812559E-01
         -2   -1    0    0    0  501 -0.00000000000E+00  0.00000000000E+00  0.31812204987E+03  0.31812204988E+03  0.25500000000E-02 0.  1.
          2   -1    0    0  501    0  0.00000000000E+00 -0.00000000000E+00 -0.23523288514E+04  0.23523288514E+04  0.25500000000E-02 0. -1.
    8880023    1    1    2    0    0 -0.99891275766E+02 -0.35983035117E+03 -0.18729319079E+03  0.77996480317E+03  0.65864270000E+03 0.  0.
    8880022    1    1    2    0    0  0.99891275766E+02  0.35983035117E+03 -0.18469136107E+04  0.18904860981E+04  0.15294330000E+03 0. -1.
<mgrwt>
<rscale>  0 0.64692868E+03</rscale>
<asrwt>0</asrwt>
<pdfrwt beam="1">  1        2 0.36189674E+00 0.75714355E+03</pdfrwt>
<pdfrwt beam="2">  1       -2 0.48941855E-01 0.75714355E+03</pdfrwt>
<totfact> 0.17429666E+01</totfact>
</mgrwt>
</event>
<event>
 4    5  0.7289609E-008  0.9579609E+03  0.7818608E-02  0.9438751E-01
          2   -1    0    0  501    0  0.00000000000E+00  0.00000000000E+00  0.21892057088E+04  0.21892057088E+04  0.25500000000E-02 0. -1.
         -2   -1    0    0    0  501 -0.00000000000E+00 -0.00000000000E+00 -0.87764286679E+03  0.87764286679E+03  0.25500000000E-02 0.  1.
    8880023    1    1    2    0    0  0.69785411514E+02  0.69210466454E+03 -0.52827291312E+03  0.10939658803E+04  0.65864270000E+03 0.  1.
    8880022    1    1    2    0    0 -0.69785411514E+02 -0.69210466454E+03  0.18398357552E+04  0.19728826953E+04  0.15294330000E+03 0.  0.
<mgrwt>
<rscale>  0 0.88954063E+03</rscale>
<asrwt>0</asrwt>
<pdfrwt beam="1">  1        2 0.33680087E+00 0.95796090E+03</pdfrwt>
<pdfrwt beam="2">  1       -2 0.13502198E+00 0.95796090E+03</pdfrwt>
<totfact> 0.20793965E+00</totfact>
</mgrwt>
</event>
<event>
 4    5  0.8997450E-008  0.9165418E+03  0.7818608E-02  0.9499982E-01
         -2   -1    0    0    0  501 -0.00000000000E+00  0.00000000000E+00  0.15230951687E+04  0.15230951687E+04  0.25500000000E-02 0.  1.
          2   -1    0    0  501    0  0.00000000000E+00 -0.00000000000E+00 -0.22322917744E+04  0.22322917744E+04  0.25500000000E-02 0. -1.
    8880023    1    1    2    0    0  0.32552158335E+03  0.54797303000E+03  0.13289928772E+04  0.16143949383E+04  0.65864270000E+03 0.  1.
    8880022    1    1    2    0    0 -0.32552158335E+03 -0.54797303000E+03 -0.20381894830E+04  0.21409920048E+04  0.15294330000E+03 0.  0.
<mgrwt>
<rscale>  0 0.84285156E+03</rscale>
<asrwt>0</asrwt>
<pdfrwt beam="1">  1        2 0.34342950E+00 0.91654184E+03</pdfrwt>
<pdfrwt beam="2">  1       -2 0.23432233E+00 0.91654184E+03</pdfrwt>
<totfact> 0.40590025E-01</totfact>
</mgrwt>
</event>
<event>
 4    5  0.7289609E-008  0.7488323E+03  0.7818608E-02  0.9834928E-01
          2   -1    0    0  501    0  0.00000000000E+00  0.00000000000E+00  0.52031425868E+03  0.52031425868E+03  0.25500000000E-02 0. -1.
         -2   -1    0    0    0  501 -0.00000000000E+00 -0.00000000000E+00 -0.10381982160E+04  0.10381982160E+04  0.25500000000E-02 0.  1.
    8880023    1    1    2    0    0 -0.18810357943E+03  0.30258323460E+03 -0.78716282642E+03  0.10864506855E+04  0.65864270000E+03 0.  1.
    8880022    1    1    2    0    0  0.18810357943E+03 -0.30258323460E+03  0.26927886910E+03  0.47206178919E+03  0.15294330000E+03 0.  0.
<mgrwt>
<rscale>  0 0.63521327E+03</rscale>
<asrwt>0</asrwt>
<pdfrwt beam="1">  1        2 0.80048348E-01 0.74883228E+03</pdfrwt>
<pdfrwt beam="2">  1       -2 0.15972280E+00 0.74883228E+03</pdfrwt>
<totfact> 0.15094529E+01</totfact>
</mgrwt>
</event>
<event>
 4    5  0.7289609E-008  0.1021580E+04  0.7818608E-02  0.9353853E-01
         -2   -1    0    0    0  501 -0.00000000000E+00  0.00000000000E+00  0.42568352180E+03  0.42568352181E+03  0.25500000000E-02 0.  1.
          2   -1    0    0  501    0  0.00000000000E+00 -0.00000000000E+00 -0.24824335992E+04  0.24824335992E+04  0.25500000000E-02 0. -1.
    8880023    1    1    2    0    0  0.15841854979E+02  0.78074657528E+03 -0.45240763192E+03  0.11172730422E+04  0.65864270000E+03 0.  0.
    8880022    1    1    2    0    0 -0.15841854979E+02 -0.78074657528E+03 -0.16043424455E+04  0.17908440788E+04  0.15294330000E+03 0. -1.
<mgrwt>
<rscale>  0 0.95972692E+03</rscale>
<asrwt>0</asrwt>
<pdfrwt beam="1">  1        2 0.38191285E+00 0.10215803E+04</pdfrwt>
<pdfrwt beam="2">  1       -2 0.65489774E-01 0.10215803E+04</pdfrwt>
<totfact> 0.77191693E+00</totfact>
</mgrwt>
</event>
<event>
 4    5  0.7289609E-008  0.7272948E+03  0.7818608E-02  0.9898634E-01
         -2   -1    0    0    0  501 -0.00000000000E+00  0.00000000000E+00  0.41153070040E+03  0.41153070041E+03  0.25500000000E-02 0.  1.
          2   -1    0    0  501    0  0.00000000000E+00 -0.00000000000E+00 -0.14524743486E+04  0.14524743486E+04  0.25500000000E-02 0. -1.
    8880023    1    1    2    0    0 -0.26557056026E+03  0.15690692977E+03  0.41150571916E+02  0.72845801727E+03  0.65864270000E+03 0.  1.
    8880022    1    1    2    0    0  0.26557056026E+03 -0.15690692977E+03 -0.10820942202E+04  0.11355470318E+04  0.15294330000E+03 0.  0.
<mgrwt>
<rscale>  0 0.60327536E+03</rscale>
<asrwt>0</asrwt>
<pdfrwt beam="1">  1        2 0.22345759E+00 0.72729479E+03</pdfrwt>
<pdfrwt beam="2">  1       -2 0.63312416E-01 0.72729479E+03</pdfrwt>
<totfact> 0.31978340E+01</totfact>
</mgrwt>
</event>
<event>
 4    5  0.7289609E-008  0.1192230E+04  0.7818608E-02  0.9164712E-01
          2   -1    0    0  501    0  0.00000000000E+00  0.00000000000E+00  0.18022713538E+04  0.18022713538E+04  0.25500000000E-02 0. -1.
         -2   -1    0    0    0  501 -0.00000000000E+00 -0.00000000000E+00 -0.93814068126E+03  0.93814068126E+03  0.25500000000E-02 0.  1.
    8880023    1    1    2    0    0  0.66773078471E+03  0.73602871963E+03 -0.27239487130E+03  0.12229521042E+04  0.65864270000E+03 0.  0.
    8880022    1    1    2    0    0 -0.66773078471E+03 -0.73602871963E+03  0.11365255438E+04  0.15174599309E+04  0.15294330000E+03 0.  0.
<mgrwt>
<rscale>  0 0.11425197E+04</rscale>
<asrwt>0</asrwt>
<pdfrwt beam="1">  1        2 0.27727251E+00 0.11922302E+04</pdfrwt>
<pdfrwt beam="2">  1       -2 0.14432934E+00 0.11922302E+04</pdfrwt>
<totfact> 0.27787118E+00</totfact>
</mgrwt>
</event>
<event>
 4    5  0.7289609E-008  0.7183029E+03  0.7818608E-02  0.9928371E-01
          2   -1    0    0  501    0  0.00000000000E+00  0.00000000000E+00  0.57907404140E+03  0.57907404140E+03  0.25500000000E-02 0. -1.
         -2   -1    0    0    0  501 -0.00000000000E+00 -0.00000000000E+00 -0.20075468433E+04  0.20075468433E+04  0.25500000000E-02 0.  1.
    8880023    1    1    2    0    0  0.32767121858E+02  0.28473699891E+03 -0.18901857485E+04  0.20220685480E+04  0.65864270000E+03 0.  1.
    8880022    1    1    2    0    0 -0.32767121858E+02 -0.28473699891E+03  0.46171294658E+03  0.56455233670E+03  0.15294330000E+03 0.  0.
<mgrwt>
<rscale>  0 0.58905806E+03</rscale>
<asrwt>0</asrwt>
<pdfrwt beam="1">  1        2 0.89088315E-01 0.71830290E+03</pdfrwt>
<pdfrwt beam="2">  1       -2 0.30885336E+00 0.71830290E+03</pdfrwt>
<totfact> 0.15245541E+00</totfact>
</mgrwt>
</event>
<event>
 4    5  0.7289609E-008  0.1365926E+04  0.7818608E-02  0.9010621E-01
         -2   -1    0    0    0  501 -0.00000000000E+00  0.00000000000E+00  0.10341410544E+04  0.10341410544E+04  0.25500000000E-02 0.  1.
          2   -1    0    0  501    0  0.00000000000E+00 -0.00000000000E+00 -0.22943713922E+04  0.22943713922E+04  0.25500000000E-02 0. -1.
    8880023    1    1    2    0    0  0.85350734427E+03  0.83873114907E+03  0.25724497991E+03  0.13899388163E+04  0.65864270000E+03 0.  0.
    8880022    1    1    2    0    0 -0.85350734427E+03 -0.83873114907E+03 -0.15174753177E+04  0.19385736303E+04  0.15294330000E+03 0.  0.
<mgrwt>
<rscale>  0 0.13241613E+04</rscale>
<asrwt>0</asrwt>
<pdfrwt beam="1">  1        2 0.35298021E+00 0.13659264E+04</pdfrwt>
<pdfrwt beam="2">  1       -2 0.15909863E+00 0.13659264E+04</pdfrwt>
<totfact> 0.11172808E+00</totfact>
</mgrwt>
</event>
<event>
 4    5  0.7289609E-008  0.9637597E+03  0.7818608E-02  0.9430587E-01
         -2   -1    0    0    0  501 -0.00000000000E+00  0.00000000000E+00  0.47857592981E+03  0.47857592981E+03  0.25500000000E-02 0.  1.
          2   -1    0    0  501    0  0.00000000000E+00 -0.00000000000E+00 -0.22119181529E+04  0.22119181529E+04  0.25500000000E-02 0. -1.
    8880023    1    1    2    0    0 -0.24799912539E+03 -0.65842165326E+03 -0.18281206688E+03  0.98094500240E+03  0.65864270000E+03 0.  1.
    8880022    1    1    2    0    0  0.24799912539E+03  0.65842165326E+03 -0.15505301562E+04  0.17095490803E+04  0.15294330000E+03 0.  0.
<mgrwt>
<rscale>  0 0.89600660E+03</rscale>
<asrwt>0</asrwt>
<pdfrwt beam="1">  1        2 0.34029509E+00 0.96375974E+03</pdfrwt>
<pdfrwt beam="2">  1       -2 0.73627067E-01 0.96375974E+03</pdfrwt>
<totfact> 0.85445084E+00</totfact>
</mgrwt>
</event>
<event>
 4    5  0.7289609E-008  0.2098397E+04  0.7818608E-02  0.8573281E-01
          2   -1    0    0  501    0  0.00000000000E+00  0.00000000000E+00  0.32888718545E+04  0.32888718545E+04  0.25500000000E-02 0. -1.
         -2   -1    0    0    0  501 -0.00000000000E+00 -0.00000000000E+00 -0.16058071399E+04  0.16058071399E+04  0.25500000000E-02 0.  1.
    8880023    1    1    2    0    0 -0.23255954210E+03  0.19787311290E+04  0.19672711066E+04  0.28763564860E+04  0.65864270000E+03 0. -1.
    8880022    1    1    2    0    0  0.23255954210E+03 -0.19787311290E+04 -0.28420639194E+03  0.20183225084E+04  0.15294330000E+03 0.  0.
<mgrwt>
<rscale>  0 0.20728897E+04</rscale>
<asrwt>0</asrwt>
<pdfrwt beam="1">  1        2 0.50598028E+00 0.20983973E+04</pdfrwt>
<pdfrwt beam="2">  1       -2 0.24704726E+00 0.20983973E+04</pdfrwt>
<totfact> 0.66773345E-02</totfact>
</mgrwt>
</event>
<event>
 4    5  0.7289609E-008  0.8804628E+03  0.7818608E-02  0.9558152E-01
          2   -1    0    0  501    0  0.00000000000E+00  0.00000000000E+00  0.13206254812E+04  0.13206254812E+04  0.25500000000E-02 0. -1.
         -2   -1    0    0    0  501 -0.00000000000E+00 -0.00000000000E+00 -0.49732295368E+03  0.49732295368E+03  0.25500000000E-02 0.  1.
    8880023    1    1    2    0    0  0.53388420182E+03  0.23742814446E+03  0.11634290197E+03  0.88811617587E+03  0.65864270000E+03 0.  1.
    8880022    1    1    2    0    0 -0.53388420182E+03 -0.23742814446E+03  0.70695962557E+03  0.92983225903E+03  0.15294330000E+03 0.  0.
<mgrwt>
<rscale>  0 0.80128963E+03</rscale>
<asrwt>0</asrwt>
<pdfrwt beam="1">  1        2 0.20317315E+00 0.88046276E+03</pdfrwt>
<pdfrwt beam="2">  1       -2 0.76511223E-01 0.88046276E+03</pdfrwt>
<totfact> 0.24735991E+01</totfact>
</mgrwt>
</event>
<event>
 4    5  0.7289609E-008  0.6814776E+03  0.7818608E-02  0.1008500E+00
          2   -1    0    0  501    0  0.00000000000E+00  0.00000000000E+00  0.30808655725E+04  0.30808655725E+04  0.25500000000E-02 0. -1.
         -2   -1    0    0    0  501 -0.00000000000E+00 -0.00000000000E+00 -0.33916642468E+03  0.33916642469E+03  0.25500000000E-02 0.  1.
    8880023    1    1    2    0    0  0.57265334643E+02 -0.16529414917E+03  0.13147767881E+02  0.68160438993E+03  0.65864270000E+03 0.  1.
    8880022    1    1    2    0    0 -0.57265334643E+02  0.16529414917E+03  0.27285513800E+04  0.27384276073E+04  0.15294330000E+03 0.  0.
<mgrwt>
<rscale>  0 0.52075205E+03</rscale>
<asrwt>0</asrwt>
<pdfrwt beam="1">  1        2 0.47397930E+00 0.68147757E+03</pdfrwt>
<pdfrwt beam="2">  1       -2 0.52179452E-01 0.68147757E+03</pdfrwt>
<totfact> 0.58133036E+00</totfact>
</mgrwt>
</event>
<event>
 4    5  0.7289609E-008  0.8019397E+03  0.7818608E-02  0.9706618E-01
         -2   -1    0    0    0  501 -0.00000000000E+00  0.00000000000E+00  0.96952967937E+03  0.96952967937E+03  0.25500000000E-02 0.  1.
          2   -1    0    0  501    0  0.00000000000E+00 -0.00000000000E+00 -0.12400245011E+04  0.12400245011E+04  0.25500000000E-02 0. -1.
    8880023    1    1    2    0    0 -0.27024205567E+03  0.36914266935E+03  0.73913425606E+03  0.10906084236E+04  0.65864270000E+03 0.  1.
    8880022    1    1    2    0    0  0.27024205567E+03 -0.36914266935E+03 -0.10096290778E+04  0.11189457568E+04  0.15294330000E+03 0.  0.
<mgrwt>
<rscale>  0 0.70624145E+03</rscale>
<asrwt>0</asrwt>
<pdfrwt beam="1">  1        2 0.19077300E+00 0.80193970E+03</pdfrwt>
<pdfrwt beam="2">  1       -2 0.14915841E+00 0.80193970E+03</pdfrwt>
<totfact> 0.55330139E+00</totfact>
</mgrwt>
</event>
<event>
 4    5  0.7289609E-008  0.1175471E+04  0.7818608E-02  0.9181343E-01
         -2   -1    0    0    0  501 -0.00000000000E+00  0.00000000000E+00  0.46507324374E+03  0.46507324374E+03  0.25500000000E-02 0.  1.
          2   -1    0    0  501    0  0.00000000000E+00 -0.00000000000E+00 -0.28331357617E+04  0.28331357617E+04  0.25500000000E-02 0. -1.
    8880023    1    1    2    0    0  0.83329357713E+03 -0.50353193713E+03 -0.72152280020E+03  0.13792490547E+04  0.65864270000E+03 0.  1.
    8880022    1    1    2    0    0 -0.83329357713E+03  0.50353193713E+03 -0.16465397177E+04  0.19189599507E+04  0.15294330000E+03 0. -1.
<mgrwt>
<rscale>  0 0.11248096E+04</rscale>
<asrwt>0</asrwt>
<pdfrwt beam="1">  1        2 0.43586703E+00 0.11754713E+04</pdfrwt>
<pdfrwt beam="2">  1       -2 0.71549732E-01 0.11754713E+04</pdfrwt>
<totfact> 0.38920938E+00</totfact>
</mgrwt>
</event>
<event>
 4    5  0.7289609E-008  0.1154968E+04  0.7818608E-02  0.9202190E-01
         -2   -1    0    0    0  501 -0.00000000000E+00  0.00000000000E+00  0.43431186078E+03  0.43431186079E+03  0.25500000000E-02 0.  1.
          2   -1    0    0  501    0  0.00000000000E+00 -0.00000000000E+00 -0.25801045115E+04  0.25801045115E+04  0.25500000000E-02 0. -1.
    8880023    1    1    2    0    0  0.71871465837E+03  0.61934659906E+03 -0.11213418063E+04  0.16097697422E+04  0.65864270000E+03 0.  0.
    8880022    1    1    2    0    0 -0.71871465837E+03 -0.61934659906E+03 -0.10244508444E+04  0.14046466302E+04  0.15294330000E+03 0. -1.
<mgrwt>
<rscale>  0 0.11030851E+04</rscale>
<asrwt>0</asrwt>
<pdfrwt beam="1">  1        2 0.39693915E+00 0.11549680E+04</pdfrwt>
<pdfrwt beam="2">  1       -2 0.66817211E-01 0.11549680E+04</pdfrwt>
<totfact> 0.63931344E+00</totfact>
</mgrwt>
</event>
<event>
 4    5  0.7289609E-008  0.7176598E+03  0.7818608E-02  0.9930585E-01
         -2   -1    0    0    0  501 -0.00000000000E+00  0.00000000000E+00  0.36021097786E+03  0.36021097787E+03  0.25500000000E-02 0.  1.
          2   -1    0    0  501    0  0.00000000000E+00 -0.00000000000E+00 -0.19717411109E+04  0.19717411109E+04  0.25500000000E-02 0. -1.
    8880023    1    1    2    0    0 -0.15608855781E+03 -0.23845692731E+03 -0.30640424768E+02  0.71831357077E+03  0.65864270000E+03 0.  1.
    8880022    1    1    2    0    0  0.15608855781E+03  0.23845692731E+03 -0.15808897083E+04  0.16136385180E+04  0.15294330000E+03 0.  0.
<mgrwt>
<rscale>  0 0.58801612E+03</rscale>
<asrwt>0</asrwt>
<pdfrwt beam="1">  1        2 0.30334478E+00 0.71765977E+03</pdfrwt>
<pdfrwt beam="2">  1       -2 0.55417075E-01 0.71765977E+03</pdfrwt>
<totfact> 0.22001443E+01</totfact>
</mgrwt>
</event>
<event>
 4    5  0.7289609E-008  0.7641298E+03  0.7818608E-02  0.9794531E-01
          2   -1    0    0  501    0  0.00000000000E+00  0.00000000000E+00  0.48138255767E+03  0.48138255768E+03  0.25500000000E-02 0. -1.
         -2   -1    0    0    0  501 -0.00000000000E+00 -0.00000000000E+00 -0.79975478166E+03  0.79975478167E+03  0.25500000000E-02 0.  1.
    8880023    1    1    2    0    0  0.32642627736E+03 -0.20863848499E+03 -0.39098741860E+03  0.85835045275E+03  0.65864270000E+03 0.  0.
    8880022    1    1    2    0    0 -0.32642627736E+03  0.20863848499E+03  0.72615194607E+02  0.42278688659E+03  0.15294330000E+03 0.  0.
<mgrwt>
<rscale>  0 0.65656875E+03</rscale>
<asrwt>0</asrwt>
<pdfrwt beam="1">  1        2 0.74058855E-01 0.76412979E+03</pdfrwt>
<pdfrwt beam="2">  1       -2 0.12303920E+00 0.76412979E+03</pdfrwt>
<totfact> 0.32459771E+01</totfact>
</mgrwt>
</event>
<event>
 4    5  0.7289609E-008  0.9227915E+03  0.7818608E-02  0.9490392E-01
         -2   -1    0    0    0  501 -0.00000000000E+00  0.00000000000E+00  0.61544863973E+03  0.61544863973E+03  0.25500000000E-02 0.  1.
          2   -1    0    0  501    0  0.00000000000E+00 -0.00000000000E+00 -0.13259875148E+04  0.13259875148E+04  0.25500000000E-02 0. -1.
    8880023    1    1    2    0    0 -0.62256518583E+03  0.17362764027E+03  0.59291172279E+02  0.92469433731E+03  0.65864270000E+03 0.  1.
    8880022    1    1    2    0    0  0.62256518583E+03 -0.17362764027E+03 -0.76983004736E+03  0.10167418172E+04  0.15294330000E+03 0.  0.
<mgrwt>
<rscale>  0 0.84995900E+03</rscale>
<asrwt>0</asrwt>
<pdfrwt beam="1">  1        2 0.20399808E+00 0.92279151E+03</pdfrwt>
<pdfrwt beam="2">  1       -2 0.94684406E-01 0.92279151E+03</pdfrwt>
<totfact> 0.15029370E+01</totfact>
</mgrwt>
</event>
<event>
 4    5  0.7289609E-008  0.7155059E+03  0.7818608E-02  0.9938097E-01
         -2   -1    0    0    0  501 -0.00000000000E+00  0.00000000000E+00  0.25298397309E+03  0.25298397310E+03  0.25500000000E-02 0.  1.
          2   -1    0    0  501    0  0.00000000000E+00 -0.00000000000E+00 -0.20936356857E+04  0.20936356857E+04  0.25500000000E-02 0. -1.
    8880023    1    1    2    0    0 -0.25147892716E+03 -0.12205238310E+03 -0.30422013528E+03  0.77749503664E+03  0.65864270000E+03 0.  1.
    8880022    1    1    2    0    0  0.25147892716E+03  0.12205238310E+03 -0.15364315773E+04  0.15691246221E+04  0.15294330000E+03 0.  0.
<mgrwt>
<rscale>  0 0.58449963E+03</rscale>
<asrwt>0</asrwt>
<pdfrwt beam="1">  1        2 0.32209779E+00 0.71550586E+03</pdfrwt>
<pdfrwt beam="2">  1       -2 0.38920613E-01 0.71550586E+03</pdfrwt>
<totfact> 0.38361941E+01</totfact>
</mgrwt>
</event>
<event>
 4    5  0.7289609E-008  0.6730106E+03  0.7818608E-02  0.1013591E+00
          2   -1    0    0  501    0  0.00000000000E+00  0.00000000000E+00  0.19952069734E+04  0.19952069734E+04  0.25500000000E-02 0. -1.
         -2   -1    0    0    0  501 -0.00000000000E+00 -0.00000000000E+00 -0.46014384613E+03  0.46014384614E+03  0.25500000000E-02 0.  1.
    8880023    1    1    2    0    0 -0.12355833551E+02 -0.13776914803E+03 -0.20466613045E+03  0.70344256055E+03  0.65864270000E+03 0.  1.
    8880022    1    1    2    0    0  0.12355833551E+02  0.13776914803E+03  0.17397292577E+04  0.17519082590E+04  0.15294330000E+03 0.  0.
<mgrwt>
<rscale>  0 0.50072181E+03</rscale>
<asrwt>0</asrwt>
<pdfrwt beam="1">  1        2 0.30695492E+00 0.67301056E+03</pdfrwt>
<pdfrwt beam="2">  1       -2 0.70791362E-01 0.67301056E+03</pdfrwt>
<totfact> 0.12771010E+01</totfact>
</mgrwt>
</event>
<event>
 4    5  0.1123311E-007  0.1088295E+04  0.7818608E-02  0.9274201E-01
         -2   -1    0    0    0  501 -0.00000000000E+00  0.00000000000E+00  0.13959956882E+04  0.13959956882E+04  0.25500000000E-02 0.  1.
          2   -1    0    0  501    0  0.00000000000E+00 -0.00000000000E+00 -0.22460460995E+04  0.22460460995E+04  0.25500000000E-02 0. -1.
    8880023    1    1    2    0    0  0.71598879025E+03 -0.48778750879E+03  0.10723824778E+04  0.15278713907E+04  0.65864270000E+03 0.  0.
    8880022    1    1    2    0    0 -0.71598879025E+03  0.48778750879E+03 -0.19224328891E+04  0.21141703970E+04  0.15294330000E+03 0.  0.
<mgrwt>
<rscale>  0 0.10319306E+04</rscale>
<asrwt>0</asrwt>
<pdfrwt beam="1">  1        2 0.34554555E+00 0.10882954E+04</pdfrwt>
<pdfrwt beam="2">  1       -2 0.21476857E+00 0.10882954E+04</pdfrwt>
<totfact> 0.51346015E-01</totfact>
</mgrwt>
</event>
<event>
 4    5  0.7289609E-008  0.1131511E+04  0.7818608E-02  0.9226757E-01
         -2   -1    0    0    0  501 -0.00000000000E+00  0.00000000000E+00  0.10768746846E+04  0.10768746846E+04  0.25500000000E-02 0.  1.
          2   -1    0    0  501    0  0.00000000000E+00 -0.00000000000E+00 -0.19194656408E+04  0.19194656408E+04  0.25500000000E-02 0. -1.
    8880023    1    1    2    0    0 -0.66747817061E+02 -0.91763417464E+03  0.59828166448E+03  0.12799448839E+04  0.65864270000E+03 0.  0.
    8880022    1    1    2    0    0  0.66747817061E+02  0.91763417464E+03 -0.14408726207E+04  0.17163954415E+04  0.15294330000E+03 0.  0.
<mgrwt>
<rscale>  0 0.10781466E+04</rscale>
<asrwt>0</asrwt>
<pdfrwt beam="1">  1        2 0.29530241E+00 0.11315114E+04</pdfrwt>
<pdfrwt beam="2">  1       -2 0.16567303E+00 0.11315114E+04</pdfrwt>
<totfact> 0.16613363E+00</totfact>
</mgrwt>
</event>
<event>
 4    5  0.7289609E-008  0.1198515E+04  0.7818608E-02  0.9158567E-01
          2   -1    0    0  501    0  0.00000000000E+00  0.00000000000E+00  0.11493544775E+04  0.11493544775E+04  0.25500000000E-02 0. -1.
         -2   -1    0    0    0  501 -0.00000000000E+00 -0.00000000000E+00 -0.12217811113E+04  0.12217811113E+04  0.25500000000E-02 0.  1.
    8880023    1    1    2    0    0  0.98863071737E+03  0.15886465276E+03 -0.46394231094E+03  0.12851775548E+04  0.65864270000E+03 0.  1.
    8880022    1    1    2    0    0 -0.98863071737E+03 -0.15886465276E+03  0.39151567707E+03  0.10859580340E+04  0.15294330000E+03 0. -1.
<mgrwt>
<rscale>  0 0.11491512E+04</rscale>
<asrwt>0</asrwt>
<pdfrwt beam="1">  1        2 0.17682377E+00 0.11985153E+04</pdfrwt>
<pdfrwt beam="2">  1       -2 0.18796632E+00 0.11985153E+04</pdfrwt>
<totfact> 0.31585165E+00</totfact>
</mgrwt>
</event>
<event>
 4    5  0.7289609E-008  0.7628307E+03  0.7818608E-02  0.9797833E-01
         -2   -1    0    0    0  501 -0.00000000000E+00  0.00000000000E+00  0.10185827396E+04  0.10185827396E+04  0.25500000000E-02 0.  1.
          2   -1    0    0  501    0  0.00000000000E+00 -0.00000000000E+00 -0.77540931439E+03  0.77540931439E+03  0.25500000000E-02 0. -1.
    8880023    1    1    2    0    0 -0.10071987938E+03 -0.37142430769E+03  0.79649371680E+03  0.11028657931E+04  0.65864270000E+03 0.  0.
    8880022    1    1    2    0    0  0.10071987938E+03  0.37142430769E+03 -0.55332029157E+03  0.69112626091E+03  0.15294330000E+03 0.  0.
<mgrwt>
<rscale>  0 0.65478944E+03</rscale>
<asrwt>0</asrwt>
<pdfrwt beam="1">  1        2 0.11929374E+00 0.76283073E+03</pdfrwt>
<pdfrwt beam="2">  1       -2 0.15670504E+00 0.76283073E+03</pdfrwt>
<totfact> 0.97123155E+00</totfact>
</mgrwt>
</event>
<event>
 4    5  0.7289609E-008  0.7111562E+03  0.7818608E-02  0.9953732E-01
         -2   -1    0    0    0  501 -0.00000000000E+00  0.00000000000E+00  0.15015239999E+04  0.15015239999E+04  0.25500000000E-02 0.  1.
          2   -1    0    0  501    0  0.00000000000E+00 -0.00000000000E+00 -0.57709614848E+03  0.57709614849E+03  0.25500000000E-02 0. -1.
    8880023    1    1    2    0    0  0.23533098121E+03 -0.12865564631E+03  0.13658729576E+04  0.15399195072E+04  0.65864270000E+03 0.  0.
    8880022    1    1    2    0    0 -0.23533098121E+03  0.12865564631E+03 -0.44144510619E+03  0.53870064121E+03  0.15294330000E+03 0. -1.
<mgrwt>
<rscale>  0 0.57726387E+03</rscale>
<asrwt>0</asrwt>
<pdfrwt beam="1">  1        2 0.88784022E-01 0.71115621E+03</pdfrwt>
<pdfrwt beam="2">  1       -2 0.23100369E+00 0.71115621E+03</pdfrwt>
<totfact> 0.45162622E+00</totfact>
</mgrwt>
</event>
<event>
 4    5  0.7289609E-008  0.9725260E+03  0.7818608E-02  0.9418419E-01
          2   -1    0    0  501    0  0.00000000000E+00  0.00000000000E+00  0.25676134006E+04  0.25676134006E+04  0.25500000000E-02 0. -1.
         -2   -1    0    0    0  501 -0.00000000000E+00 -0.00000000000E+00 -0.62677972074E+03  0.62677972075E+03  0.25500000000E-02 0.  1.
    8880023    1    1    2    0    0 -0.12545280693E+03  0.70445597193E+03 -0.14561093225E+03  0.98336634730E+03  0.65864270000E+03 0.  1.
    8880022    1    1    2    0    0  0.12545280693E+03 -0.70445597193E+03  0.20864446121E+04  0.22110267741E+04  0.15294330000E+03 0.  0.
<mgrwt>
<rscale>  0 0.90575246E+03</rscale>
<asrwt>0</asrwt>
<pdfrwt beam="1">  1        2 0.39501743E+00 0.97252600E+03</pdfrwt>
<pdfrwt beam="2">  1       -2 0.96427653E-01 0.97252600E+03</pdfrwt>
<totfact> 0.29020036E+00</totfact>
</mgrwt>
</event>
<event>
 4    5  0.7289609E-008  0.6932296E+03  0.7818608E-02  0.1002654E+00
          2   -1    0    0  501    0  0.00000000000E+00  0.00000000000E+00  0.33010685479E+04  0.33010685479E+04  0.25500000000E-02 0. -1.
         -2   -1    0    0    0  501 -0.00000000000E+00 -0.00000000000E+00 -0.21980882994E+03  0.21980882995E+03  0.25500000000E-02 0.  1.
    8880023    1    1    2    0    0 -0.17386730212E+03 -0.12855801951E+03  0.34957442731E+03  0.77638230893E+03  0.65864270000E+03 0.  1.
    8880022    1    1    2    0    0  0.17386730212E+03  0.12855801951E+03  0.27316852906E+04  0.27444950689E+04  0.15294330000E+03 0.  0.
<mgrwt>
<rscale>  0 0.54501721E+03</rscale>
<asrwt>0</asrwt>
<pdfrwt beam="1">  1        2 0.50785666E+00 0.69322955E+03</pdfrwt>
<pdfrwt beam="2">  1       -2 0.33816746E-01 0.69322955E+03</pdfrwt>
<totfact> 0.98691150E+00</totfact>
</mgrwt>
</event>
<event>
 4    5  0.7289609E-008  0.8230089E+03  0.7818608E-02  0.9663091E-01
         -2   -1    0    0    0  501 -0.00000000000E+00  0.00000000000E+00  0.10270665328E+04  0.10270665328E+04  0.25500000000E-02 0.  1.
          2   -1    0    0  501    0  0.00000000000E+00 -0.00000000000E+00 -0.13296715097E+04  0.13296715097E+04  0.25500000000E-02 0. -1.
    8880023    1    1    2    0    0  0.49218525179E+03  0.35877467812E+02  0.79458786755E+03  0.11439902099E+04  0.65864270000E+03 0.  1.
    8880022    1    1    2    0    0 -0.49218525179E+03 -0.35877467812E+02 -0.10971928444E+04  0.12127478327E+04  0.15294330000E+03 0.  0.
<mgrwt>
<rscale>  0 0.73257502E+03</rscale>
<asrwt>0</asrwt>
<pdfrwt beam="1">  1        2 0.20456485E+00 0.82300894E+03</pdfrwt>
<pdfrwt beam="2">  1       -2 0.15801024E+00 0.82300894E+03</pdfrwt>
<totfact> 0.41960337E+00</totfact>
</mgrwt>
</event>
<event>
 4    5  0.7289609E-008  0.7187376E+03  0.7818608E-02  0.9926881E-01
         -2   -1    0    0    0  501 -0.00000000000E+00  0.00000000000E+00  0.47692217344E+03  0.47692217345E+03  0.25500000000E-02 0.  1.
          2   -1    0    0  501    0  0.00000000000E+00 -0.00000000000E+00 -0.14603038467E+04  0.14603038467E+04  0.25500000000E-02 0. -1.
    8880023    1    1    2    0    0  0.27089921934E+03 -0.96887408677E+02  0.17011361720E+03  0.73859488627E+03  0.65864270000E+03 0.  1.
    8880022    1    1    2    0    0 -0.27089921934E+03  0.96887408677E+02 -0.11534952905E+04  0.11986311339E+04  0.15294330000E+03 0.  0.
<mgrwt>
<rscale>  0 0.58976033E+03</rscale>
<asrwt>0</asrwt>
<pdfrwt beam="1">  1        2 0.22466213E+00 0.71873762E+03</pdfrwt>
<pdfrwt beam="2">  1       -2 0.73372643E-01 0.71873762E+03</pdfrwt>
<totfact> 0.23013206E+01</totfact>
</mgrwt>
</event>
<event>
 4    5  0.7289609E-008  0.8315263E+03  0.7818608E-02  0.9646370E-01
          2   -1    0    0  501    0  0.00000000000E+00  0.00000000000E+00  0.21059521128E+04  0.21059521128E+04  0.25500000000E-02 0. -1.
         -2   -1    0    0    0  501 -0.00000000000E+00 -0.00000000000E+00 -0.59419751611E+03  0.59419751611E+03  0.25500000000E-02 0.  1.
    8880023    1    1    2    0    0 -0.10643503546E+03 -0.49628354827E+03 -0.24361753701E+03  0.86647878662E+03  0.65864270000E+03 0.  1.
    8880022    1    1    2    0    0  0.10643503546E+03  0.49628354827E+03  0.17553721337E+04  0.18336708423E+04  0.15294330000E+03 0.  0.
<mgrwt>
<rscale>  0 0.74301683E+03</rscale>
<asrwt>0</asrwt>
<pdfrwt beam="1">  1        2 0.32399264E+00 0.83152630E+03</pdfrwt>
<pdfrwt beam="2">  1       -2 0.91415002E-01 0.83152630E+03</pdfrwt>
<totfact> 0.60952470E+00</totfact>
</mgrwt>
</event>
<event>
 4    5  0.8119447E-008  0.1225954E+04  0.7818608E-02  0.9132297E-01
         -2   -1    0    0    0  501 -0.00000000000E+00  0.00000000000E+00  0.14841752586E+04  0.14841752586E+04  0.25500000000E-02 0.  1.
          2   -1    0    0  501    0  0.00000000000E+00 -0.00000000000E+00 -0.28595911686E+04  0.28595911686E+04  0.25500000000E-02 0. -1.
    8880023    1    1    2    0    0  0.64595084826E+03 -0.80740425206E+03  0.11060430641E+04  0.16511497784E+04  0.65864270000E+03 0.  1.
    8880022    1    1    2    0    0 -0.64595084826E+03  0.80740425206E+03 -0.24814589740E+04  0.26926166488E+04  0.15294330000E+03 0.  0.
<mgrwt>
<rscale>  0 0.11780418E+04</rscale>
<asrwt>0</asrwt>
<pdfrwt beam="1">  1        2 0.43993710E+00 0.12259545E+04</pdfrwt>
<pdfrwt beam="2">  1       -2 0.22833466E+00 0.12259545E+04</pdfrwt>
<totfact> 0.18202979E-01</totfact>
</mgrwt>
</event>
<event>
 4    5  0.7289609E-008  0.1126148E+04  0.7818608E-02  0.9232487E-01
          2   -1    0    0  501    0  0.00000000000E+00  0.00000000000E+00  0.12516937739E+04  0.12516937739E+04  0.25500000000E-02 0. -1.
         -2   -1    0    0    0  501 -0.00000000000E+00 -0.00000000000E+00 -0.97981547230E+03  0.97981547230E+03  0.25500000000E-02 0.  1.
    8880023    1    1    2    0    0 -0.43703927328E+03  0.80211997068E+03 -0.27054454306E+03  0.11581901095E+04  0.65864270000E+03 0. -1.
    8880022    1    1    2    0    0  0.43703927328E+03 -0.80211997068E+03  0.54242284466E+03  0.10733191367E+04  0.15294330000E+03 0.  0.
<mgrwt>
<rscale>  0 0.10724311E+04</rscale>
<asrwt>0</asrwt>
<pdfrwt beam="1">  1        2 0.19256827E+00 0.11261483E+04</pdfrwt>
<pdfrwt beam="2">  1       -2 0.15074084E+00 0.11261483E+04</pdfrwt>
<totfact> 0.51100848E+00</totfact>
</mgrwt>
</event>
<event>
 4    5  0.7289609E-008  0.7868281E+03  0.7818608E-02  0.9740035E-01
         -2   -1    0    0    0  501 -0.00000000000E+00  0.00000000000E+00  0.51032467217E+03  0.51032467217E+03  0.25500000000E-02 0.  1.
          2   -1    0    0  501    0  0.00000000000E+00 -0.00000000000E+00 -0.19099205642E+04  0.19099205642E+04  0.25500000000E-02 0. -1.
    8880023    1    1    2    0    0  0.17881532095E+03  0.39155255166E+03  0.15323888265E+03  0.80161130302E+03  0.65864270000E+03 0.  1.
    8880022    1    1    2    0    0 -0.17881532095E+03 -0.39155255166E+03 -0.15528347747E+04  0.16186339334E+04  0.15294330000E+03 0.  0.
<mgrwt>
<rscale>  0 0.68682328E+03</rscale>
<asrwt>0</asrwt>
<pdfrwt beam="1">  1        2 0.29383393E+00 0.78682814E+03</pdfrwt>
<pdfrwt beam="2">  1       -2 0.78511489E-01 0.78682814E+03</pdfrwt>
<totfact> 0.11110401E+01</totfact>
</mgrwt>
</event>
<event>
 4    5  0.7289609E-008  0.1805466E+04  0.7818608E-02  0.8719519E-01
         -2   -1    0    0    0  501 -0.00000000000E+00  0.00000000000E+00  0.22749102466E+04  0.22749102466E+04  0.25500000000E-02 0.  1.
          2   -1    0    0  501    0  0.00000000000E+00 -0.00000000000E+00 -0.14861389532E+04  0.14861389532E+04  0.25500000000E-02 0. -1.
    8880023    1    1    2    0    0 -0.16388412550E+04 -0.37429718754E+03  0.99338409852E+03  0.20607089113E+04  0.65864270000E+03 0.  0.
    8880022    1    1    2    0    0  0.16388412550E+04  0.37429718754E+03 -0.20461280513E+03  0.17003402885E+04  0.15294330000E+03 0.  0.
<mgrwt>
<rscale>  0 0.17753508E+04</rscale>
<asrwt>0</asrwt>
<pdfrwt beam="1">  1        2 0.22863676E+00 0.18054665E+04</pdfrwt>
<pdfrwt beam="2">  1       -2 0.34998619E+00 0.18054665E+04</pdfrwt>
<totfact> 0.18352627E-01</totfact>
</mgrwt>
</event>
<event>
 4    5  0.7289609E-008  0.9588993E+03  0.7818608E-02  0.9437424E-01
         -2   -1    0    0    0  501 -0.00000000000E+00  0.00000000000E+00  0.37417852503E+03  0.37417852504E+03  0.25500000000E-02 0.  1.
          2   -1    0    0  501    0  0.00000000000E+00 -0.00000000000E+00 -0.23510940593E+04  0.23510940593E+04  0.25500000000E-02 0. -1.
    8880023    1    1    2    0    0 -0.32798354228E+02  0.69613351822E+03 -0.49181109105E+03  0.10776669072E+04  0.65864270000E+03 0.  1.
    8880022    1    1    2    0    0  0.32798354228E+02 -0.69613351822E+03 -0.14851044432E+04  0.16476056772E+04  0.15294330000E+03 0.  0.
<mgrwt>
<rscale>  0 0.89058802E+03</rscale>
<asrwt>0</asrwt>
<pdfrwt beam="1">  1        2 0.36170677E+00 0.95889927E+03</pdfrwt>
<pdfrwt beam="2">  1       -2 0.57565929E-01 0.95889927E+03</pdfrwt>
<totfact> 0.12152686E+01</totfact>
</mgrwt>
</event>
<event>
 4    5  0.7289609E-008  0.7484368E+03  0.7818608E-02  0.9836020E-01
         -2   -1    0    0    0  501 -0.00000000000E+00  0.00000000000E+00  0.12825419921E+04  0.12825419921E+04  0.25500000000E-02 0.  1.
          2   -1    0    0  501    0  0.00000000000E+00 -0.00000000000E+00 -0.33068498784E+03  0.33068498785E+03  0.25500000000E-02 0. -1.
    8880023    1    1    2    0    0 -0.16961511613E+03 -0.31237489499E+03  0.97079086279E+03  0.12258027852E+04  0.65864270000E+03 0.  1.
    8880022    1    1    2    0    0  0.16961511613E+03  0.31237489499E+03 -0.18933858575E+02  0.38742419472E+03  0.15294330000E+03 0.  0.
<mgrwt>
<rscale>  0 0.63464842E+03</rscale>
<asrwt>0</asrwt>
<pdfrwt beam="1">  1        2 0.50874614E-01 0.74843675E+03</pdfrwt>
<pdfrwt beam="2">  1       -2 0.19731415E+00 0.74843675E+03</pdfrwt>
<totfact> 0.13882098E+01</totfact>
</mgrwt>
</event>
<event>
 4    5  0.7289609E-008  0.9095814E+03  0.7818608E-02  0.9510822E-01
         -2   -1    0    0    0  501 -0.00000000000E+00  0.00000000000E+00  0.12174522250E+04  0.12174522250E+04  0.25500000000E-02 0.  1.
          2   -1    0    0  501    0  0.00000000000E+00 -0.00000000000E+00 -0.13256851288E+04  0.13256851288E+04  0.25500000000E-02 0. -1.
    8880023    1    1    2    0    0 -0.54695813731E+03 -0.30718864635E+03  0.94252507141E+03  0.13098441835E+04  0.65864270000E+03 0.  0.
    8880022    1    1    2    0    0  0.54695813731E+03  0.30718864635E+03 -0.10507579752E+04  0.12332931703E+04  0.15294330000E+03 0.  0.
<mgrwt>
<rscale>  0 0.83490627E+03</rscale>
<asrwt>0</asrwt>
<pdfrwt beam="1">  1        2 0.20395156E+00 0.90958137E+03</pdfrwt>
<pdfrwt beam="2">  1       -2 0.18730034E+00 0.90958137E+03</pdfrwt>
<totfact> 0.25905400E+00</totfact>
</mgrwt>
</event>
<event>
 4    5  0.7289609E-008  0.7134340E+03  0.7818608E-02  0.9945464E-01
         -2   -1    0    0    0  501 -0.00000000000E+00  0.00000000000E+00  0.64373447709E+03  0.64373447709E+03  0.25500000000E-02 0.  1.
          2   -1    0    0  501    0  0.00000000000E+00 -0.00000000000E+00 -0.13577303976E+04  0.13577303976E+04  0.25500000000E-02 0. -1.
    8880023    1    1    2    0    0  0.15561956771E+03  0.22574398358E+03  0.41791068550E+03  0.82682364703E+03  0.65864270000E+03 0.  1.
    8880022    1    1    2    0    0 -0.15561956771E+03 -0.22574398358E+03 -0.11319066060E+04  0.11746412277E+04  0.15294330000E+03 0.  0.
<mgrwt>
<rscale>  0 0.58107624E+03</rscale>
<asrwt>0</asrwt>
<pdfrwt beam="1">  1        2 0.20888160E+00 0.71343395E+03</pdfrwt>
<pdfrwt beam="2">  1       -2 0.99036073E-01 0.71343395E+03</pdfrwt>
<totfact> 0.13279851E+01</totfact>
</mgrwt>
</event>
<event>
 4    5  0.7289609E-008  0.7157771E+03  0.7818608E-02  0.9937143E-01
         -2   -1    0    0    0  501 -0.00000000000E+00  0.00000000000E+00  0.84861875923E+03  0.84861875923E+03  0.25500000000E-02 0.  1.
          2   -1    0    0  501    0  0.00000000000E+00 -0.00000000000E+00 -0.11256785606E+04  0.11256785606E+04  0.25500000000E-02 0. -1.
    8880023    1    1    2    0    0 -0.11998421352E+03 -0.25323985097E+03  0.66659505919E+03  0.97810317084E+03  0.65864270000E+03 0.  1.
    8880022    1    1    2    0    0  0.11998421352E+03  0.25323985097E+03 -0.94365486060E+03  0.99619414903E+03  0.15294330000E+03 0.  0.
<mgrwt>
<rscale>  0 0.58494477E+03</rscale>
<asrwt>0</asrwt>
<pdfrwt beam="1">  1        2 0.17318132E+00 0.71577709E+03</pdfrwt>
<pdfrwt beam="2">  1       -2 0.13055673E+00 0.71577709E+03</pdfrwt>
<totfact> 0.92379176E+00</totfact>
</mgrwt>
</event>
<event>
 4    5  0.7289609E-008  0.1003988E+04  0.7818608E-02  0.9376359E-01
          2   -1    0    0  501    0  0.00000000000E+00  0.00000000000E+00  0.21977880810E+04  0.21977880810E+04  0.25500000000E-02 0. -1.
         -2   -1    0    0    0  501 -0.00000000000E+00 -0.00000000000E+00 -0.10988133662E+04  0.10988133662E+04  0.25500000000E-02 0.  1.
    8880023    1    1    2    0    0 -0.71011343812E+03 -0.26442480056E+03 -0.77573882054E+03  0.12687641602E+04  0.65864270000E+03 0.  0.
    8880022    1    1    2    0    0  0.71011343812E+03  0.26442480056E+03  0.18747135354E+04  0.20278372871E+04  0.15294330000E+03 0.  0.
<mgrwt>
<rscale>  0 0.94047068E+03</rscale>
<asrwt>0</asrwt>
<pdfrwt beam="1">  1        2 0.33812124E+00 0.10039879E+04</pdfrwt>
<pdfrwt beam="2">  1       -2 0.16904821E+00 0.10039879E+04</pdfrwt>
<totfact> 0.11209455E+00</totfact>
</mgrwt>
</event>
<event>
 4    5  0.7289609E-008  0.9756168E+03  0.7818608E-02  0.9414177E-01
         -2   -1    0    0    0  501 -0.00000000000E+00  0.00000000000E+00  0.24433046315E+03  0.24433046317E+03  0.25500000000E-02 0.  1.
          2   -1    0    0  501    0  0.00000000000E+00 -0.00000000000E+00 -0.45590992779E+04  0.45590992779E+04  0.25500000000E-02 0. -1.
    8880023    1    1    2    0    0 -0.52929763430E+03  0.48771100257E+03 -0.95933280430E+03  0.13682644640E+04  0.65864270000E+03 0.  0.
    8880022    1    1    2    0    0  0.52929763430E+03 -0.48771100257E+03 -0.33554360104E+04  0.34351652771E+04  0.15294330000E+03 0.  0.
<mgrwt>
<rscale>  0 0.90918072E+03</rscale>
<asrwt>0</asrwt>
<pdfrwt beam="1">  1        2 0.70139983E+00 0.97561684E+03</pdfrwt>
<pdfrwt beam="2">  1       -2 0.37589305E-01 0.97561684E+03</pdfrwt>
<totfact> 0.77856468E-01</totfact>
</mgrwt>
</event>
<event>
 4    5  0.7289609E-008  0.6813316E+03  0.7818608E-02  0.1008580E+00
          2   -1    0    0  501    0  0.00000000000E+00  0.00000000000E+00  0.20962985140E+04  0.20962985140E+04  0.25500000000E-02 0. -1.
         -2   -1    0    0    0  501 -0.00000000000E+00 -0.00000000000E+00 -0.54636044245E+03  0.54636044245E+03  0.25500000000E-02 0.  1.
    8880023    1    1    2    0    0 -0.17312223813E+03  0.20767708856E+02 -0.32398321983E+03  0.75443882460E+03  0.65864270000E+03 0.  1.
    8880022    1    1    2    0    0  0.17312223813E+03 -0.20767708856E+02  0.18739212913E+04  0.18882201318E+04  0.15294330000E+03 0.  0.
<mgrwt>
<rscale>  0 0.52042831E+03</rscale>
<asrwt>0</asrwt>
<pdfrwt beam="1">  1        2 0.32250746E+00 0.68133165E+03</pdfrwt>
<pdfrwt beam="2">  1       -2 0.84055454E-01 0.68133165E+03</pdfrwt>
<totfact> 0.76631022E+00</totfact>
</mgrwt>
</event>
<event>
 4    5  0.7289609E-008  0.8254237E+03  0.7818608E-02  0.9658303E-01
         -2   -1    0    0    0  501 -0.00000000000E+00  0.00000000000E+00  0.19184274340E+03  0.19184274341E+03  0.25500000000E-02 0.  1.
          2   -1    0    0  501    0  0.00000000000E+00 -0.00000000000E+00 -0.30749616843E+04  0.30749616843E+04  0.25500000000E-02 0. -1.
    8880023    1    1    2    0    0  0.49735080466E+03  0.12500453349E+02 -0.92068890009E+03  0.12365242987E+04  0.65864270000E+03 0.  0.
    8880022    1    1    2    0    0 -0.49735080466E+03 -0.12500453349E+02 -0.19624300408E+04  0.20302801291E+04  0.15294330000E+03 0.  0.
<mgrwt>
<rscale>  0 0.73554624E+03</rscale>
<asrwt>0</asrwt>
<pdfrwt beam="1">  1        2 0.47307099E+00 0.82542370E+03</pdfrwt>
<pdfrwt beam="2">  1       -2 0.29514270E-01 0.82542370E+03</pdfrwt>
<totfact> 0.17315564E+01</totfact>
</mgrwt>
</event>
<event>
 4    5  0.7307803E-008  0.1068760E+04  0.7818608E-02  0.9296662E-01
          2   -1    0    0  501    0  0.00000000000E+00  0.00000000000E+00  0.36809874994E+04  0.36809874994E+04  0.25500000000E-02 0. -1.
         -2   -1    0    0    0  501 -0.00000000000E+00 -0.00000000000E+00 -0.13778022240E+04  0.13778022240E+04  0.25500000000E-02 0.  1.
    8880023    1    1    2    0    0 -0.52381330040E+03  0.65882999009E+03 -0.11094907553E+04  0.15405249988E+04  0.65864270000E+03 0.  0.
    8880022    1    1    2    0    0  0.52381330040E+03 -0.65882999009E+03  0.34126760306E+04  0.35182647246E+04  0.15294330000E+03 0.  0.
<mgrwt>
<rscale>  0 0.10109072E+04</rscale>
<asrwt>0</asrwt>
<pdfrwt beam="1">  1        2 0.56630577E+00 0.10687598E+04</pdfrwt>
<pdfrwt beam="2">  1       -2 0.21196957E+00 0.10687598E+04</pdfrwt>
<totfact> 0.68585666E-02</totfact>
</mgrwt>
</event>
<event>
 4    5  0.7289609E-008  0.7141276E+03  0.7818608E-02  0.9942981E-01
         -2   -1    0    0    0  501 -0.00000000000E+00  0.00000000000E+00  0.52965094950E+03  0.52965094951E+03  0.25500000000E-02 0.  1.
          2   -1    0    0  501    0  0.00000000000E+00 -0.00000000000E+00 -0.13518467811E+04  0.13518467812E+04  0.25500000000E-02 0. -1.
    8880023    1    1    2    0    0 -0.50200760621E+01 -0.27593984380E+03  0.25557911631E+03  0.75848460071E+03  0.65864270000E+03 0. -1.
    8880022    1    1    2    0    0  0.50200760621E+01  0.27593984380E+03 -0.10777749480E+04  0.11230131299E+04  0.15294330000E+03 0.  0.
<mgrwt>
<rscale>  0 0.58222691E+03</rscale>
<asrwt>0</asrwt>
<pdfrwt beam="1">  1        2 0.20797643E+00 0.71412758E+03</pdfrwt>
<pdfrwt beam="2">  1       -2 0.81484762E-01 0.71412758E+03</pdfrwt>
<totfact> 0.20980875E+01</totfact>
</mgrwt>
</event>
<event>
 4    5  0.7289609E-008  0.1184682E+04  0.7818608E-02  0.9172158E-01
          2   -1    0    0  501    0  0.00000000000E+00  0.00000000000E+00  0.22803387270E+04  0.22803387270E+04  0.25500000000E-02 0. -1.
         -2   -1    0    0    0  501 -0.00000000000E+00 -0.00000000000E+00 -0.75224997751E+03  0.75224997752E+03  0.25500000000E-02 0.  1.
    8880023    1    1    2    0    0 -0.97771378977E+03  0.11720231068E+03 -0.27710201165E+02  0.11850057797E+04  0.65864270000E+03 0.  0.
    8880022    1    1    2    0    0  0.97771378977E+03 -0.11720231068E+03  0.15557989507E+04  0.18475829249E+04  0.15294330000E+03 0.  0.
<mgrwt>
<rscale>  0 0.11345478E+04</rscale>
<asrwt>0</asrwt>
<pdfrwt beam="1">  1        2 0.35082134E+00 0.11846817E+04</pdfrwt>
<pdfrwt beam="2">  1       -2 0.11573077E+00 0.11846817E+04</pdfrwt>
<totfact> 0.26484373E+00</totfact>
</mgrwt>
</event>
<event>
 4    5  0.7289609E-008  0.6663270E+03  0.7818608E-02  0.1018445E+00
          2   -1    0    0  501    0  0.00000000000E+00  0.00000000000E+00  0.26049290522E+04  0.26049290522E+04  0.25500000000E-02 0. -1.
         -2   -1    0    0    0  501 -0.00000000000E+00 -0.00000000000E+00 -0.19375015201E+03  0.19375015203E+03  0.25500000000E-02 0.  1.
    8880023    1    1    2    0    0  0.29310718813E+02  0.96552206772E+02  0.39585659027E+03  0.77504457497E+03  0.65864270000E+03 0.  1.
    8880022    1    1    2    0    0 -0.29310718813E+02 -0.96552206772E+02  0.20153223099E+04  0.20236346292E+04  0.15294330000E+03 0.  0.
<mgrwt>
<rscale>  0 0.48251907E+03</rscale>
<asrwt>0</asrwt>
<pdfrwt beam="1">  1        2 0.40075831E+00 0.66632699E+03</pdfrwt>
<pdfrwt beam="2">  1       -2 0.29807716E-01 0.66632699E+03</pdfrwt>
<totfact> 0.33219706E+01</totfact>
</mgrwt>
</event>
<event>
 4    5  0.7289609E-008  0.7129418E+03  0.7818608E-02  0.9947235E-01
         -2   -1    0    0    0  501 -0.00000000000E+00  0.00000000000E+00  0.44583311011E+03  0.44583311012E+03  0.25500000000E-02 0.  1.
          2   -1    0    0  501    0  0.00000000000E+00 -0.00000000000E+00 -0.22006809142E+04  0.22006809142E+04  0.25500000000E-02 0. -1.
    8880023    1    1    2    0    0  0.86623844845E+02  0.25878967353E+03  0.13953995310E+03  0.72646912556E+03  0.65864270000E+03 0.  1.
    8880022    1    1    2    0    0 -0.86623844845E+02 -0.25878967353E+03 -0.18943877571E+04  0.19200448987E+04  0.15294330000E+03 0.  0.
<mgrwt>
<rscale>  0 0.58025692E+03</rscale>
<asrwt>0</asrwt>
<pdfrwt beam="1">  1        2 0.33856629E+00 0.71294179E+03</pdfrwt>
<pdfrwt beam="2">  1       -2 0.68589711E-01 0.71294179E+03</pdfrwt>
<totfact> 0.10492906E+01</totfact>
</mgrwt>
</event>
<event>
 4    5  0.7289609E-008  0.9418930E+03  0.7818608E-02  0.9461875E-01
         -2   -1    0    0    0  501 -0.00000000000E+00  0.00000000000E+00  0.72087961431E+03  0.72087961431E+03  0.25500000000E-02 0.  1.
          2   -1    0    0  501    0  0.00000000000E+00 -0.00000000000E+00 -0.13916105719E+04  0.13916105719E+04  0.25500000000E-02 0. -1.
    8880023    1    1    2    0    0 -0.66418225824E+03 -0.11051788271E+03  0.23771779493E+03  0.97142793395E+03  0.65864270000E+03 0.  1.
    8880022    1    1    2    0    0  0.66418225824E+03  0.11051788271E+03 -0.90844875249E+03  0.11410622522E+04  0.15294330000E+03 0.  0.
<mgrwt>
<rscale>  0 0.87153902E+03</rscale>
<asrwt>0</asrwt>
<pdfrwt beam="1">  1        2 0.21409393E+00 0.94189303E+03</pdfrwt>
<pdfrwt beam="2">  1       -2 0.11090456E+00 0.94189303E+03</pdfrwt>
<totfact> 0.94236463E+00</totfact>
</mgrwt>
</event>
<event>
 4    5  0.7289609E-008  0.1282138E+04  0.7818608E-02  0.9081141E-01
         -2   -1    0    0    0  501 -0.00000000000E+00  0.00000000000E+00  0.10749255173E+04  0.10749255173E+04  0.25500000000E-02 0.  1.
          2   -1    0    0  501    0  0.00000000000E+00 -0.00000000000E+00 -0.13969023742E+04  0.13969023742E+04  0.25500000000E-02 0. -1.
    8880023    1    1    2    0    0 -0.10114960102E+04  0.43236876132E+03  0.94686697136E+02  0.12856293016E+04  0.65864270000E+03 0.  0.
    8880022    1    1    2    0    0  0.10114960102E+04 -0.43236876132E+03 -0.41666355400E+03  0.11861985899E+04  0.15294330000E+03 0.  0.
<mgrwt>
<rscale>  0 0.12369199E+04</rscale>
<asrwt>0</asrwt>
<pdfrwt beam="1">  1        2 0.21490806E+00 0.12821377E+04</pdfrwt>
<pdfrwt beam="2">  1       -2 0.16537316E+00 0.12821377E+04</pdfrwt>
<totfact> 0.32220368E+00</totfact>
</mgrwt>
</event>
<event>
 4    5  0.7289609E-008  0.7282545E+03  0.7818608E-02  0.9895585E-01
          2   -1    0    0  501    0  0.00000000000E+00  0.00000000000E+00  0.10189793866E+04  0.10189793866E+04  0.25500000000E-02 0. -1.
         -2   -1    0    0    0  501 -0.00000000000E+00 -0.00000000000E+00 -0.30319275338E+03  0.30319275340E+03  0.25500000000E-02 0.  1.
    8880023    1    1    2    0    0 -0.17512503545E+03 -0.25666243973E+03  0.31772510516E+03  0.79454630748E+03  0.65864270000E+03 0.  0.
    8880022    1    1    2    0    0  0.17512503545E+03  0.25666243973E+03  0.39806152803E+03  0.52762583250E+03  0.15294330000E+03 0.  0.
<mgrwt>
<rscale>  0 0.60475726E+03</rscale>
<asrwt>0</asrwt>
<pdfrwt beam="1">  1        2 0.15676606E+00 0.72825448E+03</pdfrwt>
<pdfrwt beam="2">  1       -2 0.46645039E-01 0.72825448E+03</pdfrwt>
<totfact> 0.10831602E+02</totfact>
</mgrwt>
</event>
<event>
 4    5  0.7289609E-008  0.1185763E+04  0.7818608E-02  0.9171088E-01
         -2   -1    0    0    0  501 -0.00000000000E+00  0.00000000000E+00  0.10509117784E+04  0.10509117784E+04  0.25500000000E-02 0.  1.
          2   -1    0    0  501    0  0.00000000000E+00 -0.00000000000E+00 -0.12923988757E+04  0.12923988757E+04  0.25500000000E-02 0. -1.
    8880023    1    1    2    0    0 -0.21818669008E+03  0.96157015274E+03  0.27866567710E+03  0.12180670574E+04  0.65864270000E+03 0.  0.
    8880022    1    1    2    0    0  0.21818669008E+03 -0.96157015274E+03 -0.52015277435E+03  0.11252435968E+04  0.15294330000E+03 0.  0.
<mgrwt>
<rscale>  0 0.11356897E+04</rscale>
<asrwt>0</asrwt>
<pdfrwt beam="1">  1        2 0.19883060E+00 0.11857625E+04</pdfrwt>
<pdfrwt beam="2">  1       -2 0.16167873E+00 0.11857625E+04</pdfrwt>
<totfact> 0.39785433E+00</totfact>
</mgrwt>
</event>
<event>
 4    5  0.7289609E-008  0.1273128E+04  0.7818608E-02  0.9089120E-01
          2   -1    0    0  501    0  0.00000000000E+00  0.00000000000E+00  0.30166488392E+04  0.30166488392E+04  0.25500000000E-02 0. -1.
         -2   -1    0    0    0  501 -0.00000000000E+00 -0.00000000000E+00 -0.85407597615E+03  0.85407597615E+03  0.25500000000E-02 0.  1.
    8880023    1    1    2    0    0  0.10527561694E+04 -0.28062374643E+03 -0.17700084110E+03  0.12853733867E+04  0.65864270000E+03 0.  0.
    8880022    1    1    2    0    0 -0.10527561694E+04  0.28062374643E+03  0.23395737042E+04  0.25853514286E+04  0.15294330000E+03 0.  0.
<mgrwt>
<rscale>  0 0.12275011E+04</rscale>
<asrwt>0</asrwt>
<pdfrwt beam="1">  1        2 0.46409982E+00 0.12731282E+04</pdfrwt>
<pdfrwt beam="2">  1       -2 0.13139630E+00 0.12731282E+04</pdfrwt>
<totfact> 0.70197771E-01</totfact>
</mgrwt>
</event>
<event>
 4    5  0.7289609E-008  0.8212731E+03  0.7818608E-02  0.9666557E-01
         -2   -1    0    0    0  501 -0.00000000000E+00  0.00000000000E+00  0.42569072907E+03  0.42569072908E+03  0.25500000000E-02 0.  1.
          2   -1    0    0  501    0  0.00000000000E+00 -0.00000000000E+00 -0.23120673266E+04  0.23120673266E+04  0.25500000000E-02 0. -1.
    8880023    1    1    2    0    0 -0.59225570954E+02  0.48700265459E+03 -0.41140092077E+02  0.82230284402E+03  0.65864270000E+03 0.  0.
    8880022    1    1    2    0    0  0.59225570954E+02 -0.48700265459E+03 -0.18452365055E+04  0.19154552117E+04  0.15294330000E+03 0.  0.
<mgrwt>
<rscale>  0 0.73043363E+03</rscale>
<asrwt>0</asrwt>
<pdfrwt beam="1">  1        2 0.35570266E+00 0.82127307E+03</pdfrwt>
<pdfrwt beam="2">  1       -2 0.65490883E-01 0.82127307E+03</pdfrwt>
<totfact> 0.98930222E+00</totfact>
</mgrwt>
</event>
<event>
 4    5  0.7289609E-008  0.9325860E+03  0.7818608E-02  0.9475625E-01
         -2   -1    0    0    0  501 -0.00000000000E+00  0.00000000000E+00  0.68507164072E+03  0.68507164073E+03  0.25500000000E-02 0.  1.
          2   -1    0    0  501    0  0.00000000000E+00 -0.00000000000E+00 -0.14454513714E+04  0.14454513714E+04  0.25500000000E-02 0. -1.
    8880023    1    1    2    0    0 -0.32350240372E+03 -0.57554551981E+03  0.20127087076E+03  0.95405797532E+03  0.65864270000E+03 0.  1.
    8880022    1    1    2    0    0  0.32350240372E+03  0.57554551981E+03 -0.96165060147E+03  0.11764650368E+04  0.15294330000E+03 0.  0.
<mgrwt>
<rscale>  0 0.86105026E+03</rscale>
<asrwt>0</asrwt>
<pdfrwt beam="1">  1        2 0.22237713E+00 0.93258601E+03</pdfrwt>
<pdfrwt beam="2">  1       -2 0.10539564E+00 0.93258601E+03</pdfrwt>
<totfact> 0.99462803E+00</totfact>
</mgrwt>
</event>
<event>
 4    5  0.7289609E-008  0.6990049E+03  0.7818608E-02  0.1000135E+00
          2   -1    0    0  501    0  0.00000000000E+00  0.00000000000E+00  0.87115410423E+03  0.87115410423E+03  0.25500000000E-02 0. -1.
         -2   -1    0    0    0  501 -0.00000000000E+00 -0.00000000000E+00 -0.76970662773E+03  0.76970662773E+03  0.25500000000E-02 0.  1.
    8880023    1    1    2    0    0  0.23141835859E+03 -0.35259718047E+02 -0.57742387333E+03  0.90665662748E+03  0.65864270000E+03 0.  1.
    8880022    1    1    2    0    0 -0.23141835859E+03  0.35259718047E+02  0.67887134983E+03  0.73420410448E+03  0.15294330000E+03 0.  0.
<mgrwt>
<rscale>  0 0.55590892E+03</rscale>
<asrwt>0</asrwt>
<pdfrwt beam="1">  1        2 0.13402371E+00 0.69900494E+03</pdfrwt>
<pdfrwt beam="2">  1       -2 0.11841640E+00 0.69900494E+03</pdfrwt>
<totfact> 0.17191626E+01</totfact>
</mgrwt>
</event>
<event>
 4    5  0.7289609E-008  0.1078506E+04  0.7818608E-02  0.9285373E-01
          2   -1    0    0  501    0  0.00000000000E+00  0.00000000000E+00  0.34239964388E+04  0.34239964388E+04  0.25500000000E-02 0. -1.
         -2   -1    0    0    0  501 -0.00000000000E+00 -0.00000000000E+00 -0.31476595621E+03  0.31476595622E+03  0.25500000000E-02 0.  1.
    8880023    1    1    2    0    0 -0.85330725449E+03  0.35103921790E+02  0.23507615998E+04  0.25863595769E+04  0.65864270000E+03 0.  0.
    8880022    1    1    2    0    0  0.85330725449E+03 -0.35103921790E+02  0.75846888276E+03  0.11524028180E+04  0.15294330000E+03 0.  0.
<mgrwt>
<rscale>  0 0.10214071E+04</rscale>
<asrwt>0</asrwt>
<pdfrwt beam="1">  1        2 0.52676864E+00 0.10785063E+04</pdfrwt>
<pdfrwt beam="2">  1       -2 0.48425535E-01 0.10785063E+04</pdfrwt>
<totfact> 0.37925528E+00</totfact>
</mgrwt>
</event>
<event>
 4    5  0.7289609E-008  0.1376437E+04  0.7818608E-02  0.9002212E-01
         -2   -1    0    0    0  501 -0.00000000000E+00  0.00000000000E+00  0.47919289254E+03  0.47919289255E+03  0.25500000000E-02 0.  1.
          2   -1    0    0  501    0  0.00000000000E+00 -0.00000000000E+00 -0.38485146406E+04  0.38485146406E+04  0.25500000000E-02 0. -1.
    8880023    1    1    2    0    0 -0.40795424563E+03  0.11376913720E+04 -0.11399930274E+04  0.17872220437E+04  0.65864270000E+03 0.  0.
    8880022    1    1    2    0    0  0.40795424563E+03 -0.11376913720E+04 -0.22293287207E+04  0.25404854895E+04  0.15294330000E+03 0.  0.
<mgrwt>
<rscale>  0 0.13350647E+04</rscale>
<asrwt>0</asrwt>
<pdfrwt beam="1">  1        2 0.59207915E+00 0.13764369E+04</pdfrwt>
<pdfrwt beam="2">  1       -2 0.73721986E-01 0.13764369E+04</pdfrwt>
<totfact> 0.73915471E-01</totfact>
</mgrwt>
</event>
<event>
 4    5  0.7289609E-008  0.7102707E+03  0.7818608E-02  0.9956997E-01
          2   -1    0    0  501    0  0.00000000000E+00  0.00000000000E+00  0.14026150597E+04  0.14026150597E+04  0.25500000000E-02 0. -1.
         -2   -1    0    0    0  501 -0.00000000000E+00 -0.00000000000E+00 -0.76357586440E+03  0.76357586440E+03  0.25500000000E-02 0.  1.
    8880023    1    1    2    0    0  0.20686579572E+03  0.16697560313E+03 -0.57510427160E+03  0.91390887891E+03  0.65864270000E+03 0.  1.
    8880022    1    1    2    0    0 -0.20686579572E+03 -0.16697560313E+03  0.12141434669E+04  0.12522820452E+04  0.15294330000E+03 0.  0.
<mgrwt>
<rscale>  0 0.57576731E+03</rscale>
<asrwt>0</asrwt>
<pdfrwt beam="1">  1        2 0.21578693E+00 0.71027073E+03</pdfrwt>
<pdfrwt beam="2">  1       -2 0.11747321E+00 0.71027073E+03</pdfrwt>
<totfact> 0.83044475E+00</totfact>
</mgrwt>
</event>
<event>
 4    5  0.7289609E-008  0.8444491E+03  0.7818608E-02  0.9621847E-01
          2   -1    0    0  501    0  0.00000000000E+00  0.00000000000E+00  0.27124485115E+04  0.27124485115E+04  0.25500000000E-02 0. -1.
         -2   -1    0    0    0  501 -0.00000000000E+00 -0.00000000000E+00 -0.20095393284E+03  0.20095393286E+03  0.25500000000E-02 0.  1.
    8880023    1    1    2    0    0 -0.18735393945E+03 -0.49414836913E+03  0.10231090286E+04  0.13265920247E+04  0.65864270000E+03 0.  0.
    8880022    1    1    2    0    0  0.18735393945E+03  0.49414836913E+03  0.14883855501E+04  0.15868104197E+04  0.15294330000E+03 0.  0.
<mgrwt>
<rscale>  0 0.75866897E+03</rscale>
<asrwt>0</asrwt>
<pdfrwt beam="1">  1        2 0.41729976E+00 0.84444912E+03</pdfrwt>
<pdfrwt beam="2">  1       -2 0.30915990E-01 0.84444912E+03</pdfrwt>
<totfact> 0.26194700E+01</totfact>
</mgrwt>
</event>
<event>
 4    5  0.7289609E-008  0.7510247E+03  0.7818608E-02  0.9828923E-01
         -2   -1    0    0    0  501 -0.00000000000E+00  0.00000000000E+00  0.54116857739E+03  0.54116857740E+03  0.25500000000E-02 0.  1.
          2   -1    0    0  501    0  0.00000000000E+00 -0.00000000000E+00 -0.20456864317E+04  0.20456864317E+04  0.25500000000E-02 0. -1.
    8880023    1    1    2    0    0 -0.18517330116E+03  0.30973981494E+03  0.24810194729E+03  0.79094417435E+03  0.65864270000E+03 0.  1.
    8880022    1    1    2    0    0  0.18517330116E+03 -0.30973981494E+03 -0.17526198016E+04  0.17959108347E+04  0.15294330000E+03 0.  0.
<mgrwt>
<rscale>  0 0.63833180E+03</rscale>
<asrwt>0</asrwt>
<pdfrwt beam="1">  1        2 0.31472099E+00 0.75102471E+03</pdfrwt>
<pdfrwt beam="2">  1       -2 0.83256705E-01 0.75102471E+03</pdfrwt>
<totfact> 0.82493981E+00</totfact>
</mgrwt>
</event>
<event>
 4    5  0.7289609E-008  0.1005669E+04  0.7818608E-02  0.9374178E-01
          2   -1    0    0  501    0  0.00000000000E+00  0.00000000000E+00  0.20156181135E+04  0.20156181135E+04  0.25500000000E-02 0. -1.
         -2   -1    0    0    0  501 -0.00000000000E+00 -0.00000000000E+00 -0.42662393643E+03  0.42662393644E+03  0.25500000000E-02 0.  1.
    8880023    1    1    2    0    0 -0.22169797651E+03  0.72691846249E+03  0.12275784584E+04  0.15869213974E+04  0.65864270000E+03 0. -1.
    8880022    1    1    2    0    0  0.22169797651E+03 -0.72691846249E+03  0.36141571872E+03  0.85532065253E+03  0.15294330000E+03 0.  0.
<mgrwt>
<rscale>  0 0.94231556E+03</rscale>
<asrwt>0</asrwt>
<pdfrwt beam="1">  1        2 0.31009509E+00 0.10056693E+04</pdfrwt>
<pdfrwt beam="2">  1       -2 0.65634452E-01 0.10056693E+04</pdfrwt>
<totfact> 0.14041079E+01</totfact>
</mgrwt>
</event>
<event>
 4    5  0.7289609E-008  0.1093199E+04  0.7818608E-02  0.9268666E-01
          2   -1    0    0  501    0  0.00000000000E+00  0.00000000000E+00  0.28096450555E+04  0.28096450555E+04  0.25500000000E-02 0. -1.
         -2   -1    0    0    0  501 -0.00000000000E+00 -0.00000000000E+00 -0.54801337233E+03  0.54801337234E+03  0.25500000000E-02 0.  1.
    8880023    1    1    2    0    0 -0.70176677865E+03  0.51845748539E+03  0.22156333418E+04  0.24706509441E+04  0.65864270000E+03 0.  0.
    8880022    1    1    2    0    0  0.70176677865E+03 -0.51845748539E+03  0.45998341296E+02  0.88700748373E+03  0.15294330000E+03 0.  0.
<mgrwt>
<rscale>  0 0.10371944E+04</rscale>
<asrwt>0</asrwt>
<pdfrwt beam="1">  1        2 0.43225308E+00 0.10931994E+04</pdfrwt>
<pdfrwt beam="2">  1       -2 0.84309751E-01 0.10931994E+04</pdfrwt>
<totfact> 0.28095987E+00</totfact>
</mgrwt>
</event>
<event>
 4    5  0.7289609E-008  0.8229071E+03  0.7818608E-02  0.9663294E-01
          2   -1    0    0  501    0  0.00000000000E+00  0.00000000000E+00  0.21894064726E+04  0.21894064726E+04  0.25500000000E-02 0. -1.
         -2   -1    0    0    0  501 -0.00000000000E+00 -0.00000000000E+00 -0.81746606058E+03  0.81746606058E+03  0.25500000000E-02 0.  1.
    8880023    1    1    2    0    0  0.29169208447E+03  0.39784612244E+03 -0.56764484202E+03  0.99969829560E+03  0.65864270000E+03 0.  0.
    8880022    1    1    2    0    0 -0.29169208447E+03 -0.39784612244E+03  0.19395852540E+04  0.20071742376E+04  0.15294330000E+03 0.  0.
<mgrwt>
<rscale>  0 0.73244945E+03</rscale>
<asrwt>0</asrwt>
<pdfrwt beam="1">  1        2 0.33683177E+00 0.82290705E+03</pdfrwt>
<pdfrwt beam="2">  1       -2 0.12576401E+00 0.82290705E+03</pdfrwt>
<totfact> 0.25424848E+00</totfact>
</mgrwt>
</event>
<event>
 4    5  0.7289609E-008  0.1054408E+04  0.7818608E-02  0.9313601E-01
          2   -1    0    0  501    0  0.00000000000E+00  0.00000000000E+00  0.26214581330E+04  0.26214581330E+04  0.25500000000E-02 0. -1.
         -2   -1    0    0    0  501 -0.00000000000E+00 -0.00000000000E+00 -0.40668281229E+03  0.40668281229E+03  0.25500000000E-02 0.  1.
    8880023    1    1    2    0    0  0.55970581043E+03 -0.60390043768E+03  0.61041220523E+03  0.12183511807E+04  0.65864270000E+03 0.  0.
    8880022    1    1    2    0    0 -0.55970581043E+03  0.60390043768E+03  0.16043631155E+04  0.18097897647E+04  0.15294330000E+03 0.  0.
<mgrwt>
<rscale>  0 0.99540320E+03</rscale>
<asrwt>0</asrwt>
<pdfrwt beam="1">  1        2 0.40330126E+00 0.10544081E+04</pdfrwt>
<pdfrwt beam="2">  1       -2 0.62566585E-01 0.10544081E+04</pdfrwt>
<totfact> 0.70527498E+00</totfact>
</mgrwt>
</event>
<event>
 4    5  0.7289609E-008  0.7118276E+03  0.7818608E-02  0.9951276E-01
          2   -1    0    0  501    0  0.00000000000E+00  0.00000000000E+00  0.23714224273E+04  0.23714224273E+04  0.25500000000E-02 0. -1.
         -2   -1    0    0    0  501 -0.00000000000E+00 -0.00000000000E+00 -0.44064852092E+03  0.44064852093E+03  0.25500000000E-02 0.  1.
    8880023    1    1    2    0    0 -0.88663209307E+02 -0.25500427743E+03 -0.13381418097E+03  0.72429606342E+03  0.65864270000E+03 0.  1.
    8880022    1    1    2    0    0  0.88663209307E+02  0.25500427743E+03  0.20645880874E+04  0.20877748848E+04  0.15294330000E+03 0.  0.
<mgrwt>
<rscale>  0 0.57839314E+03</rscale>
<asrwt>0</asrwt>
<pdfrwt beam="1">  1        2 0.36483421E+00 0.71182761E+03</pdfrwt>
<pdfrwt beam="2">  1       -2 0.67792081E-01 0.71182761E+03</pdfrwt>
<totfact> 0.86575202E+00</totfact>
</mgrwt>
</event>
<event>
 4    5  0.7289609E-008  0.1045306E+04  0.7818608E-02  0.9324546E-01
         -2   -1    0    0    0  501 -0.00000000000E+00  0.00000000000E+00  0.31459019241E+03  0.31459019242E+03  0.25500000000E-02 0.  1.
          2   -1    0    0  501    0  0.00000000000E+00 -0.00000000000E+00 -0.29268289231E+04  0.29268289231E+04  0.25500000000E-02 0. -1.
    8880023    1    1    2    0    0 -0.58815215776E+03 -0.55940188312E+03 -0.10944451423E+04  0.15134311359E+04  0.65864270000E+03 0.  0.
    8880022    1    1    2    0    0  0.58815215776E+03  0.55940188312E+03 -0.15177935884E+04  0.17279879796E+04  0.15294330000E+03 0.  0.
<mgrwt>
<rscale>  0 0.98554166E+03</rscale>
<asrwt>0</asrwt>
<pdfrwt beam="1">  1        2 0.45028136E+00 0.10453055E+04</pdfrwt>
<pdfrwt beam="2">  1       -2 0.48398493E-01 0.10453055E+04</pdfrwt>
<totfact> 0.79394019E+00</totfact>
</mgrwt>
</event>
<event>
 4    5  0.7289609E-008  0.1115657E+04  0.7818608E-02  0.9243821E-01
         -2   -1    0    0    0  501 -0.00000000000E+00  0.00000000000E+00  0.10907354973E+04  0.10907354973E+04  0.25500000000E-02 0.  1.
          2   -1    0    0  501    0  0.00000000000E+00 -0.00000000000E+00 -0.35904050939E+04  0.35904050939E+04  0.25500000000E-02 0. -1.
    8880023    1    1    2    0    0  0.89550237783E+03 -0.94632993449E+02 -0.32895487526E+04  0.34735890825E+04  0.65864270000E+03 0.  0.
    8880022    1    1    2    0    0 -0.89550237783E+03  0.94632993449E+02  0.78987915594E+03  0.12075515087E+04  0.15294330000E+03 0.  0.
<mgrwt>
<rscale>  0 0.10612346E+04</rscale>
<asrwt>0</asrwt>
<pdfrwt beam="1">  1        2 0.55237001E+00 0.11156568E+04</pdfrwt>
<pdfrwt beam="2">  1       -2 0.16780546E+00 0.11156568E+04</pdfrwt>
<totfact> 0.15663807E-01</totfact>
</mgrwt>
</event>
<event>
 4    5  0.7289609E-008  0.1163828E+04  0.7818608E-02  0.9193112E-01
         -2   -1    0    0    0  501 -0.00000000000E+00  0.00000000000E+00  0.10401934730E+04  0.10401934730E+04  0.25500000000E-02 0.  1.
          2   -1    0    0  501    0  0.00000000000E+00 -0.00000000000E+00 -0.19388415849E+04  0.19388415849E+04  0.25500000000E-02 0. -1.
    8880023    1    1    2    0    0  0.70763750934E+03  0.64802415121E+03  0.50764623297E+03  0.12697247927E+04  0.65864270000E+03 0.  0.
    8880022    1    1    2    0    0 -0.70763750934E+03 -0.64802415121E+03 -0.14062943449E+04  0.17093102652E+04  0.15294330000E+03 0.  0.
<mgrwt>
<rscale>  0 0.11124812E+04</rscale>
<asrwt>0</asrwt>
<pdfrwt beam="1">  1        2 0.29828332E+00 0.11638283E+04</pdfrwt>
<pdfrwt beam="2">  1       -2 0.16002977E+00 0.11638283E+04</pdfrwt>
<totfact> 0.17761391E+00</totfact>
</mgrwt>
</event>
<event>
 4    5  0.7289609E-008  0.1063036E+04  0.7818608E-02  0.9303372E-01
          2   -1    0    0  501    0  0.00000000000E+00  0.00000000000E+00  0.18238134598E+04  0.18238134598E+04  0.25500000000E-02 0. -1.
         -2   -1    0    0    0  501 -0.00000000000E+00 -0.00000000000E+00 -0.11928946911E+04  0.11928946911E+04  0.25500000000E-02 0.  1.
    8880023    1    1    2    0    0 -0.40721791615E+03  0.72829195835E+03 -0.81554840968E+03  0.13398376852E+04  0.65864270000E+03 0.  1.
    8880022    1    1    2    0    0  0.40721791615E+03 -0.72829195835E+03  0.14464671783E+04  0.16768704657E+04  0.15294330000E+03 0.  0.
<mgrwt>
<rscale>  0 0.10047302E+04</rscale>
<asrwt>0</asrwt>
<pdfrwt beam="1">  1        2 0.28058668E+00 0.10630361E+04</pdfrwt>
<pdfrwt beam="2">  1       -2 0.18352226E+00 0.10630361E+04</pdfrwt>
<totfact> 0.14170659E+00</totfact>
</mgrwt>
</event>
<event>
 4    5  0.7289609E-008  0.1109617E+04  0.7818608E-02  0.9250424E-01
          2   -1    0    0  501    0  0.00000000000E+00  0.00000000000E+00  0.19549370036E+04  0.19549370036E+04  0.25500000000E-02 0. -1.
         -2   -1    0    0    0  501 -0.00000000000E+00 -0.00000000000E+00 -0.13838775716E+04  0.13838775716E+04  0.25500000000E-02 0.  1.
    8880023    1    1    2    0    0 -0.78273304820E+03  0.42984711563E+03 -0.10204438780E+04  0.15074997453E+04  0.65864270000E+03 0.  0.
    8880022    1    1    2    0    0  0.78273304820E+03 -0.42984711563E+03  0.15915033100E+04  0.18313148299E+04  0.15294330000E+03 0.  0.
<mgrwt>
<rscale>  0 0.10547792E+04</rscale>
<asrwt>0</asrwt>
<pdfrwt beam="1">  1        2 0.30075954E+00 0.11096169E+04</pdfrwt>
<pdfrwt beam="2">  1       -2 0.21290424E+00 0.11096169E+04</pdfrwt>
<totfact> 0.76319670E-01</totfact>
</mgrwt>
</event>
<event>
 4    5  0.7289609E-008  0.9286801E+03  0.7818608E-02  0.9481476E-01
          2   -1    0    0  501    0  0.00000000000E+00  0.00000000000E+00  0.30728817919E+04  0.30728817919E+04  0.25500000000E-02 0. -1.
         -2   -1    0    0    0  501 -0.00000000000E+00 -0.00000000000E+00 -0.25295447456E+03  0.25295447458E+03  0.25500000000E-02 0.  1.
    8880023    1    1    2    0    0 -0.59769265781E+03  0.26720764971E+03  0.90665216941E+03  0.12978693323E+04  0.65864270000E+03 0.  0.
    8880022    1    1    2    0    0  0.59769265781E+03 -0.26720764971E+03  0.19132751479E+04  0.20279669341E+04  0.15294330000E+03 0.  0.
<mgrwt>
<rscale>  0 0.85663392E+03</rscale>
<asrwt>0</asrwt>
<pdfrwt beam="1">  1        2 0.47275104E+00 0.92868006E+03</pdfrwt>
<pdfrwt beam="2">  1       -2 0.38916074E-01 0.92868006E+03</pdfrwt>
<totfact> 0.10115362E+01</totfact>
</mgrwt>
</event>
<event>
 4    5  0.7289609E-008  0.1182572E+04  0.7818608E-02  0.9174253E-01
          2   -1    0    0  501    0  0.00000000000E+00  0.00000000000E+00  0.16423625433E+04  0.16423625433E+04  0.25500000000E-02 0. -1.
         -2   -1    0    0    0  501 -0.00000000000E+00 -0.00000000000E+00 -0.10523818630E+04  0.10523818630E+04  0.25500000000E-02 0.  1.
    8880023    1    1    2    0    0 -0.36991683164E+03  0.90985038432E+03 -0.44146402923E+03  0.12622863699E+04  0.65864270000E+03 0.  0.
    8880022    1    1    2    0    0  0.36991683164E+03 -0.90985038432E+03  0.10314447096E+04  0.14324580364E+04  0.15294330000E+03 0.  0.
<mgrwt>
<rscale>  0 0.11323182E+04</rscale>
<asrwt>0</asrwt>
<pdfrwt beam="1">  1        2 0.25267116E+00 0.11825719E+04</pdfrwt>
<pdfrwt beam="2">  1       -2 0.16190490E+00 0.11825719E+04</pdfrwt>
<totfact> 0.25059040E+00</totfact>
</mgrwt>
</event>
<event>
 4    5  0.7289609E-008  0.1210792E+04  0.7818608E-02  0.9146703E-01
          2   -1    0    0  501    0  0.00000000000E+00  0.00000000000E+00  0.32623593774E+04  0.32623593774E+04  0.25500000000E-02 0. -1.
         -2   -1    0    0    0  501 -0.00000000000E+00 -0.00000000000E+00 -0.86873117368E+03  0.86873117368E+03  0.25500000000E-02 0.  1.
    8880023    1    1    2    0    0  0.90494310713E+03  0.46182788707E+03 -0.30065159245E+03  0.12475610649E+04  0.65864270000E+03 0.  0.
    8880022    1    1    2    0    0 -0.90494310713E+03 -0.46182788707E+03  0.26942797961E+04  0.28835294861E+04  0.15294330000E+03 0.  0.
<mgrwt>
<rscale>  0 0.11620893E+04</rscale>
<asrwt>0</asrwt>
<pdfrwt beam="1">  1        2 0.50190145E+00 0.12107920E+04</pdfrwt>
<pdfrwt beam="2">  1       -2 0.13365095E+00 0.12107920E+04</pdfrwt>
<totfact> 0.47264144E-01</totfact>
</mgrwt>
</event>
<event>
 4    5  0.7289609E-008  0.8669489E+03  0.7818608E-02  0.9581320E-01
          2   -1    0    0  501    0  0.00000000000E+00  0.00000000000E+00  0.10104296753E+04  0.10104296753E+04  0.25500000000E-02 0. -1.
         -2   -1    0    0    0  501 -0.00000000000E+00 -0.00000000000E+00 -0.11423742215E+04  0.11423742215E+04  0.25500000000E-02 0.  1.
    8880023    1    1    2    0    0 -0.29499966320E+02 -0.56295646209E+03 -0.85882110037E+03  0.12203172190E+04  0.65864270000E+03 0.  1.
    8880022    1    1    2    0    0  0.29499966320E+02  0.56295646209E+03  0.72687655424E+03  0.93248667784E+03  0.15294330000E+03 0.  0.
<mgrwt>
<rscale>  0 0.78544970E+03</rscale>
<asrwt>0</asrwt>
<pdfrwt beam="1">  1        2 0.15545072E+00 0.86694892E+03</pdfrwt>
<pdfrwt beam="2">  1       -2 0.17574988E+00 0.86694892E+03</pdfrwt>
<totfact> 0.48426497E+00</totfact>
</mgrwt>
</event>
<event>
 4    5  0.7289609E-008  0.1020826E+04  0.7818608E-02  0.9354804E-01
         -2   -1    0    0    0  501 -0.00000000000E+00  0.00000000000E+00  0.18831016283E+04  0.18831016283E+04  0.25500000000E-02 0.  1.
          2   -1    0    0  501    0  0.00000000000E+00 -0.00000000000E+00 -0.15770476225E+04  0.15770476225E+04  0.25500000000E-02 0. -1.
    8880023    1    1    2    0    0  0.62561189848E+03 -0.46571013693E+03  0.16257114565E+04  0.19196416658E+04  0.65864270000E+03 0.  1.
    8880022    1    1    2    0    0 -0.62561189848E+03  0.46571013693E+03 -0.13196574507E+04  0.15405075850E+04  0.15294330000E+03 0.  0.
<mgrwt>
<rscale>  0 0.95890369E+03</rscale>
<asrwt>0</asrwt>
<pdfrwt beam="1">  1        2 0.24262271E+00 0.10208263E+04</pdfrwt>
<pdfrwt beam="2">  1       -2 0.28970794E+00 0.10208263E+04</pdfrwt>
<totfact> 0.42241184E-01</totfact>
</mgrwt>
</event>
<event>
 4    5  0.7289609E-008  0.6968416E+03  0.7818608E-02  0.1001056E+00
          2   -1    0    0  501    0  0.00000000000E+00  0.00000000000E+00  0.16480852480E+04  0.16480852480E+04  0.25500000000E-02 0. -1.
         -2   -1    0    0    0  501 -0.00000000000E+00 -0.00000000000E+00 -0.21606730226E+03  0.21606730227E+03  0.25500000000E-02 0.  1.
    8880023    1    1    2    0    0 -0.10393419155E+03  0.20242461178E+03  0.14291273168E+04  0.15899663938E+04  0.65864270000E+03 0. -1.
    8880022    1    1    2    0    0  0.10393419155E+03 -0.20242461178E+03  0.28906289317E+01  0.27418615643E+03  0.15294330000E+03 0.  1.
<mgrwt>
<rscale>  0 0.55189430E+03</rscale>
<asrwt>0</asrwt>
<pdfrwt beam="1">  1        2 0.25355159E+00 0.69684162E+03</pdfrwt>
<pdfrwt beam="2">  1       -2 0.33241122E-01 0.69684162E+03</pdfrwt>
<totfact> 0.90922343E+01</totfact>
</mgrwt>
</event>
<event>
 4    5  0.7289609E-008  0.7690062E+03  0.7818608E-02  0.9782326E-01
          2   -1    0    0  501    0  0.00000000000E+00  0.00000000000E+00  0.15781820315E+04  0.15781820315E+04  0.25500000000E-02 0. -1.
         -2   -1    0    0    0  501 -0.00000000000E+00 -0.00000000000E+00 -0.66383060951E+03  0.66383060952E+03  0.25500000000E-02 0.  1.
    8880023    1    1    2    0    0 -0.46403900036E+02  0.39421694515E+03 -0.39554961888E+03  0.86477166295E+03  0.65864270000E+03 0.  1.
    8880022    1    1    2    0    0  0.46403900036E+02 -0.39421694515E+03  0.13099010409E+04  0.13772409781E+04  0.15294330000E+03 0.  0.
<mgrwt>
<rscale>  0 0.66319737E+03</rscale>
<asrwt>0</asrwt>
<pdfrwt beam="1">  1        2 0.24279724E+00 0.76900620E+03</pdfrwt>
<pdfrwt beam="2">  1       -2 0.10212779E+00 0.76900620E+03</pdfrwt>
<totfact> 0.92231799E+00</totfact>
</mgrwt>
</event>
<event>
 4    5  0.7289609E-008  0.1140864E+04  0.7818608E-02  0.9216868E-01
          2   -1    0    0  501    0  0.00000000000E+00  0.00000000000E+00  0.23152618735E+04  0.23152618736E+04  0.25500000000E-02 0. -1.
         -2   -1    0    0    0  501 -0.00000000000E+00 -0.00000000000E+00 -0.11295101578E+04  0.11295101578E+04  0.25500000000E-02 0.  1.
    8880023    1    1    2    0    0  0.69695615560E+03  0.61807077199E+03 -0.69818985097E+03  0.13375494893E+04  0.65864270000E+03 0.  0.
    8880022    1    1    2    0    0 -0.69695615560E+03 -0.61807077199E+03  0.18839415667E+04  0.21072225421E+04  0.15294330000E+03 0.  0.
<mgrwt>
<rscale>  0 0.10881009E+04</rscale>
<asrwt>0</asrwt>
<pdfrwt beam="1">  1        2 0.35619413E+00 0.11408635E+04</pdfrwt>
<pdfrwt beam="2">  1       -2 0.17377080E+00 0.11408635E+04</pdfrwt>
<totfact> 0.87473644E-01</totfact>
</mgrwt>
</event>
<event>
 4    5  0.7289609E-008  0.1275734E+04  0.7818608E-02  0.9086803E-01
         -2   -1    0    0    0  501 -0.00000000000E+00  0.00000000000E+00  0.79371080827E+03  0.79371080827E+03  0.25500000000E-02 0.  1.
          2   -1    0    0  501    0  0.00000000000E+00 -0.00000000000E+00 -0.24429654554E+04  0.24429654554E+04  0.25500000000E-02 0. -1.
    8880023    1    1    2    0    0  0.88897176004E+03  0.63515104724E+03 -0.28461813398E+02  0.12760516933E+04  0.65864270000E+03 0.  0.
    8880022    1    1    2    0    0 -0.88897176004E+03 -0.63515104724E+03 -0.16207928338E+04  0.19606245704E+04  0.15294330000E+03 0.  0.
<mgrwt>
<rscale>  0 0.12302263E+04</rscale>
<asrwt>0</asrwt>
<pdfrwt beam="1">  1        2 0.37584084E+00 0.12757342E+04</pdfrwt>
<pdfrwt beam="2">  1       -2 0.12210936E+00 0.12757342E+04</pdfrwt>
<totfact> 0.18546166E+00</totfact>
</mgrwt>
</event>
<event>
 4    5  0.7289609E-008  0.7675683E+03  0.7818608E-02  0.9785894E-01
          2   -1    0    0  501    0  0.00000000000E+00  0.00000000000E+00  0.35930104406E+04  0.35930104406E+04  0.25500000000E-02 0. -1.
         -2   -1    0    0    0  501 -0.00000000000E+00 -0.00000000000E+00 -0.10074309454E+04  0.10074309454E+04  0.25500000000E-02 0.  1.
    8880023    1    1    2    0    0 -0.30579067018E+03 -0.24868231586E+03 -0.84634853514E+03  0.11425702943E+04  0.65864270000E+03 0.  1.
    8880022    1    1    2    0    0  0.30579067018E+03  0.24868231586E+03  0.34319280303E+04  0.34578710916E+04  0.15294330000E+03 0.  0.
<mgrwt>
<rscale>  0 0.66125083E+03</rscale>
<asrwt>0</asrwt>
<pdfrwt beam="1">  1        2 0.55277084E+00 0.76756826E+03</pdfrwt>
<pdfrwt beam="2">  1       -2 0.15498938E+00 0.76756826E+03</pdfrwt>
<totfact> 0.20913094E-01</totfact>
</mgrwt>
</event>
<event>
 4    5  0.7289609E-008  0.7984787E+03  0.7818608E-02  0.9714095E-01
          2   -1    0    0  501    0  0.00000000000E+00  0.00000000000E+00  0.15426013245E+04  0.15426013245E+04  0.25500000000E-02 0. -1.
         -2   -1    0    0    0  501 -0.00000000000E+00 -0.00000000000E+00 -0.54782531946E+03  0.54782531946E+03  0.25500000000E-02 0.  1.
    8880023    1    1    2    0    0  0.39758952494E+03 -0.21373028196E+03 -0.18360165248E+03  0.81931546844E+03  0.65864270000E+03 0.  0.
    8880022    1    1    2    0    0 -0.39758952494E+03  0.21373028196E+03  0.11783776575E+04  0.12711111755E+04  0.15294330000E+03 0.  0.
<mgrwt>
<rscale>  0 0.70183745E+03</rscale>
<asrwt>0</asrwt>
<pdfrwt beam="1">  1        2 0.23732328E+00 0.79847872E+03</pdfrwt>
<pdfrwt beam="2">  1       -2 0.84280818E-01 0.79847872E+03</pdfrwt>
<totfact> 0.15033281E+01</totfact>
</mgrwt>
</event>
<event>
 4    5  0.7289609E-008  0.7806873E+03  0.7818608E-02  0.9754225E-01
          2   -1    0    0  501    0  0.00000000000E+00  0.00000000000E+00  0.12886392939E+04  0.12886392940E+04  0.25500000000E-02 0. -1.
         -2   -1    0    0    0  501 -0.00000000000E+00 -0.00000000000E+00 -0.26881336757E+04  0.26881336757E+04  0.25500000000E-02 0.  1.
    8880023    1    1    2    0    0  0.41718598789E+03 -0.40227391949E+02 -0.25901643164E+04  0.27052585428E+04  0.65864270000E+03 0.  1.
    8880022    1    1    2    0    0 -0.41718598789E+03  0.40227391949E+02  0.11906699346E+04  0.12715144268E+04  0.15294330000E+03 0.  0.
<mgrwt>
<rscale>  0 0.67878025E+03</rscale>
<asrwt>0</asrwt>
<pdfrwt beam="1">  1        2 0.19825220E+00 0.78068726E+03</pdfrwt>
<pdfrwt beam="2">  1       -2 0.41355902E+00 0.78068726E+03</pdfrwt>
<totfact> 0.10828524E-01</totfact>
</mgrwt>
</event>
<event>
 4    5  0.7289609E-008  0.1109829E+04  0.7818608E-02  0.9250191E-01
         -2   -1    0    0    0  501 -0.00000000000E+00  0.00000000000E+00  0.11274893000E+04  0.11274893000E+04  0.25500000000E-02 0.  1.
          2   -1    0    0  501    0  0.00000000000E+00 -0.00000000000E+00 -0.35512607723E+04  0.35512607723E+04  0.25500000000E-02 0. -1.
    8880023    1    1    2    0    0  0.88809939730E+03  0.95866951016E+02  0.77528446907E+03  0.13538047223E+04  0.65864270000E+03 0.  0.
    8880022    1    1    2    0    0 -0.88809939730E+03 -0.95866951016E+02 -0.31990559414E+04  0.33249453501E+04  0.15294330000E+03 0.  0.
<mgrwt>
<rscale>  0 0.10550063E+04</rscale>
<asrwt>0</asrwt>
<pdfrwt beam="1">  1        2 0.54634781E+00 0.11098294E+04</pdfrwt>
<pdfrwt beam="2">  1       -2 0.17345989E+00 0.11098294E+04</pdfrwt>
<totfact> 0.15226481E-01</totfact>
</mgrwt>
</event>
<event>
 4    5  0.7289609E-008  0.1061269E+04  0.7818608E-02  0.9305456E-01
         -2   -1    0    0    0  501 -0.00000000000E+00  0.00000000000E+00  0.10999732354E+04  0.10999732354E+04  0.25500000000E-02 0.  1.
          2   -1    0    0  501    0  0.00000000000E+00 -0.00000000000E+00 -0.26766772270E+04  0.26766772270E+04  0.25500000000E-02 0. -1.
    8880023    1    1    2    0    0 -0.82150581794E+03  0.13270287458E+03  0.75088822076E+03  0.13000481484E+04  0.65864270000E+03 0.  0.
    8880022    1    1    2    0    0  0.82150581794E+03 -0.13270287458E+03 -0.23275922123E+04  0.24766023140E+04  0.15294330000E+03 0.  0.
<mgrwt>
<rscale>  0 0.10028216E+04</rscale>
<asrwt>0</asrwt>
<pdfrwt beam="1">  1        2 0.41179650E+00 0.10612691E+04</pdfrwt>
<pdfrwt beam="2">  1       -2 0.16922665E+00 0.10612691E+04</pdfrwt>
<totfact> 0.59128183E-01</totfact>
</mgrwt>
</event>
<event>
 4    5  0.7289609E-008  0.8259144E+03  0.7818608E-02  0.9657335E-01
          2   -1    0    0  501    0  0.00000000000E+00  0.00000000000E+00  0.91555038514E+03  0.91555038514E+03  0.25500000000E-02 0. -1.
         -2   -1    0    0    0  501 -0.00000000000E+00 -0.00000000000E+00 -0.98678253077E+03  0.98678253077E+03  0.25500000000E-02 0.  1.
    8880023    1    1    2    0    0  0.43676339470E+03 -0.23992110729E+03 -0.70207462346E+03  0.10839941807E+04  0.65864270000E+03 0.  0.
    8880022    1    1    2    0    0 -0.43676339470E+03  0.23992110729E+03  0.63084247783E+03  0.81833873519E+03  0.15294330000E+03 0.  0.
<mgrwt>
<rscale>  0 0.73614894E+03</rscale>
<asrwt>0</asrwt>
<pdfrwt beam="1">  1        2 0.14085391E+00 0.82591441E+03</pdfrwt>
<pdfrwt beam="2">  1       -2 0.15181270E+00 0.82591441E+03</pdfrwt>
<totfact> 0.83783136E+00</totfact>
</mgrwt>
</event>
<event>
 4    5  0.7289609E-008  0.1054883E+04  0.7818608E-02  0.9313035E-01
         -2   -1    0    0    0  501 -0.00000000000E+00  0.00000000000E+00  0.42233998763E+03  0.42233998764E+03  0.25500000000E-02 0.  1.
          2   -1    0    0  501    0  0.00000000000E+00 -0.00000000000E+00 -0.24833638294E+04  0.24833638294E+04  0.25500000000E-02 0. -1.
    8880023    1    1    2    0    0 -0.17212751586E+03  0.80581615280E+03 -0.57952793725E+03  0.12035906240E+04  0.65864270000E+03 0.  0.
    8880022    1    1    2    0    0  0.17212751586E+03 -0.80581615280E+03 -0.14814959045E+04  0.17021131931E+04  0.15294330000E+03 0.  0.
<mgrwt>
<rscale>  0 0.99591684E+03</rscale>
<asrwt>0</asrwt>
<pdfrwt beam="1">  1        2 0.38205597E+00 0.10548828E+04</pdfrwt>
<pdfrwt beam="2">  1       -2 0.64975384E-01 0.10548828E+04</pdfrwt>
<totfact> 0.78104829E+00</totfact>
</mgrwt>
</event>
<event>
 4    5  0.7289609E-008  0.8213837E+03  0.7818608E-02  0.9666336E-01
         -2   -1    0    0    0  501 -0.00000000000E+00  0.00000000000E+00  0.74425180796E+03  0.74425180796E+03  0.25500000000E-02 0.  1.
          2   -1    0    0  501    0  0.00000000000E+00 -0.00000000000E+00 -0.13037616072E+04  0.13037616072E+04  0.25500000000E-02 0. -1.
    8880023    1    1    2    0    0 -0.45264838220E+03  0.18965859407E+03  0.43429455085E+03  0.92913018645E+03  0.65864270000E+03 0.  1.
    8880022    1    1    2    0    0  0.45264838220E+03 -0.18965859407E+03 -0.99380435011E+03  0.11188832287E+04  0.15294330000E+03 0.  0.
<mgrwt>
<rscale>  0 0.73057021E+03</rscale>
<asrwt>0</asrwt>
<pdfrwt beam="1">  1        2 0.20057871E+00 0.82138368E+03</pdfrwt>
<pdfrwt beam="2">  1       -2 0.11450028E+00 0.82138368E+03</pdfrwt>
<totfact> 0.99238217E+00</totfact>
</mgrwt>
</event>
<event>
 4    5  0.7289609E-008  0.9392389E+03  0.7818608E-02  0.9465769E-01
          2   -1    0    0  501    0  0.00000000000E+00  0.00000000000E+00  0.98068537797E+03  0.98068537798E+03  0.25500000000E-02 0. -1.
         -2   -1    0    0    0  501 -0.00000000000E+00 -0.00000000000E+00 -0.89765293463E+03  0.89765293464E+03  0.25500000000E-02 0.  1.
    8880023    1    1    2    0    0 -0.61970751805E+03 -0.25361816046E+03  0.51082815071E+03  0.10691656490E+04  0.65864270000E+03 0.  0.
    8880022    1    1    2    0    0  0.61970751805E+03  0.25361816046E+03 -0.42779570737E+03  0.80917266359E+03  0.15294330000E+03 0.  1.
<mgrwt>
<rscale>  0 0.86855275E+03</rscale>
<asrwt>0</asrwt>
<pdfrwt beam="1">  1        2 0.15087467E+00 0.93923894E+03</pdfrwt>
<pdfrwt beam="2">  1       -2 0.13810045E+00 0.93923894E+03</pdfrwt>
<totfact> 0.96200071E+00</totfact>
</mgrwt>
</event>
<event>
 4    5  0.7289609E-008  0.7390949E+03  0.7818608E-02  0.9862592E-01
          2   -1    0    0  501    0  0.00000000000E+00  0.00000000000E+00  0.16540736253E+04  0.16540736253E+04  0.25500000000E-02 0. -1.
         -2   -1    0    0    0  501 -0.00000000000E+00 -0.00000000000E+00 -0.58926057212E+03  0.58926057213E+03  0.25500000000E-02 0.  1.
    8880023    1    1    2    0    0  0.25883702087E+03  0.21320037282E+03 -0.32360116592E+03  0.80683264881E+03  0.65864270000E+03 0.  1.
    8880022    1    1    2    0    0 -0.25883702087E+03 -0.21320037282E+03  0.13884142192E+04  0.14365015487E+04  0.15294330000E+03 0.  0.
<mgrwt>
<rscale>  0 0.62109017E+03</rscale>
<asrwt>0</asrwt>
<pdfrwt beam="1">  1        2 0.25447287E+00 0.73909486E+03</pdfrwt>
<pdfrwt beam="2">  1       -2 0.90655472E-01 0.73909486E+03</pdfrwt>
<totfact> 0.11125157E+01</totfact>
</mgrwt>
</event>
<event>
 4    5  0.7289609E-008  0.7762433E+03  0.7818608E-02  0.9764737E-01
          2   -1    0    0  501    0  0.00000000000E+00  0.00000000000E+00  0.15279703430E+04  0.15279703430E+04  0.25500000000E-02 0. -1.
         -2   -1    0    0    0  501 -0.00000000000E+00 -0.00000000000E+00 -0.42952038688E+03  0.42952038689E+03  0.25500000000E-02 0.  1.
    8880023    1    1    2    0    0 -0.30412975200E+03 -0.27613133965E+03  0.15421002401E+01  0.77624481134E+03  0.65864270000E+03 0.  1.
    8880022    1    1    2    0    0  0.30412975200E+03  0.27613133965E+03  0.10969078559E+04  0.11812459186E+04  0.15294330000E+03 0.  0.
<mgrwt>
<rscale>  0 0.67289798E+03</rscale>
<asrwt>0</asrwt>
<pdfrwt beam="1">  1        2 0.23507236E+00 0.77624328E+03</pdfrwt>
<pdfrwt beam="2">  1       -2 0.66080060E-01 0.77624328E+03</pdfrwt>
<totfact> 0.26329754E+01</totfact>
</mgrwt>
</event>
<event>
 4    5  0.7987461E-008  0.1063078E+04  0.7818608E-02  0.9303323E-01
         -2   -1    0    0    0  501 -0.00000000000E+00  0.00000000000E+00  0.16082271499E+04  0.16082271499E+04  0.25500000000E-02 0.  1.
          2   -1    0    0  501    0  0.00000000000E+00 -0.00000000000E+00 -0.22096440455E+04  0.22096440455E+04  0.25500000000E-02 0. -1.
    8880023    1    1    2    0    0 -0.42166220785E+03 -0.72008688060E+03  0.13333544217E+04  0.17052766208E+04  0.65864270000E+03 0.  0.
    8880022    1    1    2    0    0  0.42166220785E+03  0.72008688060E+03 -0.19347713174E+04  0.21125945746E+04  0.15294330000E+03 0.  0.
<mgrwt>
<rscale>  0 0.10047752E+04</rscale>
<asrwt>0</asrwt>
<pdfrwt beam="1">  1        2 0.33994524E+00 0.10630778E+04</pdfrwt>
<pdfrwt beam="2">  1       -2 0.24741956E+00 0.10630778E+04</pdfrwt>
<totfact> 0.33829014E-01</totfact>
</mgrwt>
</event>
<event>
 4    5  0.7289609E-008  0.9903458E+03  0.7818608E-02  0.9394299E-01
         -2   -1    0    0    0  501 -0.00000000000E+00  0.00000000000E+00  0.44221767478E+03  0.44221767479E+03  0.25500000000E-02 0.  1.
          2   -1    0    0  501    0  0.00000000000E+00 -0.00000000000E+00 -0.21789626319E+04  0.21789626319E+04  0.25500000000E-02 0. -1.
    8880023    1    1    2    0    0 -0.69753911740E+03 -0.24579196767E+03 -0.36535603115E+03  0.10555897629E+04  0.65864270000E+03 0.  0.
    8880022    1    1    2    0    0  0.69753911740E+03  0.24579196767E+03 -0.13713889260E+04  0.15655905439E+04  0.15294330000E+03 0.  0.
<mgrwt>
<rscale>  0 0.92546362E+03</rscale>
<asrwt>0</asrwt>
<pdfrwt beam="1">  1        2 0.33522501E+00 0.99034576E+03</pdfrwt>
<pdfrwt beam="2">  1       -2 0.68033490E-01 0.99034576E+03</pdfrwt>
<totfact> 0.10567853E+01</totfact>
</mgrwt>
</event>
<event>
 4    5  0.7289609E-008  0.7882188E+03  0.7818608E-02  0.9736873E-01
          2   -1    0    0  501    0  0.00000000000E+00  0.00000000000E+00  0.22848003464E+04  0.22848003464E+04  0.25500000000E-02 0. -1.
         -2   -1    0    0    0  501 -0.00000000000E+00 -0.00000000000E+00 -0.48537703457E+03  0.48537703457E+03  0.25500000000E-02 0.  1.
    8880023    1    1    2    0    0 -0.43262251053E+03  0.17788714910E+02 -0.11936464960E+03  0.79720562017E+03  0.65864270000E+03 0.  1.
    8880022    1    1    2    0    0  0.43262251053E+03 -0.17788714910E+02  0.19187879614E+04  0.19729717608E+04  0.15294330000E+03 0.  0.
<mgrwt>
<rscale>  0 0.68863173E+03</rscale>
<asrwt>0</asrwt>
<pdfrwt beam="1">  1        2 0.35150774E+00 0.78821880E+03</pdfrwt>
<pdfrwt beam="2">  1       -2 0.74673391E-01 0.78821880E+03</pdfrwt>
<totfact> 0.77300131E+00</totfact>
</mgrwt>
</event>
<event>
 4    5  0.7289609E-008  0.7913125E+03  0.7818608E-02  0.9729905E-01
          2   -1    0    0  501    0  0.00000000000E+00  0.00000000000E+00  0.65217243720E+03  0.65217243720E+03  0.25500000000E-02 0. -1.
         -2   -1    0    0    0  501 -0.00000000000E+00 -0.00000000000E+00 -0.81094065189E+03  0.81094065189E+03  0.25500000000E-02 0.  1.
    8880023    1    1    2    0    0 -0.41211710868E+03 -0.15008223493E+03 -0.45441814750E+03  0.91250821780E+03  0.65864270000E+03 0.  1.
    8880022    1    1    2    0    0  0.41211710868E+03  0.15008223493E+03  0.29564993281E+03  0.55060487130E+03  0.15294330000E+03 0.  0.
<mgrwt>
<rscale>  0 0.69263841E+03</rscale>
<asrwt>0</asrwt>
<pdfrwt beam="1">  1        2 0.10033422E+00 0.79131245E+03</pdfrwt>
<pdfrwt beam="2">  1       -2 0.12476010E+00 0.79131245E+03</pdfrwt>
<totfact> 0.21786088E+01</totfact>
</mgrwt>
</event>
<event>
 4    5  0.7289609E-008  0.6664216E+03  0.7818608E-02  0.1018369E+00
         -2   -1    0    0    0  501 -0.00000000000E+00  0.00000000000E+00  0.19008562017E+04  0.19008562017E+04  0.25500000000E-02 0.  1.
          2   -1    0    0  501    0  0.00000000000E+00 -0.00000000000E+00 -0.93078387332E+03  0.93078387332E+03  0.25500000000E-02 0. -1.
    8880023    1    1    2    0    0  0.99043446671E+02  0.22315550428E+02  0.18324869531E+04  0.19499041586E+04  0.65864270000E+03 0.  1.
    8880022    1    1    2    0    0 -0.99043446671E+02 -0.22315550428E+02 -0.86241462480E+03  0.88173591636E+03  0.15294330000E+03 0.  0.
<mgrwt>
<rscale>  0 0.48279674E+03</rscale>
<asrwt>0</asrwt>
<pdfrwt beam="1">  1        2 0.14319752E+00 0.66642163E+03</pdfrwt>
<pdfrwt beam="2">  1       -2 0.29243942E+00 0.66642163E+03</pdfrwt>
<totfact> 0.10487811E+00</totfact>
</mgrwt>
</event>
<event>
 4    5  0.7289609E-008  0.7164179E+03  0.7818608E-02  0.9934898E-01
          2   -1    0    0  501    0  0.00000000000E+00  0.00000000000E+00  0.10194853966E+04  0.10194853966E+04  0.25500000000E-02 0. -1.
         -2   -1    0    0    0  501 -0.00000000000E+00 -0.00000000000E+00 -0.30039579704E+03  0.30039579705E+03  0.25500000000E-02 0.  1.
    8880023    1    1    2    0    0  0.25103128623E+03 -0.12817046904E+03  0.26475513092E+03  0.76377343592E+03  0.65864270000E+03 0. -1.
    8880022    1    1    2    0    0 -0.25103128623E+03  0.12817046904E+03  0.45433446858E+03  0.55610775769E+03  0.15294330000E+03 0.  0.
<mgrwt>
<rscale>  0 0.58599374E+03</rscale>
<asrwt>0</asrwt>
<pdfrwt beam="1">  1        2 0.15684391E+00 0.71641788E+03</pdfrwt>
<pdfrwt beam="2">  1       -2 0.46214738E-01 0.71641788E+03</pdfrwt>
<totfact> 0.11036418E+02</totfact>
</mgrwt>
</event>
<event>
 4    5  0.7289609E-008  0.1720255E+04  0.7818608E-02  0.8767980E-01
         -2   -1    0    0    0  501 -0.00000000000E+00  0.00000000000E+00  0.11244115365E+04  0.11244115365E+04  0.25500000000E-02 0.  1.
          2   -1    0    0  501    0  0.00000000000E+00 -0.00000000000E+00 -0.31316929571E+04  0.31316929571E+04  0.25500000000E-02 0. -1.
    8880023    1    1    2    0    0 -0.14061873386E+04  0.74034128515E+03 -0.37614896221E+02  0.17206664803E+04  0.65864270000E+03 0.  0.
    8880022    1    1    2    0    0  0.14061873386E+04 -0.74034128515E+03 -0.19696665243E+04  0.25354380134E+04  0.15294330000E+03 0.  0.
<mgrwt>
<rscale>  0 0.16884489E+04</rscale>
<asrwt>0</asrwt>
<pdfrwt beam="1">  1        2 0.48179891E+00 0.17202553E+04</pdfrwt>
<pdfrwt beam="2">  1       -2 0.17298639E+00 0.17202553E+04</pdfrwt>
<totfact> 0.26902211E-01</totfact>
</mgrwt>
</event>
<event>
 4    5  0.7289609E-008  0.7273469E+03  0.7818608E-02  0.9898468E-01
         -2   -1    0    0    0  501 -0.00000000000E+00  0.00000000000E+00  0.32406812176E+03  0.32406812177E+03  0.25500000000E-02 0.  1.
          2   -1    0    0  501    0  0.00000000000E+00 -0.00000000000E+00 -0.28604176421E+04  0.28604176421E+04  0.25500000000E-02 0. -1.
    8880023    1    1    2    0    0  0.30322640972E+03  0.57244998685E+02 -0.11214832671E+03  0.73594204858E+03  0.65864270000E+03 0.  1.
    8880022    1    1    2    0    0 -0.30322640972E+03 -0.57244998685E+02 -0.24242011937E+04  0.24485437153E+04  0.15294330000E+03 0.  0.
<mgrwt>
<rscale>  0 0.60335592E+03</rscale>
<asrwt>0</asrwt>
<pdfrwt beam="1">  1        2 0.44006424E+00 0.72734686E+03</pdfrwt>
<pdfrwt beam="2">  1       -2 0.49856636E-01 0.72734686E+03</pdfrwt>
<totfact> 0.86050612E+00</totfact>
</mgrwt>
</event>
<event>
 4    5  0.7289609E-008  0.1338741E+04  0.7818608E-02  0.9032806E-01
          2   -1    0    0  501    0  0.00000000000E+00  0.00000000000E+00  0.16841022314E+04  0.16841022314E+04  0.25500000000E-02 0. -1.
         -2   -1    0    0    0  501 -0.00000000000E+00 -0.00000000000E+00 -0.10289625352E+04  0.10289625352E+04  0.25500000000E-02 0.  1.
    8880023    1    1    2    0    0  0.84910243304E+03  0.79840032432E+03 -0.54709061037E+02  0.13398586893E+04  0.65864270000E+03 0.  0.
    8880022    1    1    2    0    0 -0.84910243304E+03 -0.79840032432E+03  0.70984875718E+03  0.13732060773E+04  0.15294330000E+03 0.  0.
<mgrwt>
<rscale>  0 0.12959210E+04</rscale>
<asrwt>0</asrwt>
<pdfrwt beam="1">  1        2 0.25909265E+00 0.13387413E+04</pdfrwt>
<pdfrwt beam="2">  1       -2 0.15830193E+00 0.13387413E+04</pdfrwt>
<totfact> 0.24873626E+00</totfact>
</mgrwt>
</event>
<event>
 4    5  0.7289609E-008  0.1302635E+04  0.7818608E-02  0.9063288E-01
          2   -1    0    0  501    0  0.00000000000E+00  0.00000000000E+00  0.19151365873E+04  0.19151365873E+04  0.25500000000E-02 0. -1.
         -2   -1    0    0    0  501 -0.00000000000E+00 -0.00000000000E+00 -0.15319499278E+04  0.15319499278E+04  0.25500000000E-02 0.  1.
    8880023    1    1    2    0    0 -0.97912459344E+03 -0.55169087506E+03 -0.10116329994E+04  0.16493208672E+04  0.65864270000E+03 0.  0.
    8880022    1    1    2    0    0  0.97912459344E+03  0.55169087506E+03  0.13948196589E+04  0.17977656480E+04  0.15294330000E+03 0.  0.
<mgrwt>
<rscale>  0 0.12583189E+04</rscale>
<asrwt>0</asrwt>
<pdfrwt beam="1">  1        2 0.29463640E+00 0.13026350E+04</pdfrwt>
<pdfrwt beam="2">  1       -2 0.23568460E+00 0.13026350E+04</pdfrwt>
<totfact> 0.56285448E-01</totfact>
</mgrwt>
</event>
<event>
 4    5  0.7289609E-008  0.1273956E+04  0.7818608E-02  0.9088383E-01
         -2   -1    0    0    0  501 -0.00000000000E+00  0.00000000000E+00  0.12681733080E+04  0.12681733080E+04  0.25500000000E-02 0.  1.
          2   -1    0    0  501    0  0.00000000000E+00 -0.00000000000E+00 -0.34120223100E+04  0.34120223100E+04  0.25500000000E-02 0. -1.
    8880023    1    1    2    0    0 -0.53804964735E+03 -0.94850254328E+03  0.82226784165E+03  0.15162747466E+04  0.65864270000E+03 0.  0.
    8880022    1    1    2    0    0  0.53804964735E+03  0.94850254328E+03 -0.29661168436E+04  0.31639208714E+04  0.15294330000E+03 0.  0.
<mgrwt>
<rscale>  0 0.12283671E+04</rscale>
<asrwt>0</asrwt>
<pdfrwt beam="1">  1        2 0.52492651E+00 0.12739563E+04</pdfrwt>
<pdfrwt beam="2">  1       -2 0.19510359E+00 0.12739563E+04</pdfrwt>
<totfact> 0.13120460E-01</totfact>
</mgrwt>
</event>
<event>
 4    5  0.7289609E-008  0.7324599E+03  0.7818608E-02  0.9882481E-01
         -2   -1    0    0    0  501 -0.00000000000E+00  0.00000000000E+00  0.12608914275E+04  0.12608914275E+04  0.25500000000E-02 0.  1.
          2   -1    0    0  501    0  0.00000000000E+00 -0.00000000000E+00 -0.26239227295E+04  0.26239227296E+04  0.25500000000E-02 0. -1.
    8880023    1    1    2    0    0 -0.14534003714E+03 -0.28559347630E+03  0.11409261575E+04  0.13558060566E+04  0.65864270000E+03 0.  1.
    8880022    1    1    2    0    0  0.14534003714E+03  0.28559347630E+03 -0.25039574595E+04  0.25290081004E+04  0.15294330000E+03 0.  0.
<mgrwt>
<rscale>  0 0.61117877E+03</rscale>
<asrwt>0</asrwt>
<pdfrwt beam="1">  1        2 0.40368042E+00 0.73245994E+03</pdfrwt>
<pdfrwt beam="2">  1       -2 0.19398330E+00 0.73245994E+03</pdfrwt>
<totfact> 0.45775924E-01</totfact>
</mgrwt>
</event>
<event>
 4    5  0.7289609E-008  0.1244105E+04  0.7818608E-02  0.9115398E-01
          2   -1    0    0  501    0  0.00000000000E+00  0.00000000000E+00  0.18433871251E+04  0.18433871251E+04  0.25500000000E-02 0. -1.
         -2   -1    0    0    0  501 -0.00000000000E+00 -0.00000000000E+00 -0.11156005247E+04  0.11156005247E+04  0.25500000000E-02 0.  1.
    8880023    1    1    2    0    0  0.68438604588E+03 -0.80349400765E+03 -0.49277256090E+03  0.13381412045E+04  0.65864270000E+03 0.  0.
    8880022    1    1    2    0    0 -0.68438604588E+03  0.80349400765E+03  0.12205591613E+04  0.16208464453E+04  0.15294330000E+03 0.  0.
<mgrwt>
<rscale>  0 0.11971013E+04</rscale>
<asrwt>0</asrwt>
<pdfrwt beam="1">  1        2 0.28359802E+00 0.12441049E+04</pdfrwt>
<pdfrwt beam="2">  1       -2 0.17163085E+00 0.12441049E+04</pdfrwt>
<totfact> 0.16373195E+00</totfact>
</mgrwt>
</event>
<event>
 4    5  0.7289609E-008  0.6738326E+03  0.7818608E-02  0.1013052E+00
          2   -1    0    0  501    0  0.00000000000E+00  0.00000000000E+00  0.55450337649E+03  0.55450337649E+03  0.25500000000E-02 0. -1.
         -2   -1    0    0    0  501 -0.00000000000E+00 -0.00000000000E+00 -0.39277999898E+03  0.39277999899E+03  0.25500000000E-02 0.  1.
    8880023    1    1    2    0    0  0.63677168053E+02  0.12722205692E+03 -0.14509461245E+02  0.67398884577E+03  0.65864270000E+03 0.  1.
    8880022    1    1    2    0    0 -0.63677168053E+02 -0.12722205692E+03  0.17623283875E+03  0.27329452971E+03  0.15294330000E+03 0.  1.
<mgrwt>
<rscale>  0 0.50279336E+03</rscale>
<asrwt>0</asrwt>
<pdfrwt beam="1">  1        2 0.85308212E-01 0.67383265E+03</pdfrwt>
<pdfrwt beam="2">  1       -2 0.60427692E-01 0.67383265E+03</pdfrwt>
<totfact> 0.14111603E+02</totfact>
</mgrwt>
</event>
<event>
 4    5  0.7289609E-008  0.7352268E+03  0.7818608E-02  0.9874076E-01
         -2   -1    0    0    0  501 -0.00000000000E+00  0.00000000000E+00  0.63419667731E+03  0.63419667731E+03  0.25500000000E-02 0.  1.
          2   -1    0    0  501    0  0.00000000000E+00 -0.00000000000E+00 -0.49368045058E+03  0.49368045058E+03  0.25500000000E-02 0. -1.
    8880023    1    1    2    0    0 -0.23614830667E+03 -0.22579253295E+03  0.20073335910E+03  0.76213671897E+03  0.65864270000E+03 0.  0.
    8880022    1    1    2    0    0  0.23614830667E+03  0.22579253295E+03 -0.60217132370E+02  0.36574040893E+03  0.15294330000E+03 0.  0.
<mgrwt>
<rscale>  0 0.61534311E+03</rscale>
<asrwt>0</asrwt>
<pdfrwt beam="1">  1        2 0.75950838E-01 0.73522683E+03</pdfrwt>
<pdfrwt beam="2">  1       -2 0.97568720E-01 0.73522683E+03</pdfrwt>
<totfact> 0.55401213E+01</totfact>
</mgrwt>
</event>
<event>
 4    5  0.7289609E-008  0.7145349E+03  0.7818608E-02  0.9941531E-01
          2   -1    0    0  501    0  0.00000000000E+00  0.00000000000E+00  0.26525414012E+04  0.26525414012E+04  0.25500000000E-02 0. -1.
         -2   -1    0    0    0  501 -0.00000000000E+00 -0.00000000000E+00 -0.11083093427E+03  0.11083093430E+03  0.25500000000E-02 0.  1.
    8880023    1    1    2    0    0 -0.22414900026E+03  0.16281034440E+03  0.13159950626E+04  0.14974655901E+04  0.65864270000E+03 0.  1.
    8880022    1    1    2    0    0  0.22414900026E+03 -0.16281034440E+03  0.12257154043E+04  0.12659067454E+04  0.15294330000E+03 0.  0.
<mgrwt>
<rscale>  0 0.58290052E+03</rscale>
<asrwt>0</asrwt>
<pdfrwt beam="1">  1        2 0.40808327E+00 0.71453495E+03</pdfrwt>
<pdfrwt beam="2">  1       -2 0.17050914E-01 0.71453495E+03</pdfrwt>
<totfact> 0.83602277E+01</totfact>
</mgrwt>
</event>
<event>
 4    5  0.7289609E-008  0.8496075E+03  0.7818608E-02  0.9612324E-01
         -2   -1    0    0    0  501 -0.00000000000E+00  0.00000000000E+00  0.95614394997E+03  0.95614394998E+03  0.25500000000E-02 0.  1.
          2   -1    0    0  501    0  0.00000000000E+00 -0.00000000000E+00 -0.85728461639E+03  0.85728461639E+03  0.25500000000E-02 0. -1.
    8880023    1    1    2    0    0 -0.53292783857E+03 -0.63329402601E+02  0.61851053629E+03  0.10508987507E+04  0.65864270000E+03 0.  0.
    8880022    1    1    2    0    0  0.53292783857E+03  0.63329402601E+02 -0.51965120271E+03  0.76252981571E+03  0.15294330000E+03 0.  0.
<mgrwt>
<rscale>  0 0.76485847E+03</rscale>
<asrwt>0</asrwt>
<pdfrwt beam="1">  1        2 0.13188994E+00 0.84960750E+03</pdfrwt>
<pdfrwt beam="2">  1       -2 0.14709907E+00 0.84960750E+03</pdfrwt>
<totfact> 0.99539735E+00</totfact>
</mgrwt>
</event>
<event>
 4    5  0.7289609E-008  0.1043498E+04  0.7818608E-02  0.9326739E-01
          2   -1    0    0  501    0  0.00000000000E+00  0.00000000000E+00  0.36563207671E+04  0.36563207671E+04  0.25500000000E-02 0. -1.
         -2   -1    0    0    0  501 -0.00000000000E+00 -0.00000000000E+00 -0.57203587486E+03  0.57203587487E+03  0.25500000000E-02 0.  1.
    8880023    1    1    2    0    0  0.80786614923E+03  0.49295478684E+02  0.78146568229E+01  0.10435272083E+04  0.65864270000E+03 0.  1.
    8880022    1    1    2    0    0 -0.80786614923E+03 -0.49295478684E+02  0.30764702354E+04  0.31848294337E+04  0.15294330000E+03 0.  0.
<mgrwt>
<rscale>  0 0.98358067E+03</rscale>
<asrwt>0</asrwt>
<pdfrwt beam="1">  1        2 0.56251089E+00 0.10434979E+04</pdfrwt>
<pdfrwt beam="2">  1       -2 0.88005519E-01 0.10434979E+04</pdfrwt>
<totfact> 0.72139158E-01</totfact>
</mgrwt>
</event>
<event>
 4    5  0.7289609E-008  0.7376290E+03  0.7818608E-02  0.9866908E-01
          2   -1    0    0  501    0  0.00000000000E+00  0.00000000000E+00  0.16945090841E+04  0.16945090841E+04  0.25500000000E-02 0. -1.
         -2   -1    0    0    0  501 -0.00000000000E+00 -0.00000000000E+00 -0.56313490206E+03  0.56313490207E+03  0.25500000000E-02 0.  1.
    8880023    1    1    2    0    0  0.31602478495E+03  0.10205231394E+03 -0.28805756705E+03  0.79187985685E+03  0.65864270000E+03 0.  0.
    8880022    1    1    2    0    0 -0.31602478495E+03 -0.10205231394E+03  0.14194317491E+04  0.14657641293E+04  0.15294330000E+03 0. -1.
<mgrwt>
<rscale>  0 0.61892208E+03</rscale>
<asrwt>0</asrwt>
<pdfrwt beam="1">  1        2 0.26069370E+00 0.73762900E+03</pdfrwt>
<pdfrwt beam="2">  1       -2 0.86636139E-01 0.73762900E+03</pdfrwt>
<totfact> 0.11735839E+01</totfact>
</mgrwt>
</event>
<event>
 4    5  0.7289609E-008  0.8274198E+03  0.7818608E-02  0.9654374E-01
          2   -1    0    0  501    0  0.00000000000E+00  0.00000000000E+00  0.10426744541E+04  0.10426744542E+04  0.25500000000E-02 0. -1.
         -2   -1    0    0    0  501 -0.00000000000E+00 -0.00000000000E+00 -0.77676206108E+03  0.77676206108E+03  0.25500000000E-02 0.  1.
    8880023    1    1    2    0    0  0.33552505415E+03 -0.37180135559E+03 -0.44264545338E+03  0.93838079352E+03  0.65864270000E+03 0.  1.
    8880022    1    1    2    0    0 -0.33552505415E+03  0.37180135559E+03  0.70855784645E+03  0.88105572171E+03  0.15294330000E+03 0.  0.
<mgrwt>
<rscale>  0 0.73799572E+03</rscale>
<asrwt>0</asrwt>
<pdfrwt beam="1">  1        2 0.16041145E+00 0.82741979E+03</pdfrwt>
<pdfrwt beam="2">  1       -2 0.11950186E+00 0.82741979E+03</pdfrwt>
<totfact> 0.12806363E+01</totfact>
</mgrwt>
</event>
<event>
 4    5  0.7289609E-008  0.1769612E+04  0.7818608E-02  0.8739535E-01
         -2   -1    0    0    0  501 -0.00000000000E+00  0.00000000000E+00  0.59868114245E+03  0.59868114245E+03  0.25500000000E-02 0.  1.
          2   -1    0    0  501    0  0.00000000000E+00 -0.00000000000E+00 -0.52162411362E+04  0.52162411362E+04  0.25500000000E-02 0. -1.
    8880023    1    1    2    0    0  0.40526548452E+02 -0.16419721359E+04 -0.16489959573E+04  0.24188246670E+04  0.65864270000E+03 0.  0.
    8880022    1    1    2    0    0 -0.40526548452E+02  0.16419721359E+04 -0.29685640365E+04  0.33960976116E+04  0.15294330000E+03 0.  1.
<mgrwt>
<rscale>  0 0.17388081E+04</rscale>
<asrwt>0</asrwt>
<pdfrwt beam="1">  1        2 0.80249861E+00 0.17696116E+04</pdfrwt>
<pdfrwt beam="2">  1       -2 0.92104794E-01 0.17696116E+04</pdfrwt>
<totfact> 0.16854280E-02</totfact>
</mgrwt>
</event>
<event>
 4    5  0.7289609E-008  0.7517321E+03  0.7818608E-02  0.9827003E-01
         -2   -1    0    0    0  501 -0.00000000000E+00  0.00000000000E+00  0.80908077054E+03  0.80908077054E+03  0.25500000000E-02 0.  1.
          2   -1    0    0  501    0  0.00000000000E+00 -0.00000000000E+00 -0.56787792088E+03  0.56787792089E+03  0.25500000000E-02 0. -1.
    8880023    1    1    2    0    0 -0.29210487939E+03  0.21439596389E+03  0.50300212386E+03  0.90449556813E+03  0.65864270000E+03 0.  1.
    8880022    1    1    2    0    0  0.29210487939E+03 -0.21439596389E+03 -0.26179927420E+03  0.47246312330E+03  0.15294330000E+03 0.  0.
<mgrwt>
<rscale>  0 0.63933351E+03</rscale>
<asrwt>0</asrwt>
<pdfrwt beam="1">  1        2 0.87365834E-01 0.75173206E+03</pdfrwt>
<pdfrwt beam="2">  1       -2 0.12447397E+00 0.75173206E+03</pdfrwt>
<totfact> 0.26005472E+01</totfact>
</mgrwt>
</event>
<event>
 4    5  0.7289609E-008  0.1035098E+04  0.7818608E-02  0.9337014E-01
         -2   -1    0    0    0  501 -0.00000000000E+00  0.00000000000E+00  0.83772391107E+03  0.83772391108E+03  0.25500000000E-02 0.  1.
          2   -1    0    0  501    0  0.00000000000E+00 -0.00000000000E+00 -0.19565192597E+04  0.19565192597E+04  0.25500000000E-02 0. -1.
    8880023    1    1    2    0    0 -0.51565982985E+03  0.60968175228E+03  0.36891110163E+03  0.10988732895E+04  0.65864270000E+03 0.  0.
    8880022    1    1    2    0    0  0.51565982985E+03 -0.60968175228E+03 -0.14877064502E+04  0.16953698813E+04  0.15294330000E+03 0.  0.
<mgrwt>
<rscale>  0 0.97445518E+03</rscale>
<asrwt>0</asrwt>
<pdfrwt beam="1">  1        2 0.30100296E+00 0.10350976E+04</pdfrwt>
<pdfrwt beam="2">  1       -2 0.12888060E+00 0.10350976E+04</pdfrwt>
<totfact> 0.31155030E+00</totfact>
</mgrwt>
</event>
<event>
 4    5  0.7289609E-008  0.1000768E+04  0.7818608E-02  0.9380554E-01
          2   -1    0    0  501    0  0.00000000000E+00  0.00000000000E+00  0.31311181359E+04  0.31311181359E+04  0.25500000000E-02 0. -1.
         -2   -1    0    0    0  501 -0.00000000000E+00 -0.00000000000E+00 -0.35886555679E+03  0.35886555679E+03  0.25500000000E-02 0.  1.
    8880023    1    1    2    0    0 -0.54599308931E+03  0.51924737044E+03  0.55749821163E+03  0.11455744181E+04  0.65864270000E+03 0.  0.
    8880022    1    1    2    0    0  0.54599308931E+03 -0.51924737044E+03  0.22147543675E+04  0.23444092746E+04  0.15294330000E+03 0.  0.
<mgrwt>
<rscale>  0 0.93693467E+03</rscale>
<asrwt>0</asrwt>
<pdfrwt beam="1">  1        2 0.48171047E+00 0.10007680E+04</pdfrwt>
<pdfrwt beam="2">  1       -2 0.55210088E-01 0.10007680E+04</pdfrwt>
<totfact> 0.45492259E+00</totfact>
</mgrwt>
</event>
<event>
 4    5  0.7289609E-008  0.1009241E+04  0.7818608E-02  0.9369567E-01
          2   -1    0    0  501    0  0.00000000000E+00  0.00000000000E+00  0.23594273190E+04  0.23594273190E+04  0.25500000000E-02 0. -1.
         -2   -1    0    0    0  501 -0.00000000000E+00 -0.00000000000E+00 -0.62616333217E+03  0.62616333217E+03  0.25500000000E-02 0.  1.
    8880023    1    1    2    0    0 -0.26361530020E+03 -0.71781855634E+03 -0.79334841121E+02  0.10123540535E+04  0.65864270000E+03 0.  0.
    8880022    1    1    2    0    0  0.26361530020E+03  0.71781855634E+03  0.18125988279E+04  0.19732365977E+04  0.15294330000E+03 0.  0.
<mgrwt>
<rscale>  0 0.94623112E+03</rscale>
<asrwt>0</asrwt>
<pdfrwt beam="1">  1        2 0.36298882E+00 0.10092407E+04</pdfrwt>
<pdfrwt beam="2">  1       -2 0.96332819E-01 0.10092407E+04</pdfrwt>
<totfact> 0.38023904E+00</totfact>
</mgrwt>
</event>
<event>
 4    5  0.7289609E-008  0.8483553E+03  0.7818608E-02  0.9614622E-01
          2   -1    0    0  501    0  0.00000000000E+00  0.00000000000E+00  0.93231885026E+03  0.93231885027E+03  0.25500000000E-02 0. -1.
         -2   -1    0    0    0  501 -0.00000000000E+00 -0.00000000000E+00 -0.55629010495E+03  0.55629010496E+03  0.25500000000E-02 0.  1.
    8880023    1    1    2    0    0  0.36098106347E+03  0.39444801137E+03  0.63634034249E+02  0.85073853706E+03  0.65864270000E+03 0.  0.
    8880022    1    1    2    0    0 -0.36098106347E+03 -0.39444801137E+03  0.31239471107E+03  0.63787041817E+03  0.15294330000E+03 0.  0.
<mgrwt>
<rscale>  0 0.76335889E+03</rscale>
<asrwt>0</asrwt>
<pdfrwt beam="1">  1        2 0.14343367E+00 0.84835533E+03</pdfrwt>
<pdfrwt beam="2">  1       -2 0.85583094E-01 0.84835533E+03</pdfrwt>
<totfact> 0.33309290E+01</totfact>
</mgrwt>
</event>
<event>
 4    5  0.7289609E-008  0.1232603E+04  0.7818608E-02  0.9126064E-01
          2   -1    0    0  501    0  0.00000000000E+00  0.00000000000E+00  0.25400157530E+04  0.25400157530E+04  0.25500000000E-02 0. -1.
         -2   -1    0    0    0  501 -0.00000000000E+00 -0.00000000000E+00 -0.70321359131E+03  0.70321359131E+03  0.25500000000E-02 0.  1.
    8880023    1    1    2    0    0 -0.59677286673E+02 -0.10401621837E+04  0.13230581016E+03  0.12396829355E+04  0.65864270000E+03 0.  0.
    8880022    1    1    2    0    0  0.59677286673E+02  0.10401621837E+04  0.17044963516E+04  0.20035464089E+04  0.15294330000E+03 0.  0.
<mgrwt>
<rscale>  0 0.11850273E+04</rscale>
<asrwt>0</asrwt>
<pdfrwt beam="1">  1        2 0.39077166E+00 0.12326025E+04</pdfrwt>
<pdfrwt beam="2">  1       -2 0.10818671E+00 0.12326025E+04</pdfrwt>
<totfact> 0.22093424E+00</totfact>
</mgrwt>
</event>
<event>
 4    5  0.7289609E-008  0.1559157E+04  0.7818608E-02  0.8868954E-01
         -2   -1    0    0    0  501 -0.00000000000E+00  0.00000000000E+00  0.15102377829E+04  0.15102377829E+04  0.25500000000E-02 0.  1.
          2   -1    0    0  501    0  0.00000000000E+00 -0.00000000000E+00 -0.22024780559E+04  0.22024780559E+04  0.25500000000E-02 0. -1.
    8880023    1    1    2    0    0 -0.11878768699E+04  0.76557761317E+03 -0.14261045542E+04  0.21129943080E+04  0.65864270000E+03 0.  0.
    8880022    1    1    2    0    0  0.11878768699E+04 -0.76557761317E+03  0.73386428121E+03  0.15997215308E+04  0.15294330000E+03 0.  0.
<mgrwt>
<rscale>  0 0.15235305E+04</rscale>
<asrwt>0</asrwt>
<pdfrwt beam="1">  1        2 0.33884278E+00 0.15591571E+04</pdfrwt>
<pdfrwt beam="2">  1       -2 0.23234427E+00 0.15591571E+04</pdfrwt>
<totfact> 0.39637722E-01</totfact>
</mgrwt>
</event>
<event>
 4    5  0.7289609E-008  0.1426992E+04  0.7818608E-02  0.8962988E-01
          2   -1    0    0  501    0  0.00000000000E+00  0.00000000000E+00  0.29948043411E+04  0.29948043411E+04  0.25500000000E-02 0. -1.
         -2   -1    0    0    0  501 -0.00000000000E+00 -0.00000000000E+00 -0.84790015260E+03  0.84790015260E+03  0.25500000000E-02 0.  1.
    8880023    1    1    2    0    0 -0.11329536890E+04 -0.56472280523E+03  0.99184060107E+02  0.14304347564E+04  0.65864270000E+03 0.  1.
    8880022    1    1    2    0    0  0.11329536890E+04  0.56472280523E+03  0.20477201284E+04  0.24122697373E+04  0.15294330000E+03 0.  0.
<mgrwt>
<rscale>  0 0.13874025E+04</rscale>
<asrwt>0</asrwt>
<pdfrwt beam="1">  1        2 0.46073913E+00 0.14269920E+04</pdfrwt>
<pdfrwt beam="2">  1       -2 0.13044618E+00 0.14269920E+04</pdfrwt>
<totfact> 0.72407848E-01</totfact>
</mgrwt>
</event>
<event>
 4    5  0.7289609E-008  0.7408468E+03  0.7818608E-02  0.9857487E-01
         -2   -1    0    0    0  501 -0.00000000000E+00  0.00000000000E+00  0.48856223585E+03  0.48856223585E+03  0.25500000000E-02 0.  1.
          2   -1    0    0  501    0  0.00000000000E+00 -0.00000000000E+00 -0.15489158760E+04  0.15489158760E+04  0.25500000000E-02 0. -1.
    8880023    1    1    2    0    0 -0.14417046581E+03  0.30701567530E+03  0.16319543494E+03  0.75860839986E+03  0.65864270000E+03 0.  0.
    8880022    1    1    2    0    0  0.14417046581E+03 -0.30701567530E+03 -0.12235490751E+04  0.12788697120E+04  0.15294330000E+03 0. -1.
<mgrwt>
<rscale>  0 0.62366618E+03</rscale>
<asrwt>0</asrwt>
<pdfrwt beam="1">  1        2 0.23829475E+00 0.74084678E+03</pdfrwt>
<pdfrwt beam="2">  1       -2 0.75163422E-01 0.74084678E+03</pdfrwt>
<totfact> 0.19424299E+01</totfact>
</mgrwt>
</event>
<event>
 4    5  0.7289609E-008  0.6605130E+03  0.7818608E-02  0.1023637E+00
         -2   -1    0    0    0  501 -0.00000000000E+00  0.00000000000E+00  0.13081902511E+03  0.13081902514E+03  0.25500000000E-02 0.  1.
          2   -1    0    0  501    0  0.00000000000E+00 -0.00000000000E+00 -0.17602461582E+04  0.17602461582E+04  0.25500000000E-02 0. -1.
    8880023    1    1    2    0    0 -0.68693093290E+01 -0.49193128691E+02 -0.76009996140E+03  0.10069902228E+04  0.65864270000E+03 0.  1.
    8880022    1    1    2    0    0  0.68693093290E+01  0.49193128691E+02 -0.86932717171E+03  0.88407496051E+03  0.15294330000E+03 0.  0.
<mgrwt>
<rscale>  0 0.46396696E+03</rscale>
<asrwt>0</asrwt>
<pdfrwt beam="1">  1        2 0.27080708E+00 0.66051295E+03</pdfrwt>
<pdfrwt beam="2">  1       -2 0.20126005E-01 0.66051295E+03</pdfrwt>
<totfact> 0.19682413E+02</totfact>
</mgrwt>
</event>
<event>
 4    5  0.7289609E-008  0.1014237E+04  0.7818608E-02  0.9363164E-01
          2   -1    0    0  501    0  0.00000000000E+00  0.00000000000E+00  0.83656469375E+03  0.83656469375E+03  0.25500000000E-02 0. -1.
         -2   -1    0    0    0  501 -0.00000000000E+00 -0.00000000000E+00 -0.18210284909E+04  0.18210284909E+04  0.25500000000E-02 0.  1.
    8880023    1    1    2    0    0  0.62219178919E+03 -0.45578955693E+03 -0.14305217614E+04  0.17535875966E+04  0.65864270000E+03 0.  0.
    8880022    1    1    2    0    0 -0.62219178919E+03  0.45578955693E+03  0.44605796427E+03  0.90400558806E+03  0.15294330000E+03 0.  0.
<mgrwt>
<rscale>  0 0.95170178E+03</rscale>
<asrwt>0</asrwt>
<pdfrwt beam="1">  1        2 0.12870226E+00 0.10142371E+04</pdfrwt>
<pdfrwt beam="2">  1       -2 0.28015823E+00 0.10142371E+04</pdfrwt>
<totfact> 0.13623335E+00</totfact>
</mgrwt>
</event>
<event>
 4    5  0.7289609E-008  0.6594397E+03  0.7818608E-02  0.1024738E+00
          2   -1    0    0  501    0  0.00000000000E+00  0.00000000000E+00  0.36865393538E+03  0.36865393539E+03  0.25500000000E-02 0. -1.
         -2   -1    0    0    0  501 -0.00000000000E+00 -0.00000000000E+00 -0.16887144028E+04  0.16887144028E+04  0.25500000000E-02 0.  1.
    8880023    1    1    2    0    0 -0.26690470916E+01 -0.32301421986E+02 -0.16034265280E+04  0.17337350844E+04  0.65864270000E+03 0.  1.
    8880022    1    1    2    0    0  0.26690470916E+01  0.32301421986E+02  0.28336606060E+03  0.32363325384E+03  0.15294330000E+03 0.  0.
<mgrwt>
<rscale>  0 0.46014929E+03</rscale>
<asrwt>0</asrwt>
<pdfrwt beam="1">  1        2 0.56715991E-01 0.65943970E+03</pdfrwt>
<pdfrwt beam="2">  1       -2 0.25980221E+00 0.65943970E+03</pdfrwt>
<totfact> 0.50868933E+00</totfact>
</mgrwt>
</event>
<event>
 4    5  0.7289609E-008  0.7839535E+03  0.7818608E-02  0.9746631E-01
         -2   -1    0    0    0  501 -0.00000000000E+00  0.00000000000E+00  0.11307977515E+04  0.11307977515E+04  0.25500000000E-02 0.  1.
          2   -1    0    0  501    0  0.00000000000E+00 -0.00000000000E+00 -0.26500130489E+04  0.26500130489E+04  0.25500000000E-02 0. -1.
    8880023    1    1    2    0    0 -0.33160579229E+03 -0.26610225963E+03  0.97211576367E+03  0.12488362896E+04  0.65864270000E+03 0.  1.
    8880022    1    1    2    0    0  0.33160579229E+03  0.26610225963E+03 -0.24913310611E+04  0.25319745107E+04  0.15294330000E+03 0.  0.
<mgrwt>
<rscale>  0 0.68307003E+03</rscale>
<asrwt>0</asrwt>
<pdfrwt beam="1">  1        2 0.40769432E+00 0.78395346E+03</pdfrwt>
<pdfrwt beam="2">  1       -2 0.17396888E+00 0.78395346E+03</pdfrwt>
<totfact> 0.59738481E-01</totfact>
</mgrwt>
</event>
<event>
 4    5  0.7289609E-008  0.8442943E+03  0.7818608E-02  0.9622135E-01
         -2   -1    0    0    0  501 -0.00000000000E+00  0.00000000000E+00  0.64335233560E+03  0.64335233560E+03  0.25500000000E-02 0.  1.
          2   -1    0    0  501    0  0.00000000000E+00 -0.00000000000E+00 -0.13871383070E+04  0.13871383070E+04  0.25500000000E-02 0. -1.
    8880023    1    1    2    0    0 -0.43194109921E+03 -0.30405520666E+03  0.26214636988E+03  0.88405520608E+03  0.65864270000E+03 0.  1.
    8880022    1    1    2    0    0  0.43194109921E+03  0.30405520666E+03 -0.10059323413E+04  0.11464354366E+04  0.15294330000E+03 0.  0.
<mgrwt>
<rscale>  0 0.75848273E+03</rscale>
<asrwt>0</asrwt>
<pdfrwt beam="1">  1        2 0.21340589E+00 0.84429431E+03</pdfrwt>
<pdfrwt beam="2">  1       -2 0.98977283E-01 0.84429431E+03</pdfrwt>
<totfact> 0.12593768E+01</totfact>
</mgrwt>
</event>
<event>
 4    5  0.7289609E-008  0.6701453E+03  0.7818608E-02  0.1015559E+00
         -2   -1    0    0    0  501 -0.00000000000E+00  0.00000000000E+00  0.27183099907E+04  0.27183099907E+04  0.25500000000E-02 0.  1.
          2   -1    0    0  501    0  0.00000000000E+00 -0.00000000000E+00 -0.38002432918E+03  0.38002432919E+03  0.25500000000E-02 0. -1.
    8880023    1    1    2    0    0 -0.66790812797E+02  0.10403611363E+03  0.26479855925E+04  0.27314689143E+04  0.65864270000E+03 0.  1.
    8880022    1    1    2    0    0  0.66790812797E+02 -0.10403611363E+03 -0.30969993092E+03  0.36686540562E+03  0.15294330000E+03 0.  0.
<mgrwt>
<rscale>  0 0.49323874E+03</rscale>
<asrwt>0</asrwt>
<pdfrwt beam="1">  1        2 0.58465280E-01 0.67014531E+03</pdfrwt>
<pdfrwt beam="2">  1       -2 0.41820155E+00 0.67014531E+03</pdfrwt>
<totfact> 0.51372623E-01</totfact>
</mgrwt>
</event>
<event>
 4    5  0.7289609E-008  0.1044680E+04  0.7818608E-02  0.9325304E-01
         -2   -1    0    0    0  501 -0.00000000000E+00  0.00000000000E+00  0.46572029010E+03  0.46572029011E+03  0.25500000000E-02 0.  1.
          2   -1    0    0  501    0  0.00000000000E+00 -0.00000000000E+00 -0.25121441558E+04  0.25121441558E+04  0.25500000000E-02 0. -1.
    8880023    1    1    2    0    0  0.53992644408E+03 -0.60500059036E+03 -0.36807574234E+03  0.11076263981E+04  0.65864270000E+03 0.  0.
    8880022    1    1    2    0    0 -0.53992644408E+03  0.60500059036E+03 -0.16783481233E+04  0.18702380478E+04  0.15294330000E+03 0.  0.
<mgrwt>
<rscale>  0 0.98486324E+03</rscale>
<asrwt>0</asrwt>
<pdfrwt beam="1">  1        2 0.38648371E+00 0.10446801E+04</pdfrwt>
<pdfrwt beam="2">  1       -2 0.71649277E-01 0.10446801E+04</pdfrwt>
<totfact> 0.60829058E+00</totfact>
</mgrwt>
</event>
<event>
 4    5  0.7289609E-008  0.1205068E+04  0.7818608E-02  0.9152212E-01
         -2   -1    0    0    0  501 -0.00000000000E+00  0.00000000000E+00  0.10724514387E+04  0.10724514387E+04  0.25500000000E-02 0.  1.
          2   -1    0    0  501    0  0.00000000000E+00 -0.00000000000E+00 -0.14989826724E+04  0.14989826724E+04  0.25500000000E-02 0. -1.
    8880023    1    1    2    0    0 -0.77806003550E+03  0.64265109097E+03  0.38756856774E+03  0.12658583825E+04  0.65864270000E+03 0.  0.
    8880022    1    1    2    0    0  0.77806003550E+03 -0.64265109097E+03 -0.81409980144E+03  0.13055757287E+04  0.15294330000E+03 0.  0.
<mgrwt>
<rscale>  0 0.11560591E+04</rscale>
<asrwt>0</asrwt>
<pdfrwt beam="1">  1        2 0.23061272E+00 0.12050677E+04</pdfrwt>
<pdfrwt beam="2">  1       -2 0.16499253E+00 0.12050677E+04</pdfrwt>
<totfact> 0.28564806E+00</totfact>
</mgrwt>
</event>
<event>
 4    5  0.7289609E-008  0.7869483E+03  0.7818608E-02  0.9739761E-01
         -2   -1    0    0    0  501 -0.00000000000E+00  0.00000000000E+00  0.24400396601E+03  0.24400396602E+03  0.25500000000E-02 0.  1.
          2   -1    0    0  501    0  0.00000000000E+00 -0.00000000000E+00 -0.15964103361E+04  0.15964103361E+04  0.25500000000E-02 0. -1.
    8880023    1    1    2    0    0 -0.30160762616E+03  0.30742527508E+03 -0.78091338605E+03  0.11086538606E+04  0.65864270000E+03 0.  1.
    8880022    1    1    2    0    0  0.30160762616E+03 -0.30742527508E+03 -0.57149298404E+03  0.73176044149E+03  0.15294330000E+03 0. -1.
<mgrwt>
<rscale>  0 0.68697976E+03</rscale>
<asrwt>0</asrwt>
<pdfrwt beam="1">  1        2 0.24560158E+00 0.78694832E+03</pdfrwt>
<pdfrwt beam="2">  1       -2 0.37539073E-01 0.78694832E+03</pdfrwt>
<totfact> 0.76295135E+01</totfact>
</mgrwt>
</event>
<event>
 4    5  0.7289609E-008  0.1732483E+04  0.7818608E-02  0.8760833E-01
         -2   -1    0    0    0  501 -0.00000000000E+00  0.00000000000E+00  0.11756913323E+04  0.11756913324E+04  0.25500000000E-02 0.  1.
          2   -1    0    0  501    0  0.00000000000E+00 -0.00000000000E+00 -0.28053006671E+04  0.28053006671E+04  0.25500000000E-02 0. -1.
    8880023    1    1    2    0    0 -0.41076328308E+03 -0.15488583261E+04 -0.16190871433E+04  0.23712743352E+04  0.65864270000E+03 0.  0.
    8880022    1    1    2    0    0  0.41076328308E+03  0.15488583261E+04 -0.10522191424E+02  0.16097176642E+04  0.15294330000E+03 0.  0.
<mgrwt>
<rscale>  0 0.17009319E+04</rscale>
<asrwt>0</asrwt>
<pdfrwt beam="1">  1        2 0.43158472E+00 0.17324834E+04</pdfrwt>
<pdfrwt beam="2">  1       -2 0.18087559E+00 0.17324834E+04</pdfrwt>
<totfact> 0.37748646E-01</totfact>
</mgrwt>
</event>
<event>
 4    5  0.7289609E-008  0.1082051E+04  0.7818608E-02  0.9281308E-01
         -2   -1    0    0    0  501 -0.00000000000E+00  0.00000000000E+00  0.18753354140E+04  0.18753354140E+04  0.25500000000E-02 0.  1.
          2   -1    0    0  501    0  0.00000000000E+00 -0.00000000000E+00 -0.53349913885E+03  0.53349913886E+03  0.25500000000E-02 0. -1.
    8880023    1    1    2    0    0 -0.68707811080E+03  0.51473112941E+03  0.99625266629E+03  0.14708344731E+04  0.65864270000E+03 0.  1.
    8880022    1    1    2    0    0  0.68707811080E+03 -0.51473112941E+03  0.34558360889E+03  0.93800007978E+03  0.15294330000E+03 0.  0.
<mgrwt>
<rscale>  0 0.10252204E+04</rscale>
<asrwt>0</asrwt>
<pdfrwt beam="1">  1        2 0.82076789E-01 0.10820511E+04</pdfrwt>
<pdfrwt beam="2">  1       -2 0.28851314E+00 0.10820511E+04</pdfrwt>
<totfact> 0.21238423E+00</totfact>
</mgrwt>
</event>
<event>
 4    5  0.7289609E-008  0.9368649E+03  0.7818608E-02  0.9469270E-01
         -2   -1    0    0    0  501 -0.00000000000E+00  0.00000000000E+00  0.41984761906E+03  0.41984761907E+03  0.25500000000E-02 0.  1.
          2   -1    0    0  501    0  0.00000000000E+00 -0.00000000000E+00 -0.26960610608E+04  0.26960610608E+04  0.25500000000E-02 0. -1.
    8880023    1    1    2    0    0  0.63106586915E+03 -0.21368553386E+03 -0.23872350845E+03  0.96680130241E+03  0.65864270000E+03 0.  0.
    8880022    1    1    2    0    0 -0.63106586915E+03  0.21368553386E+03 -0.20374899333E+04  0.21491073775E+04  0.15294330000E+03 0.  0.
<mgrwt>
<rscale>  0 0.86587836E+03</rscale>
<asrwt>0</asrwt>
<pdfrwt beam="1">  1        2 0.41477861E+00 0.93686490E+03</pdfrwt>
<pdfrwt beam="2">  1       -2 0.64591943E-01 0.93686490E+03</pdfrwt>
<totfact> 0.60522135E+00</totfact>
</mgrwt>
</event>
<event>
 4    5  0.7289609E-008  0.1104236E+04  0.7818608E-02  0.9256355E-01
          2   -1    0    0  501    0  0.00000000000E+00  0.00000000000E+00  0.18962673081E+04  0.18962673081E+04  0.25500000000E-02 0. -1.
         -2   -1    0    0    0  501 -0.00000000000E+00 -0.00000000000E+00 -0.84161449889E+03  0.84161449889E+03  0.25500000000E-02 0.  1.
    8880023    1    1    2    0    0 -0.78400488624E+03 -0.41335579831E+03 -0.26998489936E+03  0.11367623893E+04  0.65864270000E+03 0.  1.
    8880022    1    1    2    0    0  0.78400488624E+03  0.41335579831E+03  0.13246377085E+04  0.16011194176E+04  0.15294330000E+03 0.  0.
<mgrwt>
<rscale>  0 0.10490217E+04</rscale>
<asrwt>0</asrwt>
<pdfrwt beam="1">  1        2 0.29173342E+00 0.11042359E+04</pdfrwt>
<pdfrwt beam="2">  1       -2 0.12947916E+00 0.11042359E+04</pdfrwt>
<totfact> 0.32968686E+00</totfact>
</mgrwt>
</event>
<event>
 4    5  0.7289609E-008  0.1150621E+04  0.7818608E-02  0.9206684E-01
          2   -1    0    0  501    0  0.00000000000E+00  0.00000000000E+00  0.29344067655E+04  0.29344067655E+04  0.25500000000E-02 0. -1.
         -2   -1    0    0    0  501 -0.00000000000E+00 -0.00000000000E+00 -0.39194204070E+03  0.39194204070E+03  0.25500000000E-02 0.  1.
    8880023    1    1    2    0    0 -0.44356709853E+03  0.83268647008E+03  0.10723431926E+04  0.15728473090E+04  0.65864270000E+03 0.  1.
    8880022    1    1    2    0    0  0.44356709853E+03 -0.83268647008E+03  0.14701215322E+04  0.17535014972E+04  0.15294330000E+03 0. -1.
<mgrwt>
<rscale>  0 0.10984705E+04</rscale>
<asrwt>0</asrwt>
<pdfrwt beam="1">  1        2 0.45144721E+00 0.11506210E+04</pdfrwt>
<pdfrwt beam="2">  1       -2 0.60298774E-01 0.11506210E+04</pdfrwt>
<totfact> 0.49091407E+00</totfact>
</mgrwt>
</event>
<event>
 4    5  0.7289609E-008  0.7491214E+03  0.7818608E-02  0.9834132E-01
          2   -1    0    0  501    0  0.00000000000E+00  0.00000000000E+00  0.18137892788E+04  0.18137892788E+04  0.25500000000E-02 0. -1.
         -2   -1    0    0    0  501 -0.00000000000E+00 -0.00000000000E+00 -0.20558677772E+03  0.20558677774E+03  0.25500000000E-02 0.  1.
    8880023    1    1    2    0    0  0.34504933081E+03 -0.91178939903E+02  0.67401886508E+03  0.10077123977E+04  0.65864270000E+03 0. -1.
    8880022    1    1    2    0    0 -0.34504933081E+03  0.91178939903E+02  0.93418363597E+03  0.10116636588E+04  0.15294330000E+03 0.  0.
<mgrwt>
<rscale>  0 0.63562571E+03</rscale>
<asrwt>0</asrwt>
<pdfrwt beam="1">  1        2 0.27904449E+00 0.74912138E+03</pdfrwt>
<pdfrwt beam="2">  1       -2 0.31628736E-01 0.74912138E+03</pdfrwt>
<totfact> 0.80608714E+01</totfact>
</mgrwt>
</event>
<event>
 4    5  0.7289609E-008  0.9834673E+03  0.7818608E-02  0.9403514E-01
          2   -1    0    0  501    0  0.00000000000E+00  0.00000000000E+00  0.30029989050E+04  0.30029989050E+04  0.25500000000E-02 0. -1.
         -2   -1    0    0    0  501 -0.00000000000E+00 -0.00000000000E+00 -0.38937254831E+03  0.38937254832E+03  0.25500000000E-02 0.  1.
    8880023    1    1    2    0    0 -0.24392901245E+03 -0.68840133276E+03  0.40941425763E+03  0.10652830603E+04  0.65864270000E+03 0.  1.
    8880022    1    1    2    0    0  0.24392901245E+03  0.68840133276E+03  0.22042120991E+04  0.23270883930E+04  0.15294330000E+03 0.  0.
<mgrwt>
<rscale>  0 0.91787031E+03</rscale>
<asrwt>0</asrwt>
<pdfrwt beam="1">  1        2 0.46199984E+00 0.98346732E+03</pdfrwt>
<pdfrwt beam="2">  1       -2 0.59903468E-01 0.98346732E+03</pdfrwt>
<totfact> 0.46192260E+00</totfact>
</mgrwt>
</event>
<event>
 4    5  0.7289609E-008  0.1267251E+04  0.7818608E-02  0.9094369E-01
          2   -1    0    0  501    0  0.00000000000E+00  0.00000000000E+00  0.13010263938E+04  0.13010263938E+04  0.25500000000E-02 0. -1.
         -2   -1    0    0    0  501 -0.00000000000E+00 -0.00000000000E+00 -0.13893250100E+04  0.13893250100E+04  0.25500000000E-02 0.  1.
    8880023    1    1    2    0    0  0.77171971172E+03 -0.75931834509E+03 -0.68938491875E+03  0.14426286546E+04  0.65864270000E+03 0.  1.
    8880022    1    1    2    0    0 -0.77171971172E+03  0.75931834509E+03  0.60108630262E+03  0.12477227492E+04  0.15294330000E+03 0.  0.
<mgrwt>
<rscale>  0 0.12213527E+04</rscale>
<asrwt>0</asrwt>
<pdfrwt beam="1">  1        2 0.20015791E+00 0.12672513E+04</pdfrwt>
<pdfrwt beam="2">  1       -2 0.21374231E+00 0.12672513E+04</pdfrwt>
<totfact> 0.17241029E+00</totfact>
</mgrwt>
</event>
<event>
 4    5  0.7289609E-008  0.1083564E+04  0.7818608E-02  0.9279580E-01
         -2   -1    0    0    0  501 -0.00000000000E+00  0.00000000000E+00  0.15167136128E+04  0.15167136128E+04  0.25500000000E-02 0.  1.
          2   -1    0    0  501    0  0.00000000000E+00 -0.00000000000E+00 -0.17714918820E+04  0.17714918820E+04  0.25500000000E-02 0. -1.
    8880023    1    1    2    0    0 -0.50708773534E+03  0.69509876318E+03  0.11839006323E+04  0.16049084633E+04  0.65864270000E+03 0.  1.
    8880022    1    1    2    0    0  0.50708773534E+03 -0.69509876318E+03 -0.14386789015E+04  0.16832970316E+04  0.15294330000E+03 0.  0.
<mgrwt>
<rscale>  0 0.10268468E+04</rscale>
<asrwt>0</asrwt>
<pdfrwt beam="1">  1        2 0.27253721E+00 0.10835638E+04</pdfrwt>
<pdfrwt beam="2">  1       -2 0.23334056E+00 0.10835638E+04</pdfrwt>
<totfact> 0.71929812E-01</totfact>
</mgrwt>
</event>
<event>
 4    5  0.7289609E-008  0.7731710E+03  0.7818608E-02  0.9772130E-01
          2   -1    0    0  501    0  0.00000000000E+00  0.00000000000E+00  0.41617577292E+04  0.41617577292E+04  0.25500000000E-02 0. -1.
         -2   -1    0    0    0  501 -0.00000000000E+00 -0.00000000000E+00 -0.10325780680E+03  0.10325780683E+03  0.25500000000E-02 0.  1.
    8880023    1    1    2    0    0 -0.25544566729E+03  0.31421443296E+03  0.17060593716E+04  0.18730808804E+04  0.65864270000E+03 0.  1.
    8880022    1    1    2    0    0  0.25544566729E+03 -0.31421443296E+03  0.23524405508E+04  0.23919346556E+04  0.15294330000E+03 0.  1.
<mgrwt>
<rscale>  0 0.66879895E+03</rscale>
<asrwt>0</asrwt>
<pdfrwt beam="1">  1        2 0.64027030E+00 0.77317101E+03</pdfrwt>
<pdfrwt beam="2">  1       -2 0.15885819E-01 0.77317101E+03</pdfrwt>
<totfact> 0.88125070E+00</totfact>
</mgrwt>
</event>
<event>
 4    5  0.7289609E-008  0.8195509E+03  0.7818608E-02  0.9670016E-01
          2   -1    0    0  501    0  0.00000000000E+00  0.00000000000E+00  0.13394633659E+04  0.13394633659E+04  0.25500000000E-02 0. -1.
         -2   -1    0    0    0  501 -0.00000000000E+00 -0.00000000000E+00 -0.15792835067E+04  0.15792835067E+04  0.25500000000E-02 0.  1.
    8880023    1    1    2    0    0 -0.45868400058E+03  0.16571815758E+03 -0.14161355641E+04  0.16361857053E+04  0.65864270000E+03 0.  1.
    8880022    1    1    2    0    0  0.45868400058E+03 -0.16571815758E+03  0.11763154232E+04  0.12825611674E+04  0.15294330000E+03 0.  0.
<mgrwt>
<rscale>  0 0.72830450E+03</rscale>
<asrwt>0</asrwt>
<pdfrwt beam="1">  1        2 0.20607129E+00 0.81955093E+03</pdfrwt>
<pdfrwt beam="2">  1       -2 0.24296669E+00 0.81955093E+03</pdfrwt>
<totfact> 0.11410449E+00</totfact>
</mgrwt>
</event>
<event>
 4    5  0.7289609E-008  0.7655682E+03  0.7818608E-02  0.9790900E-01
          2   -1    0    0  501    0  0.00000000000E+00  0.00000000000E+00  0.91191951352E+03  0.91191951352E+03  0.25500000000E-02 0. -1.
         -2   -1    0    0    0  501 -0.00000000000E+00 -0.00000000000E+00 -0.99643563480E+03  0.99643563481E+03  0.25500000000E-02 0.  1.
    8880023    1    1    2    0    0  0.32202692748E+03  0.22041567222E+03 -0.78216890763E+03  0.10944783309E+04  0.65864270000E+03 0.  1.
    8880022    1    1    2    0    0 -0.32202692748E+03 -0.22041567222E+03  0.69765278634E+03  0.81387681739E+03  0.15294330000E+03 0.  0.
<mgrwt>
<rscale>  0 0.65853214E+03</rscale>
<asrwt>0</asrwt>
<pdfrwt beam="1">  1        2 0.14029531E+00 0.76556817E+03</pdfrwt>
<pdfrwt beam="2">  1       -2 0.15329779E+00 0.76556817E+03</pdfrwt>
<totfact> 0.82666709E+00</totfact>
</mgrwt>
</event>
<event>
 4    5  0.7289609E-008  0.9255602E+03  0.7818608E-02  0.9486186E-01
         -2   -1    0    0    0  501 -0.00000000000E+00  0.00000000000E+00  0.27799975100E+04  0.27799975100E+04  0.25500000000E-02 0.  1.
          2   -1    0    0  501    0  0.00000000000E+00 -0.00000000000E+00 -0.46369898554E+03  0.46369898554E+03  0.25500000000E-02 0. -1.
    8880023    1    1    2    0    0 -0.59705397912E+02 -0.64752353907E+03  0.23982685357E+04  0.25706718274E+04  0.65864270000E+03 0.  1.
    8880022    1    1    2    0    0  0.59705397912E+02  0.64752353907E+03 -0.81970011303E+02  0.67302466816E+03  0.15294330000E+03 0.  0.
<mgrwt>
<rscale>  0 0.85310000E+03</rscale>
<asrwt>0</asrwt>
<pdfrwt beam="1">  1        2 0.71338306E-01 0.92556019E+03</pdfrwt>
<pdfrwt beam="2">  1       -2 0.42769192E+00 0.92556019E+03</pdfrwt>
<totfact> 0.33869740E-01</totfact>
</mgrwt>
</event>
<event>
 4    5  0.7289609E-008  0.1471420E+04  0.7818608E-02  0.8930085E-01
         -2   -1    0    0    0  501 -0.00000000000E+00  0.00000000000E+00  0.17454012387E+04  0.17454012387E+04  0.25500000000E-02 0.  1.
          2   -1    0    0  501    0  0.00000000000E+00 -0.00000000000E+00 -0.18699370645E+04  0.18699370645E+04  0.25500000000E-02 0. -1.
    8880023    1    1    2    0    0 -0.95421777591E+03 -0.90594470885E+03  0.10797590928E+04  0.18250910345E+04  0.65864270000E+03 0.  1.
    8880022    1    1    2    0    0  0.95421777591E+03  0.90594470885E+03 -0.12042949186E+04  0.17902472688E+04  0.15294330000E+03 0.  0.
<mgrwt>
<rscale>  0 0.14332655E+04</rscale>
<asrwt>0</asrwt>
<pdfrwt beam="1">  1        2 0.28768263E+00 0.14714203E+04</pdfrwt>
<pdfrwt beam="2">  1       -2 0.26852327E+00 0.14714203E+04</pdfrwt>
<totfact> 0.36742951E-01</totfact>
</mgrwt>
</event>
<event>
 4    5  0.7289609E-008  0.6607534E+03  0.7818608E-02  0.1023398E+00
         -2   -1    0    0    0  501 -0.00000000000E+00  0.00000000000E+00  0.45018730898E+03  0.45018730899E+03  0.25500000000E-02 0.  1.
          2   -1    0    0  501    0  0.00000000000E+00 -0.00000000000E+00 -0.14711997496E+04  0.14711997496E+04  0.25500000000E-02 0. -1.
    8880023    1    1    2    0    0  0.91297646150E+01  0.51975383064E+02  0.19948738997E+03  0.69021027091E+03  0.65864270000E+03 0.  1.
    8880022    1    1    2    0    0 -0.91297646150E+01 -0.51975383064E+02 -0.12204998305E+04  0.12311767876E+04  0.15294330000E+03 0.  0.
<mgrwt>
<rscale>  0 0.46480241E+03</rscale>
<asrwt>0</asrwt>
<pdfrwt beam="1">  1        2 0.22633842E+00 0.66075336E+03</pdfrwt>
<pdfrwt beam="2">  1       -2 0.69259587E-01 0.66075336E+03</pdfrwt>
<totfact> 0.25940883E+01</totfact>
</mgrwt>
</event>
<event>
 4    5  0.7289609E-008  0.1127291E+04  0.7818608E-02  0.9231263E-01
         -2   -1    0    0    0  501 -0.00000000000E+00  0.00000000000E+00  0.90312400844E+03  0.90312400844E+03  0.25500000000E-02 0.  1.
          2   -1    0    0  501    0  0.00000000000E+00 -0.00000000000E+00 -0.23080093206E+04  0.23080093206E+04  0.25500000000E-02 0. -1.
    8880023    1    1    2    0    0 -0.52726162353E+03 -0.74764265793E+03  0.38826707393E+03  0.11922818000E+04  0.65864270000E+03 0.  0.
    8880022    1    1    2    0    0  0.52726162353E+03  0.74764265793E+03 -0.17931523860E+04  0.20188515290E+04  0.15294330000E+03 0.  0.
<mgrwt>
<rscale>  0 0.10736491E+04</rscale>
<asrwt>0</asrwt>
<pdfrwt beam="1">  1        2 0.35507835E+00 0.11272908E+04</pdfrwt>
<pdfrwt beam="2">  1       -2 0.13894216E+00 0.11272908E+04</pdfrwt>
<totfact> 0.16195573E+00</totfact>
</mgrwt>
</event>
<event>
 4    5  0.7289609E-008  0.8779999E+03  0.7818608E-02  0.9562314E-01
          2   -1    0    0  501    0  0.00000000000E+00  0.00000000000E+00  0.21316164019E+04  0.21316164019E+04  0.25500000000E-02 0. -1.
         -2   -1    0    0    0  501 -0.00000000000E+00 -0.00000000000E+00 -0.32223425778E+03  0.32223425779E+03  0.25500000000E-02 0.  1.
    8880023    1    1    2    0    0  0.38036805803E+03 -0.43862715103E+03  0.49282200381E+03  0.10068551886E+04  0.65864270000E+03 0.  1.
    8880022    1    1    2    0    0 -0.38036805803E+03  0.43862715103E+03  0.13165601403E+04  0.14469954710E+04  0.15294330000E+03 0.  0.
<mgrwt>
<rscale>  0 0.79841518E+03</rscale>
<asrwt>0</asrwt>
<pdfrwt beam="1">  1        2 0.32794098E+00 0.87799991E+03</pdfrwt>
<pdfrwt beam="2">  1       -2 0.49574502E-01 0.87799991E+03</pdfrwt>
<totfact> 0.22148332E+01</totfact>
</mgrwt>
</event>
<event>
 4    5  0.7289609E-008  0.7573864E+03  0.7818608E-02  0.9811921E-01
         -2   -1    0    0    0  501 -0.00000000000E+00  0.00000000000E+00  0.56900495544E+03  0.56900495545E+03  0.25500000000E-02 0.  1.
          2   -1    0    0  501    0  0.00000000000E+00 -0.00000000000E+00 -0.16763144379E+04  0.16763144379E+04  0.25500000000E-02 0. -1.
    8880023    1    1    2    0    0 -0.26878930872E+03 -0.25995433812E+03  0.27455108532E+03  0.80561309268E+03  0.65864270000E+03 0.  1.
    8880022    1    1    2    0    0  0.26878930872E+03  0.25995433812E+03 -0.13818605678E+04  0.14397063007E+04  0.15294330000E+03 0.  0.
<mgrwt>
<rscale>  0 0.64726681E+03</rscale>
<asrwt>0</asrwt>
<pdfrwt beam="1">  1        2 0.25789453E+00 0.75738640E+03</pdfrwt>
<pdfrwt beam="2">  1       -2 0.87539224E-01 0.75738640E+03</pdfrwt>
<totfact> 0.11694466E+01</totfact>
</mgrwt>
</event>
<event>
 4    5  0.7289609E-008  0.1870866E+04  0.7818608E-02  0.8684317E-01
          2   -1    0    0  501    0  0.00000000000E+00  0.00000000000E+00  0.22657544843E+04  0.22657544843E+04  0.25500000000E-02 0. -1.
         -2   -1    0    0    0  501 -0.00000000000E+00 -0.00000000000E+00 -0.15321747306E+04  0.15321747306E+04  0.25500000000E-02 0.  1.
    8880023    1    1    2    0    0  0.53758782900E+03  0.16665320648E+04  0.80959727007E+03  0.20385258749E+04  0.65864270000E+03 0.  0.
    8880022    1    1    2    0    0 -0.53758782900E+03 -0.16665320648E+04 -0.76017516308E+02  0.17594033400E+04  0.15294330000E+03 0.  0.
<mgrwt>
<rscale>  0 0.18419250E+04</rscale>
<asrwt>0</asrwt>
<pdfrwt beam="1">  1        2 0.34857761E+00 0.18708661E+04</pdfrwt>
<pdfrwt beam="2">  1       -2 0.23571919E+00 0.18708661E+04</pdfrwt>
<totfact> 0.33720673E-01</totfact>
</mgrwt>
</event>
<event>
 4    5  0.7289609E-008  0.7509070E+03  0.7818608E-02  0.9829244E-01
          2   -1    0    0  501    0  0.00000000000E+00  0.00000000000E+00  0.20575111362E+04  0.20575111362E+04  0.25500000000E-02 0. -1.
         -2   -1    0    0    0  501 -0.00000000000E+00 -0.00000000000E+00 -0.26889920407E+03  0.26889920409E+03  0.25500000000E-02 0.  1.
    8880023    1    1    2    0    0  0.32933020450E+03  0.14694484536E+03  0.33733658693E+03  0.82319945962E+03  0.65864270000E+03 0.  0.
    8880022    1    1    2    0    0 -0.32933020450E+03 -0.14694484536E+03  0.14512753452E+04  0.15032108807E+04  0.15294330000E+03 0.  0.
<mgrwt>
<rscale>  0 0.63816496E+03</rscale>
<asrwt>0</asrwt>
<pdfrwt beam="1">  1        2 0.31654017E+00 0.75090704E+03</pdfrwt>
<pdfrwt beam="2">  1       -2 0.41369109E-01 0.75090704E+03</pdfrwt>
<totfact> 0.35478325E+01</totfact>
</mgrwt>
</event>
<event>
 4    5  0.7289609E-008  0.6707909E+03  0.7818608E-02  0.1015102E+00
         -2   -1    0    0    0  501 -0.00000000000E+00  0.00000000000E+00  0.43873699125E+03  0.43873699126E+03  0.25500000000E-02 0.  1.
          2   -1    0    0  501    0  0.00000000000E+00 -0.00000000000E+00 -0.17060134947E+04  0.17060134947E+04  0.25500000000E-02 0. -1.
    8880023    1    1    2    0    0 -0.62677413833E+02  0.11055220433E+03  0.17144348366E+03  0.69235346640E+03  0.65864270000E+03 0.  1.
    8880022    1    1    2    0    0  0.62677413833E+02 -0.11055220433E+03 -0.14387199871E+04  0.14523970195E+04  0.15294330000E+03 0.  0.
<mgrwt>
<rscale>  0 0.49496282E+03</rscale>
<asrwt>0</asrwt>
<pdfrwt beam="1">  1        2 0.26246361E+00 0.67079092E+03</pdfrwt>
<pdfrwt beam="2">  1       -2 0.67498000E-01 0.67079092E+03</pdfrwt>
<totfact> 0.20347469E+01</totfact>
</mgrwt>
</event>
<event>
 4    5  0.7289609E-008  0.7516566E+03  0.7818608E-02  0.9827207E-01
         -2   -1    0    0    0  501 -0.00000000000E+00  0.00000000000E+00  0.18383884001E+04  0.18383884001E+04  0.25500000000E-02 0.  1.
          2   -1    0    0  501    0  0.00000000000E+00 -0.00000000000E+00 -0.51838936205E+03  0.51838936205E+03  0.25500000000E-02 0. -1.
    8880023    1    1    2    0    0 -0.18349400678E+03 -0.31226163225E+03  0.16693919513E+04  0.18308077646E+04  0.65864270000E+03 0.  0.
    8880022    1    1    2    0    0  0.18349400678E+03  0.31226163225E+03 -0.34939291325E+03  0.52596999757E+03  0.15294330000E+03 0.  0.
<mgrwt>
<rscale>  0 0.63922669E+03</rscale>
<asrwt>0</asrwt>
<pdfrwt beam="1">  1        2 0.79752210E-01 0.75165656E+03</pdfrwt>
<pdfrwt beam="2">  1       -2 0.28282898E+00 0.75165656E+03</pdfrwt>
<totfact> 0.24776245E+00</totfact>
</mgrwt>
</event>
<event>
 4    5  0.7289609E-008  0.7509295E+03  0.7818608E-02  0.9829183E-01
         -2   -1    0    0    0  501 -0.00000000000E+00  0.00000000000E+00  0.33956566892E+03  0.33956566893E+03  0.25500000000E-02 0.  1.
          2   -1    0    0  501    0  0.00000000000E+00 -0.00000000000E+00 -0.11983299443E+04  0.11983299443E+04  0.25500000000E-02 0. -1.
    8880023    1    1    2    0    0  0.24358758977E+03 -0.26598857511E+03 -0.20951934323E+03  0.77961105523E+03  0.65864270000E+03 0.  0.
    8880022    1    1    2    0    0 -0.24358758977E+03  0.26598857511E+03 -0.64924493216E+03  0.75828455802E+03  0.15294330000E+03 0.  0.
<mgrwt>
<rscale>  0 0.63819675E+03</rscale>
<asrwt>0</asrwt>
<pdfrwt beam="1">  1        2 0.18435845E+00 0.75092945E+03</pdfrwt>
<pdfrwt beam="2">  1       -2 0.52240873E-01 0.75092945E+03</pdfrwt>
<totfact> 0.66759955E+01</totfact>
</mgrwt>
</event>
<event>
 4    5  0.7289609E-008  0.1627336E+04  0.7818608E-02  0.8824588E-01
          2   -1    0    0  501    0  0.00000000000E+00  0.00000000000E+00  0.28374553686E+04  0.28374553686E+04  0.25500000000E-02 0. -1.
         -2   -1    0    0    0  501 -0.00000000000E+00 -0.00000000000E+00 -0.11666273177E+04  0.11666273177E+04  0.25500000000E-02 0.  1.
    8880023    1    1    2    0    0 -0.95126150189E+03 -0.11443399139E+04 -0.16530480121E+03  0.16357102944E+04  0.65864270000E+03 0.  0.
    8880022    1    1    2    0    0  0.95126150189E+03  0.11443399139E+04  0.18361328521E+04  0.23683723920E+04  0.15294330000E+03 0.  0.
<mgrwt>
<rscale>  0 0.15934399E+04</rscale>
<asrwt>0</asrwt>
<pdfrwt beam="1">  1        2 0.43653159E+00 0.16273360E+04</pdfrwt>
<pdfrwt beam="2">  1       -2 0.17948113E+00 0.16273360E+04</pdfrwt>
<totfact> 0.37307645E-01</totfact>
</mgrwt>
</event>
<event>
 4    5  0.7289609E-008  0.1651827E+04  0.7818608E-02  0.8809257E-01
          2   -1    0    0  501    0  0.00000000000E+00  0.00000000000E+00  0.41894605531E+04  0.41894605531E+04  0.25500000000E-02 0. -1.
         -2   -1    0    0    0  501 -0.00000000000E+00 -0.00000000000E+00 -0.82719619143E+03  0.82719619144E+03  0.25500000000E-02 0.  1.
    8880023    1    1    2    0    0 -0.14196135964E+04  0.52860234751E+03  0.30408944518E+04  0.34605740099E+04  0.65864270000E+03 0.  0.
    8880022    1    1    2    0    0  0.14196135964E+04 -0.52860234751E+03  0.32136990988E+03  0.15560827346E+04  0.15294330000E+03 0.  0.
<mgrwt>
<rscale>  0 0.16185099E+04</rscale>
<asrwt>0</asrwt>
<pdfrwt beam="1">  1        2 0.64453239E+00 0.16518273E+04</pdfrwt>
<pdfrwt beam="2">  1       -2 0.12726095E+00 0.16518273E+04</pdfrwt>
<totfact> 0.10328378E-01</totfact>
</mgrwt>
</event>
<event>
 4    5  0.7289609E-008  0.7067745E+03  0.7818608E-02  0.9970179E-01
         -2   -1    0    0    0  501 -0.00000000000E+00  0.00000000000E+00  0.47666261904E+03  0.47666261905E+03  0.25500000000E-02 0.  1.
          2   -1    0    0  501    0  0.00000000000E+00 -0.00000000000E+00 -0.78908190996E+03  0.78908190997E+03  0.25500000000E-02 0. -1.
    8880023    1    1    2    0    0  0.21106435560E+03 -0.14550521212E+03  0.14310996820E+03  0.72111760360E+03  0.65864270000E+03 0.  0.
    8880022    1    1    2    0    0 -0.21106435560E+03  0.14550521212E+03 -0.45552925912E+03  0.54462692542E+03  0.15294330000E+03 0.  0.
<mgrwt>
<rscale>  0 0.56977371E+03</rscale>
<asrwt>0</asrwt>
<pdfrwt beam="1">  1        2 0.12139722E+00 0.70677446E+03</pdfrwt>
<pdfrwt beam="2">  1       -2 0.73332711E-01 0.70677446E+03</pdfrwt>
<totfact> 0.59862789E+01</totfact>
</mgrwt>
</event>
<event>
 4    5  0.7289609E-008  0.9808171E+03  0.7818608E-02  0.9407096E-01
         -2   -1    0    0    0  501 -0.00000000000E+00  0.00000000000E+00  0.91479230864E+03  0.91479230865E+03  0.25500000000E-02 0.  1.
          2   -1    0    0  501    0  0.00000000000E+00 -0.00000000000E+00 -0.11836318702E+04  0.11836318702E+04  0.25500000000E-02 0. -1.
    8880023    1    1    2    0    0  0.10627998197E+02 -0.72669047785E+03  0.43705937703E+03  0.10737891368E+04  0.65864270000E+03 0.  1.
    8880022    1    1    2    0    0 -0.10627998197E+02  0.72669047785E+03 -0.70589893861E+03  0.10246350421E+04  0.15294330000E+03 0.  0.
<mgrwt>
<rscale>  0 0.91493965E+03</rscale>
<asrwt>0</asrwt>
<pdfrwt beam="1">  1        2 0.18209721E+00 0.98081711E+03</pdfrwt>
<pdfrwt beam="2">  1       -2 0.14073728E+00 0.98081711E+03</pdfrwt>
<totfact> 0.68194543E+00</totfact>
</mgrwt>
</event>
<event>
 4    5  0.7289609E-008  0.1057356E+04  0.7818608E-02  0.9310090E-01
         -2   -1    0    0    0  501 -0.00000000000E+00  0.00000000000E+00  0.37712603972E+03  0.37712603973E+03  0.25500000000E-02 0.  1.
          2   -1    0    0  501    0  0.00000000000E+00 -0.00000000000E+00 -0.29710589192E+04  0.29710589192E+04  0.25500000000E-02 0. -1.
    8880023    1    1    2    0    0  0.81368433214E+03  0.14869320183E+03 -0.67888723136E+03  0.12565388732E+04  0.65864270000E+03 0.  1.
    8880022    1    1    2    0    0 -0.81368433214E+03 -0.14869320183E+03 -0.19150456481E+04  0.20916460858E+04  0.15294330000E+03 0.  0.
<mgrwt>
<rscale>  0 0.99859225E+03</rscale>
<asrwt>0</asrwt>
<pdfrwt beam="1">  1        2 0.45708597E+00 0.10573562E+04</pdfrwt>
<pdfrwt beam="2">  1       -2 0.58019393E-01 0.10573562E+04</pdfrwt>
<totfact> 0.51175778E+00</totfact>
</mgrwt>
</event>
<event>
 4    5  0.7289609E-008  0.1086857E+04  0.7818608E-02  0.9275832E-01
         -2   -1    0    0    0  501 -0.00000000000E+00  0.00000000000E+00  0.65216155099E+03  0.65216155100E+03  0.25500000000E-02 0.  1.
          2   -1    0    0  501    0  0.00000000000E+00 -0.00000000000E+00 -0.36899462904E+04  0.36899462904E+04  0.25500000000E-02 0. -1.
    8880023    1    1    2    0    0 -0.66032565021E+03  0.55804803519E+03  0.92730759013E+02  0.10908055619E+04  0.65864270000E+03 0.  1.
    8880022    1    1    2    0    0  0.66032565021E+03 -0.55804803519E+03 -0.31305154984E+04  0.32513022795E+04  0.15294330000E+03 0.  0.
<mgrwt>
<rscale>  0 0.10303855E+04</rscale>
<asrwt>0</asrwt>
<pdfrwt beam="1">  1        2 0.56768403E+00 0.10868568E+04</pdfrwt>
<pdfrwt beam="2">  1       -2 0.10033255E+00 0.10868568E+04</pdfrwt>
<totfact> 0.49809610E-01</totfact>
</mgrwt>
</event>
<event>
 4    5  0.7289609E-008  0.1356641E+04  0.7818608E-02  0.9018128E-01
         -2   -1    0    0    0  501 -0.00000000000E+00  0.00000000000E+00  0.14237417198E+04  0.14237417198E+04  0.25500000000E-02 0.  1.
          2   -1    0    0  501    0  0.00000000000E+00 -0.00000000000E+00 -0.27192560375E+04  0.27192560375E+04  0.25500000000E-02 0. -1.
    8880023    1    1    2    0    0 -0.74977499726E+03 -0.91896834110E+03  0.91039395461E+03  0.16337970245E+04  0.65864270000E+03 0.  0.
    8880022    1    1    2    0    0  0.74977499726E+03  0.91896834110E+03 -0.22059082723E+04  0.25092007327E+04  0.15294330000E+03 0.  0.
<mgrwt>
<rscale>  0 0.13145222E+04</rscale>
<asrwt>0</asrwt>
<pdfrwt beam="1">  1        2 0.41834708E+00 0.13566413E+04</pdfrwt>
<pdfrwt beam="2">  1       -2 0.21903719E+00 0.13566413E+04</pdfrwt>
<totfact> 0.24808142E-01</totfact>
</mgrwt>
</event>
<event>
 4    5  0.7289609E-008  0.1179215E+04  0.7818608E-02  0.9177596E-01
         -2   -1    0    0    0  501 -0.00000000000E+00  0.00000000000E+00  0.13713830922E+04  0.13713830922E+04  0.25500000000E-02 0.  1.
          2   -1    0    0  501    0  0.00000000000E+00 -0.00000000000E+00 -0.18573379357E+04  0.18573379357E+04  0.25500000000E-02 0. -1.
    8880023    1    1    2    0    0  0.79932378359E+03 -0.56375562980E+03  0.92942549974E+03  0.15014595855E+04  0.65864270000E+03 0.  0.
    8880022    1    1    2    0    0 -0.79932378359E+03  0.56375562980E+03 -0.14153803432E+04  0.17272614423E+04  0.15294330000E+03 0.  0.
<mgrwt>
<rscale>  0 0.11287698E+04</rscale>
<asrwt>0</asrwt>
<pdfrwt beam="1">  1        2 0.28574430E+00 0.11792155E+04</pdfrwt>
<pdfrwt beam="2">  1       -2 0.21098201E+00 0.11792155E+04</pdfrwt>
<totfact> 0.88080608E-01</totfact>
</mgrwt>
</event>
<event>
 4    5  0.7289609E-008  0.6598695E+03  0.7818608E-02  0.1024290E+00
          2   -1    0    0  501    0  0.00000000000E+00  0.00000000000E+00  0.17979511340E+04  0.17979511340E+04  0.25500000000E-02 0. -1.
         -2   -1    0    0    0  501 -0.00000000000E+00 -0.00000000000E+00 -0.42795385105E+03  0.42795385106E+03  0.25500000000E-02 0.  1.
    8880023    1    1    2    0    0  0.33973108608E+02  0.21527031062E+02 -0.16709643749E+03  0.68069744444E+03  0.65864270000E+03 0.  1.
    8880022    1    1    2    0    0 -0.33973108608E+02 -0.21527031062E+02  0.15370937205E+04  0.15452075407E+04  0.15294330000E+03 0.  0.
<mgrwt>
<rscale>  0 0.46169600E+03</rscale>
<asrwt>0</asrwt>
<pdfrwt beam="1">  1        2 0.27660788E+00 0.65986953E+03</pdfrwt>
<pdfrwt beam="2">  1       -2 0.65839052E-01 0.65986953E+03</pdfrwt>
<totfact> 0.19164915E+01</totfact>
</mgrwt>
</event>
<event>
 4    5  0.7289609E-008  0.8280594E+03  0.7818608E-02  0.9653120E-01
         -2   -1    0    0    0  501 -0.00000000000E+00  0.00000000000E+00  0.23706007217E+04  0.23706007217E+04  0.25500000000E-02 0.  1.
          2   -1    0    0  501    0  0.00000000000E+00 -0.00000000000E+00 -0.37780377125E+03  0.37780377126E+03  0.25500000000E-02 0. -1.
    8880023    1    1    2    0    0  0.49187101306E+03 -0.99674735671E+02  0.20593012745E+04  0.22195504256E+04  0.65864270000E+03 0.  1.
    8880022    1    1    2    0    0 -0.49187101306E+03  0.99674735671E+02 -0.66504324055E+02  0.52885406735E+03  0.15294330000E+03 0.  0.
<mgrwt>
<rscale>  0 0.73877936E+03</rscale>
<asrwt>0</asrwt>
<pdfrwt beam="1">  1        2 0.58123657E-01 0.82805939E+03</pdfrwt>
<pdfrwt beam="2">  1       -2 0.36470780E+00 0.82805939E+03</pdfrwt>
<totfact> 0.11100481E+00</totfact>
</mgrwt>
</event>
<event>
 4    5  0.7289609E-008  0.1869530E+04  0.7818608E-02  0.8685020E-01
          2   -1    0    0  501    0  0.00000000000E+00  0.00000000000E+00  0.21805606156E+04  0.21805606156E+04  0.25500000000E-02 0. -1.
         -2   -1    0    0    0  501 -0.00000000000E+00 -0.00000000000E+00 -0.21758364497E+04  0.21758364497E+04  0.25500000000E-02 0.  1.
    8880023    1    1    2    0    0 -0.16533332930E+04 -0.57255618624E+03 -0.12045795429E+04  0.22239949743E+04  0.65864270000E+03 0.  0.
    8880022    1    1    2    0    0  0.16533332930E+04  0.57255618624E+03  0.12093037088E+04  0.21324020909E+04  0.15294330000E+03 0.  0.
<mgrwt>
<rscale>  0 0.18405657E+04</rscale>
<asrwt>0</asrwt>
<pdfrwt beam="1">  1        2 0.33547086E+00 0.18695298E+04</pdfrwt>
<pdfrwt beam="2">  1       -2 0.33474407E+00 0.18695298E+04</pdfrwt>
<totfact> 0.92322442E-02</totfact>
</mgrwt>
</event>
<event>
 4    5  0.7289609E-008  0.7931562E+03  0.7818608E-02  0.9725794E-01
         -2   -1    0    0    0  501 -0.00000000000E+00  0.00000000000E+00  0.25134079207E+03  0.25134079208E+03  0.25500000000E-02 0.  1.
          2   -1    0    0  501    0  0.00000000000E+00 -0.00000000000E+00 -0.24678166081E+04  0.24678166081E+04  0.25500000000E-02 0. -1.
    8880023    1    1    2    0    0 -0.45453505004E+02  0.43956857949E+03 -0.49419154950E+03  0.93451701485E+03  0.65864270000E+03 0.  1.
    8880022    1    1    2    0    0  0.45453505004E+02 -0.43956857949E+03 -0.17222842666E+04  0.17846403853E+04  0.15294330000E+03 0.  0.
<mgrwt>
<rscale>  0 0.69501589E+03</rscale>
<asrwt>0</asrwt>
<pdfrwt beam="1">  1        2 0.37966408E+00 0.79315620E+03</pdfrwt>
<pdfrwt beam="2">  1       -2 0.38667816E-01 0.79315620E+03</pdfrwt>
<totfact> 0.23823928E+01</totfact>
</mgrwt>
</event>
<event>
 4    5  0.7289609E-008  0.6733213E+03  0.7818608E-02  0.1013386E+00
         -2   -1    0    0    0  501 -0.00000000000E+00  0.00000000000E+00  0.23227489986E+03  0.23227489988E+03  0.25500000000E-02 0.  1.
          2   -1    0    0  501    0  0.00000000000E+00 -0.00000000000E+00 -0.15458278629E+04  0.15458278629E+04  0.25500000000E-02 0. -1.
    8880023    1    1    2    0    0 -0.10854477247E+03  0.88144224551E+02 -0.28886312015E+03  0.73266873852E+03  0.65864270000E+03 0.  1.
    8880022    1    1    2    0    0  0.10854477247E+03 -0.88144224551E+02 -0.10246898429E+04  0.10454340243E+04  0.15294330000E+03 0.  0.
<mgrwt>
<rscale>  0 0.50150856E+03</rscale>
<asrwt>0</asrwt>
<pdfrwt beam="1">  1        2 0.23781967E+00 0.67332130E+03</pdfrwt>
<pdfrwt beam="2">  1       -2 0.35734601E-01 0.67332130E+03</pdfrwt>
<totfact> 0.90441757E+01</totfact>
</mgrwt>
</event>
<event>
 4    5  0.1546758E-007  0.1246996E+04  0.7818608E-02  0.9112740E-01
          2   -1    0    0  501    0  0.00000000000E+00  0.00000000000E+00  0.27332568798E+04  0.27332568798E+04  0.25500000000E-02 0. -1.
         -2   -1    0    0    0  501 -0.00000000000E+00 -0.00000000000E+00 -0.20402009047E+04  0.20402009047E+04  0.25500000000E-02 0.  1.
    8880023    1    1    2    0    0 -0.88041607046E+03 -0.58826457227E+03 -0.17254483170E+04  0.21288893267E+04  0.65864270000E+03 0.  1.
    8880022    1    1    2    0    0  0.88041607046E+03  0.58826457227E+03  0.24185042921E+04  0.26445684578E+04  0.15294330000E+03 0.  0.
<mgrwt>
<rscale>  0 0.12001331E+04</rscale>
<asrwt>0</asrwt>
<pdfrwt beam="1">  1        2 0.42050106E+00 0.12469955E+04</pdfrwt>
<pdfrwt beam="2">  1       -2 0.31387706E+00 0.12469955E+04</pdfrwt>
<totfact> 0.64765549E-02</totfact>
</mgrwt>
</event>
<event>
 4    5  0.7289609E-008  0.1053582E+04  0.7818608E-02  0.9314587E-01
          2   -1    0    0  501    0  0.00000000000E+00  0.00000000000E+00  0.18136073235E+04  0.18136073235E+04  0.25500000000E-02 0. -1.
         -2   -1    0    0    0  501 -0.00000000000E+00 -0.00000000000E+00 -0.13418462930E+04  0.13418462930E+04  0.25500000000E-02 0.  1.
    8880023    1    1    2    0    0  0.61046761823E+03 -0.55095787370E+03 -0.10064255913E+04  0.14570270995E+04  0.65864270000E+03 0.  1.
    8880022    1    1    2    0    0 -0.61046761823E+03  0.55095787370E+03  0.14781866219E+04  0.16984265170E+04  0.15294330000E+03 0.  0.
<mgrwt>
<rscale>  0 0.99450934E+03</rscale>
<asrwt>0</asrwt>
<pdfrwt beam="1">  1        2 0.27901651E+00 0.10535822E+04</pdfrwt>
<pdfrwt beam="2">  1       -2 0.20643789E+00 0.10535822E+04</pdfrwt>
<totfact> 0.10127061E+00</totfact>
</mgrwt>
</event>
<event>
 4    5  0.7289609E-008  0.8793531E+03  0.7818608E-02  0.9560024E-01
         -2   -1    0    0    0  501 -0.00000000000E+00  0.00000000000E+00  0.62578323427E+03  0.62578323427E+03  0.25500000000E-02 0.  1.
          2   -1    0    0  501    0  0.00000000000E+00 -0.00000000000E+00 -0.21236117278E+04  0.21236117278E+04  0.25500000000E-02 0. -1.
    8880023    1    1    2    0    0  0.69414233498E+02 -0.57847507723E+03  0.23885292955E+03  0.91121494665E+03  0.65864270000E+03 0.  1.
    8880022    1    1    2    0    0 -0.69414233498E+02  0.57847507723E+03 -0.17366814231E+04  0.18381800154E+04  0.15294330000E+03 0.  0.
<mgrwt>
<rscale>  0 0.79999523E+03</rscale>
<asrwt>0</asrwt>
<pdfrwt beam="1">  1        2 0.32670949E+00 0.87935315E+03</pdfrwt>
<pdfrwt beam="2">  1       -2 0.96274344E-01 0.87935315E+03</pdfrwt>
<totfact> 0.52448932E+00</totfact>
</mgrwt>
</event>
<event>
 4    5  0.7289609E-008  0.7462068E+03  0.7818608E-02  0.9842222E-01
          2   -1    0    0  501    0  0.00000000000E+00  0.00000000000E+00  0.28302443631E+04  0.28302443631E+04  0.25500000000E-02 0. -1.
         -2   -1    0    0    0  501 -0.00000000000E+00 -0.00000000000E+00 -0.23521448669E+03  0.23521448670E+03  0.25500000000E-02 0.  1.
    8880023    1    1    2    0    0 -0.64333167069E+02 -0.34478343779E+03  0.41849720004E+03  0.85554923182E+03  0.65864270000E+03 0.  1.
    8880022    1    1    2    0    0  0.64333167069E+02  0.34478343779E+03  0.21765326764E+04  0.22099096180E+04  0.15294330000E+03 0.  0.
<mgrwt>
<rscale>  0 0.63145044E+03</rscale>
<asrwt>0</asrwt>
<pdfrwt beam="1">  1        2 0.43542221E+00 0.74620680E+03</pdfrwt>
<pdfrwt beam="2">  1       -2 0.36186844E-01 0.74620680E+03</pdfrwt>
<totfact> 0.16819653E+01</totfact>
</mgrwt>
</event>
<event>
 4    5  0.7289609E-008  0.8550791E+03  0.7818608E-02  0.9602377E-01
         -2   -1    0    0    0  501 -0.00000000000E+00  0.00000000000E+00  0.16219915063E+03  0.16219915065E+03  0.25500000000E-02 0.  1.
          2   -1    0    0  501    0  0.00000000000E+00 -0.00000000000E+00 -0.34025575622E+04  0.34025575622E+04  0.25500000000E-02 0. -1.
    8880023    1    1    2    0    0 -0.20182066935E+03  0.50657521545E+03 -0.14123448767E+04  0.16510234064E+04  0.65864270000E+03 0.  1.
    8880022    1    1    2    0    0  0.20182066935E+03 -0.50657521545E+03 -0.18280135349E+04  0.19137333064E+04  0.15294330000E+03 0. -1.
<mgrwt>
<rscale>  0 0.77139024E+03</rscale>
<asrwt>0</asrwt>
<pdfrwt beam="1">  1        2 0.52347034E+00 0.85507908E+03</pdfrwt>
<pdfrwt beam="2">  1       -2 0.24953718E-01 0.85507908E+03</pdfrwt>
<totfact> 0.14412815E+01</totfact>
</mgrwt>
</event>
<event>
 4    5  0.7289609E-008  0.7687983E+03  0.7818608E-02  0.9782840E-01
          2   -1    0    0  501    0  0.00000000000E+00  0.00000000000E+00  0.18786541551E+04  0.18786541551E+04  0.25500000000E-02 0. -1.
         -2   -1    0    0    0  501 -0.00000000000E+00 -0.00000000000E+00 -0.68529614179E+03  0.68529614180E+03  0.25500000000E-02 0.  1.
    8880023    1    1    2    0    0 -0.23474552124E+03  0.31958591243E+03 -0.43343028108E+03  0.88256026989E+03  0.65864270000E+03 0.  1.
    8880022    1    1    2    0    0  0.23474552124E+03 -0.31958591243E+03  0.16267882944E+04  0.16813900271E+04  0.15294330000E+03 0.  0.
<mgrwt>
<rscale>  0 0.66291634E+03</rscale>
<asrwt>0</asrwt>
<pdfrwt beam="1">  1        2 0.28902371E+00 0.76879830E+03</pdfrwt>
<pdfrwt beam="2">  1       -2 0.10543018E+00 0.76879830E+03</pdfrwt>
<totfact> 0.58507744E+00</totfact>
</mgrwt>
</event>
<event>
 4    5  0.7289609E-008  0.8385966E+03  0.7818608E-02  0.9632832E-01
         -2   -1    0    0    0  501 -0.00000000000E+00  0.00000000000E+00  0.58140612765E+03  0.58140612766E+03  0.25500000000E-02 0.  1.
          2   -1    0    0  501    0  0.00000000000E+00 -0.00000000000E+00 -0.23693903563E+04  0.23693903563E+04  0.25500000000E-02 0. -1.
    8880023    1    1    2    0    0 -0.51782111013E+03  0.35990464621E+02  0.22343970147E+03  0.86785339897E+03  0.65864270000E+03 0.  1.
    8880022    1    1    2    0    0  0.51782111013E+03 -0.35990464621E+02 -0.20114239301E+04  0.20829430850E+04  0.15294330000E+03 0.  0.
<mgrwt>
<rscale>  0 0.75160724E+03</rscale>
<asrwt>0</asrwt>
<pdfrwt beam="1">  1        2 0.36452159E+00 0.83859658E+03</pdfrwt>
<pdfrwt beam="2">  1       -2 0.89447098E-01 0.83859658E+03</pdfrwt>
<totfact> 0.45730632E+00</totfact>
</mgrwt>
</event>
<event>
 4    5  0.7289609E-008  0.9392131E+03  0.7818608E-02  0.9465807E-01
         -2   -1    0    0    0  501 -0.00000000000E+00  0.00000000000E+00  0.85534904304E+03  0.85534904305E+03  0.25500000000E-02 0.  1.
          2   -1    0    0  501    0  0.00000000000E+00 -0.00000000000E+00 -0.10753847377E+04  0.10753847377E+04  0.25500000000E-02 0. -1.
    8880023    1    1    2    0    0 -0.26208397249E+03 -0.61613559112E+03  0.38536111647E+03  0.10151967650E+04  0.65864270000E+03 0.  0.
    8880022    1    1    2    0    0  0.26208397249E+03  0.61613559112E+03 -0.60539681109E+03  0.91553701573E+03  0.15294330000E+03 0.  0.
<mgrwt>
<rscale>  0 0.86852367E+03</rscale>
<asrwt>0</asrwt>
<pdfrwt beam="1">  1        2 0.16544381E+00 0.93921312E+03</pdfrwt>
<pdfrwt beam="2">  1       -2 0.13159216E+00 0.93921312E+03</pdfrwt>
<totfact> 0.94796996E+00</totfact>
</mgrwt>
</event>
<event>
 4    5  0.7289609E-008  0.8825918E+03  0.7818608E-02  0.9554576E-01
          2   -1    0    0  501    0  0.00000000000E+00  0.00000000000E+00  0.15379130019E+04  0.15379130019E+04  0.25500000000E-02 0. -1.
         -2   -1    0    0    0  501 -0.00000000000E+00 -0.00000000000E+00 -0.10520682411E+04  0.10520682411E+04  0.25500000000E-02 0.  1.
    8880023    1    1    2    0    0 -0.10592280056E+02  0.58740598809E+03 -0.78525292258E+03  0.11813510697E+04  0.65864270000E+03 0.  0.
    8880022    1    1    2    0    0  0.10592280056E+02 -0.58740598809E+03  0.12710976834E+04  0.14086301732E+04  0.15294330000E+03 0.  0.
<mgrwt>
<rscale>  0 0.80377019E+03</rscale>
<asrwt>0</asrwt>
<pdfrwt beam="1">  1        2 0.23660200E+00 0.88259175E+03</pdfrwt>
<pdfrwt beam="2">  1       -2 0.16185665E+00 0.88259175E+03</pdfrwt>
<totfact> 0.29730151E+00</totfact>
</mgrwt>
</event>
<event>
 4    5  0.7579309E-008  0.1351556E+04  0.7818608E-02  0.9022270E-01
         -2   -1    0    0    0  501 -0.00000000000E+00  0.00000000000E+00  0.13503929697E+04  0.13503929697E+04  0.25500000000E-02 0.  1.
          2   -1    0    0  501    0  0.00000000000E+00 -0.00000000000E+00 -0.23656579225E+04  0.23656579225E+04  0.25500000000E-02 0. -1.
    8880023    1    1    2    0    0  0.89038096518E+03 -0.77467045713E+03  0.78125590593E+03  0.15611097262E+04  0.65864270000E+03 0.  1.
    8880022    1    1    2    0    0 -0.89038096518E+03  0.77467045713E+03 -0.17965208587E+04  0.21549411660E+04  0.15294330000E+03 0.  0.
<mgrwt>
<rscale>  0 0.13092400E+04</rscale>
<asrwt>0</asrwt>
<pdfrwt beam="1">  1        2 0.36394737E+00 0.13515557E+04</pdfrwt>
<pdfrwt beam="2">  1       -2 0.20775276E+00 0.13515557E+04</pdfrwt>
<totfact> 0.47042534E-01</totfact>
</mgrwt>
</event>
<event>
 4    5  0.7289609E-008  0.9181137E+03  0.7818608E-02  0.9497557E-01
          2   -1    0    0  501    0  0.00000000000E+00  0.00000000000E+00  0.17152804551E+04  0.17152804551E+04  0.25500000000E-02 0. -1.
         -2   -1    0    0    0  501 -0.00000000000E+00 -0.00000000000E+00 -0.10836418217E+04  0.10836418217E+04  0.25500000000E-02 0.  1.
    8880023    1    1    2    0    0  0.33721822413E+03  0.54351296313E+03 -0.80363554951E+03  0.12201486690E+04  0.65864270000E+03 0.  1.
    8880022    1    1    2    0    0 -0.33721822413E+03 -0.54351296313E+03  0.14352741828E+04  0.15787736078E+04  0.15294330000E+03 0.  0.
<mgrwt>
<rscale>  0 0.84464141E+03</rscale>
<asrwt>0</asrwt>
<pdfrwt beam="1">  1        2 0.26388930E+00 0.91811365E+03</pdfrwt>
<pdfrwt beam="2">  1       -2 0.16671413E+00 0.91811365E+03</pdfrwt>
<totfact> 0.21756745E+00</totfact>
</mgrwt>
</event>
<event>
 4    5  0.7289609E-008  0.6592046E+03  0.7818608E-02  0.1024986E+00
          2   -1    0    0  501    0  0.00000000000E+00  0.00000000000E+00  0.17089295741E+04  0.17089295741E+04  0.25500000000E-02 0. -1.
         -2   -1    0    0    0  501 -0.00000000000E+00 -0.00000000000E+00 -0.72908860213E+03  0.72908860213E+03  0.25500000000E-02 0.  1.
    8880023    1    1    2    0    0 -0.24084874073E+02 -0.12667529177E+02 -0.57541928754E+03  0.87501891990E+03  0.65864270000E+03 0.  1.
    8880022    1    1    2    0    0  0.24084874073E+02  0.12667529177E+02  0.15552602596E+04  0.15629992564E+04  0.15294330000E+03 0.  0.
<mgrwt>
<rscale>  0 0.45929298E+03</rscale>
<asrwt>0</asrwt>
<pdfrwt beam="1">  1        2 0.26291224E+00 0.65920464E+03</pdfrwt>
<pdfrwt beam="2">  1       -2 0.11216748E+00 0.65920464E+03</pdfrwt>
<totfact> 0.63461061E+00</totfact>
</mgrwt>
</event>
<event>
 4    5  0.7289609E-008  0.1576016E+04  0.7818608E-02  0.8857743E-01
          2   -1    0    0  501    0  0.00000000000E+00  0.00000000000E+00  0.14725312915E+04  0.14725312915E+04  0.25500000000E-02 0. -1.
         -2   -1    0    0    0  501 -0.00000000000E+00 -0.00000000000E+00 -0.17685812561E+04  0.17685812561E+04  0.25500000000E-02 0.  1.
    8880023    1    1    2    0    0 -0.74450195662E+03  0.12230018748E+04 -0.73047645967E+03  0.17370730594E+04  0.65864270000E+03 0.  0.
    8880022    1    1    2    0    0  0.74450195662E+03 -0.12230018748E+04  0.43442649513E+03  0.15040394882E+04  0.15294330000E+03 0.  0.
<mgrwt>
<rscale>  0 0.15408349E+04</rscale>
<asrwt>0</asrwt>
<pdfrwt beam="1">  1        2 0.22654328E+00 0.15760162E+04</pdfrwt>
<pdfrwt beam="2">  1       -2 0.27208942E+00 0.15760162E+04</pdfrwt>
<totfact> 0.57817742E-01</totfact>
</mgrwt>
</event>
<event>
 4    5  0.7289609E-008  0.7198605E+03  0.7818608E-02  0.9923058E-01
         -2   -1    0    0    0  501 -0.00000000000E+00  0.00000000000E+00  0.78810596229E+03  0.78810596229E+03  0.25500000000E-02 0.  1.
          2   -1    0    0  501    0  0.00000000000E+00 -0.00000000000E+00 -0.17934795278E+04  0.17934795278E+04  0.25500000000E-02 0. -1.
    8880023    1    1    2    0    0 -0.96462367149E+02 -0.27401439111E+03  0.60361734068E+03  0.93944290675E+03  0.65864270000E+03 0.  1.
    8880022    1    1    2    0    0  0.96462367149E+02  0.27401439111E+03 -0.16089909062E+04  0.16421425833E+04  0.15294330000E+03 0.  0.
<mgrwt>
<rscale>  0 0.59156678E+03</rscale>
<asrwt>0</asrwt>
<pdfrwt beam="1">  1        2 0.27591993E+00 0.71986046E+03</pdfrwt>
<pdfrwt beam="2">  1       -2 0.12124707E+00 0.71986046E+03</pdfrwt>
<totfact> 0.46671380E+00</totfact>
</mgrwt>
</event>
<event>
 4    5  0.7289609E-008  0.8490309E+03  0.7818608E-02  0.9613381E-01
         -2   -1    0    0    0  501 -0.00000000000E+00  0.00000000000E+00  0.31205023207E+03  0.31205023208E+03  0.25500000000E-02 0.  1.
          2   -1    0    0  501    0  0.00000000000E+00 -0.00000000000E+00 -0.17186497929E+04  0.17186497929E+04  0.25500000000E-02 0. -1.
    8880023    1    1    2    0    0 -0.51683798807E+03  0.14114456952E+03 -0.55955331307E+03  0.10168349974E+04  0.65864270000E+03 0.  0.
    8880022    1    1    2    0    0  0.51683798807E+03 -0.14114456952E+03 -0.84704624780E+03  0.10138650277E+04  0.15294330000E+03 0.  0.
<mgrwt>
<rscale>  0 0.76416819E+03</rscale>
<asrwt>0</asrwt>
<pdfrwt beam="1">  1        2 0.26440765E+00 0.84903092E+03</pdfrwt>
<pdfrwt beam="2">  1       -2 0.48007729E-01 0.84903092E+03</pdfrwt>
<totfact> 0.39953848E+01</totfact>
</mgrwt>
</event>
<event>
 4    5  0.7289609E-008  0.9936700E+03  0.7818608E-02  0.9389886E-01
         -2   -1    0    0    0  501 -0.00000000000E+00  0.00000000000E+00  0.61660924708E+03  0.61660924709E+03  0.25500000000E-02 0.  1.
          2   -1    0    0  501    0  0.00000000000E+00 -0.00000000000E+00 -0.19178817259E+04  0.19178817259E+04  0.25500000000E-02 0. -1.
    8880023    1    1    2    0    0  0.60749739129E+03  0.42955411313E+03  0.38457324477E+02  0.99441389200E+03  0.65864270000E+03 0.  1.
    8880022    1    1    2    0    0 -0.60749739129E+03 -0.42955411313E+03 -0.13397298033E+04  0.15400770810E+04  0.15294330000E+03 0. -1.
<mgrwt>
<rscale>  0 0.92912678E+03</rscale>
<asrwt>0</asrwt>
<pdfrwt beam="1">  1        2 0.29505873E+00 0.99366998E+03</pdfrwt>
<pdfrwt beam="2">  1       -2 0.94862962E-01 0.99366998E+03</pdfrwt>
<totfact> 0.69448137E+00</totfact>
</mgrwt>
</event>
<event>
 4    5  0.7289609E-008  0.1065457E+04  0.7818608E-02  0.9300527E-01
          2   -1    0    0  501    0  0.00000000000E+00  0.00000000000E+00  0.16837344022E+04  0.16837344022E+04  0.25500000000E-02 0. -1.
         -2   -1    0    0    0  501 -0.00000000000E+00 -0.00000000000E+00 -0.77884793306E+03  0.77884793306E+03  0.25500000000E-02 0.  1.
    8880023    1    1    2    0    0  0.80831207397E+03  0.21913474254E+03 -0.18312513279E+03  0.10810797680E+04  0.65864270000E+03 0.  0.
    8880022    1    1    2    0    0 -0.80831207397E+03 -0.21913474254E+03  0.10880116019E+04  0.13815025672E+04  0.15294330000E+03 0.  0.
<mgrwt>
<rscale>  0 0.10073438E+04</rscale>
<asrwt>0</asrwt>
<pdfrwt beam="1">  1        2 0.25903606E+00 0.10654570E+04</pdfrwt>
<pdfrwt beam="2">  1       -2 0.11982276E+00 0.10654570E+04</pdfrwt>
<totfact> 0.52744541E+00</totfact>
</mgrwt>
</event>
<event>
 4    5  0.7289609E-008  0.7459876E+03  0.7818608E-02  0.9842837E-01
         -2   -1    0    0    0  501 -0.00000000000E+00  0.00000000000E+00  0.50069653442E+03  0.50069653443E+03  0.25500000000E-02 0.  1.
          2   -1    0    0  501    0  0.00000000000E+00 -0.00000000000E+00 -0.23540448107E+04  0.23540448107E+04  0.25500000000E-02 0. -1.
    8880023    1    1    2    0    0  0.34994741501E+03  0.14971302239E+02  0.19498990103E+03  0.77105032322E+03  0.65864270000E+03 0.  1.
    8880022    1    1    2    0    0 -0.34994741501E+03 -0.14971302239E+02 -0.20483381773E+04  0.20836910219E+04  0.15294330000E+03 0.  0.
<mgrwt>
<rscale>  0 0.63113489E+03</rscale>
<asrwt>0</asrwt>
<pdfrwt beam="1">  1        2 0.36216074E+00 0.74598763E+03</pdfrwt>
<pdfrwt beam="2">  1       -2 0.77030237E-01 0.74598763E+03</pdfrwt>
<totfact> 0.66467945E+00</totfact>
</mgrwt>
</event>
<event>
 4    5  0.7289609E-008  0.7404018E+03  0.7818608E-02  0.9858778E-01
         -2   -1    0    0    0  501 -0.00000000000E+00  0.00000000000E+00  0.78104969778E+03  0.78104969779E+03  0.25500000000E-02 0.  1.
          2   -1    0    0  501    0  0.00000000000E+00 -0.00000000000E+00 -0.10689381364E+04  0.10689381364E+04  0.25500000000E-02 0. -1.
    8880023    1    1    2    0    0  0.25508927095E+03 -0.22206769106E+03  0.55741977669E+03  0.92677484281E+03  0.65864270000E+03 0.  1.
    8880022    1    1    2    0    0 -0.25508927095E+03  0.22206769106E+03 -0.84530821531E+03  0.92321299138E+03  0.15294330000E+03 0.  0.
<mgrwt>
<rscale>  0 0.62301340E+03</rscale>
<asrwt>0</asrwt>
<pdfrwt beam="1">  1        2 0.16445202E+00 0.74040178E+03</pdfrwt>
<pdfrwt beam="2">  1       -2 0.12016149E+00 0.74040178E+03</pdfrwt>
<totfact> 0.12283121E+01</totfact>
</mgrwt>
</event>
<event>
 4    5  0.7289609E-008  0.1209674E+04  0.7818608E-02  0.9147776E-01
          2   -1    0    0  501    0  0.00000000000E+00  0.00000000000E+00  0.51067503123E+04  0.51067503123E+04  0.25500000000E-02 0. -1.
         -2   -1    0    0    0  501 -0.00000000000E+00 -0.00000000000E+00 -0.96431994306E+03  0.96431994306E+03  0.25500000000E-02 0.  1.
    8880023    1    1    2    0    0 -0.34586952240E+03 -0.95387355693E+03 -0.50562990496E+03  0.13110958379E+04  0.65864270000E+03 0.  1.
    8880022    1    1    2    0    0  0.34586952240E+03  0.95387355693E+03  0.46480602742E+04  0.47599744174E+04  0.15294330000E+03 0.  0.
<mgrwt>
<rscale>  0 0.11609117E+04</rscale>
<asrwt>0</asrwt>
<pdfrwt beam="1">  1        2 0.78565387E+00 0.12096738E+04</pdfrwt>
<pdfrwt beam="2">  1       -2 0.14835692E+00 0.12096738E+04</pdfrwt>
<totfact> 0.80578181E-03</totfact>
</mgrwt>
</event>
<event>
 4    5  0.7289609E-008  0.1230186E+04  0.7818608E-02  0.9128324E-01
         -2   -1    0    0    0  501 -0.00000000000E+00  0.00000000000E+00  0.19672937823E+04  0.19672937823E+04  0.25500000000E-02 0.  1.
          2   -1    0    0  501    0  0.00000000000E+00 -0.00000000000E+00 -0.83763833526E+03  0.83763833526E+03  0.25500000000E-02 0. -1.
    8880023    1    1    2    0    0 -0.25022862922E+03 -0.10084310208E+04  0.12427484338E+04  0.17486512993E+04  0.65864270000E+03 0.  0.
    8880022    1    1    2    0    0  0.25022862922E+03  0.10084310208E+04 -0.11309298670E+03  0.10562808183E+04  0.15294330000E+03 0.  0.
<mgrwt>
<rscale>  0 0.11824888E+04</rscale>
<asrwt>0</asrwt>
<pdfrwt beam="1">  1        2 0.12886744E+00 0.12301860E+04</pdfrwt>
<pdfrwt beam="2">  1       -2 0.30266058E+00 0.12301860E+04</pdfrwt>
<totfact> 0.96845483E-01</totfact>
</mgrwt>
</event>
<event>
 4    5  0.7289609E-008  0.8380155E+03  0.7818608E-02  0.9633934E-01
         -2   -1    0    0    0  501 -0.00000000000E+00  0.00000000000E+00  0.70875671383E+03  0.70875671384E+03  0.25500000000E-02 0.  1.
          2   -1    0    0  501    0  0.00000000000E+00 -0.00000000000E+00 -0.19478024796E+04  0.19478024796E+04  0.25500000000E-02 0. -1.
    8880023    1    1    2    0    0 -0.50499982871E+03  0.11590897617E+03  0.40158741851E+03  0.92926980943E+03  0.65864270000E+03 0.  1.
    8880022    1    1    2    0    0  0.50499982871E+03 -0.11590897617E+03 -0.16406331843E+04  0.17272893840E+04  0.15294330000E+03 0.  0.
<mgrwt>
<rscale>  0 0.75090370E+03</rscale>
<asrwt>0</asrwt>
<pdfrwt beam="1">  1        2 0.29966192E+00 0.83801547E+03</pdfrwt>
<pdfrwt beam="2">  1       -2 0.10903950E+00 0.83801547E+03</pdfrwt>
<totfact> 0.48939235E+00</totfact>
</mgrwt>
</event>
<event>
 4    5  0.7289609E-008  0.1693142E+04  0.7818608E-02  0.8784069E-01
          2   -1    0    0  501    0  0.00000000000E+00  0.00000000000E+00  0.25470206288E+04  0.25470206288E+04  0.25500000000E-02 0. -1.
         -2   -1    0    0    0  501 -0.00000000000E+00 -0.00000000000E+00 -0.16610707437E+04  0.16610707437E+04  0.25500000000E-02 0.  1.
    8880023    1    1    2    0    0  0.34108612608E+03  0.15220316616E+04 -0.82872021876E+03  0.18850749406E+04  0.65864270000E+03 0.  0.
    8880022    1    1    2    0    0 -0.34108612608E+03 -0.15220316616E+04  0.17146701039E+04  0.23230164318E+04  0.15294330000E+03 0.  0.
<mgrwt>
<rscale>  0 0.16607547E+04</rscale>
<asrwt>0</asrwt>
<pdfrwt beam="1">  1        2 0.39184933E+00 0.16931421E+04</pdfrwt>
<pdfrwt beam="2">  1       -2 0.25554935E+00 0.16931421E+04</pdfrwt>
<totfact> 0.17808479E-01</totfact>
</mgrwt>
</event>
<event>
 4    5  0.7289609E-008  0.1245874E+04  0.7818608E-02  0.9113770E-01
         -2   -1    0    0    0  501 -0.00000000000E+00  0.00000000000E+00  0.27666336972E+04  0.27666336972E+04  0.25500000000E-02 0.  1.
          2   -1    0    0  501    0  0.00000000000E+00 -0.00000000000E+00 -0.76650736527E+03  0.76650736527E+03  0.25500000000E-02 0. -1.
    8880023    1    1    2    0    0  0.26561377431E+03  0.10236408404E+04 -0.21981915898E+02  0.12460676780E+04  0.65864270000E+03 0.  0.
    8880022    1    1    2    0    0 -0.26561377431E+03 -0.10236408404E+04  0.20221082478E+04  0.22870733845E+04  0.15294330000E+03 0.  0.
<mgrwt>
<rscale>  0 0.11989566E+04</rscale>
<asrwt>0</asrwt>
<pdfrwt beam="1">  1        2 0.11792421E+00 0.12458738E+04</pdfrwt>
<pdfrwt beam="2">  1       -2 0.42563595E+00 0.12458738E+04</pdfrwt>
<totfact> 0.18033637E-01</totfact>
</mgrwt>
</event>
<event>
 4    5  0.7289609E-008  0.1218274E+04  0.7818608E-02  0.9139561E-01
          2   -1    0    0  501    0  0.00000000000E+00  0.00000000000E+00  0.12101710379E+04  0.12101710379E+04  0.25500000000E-02 0. -1.
         -2   -1    0    0    0  501 -0.00000000000E+00 -0.00000000000E+00 -0.12392793619E+04  0.12392793619E+04  0.25500000000E-02 0.  1.
    8880023    1    1    2    0    0 -0.79497301229E+03  0.64683720217E+03 -0.49284483344E+03  0.13141867038E+04  0.65864270000E+03 0.  0.
    8880022    1    1    2    0    0  0.79497301229E+03 -0.64683720217E+03  0.46373650941E+03  0.11352636960E+04  0.15294330000E+03 0.  0.
<mgrwt>
<rscale>  0 0.11699644E+04</rscale>
<asrwt>0</asrwt>
<pdfrwt beam="1">  1        2 0.18618016E+00 0.12182736E+04</pdfrwt>
<pdfrwt beam="2">  1       -2 0.19065836E+00 0.12182736E+04</pdfrwt>
<totfact> 0.27780270E+00</totfact>
</mgrwt>
</event>
<event>
 4    5  0.7289609E-008  0.1010793E+04  0.7818608E-02  0.9367571E-01
         -2   -1    0    0    0  501 -0.00000000000E+00  0.00000000000E+00  0.46356357725E+03  0.46356357725E+03  0.25500000000E-02 0.  1.
          2   -1    0    0  501    0  0.00000000000E+00 -0.00000000000E+00 -0.20150741286E+04  0.20150741286E+04  0.25500000000E-02 0. -1.
    8880023    1    1    2    0    0 -0.69453884892E+03 -0.32482091398E+03 -0.40060822385E+03  0.10872856083E+04  0.65864270000E+03 0.  0.
    8880022    1    1    2    0    0  0.69453884892E+03  0.32482091398E+03 -0.11509023275E+04  0.13913520975E+04  0.15294330000E+03 0.  0.
<mgrwt>
<rscale>  0 0.94793199E+03</rscale>
<asrwt>0</asrwt>
<pdfrwt beam="1">  1        2 0.31001140E+00 0.10107933E+04</pdfrwt>
<pdfrwt beam="2">  1       -2 0.71317475E-01 0.10107933E+04</pdfrwt>
<totfact> 0.11716374E+01</totfact>
</mgrwt>
</event>
<event>
 4    5  0.7289609E-008  0.1105641E+04  0.7818608E-02  0.9254802E-01
          2   -1    0    0  501    0  0.00000000000E+00  0.00000000000E+00  0.65417031513E+03  0.65417031513E+03  0.25500000000E-02 0. -1.
         -2   -1    0    0    0  501 -0.00000000000E+00 -0.00000000000E+00 -0.22831209858E+04  0.22831209858E+04  0.25500000000E-02 0.  1.
    8880023    1    1    2    0    0  0.36748648840E+03 -0.80844586064E+03 -0.17059268332E+04  0.20328865180E+04  0.65864270000E+03 0.  0.
    8880022    1    1    2    0    0 -0.36748648840E+03  0.80844586064E+03  0.76976162503E+02  0.90440478291E+03  0.15294330000E+03 0.  0.
<mgrwt>
<rscale>  0 0.10505253E+04</rscale>
<asrwt>0</asrwt>
<pdfrwt beam="1">  1        2 0.10064159E+00 0.11056406E+04</pdfrwt>
<pdfrwt beam="2">  1       -2 0.35124938E+00 0.11056406E+04</pdfrwt>
<totfact> 0.68089179E-01</totfact>
</mgrwt>
</event>
<event>
 4    5  0.7289609E-008  0.1631880E+04  0.7818608E-02  0.8821721E-01
         -2   -1    0    0    0  501 -0.00000000000E+00  0.00000000000E+00  0.70782643167E+03  0.70782643167E+03  0.25500000000E-02 0.  1.
          2   -1    0    0  501    0  0.00000000000E+00 -0.00000000000E+00 -0.37654394553E+04  0.37654394553E+04  0.25500000000E-02 0. -1.
    8880023    1    1    2    0    0 -0.67597743130E+03 -0.13312687536E+04 -0.95774743931E+03  0.18921713310E+04  0.65864270000E+03 0.  0.
    8880022    1    1    2    0    0  0.67597743130E+03  0.13312687536E+04 -0.20998655843E+04  0.25810945560E+04  0.15294330000E+03 0.  0.
<mgrwt>
<rscale>  0 0.15980928E+04</rscale>
<asrwt>0</asrwt>
<pdfrwt beam="1">  1        2 0.57929837E+00 0.16318800E+04</pdfrwt>
<pdfrwt beam="2">  1       -2 0.10889638E+00 0.16318800E+04</pdfrwt>
<totfact> 0.33329959E-01</totfact>
</mgrwt>
</event>
<event>
 4    5  0.7289609E-008  0.9467532E+03  0.7818608E-02  0.9454801E-01
          2   -1    0    0  501    0  0.00000000000E+00  0.00000000000E+00  0.22931581654E+04  0.22931581654E+04  0.25500000000E-02 0. -1.
         -2   -1    0    0    0  501 -0.00000000000E+00 -0.00000000000E+00 -0.69741630133E+03  0.69741630134E+03  0.25500000000E-02 0.  1.
    8880023    1    1    2    0    0  0.64621849654E+02  0.67701946210E+03 -0.28180227302E+03  0.98780264368E+03  0.65864270000E+03 0.  1.
    8880022    1    1    2    0    0 -0.64621849654E+02 -0.67701946210E+03  0.18775441371E+04  0.20027718231E+04  0.15294330000E+03 0.  0.
<mgrwt>
<rscale>  0 0.87699780E+03</rscale>
<asrwt>0</asrwt>
<pdfrwt beam="1">  1        2 0.35279356E+00 0.94675316E+03</pdfrwt>
<pdfrwt beam="2">  1       -2 0.10729482E+00 0.94675316E+03</pdfrwt>
<totfact> 0.32295459E+00</totfact>
</mgrwt>
</event>
<event>
 4    5  0.7289609E-008  0.8297254E+03  0.7818608E-02  0.9649867E-01
          2   -1    0    0  501    0  0.00000000000E+00  0.00000000000E+00  0.38169643068E+03  0.38169643069E+03  0.25500000000E-02 0. -1.
         -2   -1    0    0    0  501 -0.00000000000E+00 -0.00000000000E+00 -0.33093315086E+04  0.33093315086E+04  0.25500000000E-02 0.  1.
    8880023    1    1    2    0    0 -0.32199660706E+03 -0.38852561415E+03 -0.30406046276E+04  0.31517805564E+04  0.65864270000E+03 0.  1.
    8880022    1    1    2    0    0  0.32199660706E+03  0.38852561415E+03  0.11296954968E+03  0.53924738292E+03  0.15294330000E+03 0.  0.
<mgrwt>
<rscale>  0 0.74081774E+03</rscale>
<asrwt>0</asrwt>
<pdfrwt beam="1">  1        2 0.58722530E-01 0.82972536E+03</pdfrwt>
<pdfrwt beam="2">  1       -2 0.50912791E+00 0.82972536E+03</pdfrwt>
<totfact> 0.12628734E-01</totfact>
</mgrwt>
</event>
<event>
 4    5  0.7289609E-008  0.1198463E+04  0.7818608E-02  0.9158617E-01
          2   -1    0    0  501    0  0.00000000000E+00  0.00000000000E+00  0.16277904415E+04  0.16277904415E+04  0.25500000000E-02 0. -1.
         -2   -1    0    0    0  501 -0.00000000000E+00 -0.00000000000E+00 -0.89191932442E+03  0.89191932443E+03  0.25500000000E-02 0.  1.
    8880023    1    1    2    0    0 -0.77899440118E+03 -0.62902478913E+03  0.89320094309E+03  0.14946981613E+04  0.65864270000E+03 0.  0.
    8880022    1    1    2    0    0  0.77899440118E+03  0.62902478913E+03 -0.15732982603E+03  0.10250116046E+04  0.15294330000E+03 0.  0.
<mgrwt>
<rscale>  0 0.11490966E+04</rscale>
<asrwt>0</asrwt>
<pdfrwt beam="1">  1        2 0.25042930E+00 0.11984635E+04</pdfrwt>
<pdfrwt beam="2">  1       -2 0.13721836E+00 0.11984635E+04</pdfrwt>
<totfact> 0.39622459E+00</totfact>
</mgrwt>
</event>
<event>
 4    5  0.7289609E-008  0.6939734E+03  0.7818608E-02  0.1002318E+00
          2   -1    0    0  501    0  0.00000000000E+00  0.00000000000E+00  0.14069965180E+04  0.14069965180E+04  0.25500000000E-02 0. -1.
         -2   -1    0    0    0  501 -0.00000000000E+00 -0.00000000000E+00 -0.13317717765E+04  0.13317717765E+04  0.25500000000E-02 0.  1.
    8880023    1    1    2    0    0  0.21830557077E+03  0.11470146285E+02 -0.12269128763E+04  0.14095794759E+04  0.65864270000E+03 0.  1.
    8880022    1    1    2    0    0 -0.21830557077E+03 -0.11470146285E+02  0.13021376179E+04  0.13291888186E+04  0.15294330000E+03 0.  0.
<mgrwt>
<rscale>  0 0.54645233E+03</rscale>
<asrwt>0</asrwt>
<pdfrwt beam="1">  1        2 0.21646100E+00 0.69397341E+03</pdfrwt>
<pdfrwt beam="2">  1       -2 0.20488797E+00 0.69397341E+03</pdfrwt>
<totfact> 0.18461218E+00</totfact>
</mgrwt>
</event>
<event>
 4    5  0.1368307E-007  0.1265895E+04  0.7818608E-02  0.9095586E-01
          2   -1    0    0  501    0  0.00000000000E+00  0.00000000000E+00  0.26729513125E+04  0.26729513125E+04  0.25500000000E-02 0. -1.
         -2   -1    0    0    0  501 -0.00000000000E+00 -0.00000000000E+00 -0.16662102512E+04  0.16662102512E+04  0.25500000000E-02 0.  1.
    8880023    1    1    2    0    0 -0.44673061828E+03 -0.98443451742E+03 -0.12830327393E+04  0.18024047217E+04  0.65864270000E+03 0.  0.
    8880022    1    1    2    0    0  0.44673061828E+03  0.98443451742E+03  0.22897738007E+04  0.25367568420E+04  0.15294330000E+03 0.  0.
<mgrwt>
<rscale>  0 0.12199331E+04</rscale>
<asrwt>0</asrwt>
<pdfrwt beam="1">  1        2 0.41122328E+00 0.12658948E+04</pdfrwt>
<pdfrwt beam="2">  1       -2 0.25634004E+00 0.12658948E+04</pdfrwt>
<totfact> 0.15699715E-01</totfact>
</mgrwt>
</event>
<event>
 4    5  0.7289609E-008  0.9311908E+03  0.7818608E-02  0.9477709E-01
         -2   -1    0    0    0  501 -0.00000000000E+00  0.00000000000E+00  0.17287374951E+03  0.17287374953E+03  0.25500000000E-02 0.  1.
          2   -1    0    0  501    0  0.00000000000E+00 -0.00000000000E+00 -0.50723544730E+04  0.50723544730E+04  0.25500000000E-02 0. -1.
    8880023    1    1    2    0    0  0.25353021645E+03  0.60747721928E+03 -0.14020838949E+04  0.16831386149E+04  0.65864270000E+03 0.  0.
    8880022    1    1    2    0    0 -0.25353021645E+03 -0.60747721928E+03 -0.34973968287E+04  0.35620896076E+04  0.15294330000E+03 0.  0.
<mgrwt>
<rscale>  0 0.85947378E+03</rscale>
<asrwt>0</asrwt>
<pdfrwt beam="1">  1        2 0.78036211E+00 0.93119082E+03</pdfrwt>
<pdfrwt beam="2">  1       -2 0.26595965E-01 0.93119082E+03</pdfrwt>
<totfact> 0.39938845E-01</totfact>
</mgrwt>
</event>
<event>
 4    5  0.7289609E-008  0.7703637E+03  0.7818608E-02  0.9778980E-01
          2   -1    0    0  501    0  0.00000000000E+00  0.00000000000E+00  0.26473052504E+04  0.26473052504E+04  0.25500000000E-02 0. -1.
         -2   -1    0    0    0  501 -0.00000000000E+00 -0.00000000000E+00 -0.17303393342E+03  0.17303393344E+03  0.25500000000E-02 0.  1.
    8880023    1    1    2    0    0 -0.39661664259E+03 -0.48427738176E+02  0.87951215340E+03  0.11691885396E+04  0.65864270000E+03 0.  0.
    8880022    1    1    2    0    0  0.39661664259E+03  0.48427738176E+02  0.15947591636E+04  0.16511506442E+04  0.15294330000E+03 0.  0.
<mgrwt>
<rscale>  0 0.66502902E+03</rscale>
<asrwt>0</asrwt>
<pdfrwt beam="1">  1        2 0.40727770E+00 0.77036369E+03</pdfrwt>
<pdfrwt beam="2">  1       -2 0.26620607E-01 0.77036369E+03</pdfrwt>
<totfact> 0.38053642E+01</totfact>
</mgrwt>
</event>
<event>
 4    5  0.7289609E-008  0.1156046E+04  0.7818608E-02  0.9201080E-01
         -2   -1    0    0    0  501 -0.00000000000E+00  0.00000000000E+00  0.54540594582E+03  0.54540594583E+03  0.25500000000E-02 0.  1.
          2   -1    0    0  501    0  0.00000000000E+00 -0.00000000000E+00 -0.26493087631E+04  0.26493087631E+04  0.25500000000E-02 0. -1.
    8880023    1    1    2    0    0 -0.39433404936E+03 -0.86436821032E+03 -0.18795364506E+04  0.22066035487E+04  0.65864270000E+03 0. -1.
    8880022    1    1    2    0    0  0.39433404936E+03  0.86436821032E+03 -0.22436636663E+03  0.98811116024E+03  0.15294330000E+03 0.  0.
<mgrwt>
<rscale>  0 0.11042287E+04</rscale>
<asrwt>0</asrwt>
<pdfrwt beam="1">  1        2 0.40758596E+00 0.11560458E+04</pdfrwt>
<pdfrwt beam="2">  1       -2 0.83908609E-01 0.11560458E+04</pdfrwt>
<totfact> 0.35059835E+00</totfact>
</mgrwt>
</event>
<event>
 4    5  0.7289609E-008  0.8354480E+03  0.7818608E-02  0.9638824E-01
          2   -1    0    0  501    0  0.00000000000E+00  0.00000000000E+00  0.20883353365E+04  0.20883353366E+04  0.25500000000E-02 0. -1.
         -2   -1    0    0    0  501 -0.00000000000E+00 -0.00000000000E+00 -0.34002000749E+03  0.34002000750E+03  0.25500000000E-02 0.  1.
    8880023    1    1    2    0    0 -0.38664043867E+03  0.33863312846E+03  0.30624268606E+03  0.88980785203E+03  0.65864270000E+03 0.  1.
    8880022    1    1    2    0    0  0.38664043867E+03 -0.33863312846E+03  0.14420726430E+04  0.15385474920E+04  0.15294330000E+03 0.  0.
<mgrwt>
<rscale>  0 0.74779004E+03</rscale>
<asrwt>0</asrwt>
<pdfrwt beam="1">  1        2 0.32128236E+00 0.83544804E+03</pdfrwt>
<pdfrwt beam="2">  1       -2 0.52310770E-01 0.83544804E+03</pdfrwt>
<totfact> 0.21070205E+01</totfact>
</mgrwt>
</event>
<event>
 4    5  0.7289609E-008  0.8834908E+03  0.7818608E-02  0.9553071E-01
          2   -1    0    0  501    0  0.00000000000E+00  0.00000000000E+00  0.27790090772E+04  0.27790090772E+04  0.25500000000E-02 0. -1.
         -2   -1    0    0    0  501 -0.00000000000E+00 -0.00000000000E+00 -0.28475220207E+03  0.28475220208E+03  0.25500000000E-02 0.  1.
    8880023    1    1    2    0    0 -0.55729254749E+03  0.19018618244E+03  0.58424789786E+03  0.10591985555E+04  0.65864270000E+03 0.  1.
    8880022    1    1    2    0    0  0.55729254749E+03 -0.19018618244E+03  0.19100089772E+04  0.20045627238E+04  0.15294330000E+03 0.  0.
<mgrwt>
<rscale>  0 0.80481654E+03</rscale>
<asrwt>0</asrwt>
<pdfrwt beam="1">  1        2 0.42753987E+00 0.88349079E+03</pdfrwt>
<pdfrwt beam="2">  1       -2 0.43808030E-01 0.88349079E+03</pdfrwt>
<totfact> 0.12163575E+01</totfact>
</mgrwt>
</event>
<event>
 4    5  0.7289609E-008  0.1374272E+04  0.7818608E-02  0.9003936E-01
          2   -1    0    0  501    0  0.00000000000E+00  0.00000000000E+00  0.15788892559E+04  0.15788892559E+04  0.25500000000E-02 0. -1.
         -2   -1    0    0    0  501 -0.00000000000E+00 -0.00000000000E+00 -0.19957981013E+04  0.19957981013E+04  0.25500000000E-02 0.  1.
    8880023    1    1    2    0    0 -0.66645585079E+03 -0.10053111355E+04 -0.14364527414E+04  0.19879689547E+04  0.65864270000E+03 0.  0.
    8880022    1    1    2    0    0  0.66645585079E+03  0.10053111355E+04  0.10195438959E+04  0.15867184025E+04  0.15294330000E+03 0.  0.
<mgrwt>
<rscale>  0 0.13328198E+04</rscale>
<asrwt>0</asrwt>
<pdfrwt beam="1">  1        2 0.24290604E+00 0.13742722E+04</pdfrwt>
<pdfrwt beam="2">  1       -2 0.30704586E+00 0.13742722E+04</pdfrwt>
<totfact> 0.31465990E-01</totfact>
</mgrwt>
</event>
<event>
 4    5  0.7289609E-008  0.1049722E+04  0.7818608E-02  0.9319215E-01
         -2   -1    0    0    0  501 -0.00000000000E+00  0.00000000000E+00  0.80481161307E+03  0.80481161307E+03  0.25500000000E-02 0.  1.
          2   -1    0    0  501    0  0.00000000000E+00 -0.00000000000E+00 -0.18020663461E+04  0.18020663461E+04  0.25500000000E-02 0. -1.
    8880023    1    1    2    0    0 -0.66603307406E+03  0.47382149057E+03  0.27666806898E+03  0.10855700288E+04  0.65864270000E+03 0.  0.
    8880022    1    1    2    0    0  0.66603307406E+03 -0.47382149057E+03 -0.12739228020E+04  0.15213079305E+04  0.15294330000E+03 0.  0.
<mgrwt>
<rscale>  0 0.99032957E+03</rscale>
<asrwt>0</asrwt>
<pdfrwt beam="1">  1        2 0.27724097E+00 0.10497224E+04</pdfrwt>
<pdfrwt beam="2">  1       -2 0.12381717E+00 0.10497224E+04</pdfrwt>
<totfact> 0.41863813E+00</totfact>
</mgrwt>
</event>
<event>
 4    5  0.7289609E-008  0.8794784E+03  0.7818608E-02  0.9559812E-01
         -2   -1    0    0    0  501 -0.00000000000E+00  0.00000000000E+00  0.29542272919E+03  0.29542272921E+03  0.25500000000E-02 0.  1.
          2   -1    0    0  501    0  0.00000000000E+00 -0.00000000000E+00 -0.27555532674E+04  0.27555532674E+04  0.25500000000E-02 0. -1.
    8880023    1    1    2    0    0 -0.94084966863E+02  0.57516962061E+03 -0.52511922158E+03  0.10243204951E+04  0.65864270000E+03 0.  1.
    8880022    1    1    2    0    0  0.94084966863E+02 -0.57516962061E+03 -0.19350113166E+04  0.20266555016E+04  0.15294330000E+03 0.  1.
<mgrwt>
<rscale>  0 0.80014141E+03</rscale>
<asrwt>0</asrwt>
<pdfrwt beam="1">  1        2 0.42393125E+00 0.87947841E+03</pdfrwt>
<pdfrwt beam="2">  1       -2 0.45449653E-01 0.87947841E+03</pdfrwt>
<totfact> 0.11675716E+01</totfact>
</mgrwt>
</event>
<event>
 4    5  0.7289609E-008  0.9819053E+03  0.7818608E-02  0.9405623E-01
          2   -1    0    0  501    0  0.00000000000E+00  0.00000000000E+00  0.15177621256E+04  0.15177621256E+04  0.25500000000E-02 0. -1.
         -2   -1    0    0    0  501 -0.00000000000E+00 -0.00000000000E+00 -0.64814442810E+03  0.64814442811E+03  0.25500000000E-02 0.  1.
    8880023    1    1    2    0    0  0.46800866711E+03  0.55793885053E+03 -0.49709876389E+02  0.98316283061E+03  0.65864270000E+03 0.  0.
    8880022    1    1    2    0    0 -0.46800866711E+03 -0.55793885053E+03  0.91932757390E+03  0.11827437231E+04  0.15294330000E+03 0.  0.
<mgrwt>
<rscale>  0 0.91614337E+03</rscale>
<asrwt>0</asrwt>
<pdfrwt beam="1">  1        2 0.23350187E+00 0.98190533E+03</pdfrwt>
<pdfrwt beam="2">  1       -2 0.99714528E-01 0.98190533E+03</pdfrwt>
<totfact> 0.10289252E+01</totfact>
</mgrwt>
</event>
<event>
 4    5  0.7289609E-008  0.8282304E+03  0.7818608E-02  0.9652785E-01
         -2   -1    0    0    0  501 -0.00000000000E+00  0.00000000000E+00  0.66292667601E+03  0.66292667602E+03  0.25500000000E-02 0.  1.
          2   -1    0    0  501    0  0.00000000000E+00 -0.00000000000E+00 -0.12711017285E+04  0.12711017285E+04  0.25500000000E-02 0. -1.
    8880023    1    1    2    0    0 -0.25247625255E+03 -0.43406356929E+03  0.30345356441E+03  0.88207126260E+03  0.65864270000E+03 0.  0.
    8880022    1    1    2    0    0  0.25247625255E+03  0.43406356929E+03 -0.91162861690E+03  0.10519571419E+04  0.15294330000E+03 0.  0.
<mgrwt>
<rscale>  0 0.73898882E+03</rscale>
<asrwt>0</asrwt>
<pdfrwt beam="1">  1        2 0.19555411E+00 0.82823043E+03</pdfrwt>
<pdfrwt beam="2">  1       -2 0.10198872E+00 0.82823043E+03</pdfrwt>
<totfact> 0.13700603E+01</totfact>
</mgrwt>
</event>
<event>
 4    5  0.7289609E-008  0.7802414E+03  0.7818608E-02  0.9755270E-01
         -2   -1    0    0    0  501 -0.00000000000E+00  0.00000000000E+00  0.80354612768E+03  0.80354612769E+03  0.25500000000E-02 0.  1.
          2   -1    0    0  501    0  0.00000000000E+00 -0.00000000000E+00 -0.61478824466E+03  0.61478824466E+03  0.25500000000E-02 0. -1.
    8880023    1    1    2    0    0 -0.28796980328E+03  0.30338075382E+03  0.45127778529E+03  0.90134806548E+03  0.65864270000E+03 0. -1.
    8880022    1    1    2    0    0  0.28796980328E+03 -0.30338075382E+03 -0.26251990226E+03  0.51698630687E+03  0.15294330000E+03 0.  0.
<mgrwt>
<rscale>  0 0.67819254E+03</rscale>
<asrwt>0</asrwt>
<pdfrwt beam="1">  1        2 0.94582807E-01 0.78024143E+03</pdfrwt>
<pdfrwt beam="2">  1       -2 0.12362248E+00 0.78024143E+03</pdfrwt>
<totfact> 0.23988604E+01</totfact>
</mgrwt>
</event>
<event>
 4    5  0.7289609E-008  0.1100190E+04  0.7818608E-02  0.9260844E-01
         -2   -1    0    0    0  501 -0.00000000000E+00  0.00000000000E+00  0.25185411064E+04  0.25185411064E+04  0.25500000000E-02 0.  1.
          2   -1    0    0  501    0  0.00000000000E+00 -0.00000000000E+00 -0.87028134841E+03  0.87028134841E+03  0.25500000000E-02 0. -1.
    8880023    1    1    2    0    0 -0.12118193977E+03 -0.87288228692E+03  0.21119589042E+04  0.23813418840E+04  0.65864270000E+03 0.  1.
    8880022    1    1    2    0    0  0.12118193977E+03  0.87288228692E+03 -0.46369914619E+03  0.10074805708E+04  0.15294330000E+03 0.  0.
<mgrwt>
<rscale>  0 0.10446893E+04</rscale>
<asrwt>0</asrwt>
<pdfrwt beam="1">  1        2 0.13388944E+00 0.11001903E+04</pdfrwt>
<pdfrwt beam="2">  1       -2 0.38746786E+00 0.11001903E+04</pdfrwt>
<totfact> 0.27543147E-01</totfact>
</mgrwt>
</event>
<event>
 4    5  0.7289609E-008  0.6789299E+03  0.7818608E-02  0.1009936E+00
         -2   -1    0    0    0  501 -0.00000000000E+00  0.00000000000E+00  0.28722675724E+03  0.28722675725E+03  0.25500000000E-02 0.  1.
          2   -1    0    0  501    0  0.00000000000E+00 -0.00000000000E+00 -0.77474699699E+03  0.77474699699E+03  0.25500000000E-02 0. -1.
    8880023    1    1    2    0    0 -0.88803259896E+02  0.13874289190E+03 -0.22248941642E+03  0.71445598584E+03  0.65864270000E+03 0.  1.
    8880022    1    1    2    0    0  0.88803259896E+02 -0.13874289190E+03 -0.26503082334E+03  0.34751776840E+03  0.15294330000E+03 0.  0.
<mgrwt>
<rscale>  0 0.51500260E+03</rscale>
<asrwt>0</asrwt>
<pdfrwt beam="1">  1        2 0.11919185E+00 0.67892990E+03</pdfrwt>
<pdfrwt beam="2">  1       -2 0.44188732E-01 0.67892990E+03</pdfrwt>
<totfact> 0.17702292E+02</totfact>
</mgrwt>
</event>
<event>
 4    5  0.7289609E-008  0.6611233E+03  0.7818608E-02  0.1023034E+00
         -2   -1    0    0    0  501 -0.00000000000E+00  0.00000000000E+00  0.67326509850E+03  0.67326509850E+03  0.25500000000E-02 0.  1.
          2   -1    0    0  501    0  0.00000000000E+00 -0.00000000000E+00 -0.66953192164E+03  0.66953192165E+03  0.25500000000E-02 0. -1.
    8880023    1    1    2    0    0  0.26451882021E+02 -0.50736114804E+02  0.49448490471E+03  0.82559032374E+03  0.65864270000E+03 0.  1.
    8880022    1    1    2    0    0 -0.26451882021E+02  0.50736114804E+02 -0.49075172785E+03  0.51720669641E+03  0.15294330000E+03 0.  0.
<mgrwt>
<rscale>  0 0.46607477E+03</rscale>
<asrwt>0</asrwt>
<pdfrwt beam="1">  1        2 0.10300491E+00 0.66112333E+03</pdfrwt>
<pdfrwt beam="2">  1       -2 0.10357925E+00 0.66112333E+03</pdfrwt>
<totfact> 0.33603893E+01</totfact>
</mgrwt>
</event>
<event>
 4    5  0.7289609E-008  0.1237819E+04  0.7818608E-02  0.9121208E-01
         -2   -1    0    0    0  501 -0.00000000000E+00  0.00000000000E+00  0.20119686031E+04  0.20119686031E+04  0.25500000000E-02 0.  1.
          2   -1    0    0  501    0  0.00000000000E+00 -0.00000000000E+00 -0.96056259600E+03  0.96056259600E+03  0.25500000000E-02 0. -1.
    8880023    1    1    2    0    0  0.94105347322E+03  0.46130708448E+03 -0.28213017429E+03  0.12695642982E+04  0.65864270000E+03 0.  0.
    8880022    1    1    2    0    0 -0.94105347322E+03 -0.46130708448E+03  0.13335361814E+04  0.17029669010E+04  0.15294330000E+03 0.  0.
<mgrwt>
<rscale>  0 0.11905050E+04</rscale>
<asrwt>0</asrwt>
<pdfrwt beam="1">  1        2 0.14777886E+00 0.12378191E+04</pdfrwt>
<pdfrwt beam="2">  1       -2 0.30953363E+00 0.12378191E+04</pdfrwt>
<totfact> 0.72373616E-01</totfact>
</mgrwt>
</event>
<event>
 4    5  0.7289609E-008  0.7332339E+03  0.7818608E-02  0.9880113E-01
         -2   -1    0    0    0  501 -0.00000000000E+00  0.00000000000E+00  0.79632952932E+03  0.79632952932E+03  0.25500000000E-02 0.  1.
          2   -1    0    0  501    0  0.00000000000E+00 -0.00000000000E+00 -0.73105395924E+03  0.73105395925E+03  0.25500000000E-02 0. -1.
    8880023    1    1    2    0    0  0.30314501157E+03 -0.10920067506E+03  0.55637776096E+03  0.92042821808E+03  0.65864270000E+03 0.  0.
    8880022    1    1    2    0    0 -0.30314501157E+03  0.10920067506E+03 -0.49110219089E+03  0.60695527050E+03  0.15294330000E+03 0.  0.
<mgrwt>
<rscale>  0 0.61234823E+03</rscale>
<asrwt>0</asrwt>
<pdfrwt beam="1">  1        2 0.11246984E+00 0.73323386E+03</pdfrwt>
<pdfrwt beam="2">  1       -2 0.12251223E+00 0.73323386E+03</pdfrwt>
<totfact> 0.19853684E+01</totfact>
</mgrwt>
</event>
<event>
 4    5  0.7289609E-008  0.6715623E+03  0.7818608E-02  0.1014567E+00
          2   -1    0    0  501    0  0.00000000000E+00  0.00000000000E+00  0.46238428531E+03  0.46238428532E+03  0.25500000000E-02 0. -1.
         -2   -1    0    0    0  501 -0.00000000000E+00 -0.00000000000E+00 -0.72997743951E+03  0.72997743952E+03  0.25500000000E-02 0.  1.
    8880023    1    1    2    0    0 -0.65658460592E+02  0.11346664110E+03  0.18532810119E+03  0.69666521619E+03  0.65864270000E+03 0. -1.
    8880022    1    1    2    0    0  0.65658460592E+02 -0.11346664110E+03 -0.45292125539E+03  0.49569650865E+03  0.15294330000E+03 0.  0.
<mgrwt>
<rscale>  0 0.49699293E+03</rscale>
<asrwt>0</asrwt>
<pdfrwt beam="1">  1        2 0.71136044E-01 0.67156230E+03</pdfrwt>
<pdfrwt beam="2">  1       -2 0.11230422E+00 0.67156230E+03</pdfrwt>
<totfact> 0.42852480E+01</totfact>
</mgrwt>
</event>
<event>
 4    5  0.7289609E-008  0.6819009E+03  0.7818608E-02  0.1008268E+00
         -2   -1    0    0    0  501 -0.00000000000E+00  0.00000000000E+00  0.43423763828E+03  0.43423763829E+03  0.25500000000E-02 0.  1.
          2   -1    0    0  501    0  0.00000000000E+00 -0.00000000000E+00 -0.76561564833E+03  0.76561564834E+03  0.25500000000E-02 0. -1.
    8880023    1    1    2    0    0  0.11385019260E+03 -0.13496962859E+03  0.11927381823E+03  0.69225365075E+03  0.65864270000E+03 0.  1.
    8880022    1    1    2    0    0 -0.11385019260E+03  0.13496962859E+03 -0.45065182828E+03  0.50759963588E+03  0.15294330000E+03 0.  0.
<mgrwt>
<rscale>  0 0.52168761E+03</rscale>
<asrwt>0</asrwt>
<pdfrwt beam="1">  1        2 0.11778702E+00 0.68190093E+03</pdfrwt>
<pdfrwt beam="2">  1       -2 0.66805791E-01 0.68190093E+03</pdfrwt>
<totfact> 0.76457692E+01</totfact>
</mgrwt>
</event>
<event>
 4    5  0.7289609E-008  0.1207647E+04  0.7818608E-02  0.9149725E-01
         -2   -1    0    0    0  501 -0.00000000000E+00  0.00000000000E+00  0.81055851024E+03  0.81055851025E+03  0.25500000000E-02 0.  1.
          2   -1    0    0  501    0  0.00000000000E+00 -0.00000000000E+00 -0.52760722787E+04  0.52760722787E+04  0.25500000000E-02 0. -1.
    8880023    1    1    2    0    0 -0.88897759014E+03 -0.48406548339E+03  0.27356442096E+03  0.12382440174E+04  0.65864270000E+03 0.  0.
    8880022    1    1    2    0    0  0.88897759014E+03  0.48406548339E+03 -0.47390781894E+04  0.48483867716E+04  0.15294330000E+03 0.  0.
<mgrwt>
<rscale>  0 0.11587766E+04</rscale>
<asrwt>0</asrwt>
<pdfrwt beam="1">  1        2 0.81170340E+00 0.12076468E+04</pdfrwt>
<pdfrwt beam="2">  1       -2 0.12470131E+00 0.12076468E+04</pdfrwt>
<totfact> 0.72810027E-03</totfact>
</mgrwt>
</event>
<event>
 4    5  0.7289609E-008  0.7376521E+03  0.7818608E-02  0.9866840E-01
          2   -1    0    0  501    0  0.00000000000E+00  0.00000000000E+00  0.11236238810E+04  0.11236238810E+04  0.25500000000E-02 0. -1.
         -2   -1    0    0    0  501 -0.00000000000E+00 -0.00000000000E+00 -0.31241447969E+03  0.31241447970E+03  0.25500000000E-02 0.  1.
    8880023    1    1    2    0    0  0.31522417063E+03  0.10466219323E+03  0.27548611911E+03  0.78741555771E+03  0.65864270000E+03 0.  1.
    8880022    1    1    2    0    0 -0.31522417063E+03 -0.10466219323E+03  0.53572328216E+03  0.64862280295E+03  0.15294330000E+03 0.  1.
<mgrwt>
<rscale>  0 0.61895637E+03</rscale>
<asrwt>0</asrwt>
<pdfrwt beam="1">  1        2 0.17286521E+00 0.73765213E+03</pdfrwt>
<pdfrwt beam="2">  1       -2 0.48063767E-01 0.73765213E+03</pdfrwt>
<totfact> 0.87791590E+01</totfact>
</mgrwt>
</event>
<event>
 4    5  0.7289609E-008  0.1285764E+04  0.7818608E-02  0.9077952E-01
         -2   -1    0    0    0  501 -0.00000000000E+00  0.00000000000E+00  0.80212274335E+03  0.80212274335E+03  0.25500000000E-02 0.  1.
          2   -1    0    0  501    0  0.00000000000E+00 -0.00000000000E+00 -0.23840114237E+04  0.23840114237E+04  0.25500000000E-02 0. -1.
    8880023    1    1    2    0    0 -0.67534624482E+03  0.87366219457E+03 -0.43770458270E+02  0.12865085464E+04  0.65864270000E+03 0.  1.
    8880022    1    1    2    0    0  0.67534624482E+03 -0.87366219457E+03 -0.15381182221E+04  0.18996256207E+04  0.15294330000E+03 0.  0.
<mgrwt>
<rscale>  0 0.12407084E+04</rscale>
<asrwt>0</asrwt>
<pdfrwt beam="1">  1        2 0.36677098E+00 0.12857637E+04</pdfrwt>
<pdfrwt beam="2">  1       -2 0.12340350E+00 0.12857637E+04</pdfrwt>
<totfact> 0.19493447E+00</totfact>
</mgrwt>
</event>
<event>
 4    5  0.7289609E-008  0.1714865E+04  0.7818608E-02  0.8771152E-01
         -2   -1    0    0    0  501 -0.00000000000E+00  0.00000000000E+00  0.14960530845E+04  0.14960530845E+04  0.25500000000E-02 0.  1.
          2   -1    0    0  501    0  0.00000000000E+00 -0.00000000000E+00 -0.20264487228E+04  0.20264487228E+04  0.25500000000E-02 0. -1.
    8880023    1    1    2    0    0 -0.15490920980E+04  0.32751367380E+03 -0.82783836567E+03  0.19042263785E+04  0.65864270000E+03 0.  0.
    8880022    1    1    2    0    0  0.15490920980E+04 -0.32751367380E+03  0.29744272735E+03  0.16182754288E+04  0.15294330000E+03 0.  0.
<mgrwt>
<rscale>  0 0.16829448E+04</rscale>
<asrwt>0</asrwt>
<pdfrwt beam="1">  1        2 0.31176134E+00 0.17148649E+04</pdfrwt>
<pdfrwt beam="2">  1       -2 0.23016201E+00 0.17148649E+04</pdfrwt>
<totfact> 0.50584088E-01</totfact>
</mgrwt>
</event>
<event>
 4    5  0.7289609E-008  0.7025234E+03  0.7818608E-02  0.9986890E-01
          2   -1    0    0  501    0  0.00000000000E+00  0.00000000000E+00  0.26694290701E+03  0.26694290702E+03  0.25500000000E-02 0. -1.
         -2   -1    0    0    0  501 -0.00000000000E+00 -0.00000000000E+00 -0.10791907940E+04  0.10791907940E+04  0.25500000000E-02 0.  1.
    8880023    1    1    2    0    0 -0.11147780226E+02  0.24414051925E+03 -0.78968011839E+03  0.10569454867E+04  0.65864270000E+03 0.  1.
    8880022    1    1    2    0    0  0.11147780226E+02 -0.24414051925E+03 -0.22567768632E+02  0.28918821438E+03  0.15294330000E+03 0. -1.
<mgrwt>
<rscale>  0 0.56228838E+03</rscale>
<asrwt>0</asrwt>
<pdfrwt beam="1">  1        2 0.41068140E-01 0.70252336E+03</pdfrwt>
<pdfrwt beam="2">  1       -2 0.16602935E+00 0.70252336E+03</pdfrwt>
<totfact> 0.28924801E+01</totfact>
</mgrwt>
</event>
<event>
 4    5  0.7289609E-008  0.6657031E+03  0.7818608E-02  0.1018951E+00
          2   -1    0    0  501    0  0.00000000000E+00  0.00000000000E+00  0.18005416959E+04  0.18005416959E+04  0.25500000000E-02 0. -1.
         -2   -1    0    0    0  501 -0.00000000000E+00 -0.00000000000E+00 -0.13600375783E+03  0.13600375785E+03  0.25500000000E-02 0.  1.
    8880023    1    1    2    0    0  0.86683406357E+02 -0.42852599509E+02  0.74380945625E+03  0.99820492470E+03  0.65864270000E+03 0.  1.
    8880022    1    1    2    0    0 -0.86683406357E+02  0.42852599509E+02  0.92072848183E+03  0.93834052907E+03  0.15294330000E+03 0.  0.
<mgrwt>
<rscale>  0 0.48067173E+03</rscale>
<asrwt>0</asrwt>
<pdfrwt beam="1">  1        2 0.27700642E+00 0.66570306E+03</pdfrwt>
<pdfrwt beam="2">  1       -2 0.20923655E-01 0.66570306E+03</pdfrwt>
<totfact> 0.17473689E+02</totfact>
</mgrwt>
</event>
<event>
 4    5  0.7289609E-008  0.1051925E+04  0.7818608E-02  0.9316571E-01
          2   -1    0    0  501    0  0.00000000000E+00  0.00000000000E+00  0.44610023244E+03  0.44610023245E+03  0.25500000000E-02 0. -1.
         -2   -1    0    0    0  501 -0.00000000000E+00 -0.00000000000E+00 -0.30673128401E+04  0.30673128401E+04  0.25500000000E-02 0.  1.
    8880023    1    1    2    0    0  0.84213199881E+02 -0.81587036589E+03 -0.24435647709E+04  0.26603675146E+04  0.65864270000E+03 0.  1.
    8880022    1    1    2    0    0 -0.84213199881E+02  0.81587036589E+03 -0.17764783674E+03  0.85304555792E+03  0.15294330000E+03 0.  0.
<mgrwt>
<rscale>  0 0.99271541E+03</rscale>
<asrwt>0</asrwt>
<pdfrwt beam="1">  1        2 0.68630807E-01 0.10519252E+04</pdfrwt>
<pdfrwt beam="2">  1       -2 0.47189427E+00 0.10519252E+04</pdfrwt>
<totfact> 0.17706971E-01</totfact>
</mgrwt>
</event>
<event>
 4    5  0.7289609E-008  0.9131083E+03  0.7818608E-02  0.9505308E-01
         -2   -1    0    0    0  501 -0.00000000000E+00  0.00000000000E+00  0.21091995614E+04  0.21091995614E+04  0.25500000000E-02 0.  1.
          2   -1    0    0  501    0  0.00000000000E+00 -0.00000000000E+00 -0.57243073303E+03  0.57243073304E+03  0.25500000000E-02 0. -1.
    8880023    1    1    2    0    0 -0.61269052456E+03  0.15673841459E+03  0.17690126090E+04  0.19907718168E+04  0.65864270000E+03 0.  1.
    8880022    1    1    2    0    0  0.61269052456E+03 -0.15673841459E+03 -0.23224378062E+03  0.69085847765E+03  0.15294330000E+03 0.  0.
<mgrwt>
<rscale>  0 0.83893623E+03</rscale>
<asrwt>0</asrwt>
<pdfrwt beam="1">  1        2 0.88066268E-01 0.91310833E+03</pdfrwt>
<pdfrwt beam="2">  1       -2 0.32449224E+00 0.91310833E+03</pdfrwt>
<totfact> 0.12047489E+00</totfact>
</mgrwt>
</event>
<event>
 4    5  0.7289609E-008  0.1537673E+04  0.7818608E-02  0.8883482E-01
         -2   -1    0    0    0  501 -0.00000000000E+00  0.00000000000E+00  0.62899815292E+03  0.62899815293E+03  0.25500000000E-02 0.  1.
          2   -1    0    0  501    0  0.00000000000E+00 -0.00000000000E+00 -0.35073999952E+04  0.35073999952E+04  0.25500000000E-02 0. -1.
    8880023    1    1    2    0    0  0.75516247878E+03  0.11663442325E+04 -0.11895599771E+04  0.19440916603E+04  0.65864270000E+03 0.  0.
    8880022    1    1    2    0    0 -0.75516247878E+03 -0.11663442325E+04 -0.16888418651E+04  0.21923064878E+04  0.15294330000E+03 0.  0.
<mgrwt>
<rscale>  0 0.15014616E+04</rscale>
<asrwt>0</asrwt>
<pdfrwt beam="1">  1        2 0.53959999E+00 0.15376734E+04</pdfrwt>
<pdfrwt beam="2">  1       -2 0.96768949E-01 0.15376734E+04</pdfrwt>
<totfact> 0.68731742E-01</totfact>
</mgrwt>
</event>
<event>
 4    5  0.7289609E-008  0.6878141E+03  0.7818608E-02  0.1005209E+00
         -2   -1    0    0    0  501 -0.00000000000E+00  0.00000000000E+00  0.40280387626E+03  0.40280387627E+03  0.25500000000E-02 0.  1.
          2   -1    0    0  501    0  0.00000000000E+00 -0.00000000000E+00 -0.70314196899E+03  0.70314196899E+03  0.25500000000E-02 0. -1.
    8880023    1    1    2    0    0  0.91057662921E+02 -0.17602990801E+03  0.33550037210E+02  0.68863185938E+03  0.65864270000E+03 0.  1.
    8880022    1    1    2    0    0 -0.91057662921E+02  0.17602990801E+03 -0.33388812993E+03  0.41731398588E+03  0.15294330000E+03 0.  0.
<mgrwt>
<rscale>  0 0.53423888E+03</rscale>
<asrwt>0</asrwt>
<pdfrwt beam="1">  1        2 0.10817569E+00 0.68781410E+03</pdfrwt>
<pdfrwt beam="2">  1       -2 0.61969827E-01 0.68781410E+03</pdfrwt>
<totfact> 0.10008980E+02</totfact>
</mgrwt>
</event>
<event>
 4    5  0.7289609E-008  0.6658464E+03  0.7818608E-02  0.1018834E+00
         -2   -1    0    0    0  501 -0.00000000000E+00  0.00000000000E+00  0.37948960366E+03  0.37948960367E+03  0.25500000000E-02 0.  1.
          2   -1    0    0  501    0  0.00000000000E+00 -0.00000000000E+00 -0.64277736977E+03  0.64277736978E+03  0.25500000000E-02 0. -1.
    8880023    1    1    2    0    0 -0.97560551362E+02 -0.48062289042E+01  0.41939958753E+02  0.66716589198E+03  0.65864270000E+03 0.  1.
    8880022    1    1    2    0    0  0.97560551362E+02  0.48062289042E+01 -0.30522772486E+03  0.35510108147E+03  0.15294330000E+03 0.  0.
<mgrwt>
<rscale>  0 0.48109864E+03</rscale>
<asrwt>0</asrwt>
<pdfrwt beam="1">  1        2 0.98888826E-01 0.66584635E+03</pdfrwt>
<pdfrwt beam="2">  1       -2 0.58383016E-01 0.66584635E+03</pdfrwt>
<totfact> 0.12708257E+02</totfact>
</mgrwt>
</event>
<event>
 4    5  0.7289609E-008  0.1026451E+04  0.7818608E-02  0.9347741E-01
          2   -1    0    0  501    0  0.00000000000E+00  0.00000000000E+00  0.24838263874E+04  0.24838263874E+04  0.25500000000E-02 0. -1.
         -2   -1    0    0    0  501 -0.00000000000E+00 -0.00000000000E+00 -0.80532597461E+03  0.80532597461E+03  0.25500000000E-02 0.  1.
    8880023    1    1    2    0    0  0.70974362888E+03 -0.34066957736E+03 -0.36854782171E+03  0.10906096840E+04  0.65864270000E+03 0.  0.
    8880022    1    1    2    0    0 -0.70974362888E+03  0.34066957736E+03  0.20470482345E+04  0.21985426780E+04  0.15294330000E+03 0.  0.
<mgrwt>
<rscale>  0 0.96504058E+03</rscale>
<asrwt>0</asrwt>
<pdfrwt beam="1">  1        2 0.38212714E+00 0.10264512E+04</pdfrwt>
<pdfrwt beam="2">  1       -2 0.12389630E+00 0.10264512E+04</pdfrwt>
<totfact> 0.17486410E+00</totfact>
</mgrwt>
</event>
<event>
 4    5  0.7289609E-008  0.1273183E+04  0.7818608E-02  0.9089071E-01
         -2   -1    0    0    0  501 -0.00000000000E+00  0.00000000000E+00  0.12801002679E+04  0.12801002679E+04  0.25500000000E-02 0.  1.
          2   -1    0    0  501    0  0.00000000000E+00 -0.00000000000E+00 -0.20685120474E+04  0.20685120474E+04  0.25500000000E-02 0. -1.
    8880023    1    1    2    0    0  0.10707511141E+04 -0.20168626458E+03  0.73447490178E+03  0.14698465516E+04  0.65864270000E+03 0.  0.
    8880022    1    1    2    0    0 -0.10707511141E+04  0.20168626458E+03 -0.15228866813E+04  0.18787657636E+04  0.15294330000E+03 0.  0.
<mgrwt>
<rscale>  0 0.12275586E+04</rscale>
<asrwt>0</asrwt>
<pdfrwt beam="1">  1        2 0.31823262E+00 0.12731832E+04</pdfrwt>
<pdfrwt beam="2">  1       -2 0.19693850E+00 0.12731832E+04</pdfrwt>
<totfact> 0.82102554E-01</totfact>
</mgrwt>
</event>
<event>
 4    5  0.7289609E-008  0.1479586E+04  0.7818608E-02  0.8924187E-01
         -2   -1    0    0    0  501 -0.00000000000E+00  0.00000000000E+00  0.11343366280E+04  0.11343366280E+04  0.25500000000E-02 0.  1.
          2   -1    0    0  501    0  0.00000000000E+00 -0.00000000000E+00 -0.26653061047E+04  0.26653061048E+04  0.25500000000E-02 0. -1.
    8880023    1    1    2    0    0  0.11106485735E+04 -0.72237491862E+03  0.32432883279E+03  0.15147162028E+04  0.65864270000E+03 0.  0.
    8880022    1    1    2    0    0 -0.11106485735E+04  0.72237491862E+03 -0.18552983096E+04  0.22849265300E+04  0.15294330000E+03 0.  0.
<mgrwt>
<rscale>  0 0.14416832E+04</rscale>
<asrwt>0</asrwt>
<pdfrwt beam="1">  1        2 0.41004709E+00 0.14795864E+04</pdfrwt>
<pdfrwt beam="2">  1       -2 0.17451333E+00 0.14795864E+04</pdfrwt>
<totfact> 0.52097561E-01</totfact>
</mgrwt>
</event>
<event>
 4    5  0.7289609E-008  0.1251168E+04  0.7818608E-02  0.9108920E-01
         -2   -1    0    0    0  501 -0.00000000000E+00  0.00000000000E+00  0.76664763380E+03  0.76664763380E+03  0.25500000000E-02 0.  1.
          2   -1    0    0  501    0  0.00000000000E+00 -0.00000000000E+00 -0.27367004735E+04  0.27367004735E+04  0.25500000000E-02 0. -1.
    8880023    1    1    2    0    0  0.64355345934E+03  0.84702455937E+03  0.91290638956E+01  0.12512015047E+04  0.65864270000E+03 0.  0.
    8880022    1    1    2    0    0 -0.64355345934E+03 -0.84702455937E+03 -0.19791819036E+04  0.22521466026E+04  0.15294330000E+03 0.  0.
<mgrwt>
<rscale>  0 0.12045080E+04</rscale>
<asrwt>0</asrwt>
<pdfrwt beam="1">  1        2 0.42103084E+00 0.12511682E+04</pdfrwt>
<pdfrwt beam="2">  1       -2 0.11794579E+00 0.12511682E+04</pdfrwt>
<totfact> 0.13680700E+00</totfact>
</mgrwt>
</event>
<event>
 4    5  0.7289609E-008  0.1752788E+04  0.7818608E-02  0.8749112E-01
         -2   -1    0    0    0  501 -0.00000000000E+00  0.00000000000E+00  0.11363091603E+04  0.11363091603E+04  0.25500000000E-02 0.  1.
          2   -1    0    0  501    0  0.00000000000E+00 -0.00000000000E+00 -0.32734396607E+04  0.32734396607E+04  0.25500000000E-02 0. -1.
    8880023    1    1    2    0    0  0.15154827866E+04 -0.58460742832E+03 -0.21553986457E+04  0.27781302075E+04  0.65864270000E+03 0.  0.
    8880022    1    1    2    0    0 -0.15154827866E+04  0.58460742832E+03  0.18268145332E+02  0.16316186135E+04  0.15294330000E+03 0.  0.
<mgrwt>
<rscale>  0 0.17216498E+04</rscale>
<asrwt>0</asrwt>
<pdfrwt beam="1">  1        2 0.50360610E+00 0.17527875E+04</pdfrwt>
<pdfrwt beam="2">  1       -2 0.17481680E+00 0.17527875E+04</pdfrwt>
<totfact> 0.21034941E-01</totfact>
</mgrwt>
</event>
<event>
 4    5  0.7289609E-008  0.1056143E+04  0.7818608E-02  0.9311532E-01
          2   -1    0    0  501    0  0.00000000000E+00  0.00000000000E+00  0.60273579768E+03  0.60273579768E+03  0.25500000000E-02 0. -1.
         -2   -1    0    0    0  501 -0.00000000000E+00 -0.00000000000E+00 -0.29519099112E+04  0.29519099112E+04  0.25500000000E-02 0.  1.
    8880023    1    1    2    0    0 -0.72400527013E+03 -0.39679343374E+03 -0.24886526830E+04  0.27034849811E+04  0.65864270000E+03 0.  1.
    8880022    1    1    2    0    0  0.72400527013E+03  0.39679343374E+03  0.13947856943E+03  0.85116072782E+03  0.15294330000E+03 0.  0.
<mgrwt>
<rscale>  0 0.99728060E+03</rscale>
<asrwt>0</asrwt>
<pdfrwt beam="1">  1        2 0.92728586E-01 0.10561434E+04</pdfrwt>
<pdfrwt beam="2">  1       -2 0.45413998E+00 0.10561434E+04</pdfrwt>
<totfact> 0.16245120E-01</totfact>
</mgrwt>
</event>
<event>
 4    5  0.7289609E-008  0.9482019E+03  0.7818608E-02  0.9452706E-01
         -2   -1    0    0    0  501 -0.00000000000E+00  0.00000000000E+00  0.24911264851E+04  0.24911264851E+04  0.25500000000E-02 0.  1.
          2   -1    0    0  501    0  0.00000000000E+00 -0.00000000000E+00 -0.63478075519E+03  0.63478075519E+03  0.25500000000E-02 0. -1.
    8880023    1    1    2    0    0 -0.20240914815E+03  0.65138863581E+03  0.21636448423E+04  0.23622967273E+04  0.65864270000E+03 0.  1.
    8880022    1    1    2    0    0  0.20240914815E+03 -0.65138863581E+03 -0.30729911234E+03  0.76361051300E+03  0.15294330000E+03 0.  0.
<mgrwt>
<rscale>  0 0.87862262E+03</rscale>
<asrwt>0</asrwt>
<pdfrwt beam="1">  1        2 0.97658577E-01 0.94820189E+03</pdfrwt>
<pdfrwt beam="2">  1       -2 0.38325023E+00 0.94820189E+03</pdfrwt>
<totfact> 0.45289996E-01</totfact>
</mgrwt>
</event>
<event>
 4    5  0.7289609E-008  0.1041349E+04  0.7818608E-02  0.9329353E-01
         -2   -1    0    0    0  501 -0.00000000000E+00  0.00000000000E+00  0.16138041724E+04  0.16138041724E+04  0.25500000000E-02 0.  1.
          2   -1    0    0  501    0  0.00000000000E+00 -0.00000000000E+00 -0.84459833972E+03  0.84459833973E+03  0.25500000000E-02 0. -1.
    8880023    1    1    2    0    0 -0.16207516165E+03  0.79014567332E+03  0.11517177927E+04  0.15526952770E+04  0.65864270000E+03 0.  0.
    8880022    1    1    2    0    0  0.16207516165E+03 -0.79014567332E+03 -0.38251196002E+03  0.90570723507E+03  0.15294330000E+03 0.  0.
<mgrwt>
<rscale>  0 0.98124866E+03</rscale>
<asrwt>0</asrwt>
<pdfrwt beam="1">  1        2 0.12993821E+00 0.10413495E+04</pdfrwt>
<pdfrwt beam="2">  1       -2 0.24827756E+00 0.10413495E+04</pdfrwt>
<totfact> 0.20920381E+00</totfact>
</mgrwt>
</event>
<event>
 4    5  0.7289609E-008  0.1057335E+04  0.7818608E-02  0.9310115E-01
         -2   -1    0    0    0  501 -0.00000000000E+00  0.00000000000E+00  0.97673588198E+03  0.97673588198E+03  0.25500000000E-02 0.  1.
          2   -1    0    0  501    0  0.00000000000E+00 -0.00000000000E+00 -0.13176375394E+04  0.13176375394E+04  0.25500000000E-02 0. -1.
    8880023    1    1    2    0    0 -0.81890209057E+03  0.11639018727E+03 -0.80937891036E+03  0.13315598884E+04  0.65864270000E+03 0. -1.
    8880022    1    1    2    0    0  0.81890209057E+03 -0.11639018727E+03  0.46847725297E+03  0.96281353294E+03  0.15294330000E+03 0.  0.
<mgrwt>
<rscale>  0 0.99856947E+03</rscale>
<asrwt>0</asrwt>
<pdfrwt beam="1">  1        2 0.20271347E+00 0.10573351E+04</pdfrwt>
<pdfrwt beam="2">  1       -2 0.15026706E+00 0.10573351E+04</pdfrwt>
<totfact> 0.47458807E+00</totfact>
</mgrwt>
</event>
<event>
 4    5  0.7289609E-008  0.7705355E+03  0.7818608E-02  0.9778558E-01
         -2   -1    0    0    0  501 -0.00000000000E+00  0.00000000000E+00  0.29635797711E+03  0.29635797713E+03  0.25500000000E-02 0.  1.
          2   -1    0    0  501    0  0.00000000000E+00 -0.00000000000E+00 -0.32760301223E+04  0.32760301223E+04  0.25500000000E-02 0. -1.
    8880023    1    1    2    0    0  0.37037986583E+03  0.15077623732E+03 -0.25108115279E+03  0.81041142039E+03  0.65864270000E+03 0.  1.
    8880022    1    1    2    0    0 -0.37037986583E+03 -0.15077623732E+03 -0.27285909924E+04  0.27619766790E+04  0.15294330000E+03 0.  0.
<mgrwt>
<rscale>  0 0.66526040E+03</rscale>
<asrwt>0</asrwt>
<pdfrwt beam="1">  1        2 0.50400461E+00 0.77053548E+03</pdfrwt>
<pdfrwt beam="2">  1       -2 0.45593537E-01 0.77053548E+03</pdfrwt>
<totfact> 0.56446911E+00</totfact>
</mgrwt>
</event>
<event>
 4    5  0.7289609E-008  0.7389105E+03  0.7818608E-02  0.9863132E-01
          2   -1    0    0  501    0  0.00000000000E+00  0.00000000000E+00  0.48055552222E+03  0.48055552223E+03  0.25500000000E-02 0. -1.
         -2   -1    0    0    0  501 -0.00000000000E+00 -0.00000000000E+00 -0.77750911410E+03  0.77750911410E+03  0.25500000000E-02 0.  1.
    8880023    1    1    2    0    0  0.33087240821E+03  0.51980171145E+02  0.64982683225E+02  0.74176239059E+03  0.65864270000E+03 0.  1.
    8880022    1    1    2    0    0 -0.33087240821E+03 -0.51980171145E+02 -0.36193627510E+03  0.51630224574E+03  0.15294330000E+03 0.  1.
<mgrwt>
<rscale>  0 0.62081811E+03</rscale>
<asrwt>0</asrwt>
<pdfrwt beam="1">  1        2 0.73931619E-01 0.73891048E+03</pdfrwt>
<pdfrwt beam="2">  1       -2 0.11961679E+00 0.73891048E+03</pdfrwt>
<totfact> 0.34956510E+01</totfact>
</mgrwt>
</event>
<event>
 4    5  0.7289609E-008  0.8813776E+03  0.7818608E-02  0.9556613E-01
          2   -1    0    0  501    0  0.00000000000E+00  0.00000000000E+00  0.74222654680E+03  0.74222654681E+03  0.25500000000E-02 0. -1.
         -2   -1    0    0    0  501 -0.00000000000E+00 -0.00000000000E+00 -0.23924963251E+04  0.23924963251E+04  0.25500000000E-02 0.  1.
    8880023    1    1    2    0    0 -0.48514619137E+03  0.32809985162E+03 -0.21666595227E+04  0.23390681976E+04  0.65864270000E+03 0.  0.
    8880022    1    1    2    0    0  0.48514619137E+03 -0.32809985162E+03  0.51638974437E+03  0.79565467430E+03  0.15294330000E+03 0.  0.
<mgrwt>
<rscale>  0 0.80235606E+03</rscale>
<asrwt>0</asrwt>
<pdfrwt beam="1">  1        2 0.11418870E+00 0.88137764E+03</pdfrwt>
<pdfrwt beam="2">  1       -2 0.36807635E+00 0.88137764E+03</pdfrwt>
<totfact> 0.46955284E-01</totfact>
</mgrwt>
</event>
<event>
 4    5  0.7289609E-008  0.7319679E+03  0.7818608E-02  0.9883994E-01
         -2   -1    0    0    0  501 -0.00000000000E+00  0.00000000000E+00  0.43733986847E+03  0.43733986848E+03  0.25500000000E-02 0.  1.
          2   -1    0    0  501    0  0.00000000000E+00 -0.00000000000E+00 -0.89169113373E+03  0.89169113374E+03  0.25500000000E-02 0. -1.
    8880023    1    1    2    0    0 -0.23419478022E+03  0.21707044175E+03  0.25838033056E+02  0.73242377213E+03  0.65864270000E+03 0.  0.
    8880022    1    1    2    0    0  0.23419478022E+03 -0.21707044175E+03 -0.48018929832E+03  0.59660723009E+03  0.15294330000E+03 0.  0.
<mgrwt>
<rscale>  0 0.61043329E+03</rscale>
<asrwt>0</asrwt>
<pdfrwt beam="1">  1        2 0.13718325E+00 0.73196788E+03</pdfrwt>
<pdfrwt beam="2">  1       -2 0.67283057E-01 0.73196788E+03</pdfrwt>
<totfact> 0.61127353E+01</totfact>
</mgrwt>
</event>
<event>
 4    5  0.7289609E-008  0.1361120E+04  0.7818608E-02  0.9014498E-01
          2   -1    0    0  501    0  0.00000000000E+00  0.00000000000E+00  0.18458696552E+04  0.18458696552E+04  0.25500000000E-02 0. -1.
         -2   -1    0    0    0  501 -0.00000000000E+00 -0.00000000000E+00 -0.15872918729E+04  0.15872918729E+04  0.25500000000E-02 0.  1.
    8880023    1    1    2    0    0 -0.10518740052E+04  0.55892620515E+03 -0.10034723620E+04  0.16910364908E+04  0.65864270000E+03 0.  0.
    8880022    1    1    2    0    0  0.10518740052E+04 -0.55892620515E+03  0.12620501443E+04  0.17421250372E+04  0.15294330000E+03 0.  0.
<mgrwt>
<rscale>  0 0.13191725E+04</rscale>
<asrwt>0</asrwt>
<pdfrwt beam="1">  1        2 0.28397995E+00 0.13611200E+04</pdfrwt>
<pdfrwt beam="2">  1       -2 0.24419875E+00 0.13611200E+04</pdfrwt>
<totfact> 0.54093301E-01</totfact>
</mgrwt>
</event>
<event>
 4    5  0.7289609E-008  0.1083315E+04  0.7818608E-02  0.9279864E-01
         -2   -1    0    0    0  501 -0.00000000000E+00  0.00000000000E+00  0.46209269933E+03  0.46209269933E+03  0.25500000000E-02 0.  1.
          2   -1    0    0  501    0  0.00000000000E+00 -0.00000000000E+00 -0.32721947722E+04  0.32721947722E+04  0.25500000000E-02 0. -1.
    8880023    1    1    2    0    0 -0.23712152410E+03 -0.82676132071E+03 -0.37362623443E+03  0.11459352809E+04  0.65864270000E+03 0.  0.
    8880022    1    1    2    0    0  0.23712152410E+03  0.82676132071E+03 -0.24364758385E+04  0.25883521907E+04  0.15294330000E+03 0.  0.
<mgrwt>
<rscale>  0 0.10265792E+04</rscale>
<asrwt>0</asrwt>
<pdfrwt beam="1">  1        2 0.50341456E+00 0.10833149E+04</pdfrwt>
<pdfrwt beam="2">  1       -2 0.71091187E-01 0.10833149E+04</pdfrwt>
<totfact> 0.21225231E+00</totfact>
</mgrwt>
</event>
<event>
 4    5  0.7289609E-008  0.2176028E+04  0.7818608E-02  0.8538888E-01
          2   -1    0    0  501    0  0.00000000000E+00  0.00000000000E+00  0.30605527548E+04  0.30605527548E+04  0.25500000000E-02 0. -1.
         -2   -1    0    0    0  501 -0.00000000000E+00 -0.00000000000E+00 -0.16534401291E+04  0.16534401291E+04  0.25500000000E-02 0.  1.
    8880023    1    1    2    0    0  0.77171830276E+03 -0.19250289879E+04 -0.46857892134E+02  0.21765320147E+04  0.65864270000E+03 0.  1.
    8880022    1    1    2    0    0 -0.77171830276E+03  0.19250289879E+04  0.14539705179E+04  0.25374608692E+04  0.15294330000E+03 0.  0.
<mgrwt>
<rscale>  0 0.21515057E+04</rscale>
<asrwt>0</asrwt>
<pdfrwt beam="1">  1        2 0.47085427E+00 0.21760276E+04</pdfrwt>
<pdfrwt beam="2">  1       -2 0.25437541E+00 0.21760276E+04</pdfrwt>
<totfact> 0.84049790E-02</totfact>
</mgrwt>
</event>
<event>
 4    5  0.7289609E-008  0.1043200E+04  0.7818608E-02  0.9327101E-01
          2   -1    0    0  501    0  0.00000000000E+00  0.00000000000E+00  0.17312029517E+04  0.17312029517E+04  0.25500000000E-02 0. -1.
         -2   -1    0    0    0  501 -0.00000000000E+00 -0.00000000000E+00 -0.92110067851E+03  0.92110067851E+03  0.25500000000E-02 0.  1.
    8880023    1    1    2    0    0  0.77507526570E+03 -0.23176145070E+03 -0.45885689302E+03  0.11396556024E+04  0.65864270000E+03 0.  0.
    8880022    1    1    2    0    0 -0.77507526570E+03  0.23176145070E+03  0.12689591662E+04  0.15126480278E+04  0.15294330000E+03 0.  0.
<mgrwt>
<rscale>  0 0.98325683E+03</rscale>
<asrwt>0</asrwt>
<pdfrwt beam="1">  1        2 0.26633892E+00 0.10431995E+04</pdfrwt>
<pdfrwt beam="2">  1       -2 0.14170780E+00 0.10431995E+04</pdfrwt>
<totfact> 0.32451006E+00</totfact>
</mgrwt>
</event>
<event>
 4    5  0.7289609E-008  0.8884562E+03  0.7818608E-02  0.9544823E-01
          2   -1    0    0  501    0  0.00000000000E+00  0.00000000000E+00  0.50510553155E+03  0.50510553155E+03  0.25500000000E-02 0. -1.
         -2   -1    0    0    0  501 -0.00000000000E+00 -0.00000000000E+00 -0.17745266157E+04  0.17745266157E+04  0.25500000000E-02 0.  1.
    8880023    1    1    2    0    0 -0.49197747508E+03 -0.33690106165E+03 -0.13925776930E+04  0.16518556228E+04  0.65864270000E+03 0.  0.
    8880022    1    1    2    0    0  0.49197747508E+03  0.33690106165E+03  0.12315660883E+03  0.62777652444E+03  0.15294330000E+03 0.  0.
<mgrwt>
<rscale>  0 0.81058341E+03</rscale>
<asrwt>0</asrwt>
<pdfrwt beam="1">  1        2 0.77708544E-01 0.88845617E+03</pdfrwt>
<pdfrwt beam="2">  1       -2 0.27300409E+00 0.88845617E+03</pdfrwt>
<totfact> 0.28723379E+00</totfact>
</mgrwt>
</event>
<event>
 4    5  0.7289609E-008  0.8065826E+03  0.7818608E-02  0.9696740E-01
          2   -1    0    0  501    0  0.00000000000E+00  0.00000000000E+00  0.28546149119E+04  0.28546149119E+04  0.25500000000E-02 0. -1.
         -2   -1    0    0    0  501 -0.00000000000E+00 -0.00000000000E+00 -0.27059462995E+03  0.27059462996E+03  0.25500000000E-02 0.  1.
    8880023    1    1    2    0    0  0.37379980813E+03  0.27755895659E+03  0.42584798619E+03  0.91209757403E+03  0.65864270000E+03 0.  1.
    8880022    1    1    2    0    0 -0.37379980813E+03 -0.27755895659E+03  0.21581722958E+04  0.22131119679E+04  0.15294330000E+03 0.  0.
<mgrwt>
<rscale>  0 0.71211236E+03</rscale>
<asrwt>0</asrwt>
<pdfrwt beam="1">  1        2 0.43917151E+00 0.80658259E+03</pdfrwt>
<pdfrwt beam="2">  1       -2 0.41629944E-01 0.80658259E+03</pdfrwt>
<totfact> 0.12273109E+01</totfact>
</mgrwt>
</event>
<event>
 4    5  0.7289609E-008  0.7472000E+03  0.7818608E-02  0.9839449E-01
         -2   -1    0    0    0  501 -0.00000000000E+00  0.00000000000E+00  0.26839790123E+03  0.26839790124E+03  0.25500000000E-02 0.  1.
          2   -1    0    0  501    0  0.00000000000E+00 -0.00000000000E+00 -0.14106160955E+04  0.14106160955E+04  0.25500000000E-02 0. -1.
    8880023    1    1    2    0    0 -0.16424832454E+03  0.31228214276E+03 -0.10409133542E+04  0.12813307403E+04  0.65864270000E+03 0.  1.
    8880022    1    1    2    0    0  0.16424832454E+03 -0.31228214276E+03 -0.10130484002E+03  0.39768325641E+03  0.15294330000E+03 0.  0.
<mgrwt>
<rscale>  0 0.63287763E+03</rscale>
<asrwt>0</asrwt>
<pdfrwt beam="1">  1        2 0.21701786E+00 0.74720001E+03</pdfrwt>
<pdfrwt beam="2">  1       -2 0.41291985E-01 0.74720001E+03</pdfrwt>
<totfact> 0.80757274E+01</totfact>
</mgrwt>
</event>
<event>
 4    5  0.7289609E-008  0.1424429E+04  0.7818608E-02  0.8964930E-01
         -2   -1    0    0    0  501 -0.00000000000E+00  0.00000000000E+00  0.15791833698E+04  0.15791833698E+04  0.25500000000E-02 0.  1.
          2   -1    0    0  501    0  0.00000000000E+00 -0.00000000000E+00 -0.13540423061E+04  0.13540423061E+04  0.25500000000E-02 0. -1.
    8880023    1    1    2    0    0 -0.84009368911E+03  0.94309605338E+03  0.68481343153E+03  0.15804958762E+04  0.65864270000E+03 0.  0.
    8880022    1    1    2    0    0  0.84009368911E+03 -0.94309605338E+03 -0.45967236782E+03  0.13527297998E+04  0.15294330000E+03 0.  0.
<mgrwt>
<rscale>  0 0.13847531E+04</rscale>
<asrwt>0</asrwt>
<pdfrwt beam="1">  1        2 0.20831420E+00 0.14244289E+04</pdfrwt>
<pdfrwt beam="2">  1       -2 0.24295129E+00 0.14244289E+04</pdfrwt>
<totfact> 0.10364500E+00</totfact>
</mgrwt>
</event>
<event>
 4    5  0.7289609E-008  0.1149530E+04  0.7818608E-02  0.9207816E-01
         -2   -1    0    0    0  501 -0.00000000000E+00  0.00000000000E+00  0.88343116237E+03  0.88343116237E+03  0.25500000000E-02 0.  1.
          2   -1    0    0  501    0  0.00000000000E+00 -0.00000000000E+00 -0.40352415729E+04  0.40352415729E+04  0.25500000000E-02 0. -1.
    8880023    1    1    2    0    0  0.33800733308E+03 -0.87940918032E+03  0.41822723986E+03  0.12232471925E+04  0.65864270000E+03 0.  0.
    8880022    1    1    2    0    0 -0.33800733308E+03  0.87940918032E+03 -0.35700376504E+04  0.36954255427E+04  0.15294330000E+03 0.  0.
<mgrwt>
<rscale>  0 0.10973121E+04</rscale>
<asrwt>0</asrwt>
<pdfrwt beam="1">  1        2 0.62080638E+00 0.11495302E+04</pdfrwt>
<pdfrwt beam="2">  1       -2 0.13591249E+00 0.11495302E+04</pdfrwt>
<totfact> 0.12658256E-01</totfact>
</mgrwt>
</event>
<event>
 4    5  0.7289609E-008  0.2207204E+04  0.7818608E-02  0.8525514E-01
          2   -1    0    0  501    0  0.00000000000E+00  0.00000000000E+00  0.25513486279E+04  0.25513486279E+04  0.25500000000E-02 0. -1.
         -2   -1    0    0    0  501 -0.00000000000E+00 -0.00000000000E+00 -0.20355725882E+04  0.20355725882E+04  0.25500000000E-02 0.  1.
    8880023    1    1    2    0    0  0.20415527331E+04  0.51961573632E+03  0.99490987828E+03  0.24210728918E+04  0.65864270000E+03 0.  0.
    8880022    1    1    2    0    0 -0.20415527331E+04 -0.51961573632E+03 -0.47913383850E+03  0.21658483242E+04  0.15294330000E+03 0.  0.
<mgrwt>
<rscale>  0 0.21830559E+04</rscale>
<asrwt>0</asrwt>
<pdfrwt beam="1">  1        2 0.39251517E+00 0.22072037E+04</pdfrwt>
<pdfrwt beam="2">  1       -2 0.31316501E+00 0.22072037E+04</pdfrwt>
<totfact> 0.74438329E-02</totfact>
</mgrwt>
</event>
<event>
 4    5  0.8699604E-008  0.8082693E+03  0.7818608E-02  0.9693193E-01
         -2   -1    0    0    0  501 -0.00000000000E+00  0.00000000000E+00  0.11795885847E+04  0.11795885847E+04  0.25500000000E-02 0.  1.
          2   -1    0    0  501    0  0.00000000000E+00 -0.00000000000E+00 -0.19522837698E+04  0.19522837698E+04  0.25500000000E-02 0. -1.
    8880023    1    1    2    0    0  0.43493715464E+03 -0.17412271748E+03  0.10035246306E+04  0.12885499368E+04  0.65864270000E+03 0.  1.
    8880022    1    1    2    0    0 -0.43493715464E+03  0.17412271748E+03 -0.17762198156E+04  0.18433224177E+04  0.15294330000E+03 0.  0.
<mgrwt>
<rscale>  0 0.71423510E+03</rscale>
<asrwt>0</asrwt>
<pdfrwt beam="1">  1        2 0.30035135E+00 0.80826930E+03</pdfrwt>
<pdfrwt beam="2">  1       -2 0.18147517E+00 0.80826930E+03</pdfrwt>
<totfact> 0.12939764E+00</totfact>
</mgrwt>
</event>
<event>
 4    5  0.7289609E-008  0.1017519E+04  0.7818608E-02  0.9358988E-01
         -2   -1    0    0    0  501 -0.00000000000E+00  0.00000000000E+00  0.43177284993E+03  0.43177284994E+03  0.25500000000E-02 0.  1.
          2   -1    0    0  501    0  0.00000000000E+00 -0.00000000000E+00 -0.28598037851E+04  0.28598037851E+04  0.25500000000E-02 0. -1.
    8880023    1    1    2    0    0  0.60237327720E+03  0.48854972632E+03 -0.36287466493E+03  0.10802882157E+04  0.65864270000E+03 0.  0.
    8880022    1    1    2    0    0 -0.60237327720E+03 -0.48854972632E+03 -0.20651562703E+04  0.22112884194E+04  0.15294330000E+03 0.  0.
<mgrwt>
<rscale>  0 0.95529043E+03</rscale>
<asrwt>0</asrwt>
<pdfrwt beam="1">  1        2 0.43996980E+00 0.10175188E+04</pdfrwt>
<pdfrwt beam="2">  1       -2 0.66426594E-01 0.10175188E+04</pdfrwt>
<totfact> 0.45029303E+00</totfact>
</mgrwt>
</event>
<event>
 4    5  0.7289609E-008  0.1082972E+04  0.7818608E-02  0.9280255E-01
          2   -1    0    0  501    0  0.00000000000E+00  0.00000000000E+00  0.17536395395E+04  0.17536395395E+04  0.25500000000E-02 0. -1.
         -2   -1    0    0    0  501 -0.00000000000E+00 -0.00000000000E+00 -0.77973002934E+03  0.77973002934E+03  0.25500000000E-02 0.  1.
    8880023    1    1    2    0    0  0.34904411819E+03 -0.78561254985E+03 -0.16795488800E+03  0.10959187587E+04  0.65864270000E+03 0.  0.
    8880022    1    1    2    0    0 -0.34904411819E+03  0.78561254985E+03  0.11418643982E+04  0.14374508102E+04  0.15294330000E+03 0.  0.
<mgrwt>
<rscale>  0 0.10262109E+04</rscale>
<asrwt>0</asrwt>
<pdfrwt beam="1">  1        2 0.26979070E+00 0.10829723E+04</pdfrwt>
<pdfrwt beam="2">  1       -2 0.11995847E+00 0.10829723E+04</pdfrwt>
<totfact> 0.48023807E+00</totfact>
</mgrwt>
</event>
<event>
 4    5  0.7289609E-008  0.1590357E+04  0.7818608E-02  0.8848334E-01
          2   -1    0    0  501    0  0.00000000000E+00  0.00000000000E+00  0.18786627966E+04  0.18786627966E+04  0.25500000000E-02 0. -1.
         -2   -1    0    0    0  501 -0.00000000000E+00 -0.00000000000E+00 -0.20070119543E+04  0.20070119543E+04  0.25500000000E-02 0.  1.
    8880023    1    1    2    0    0 -0.10234180848E+04 -0.10237378031E+04 -0.12704329471E+04  0.20354934893E+04  0.65864270000E+03 0.  0.
    8880022    1    1    2    0    0  0.10234180848E+04  0.10237378031E+04  0.11420837894E+04  0.18501812616E+04  0.15294330000E+03 0.  0.
<mgrwt>
<rscale>  0 0.15555447E+04</rscale>
<asrwt>0</asrwt>
<pdfrwt beam="1">  1        2 0.28902505E+00 0.15903565E+04</pdfrwt>
<pdfrwt beam="2">  1       -2 0.30877107E+00 0.15903565E+04</pdfrwt>
<totfact> 0.20353617E-01</totfact>
</mgrwt>
</event>
<event>
 4    5  0.7557690E-008  0.1083495E+04  0.7818608E-02  0.9279658E-01
          2   -1    0    0  501    0  0.00000000000E+00  0.00000000000E+00  0.16927266561E+04  0.16927266561E+04  0.25500000000E-02 0. -1.
         -2   -1    0    0    0  501 -0.00000000000E+00 -0.00000000000E+00 -0.18619611619E+04  0.18619611619E+04  0.25500000000E-02 0.  1.
    8880023    1    1    2    0    0 -0.31067029498E+03 -0.80226906528E+03 -0.15676914126E+04  0.19056805232E+04  0.65864270000E+03 0.  1.
    8880022    1    1    2    0    0  0.31067029498E+03  0.80226906528E+03  0.13984569068E+04  0.16490072948E+04  0.15294330000E+03 0.  0.
<mgrwt>
<rscale>  0 0.10267731E+04</rscale>
<asrwt>0</asrwt>
<pdfrwt beam="1">  1        2 0.26041948E+00 0.10834952E+04</pdfrwt>
<pdfrwt beam="2">  1       -2 0.28645557E+00 0.10834952E+04</pdfrwt>
<totfact> 0.37740339E-01</totfact>
</mgrwt>
</event>
<event>
 4    5  0.1056345E-007  0.2830824E+04  0.7818608E-02  0.8299466E-01
         -2   -1    0    0    0  501 -0.00000000000E+00  0.00000000000E+00  0.25620520669E+04  0.25620520669E+04  0.25500000000E-02 0.  1.
          2   -1    0    0  501    0  0.00000000000E+00 -0.00000000000E+00 -0.42061125408E+04  0.42061125409E+04  0.25500000000E-02 0. -1.
    8880023    1    1    2    0    0  0.27265759916E+04  0.38149092079E+03  0.94639472156E+03  0.29848325138E+04  0.65864270000E+03 0.  0.
    8880022    1    1    2    0    0 -0.27265759916E+04 -0.38149092079E+03 -0.25904551955E+04  0.37833320940E+04  0.15294330000E+03 0.  0.
<mgrwt>
<rscale>  0 0.28122813E+04</rscale>
<asrwt>0</asrwt>
<pdfrwt beam="1">  1        2 0.64709423E+00 0.28308236E+04</pdfrwt>
<pdfrwt beam="2">  1       -2 0.39416186E+00 0.28308236E+04</pdfrwt>
<totfact> 0.14922265E-03</totfact>
</mgrwt>
</event>
<event>
 4    5  0.7289609E-008  0.1488056E+04  0.7818608E-02  0.8918116E-01
          2   -1    0    0  501    0  0.00000000000E+00  0.00000000000E+00  0.16166879442E+04  0.16166879442E+04  0.25500000000E-02 0. -1.
         -2   -1    0    0    0  501 -0.00000000000E+00 -0.00000000000E+00 -0.19775192863E+04  0.19775192863E+04  0.25500000000E-02 0.  1.
    8880023    1    1    2    0    0  0.34359580507E+03 -0.12893578748E+04 -0.12831789705E+04  0.19649071946E+04  0.65864270000E+03 0.  0.
    8880022    1    1    2    0    0 -0.34359580507E+03  0.12893578748E+04  0.92234762834E+03  0.16293000360E+04  0.15294330000E+03 0.  0.
<mgrwt>
<rscale>  0 0.14504104E+04</rscale>
<asrwt>0</asrwt>
<pdfrwt beam="1">  1        2 0.24872122E+00 0.14880565E+04</pdfrwt>
<pdfrwt beam="2">  1       -2 0.30423374E+00 0.14880565E+04</pdfrwt>
<totfact> 0.30759389E-01</totfact>
</mgrwt>
</event>
<event>
 4    5  0.7289609E-008  0.1072794E+04  0.7818608E-02  0.9291969E-01
         -2   -1    0    0    0  501 -0.00000000000E+00  0.00000000000E+00  0.13737311560E+04  0.13737311560E+04  0.25500000000E-02 0.  1.
          2   -1    0    0  501    0  0.00000000000E+00 -0.00000000000E+00 -0.99955146406E+03  0.99955146406E+03  0.25500000000E-02 0. -1.
    8880023    1    1    2    0    0  0.56295743235E+03 -0.63257861863E+03  0.86904877995E+03  0.13806276716E+04  0.65864270000E+03 0.  1.
    8880022    1    1    2    0    0 -0.56295743235E+03  0.63257861863E+03 -0.49486908803E+03  0.99265494845E+03  0.15294330000E+03 0.  0.
<mgrwt>
<rscale>  0 0.10152560E+04</rscale>
<asrwt>0</asrwt>
<pdfrwt beam="1">  1        2 0.15377715E+00 0.10727940E+04</pdfrwt>
<pdfrwt beam="2">  1       -2 0.21134325E+00 0.10727940E+04</pdfrwt>
<totfact> 0.27870443E+00</totfact>
</mgrwt>
</event>
<event>
 4    5  0.7289609E-008  0.1225421E+04  0.7818608E-02  0.9132799E-01
         -2   -1    0    0    0  501 -0.00000000000E+00  0.00000000000E+00  0.11297899699E+04  0.11297899699E+04  0.25500000000E-02 0.  1.
          2   -1    0    0  501    0  0.00000000000E+00 -0.00000000000E+00 -0.17150562251E+04  0.17150562251E+04  0.25500000000E-02 0. -1.
    8880023    1    1    2    0    0  0.92861418439E+03  0.45334455455E+03  0.51358763894E+03  0.13286941174E+04  0.65864270000E+03 0.  0.
    8880022    1    1    2    0    0 -0.92861418439E+03 -0.45334455455E+03 -0.10988538941E+04  0.15161520775E+04  0.15294330000E+03 0.  0.
<mgrwt>
<rscale>  0 0.11774807E+04</rscale>
<asrwt>0</asrwt>
<pdfrwt beam="1">  1        2 0.26385480E+00 0.12254207E+04</pdfrwt>
<pdfrwt beam="2">  1       -2 0.17381384E+00 0.12254207E+04</pdfrwt>
<totfact> 0.18652437E+00</totfact>
</mgrwt>
</event>
<event>
 4    5  0.7345492E-008  0.7685811E+03  0.7818608E-02  0.9783378E-01
          2   -1    0    0  501    0  0.00000000000E+00  0.00000000000E+00  0.24920913865E+04  0.24920913865E+04  0.25500000000E-02 0. -1.
         -2   -1    0    0    0  501 -0.00000000000E+00 -0.00000000000E+00 -0.11242044372E+04  0.11242044372E+04  0.25500000000E-02 0.  1.
    8880023    1    1    2    0    0  0.38541783042E+03 -0.91432276663E+02 -0.97145734267E+03  0.12387277102E+04  0.65864270000E+03 0.  1.
    8880022    1    1    2    0    0 -0.38541783042E+03  0.91432276663E+02  0.23393442919E+04  0.23775681135E+04  0.15294330000E+03 0.  0.
<mgrwt>
<rscale>  0 0.66262266E+03</rscale>
<asrwt>0</asrwt>
<pdfrwt beam="1">  1        2 0.38339868E+00 0.76858114E+03</pdfrwt>
<pdfrwt beam="2">  1       -2 0.17295453E+00 0.76858114E+03</pdfrwt>
<totfact> 0.75030982E-01</totfact>
</mgrwt>
</event>
<event>
 4    5  0.7289609E-008  0.6699655E+03  0.7818608E-02  0.1015688E+00
          2   -1    0    0  501    0  0.00000000000E+00  0.00000000000E+00  0.22996455510E+04  0.22996455510E+04  0.25500000000E-02 0. -1.
         -2   -1    0    0    0  501 -0.00000000000E+00 -0.00000000000E+00 -0.90892524896E+03  0.90892524897E+03  0.25500000000E-02 0.  1.
    8880023    1    1    2    0    0 -0.60265795617E+02 -0.10682521177E+03 -0.78044846807E+03  0.10285687189E+04  0.65864270000E+03 0.  1.
    8880022    1    1    2    0    0  0.60265795617E+02  0.10682521177E+03  0.21711687701E+04  0.21800020810E+04  0.15294330000E+03 0.  0.
<mgrwt>
<rscale>  0 0.49275444E+03</rscale>
<asrwt>0</asrwt>
<pdfrwt beam="1">  1        2 0.35379162E+00 0.66996552E+03</pdfrwt>
<pdfrwt beam="2">  1       -2 0.13983466E+00 0.66996552E+03</pdfrwt>
<totfact> 0.17373504E+00</totfact>
</mgrwt>
</event>
<event>
 4    5  0.7289609E-008  0.6930669E+03  0.7818608E-02  0.1002728E+00
         -2   -1    0    0    0  501 -0.00000000000E+00  0.00000000000E+00  0.20852861010E+04  0.20852861010E+04  0.25500000000E-02 0.  1.
          2   -1    0    0  501    0  0.00000000000E+00 -0.00000000000E+00 -0.75166975255E+03  0.75166975255E+03  0.25500000000E-02 0. -1.
    8880023    1    1    2    0    0  0.57516929425E+02  0.20790236493E+03  0.20017832313E+04  0.21183668006E+04  0.65864270000E+03 0.  1.
    8880022    1    1    2    0    0 -0.57516929425E+02 -0.20790236493E+03 -0.66816688291E+03  0.71858905290E+03  0.15294330000E+03 0.  0.
<mgrwt>
<rscale>  0 0.54470215E+03</rscale>
<asrwt>0</asrwt>
<pdfrwt beam="1">  1        2 0.11564150E+00 0.69306695E+03</pdfrwt>
<pdfrwt beam="2">  1       -2 0.32081324E+00 0.69306695E+03</pdfrwt>
<totfact> 0.93865616E-01</totfact>
</mgrwt>
</event>
<event>
 4    5  0.7289609E-008  0.7813901E+03  0.7818608E-02  0.9752582E-01
          2   -1    0    0  501    0  0.00000000000E+00  0.00000000000E+00  0.33230752984E+04  0.33230752984E+04  0.25500000000E-02 0. -1.
         -2   -1    0    0    0  501 -0.00000000000E+00 -0.00000000000E+00 -0.31002497831E+03  0.31002497832E+03  0.25500000000E-02 0.  1.
    8880023    1    1    2    0    0 -0.19749353803E+03  0.37115575243E+03  0.23030756566E+03  0.81462388327E+03  0.65864270000E+03 0.  1.
    8880022    1    1    2    0    0  0.19749353803E+03 -0.37115575243E+03  0.27827427544E+04  0.28184763935E+04  0.15294330000E+03 0.  0.
<mgrwt>
<rscale>  0 0.67970569E+03</rscale>
<asrwt>0</asrwt>
<pdfrwt beam="1">  1        2 0.51124237E+00 0.78139011E+03</pdfrwt>
<pdfrwt beam="2">  1       -2 0.47696149E-01 0.78139011E+03</pdfrwt>
<totfact> 0.47947847E+00</totfact>
</mgrwt>
</event>
<event>
 4    5  0.7289609E-008  0.7275596E+03  0.7818608E-02  0.9897790E-01
         -2   -1    0    0    0  501 -0.00000000000E+00  0.00000000000E+00  0.90944821375E+03  0.90944821375E+03  0.25500000000E-02 0.  1.
          2   -1    0    0  501    0  0.00000000000E+00 -0.00000000000E+00 -0.14728584527E+04  0.14728584527E+04  0.25500000000E-02 0. -1.
    8880023    1    1    2    0    0 -0.48713053991E+02  0.30522085955E+03  0.73779002591E+03  0.10361838946E+04  0.65864270000E+03 0.  1.
    8880022    1    1    2    0    0  0.48713053991E+02 -0.30522085955E+03 -0.13012002648E+04  0.13461227719E+04  0.15294330000E+03 0.  0.
<mgrwt>
<rscale>  0 0.60368486E+03</rscale>
<asrwt>0</asrwt>
<pdfrwt beam="1">  1        2 0.22659361E+00 0.72755958E+03</pdfrwt>
<pdfrwt beam="2">  1       -2 0.13991511E+00 0.72755958E+03</pdfrwt>
<totfact> 0.48675984E+00</totfact>
</mgrwt>
</event>
<event>
 4    5  0.7289609E-008  0.7375926E+03  0.7818608E-02  0.9867016E-01
         -2   -1    0    0    0  501 -0.00000000000E+00  0.00000000000E+00  0.24211175228E+03  0.24211175230E+03  0.25500000000E-02 0.  1.
          2   -1    0    0  501    0  0.00000000000E+00 -0.00000000000E+00 -0.34169739335E+04  0.34169739335E+04  0.25500000000E-02 0. -1.
    8880023    1    1    2    0    0  0.15101133921E+03  0.29568270131E+03 -0.36030796093E+03  0.82089263451E+03  0.65864270000E+03 0.  0.
    8880022    1    1    2    0    0 -0.15101133921E+03 -0.29568270131E+03 -0.28145542203E+04  0.28381930513E+04  0.15294330000E+03 0.  0.
<mgrwt>
<rscale>  0 0.61886814E+03</rscale>
<asrwt>0</asrwt>
<pdfrwt beam="1">  1        2 0.52568826E+00 0.73759263E+03</pdfrwt>
<pdfrwt beam="2">  1       -2 0.37247964E-01 0.73759263E+03</pdfrwt>
<totfact> 0.68227982E+00</totfact>
</mgrwt>
</event>
<event>
 4    5  0.7289609E-008  0.1561180E+04  0.7818608E-02  0.8867600E-01
          2   -1    0    0  501    0  0.00000000000E+00  0.00000000000E+00  0.27449363271E+04  0.27449363271E+04  0.25500000000E-02 0. -1.
         -2   -1    0    0    0  501 -0.00000000000E+00 -0.00000000000E+00 -0.10158353227E+04  0.10158353227E+04  0.25500000000E-02 0.  1.
    8880023    1    1    2    0    0  0.13588251015E+04  0.39631860651E+03  0.53604230099E+02  0.15621004174E+04  0.65864270000E+03 0.  0.
    8880022    1    1    2    0    0 -0.13588251015E+04 -0.39631860651E+03  0.16754967743E+04  0.21986712324E+04  0.15294330000E+03 0.  0.
<mgrwt>
<rscale>  0 0.15256080E+04</rscale>
<asrwt>0</asrwt>
<pdfrwt beam="1">  1        2 0.42229789E+00 0.15611804E+04</pdfrwt>
<pdfrwt beam="2">  1       -2 0.15628236E+00 0.15611804E+04</pdfrwt>
<totfact> 0.62929879E-01</totfact>
</mgrwt>
</event>
<event>
 4    5  0.7289609E-008  0.6987693E+03  0.7818608E-02  0.1000235E+00
         -2   -1    0    0    0  501 -0.00000000000E+00  0.00000000000E+00  0.44078413848E+03  0.44078413848E+03  0.25500000000E-02 0.  1.
          2   -1    0    0  501    0  0.00000000000E+00 -0.00000000000E+00 -0.88080447151E+03  0.88080447152E+03  0.25500000000E-02 0. -1.
    8880023    1    1    2    0    0  0.14599653945E+03 -0.18208052580E+03  0.10757258516E+03  0.70700097224E+03  0.65864270000E+03 0.  1.
    8880022    1    1    2    0    0 -0.14599653945E+03  0.18208052580E+03 -0.54759291820E+03  0.61458763776E+03  0.15294330000E+03 0.  0.
<mgrwt>
<rscale>  0 0.55547514E+03</rscale>
<asrwt>0</asrwt>
<pdfrwt beam="1">  1        2 0.13550838E+00 0.69876929E+03</pdfrwt>
<pdfrwt beam="2">  1       -2 0.67812945E-01 0.69876929E+03</pdfrwt>
<totfact> 0.61295028E+01</totfact>
</mgrwt>
</event>
<event>
 4    5  0.7289609E-008  0.8420401E+03  0.7818608E-02  0.9626345E-01
         -2   -1    0    0    0  501 -0.00000000000E+00  0.00000000000E+00  0.39942892141E+03  0.39942892142E+03  0.25500000000E-02 0.  1.
          2   -1    0    0  501    0  0.00000000000E+00 -0.00000000000E+00 -0.21314378865E+04  0.21314378865E+04  0.25500000000E-02 0. -1.
    8880023    1    1    2    0    0 -0.46255907154E+02  0.52257225524E+03 -0.14761087068E+03  0.85488042807E+03  0.65864270000E+03 0.  0.
    8880022    1    1    2    0    0  0.46255907154E+02 -0.52257225524E+03 -0.15843980944E+04  0.16759863799E+04  0.15294330000E+03 0. -1.
<mgrwt>
<rscale>  0 0.75576745E+03</rscale>
<asrwt>0</asrwt>
<pdfrwt beam="1">  1        2 0.32791352E+00 0.84204013E+03</pdfrwt>
<pdfrwt beam="2">  1       -2 0.61450604E-01 0.84204013E+03</pdfrwt>
<totfact> 0.14233921E+01</totfact>
</mgrwt>
</event>
<event>
 4    5  0.7289609E-008  0.7056222E+03  0.7818608E-02  0.9974632E-01
         -2   -1    0    0    0  501 -0.00000000000E+00  0.00000000000E+00  0.81051725795E+03  0.81051725796E+03  0.25500000000E-02 0.  1.
          2   -1    0    0  501    0  0.00000000000E+00 -0.00000000000E+00 -0.94117009001E+03  0.94117009001E+03  0.25500000000E-02 0. -1.
    8880023    1    1    2    0    0  0.96957963094E+02 -0.23386239856E+03  0.62348943430E+03  0.94161656157E+03  0.65864270000E+03 0.  1.
    8880022    1    1    2    0    0 -0.96957963094E+02  0.23386239856E+03 -0.75414226635E+03  0.81007078640E+03  0.15294330000E+03 0.  0.
<mgrwt>
<rscale>  0 0.56776723E+03</rscale>
<asrwt>0</asrwt>
<pdfrwt beam="1">  1        2 0.14479540E+00 0.70562219E+03</pdfrwt>
<pdfrwt beam="2">  1       -2 0.12469496E+00 0.70562219E+03</pdfrwt>
<totfact> 0.13561188E+01</totfact>
</mgrwt>
</event>
<event>
 4    5  0.7289609E-008  0.6832617E+03  0.7818608E-02  0.1007536E+00
          2   -1    0    0  501    0  0.00000000000E+00  0.00000000000E+00  0.32108286656E+03  0.32108286657E+03  0.25500000000E-02 0. -1.
         -2   -1    0    0    0  501 -0.00000000000E+00 -0.00000000000E+00 -0.26431986213E+04  0.26431986213E+04  0.25500000000E-02 0.  1.
    8880023    1    1    2    0    0  0.17524581300E+03 -0.48220624298E+02 -0.25470709078E+04  0.26371228146E+04  0.65864270000E+03 0.  1.
    8880022    1    1    2    0    0 -0.17524581300E+03  0.48220624298E+02  0.22495515308E+03  0.32715867327E+03  0.15294330000E+03 0.  0.
<mgrwt>
<rscale>  0 0.52465898E+03</rscale>
<asrwt>0</asrwt>
<pdfrwt beam="1">  1        2 0.49397366E-01 0.68326168E+03</pdfrwt>
<pdfrwt beam="2">  1       -2 0.40664593E+00 0.68326168E+03</pdfrwt>
<totfact> 0.73556115E-01</totfact>
</mgrwt>
</event>
<event>
 4    5  0.7289609E-008  0.1345276E+04  0.7818608E-02  0.9027415E-01
          2   -1    0    0  501    0  0.00000000000E+00  0.00000000000E+00  0.18748251073E+04  0.18748251073E+04  0.25500000000E-02 0. -1.
         -2   -1    0    0    0  501 -0.00000000000E+00 -0.00000000000E+00 -0.95364889173E+03  0.95364889174E+03  0.25500000000E-02 0.  1.
    8880023    1    1    2    0    0  0.31127465586E+03  0.11309575714E+04  0.26899696354E+02  0.13455447743E+04  0.65864270000E+03 0.  0.
    8880022    1    1    2    0    0 -0.31127465586E+03 -0.11309575714E+04  0.89427651919E+03  0.14829292247E+04  0.15294330000E+03 0.  0.
<mgrwt>
<rscale>  0 0.13027145E+04</rscale>
<asrwt>0</asrwt>
<pdfrwt beam="1">  1        2 0.28843463E+00 0.13452759E+04</pdfrwt>
<pdfrwt beam="2">  1       -2 0.14671522E+00 0.13452759E+04</pdfrwt>
<totfact> 0.23885587E+00</totfact>
</mgrwt>
</event>
<event>
 4    5  0.7289609E-008  0.7549782E+03  0.7818608E-02  0.9818286E-01
          2   -1    0    0  501    0  0.00000000000E+00  0.00000000000E+00  0.29235516697E+04  0.29235516697E+04  0.25500000000E-02 0. -1.
         -2   -1    0    0    0  501 -0.00000000000E+00 -0.00000000000E+00 -0.72653097133E+03  0.72653097134E+03  0.25500000000E-02 0.  1.
    8880023    1    1    2    0    0  0.32617989073E+03 -0.17259361404E+03 -0.51171178983E+03  0.91205319957E+03  0.65864270000E+03 0.  0.
    8880022    1    1    2    0    0 -0.32617989073E+03  0.17259361404E+03  0.27087324882E+04  0.27380294415E+04  0.15294330000E+03 0. -1.
<mgrwt>
<rscale>  0 0.64390369E+03</rscale>
<asrwt>0</asrwt>
<pdfrwt beam="1">  1        2 0.44977719E+00 0.75497820E+03</pdfrwt>
<pdfrwt beam="2">  1       -2 0.11177399E+00 0.75497820E+03</pdfrwt>
<totfact> 0.13065876E+00</totfact>
</mgrwt>
</event>
<event>
 4    5  0.7289609E-008  0.9475638E+03  0.7818608E-02  0.9453628E-01
         -2   -1    0    0    0  501 -0.00000000000E+00  0.00000000000E+00  0.46430653735E+03  0.46430653736E+03  0.25500000000E-02 0.  1.
          2   -1    0    0  501    0  0.00000000000E+00 -0.00000000000E+00 -0.21766215725E+04  0.21766215725E+04  0.25500000000E-02 0. -1.
    8880023    1    1    2    0    0 -0.54199133135E+01  0.68120308421E+03 -0.19039450880E+03  0.96650260871E+03  0.65864270000E+03 0.  0.
    8880022    1    1    2    0    0  0.54199133135E+01 -0.68120308421E+03 -0.15219205264E+04  0.16744255012E+04  0.15294330000E+03 0.  0.
<mgrwt>
<rscale>  0 0.87790714E+03</rscale>
<asrwt>0</asrwt>
<pdfrwt beam="1">  1        2 0.33486485E+00 0.94756384E+03</pdfrwt>
<pdfrwt beam="2">  1       -2 0.71431776E-01 0.94756384E+03</pdfrwt>
<totfact> 0.95757600E+00</totfact>
</mgrwt>
</event>
<event>
 4    5  0.7289609E-008  0.1135057E+04  0.7818608E-02  0.9222993E-01
         -2   -1    0    0    0  501 -0.00000000000E+00  0.00000000000E+00  0.37864628697E+03  0.37864628697E+03  0.25500000000E-02 0.  1.
          2   -1    0    0  501    0  0.00000000000E+00 -0.00000000000E+00 -0.31390755631E+04  0.31390755631E+04  0.25500000000E-02 0. -1.
    8880023    1    1    2    0    0 -0.90238092905E+03  0.20062893719E+03 -0.95390360296E+03  0.14826616612E+04  0.65864270000E+03 0.  0.
    8880022    1    1    2    0    0  0.90238092905E+03 -0.20062893719E+03 -0.18065256731E+04  0.20350601889E+04  0.15294330000E+03 0.  0.
<mgrwt>
<rscale>  0 0.10819220E+04</rscale>
<asrwt>0</asrwt>
<pdfrwt beam="1">  1        2 0.48293468E+00 0.11350566E+04</pdfrwt>
<pdfrwt beam="2">  1       -2 0.58253277E-01 0.11350566E+04</pdfrwt>
<totfact> 0.39446355E+00</totfact>
</mgrwt>
</event>
<event>
 4    5  0.7289609E-008  0.1297354E+04  0.7818608E-02  0.9067848E-01
          2   -1    0    0  501    0  0.00000000000E+00  0.00000000000E+00  0.15907445515E+04  0.15907445515E+04  0.25500000000E-02 0. -1.
         -2   -1    0    0    0  501 -0.00000000000E+00 -0.00000000000E+00 -0.14844540120E+04  0.14844540121E+04  0.25500000000E-02 0.  1.
    8880023    1    1    2    0    0 -0.42507353077E+03 -0.10337458141E+04  0.99831640355E+03  0.16369984003E+04  0.65864270000E+03 0. -1.
    8880022    1    1    2    0    0  0.42507353077E+03  0.10337458141E+04 -0.89202586405E+03  0.14382001633E+04  0.15294330000E+03 0.  0.
<mgrwt>
<rscale>  0 0.12528097E+04</rscale>
<asrwt>0</asrwt>
<pdfrwt beam="1">  1        2 0.24472993E+00 0.12973543E+04</pdfrwt>
<pdfrwt beam="2">  1       -2 0.22837754E+00 0.12973543E+04</pdfrwt>
<totfact> 0.94804454E-01</totfact>
</mgrwt>
</event>
<event>
 4    5  0.7289609E-008  0.6734636E+03  0.7818608E-02  0.1013293E+00
          2   -1    0    0  501    0  0.00000000000E+00  0.00000000000E+00  0.10806261955E+04  0.10806261955E+04  0.25500000000E-02 0. -1.
         -2   -1    0    0    0  501 -0.00000000000E+00 -0.00000000000E+00 -0.19563636555E+03  0.19563636556E+03  0.25500000000E-02 0.  1.
    8880023    1    1    2    0    0 -0.11130008596E+03  0.85763222608E+02  0.49984542481E+03  0.83868867553E+03  0.65864270000E+03 0.  1.
    8880022    1    1    2    0    0  0.11130008596E+03 -0.85763222608E+02  0.38514440516E+03  0.43757388556E+03  0.15294330000E+03 0.  0.
<mgrwt>
<rscale>  0 0.50186735E+03</rscale>
<asrwt>0</asrwt>
<pdfrwt beam="1">  1        2 0.16625019E+00 0.67346362E+03</pdfrwt>
<pdfrwt beam="2">  1       -2 0.30097902E-01 0.67346362E+03</pdfrwt>
<totfact> 0.23153386E+02</totfact>
</mgrwt>
</event>
<event>
 4    5  0.7289609E-008  0.7097379E+03  0.7818608E-02  0.9958976E-01
         -2   -1    0    0    0  501 -0.00000000000E+00  0.00000000000E+00  0.21705760855E+03  0.21705760857E+03  0.25500000000E-02 0.  1.
          2   -1    0    0  501    0  0.00000000000E+00 -0.00000000000E+00 -0.19200494317E+04  0.19200494317E+04  0.25500000000E-02 0. -1.
    8880023    1    1    2    0    0  0.26441923932E+03  0.36198336036E+00 -0.43410659152E+03  0.83197139627E+03  0.65864270000E+03 0.  1.
    8880022    1    1    2    0    0 -0.26441923932E+03 -0.36198336036E+00 -0.12688852316E+04  0.13051356440E+04  0.15294330000E+03 0.  0.
<mgrwt>
<rscale>  0 0.57486269E+03</rscale>
<asrwt>0</asrwt>
<pdfrwt beam="1">  1        2 0.29539221E+00 0.70973789E+03</pdfrwt>
<pdfrwt beam="2">  1       -2 0.33393480E-01 0.70973789E+03</pdfrwt>
<totfact> 0.63988355E+01</totfact>
</mgrwt>
</event>
<event>
 4    5  0.7289609E-008  0.1258296E+04  0.7818608E-02  0.9102437E-01
         -2   -1    0    0    0  501 -0.00000000000E+00  0.00000000000E+00  0.14116371321E+04  0.14116371321E+04  0.25500000000E-02 0.  1.
          2   -1    0    0  501    0  0.00000000000E+00 -0.00000000000E+00 -0.15192641485E+04  0.15192641485E+04  0.25500000000E-02 0. -1.
    8880023    1    1    2    0    0  0.56845705997E+03 -0.90904080810E+03  0.82253210133E+03  0.15032856960E+04  0.65864270000E+03 0.  1.
    8880022    1    1    2    0    0 -0.56845705997E+03  0.90904080810E+03 -0.93015911776E+03  0.14276155845E+04  0.15294330000E+03 0.  0.
<mgrwt>
<rscale>  0 0.12119767E+04</rscale>
<asrwt>0</asrwt>
<pdfrwt beam="1">  1        2 0.23373295E+00 0.12582960E+04</pdfrwt>
<pdfrwt beam="2">  1       -2 0.21717494E+00 0.12582960E+04</pdfrwt>
<totfact> 0.12291963E+00</totfact>
</mgrwt>
</event>
<event>
 4    5  0.7289609E-008  0.6687888E+03  0.7818608E-02  0.1016546E+00
          2   -1    0    0  501    0  0.00000000000E+00  0.00000000000E+00  0.19026684473E+04  0.19026684473E+04  0.25500000000E-02 0. -1.
         -2   -1    0    0    0  501 -0.00000000000E+00 -0.00000000000E+00 -0.30639132636E+03  0.30639132637E+03  0.25500000000E-02 0.  1.
    8880023    1    1    2    0    0  0.37203310072E+02 -0.10992828423E+03  0.71902935681E+02  0.67264296055E+03  0.65864270000E+03 0.  1.
    8880022    1    1    2    0    0 -0.37203310072E+02  0.10992828423E+03  0.15243741853E+04  0.15364168132E+04  0.15294330000E+03 0.  0.
<mgrwt>
<rscale>  0 0.48953769E+03</rscale>
<asrwt>0</asrwt>
<pdfrwt beam="1">  1        2 0.29271823E+00 0.66878885E+03</pdfrwt>
<pdfrwt beam="2">  1       -2 0.47137126E-01 0.66878885E+03</pdfrwt>
<totfact> 0.33617826E+01</totfact>
</mgrwt>
</event>
<event>
 4    5  0.7289609E-008  0.1242999E+04  0.7818608E-02  0.9116417E-01
         -2   -1    0    0    0  501 -0.00000000000E+00  0.00000000000E+00  0.15965906747E+04  0.15965906747E+04  0.25500000000E-02 0.  1.
          2   -1    0    0  501    0  0.00000000000E+00 -0.00000000000E+00 -0.12338449582E+04  0.12338449582E+04  0.25500000000E-02 0. -1.
    8880023    1    1    2    0    0 -0.10293352591E+04 -0.22738788739E+03 -0.61296119774E+03  0.13859177332E+04  0.65864270000E+03 0. -1.
    8880022    1    1    2    0    0  0.10293352591E+04  0.22738788739E+03  0.97570691424E+03  0.14445178997E+04  0.15294330000E+03 0.  0.
<mgrwt>
<rscale>  0 0.11959410E+04</rscale>
<asrwt>0</asrwt>
<pdfrwt beam="1">  1        2 0.18982230E+00 0.12429990E+04</pdfrwt>
<pdfrwt beam="2">  1       -2 0.24562933E+00 0.12429990E+04</pdfrwt>
<totfact> 0.11962560E+00</totfact>
</mgrwt>
</event>
<event>
 4    5  0.7289609E-008  0.1432297E+04  0.7818608E-02  0.8958985E-01
          2   -1    0    0  501    0  0.00000000000E+00  0.00000000000E+00  0.12848110567E+04  0.12848110567E+04  0.25500000000E-02 0. -1.
         -2   -1    0    0    0  501 -0.00000000000E+00 -0.00000000000E+00 -0.15904932458E+04  0.15904932458E+04  0.25500000000E-02 0.  1.
    8880023    1    1    2    0    0  0.16375329093E+02  0.12717686916E+04 -0.61293539196E+03  0.15579357360E+04  0.65864270000E+03 0.  0.
    8880022    1    1    2    0    0 -0.16375329093E+02 -0.12717686916E+04  0.30725320279E+03  0.13173685665E+04  0.15294330000E+03 0.  0.
<mgrwt>
<rscale>  0 0.13928847E+04</rscale>
<asrwt>0</asrwt>
<pdfrwt beam="1">  1        2 0.19766324E+00 0.14322967E+04</pdfrwt>
<pdfrwt beam="2">  1       -2 0.24469127E+00 0.14322967E+04</pdfrwt>
<totfact> 0.11093932E+00</totfact>
</mgrwt>
</event>
<event>
 4    5  0.7289609E-008  0.1405639E+04  0.7818608E-02  0.8979313E-01
         -2   -1    0    0    0  501 -0.00000000000E+00  0.00000000000E+00  0.18011785492E+04  0.18011785492E+04  0.25500000000E-02 0.  1.
          2   -1    0    0  501    0  0.00000000000E+00 -0.00000000000E+00 -0.12802095445E+04  0.12802095445E+04  0.25500000000E-02 0. -1.
    8880023    1    1    2    0    0 -0.12107856388E+04 -0.27569743659E+03  0.10175447643E+04  0.17352862857E+04  0.65864270000E+03 0.  0.
    8880022    1    1    2    0    0  0.12107856388E+04  0.27569743659E+03 -0.49657575959E+03  0.13461018080E+04  0.15294330000E+03 0.  0.
<mgrwt>
<rscale>  0 0.13653174E+04</rscale>
<asrwt>0</asrwt>
<pdfrwt beam="1">  1        2 0.19695532E+00 0.14056391E+04</pdfrwt>
<pdfrwt beam="2">  1       -2 0.27710439E+00 0.14056391E+04</pdfrwt>
<totfact> 0.70892688E-01</totfact>
</mgrwt>
</event>
<event>
 4    5  0.7289609E-008  0.9850459E+03  0.7818608E-02  0.9401389E-01
         -2   -1    0    0    0  501 -0.00000000000E+00  0.00000000000E+00  0.14531901555E+04  0.14531901555E+04  0.25500000000E-02 0.  1.
          2   -1    0    0  501    0  0.00000000000E+00 -0.00000000000E+00 -0.10438284322E+04  0.10438284322E+04  0.25500000000E-02 0. -1.
    8880023    1    1    2    0    0  0.72655788672E+03 -0.92837813995E+02  0.11015151691E+04  0.14777182060E+04  0.65864270000E+03 0.  0.
    8880022    1    1    2    0    0 -0.72655788672E+03  0.92837813995E+02 -0.69215344584E+03  0.10193003817E+04  0.15294330000E+03 0.  0.
<mgrwt>
<rscale>  0 0.91961460E+03</rscale>
<asrwt>0</asrwt>
<pdfrwt beam="1">  1        2 0.16058899E+00 0.98504590E+03</pdfrwt>
<pdfrwt beam="2">  1       -2 0.22356771E+00 0.98504590E+03</pdfrwt>
<totfact> 0.22067904E+00</totfact>
</mgrwt>
</event>
<event>
 4    5  0.7289609E-008  0.7004861E+03  0.7818608E-02  0.9995191E-01
          2   -1    0    0  501    0  0.00000000000E+00  0.00000000000E+00  0.16463308455E+04  0.16463308455E+04  0.25500000000E-02 0. -1.
         -2   -1    0    0    0  501 -0.00000000000E+00 -0.00000000000E+00 -0.52509141646E+03  0.52509141647E+03  0.25500000000E-02 0.  1.
    8880023    1    1    2    0    0 -0.23102195113E+03  0.59155869423E+02 -0.27067919415E+03  0.75096470703E+03  0.65864270000E+03 0.  1.
    8880022    1    1    2    0    0  0.23102195113E+03 -0.59155869423E+02  0.13919186232E+04  0.14204575550E+04  0.15294330000E+03 0.  0.
<mgrwt>
<rscale>  0 0.55861620E+03</rscale>
<asrwt>0</asrwt>
<pdfrwt beam="1">  1        2 0.25328166E+00 0.70048609E+03</pdfrwt>
<pdfrwt beam="2">  1       -2 0.80783296E-01 0.70048609E+03</pdfrwt>
<totfact> 0.14692670E+01</totfact>
</mgrwt>
</event>
<event>
 4    5  0.7289609E-008  0.1121572E+04  0.7818608E-02  0.9237410E-01
          2   -1    0    0  501    0  0.00000000000E+00  0.00000000000E+00  0.51462737632E+03  0.51462737633E+03  0.25500000000E-02 0. -1.
         -2   -1    0    0    0  501 -0.00000000000E+00 -0.00000000000E+00 -0.31213738518E+04  0.31213738518E+04  0.25500000000E-02 0.  1.
    8880023    1    1    2    0    0 -0.90132364398E+03  0.10830562463E+03 -0.24602185799E+04  0.27038121397E+04  0.65864270000E+03 0.  0.
    8880022    1    1    2    0    0  0.90132364398E+03 -0.10830562463E+03 -0.14652789563E+03  0.93218908851E+03  0.15294330000E+03 0.  0.
<mgrwt>
<rscale>  0 0.10675503E+04</rscale>
<asrwt>0</asrwt>
<pdfrwt beam="1">  1        2 0.79173444E-01 0.11215724E+04</pdfrwt>
<pdfrwt beam="2">  1       -2 0.48021135E+00 0.11215724E+04</pdfrwt>
<totfact> 0.13099568E-01</totfact>
</mgrwt>
</event>
<event>
 4    5  0.7289609E-008  0.1381613E+04  0.7818608E-02  0.8998103E-01
          2   -1    0    0  501    0  0.00000000000E+00  0.00000000000E+00  0.29802781342E+04  0.29802781342E+04  0.25500000000E-02 0. -1.
         -2   -1    0    0    0  501 -0.00000000000E+00 -0.00000000000E+00 -0.10599204975E+04  0.10599204975E+04  0.25500000000E-02 0.  1.
    8880023    1    1    2    0    0 -0.12807039292E+03  0.12077430901E+04 -0.38130734095E+03  0.14332658134E+04  0.65864270000E+03 0.  0.
    8880022    1    1    2    0    0  0.12807039292E+03 -0.12077430901E+04  0.23016649776E+04  0.26069328183E+04  0.15294330000E+03 0.  0.
<mgrwt>
<rscale>  0 0.13404318E+04</rscale>
<asrwt>0</asrwt>
<pdfrwt beam="1">  1        2 0.45850433E+00 0.13816134E+04</pdfrwt>
<pdfrwt beam="2">  1       -2 0.16306469E+00 0.13816134E+04</pdfrwt>
<totfact> 0.41112174E-01</totfact>
</mgrwt>
</event>
<event>
 4    5  0.7289609E-008  0.9616594E+03  0.7818608E-02  0.9433534E-01
         -2   -1    0    0    0  501 -0.00000000000E+00  0.00000000000E+00  0.56152935508E+03  0.56152935509E+03  0.25500000000E-02 0.  1.
          2   -1    0    0  501    0  0.00000000000E+00 -0.00000000000E+00 -0.18200269516E+04  0.18200269516E+04  0.25500000000E-02 0. -1.
    8880023    1    1    2    0    0  0.23954780972E+03 -0.65847961095E+03 -0.33728959179E+02  0.96225069506E+03  0.65864270000E+03 0.  0.
    8880022    1    1    2    0    0 -0.23954780972E+03  0.65847961095E+03 -0.12247686373E+04  0.14193056116E+04  0.15294330000E+03 0.  0.
<mgrwt>
<rscale>  0 0.89366640E+03</rscale>
<asrwt>0</asrwt>
<pdfrwt beam="1">  1        2 0.28000414E+00 0.96165938E+03</pdfrwt>
<pdfrwt beam="2">  1       -2 0.86389132E-01 0.96165938E+03</pdfrwt>
<totfact> 0.98018143E+00</totfact>
</mgrwt>
</event>
<event>
 4    5  0.7289609E-008  0.7278497E+03  0.7818608E-02  0.9896868E-01
         -2   -1    0    0    0  501 -0.00000000000E+00  0.00000000000E+00  0.41402705448E+03  0.41402705448E+03  0.25500000000E-02 0.  1.
          2   -1    0    0  501    0  0.00000000000E+00 -0.00000000000E+00 -0.15166020206E+04  0.15166020206E+04  0.25500000000E-02 0. -1.
    8880023    1    1    2    0    0  0.30761647067E+03  0.36428204784E+02  0.47881361781E+02  0.72942288023E+03  0.65864270000E+03 0.  1.
    8880022    1    1    2    0    0 -0.30761647067E+03 -0.36428204784E+02 -0.11504563279E+04  0.12012061949E+04  0.15294330000E+03 0.  0.
<mgrwt>
<rscale>  0 0.60413291E+03</rscale>
<asrwt>0</asrwt>
<pdfrwt beam="1">  1        2 0.23332339E+00 0.72784965E+03</pdfrwt>
<pdfrwt beam="2">  1       -2 0.63696470E-01 0.72784965E+03</pdfrwt>
<totfact> 0.29071093E+01</totfact>
</mgrwt>
</event>
<event>
 4    5  0.7289609E-008  0.1481367E+04  0.7818608E-02  0.8922906E-01
          2   -1    0    0  501    0  0.00000000000E+00  0.00000000000E+00  0.24268993883E+04  0.24268993883E+04  0.25500000000E-02 0. -1.
         -2   -1    0    0    0  501 -0.00000000000E+00 -0.00000000000E+00 -0.11801709815E+04  0.11801709815E+04  0.25500000000E-02 0.  1.
    8880023    1    1    2    0    0 -0.67776990456E+03  0.11407307180E+04 -0.35319991549E+03  0.15228916577E+04  0.65864270000E+03 0.  1.
    8880022    1    1    2    0    0  0.67776990456E+03 -0.11407307180E+04  0.15999283223E+04  0.20841787121E+04  0.15294330000E+03 0.  0.
<mgrwt>
<rscale>  0 0.14435184E+04</rscale>
<asrwt>0</asrwt>
<pdfrwt beam="1">  1        2 0.37336913E+00 0.14813672E+04</pdfrwt>
<pdfrwt beam="2">  1       -2 0.18156477E+00 0.14813672E+04</pdfrwt>
<totfact> 0.63981016E-01</totfact>
</mgrwt>
</event>
<event>
 4    5  0.7289609E-008  0.9150218E+03  0.7818608E-02  0.9502335E-01
         -2   -1    0    0    0  501 -0.00000000000E+00  0.00000000000E+00  0.73164420382E+03  0.73164420382E+03  0.25500000000E-02 0.  1.
          2   -1    0    0  501    0  0.00000000000E+00 -0.00000000000E+00 -0.15805704078E+04  0.15805704078E+04  0.25500000000E-02 0. -1.
    8880023    1    1    2    0    0  0.63417599465E+03  0.35713356938E+02  0.32309976077E+03  0.97039079639E+03  0.65864270000E+03 0.  1.
    8880022    1    1    2    0    0 -0.63417599465E+03 -0.35713356938E+02 -0.11720259647E+04  0.13418238152E+04  0.15294330000E+03 0.  0.
<mgrwt>
<rscale>  0 0.84111913E+03</rscale>
<asrwt>0</asrwt>
<pdfrwt beam="1">  1        2 0.24316468E+00 0.91502177E+03</pdfrwt>
<pdfrwt beam="2">  1       -2 0.11256065E+00 0.91502177E+03</pdfrwt>
<totfact> 0.71378274E+00</totfact>
</mgrwt>
</event>
<event>
 4    5  0.7289609E-008  0.9210392E+03  0.7818608E-02  0.9493067E-01
          2   -1    0    0  501    0  0.00000000000E+00  0.00000000000E+00  0.19552630981E+04  0.19552630981E+04  0.25500000000E-02 0. -1.
         -2   -1    0    0    0  501 -0.00000000000E+00 -0.00000000000E+00 -0.32965991137E+03  0.32965991138E+03  0.25500000000E-02 0.  1.
    8880023    1    1    2    0    0 -0.62734261666E+03  0.14472101938E+03  0.75232850638E+03  0.11892482163E+04  0.65864270000E+03 0.  0.
    8880022    1    1    2    0    0  0.62734261666E+03 -0.14472101938E+03  0.87327468035E+03  0.10956747932E+04  0.15294330000E+03 0.  0.
<mgrwt>
<rscale>  0 0.84796860E+03</rscale>
<asrwt>0</asrwt>
<pdfrwt beam="1">  1        2 0.30080970E+00 0.92103916E+03</pdfrwt>
<pdfrwt beam="2">  1       -2 0.50716910E-01 0.92103916E+03</pdfrwt>
<totfact> 0.26305222E+01</totfact>
</mgrwt>
</event>
<event>
 4    5  0.7289609E-008  0.7024125E+03  0.7818608E-02  0.9987337E-01
         -2   -1    0    0    0  501 -0.00000000000E+00  0.00000000000E+00  0.24601674199E+03  0.24601674200E+03  0.25500000000E-02 0.  1.
          2   -1    0    0  501    0  0.00000000000E+00 -0.00000000000E+00 -0.17727588298E+04  0.17727588298E+04  0.25500000000E-02 0. -1.
    8880023    1    1    2    0    0 -0.17131063973E+03 -0.17385561500E+03 -0.30889988324E+03  0.76733464296E+03  0.65864270000E+03 0.  1.
    8880022    1    1    2    0    0  0.17131063973E+03  0.17385561500E+03 -0.12178422046E+04  0.12514409288E+04  0.15294330000E+03 0.  0.
<mgrwt>
<rscale>  0 0.56209003E+03</rscale>
<asrwt>0</asrwt>
<pdfrwt beam="1">  1        2 0.27273212E+00 0.70241250E+03</pdfrwt>
<pdfrwt beam="2">  1       -2 0.37848731E-01 0.70241250E+03</pdfrwt>
<totfact> 0.60651453E+01</totfact>
</mgrwt>
</event>
<event>
 4    5  0.7289609E-008  0.9825287E+03  0.7818608E-02  0.9404781E-01
         -2   -1    0    0    0  501 -0.00000000000E+00  0.00000000000E+00  0.71132136172E+03  0.71132136172E+03  0.25500000000E-02 0.  1.
          2   -1    0    0  501    0  0.00000000000E+00 -0.00000000000E+00 -0.24447860721E+04  0.24447860721E+04  0.25500000000E-02 0. -1.
    8880023    1    1    2    0    0  0.64354186394E+03 -0.34264609362E+03  0.26973133835E+03  0.10188806001E+04  0.65864270000E+03 0.  1.
    8880022    1    1    2    0    0 -0.64354186394E+03  0.34264609362E+03 -0.20031960487E+04  0.21372268337E+04  0.15294330000E+03 0.  0.
<mgrwt>
<rscale>  0 0.91683271E+03</rscale>
<asrwt>0</asrwt>
<pdfrwt beam="1">  1        2 0.37612093E+00 0.98252872E+03</pdfrwt>
<pdfrwt beam="2">  1       -2 0.10943406E+00 0.98252872E+03</pdfrwt>
<totfact> 0.25159366E+00</totfact>
</mgrwt>
</event>
<event>
 4    5  0.7289609E-008  0.1498269E+04  0.7818608E-02  0.8910859E-01
         -2   -1    0    0    0  501 -0.00000000000E+00  0.00000000000E+00  0.10777898438E+04  0.10777898438E+04  0.25500000000E-02 0.  1.
          2   -1    0    0  501    0  0.00000000000E+00 -0.00000000000E+00 -0.29380967222E+04  0.29380967222E+04  0.25500000000E-02 0. -1.
    8880023    1    1    2    0    0  0.70294581597E+03 -0.11475479003E+04  0.23938058909E+03  0.15172713259E+04  0.65864270000E+03 0.  0.
    8880022    1    1    2    0    0 -0.70294581597E+03  0.11475479003E+04 -0.20996874675E+04  0.24986152401E+04  0.15294330000E+03 0.  0.
<mgrwt>
<rscale>  0 0.14609278E+04</rscale>
<asrwt>0</asrwt>
<pdfrwt beam="1">  1        2 0.45201488E+00 0.14982687E+04</pdfrwt>
<pdfrwt beam="2">  1       -2 0.16581382E+00 0.14982687E+04</pdfrwt>
<totfact> 0.41092541E-01</totfact>
</mgrwt>
</event>
<event>
 4    5  0.7289609E-008  0.8870425E+03  0.7818608E-02  0.9547161E-01
          2   -1    0    0  501    0  0.00000000000E+00  0.00000000000E+00  0.25916325057E+04  0.25916325057E+04  0.25500000000E-02 0. -1.
         -2   -1    0    0    0  501 -0.00000000000E+00 -0.00000000000E+00 -0.44205804170E+03  0.44205804170E+03  0.25500000000E-02 0.  1.
    8880023    1    1    2    0    0  0.23127806454E+00  0.59416673991E+03  0.98117777943E+02  0.89245250457E+03  0.65864270000E+03 0.  1.
    8880022    1    1    2    0    0 -0.23127806454E+00 -0.59416673991E+03  0.20514566861E+04  0.21412380429E+04  0.15294330000E+03 0.  0.
<mgrwt>
<rscale>  0 0.80894360E+03</rscale>
<asrwt>0</asrwt>
<pdfrwt beam="1">  1        2 0.39871269E+00 0.88704249E+03</pdfrwt>
<pdfrwt beam="2">  1       -2 0.68008930E-01 0.88704249E+03</pdfrwt>
<totfact> 0.62701976E+00</totfact>
</mgrwt>
</event>
<event>
 4    5  0.7289609E-008  0.6867670E+03  0.7818608E-02  0.1005729E+00
          2   -1    0    0  501    0  0.00000000000E+00  0.00000000000E+00  0.26593978395E+03  0.26593978397E+03  0.25500000000E-02 0. -1.
         -2   -1    0    0    0  501 -0.00000000000E+00 -0.00000000000E+00 -0.82296135616E+03  0.82296135617E+03  0.25500000000E-02 0.  1.
    8880023    1    1    2    0    0 -0.17639891131E+03  0.81988553494E+02 -0.43565685507E+03  0.81329318234E+03  0.65864270000E+03 0.  0.
    8880022    1    1    2    0    0  0.17639891131E+03 -0.81988553494E+02 -0.12136471714E+03  0.27560795779E+03  0.15294330000E+03 0. -1.
<mgrwt>
<rscale>  0 0.53208119E+03</rscale>
<asrwt>0</asrwt>
<pdfrwt beam="1">  1        2 0.40913813E-01 0.68676699E+03</pdfrwt>
<pdfrwt beam="2">  1       -2 0.12660944E+00 0.68676699E+03</pdfrwt>
<totfact> 0.59108414E+01</totfact>
</mgrwt>
</event>
<event>
 4    5  0.7289609E-008  0.7137405E+03  0.7818608E-02  0.9944365E-01
         -2   -1    0    0    0  501 -0.00000000000E+00  0.00000000000E+00  0.50675153171E+03  0.50675153172E+03  0.25500000000E-02 0.  1.
          2   -1    0    0  501    0  0.00000000000E+00 -0.00000000000E+00 -0.16636963919E+04  0.16636963919E+04  0.25500000000E-02 0. -1.
    8880023    1    1    2    0    0 -0.20971753163E+03 -0.17785897652E+03  0.22873144248E+03  0.74949552210E+03  0.65864270000E+03 0.  1.
    8880022    1    1    2    0    0  0.20971753163E+03  0.17785897652E+03 -0.13856763027E+04  0.14209524016E+04  0.15294330000E+03 0.  0.
<mgrwt>
<rscale>  0 0.58158532E+03</rscale>
<asrwt>0</asrwt>
<pdfrwt beam="1">  1        2 0.25595329E+00 0.71374047E+03</pdfrwt>
<pdfrwt beam="2">  1       -2 0.77961775E-01 0.71374047E+03</pdfrwt>
<totfact> 0.15538064E+01</totfact>
</mgrwt>
</event>
<event>
 4    5  0.7289609E-008  0.2075145E+04  0.7818608E-02  0.8583900E-01
         -2   -1    0    0    0  501 -0.00000000000E+00  0.00000000000E+00  0.13547763525E+04  0.13547763525E+04  0.25500000000E-02 0.  1.
          2   -1    0    0  501    0  0.00000000000E+00 -0.00000000000E+00 -0.42675676902E+04  0.42675676902E+04  0.25500000000E-02 0. -1.
    8880023    1    1    2    0    0  0.14028741710E+04  0.13799858918E+04 -0.29986930117E+04  0.36466953514E+04  0.65864270000E+03 0.  0.
    8880022    1    1    2    0    0 -0.14028741710E+04 -0.13799858918E+04  0.85901674055E+02  0.19756486914E+04  0.15294330000E+03 0.  0.
<mgrwt>
<rscale>  0 0.20493260E+04</rscale>
<asrwt>0</asrwt>
<pdfrwt beam="1">  1        2 0.65654887E+00 0.20751451E+04</pdfrwt>
<pdfrwt beam="2">  1       -2 0.20842713E+00 0.20751451E+04</pdfrwt>
<totfact> 0.21137043E-02</totfact>
</mgrwt>
</event>
<event>
 4    5  0.7289609E-008  0.7723127E+03  0.7818608E-02  0.9774214E-01
         -2   -1    0    0    0  501 -0.00000000000E+00  0.00000000000E+00  0.45238232719E+03  0.45238232720E+03  0.25500000000E-02 0.  1.
          2   -1    0    0  501    0  0.00000000000E+00 -0.00000000000E+00 -0.23330184922E+04  0.23330184922E+04  0.25500000000E-02 0. -1.
    8880023    1    1    2    0    0  0.20819835609E+03  0.34541310782E+03  0.81327322475E+02  0.77658297057E+03  0.65864270000E+03 0.  1.
    8880022    1    1    2    0    0 -0.20819835609E+03 -0.34541310782E+03 -0.19619634875E+04  0.20088178489E+04  0.15294330000E+03 0.  0.
<mgrwt>
<rscale>  0 0.66764892E+03</rscale>
<asrwt>0</asrwt>
<pdfrwt beam="1">  1        2 0.35892592E+00 0.77231275E+03</pdfrwt>
<pdfrwt beam="2">  1       -2 0.69597282E-01 0.77231275E+03</pdfrwt>
<totfact> 0.85044458E+00</totfact>
</mgrwt>
</event>
<event>
 4    5  0.7289609E-008  0.1082863E+04  0.7818608E-02  0.9280380E-01
         -2   -1    0    0    0  501 -0.00000000000E+00  0.00000000000E+00  0.59482909351E+03  0.59482909351E+03  0.25500000000E-02 0.  1.
          2   -1    0    0  501    0  0.00000000000E+00 -0.00000000000E+00 -0.26439744047E+04  0.26439744047E+04  0.25500000000E-02 0. -1.
    8880023    1    1    2    0    0  0.60104522031E+03 -0.61443219086E+03 -0.81200912879E+02  0.10859033422E+04  0.65864270000E+03 0.  1.
    8880022    1    1    2    0    0 -0.60104522031E+03  0.61443219086E+03 -0.19679443983E+04  0.21529001560E+04  0.15294330000E+03 0.  0.
<mgrwt>
<rscale>  0 0.10260935E+04</rscale>
<asrwt>0</asrwt>
<pdfrwt beam="1">  1        2 0.40676529E+00 0.10828631E+04</pdfrwt>
<pdfrwt beam="2">  1       -2 0.91512170E-01 0.10828631E+04</pdfrwt>
<totfact> 0.29174297E+00</totfact>
</mgrwt>
</event>
<event>
 4    5  0.7289609E-008  0.7421674E+03  0.7818608E-02  0.9853678E-01
          2   -1    0    0  501    0  0.00000000000E+00  0.00000000000E+00  0.21775649210E+04  0.21775649210E+04  0.25500000000E-02 0. -1.
         -2   -1    0    0    0  501 -0.00000000000E+00 -0.00000000000E+00 -0.47194292856E+03  0.47194292856E+03  0.25500000000E-02 0.  1.
    8880023    1    1    2    0    0 -0.30154747264E+03 -0.16146627721E+03 -0.14937217337E+03  0.75704985924E+03  0.65864270000E+03 0.  0.
    8880022    1    1    2    0    0  0.30154747264E+03  0.16146627721E+03  0.18549941658E+04  0.18924579903E+04  0.15294330000E+03 0.  0.
<mgrwt>
<rscale>  0 0.62559739E+03</rscale>
<asrwt>0</asrwt>
<pdfrwt beam="1">  1        2 0.33500999E+00 0.74216740E+03</pdfrwt>
<pdfrwt beam="2">  1       -2 0.72606604E-01 0.74216740E+03</pdfrwt>
<totfact> 0.94958016E+00</totfact>
</mgrwt>
</event>
<event>
 4    5  0.7289609E-008  0.1162806E+04  0.7818608E-02  0.9194154E-01
          2   -1    0    0  501    0  0.00000000000E+00  0.00000000000E+00  0.35464659908E+04  0.35464659908E+04  0.25500000000E-02 0. -1.
         -2   -1    0    0    0  501 -0.00000000000E+00 -0.00000000000E+00 -0.64124861456E+03  0.64124861456E+03  0.25500000000E-02 0.  1.
    8880023    1    1    2    0    0 -0.91103373367E+03 -0.29719400810E+03  0.40952199579E+02  0.11635265494E+04  0.65864270000E+03 0.  1.
    8880022    1    1    2    0    0  0.91103373367E+03  0.29719400810E+03  0.28642651766E+04  0.30241880559E+04  0.15294330000E+03 0.  0.
<mgrwt>
<rscale>  0 0.11113973E+04</rscale>
<asrwt>0</asrwt>
<pdfrwt beam="1">  1        2 0.54561014E+00 0.11628056E+04</pdfrwt>
<pdfrwt beam="2">  1       -2 0.98653636E-01 0.11628056E+04</pdfrwt>
<totfact> 0.64781934E-01</totfact>
</mgrwt>
</event>
<event>
 4    5  0.7289609E-008  0.7880447E+03  0.7818608E-02  0.9737268E-01
         -2   -1    0    0    0  501 -0.00000000000E+00  0.00000000000E+00  0.31608790909E+03  0.31608790910E+03  0.25500000000E-02 0.  1.
          2   -1    0    0  501    0  0.00000000000E+00 -0.00000000000E+00 -0.42188120051E+04  0.42188120051E+04  0.25500000000E-02 0. -1.
    8880023    1    1    2    0    0  0.18727429887E+03 -0.39004179169E+03 -0.21242053208E+03  0.81617213319E+03  0.65864270000E+03 0.  1.
    8880022    1    1    2    0    0 -0.18727429887E+03  0.39004179169E+03 -0.36903035640E+04  0.37187277810E+04  0.15294330000E+03 0.  0.
<mgrwt>
<rscale>  0 0.68840559E+03</rscale>
<asrwt>0</asrwt>
<pdfrwt beam="1">  1        2 0.64904796E+00 0.78804471E+03</pdfrwt>
<pdfrwt beam="2">  1       -2 0.48628912E-01 0.78804471E+03</pdfrwt>
<totfact> 0.99821651E-01</totfact>
</mgrwt>
</event>
<event>
 4    5  0.7289609E-008  0.1065988E+04  0.7818608E-02  0.9299904E-01
         -2   -1    0    0    0  501 -0.00000000000E+00  0.00000000000E+00  0.73914718954E+03  0.73914718954E+03  0.25500000000E-02 0.  1.
          2   -1    0    0  501    0  0.00000000000E+00 -0.00000000000E+00 -0.33741971020E+04  0.33741971020E+04  0.25500000000E-02 0. -1.
    8880023    1    1    2    0    0  0.31796516661E+03  0.77551159377E+03  0.25856870346E+03  0.10968992934E+04  0.65864270000E+03 0.  1.
    8880022    1    1    2    0    0 -0.31796516661E+03 -0.77551159377E+03 -0.28936186159E+04  0.30164449981E+04  0.15294330000E+03 0.  0.
<mgrwt>
<rscale>  0 0.10079168E+04</rscale>
<asrwt>0</asrwt>
<pdfrwt beam="1">  1        2 0.51910724E+00 0.10659879E+04</pdfrwt>
<pdfrwt beam="2">  1       -2 0.11371495E+00 0.10659879E+04</pdfrwt>
<totfact> 0.61185383E-01</totfact>
</mgrwt>
</event>
<event>
 4    5  0.7289609E-008  0.7025168E+03  0.7818608E-02  0.9986917E-01
          2   -1    0    0  501    0  0.00000000000E+00  0.00000000000E+00  0.98864393304E+03  0.98864393304E+03  0.25500000000E-02 0. -1.
         -2   -1    0    0    0  501 -0.00000000000E+00 -0.00000000000E+00 -0.62152538117E+03  0.62152538118E+03  0.25500000000E-02 0.  1.
    8880023    1    1    2    0    0 -0.23592255879E+03 -0.63719398412E+02 -0.38754001191E+03  0.80231981315E+03  0.65864270000E+03 0.  0.
    8880022    1    1    2    0    0  0.23592255879E+03  0.63719398412E+02  0.75465856378E+03  0.80784950107E+03  0.15294330000E+03 0.  0.
<mgrwt>
<rscale>  0 0.56227661E+03</rscale>
<asrwt>0</asrwt>
<pdfrwt beam="1">  1        2 0.15209906E+00 0.70251678E+03</pdfrwt>
<pdfrwt beam="2">  1       -2 0.95619291E-01 0.70251678E+03</pdfrwt>
<totfact> 0.24014709E+01</totfact>
</mgrwt>
</event>
<event>
 4    5  0.7289609E-008  0.7559212E+03  0.7818608E-02  0.9815784E-01
         -2   -1    0    0    0  501 -0.00000000000E+00  0.00000000000E+00  0.71740532441E+03  0.71740532442E+03  0.25500000000E-02 0.  1.
          2   -1    0    0  501    0  0.00000000000E+00 -0.00000000000E+00 -0.11768246474E+04  0.11768246474E+04  0.25500000000E-02 0. -1.
    8880023    1    1    2    0    0 -0.36163873156E+03 -0.82607942028E+02  0.46430140842E+03  0.88712606115E+03  0.65864270000E+03 0.  1.
    8880022    1    1    2    0    0  0.36163873156E+03  0.82607942028E+02 -0.92372073145E+03  0.10071039107E+04  0.15294330000E+03 0.  0.
<mgrwt>
<rscale>  0 0.64522331E+03</rscale>
<asrwt>0</asrwt>
<pdfrwt beam="1">  1        2 0.18104995E+00 0.75592119E+03</pdfrwt>
<pdfrwt beam="2">  1       -2 0.11037005E+00 0.75592119E+03</pdfrwt>
<totfact> 0.12981222E+01</totfact>
</mgrwt>
</event>
<event>
 4    5  0.7289609E-008  0.7610792E+03  0.7818608E-02  0.9802322E-01
          2   -1    0    0  501    0  0.00000000000E+00  0.00000000000E+00  0.11822579984E+04  0.11822579984E+04  0.25500000000E-02 0. -1.
         -2   -1    0    0    0  501 -0.00000000000E+00 -0.00000000000E+00 -0.51110766792E+03  0.51110766792E+03  0.25500000000E-02 0.  1.
    8880023    1    1    2    0    0 -0.38133987176E+03  0.33422790172E+01 -0.14948040267E+03  0.77561966560E+03  0.65864270000E+03 0.  1.
    8880022    1    1    2    0    0  0.38133987176E+03 -0.33422790172E+01  0.82063073311E+03  0.91774600068E+03  0.15294330000E+03 0.  0.
<mgrwt>
<rscale>  0 0.65238099E+03</rscale>
<asrwt>0</asrwt>
<pdfrwt beam="1">  1        2 0.18188584E+00 0.76107915E+03</pdfrwt>
<pdfrwt beam="2">  1       -2 0.78631950E-01 0.76107915E+03</pdfrwt>
<totfact> 0.28375233E+01</totfact>
</mgrwt>
</event>
<event>
 4    5  0.7289609E-008  0.1132931E+04  0.7818608E-02  0.9225248E-01
         -2   -1    0    0    0  501 -0.00000000000E+00  0.00000000000E+00  0.10012903208E+04  0.10012903208E+04  0.25500000000E-02 0.  1.
          2   -1    0    0  501    0  0.00000000000E+00 -0.00000000000E+00 -0.18194625771E+04  0.18194625771E+04  0.25500000000E-02 0. -1.
    8880023    1    1    2    0    0 -0.89650365947E+03  0.21448446358E+03  0.47235911345E+03  0.12274590563E+04  0.65864270000E+03 0.  1.
    8880022    1    1    2    0    0  0.89650365947E+03 -0.21448446358E+03 -0.12905313697E+04  0.15932938416E+04  0.15294330000E+03 0.  0.
<mgrwt>
<rscale>  0 0.10796586E+04</rscale>
<asrwt>0</asrwt>
<pdfrwt beam="1">  1        2 0.27991732E+00 0.11329310E+04</pdfrwt>
<pdfrwt beam="2">  1       -2 0.15404467E+00 0.11329310E+04</pdfrwt>
<totfact> 0.23009390E+00</totfact>
</mgrwt>
</event>
<event>
 4    5  0.7289609E-008  0.1470006E+04  0.7818608E-02  0.8931111E-01
          2   -1    0    0  501    0  0.00000000000E+00  0.00000000000E+00  0.80509299954E+03  0.80509299955E+03  0.25500000000E-02 0. -1.
         -2   -1    0    0    0  501 -0.00000000000E+00 -0.00000000000E+00 -0.35679866331E+04  0.35679866331E+04  0.25500000000E-02 0.  1.
    8880023    1    1    2    0    0  0.92761065241E+03 -0.93093788128E+03 -0.26685576619E+04  0.30466567024E+04  0.65864270000E+03 0.  0.
    8880022    1    1    2    0    0 -0.92761065241E+03  0.93093788128E+03 -0.94335971658E+02  0.13264229302E+04  0.15294330000E+03 0.  0.
<mgrwt>
<rscale>  0 0.14318071E+04</rscale>
<asrwt>0</asrwt>
<pdfrwt beam="1">  1        2 0.12386046E+00 0.14700058E+04</pdfrwt>
<pdfrwt beam="2">  1       -2 0.54892101E+00 0.14700058E+04</pdfrwt>
<totfact> 0.27618630E-02</totfact>
</mgrwt>
</event>
<event>
 4    5  0.7289609E-008  0.8269978E+03  0.7818608E-02  0.9655202E-01
          2   -1    0    0  501    0  0.00000000000E+00  0.00000000000E+00  0.17678502718E+04  0.17678502718E+04  0.25500000000E-02 0. -1.
         -2   -1    0    0    0  501 -0.00000000000E+00 -0.00000000000E+00 -0.59967466527E+03  0.59967466527E+03  0.25500000000E-02 0.  1.
    8880023    1    1    2    0    0  0.18051053143E+03 -0.46640235626E+03 -0.24349106271E+03  0.86209820424E+03  0.65864270000E+03 0.  0.
    8880022    1    1    2    0    0 -0.18051053143E+03  0.46640235626E+03  0.14116666693E+04  0.15054267328E+04  0.15294330000E+03 0.  0.
<mgrwt>
<rscale>  0 0.73747840E+03</rscale>
<asrwt>0</asrwt>
<pdfrwt beam="1">  1        2 0.27197697E+00 0.82699783E+03</pdfrwt>
<pdfrwt beam="2">  1       -2 0.92257640E-01 0.82699783E+03</pdfrwt>
<totfact> 0.91440166E+00</totfact>
</mgrwt>
</event>
<event>
 4    5  0.7289609E-008  0.6757426E+03  0.7818608E-02  0.1011842E+00
          2   -1    0    0  501    0  0.00000000000E+00  0.00000000000E+00  0.12457584210E+04  0.12457584210E+04  0.25500000000E-02 0. -1.
         -2   -1    0    0    0  501 -0.00000000000E+00 -0.00000000000E+00 -0.30510431165E+03  0.30510431166E+03  0.25500000000E-02 0.  1.
    8880023    1    1    2    0    0 -0.13274359968E+03  0.72089733277E+02  0.99929698945E+02  0.68309146086E+03  0.65864270000E+03 0.  1.
    8880022    1    1    2    0    0  0.13274359968E+03 -0.72089733277E+02  0.84072441041E+03  0.86777127181E+03  0.15294330000E+03 0.  0.
<mgrwt>
<rscale>  0 0.50748978E+03</rscale>
<asrwt>0</asrwt>
<pdfrwt beam="1">  1        2 0.19165514E+00 0.67574255E+03</pdfrwt>
<pdfrwt beam="2">  1       -2 0.46939126E-01 0.67574255E+03</pdfrwt>
<totfact> 0.78349658E+01</totfact>
</mgrwt>
</event>
<event>
 4    5  0.7289609E-008  0.7246714E+03  0.7818608E-02  0.9907085E-01
         -2   -1    0    0    0  501 -0.00000000000E+00  0.00000000000E+00  0.40736019281E+03  0.40736019282E+03  0.25500000000E-02 0.  1.
          2   -1    0    0  501    0  0.00000000000E+00 -0.00000000000E+00 -0.16856594947E+04  0.16856594947E+04  0.25500000000E-02 0. -1.
    8880023    1    1    2    0    0 -0.27815652421E+02  0.30093975030E+03  0.45960632784E+02  0.72612741985E+03  0.65864270000E+03 0.  1.
    8880022    1    1    2    0    0  0.27815652421E+02 -0.30093975030E+03 -0.13242599347E+04  0.13668922677E+04  0.15294330000E+03 0.  0.
<mgrwt>
<rscale>  0 0.59919132E+03</rscale>
<asrwt>0</asrwt>
<pdfrwt beam="1">  1        2 0.25933223E+00 0.72467141E+03</pdfrwt>
<pdfrwt beam="2">  1       -2 0.62670800E-01 0.72467141E+03</pdfrwt>
<totfact> 0.24298120E+01</totfact>
</mgrwt>
</event>
<event>
 4    5  0.7289609E-008  0.8670529E+03  0.7818608E-02  0.9581139E-01
         -2   -1    0    0    0  501 -0.00000000000E+00  0.00000000000E+00  0.54834404989E+03  0.54834404989E+03  0.25500000000E-02 0.  1.
          2   -1    0    0  501    0  0.00000000000E+00 -0.00000000000E+00 -0.23752981330E+04  0.23752981330E+04  0.25500000000E-02 0. -1.
    8880023    1    1    2    0    0  0.49106760440E+03 -0.27716983782E+03  0.13413707161E+03  0.87736735256E+03  0.65864270000E+03 0.  0.
    8880022    1    1    2    0    0 -0.49106760440E+03  0.27716983782E+03 -0.19610911547E+04  0.20462748303E+04  0.15294330000E+03 0.  0.
<mgrwt>
<rscale>  0 0.78557222E+03</rscale>
<asrwt>0</asrwt>
<pdfrwt beam="1">  1        2 0.36543048E+00 0.86705289E+03</pdfrwt>
<pdfrwt beam="2">  1       -2 0.84360624E-01 0.86705289E+03</pdfrwt>
<totfact> 0.51673356E+00</totfact>
</mgrwt>
</event>
<event>
 4    5  0.7289609E-008  0.6694191E+03  0.7818608E-02  0.1016083E+00
         -2   -1    0    0    0  501 -0.00000000000E+00  0.00000000000E+00  0.60340309921E+03  0.60340309922E+03  0.25500000000E-02 0.  1.
          2   -1    0    0  501    0  0.00000000000E+00 -0.00000000000E+00 -0.25650921068E+04  0.25650921068E+04  0.25500000000E-02 0. -1.
    8880023    1    1    2    0    0 -0.10004232330E+03  0.65599165610E+02  0.41254765852E+03  0.78633166908E+03  0.65864270000E+03 0.  1.
    8880022    1    1    2    0    0  0.10004232330E+03 -0.65599165610E+02 -0.23742366661E+04  0.23821635369E+04  0.15294330000E+03 0.  0.
<mgrwt>
<rscale>  0 0.49127096E+03</rscale>
<asrwt>0</asrwt>
<pdfrwt beam="1">  1        2 0.39462955E+00 0.66941909E+03</pdfrwt>
<pdfrwt beam="2">  1       -2 0.92831247E-01 0.66941909E+03</pdfrwt>
<totfact> 0.33558586E+00</totfact>
</mgrwt>
</event>
<event>
 4    5  0.7289609E-008  0.1623196E+04  0.7818608E-02  0.8827211E-01
         -2   -1    0    0    0  501 -0.00000000000E+00  0.00000000000E+00  0.10881075535E+04  0.10881075535E+04  0.25500000000E-02 0.  1.
          2   -1    0    0  501    0  0.00000000000E+00 -0.00000000000E+00 -0.23053455094E+04  0.23053455094E+04  0.25500000000E-02 0. -1.
    8880023    1    1    2    0    0  0.14138782862E+04  0.44933483532E+03 -0.32467986955E+03  0.16553491555E+04  0.65864270000E+03 0.  0.
    8880022    1    1    2    0    0 -0.14138782862E+04 -0.44933483532E+03 -0.89255808637E+03  0.17381039075E+04  0.15294330000E+03 0.  0.
<mgrwt>
<rscale>  0 0.15891995E+04</rscale>
<asrwt>0</asrwt>
<pdfrwt beam="1">  1        2 0.35466854E+00 0.16231956E+04</pdfrwt>
<pdfrwt beam="2">  1       -2 0.16740116E+00 0.16231956E+04</pdfrwt>
<totfact> 0.93257107E-01</totfact>
</mgrwt>
</event>
<event>
 4    5  0.7289609E-008  0.8350108E+03  0.7818608E-02  0.9639660E-01
         -2   -1    0    0    0  501 -0.00000000000E+00  0.00000000000E+00  0.54665210078E+03  0.54665210079E+03  0.25500000000E-02 0.  1.
          2   -1    0    0  501    0  0.00000000000E+00 -0.00000000000E+00 -0.13357227912E+04  0.13357227912E+04  0.25500000000E-02 0. -1.
    8880023    1    1    2    0    0  0.26113576530E+03 -0.44186082922E+03  0.10355880951E+03  0.84140805416E+03  0.65864270000E+03 0.  1.
    8880022    1    1    2    0    0 -0.26113576530E+03  0.44186082922E+03 -0.89262949996E+03  0.10409668379E+04  0.15294330000E+03 0.  0.
<mgrwt>
<rscale>  0 0.74725894E+03</rscale>
<asrwt>0</asrwt>
<pdfrwt beam="1">  1        2 0.20549581E+00 0.83501083E+03</pdfrwt>
<pdfrwt beam="2">  1       -2 0.84100323E-01 0.83501083E+03</pdfrwt>
<totfact> 0.19680117E+01</totfact>
</mgrwt>
</event>
<event>
 4    5  0.7289609E-008  0.9708528E+03  0.7818608E-02  0.9420726E-01
         -2   -1    0    0    0  501 -0.00000000000E+00  0.00000000000E+00  0.10832154080E+04  0.10832154080E+04  0.25500000000E-02 0.  1.
          2   -1    0    0  501    0  0.00000000000E+00 -0.00000000000E+00 -0.82782564175E+03  0.82782564175E+03  0.25500000000E-02 0. -1.
    8880023    1    1    2    0    0  0.69435730361E+03 -0.16313434303E+03  0.55970216864E+03  0.11206344644E+04  0.65864270000E+03 0.  0.
    8880022    1    1    2    0    0 -0.69435730361E+03  0.16313434303E+03 -0.30431240238E+03  0.79040658537E+03  0.15294330000E+03 0.  0.
<mgrwt>
<rscale>  0 0.90389485E+03</rscale>
<asrwt>0</asrwt>
<pdfrwt beam="1">  1        2 0.12735779E+00 0.97085276E+03</pdfrwt>
<pdfrwt beam="2">  1       -2 0.16664852E+00 0.97085276E+03</pdfrwt>
<totfact> 0.73689205E+00</totfact>
</mgrwt>
</event>
<event>
 4    5  0.7289609E-008  0.8657637E+03  0.7818608E-02  0.9583392E-01
          2   -1    0    0  501    0  0.00000000000E+00  0.00000000000E+00  0.22308577037E+04  0.22308577037E+04  0.25500000000E-02 0. -1.
         -2   -1    0    0    0  501 -0.00000000000E+00 -0.00000000000E+00 -0.40321694112E+03  0.40321694113E+03  0.25500000000E-02 0.  1.
    8880023    1    1    2    0    0  0.49417836188E+03 -0.26744027179E+03  0.17693571082E+03  0.88365887329E+03  0.65864270000E+03 0.  1.
    8880022    1    1    2    0    0 -0.49417836188E+03  0.26744027179E+03  0.16507050518E+04  0.17504157715E+04  0.15294330000E+03 0.  0.
<mgrwt>
<rscale>  0 0.78405226E+03</rscale>
<asrwt>0</asrwt>
<pdfrwt beam="1">  1        2 0.34320888E+00 0.86576369E+03</pdfrwt>
<pdfrwt beam="2">  1       -2 0.62033376E-01 0.86576369E+03</pdfrwt>
<totfact> 0.12253425E+01</totfact>
</mgrwt>
</event>
<event>
 4    5  0.7289609E-008  0.8231747E+03  0.7818608E-02  0.9662761E-01
         -2   -1    0    0    0  501 -0.00000000000E+00  0.00000000000E+00  0.97675246840E+03  0.97675246840E+03  0.25500000000E-02 0.  1.
          2   -1    0    0  501    0  0.00000000000E+00 -0.00000000000E+00 -0.97508818255E+03  0.97508818256E+03  0.25500000000E-02 0. -1.
    8880023    1    1    2    0    0  0.29634142067E+03 -0.39495339667E+03  0.70168311900E+03  0.10816542095E+04  0.65864270000E+03 0.  1.
    8880022    1    1    2    0    0 -0.29634142067E+03  0.39495339667E+03 -0.70001883315E+03  0.87018644147E+03  0.15294330000E+03 0.  0.
<mgrwt>
<rscale>  0 0.73277929E+03</rscale>
<asrwt>0</asrwt>
<pdfrwt beam="1">  1        2 0.15001357E+00 0.82317473E+03</pdfrwt>
<pdfrwt beam="2">  1       -2 0.15026961E+00 0.82317473E+03</pdfrwt>
<totfact> 0.78682655E+00</totfact>
</mgrwt>
</event>
<event>
 4    5  0.7289609E-008  0.1182546E+04  0.7818608E-02  0.9174279E-01
          2   -1    0    0  501    0  0.00000000000E+00  0.00000000000E+00  0.35500419370E+04  0.35500419370E+04  0.25500000000E-02 0. -1.
         -2   -1    0    0    0  501 -0.00000000000E+00 -0.00000000000E+00 -0.48852051850E+03  0.48852051850E+03  0.25500000000E-02 0.  1.
    8880023    1    1    2    0    0  0.84895054726E+03  0.49384909193E+03  0.27555142677E+04  0.29985451544E+04  0.65864270000E+03 0.  0.
    8880022    1    1    2    0    0 -0.84895054726E+03 -0.49384909193E+03  0.30600715087E+03  0.10400173012E+04  0.15294330000E+03 0.  0.
<mgrwt>
<rscale>  0 0.11322904E+04</rscale>
<asrwt>0</asrwt>
<pdfrwt beam="1">  1        2 0.54616029E+00 0.11825456E+04</pdfrwt>
<pdfrwt beam="2">  1       -2 0.75157004E-01 0.11825456E+04</pdfrwt>
<totfact> 0.12007423E+00</totfact>
</mgrwt>
</event>
<event>
 4    5  0.7289609E-008  0.6594259E+03  0.7818608E-02  0.1024752E+00
          2   -1    0    0  501    0  0.00000000000E+00  0.00000000000E+00  0.19159490111E+04  0.19159490111E+04  0.25500000000E-02 0. -1.
         -2   -1    0    0    0  501 -0.00000000000E+00 -0.00000000000E+00 -0.20169491594E+03  0.20169491595E+03  0.25500000000E-02 0.  1.
    8880023    1    1    2    0    0  0.15489744727E+02  0.28149262082E+02  0.35399201221E+03  0.74843360702E+03  0.65864270000E+03 0.  1.
    8880022    1    1    2    0    0 -0.15489744727E+02 -0.28149262082E+02  0.13602620829E+04  0.13692103200E+04  0.15294330000E+03 0.  0.
<mgrwt>
<rscale>  0 0.46009925E+03</rscale>
<asrwt>0</asrwt>
<pdfrwt beam="1">  1        2 0.29476138E+00 0.65942590E+03</pdfrwt>
<pdfrwt beam="2">  1       -2 0.31029988E-01 0.65942590E+03</pdfrwt>
<totfact> 0.74263316E+01</totfact>
</mgrwt>
</event>
<event>
 4    5  0.7289609E-008  0.1312785E+04  0.7818608E-02  0.9054597E-01
         -2   -1    0    0    0  501 -0.00000000000E+00  0.00000000000E+00  0.81622056740E+03  0.81622056740E+03  0.25500000000E-02 0.  1.
          2   -1    0    0  501    0  0.00000000000E+00 -0.00000000000E+00 -0.31667393775E+04  0.31667393775E+04  0.25500000000E-02 0. -1.
    8880023    1    1    2    0    0 -0.11170063097E+04 -0.20467471349E+03  0.59788512666E+02  0.13141459991E+04  0.65864270000E+03 0.  0.
    8880022    1    1    2    0    0  0.11170063097E+04  0.20467471349E+03 -0.24103073228E+04  0.26688139459E+04  0.15294330000E+03 0.  0.
<mgrwt>
<rscale>  0 0.12689012E+04</rscale>
<asrwt>0</asrwt>
<pdfrwt beam="1">  1        2 0.48719067E+00 0.13127852E+04</pdfrwt>
<pdfrwt beam="2">  1       -2 0.12557240E+00 0.13127852E+04</pdfrwt>
<totfact> 0.62999058E-01</totfact>
</mgrwt>
</event>
<event>
 4    5  0.7289609E-008  0.6775723E+03  0.7818608E-02  0.1010732E+00
          2   -1    0    0  501    0  0.00000000000E+00  0.00000000000E+00  0.10710501287E+04  0.10710501287E+04  0.25500000000E-02 0. -1.
         -2   -1    0    0    0  501 -0.00000000000E+00 -0.00000000000E+00 -0.28234296185E+03  0.28234296186E+03  0.25500000000E-02 0.  1.
    8880023    1    1    2    0    0 -0.73832389774E+02 -0.14086444433E+03  0.17295056320E+03  0.69929687332E+03  0.65864270000E+03 0.  1.
    8880022    1    1    2    0    0  0.73832389774E+02  0.14086444433E+03  0.61575660368E+03  0.65409621727E+03  0.15294330000E+03 0.  0.
<mgrwt>
<rscale>  0 0.51184901E+03</rscale>
<asrwt>0</asrwt>
<pdfrwt beam="1">  1        2 0.16477694E+00 0.67757230E+03</pdfrwt>
<pdfrwt beam="2">  1       -2 0.43437379E-01 0.67757230E+03</pdfrwt>
<totfact> 0.11628980E+02</totfact>
</mgrwt>
</event>
<event>
 4    5  0.7289609E-008  0.6997153E+03  0.7818608E-02  0.9998384E-01
          2   -1    0    0  501    0  0.00000000000E+00  0.00000000000E+00  0.16954558456E+04  0.16954558456E+04  0.25500000000E-02 0. -1.
         -2   -1    0    0    0  501 -0.00000000000E+00 -0.00000000000E+00 -0.42106865640E+03  0.42106865641E+03  0.25500000000E-02 0.  1.
    8880023    1    1    2    0    0 -0.15018138200E+03  0.18230991025E+03 -0.10604339743E+03  0.70770527713E+03  0.65864270000E+03 0.  1.
    8880022    1    1    2    0    0  0.15018138200E+03 -0.18230991025E+03  0.13804305866E+04  0.14088192249E+04  0.15294330000E+03 0.  0.
<mgrwt>
<rscale>  0 0.55721146E+03</rscale>
<asrwt>0</asrwt>
<pdfrwt beam="1">  1        2 0.26083937E+00 0.69971534E+03</pdfrwt>
<pdfrwt beam="2">  1       -2 0.64779792E-01 0.69971534E+03</pdfrwt>
<totfact> 0.22435654E+01</totfact>
</mgrwt>
</event>
<event>
 4    5  0.7289609E-008  0.2485036E+04  0.7818608E-02  0.8416009E-01
         -2   -1    0    0    0  501 -0.00000000000E+00  0.00000000000E+00  0.24458813303E+04  0.24458813303E+04  0.25500000000E-02 0.  1.
          2   -1    0    0  501    0  0.00000000000E+00 -0.00000000000E+00 -0.34356830401E+04  0.34356830401E+04  0.25500000000E-02 0. -1.
    8880023    1    1    2    0    0  0.93086220906E+03  0.22079609646E+04 -0.20837516534E+04  0.32430583147E+04  0.65864270000E+03 0.  0.
    8880022    1    1    2    0    0 -0.93086220906E+03 -0.22079609646E+04  0.10939499436E+04  0.26385060556E+04  0.15294330000E+03 0.  0.
<mgrwt>
<rscale>  0 0.24637655E+04</rscale>
<asrwt>0</asrwt>
<pdfrwt beam="1">  1        2 0.52856662E+00 0.24850365E+04</pdfrwt>
<pdfrwt beam="2">  1       -2 0.37628944E+00 0.24850365E+04</pdfrwt>
<totfact> 0.79596562E-03</totfact>
</mgrwt>
</event>
<event>
 4    5  0.7289609E-008  0.7567201E+03  0.7818608E-02  0.9813674E-01
          2   -1    0    0  501    0  0.00000000000E+00  0.00000000000E+00  0.55978258886E+03  0.55978258886E+03  0.25500000000E-02 0. -1.
         -2   -1    0    0    0  501 -0.00000000000E+00 -0.00000000000E+00 -0.60489919160E+03  0.60489919160E+03  0.25500000000E-02 0.  1.
    8880023    1    1    2    0    0 -0.93407221030E+02 -0.36068027931E+03  0.18461679154E+02  0.75694531684E+03  0.65864270000E+03 0.  1.
    8880022    1    1    2    0    0  0.93407221030E+02  0.36068027931E+03 -0.63578281894E+02  0.40773646362E+03  0.15294330000E+03 0. -1.
<mgrwt>
<rscale>  0 0.64633863E+03</rscale>
<asrwt>0</asrwt>
<pdfrwt beam="1">  1        2 0.86120398E-01 0.75672015E+03</pdfrwt>
<pdfrwt beam="2">  1       -2 0.93061415E-01 0.75672015E+03</pdfrwt>
<totfact> 0.53327791E+01</totfact>
</mgrwt>
</event>
<event>
 4    5  0.7740488E-008  0.1618318E+04  0.7818608E-02  0.8830312E-01
         -2   -1    0    0    0  501 -0.00000000000E+00  0.00000000000E+00  0.16223744571E+04  0.16223744571E+04  0.25500000000E-02 0.  1.
          2   -1    0    0  501    0  0.00000000000E+00 -0.00000000000E+00 -0.26622975866E+04  0.26622975866E+04  0.25500000000E-02 0. -1.
    8880023    1    1    2    0    0  0.12214139193E+04 -0.83264021127E+03  0.89154211581E+03  0.18476469452E+04  0.65864270000E+03 0.  0.
    8880022    1    1    2    0    0 -0.12214139193E+04  0.83264021127E+03 -0.19314652453E+04  0.24370250984E+04  0.15294330000E+03 0.  0.
<mgrwt>
<rscale>  0 0.15842029E+04</rscale>
<asrwt>0</asrwt>
<pdfrwt beam="1">  1        2 0.40958424E+00 0.16183176E+04</pdfrwt>
<pdfrwt beam="2">  1       -2 0.24959607E+00 0.16183176E+04</pdfrwt>
<totfact> 0.16719788E-01</totfact>
</mgrwt>
</event>
<event>
 4    5  0.7289609E-008  0.8604554E+03  0.7818608E-02  0.9592754E-01
          2   -1    0    0  501    0  0.00000000000E+00  0.00000000000E+00  0.20711956971E+04  0.20711956971E+04  0.25500000000E-02 0. -1.
         -2   -1    0    0    0  501 -0.00000000000E+00 -0.00000000000E+00 -0.56034723293E+03  0.56034723294E+03  0.25500000000E-02 0.  1.
    8880023    1    1    2    0    0 -0.43673528060E+03  0.34034630059E+03 -0.15065470667E+03  0.87354470782E+03  0.65864270000E+03 0.  1.
    8880022    1    1    2    0    0  0.43673528060E+03 -0.34034630059E+03  0.16615031709E+04  0.17579982223E+04  0.15294330000E+03 0.  0.
<mgrwt>
<rscale>  0 0.77777639E+03</rscale>
<asrwt>0</asrwt>
<pdfrwt beam="1">  1        2 0.31864549E+00 0.86045541E+03</pdfrwt>
<pdfrwt beam="2">  1       -2 0.86207267E-01 0.86045541E+03</pdfrwt>
<totfact> 0.72608459E+00</totfact>
</mgrwt>
</event>
<event>
 4    5  0.7289609E-008  0.8929556E+03  0.7818608E-02  0.9537436E-01
         -2   -1    0    0    0  501 -0.00000000000E+00  0.00000000000E+00  0.12722429535E+04  0.12722429535E+04  0.25500000000E-02 0.  1.
          2   -1    0    0  501    0  0.00000000000E+00 -0.00000000000E+00 -0.51891327570E+03  0.51891327570E+03  0.25500000000E-02 0. -1.
    8880023    1    1    2    0    0  0.39851574042E+01 -0.60294577884E+03  0.75460408856E+03  0.11691009496E+04  0.65864270000E+03 0.  0.
    8880022    1    1    2    0    0 -0.39851574042E+01  0.60294577884E+03 -0.12744107640E+01  0.62205527956E+03  0.15294330000E+03 0.  0.
<mgrwt>
<rscale>  0 0.81579195E+03</rscale>
<asrwt>0</asrwt>
<pdfrwt beam="1">  1        2 0.79832812E-01 0.89295560E+03</pdfrwt>
<pdfrwt beam="2">  1       -2 0.19572968E+00 0.89295560E+03</pdfrwt>
<totfact> 0.84041796E+00</totfact>
</mgrwt>
</event>
<event>
 4    5  0.7289609E-008  0.9632191E+03  0.7818608E-02  0.9431344E-01
         -2   -1    0    0    0  501 -0.00000000000E+00  0.00000000000E+00  0.16135501009E+04  0.16135501009E+04  0.25500000000E-02 0.  1.
          2   -1    0    0  501    0  0.00000000000E+00 -0.00000000000E+00 -0.10268375395E+04  0.10268375395E+04  0.25500000000E-02 0. -1.
    8880023    1    1    2    0    0 -0.21491563747E+03  0.66917268307E+03  0.13062505485E+04  0.16229853704E+04  0.65864270000E+03 0.  0.
    8880022    1    1    2    0    0  0.21491563747E+03 -0.66917268307E+03 -0.71953798716E+03  0.10174022700E+04  0.15294330000E+03 0.  0.
<mgrwt>
<rscale>  0 0.89540440E+03</rscale>
<asrwt>0</asrwt>
<pdfrwt beam="1">  1        2 0.15797501E+00 0.96321909E+03</pdfrwt>
<pdfrwt beam="2">  1       -2 0.24823848E+00 0.96321909E+03</pdfrwt>
<totfact> 0.15974508E+00</totfact>
</mgrwt>
</event>
<event>
 4    5  0.7289609E-008  0.1249021E+04  0.7818608E-02  0.9110883E-01
          2   -1    0    0  501    0  0.00000000000E+00  0.00000000000E+00  0.33705033682E+04  0.33705033682E+04  0.25500000000E-02 0. -1.
         -2   -1    0    0    0  501 -0.00000000000E+00 -0.00000000000E+00 -0.10799387193E+04  0.10799387193E+04  0.25500000000E-02 0.  1.
    8880023    1    1    2    0    0  0.30433233343E+03  0.10166739576E+04 -0.58665380591E+03  0.13799336939E+04  0.65864270000E+03 0.  0.
    8880022    1    1    2    0    0 -0.30433233343E+03 -0.10166739576E+04  0.28772184549E+04  0.30705083936E+04  0.15294330000E+03 0.  0.
<mgrwt>
<rscale>  0 0.12022573E+04</rscale>
<asrwt>0</asrwt>
<pdfrwt beam="1">  1        2 0.51853897E+00 0.12490213E+04</pdfrwt>
<pdfrwt beam="2">  1       -2 0.16614442E+00 0.12490213E+04</pdfrwt>
<totfact> 0.22299894E-01</totfact>
</mgrwt>
</event>
<event>
 4    5  0.7289609E-008  0.7916667E+03  0.7818608E-02  0.9729113E-01
          2   -1    0    0  501    0  0.00000000000E+00  0.00000000000E+00  0.58027644336E+03  0.58027644336E+03  0.25500000000E-02 0. -1.
         -2   -1    0    0    0  501 -0.00000000000E+00 -0.00000000000E+00 -0.11760669911E+04  0.11760669911E+04  0.25500000000E-02 0.  1.
    8880023    1    1    2    0    0  0.32372207449E+03 -0.29686702605E+03 -0.90150172611E+03  0.11997673029E+04  0.65864270000E+03 0.  0.
    8880022    1    1    2    0    0 -0.32372207449E+03  0.29686702605E+03  0.30571117835E+03  0.55657613158E+03  0.15294330000E+03 0.  0.
<mgrwt>
<rscale>  0 0.69309585E+03</rscale>
<asrwt>0</asrwt>
<pdfrwt beam="1">  1        2 0.89273299E-01 0.79166673E+03</pdfrwt>
<pdfrwt beam="2">  1       -2 0.18093338E+00 0.79166673E+03</pdfrwt>
<totfact> 0.93438506E+00</totfact>
</mgrwt>
</event>
<event>
 4    5  0.7289609E-008  0.9099118E+03  0.7818608E-02  0.9510304E-01
         -2   -1    0    0    0  501 -0.00000000000E+00  0.00000000000E+00  0.10528877105E+04  0.10528877105E+04  0.25500000000E-02 0.  1.
          2   -1    0    0  501    0  0.00000000000E+00 -0.00000000000E+00 -0.12883758149E+04  0.12883758149E+04  0.25500000000E-02 0. -1.
    8880023    1    1    2    0    0  0.50866040930E+03 -0.36795915904E+03  0.73886962728E+03  0.11721211060E+04  0.65864270000E+03 0.  1.
    8880022    1    1    2    0    0 -0.50866040930E+03  0.36795915904E+03 -0.97435773162E+03  0.11691424194E+04  0.15294330000E+03 0.  0.
<mgrwt>
<rscale>  0 0.83528423E+03</rscale>
<asrwt>0</asrwt>
<pdfrwt beam="1">  1        2 0.19821166E+00 0.90991184E+03</pdfrwt>
<pdfrwt beam="2">  1       -2 0.16198272E+00 0.90991184E+03</pdfrwt>
<totfact> 0.40976770E+00</totfact>
</mgrwt>
</event>
<event>
 4    5  0.7289609E-008  0.1144418E+04  0.7818608E-02  0.9213143E-01
          2   -1    0    0  501    0  0.00000000000E+00  0.00000000000E+00  0.15097887429E+04  0.15097887429E+04  0.25500000000E-02 0. -1.
         -2   -1    0    0    0  501 -0.00000000000E+00 -0.00000000000E+00 -0.10804034958E+04  0.10804034958E+04  0.25500000000E-02 0.  1.
    8880023    1    1    2    0    0 -0.60094294711E+03 -0.71746009557E+03 -0.51222038148E+03  0.12538187030E+04  0.65864270000E+03 0.  1.
    8880022    1    1    2    0    0  0.60094294711E+03  0.71746009557E+03  0.94160562860E+03  0.13363735358E+04  0.15294330000E+03 0.  0.
<mgrwt>
<rscale>  0 0.10918798E+04</rscale>
<asrwt>0</asrwt>
<pdfrwt beam="1">  1        2 0.23227519E+00 0.11444176E+04</pdfrwt>
<pdfrwt beam="2">  1       -2 0.16621592E+00 0.11444176E+04</pdfrwt>
<totfact> 0.27768099E+00</totfact>
</mgrwt>
</event>
<event>
 4    5  0.7289609E-008  0.8138854E+03  0.7818608E-02  0.9681540E-01
          2   -1    0    0  501    0  0.00000000000E+00  0.00000000000E+00  0.91705407029E+03  0.91705407029E+03  0.25500000000E-02 0. -1.
         -2   -1    0    0    0  501 -0.00000000000E+00 -0.00000000000E+00 -0.54208937448E+03  0.54208937448E+03  0.25500000000E-02 0.  1.
    8880023    1    1    2    0    0 -0.23426585398E+03  0.41679583046E+03 -0.29600373234E+02  0.81442350346E+03  0.65864270000E+03 0.  0.
    8880022    1    1    2    0    0  0.23426585398E+03 -0.41679583046E+03  0.40456506905E+03  0.64471994132E+03  0.15294330000E+03 0.  0.
<mgrwt>
<rscale>  0 0.72126616E+03</rscale>
<asrwt>0</asrwt>
<pdfrwt beam="1">  1        2 0.14108524E+00 0.81388541E+03</pdfrwt>
<pdfrwt beam="2">  1       -2 0.83398366E-01 0.81388541E+03</pdfrwt>
<totfact> 0.36268648E+01</totfact>
</mgrwt>
</event>
<event>
 4    5  0.1230144E-007  0.1176725E+04  0.7818608E-02  0.9180086E-01
         -2   -1    0    0    0  501 -0.00000000000E+00  0.00000000000E+00  0.23898210528E+04  0.23898210529E+04  0.25500000000E-02 0.  1.
          2   -1    0    0  501    0  0.00000000000E+00 -0.00000000000E+00 -0.25481650409E+04  0.25481650409E+04  0.25500000000E-02 0. -1.
    8880023    1    1    2    0    0 -0.56486746377E+02  0.97348900007E+03  0.21369183676E+04  0.24394880409E+04  0.65864270000E+03 0.  1.
    8880022    1    1    2    0    0  0.56486746377E+02 -0.97348900007E+03 -0.22952623556E+04  0.24984980528E+04  0.15294330000E+03 0.  0.
<mgrwt>
<rscale>  0 0.11261358E+04</rscale>
<asrwt>0</asrwt>
<pdfrwt beam="1">  1        2 0.39202539E+00 0.11767250E+04</pdfrwt>
<pdfrwt beam="2">  1       -2 0.36766478E+00 0.11767250E+04</pdfrwt>
<totfact> 0.38915752E-02</totfact>
</mgrwt>
</event>
<event>
 4    5  0.7289609E-008  0.8678760E+03  0.7818608E-02  0.9579704E-01
         -2   -1    0    0    0  501 -0.00000000000E+00  0.00000000000E+00  0.10768645866E+04  0.10768645866E+04  0.25500000000E-02 0.  1.
          2   -1    0    0  501    0  0.00000000000E+00 -0.00000000000E+00 -0.19325704997E+04  0.19325704997E+04  0.25500000000E-02 0. -1.
    8880023    1    1    2    0    0 -0.39970394985E+03  0.39954395345E+03  0.84468179796E+03  0.12110723200E+04  0.65864270000E+03 0.  1.
    8880022    1    1    2    0    0  0.39970394985E+03 -0.39954395345E+03 -0.17003877111E+04  0.17983627663E+04  0.15294330000E+03 0.  0.
<mgrwt>
<rscale>  0 0.78654185E+03</rscale>
<asrwt>0</asrwt>
<pdfrwt beam="1">  1        2 0.29731854E+00 0.86787604E+03</pdfrwt>
<pdfrwt beam="2">  1       -2 0.16567148E+00 0.86787604E+03</pdfrwt>
<totfact> 0.16950699E+00</totfact>
</mgrwt>
</event>
<event>
 4    5  0.7289609E-008  0.8412518E+03  0.7818608E-02  0.9627824E-01
         -2   -1    0    0    0  501 -0.00000000000E+00  0.00000000000E+00  0.29099730654E+03  0.29099730655E+03  0.25500000000E-02 0.  1.
          2   -1    0    0  501    0  0.00000000000E+00 -0.00000000000E+00 -0.26814589755E+04  0.26814589755E+04  0.25500000000E-02 0. -1.
    8880023    1    1    2    0    0 -0.26213611729E+02 -0.52269227995E+03 -0.44432303060E+03  0.95138190793E+03  0.65864270000E+03 0.  0.
    8880022    1    1    2    0    0  0.26213611729E+02  0.52269227995E+03 -0.19461386384E+04  0.20210743742E+04  0.15294330000E+03 0.  0.
<mgrwt>
<rscale>  0 0.75481638E+03</rscale>
<asrwt>0</asrwt>
<pdfrwt beam="1">  1        2 0.41253213E+00 0.84125179E+03</pdfrwt>
<pdfrwt beam="2">  1       -2 0.44768818E-01 0.84125179E+03</pdfrwt>
<totfact> 0.13373159E+01</totfact>
</mgrwt>
</event>
<event>
 4    5  0.7289609E-008  0.1197569E+04  0.7818608E-02  0.9159489E-01
          2   -1    0    0  501    0  0.00000000000E+00  0.00000000000E+00  0.18952024721E+04  0.18952024721E+04  0.25500000000E-02 0. -1.
         -2   -1    0    0    0  501 -0.00000000000E+00 -0.00000000000E+00 -0.15854513947E+04  0.15854513947E+04  0.25500000000E-02 0.  1.
    8880023    1    1    2    0    0  0.37275282662E+03 -0.92812509627E+03 -0.11790509607E+04  0.16805749725E+04  0.65864270000E+03 0.  0.
    8880022    1    1    2    0    0 -0.37275282662E+03  0.92812509627E+03  0.14888020380E+04  0.18000788943E+04  0.15294330000E+03 0.  0.
<mgrwt>
<rscale>  0 0.11481529E+04</rscale>
<asrwt>0</asrwt>
<pdfrwt beam="1">  1        2 0.29156961E+00 0.11975688E+04</pdfrwt>
<pdfrwt beam="2">  1       -2 0.24391560E+00 0.11975688E+04</pdfrwt>
<totfact> 0.52048913E-01</totfact>
</mgrwt>
</event>
<event>
 4    5  0.7289609E-008  0.6938887E+03  0.7818608E-02  0.1002356E+00
          2   -1    0    0  501    0  0.00000000000E+00  0.00000000000E+00  0.11011252439E+04  0.11011252439E+04  0.25500000000E-02 0. -1.
         -2   -1    0    0    0  501 -0.00000000000E+00 -0.00000000000E+00 -0.68236788134E+03  0.68236788134E+03  0.25500000000E-02 0.  1.
    8880023    1    1    2    0    0 -0.20140043397E+03  0.84315960402E+02 -0.48150774462E+03  0.84458938566E+03  0.65864270000E+03 0.  0.
    8880022    1    1    2    0    0  0.20140043397E+03 -0.84315960402E+02  0.90026510721E+03  0.93890373961E+03  0.15294330000E+03 0. -1.
<mgrwt>
<rscale>  0 0.54628941E+03</rscale>
<asrwt>0</asrwt>
<pdfrwt beam="1">  1        2 0.16940388E+00 0.69388870E+03</pdfrwt>
<pdfrwt beam="2">  1       -2 0.10497967E+00 0.69388870E+03</pdfrwt>
<totfact> 0.16390997E+01</totfact>
</mgrwt>
</event>
<event>
 4    5  0.7289609E-008  0.1177629E+04  0.7818608E-02  0.9179181E-01
          2   -1    0    0  501    0  0.00000000000E+00  0.00000000000E+00  0.25509255550E+04  0.25509255550E+04  0.25500000000E-02 0. -1.
         -2   -1    0    0    0  501 -0.00000000000E+00 -0.00000000000E+00 -0.70790584200E+03  0.70790584201E+03  0.25500000000E-02 0.  1.
    8880023    1    1    2    0    0  0.29326849980E+03 -0.93112497693E+03  0.11413609819E+02  0.11776844282E+04  0.65864270000E+03 0.  1.
    8880022    1    1    2    0    0 -0.29326849980E+03  0.93112497693E+03  0.18316061032E+04  0.20811469688E+04  0.15294330000E+03 0.  0.
<mgrwt>
<rscale>  0 0.11270921E+04</rscale>
<asrwt>0</asrwt>
<pdfrwt beam="1">  1        2 0.39245009E+00 0.11776291E+04</pdfrwt>
<pdfrwt beam="2">  1       -2 0.10890859E+00 0.11776291E+04</pdfrwt>
<totfact> 0.21566440E+00</totfact>
</mgrwt>
</event>
<event>
 4    5  0.7289609E-008  0.1058507E+04  0.7818608E-02  0.9308724E-01
         -2   -1    0    0    0  501 -0.00000000000E+00  0.00000000000E+00  0.65281931101E+03  0.65281931101E+03  0.25500000000E-02 0.  1.
          2   -1    0    0  501    0  0.00000000000E+00 -0.00000000000E+00 -0.26709753037E+04  0.26709753037E+04  0.25500000000E-02 0. -1.
    8880023    1    1    2    0    0 -0.11554953629E+03 -0.82053358654E+03  0.81229296275E+02  0.10616192664E+04  0.65864270000E+03 0.  0.
    8880022    1    1    2    0    0  0.11554953629E+03  0.82053358654E+03 -0.20993852890E+04  0.22621753484E+04  0.15294330000E+03 0.  0.
<mgrwt>
<rscale>  0 0.99983665E+03</rscale>
<asrwt>0</asrwt>
<pdfrwt beam="1">  1        2 0.41091927E+00 0.10585071E+04</pdfrwt>
<pdfrwt beam="2">  1       -2 0.10043374E+00 0.10585071E+04</pdfrwt>
<totfact> 0.22671297E+00</totfact>
</mgrwt>
</event>
<event>
 4    5  0.7289609E-008  0.1101722E+04  0.7818608E-02  0.9259142E-01
         -2   -1    0    0    0  501 -0.00000000000E+00  0.00000000000E+00  0.36321866190E+03  0.36321866191E+03  0.25500000000E-02 0.  1.
          2   -1    0    0  501    0  0.00000000000E+00 -0.00000000000E+00 -0.29399804385E+04  0.29399804385E+04  0.25500000000E-02 0. -1.
    8880023    1    1    2    0    0  0.45031994854E+02  0.88201613670E+03 -0.99193996787E+03  0.14824761219E+04  0.65864270000E+03 0.  0.
    8880022    1    1    2    0    0 -0.45031994854E+02 -0.88201613670E+03 -0.15848218088E+04  0.18207229785E+04  0.15294330000E+03 0.  0.
<mgrwt>
<rscale>  0 0.10463296E+04</rscale>
<asrwt>0</asrwt>
<pdfrwt beam="1">  1        2 0.45230467E+00 0.11017216E+04</pdfrwt>
<pdfrwt beam="2">  1       -2 0.55879796E-01 0.11017216E+04</pdfrwt>
<totfact> 0.57536143E+00</totfact>
</mgrwt>
</event>
<event>
 4    5  0.7289609E-008  0.8764200E+03  0.7818608E-02  0.9564997E-01
         -2   -1    0    0    0  501 -0.00000000000E+00  0.00000000000E+00  0.58582928670E+03  0.58582928671E+03  0.25500000000E-02 0.  1.
          2   -1    0    0  501    0  0.00000000000E+00 -0.00000000000E+00 -0.25942206795E+04  0.25942206795E+04  0.25500000000E-02 0. -1.
    8880023    1    1    2    0    0  0.44998960385E+02  0.57643465060E+03  0.19422221856E+03  0.89768273309E+03  0.65864270000E+03 0.  1.
    8880022    1    1    2    0    0 -0.44998960385E+02 -0.57643465060E+03 -0.22026136113E+04  0.22823672331E+04  0.15294330000E+03 0.  0.
<mgrwt>
<rscale>  0 0.79656842E+03</rscale>
<asrwt>0</asrwt>
<pdfrwt beam="1">  1        2 0.39911087E+00 0.87642000E+03</pdfrwt>
<pdfrwt beam="2">  1       -2 0.90127584E-01 0.87642000E+03</pdfrwt>
<totfact> 0.33281066E+00</totfact>
</mgrwt>
</event>
<event>
 4    5  0.7289609E-008  0.7495456E+03  0.7818608E-02  0.9832966E-01
         -2   -1    0    0    0  501 -0.00000000000E+00  0.00000000000E+00  0.14670256880E+04  0.14670256880E+04  0.25500000000E-02 0.  1.
          2   -1    0    0  501    0  0.00000000000E+00 -0.00000000000E+00 -0.31804692458E+03  0.31804692459E+03  0.25500000000E-02 0. -1.
    8880023    1    1    2    0    0  0.24512327543E+03 -0.26062045160E+03  0.11765199999E+04  0.13949974754E+04  0.65864270000E+03 0.  1.
    8880022    1    1    2    0    0 -0.24512327543E+03  0.26062045160E+03 -0.27541236451E+02  0.39007513721E+03  0.15294330000E+03 0.  0.
<mgrwt>
<rscale>  0 0.63623026E+03</rscale>
<asrwt>0</asrwt>
<pdfrwt beam="1">  1        2 0.48930296E-01 0.74954563E+03</pdfrwt>
<pdfrwt beam="2">  1       -2 0.22569626E+00 0.74954563E+03</pdfrwt>
<totfact> 0.95673238E+00</totfact>
</mgrwt>
</event>
<event>
 4    5  0.7289609E-008  0.1618084E+04  0.7818608E-02  0.8830461E-01
          2   -1    0    0  501    0  0.00000000000E+00  0.00000000000E+00  0.11691392366E+04  0.11691392366E+04  0.25500000000E-02 0. -1.
         -2   -1    0    0    0  501 -0.00000000000E+00 -0.00000000000E+00 -0.27959274982E+04  0.27959274982E+04  0.25500000000E-02 0.  1.
    8880023    1    1    2    0    0 -0.14457497711E+04 -0.30690955690E+03 -0.18552603742E+04  0.24617447347E+04  0.65864270000E+03 0.  0.
    8880022    1    1    2    0    0  0.14457497711E+04  0.30690955690E+03  0.22847211255E+03  0.15033220001E+04  0.15294330000E+03 0.  0.
<mgrwt>
<rscale>  0 0.15839637E+04</rscale>
<asrwt>0</asrwt>
<pdfrwt beam="1">  1        2 0.17986758E+00 0.16180841E+04</pdfrwt>
<pdfrwt beam="2">  1       -2 0.43014269E+00 0.16180841E+04</pdfrwt>
<totfact> 0.86692638E-02</totfact>
</mgrwt>
</event>
<event>
 4    5  0.7289609E-008  0.7360544E+03  0.7818608E-02  0.9871593E-01
          2   -1    0    0  501    0  0.00000000000E+00  0.00000000000E+00  0.15359200739E+04  0.15359200739E+04  0.25500000000E-02 0. -1.
         -2   -1    0    0    0  501 -0.00000000000E+00 -0.00000000000E+00 -0.20640758751E+03  0.20640758752E+03  0.25500000000E-02 0.  1.
    8880023    1    1    2    0    0  0.23599241254E+03  0.22863393944E+03  0.69902699636E+03  0.10150935154E+04  0.65864270000E+03 0.  1.
    8880022    1    1    2    0    0 -0.23599241254E+03 -0.22863393944E+03  0.63048549007E+03  0.72723414610E+03  0.15294330000E+03 0.  0.
<mgrwt>
<rscale>  0 0.61657984E+03</rscale>
<asrwt>0</asrwt>
<pdfrwt beam="1">  1        2 0.23629540E+00 0.73605442E+03</pdfrwt>
<pdfrwt beam="2">  1       -2 0.31755013E-01 0.73605442E+03</pdfrwt>
<totfact> 0.11379313E+02</totfact>
</mgrwt>
</event>
<event>
 4    5  0.7289609E-008  0.7911904E+03  0.7818608E-02  0.9730178E-01
          2   -1    0    0  501    0  0.00000000000E+00  0.00000000000E+00  0.36395136108E+04  0.36395136108E+04  0.25500000000E-02 0. -1.
         -2   -1    0    0    0  501 -0.00000000000E+00 -0.00000000000E+00 -0.42055484358E+03  0.42055484359E+03  0.25500000000E-02 0.  1.
    8880023    1    1    2    0    0  0.43157551119E+03 -0.76906824860E+02 -0.16603171319E+02  0.79136461453E+03  0.65864270000E+03 0.  1.
    8880022    1    1    2    0    0 -0.43157551119E+03  0.76906824860E+02  0.32355619385E+04  0.32687038398E+04  0.15294330000E+03 0.  0.
<mgrwt>
<rscale>  0 0.69248079E+03</rscale>
<asrwt>0</asrwt>
<pdfrwt beam="1">  1        2 0.55992516E+00 0.79119042E+03</pdfrwt>
<pdfrwt beam="2">  1       -2 0.64700747E-01 0.79119042E+03</pdfrwt>
<totfact> 0.15450424E+00</totfact>
</mgrwt>
</event>
<event>
 4    5  0.7289609E-008  0.8871753E+03  0.7818608E-02  0.9546941E-01
         -2   -1    0    0    0  501 -0.00000000000E+00  0.00000000000E+00  0.23833026637E+04  0.23833026637E+04  0.25500000000E-02 0.  1.
          2   -1    0    0  501    0  0.00000000000E+00 -0.00000000000E+00 -0.35480790184E+03  0.35480790184E+03  0.25500000000E-02 0. -1.
    8880023    1    1    2    0    0 -0.58392937339E+03 -0.11088902745E+03  0.19197363293E+04  0.21148209546E+04  0.65864270000E+03 0.  1.
    8880022    1    1    2    0    0  0.58392937339E+03  0.11088902745E+03  0.10875843258E+03  0.62328961101E+03  0.15294330000E+03 0.  0.
<mgrwt>
<rscale>  0 0.80909778E+03</rscale>
<asrwt>0</asrwt>
<pdfrwt beam="1">  1        2 0.54585831E-01 0.88717535E+03</pdfrwt>
<pdfrwt beam="2">  1       -2 0.36666195E+00 0.88717535E+03</pdfrwt>
<totfact> 0.11476826E+00</totfact>
</mgrwt>
</event>
<event>
 4    5  0.7289609E-008  0.7240971E+03  0.7818608E-02  0.9908959E-01
          2   -1    0    0  501    0  0.00000000000E+00  0.00000000000E+00  0.20827073627E+04  0.20827073627E+04  0.25500000000E-02 0. -1.
         -2   -1    0    0    0  501 -0.00000000000E+00 -0.00000000000E+00 -0.21051578208E+03  0.21051578210E+03  0.25500000000E-02 0.  1.
    8880023    1    1    2    0    0 -0.22828410980E+03 -0.19594072144E+03  0.18107845523E+04  0.19501941704E+04  0.65864270000E+03 0.  0.
    8880022    1    1    2    0    0  0.22828410980E+03  0.19594072144E+03  0.61407028249E+02  0.34302897434E+03  0.15294330000E+03 0.  0.
<mgrwt>
<rscale>  0 0.59829055E+03</rscale>
<asrwt>0</asrwt>
<pdfrwt beam="1">  1        2 0.32041651E+00 0.72409710E+03</pdfrwt>
<pdfrwt beam="2">  1       -2 0.32387044E-01 0.72409710E+03</pdfrwt>
<totfact> 0.55167412E+01</totfact>
</mgrwt>
</event>
<event>
 4    5  0.7289609E-008  0.8078409E+03  0.7818608E-02  0.9694092E-01
         -2   -1    0    0    0  501 -0.00000000000E+00  0.00000000000E+00  0.80155405472E+03  0.80155405473E+03  0.25500000000E-02 0.  1.
          2   -1    0    0  501    0  0.00000000000E+00 -0.00000000000E+00 -0.92269790790E+03  0.92269790791E+03  0.25500000000E-02 0. -1.
    8880023    1    1    2    0    0  0.23001067950E+03  0.40729812297E+03  0.48595660576E+03  0.94274105809E+03  0.65864270000E+03 0.  1.
    8880022    1    1    2    0    0 -0.23001067950E+03 -0.40729812297E+03 -0.60710045894E+03  0.78151090454E+03  0.15294330000E+03 0.  1.
<mgrwt>
<rscale>  0 0.71369642E+03</rscale>
<asrwt>0</asrwt>
<pdfrwt beam="1">  1        2 0.14195352E+00 0.80784088E+03</pdfrwt>
<pdfrwt beam="2">  1       -2 0.12331601E+00 0.80784088E+03</pdfrwt>
<totfact> 0.14182660E+01</totfact>
</mgrwt>
</event>
<event>
 4    5  0.7289609E-008  0.1043003E+04  0.7818608E-02  0.9327340E-01
          2   -1    0    0  501    0  0.00000000000E+00  0.00000000000E+00  0.12112167316E+04  0.12112167316E+04  0.25500000000E-02 0. -1.
         -2   -1    0    0    0  501 -0.00000000000E+00 -0.00000000000E+00 -0.76029369834E+03  0.76029369834E+03  0.25500000000E-02 0.  1.
    8880023    1    1    2    0    0 -0.69814322143E+03 -0.40821689001E+03  0.21653713313E+02  0.10432277203E+04  0.65864270000E+03 0.  0.
    8880022    1    1    2    0    0  0.69814322143E+03  0.40821689001E+03  0.42926931999E+03  0.92828270964E+03  0.15294330000E+03 0.  0.
<mgrwt>
<rscale>  0 0.98304352E+03</rscale>
<asrwt>0</asrwt>
<pdfrwt beam="1">  1        2 0.18634103E+00 0.10430030E+04</pdfrwt>
<pdfrwt beam="2">  1       -2 0.11696826E+00 0.10430030E+04</pdfrwt>
<totfact> 0.10434040E+01</totfact>
</mgrwt>
</event>
<event>
 4    5  0.7289609E-008  0.8895154E+03  0.7818608E-02  0.9543077E-01
         -2   -1    0    0    0  501 -0.00000000000E+00  0.00000000000E+00  0.53644474137E+03  0.53644474137E+03  0.25500000000E-02 0.  1.
          2   -1    0    0  501    0  0.00000000000E+00 -0.00000000000E+00 -0.22475939104E+04  0.22475939104E+04  0.25500000000E-02 0. -1.
    8880023    1    1    2    0    0  0.39649555623E+03  0.44745811969E+03  0.76571529824E+02  0.89280507415E+03  0.65864270000E+03 0.  1.
    8880022    1    1    2    0    0 -0.39649555623E+03 -0.44745811969E+03 -0.17877206989E+04  0.18912335776E+04  0.15294330000E+03 0.  0.
<mgrwt>
<rscale>  0 0.81181106E+03</rscale>
<asrwt>0</asrwt>
<pdfrwt beam="1">  1        2 0.34578367E+00 0.88951543E+03</pdfrwt>
<pdfrwt beam="2">  1       -2 0.82529961E-01 0.88951543E+03</pdfrwt>
<totfact> 0.63811461E+00</totfact>
</mgrwt>
</event>
<event>
 4    5  0.7289609E-008  0.1422813E+04  0.7818608E-02  0.8966156E-01
         -2   -1    0    0    0  501 -0.00000000000E+00  0.00000000000E+00  0.18509216878E+04  0.18509216878E+04  0.25500000000E-02 0.  1.
          2   -1    0    0  501    0  0.00000000000E+00 -0.00000000000E+00 -0.18379662499E+04  0.18379662499E+04  0.25500000000E-02 0. -1.
    8880023    1    1    2    0    0 -0.69194063968E+03  0.10544216037E+04  0.12659816655E+04  0.19044964035E+04  0.65864270000E+03 0.  0.
    8880022    1    1    2    0    0  0.69194063968E+03 -0.10544216037E+04 -0.12530262276E+04  0.17843915342E+04  0.15294330000E+03 0.  0.
<mgrwt>
<rscale>  0 0.13830825E+04</rscale>
<asrwt>0</asrwt>
<pdfrwt beam="1">  1        2 0.28276404E+00 0.14228130E+04</pdfrwt>
<pdfrwt beam="2">  1       -2 0.28475718E+00 0.14228130E+04</pdfrwt>
<totfact> 0.30655723E-01</totfact>
</mgrwt>
</event>
<event>
 4    5  0.7289609E-008  0.1379111E+04  0.7818608E-02  0.9000086E-01
         -2   -1    0    0    0  501 -0.00000000000E+00  0.00000000000E+00  0.79567871502E+03  0.79567871503E+03  0.25500000000E-02 0.  1.
          2   -1    0    0  501    0  0.00000000000E+00 -0.00000000000E+00 -0.27396954910E+04  0.27396954910E+04  0.25500000000E-02 0. -1.
    8880023    1    1    2    0    0  0.10287289986E+04 -0.64019900823E+03 -0.18138845609E+03  0.13909888932E+04  0.65864270000E+03 0.  0.
    8880022    1    1    2    0    0 -0.10287289986E+04  0.64019900823E+03 -0.17626283199E+04  0.21443853128E+04  0.15294330000E+03 0.  0.
<mgrwt>
<rscale>  0 0.13378379E+04</rscale>
<asrwt>0</asrwt>
<pdfrwt beam="1">  1        2 0.42149161E+00 0.13791114E+04</pdfrwt>
<pdfrwt beam="2">  1       -2 0.12241211E+00 0.13791114E+04</pdfrwt>
<totfact> 0.12230960E+00</totfact>
</mgrwt>
</event>
<event>
 4    5  0.7289609E-008  0.9247827E+03  0.7818608E-02  0.9487364E-01
          2   -1    0    0  501    0  0.00000000000E+00  0.00000000000E+00  0.14217576512E+04  0.14217576512E+04  0.25500000000E-02 0. -1.
         -2   -1    0    0    0  501 -0.00000000000E+00 -0.00000000000E+00 -0.67030186526E+03  0.67030186527E+03  0.25500000000E-02 0.  1.
    8880023    1    1    2    0    0  0.57705066490E+03 -0.29736388811E+03 -0.18428579871E+03  0.94296564820E+03  0.65864270000E+03 0.  1.
    8880022    1    1    2    0    0 -0.57705066490E+03  0.29736388811E+03  0.93574158462E+03  0.11490938682E+04  0.15294330000E+03 0.  0.
<mgrwt>
<rscale>  0 0.85221837E+03</rscale>
<asrwt>0</asrwt>
<pdfrwt beam="1">  1        2 0.21873195E+00 0.92478265E+03</pdfrwt>
<pdfrwt beam="2">  1       -2 0.10312336E+00 0.92478265E+03</pdfrwt>
<totfact> 0.10819216E+01</totfact>
</mgrwt>
</event>
<event>
 4    5  0.7289609E-008  0.1209850E+04  0.7818608E-02  0.9147606E-01
         -2   -1    0    0    0  501 -0.00000000000E+00  0.00000000000E+00  0.10384329198E+04  0.10384329198E+04  0.25500000000E-02 0.  1.
          2   -1    0    0  501    0  0.00000000000E+00 -0.00000000000E+00 -0.24405346260E+04  0.24405346260E+04  0.25500000000E-02 0. -1.
    8880023    1    1    2    0    0  0.88572525280E+03  0.49539649805E+03  0.50676005206E+03  0.13116946559E+04  0.65864270000E+03 0.  0.
    8880022    1    1    2    0    0 -0.88572525280E+03 -0.49539649805E+03 -0.19088617583E+04  0.21672728898E+04  0.15294330000E+03 0.  0.
<mgrwt>
<rscale>  0 0.11610973E+04</rscale>
<asrwt>0</asrwt>
<pdfrwt beam="1">  1        2 0.37546686E+00 0.12098500E+04</pdfrwt>
<pdfrwt beam="2">  1       -2 0.15975891E+00 0.12098500E+04</pdfrwt>
<totfact> 0.92932572E-01</totfact>
</mgrwt>
</event>
<event>
 4    5  0.7289609E-008  0.8294278E+03  0.7818608E-02  0.9650447E-01
         -2   -1    0    0    0  501 -0.00000000000E+00  0.00000000000E+00  0.34718360375E+03  0.34718360376E+03  0.25500000000E-02 0.  1.
          2   -1    0    0  501    0  0.00000000000E+00 -0.00000000000E+00 -0.25434768829E+04  0.25434768829E+04  0.25500000000E-02 0. -1.
    8880023    1    1    2    0    0 -0.30745515521E+03 -0.39951425789E+03 -0.23822432347E+03  0.86296080402E+03  0.65864270000E+03 0.  0.
    8880022    1    1    2    0    0  0.30745515521E+03  0.39951425789E+03 -0.19580689556E+04  0.20276996826E+04  0.15294330000E+03 0.  0.
<mgrwt>
<rscale>  0 0.74045399E+03</rscale>
<asrwt>0</asrwt>
<pdfrwt beam="1">  1        2 0.39130412E+00 0.82942783E+03</pdfrwt>
<pdfrwt beam="2">  1       -2 0.53412864E-01 0.82942783E+03</pdfrwt>
<totfact> 0.11245130E+01</totfact>
</mgrwt>
</event>
<event>
 4    5  0.7289609E-008  0.1243532E+04  0.7818608E-02  0.9115925E-01
         -2   -1    0    0    0  501 -0.00000000000E+00  0.00000000000E+00  0.11187930990E+04  0.11187930990E+04  0.25500000000E-02 0.  1.
          2   -1    0    0  501    0  0.00000000000E+00 -0.00000000000E+00 -0.19561018111E+04  0.19561018111E+04  0.25500000000E-02 0. -1.
    8880023    1    1    2    0    0  0.99672207091E+03 -0.34511843080E+03  0.52107462010E+03  0.13482917280E+04  0.65864270000E+03 0.  1.
    8880022    1    1    2    0    0 -0.99672207091E+03  0.34511843080E+03 -0.13583833322E+04  0.17266031820E+04  0.15294330000E+03 0.  0.
<mgrwt>
<rscale>  0 0.11965002E+04</rscale>
<asrwt>0</asrwt>
<pdfrwt beam="1">  1        2 0.30093874E+00 0.12435320E+04</pdfrwt>
<pdfrwt beam="2">  1       -2 0.17212202E+00 0.12435320E+04</pdfrwt>
<totfact> 0.14068405E+00</totfact>
</mgrwt>
</event>
<event>
 4    5  0.7289609E-008  0.7931076E+03  0.7818608E-02  0.9725902E-01
          2   -1    0    0  501    0  0.00000000000E+00  0.00000000000E+00  0.13515821818E+04  0.13515821818E+04  0.25500000000E-02 0. -1.
         -2   -1    0    0    0  501 -0.00000000000E+00 -0.00000000000E+00 -0.58873706391E+03  0.58873706391E+03  0.25500000000E-02 0.  1.
    8880023    1    1    2    0    0 -0.34415704632E+03  0.27706567905E+03 -0.24434914004E+03  0.82989527746E+03  0.65864270000E+03 0.  1.
    8880022    1    1    2    0    0  0.34415704632E+03 -0.27706567905E+03  0.10071942579E+04  0.11104239682E+04  0.15294330000E+03 0.  0.
<mgrwt>
<rscale>  0 0.69495332E+03</rscale>
<asrwt>0</asrwt>
<pdfrwt beam="1">  1        2 0.20793572E+00 0.79310760E+03</pdfrwt>
<pdfrwt beam="2">  1       -2 0.90574934E-01 0.79310760E+03</pdfrwt>
<totfact> 0.16332384E+01</totfact>
</mgrwt>
</event>
<event>
 4    5  0.7289609E-008  0.1015758E+04  0.7818608E-02  0.9361225E-01
          2   -1    0    0  501    0  0.00000000000E+00  0.00000000000E+00  0.12514770149E+04  0.12514770149E+04  0.25500000000E-02 0. -1.
         -2   -1    0    0    0  501 -0.00000000000E+00 -0.00000000000E+00 -0.73842286641E+03  0.73842286642E+03  0.25500000000E-02 0.  1.
    8880023    1    1    2    0    0  0.62871641056E+02  0.77071533519E+03 -0.56625379188E+02  0.10173355449E+04  0.65864270000E+03 0.  1.
    8880022    1    1    2    0    0 -0.62871641056E+02 -0.77071533519E+03  0.56967952768E+03  0.97256433639E+03  0.15294330000E+03 0.  0.
<mgrwt>
<rscale>  0 0.95336580E+03</rscale>
<asrwt>0</asrwt>
<pdfrwt beam="1">  1        2 0.19253492E+00 0.10157584E+04</pdfrwt>
<pdfrwt beam="2">  1       -2 0.11360352E+00 0.10157584E+04</pdfrwt>
<totfact> 0.10635796E+01</totfact>
</mgrwt>
</event>
<event>
 4    5  0.7289609E-008  0.7935255E+03  0.7818608E-02  0.9724974E-01
         -2   -1    0    0    0  501 -0.00000000000E+00  0.00000000000E+00  0.16110319590E+03  0.16110319592E+03  0.25500000000E-02 0.  1.
          2   -1    0    0  501    0  0.00000000000E+00 -0.00000000000E+00 -0.37885892224E+04  0.37885892224E+04  0.25500000000E-02 0. -1.
    8880023    1    1    2    0    0  0.44163625070E+03 -0.28807471198E+02 -0.97937101155E+03  0.12604960265E+04  0.65864270000E+03 0.  0.
    8880022    1    1    2    0    0 -0.44163625070E+03  0.28807471198E+02 -0.26481150150E+04  0.26891963919E+04  0.15294330000E+03 0.  0.
<mgrwt>
<rscale>  0 0.69549112E+03</rscale>
<asrwt>0</asrwt>
<pdfrwt beam="1">  1        2 0.58285981E+00 0.79352546E+03</pdfrwt>
<pdfrwt beam="2">  1       -2 0.24785110E-01 0.79352546E+03</pdfrwt>
<totfact> 0.79024148E+00</totfact>
</mgrwt>
</event>
<event>
 4    5  0.7289609E-008  0.6783693E+03  0.7818608E-02  0.1010262E+00
          2   -1    0    0  501    0  0.00000000000E+00  0.00000000000E+00  0.38482402066E+03  0.38482402066E+03  0.25500000000E-02 0. -1.
         -2   -1    0    0    0  501 -0.00000000000E+00 -0.00000000000E+00 -0.86550720500E+03  0.86550720501E+03  0.25500000000E-02 0.  1.
    8880023    1    1    2    0    0 -0.11460064258E+03  0.11507118821E+03 -0.67316516890E+03  0.95568626469E+03  0.65864270000E+03 0.  1.
    8880022    1    1    2    0    0  0.11460064258E+03 -0.11507118821E+03  0.19248198456E+03  0.29464496098E+03  0.15294330000E+03 0.  0.
<mgrwt>
<rscale>  0 0.51370831E+03</rscale>
<asrwt>0</asrwt>
<pdfrwt beam="1">  1        2 0.59203695E-01 0.67836929E+03</pdfrwt>
<pdfrwt beam="2">  1       -2 0.13315495E+00 0.67836929E+03</pdfrwt>
<totfact> 0.34522609E+01</totfact>
</mgrwt>
</event>
<event>
 4    5  0.7289609E-008  0.1066609E+04  0.7818608E-02  0.9299176E-01
         -2   -1    0    0    0  501 -0.00000000000E+00  0.00000000000E+00  0.15038885644E+04  0.15038885644E+04  0.25500000000E-02 0.  1.
          2   -1    0    0  501    0  0.00000000000E+00 -0.00000000000E+00 -0.10965633382E+04  0.10965633382E+04  0.25500000000E-02 0. -1.
    8880023    1    1    2    0    0  0.79060529452E+03 -0.28069290516E+03  0.10772829631E+04  0.15159795604E+04  0.65864270000E+03 0.  1.
    8880022    1    1    2    0    0 -0.79060529452E+03  0.28069290516E+03 -0.66995773686E+03  0.10844723422E+04  0.15294330000E+03 0.  0.
<mgrwt>
<rscale>  0 0.10085874E+04</rscale>
<asrwt>0</asrwt>
<pdfrwt beam="1">  1        2 0.16870205E+00 0.10666093E+04</pdfrwt>
<pdfrwt beam="2">  1       -2 0.23136747E+00 0.10666093E+04</pdfrwt>
<totfact> 0.18109009E+00</totfact>
</mgrwt>
</event>
<event>
 4    5  0.7289609E-008  0.1289551E+04  0.7818608E-02  0.9074636E-01
          2   -1    0    0  501    0  0.00000000000E+00  0.00000000000E+00  0.24450986430E+04  0.24450986430E+04  0.25500000000E-02 0. -1.
         -2   -1    0    0    0  501 -0.00000000000E+00 -0.00000000000E+00 -0.94108682005E+03  0.94108682005E+03  0.25500000000E-02 0.  1.
    8880023    1    1    2    0    0  0.93454099006E+03  0.59645970069E+03 -0.24221383875E+03  0.13121009057E+04  0.65864270000E+03 0.  0.
    8880022    1    1    2    0    0 -0.93454099006E+03 -0.59645970069E+03  0.17462256617E+04  0.20740845574E+04  0.15294330000E+03 0.  0.
<mgrwt>
<rscale>  0 0.12446637E+04</rscale>
<asrwt>0</asrwt>
<pdfrwt beam="1">  1        2 0.37616902E+00 0.12895508E+04</pdfrwt>
<pdfrwt beam="2">  1       -2 0.14478259E+00 0.12895508E+04</pdfrwt>
<totfact> 0.11913954E+00</totfact>
</mgrwt>
</event>
<event>
 4    5  0.7289609E-008  0.1029702E+04  0.7818608E-02  0.9343690E-01
          2   -1    0    0  501    0  0.00000000000E+00  0.00000000000E+00  0.21910721930E+04  0.21910721930E+04  0.25500000000E-02 0. -1.
         -2   -1    0    0    0  501 -0.00000000000E+00 -0.00000000000E+00 -0.47502604161E+03  0.47502604162E+03  0.25500000000E-02 0.  1.
    8880023    1    1    2    0    0  0.35982981261E+02 -0.79068417886E+03  0.36434484263E+03  0.10922607822E+04  0.65864270000E+03 0.  0.
    8880022    1    1    2    0    0 -0.35982981261E+02  0.79068417886E+03  0.13517013087E+04  0.15738374524E+04  0.15294330000E+03 0.  0.
<mgrwt>
<rscale>  0 0.96858300E+03</rscale>
<asrwt>0</asrwt>
<pdfrwt beam="1">  1        2 0.33708803E+00 0.10297021E+04</pdfrwt>
<pdfrwt beam="2">  1       -2 0.73080929E-01 0.10297021E+04</pdfrwt>
<totfact> 0.88517151E+00</totfact>
</mgrwt>
</event>
<event>
 4    5  0.7289609E-008  0.1032388E+04  0.7818608E-02  0.9340359E-01
         -2   -1    0    0    0  501 -0.00000000000E+00  0.00000000000E+00  0.45613122272E+03  0.45613122273E+03  0.25500000000E-02 0.  1.
          2   -1    0    0  501    0  0.00000000000E+00 -0.00000000000E+00 -0.49256936625E+04  0.49256936625E+04  0.25500000000E-02 0. -1.
    8880023    1    1    2    0    0 -0.76152092413E+03  0.22825721416E+03 -0.21965615522E+03  0.10554972792E+04  0.65864270000E+03 0.  0.
    8880022    1    1    2    0    0  0.76152092413E+03 -0.22825721416E+03 -0.42499062846E+04  0.43263276060E+04  0.15294330000E+03 0.  0.
<mgrwt>
<rscale>  0 0.97150762E+03</rscale>
<asrwt>0</asrwt>
<pdfrwt beam="1">  1        2 0.75779899E+00 0.10323883E+04</pdfrwt>
<pdfrwt beam="2">  1       -2 0.70174038E-01 0.10323883E+04</pdfrwt>
<totfact> 0.85548672E-02</totfact>
</mgrwt>
</event>
<event>
 4    5  0.1016287E-007  0.1786120E+04  0.7818608E-02  0.8730253E-01
         -2   -1    0    0    0  501 -0.00000000000E+00  0.00000000000E+00  0.19999734083E+04  0.19999734083E+04  0.25500000000E-02 0.  1.
          2   -1    0    0  501    0  0.00000000000E+00 -0.00000000000E+00 -0.30626179455E+04  0.30626179455E+04  0.25500000000E-02 0. -1.
    8880023    1    1    2    0    0 -0.94082483861E+03  0.13679414117E+04  0.12726929242E+04  0.21931649661E+04  0.65864270000E+03 0.  0.
    8880022    1    1    2    0    0  0.94082483861E+03 -0.13679414117E+04 -0.23353374614E+04  0.28694263877E+04  0.15294330000E+03 0.  0.
<mgrwt>
<rscale>  0 0.17556374E+04</rscale>
<asrwt>0</asrwt>
<pdfrwt beam="1">  1        2 0.47117199E+00 0.17861202E+04</pdfrwt>
<pdfrwt beam="2">  1       -2 0.30768822E+00 0.17861202E+04</pdfrwt>
<totfact> 0.41075887E-02</totfact>
</mgrwt>
</event>
<event>
 4    5  0.7289609E-008  0.1186411E+04  0.7818608E-02  0.9170446E-01
         -2   -1    0    0    0  501 -0.00000000000E+00  0.00000000000E+00  0.41017468240E+03  0.41017468241E+03  0.25500000000E-02 0.  1.
          2   -1    0    0  501    0  0.00000000000E+00 -0.00000000000E+00 -0.40669520826E+04  0.40669520826E+04  0.25500000000E-02 0. -1.
    8880023    1    1    2    0    0 -0.86738773681E+03 -0.47053101800E+03 -0.74995763441E+03  0.14035695866E+04  0.65864270000E+03 0.  0.
    8880022    1    1    2    0    0  0.86738773681E+03  0.47053101800E+03 -0.29068197658E+04  0.30735571784E+04  0.15294330000E+03 0.  0.
<mgrwt>
<rscale>  0 0.11363748E+04</rscale>
<asrwt>0</asrwt>
<pdfrwt beam="1">  1        2 0.62568491E+00 0.11864110E+04</pdfrwt>
<pdfrwt beam="2">  1       -2 0.63103800E-01 0.11864110E+04</pdfrwt>
<totfact> 0.71789993E-01</totfact>
</mgrwt>
</event>
<event>
 4    5  0.7289609E-008  0.8228751E+03  0.7818608E-02  0.9663358E-01
         -2   -1    0    0    0  501 -0.00000000000E+00  0.00000000000E+00  0.44332654795E+03  0.44332654796E+03  0.25500000000E-02 0.  1.
          2   -1    0    0  501    0  0.00000000000E+00 -0.00000000000E+00 -0.25474864763E+04  0.25474864763E+04  0.25500000000E-02 0. -1.
    8880023    1    1    2    0    0  0.11654434988E+01  0.49326653023E+03  0.13673276580E+01  0.82287623854E+03  0.65864270000E+03 0.  0.
    8880022    1    1    2    0    0 -0.11654434988E+01 -0.49326653023E+03 -0.21055272560E+04  0.21679367857E+04  0.15294330000E+03 0.  0.
<mgrwt>
<rscale>  0 0.73241008E+03</rscale>
<asrwt>0</asrwt>
<pdfrwt beam="1">  1        2 0.39192099E+00 0.82287510E+03</pdfrwt>
<pdfrwt beam="2">  1       -2 0.68204086E-01 0.82287510E+03</pdfrwt>
<totfact> 0.66714370E+00</totfact>
</mgrwt>
</event>
<event>
 4    5  0.7289609E-008  0.8945442E+03  0.7818608E-02  0.9534847E-01
          2   -1    0    0  501    0  0.00000000000E+00  0.00000000000E+00  0.50322512119E+03  0.50322512120E+03  0.25500000000E-02 0. -1.
         -2   -1    0    0    0  501 -0.00000000000E+00 -0.00000000000E+00 -0.29761449191E+04  0.29761449191E+04  0.25500000000E-02 0.  1.
    8880023    1    1    2    0    0 -0.54404152718E+03 -0.26536367352E+03 -0.26770189545E+04  0.28225236494E+04  0.65864270000E+03 0.  1.
    8880022    1    1    2    0    0  0.54404152718E+03  0.26536367352E+03  0.20409915657E+03  0.65684639090E+03  0.15294330000E+03 0.  0.
<mgrwt>
<rscale>  0 0.81762710E+03</rscale>
<asrwt>0</asrwt>
<pdfrwt beam="1">  1        2 0.77419251E-01 0.89454417E+03</pdfrwt>
<pdfrwt beam="2">  1       -2 0.45786844E+00 0.89454417E+03</pdfrwt>
<totfact> 0.19530680E-01</totfact>
</mgrwt>
</event>
<event>
 4    5  0.7289609E-008  0.1293290E+04  0.7818608E-02  0.9071376E-01
          2   -1    0    0  501    0  0.00000000000E+00  0.00000000000E+00  0.27174198105E+04  0.27174198105E+04  0.25500000000E-02 0. -1.
         -2   -1    0    0    0  501 -0.00000000000E+00 -0.00000000000E+00 -0.81937305415E+03  0.81937305416E+03  0.25500000000E-02 0.  1.
    8880023    1    1    2    0    0  0.33016860539E+03 -0.10629095359E+04 -0.43064067264E+02  0.12940064566E+04  0.65864270000E+03 0.  0.
    8880022    1    1    2    0    0 -0.33016860539E+03  0.10629095359E+04  0.19411108236E+04  0.22427864081E+04  0.15294330000E+03 0.  0.
<mgrwt>
<rscale>  0 0.12485674E+04</rscale>
<asrwt>0</asrwt>
<pdfrwt beam="1">  1        2 0.41806459E+00 0.12932897E+04</pdfrwt>
<pdfrwt beam="2">  1       -2 0.12605739E+00 0.12932897E+04</pdfrwt>
<totfact> 0.11823876E+00</totfact>
</mgrwt>
</event>
<event>
 4    5  0.7289609E-008  0.1350206E+04  0.7818608E-02  0.9023372E-01
         -2   -1    0    0    0  501 -0.00000000000E+00  0.00000000000E+00  0.69923875086E+03  0.69923875087E+03  0.25500000000E-02 0.  1.
          2   -1    0    0  501    0  0.00000000000E+00 -0.00000000000E+00 -0.38590759249E+04  0.38590759249E+04  0.25500000000E-02 0. -1.
    8880023    1    1    2    0    0 -0.74332527142E+03  0.91472108143E+03 -0.19512458329E+03  0.13642327240E+04  0.65864270000E+03 0.  0.
    8880022    1    1    2    0    0  0.74332527142E+03 -0.91472108143E+03 -0.29647125907E+04  0.31940819518E+04  0.15294330000E+03 0.  0.
<mgrwt>
<rscale>  0 0.13078382E+04</rscale>
<asrwt>0</asrwt>
<pdfrwt beam="1">  1        2 0.59370398E+00 0.13502064E+04</pdfrwt>
<pdfrwt beam="2">  1       -2 0.10757519E+00 0.13502064E+04</pdfrwt>
<totfact> 0.30240068E-01</totfact>
</mgrwt>
</event>
<event>
 4    5  0.7289609E-008  0.6761269E+03  0.7818608E-02  0.1011605E+00
          2   -1    0    0  501    0  0.00000000000E+00  0.00000000000E+00  0.12523522070E+04  0.12523522071E+04  0.25500000000E-02 0. -1.
         -2   -1    0    0    0  501 -0.00000000000E+00 -0.00000000000E+00 -0.26073855338E+03  0.26073855340E+03  0.25500000000E-02 0.  1.
    8880023    1    1    2    0    0 -0.46728267868E+02  0.14544377836E+03  0.21885344260E+03  0.71066480093E+03  0.65864270000E+03 0.  1.
    8880022    1    1    2    0    0  0.46728267868E+02 -0.14544377836E+03  0.77276021107E+03  0.80242595952E+03  0.15294330000E+03 0.  0.
<mgrwt>
<rscale>  0 0.50841643E+03</rscale>
<asrwt>0</asrwt>
<pdfrwt beam="1">  1        2 0.19266958E+00 0.67612693E+03</pdfrwt>
<pdfrwt beam="2">  1       -2 0.40113623E-01 0.67612693E+03</pdfrwt>
<totfact> 0.10595399E+02</totfact>
</mgrwt>
</event>
<event>
 4    5  0.7289609E-008  0.6897663E+03  0.7818608E-02  0.1004264E+00
          2   -1    0    0  501    0  0.00000000000E+00  0.00000000000E+00  0.15967250591E+04  0.15967250591E+04  0.25500000000E-02 0. -1.
         -2   -1    0    0    0  501 -0.00000000000E+00 -0.00000000000E+00 -0.78883632423E+03  0.78883632424E+03  0.25500000000E-02 0.  1.
    8880023    1    1    2    0    0 -0.28162134816E+02 -0.20291425468E+03 -0.62453928476E+03  0.93049815962E+03  0.65864270000E+03 0.  1.
    8880022    1    1    2    0    0  0.28162134816E+02  0.20291425468E+03  0.14324280196E+04  0.14550632237E+04  0.15294330000E+03 0.  0.
<mgrwt>
<rscale>  0 0.53819493E+03</rscale>
<asrwt>0</asrwt>
<pdfrwt beam="1">  1        2 0.24565001E+00 0.68976627E+03</pdfrwt>
<pdfrwt beam="2">  1       -2 0.12135943E+00 0.68976627E+03</pdfrwt>
<totfact> 0.59949750E+00</totfact>
</mgrwt>
</event>
<event>
 4    5  0.1418977E-007  0.1539171E+04  0.7818608E-02  0.8882460E-01
          2   -1    0    0  501    0  0.00000000000E+00  0.00000000000E+00  0.32435930323E+04  0.32435930323E+04  0.25500000000E-02 0. -1.
         -2   -1    0    0    0  501 -0.00000000000E+00 -0.00000000000E+00 -0.18579775265E+04  0.18579775265E+04  0.25500000000E-02 0.  1.
    8880023    1    1    2    0    0  0.47554363893E+03 -0.13073235830E+04 -0.13379969068E+04  0.20394319385E+04  0.65864270000E+03 0.  1.
    8880022    1    1    2    0    0 -0.47554363893E+03  0.13073235830E+04  0.27236124126E+04  0.30621386203E+04  0.15294330000E+03 0.  0.
<mgrwt>
<rscale>  0 0.15030005E+04</rscale>
<asrwt>0</asrwt>
<pdfrwt beam="1">  1        2 0.49901431E+00 0.15391709E+04</pdfrwt>
<pdfrwt beam="2">  1       -2 0.28584270E+00 0.15391709E+04</pdfrwt>
<totfact> 0.44164767E-02</totfact>
</mgrwt>
</event>
<event>
 4    5  0.7289609E-008  0.9160129E+03  0.7818608E-02  0.9500800E-01
          2   -1    0    0  501    0  0.00000000000E+00  0.00000000000E+00  0.25195642887E+04  0.25195642887E+04  0.25500000000E-02 0. -1.
         -2   -1    0    0    0  501 -0.00000000000E+00 -0.00000000000E+00 -0.37686242605E+03  0.37686242605E+03  0.25500000000E-02 0.  1.
    8880023    1    1    2    0    0  0.22683208855E+03  0.59482487470E+03  0.20366589533E+04  0.22331724802E+04  0.65864270000E+03 0. -1.
    8880022    1    1    2    0    0 -0.22683208855E+03 -0.59482487470E+03  0.10604290929E+03  0.66325423450E+03  0.15294330000E+03 0.  0.
<mgrwt>
<rscale>  0 0.84224889E+03</rscale>
<asrwt>0</asrwt>
<pdfrwt beam="1">  1        2 0.38762526E+00 0.91601290E+03</pdfrwt>
<pdfrwt beam="2">  1       -2 0.57978836E-01 0.91601290E+03</pdfrwt>
<totfact> 0.96615317E+00</totfact>
</mgrwt>
</event>
<event>
 4    5  0.7333600E-008  0.1349962E+04  0.7818608E-02  0.9023572E-01
         -2   -1    0    0    0  501 -0.00000000000E+00  0.00000000000E+00  0.13188746015E+04  0.13188746015E+04  0.25500000000E-02 0.  1.
          2   -1    0    0  501    0  0.00000000000E+00 -0.00000000000E+00 -0.23074455626E+04  0.23074455626E+04  0.25500000000E-02 0. -1.
    8880023    1    1    2    0    0  0.69279623908E+03 -0.95321597827E+03  0.73173452814E+03  0.15355236749E+04  0.65864270000E+03 0.  0.
    8880022    1    1    2    0    0 -0.69279623908E+03  0.95321597827E+03 -0.17203054892E+04  0.20907964892E+04  0.15294330000E+03 0.  0.
<mgrwt>
<rscale>  0 0.13075843E+04</rscale>
<asrwt>0</asrwt>
<pdfrwt beam="1">  1        2 0.35499162E+00 0.13499620E+04</pdfrwt>
<pdfrwt beam="2">  1       -2 0.20290378E+00 0.13499620E+04</pdfrwt>
<totfact> 0.54595992E-01</totfact>
</mgrwt>
</event>
<event>
 4    5  0.7289609E-008  0.8107062E+03  0.7818608E-02  0.9688108E-01
          2   -1    0    0  501    0  0.00000000000E+00  0.00000000000E+00  0.18972471345E+04  0.18972471345E+04  0.25500000000E-02 0. -1.
         -2   -1    0    0    0  501 -0.00000000000E+00 -0.00000000000E+00 -0.47764019077E+03  0.47764019077E+03  0.25500000000E-02 0.  1.
    8880023    1    1    2    0    0  0.10707181882E+03 -0.46040203439E+03 -0.61148790865E+02  0.81300909500E+03  0.65864270000E+03 0.  1.
    8880022    1    1    2    0    0 -0.10707181882E+03  0.46040203439E+03  0.14807557346E+04  0.15618782303E+04  0.15294330000E+03 0.  0.
<mgrwt>
<rscale>  0 0.71729287E+03</rscale>
<asrwt>0</asrwt>
<pdfrwt beam="1">  1        2 0.29188417E+00 0.81070624E+03</pdfrwt>
<pdfrwt beam="2">  1       -2 0.73483106E-01 0.81070624E+03</pdfrwt>
<totfact> 0.13037504E+01</totfact>
</mgrwt>
</event>
<event>
 4    5  0.7289609E-008  0.1092290E+04  0.7818608E-02  0.9269689E-01
         -2   -1    0    0    0  501 -0.00000000000E+00  0.00000000000E+00  0.47211224814E+03  0.47211224814E+03  0.25500000000E-02 0.  1.
          2   -1    0    0  501    0  0.00000000000E+00 -0.00000000000E+00 -0.29493982178E+04  0.29493982178E+04  0.25500000000E-02 0. -1.
    8880023    1    1    2    0    0 -0.12679387124E+03 -0.86209654880E+03 -0.39921342852E+03  0.11629568836E+04  0.65864270000E+03 0.  1.
    8880022    1    1    2    0    0  0.12679387124E+03  0.86209654880E+03 -0.20780725411E+04  0.22585535823E+04  0.15294330000E+03 0.  0.
<mgrwt>
<rscale>  0 0.10362186E+04</rscale>
<asrwt>0</asrwt>
<pdfrwt beam="1">  1        2 0.45375356E+00 0.10922900E+04</pdfrwt>
<pdfrwt beam="2">  1       -2 0.72632655E-01 0.10922900E+04</pdfrwt>
<totfact> 0.32339275E+00</totfact>
</mgrwt>
</event>
<event>
 4    5  0.7289609E-008  0.1509067E+04  0.7818608E-02  0.8903260E-01
          2   -1    0    0  501    0  0.00000000000E+00  0.00000000000E+00  0.21255486342E+04  0.21255486342E+04  0.25500000000E-02 0. -1.
         -2   -1    0    0    0  501 -0.00000000000E+00 -0.00000000000E+00 -0.10526889710E+04  0.10526889710E+04  0.25500000000E-02 0.  1.
    8880023    1    1    2    0    0  0.10484917362E+04 -0.86263376050E+03  0.12278317477E+03  0.15140534469E+04  0.65864270000E+03 0.  0.
    8880022    1    1    2    0    0 -0.10484917362E+04  0.86263376050E+03  0.95007648843E+03  0.16641841583E+04  0.15294330000E+03 0.  0.
<mgrwt>
<rscale>  0 0.14720426E+04</rscale>
<asrwt>0</asrwt>
<pdfrwt beam="1">  1        2 0.32700748E+00 0.15090666E+04</pdfrwt>
<pdfrwt beam="2">  1       -2 0.16195215E+00 0.15090666E+04</pdfrwt>
<totfact> 0.13051310E+00</totfact>
</mgrwt>
</event>
<event>
 4    5  0.7289609E-008  0.6950814E+03  0.7818608E-02  0.1001825E+00
          2   -1    0    0  501    0  0.00000000000E+00  0.00000000000E+00  0.11705754683E+04  0.11705754683E+04  0.25500000000E-02 0. -1.
         -2   -1    0    0    0  501 -0.00000000000E+00 -0.00000000000E+00 -0.28355405479E+03  0.28355405480E+03  0.25500000000E-02 0.  1.
    8880023    1    1    2    0    0 -0.40609800207E+02  0.21835460089E+03  0.21114679297E+03  0.72644412177E+03  0.65864270000E+03 0.  1.
    8880022    1    1    2    0    0  0.40609800207E+02 -0.21835460089E+03  0.67587462050E+03  0.72768540130E+03  0.15294330000E+03 0.  0.
<mgrwt>
<rscale>  0 0.54857135E+03</rscale>
<asrwt>0</asrwt>
<pdfrwt beam="1">  1        2 0.18008853E+00 0.69508136E+03</pdfrwt>
<pdfrwt beam="2">  1       -2 0.43623701E-01 0.69508136E+03</pdfrwt>
<totfact> 0.10021932E+02</totfact>
</mgrwt>
</event>
<event>
 4    5  0.7289609E-008  0.9268478E+03  0.7818608E-02  0.9484238E-01
          2   -1    0    0  501    0  0.00000000000E+00  0.00000000000E+00  0.50978987299E+03  0.50978987300E+03  0.25500000000E-02 0. -1.
         -2   -1    0    0    0  501 -0.00000000000E+00 -0.00000000000E+00 -0.16557159618E+04  0.16557159618E+04  0.25500000000E-02 0.  1.
    8880023    1    1    2    0    0 -0.59215507598E+03  0.27310999258E+03 -0.11732157652E+04  0.14951528818E+04  0.65864270000E+03 0.  1.
    8880022    1    1    2    0    0  0.59215507598E+03 -0.27310999258E+03  0.27289676421E+02  0.67035295294E+03  0.15294330000E+03 0. -1.
<mgrwt>
<rscale>  0 0.85455923E+03</rscale>
<asrwt>0</asrwt>
<pdfrwt beam="1">  1        2 0.78429212E-01 0.92684783E+03</pdfrwt>
<pdfrwt beam="2">  1       -2 0.25472553E+00 0.92684783E+03</pdfrwt>
<totfact> 0.36484112E+00</totfact>
</mgrwt>
</event>
<event>
 4    5  0.7289609E-008  0.9143174E+03  0.7818608E-02  0.9503428E-01
         -2   -1    0    0    0  501 -0.00000000000E+00  0.00000000000E+00  0.63084203266E+03  0.63084203266E+03  0.25500000000E-02 0.  1.
          2   -1    0    0  501    0  0.00000000000E+00 -0.00000000000E+00 -0.12042392665E+04  0.12042392665E+04  0.25500000000E-02 0. -1.
    8880023    1    1    2    0    0  0.61098223531E+03  0.16990251271E+03  0.72352625294E+02  0.91717569982E+03  0.65864270000E+03 0.  1.
    8880022    1    1    2    0    0 -0.61098223531E+03 -0.16990251271E+03 -0.64574985911E+03  0.91790559931E+03  0.15294330000E+03 0. -1.
<mgrwt>
<rscale>  0 0.84031588E+03</rscale>
<asrwt>0</asrwt>
<pdfrwt beam="1">  1        2 0.18526758E+00 0.91431743E+03</pdfrwt>
<pdfrwt beam="2">  1       -2 0.97052621E-01 0.91431743E+03</pdfrwt>
<totfact> 0.16726589E+01</totfact>
</mgrwt>
</event>
<event>
 4    5  0.7289609E-008  0.1187579E+04  0.7818608E-02  0.9169292E-01
          2   -1    0    0  501    0  0.00000000000E+00  0.00000000000E+00  0.23684546724E+04  0.23684546724E+04  0.25500000000E-02 0. -1.
         -2   -1    0    0    0  501 -0.00000000000E+00 -0.00000000000E+00 -0.62068551812E+03  0.62068551812E+03  0.25500000000E-02 0.  1.
    8880023    1    1    2    0    0  0.46473957450E+03  0.87209508123E+03  0.29188430401E+03  0.12229224652E+04  0.65864270000E+03 0.  1.
    8880022    1    1    2    0    0 -0.46473957450E+03 -0.87209508123E+03  0.14558848502E+04  0.17662177252E+04  0.15294330000E+03 0.  0.
<mgrwt>
<rscale>  0 0.11376081E+04</rscale>
<asrwt>0</asrwt>
<pdfrwt beam="1">  1        2 0.36437765E+00 0.11875786E+04</pdfrwt>
<pdfrwt beam="2">  1       -2 0.95490079E-01 0.11875786E+04</pdfrwt>
<totfact> 0.37548926E+00</totfact>
</mgrwt>
</event>
<event>
 4    5  0.7289609E-008  0.7972436E+03  0.7818608E-02  0.9716788E-01
         -2   -1    0    0    0  501 -0.00000000000E+00  0.00000000000E+00  0.96533124401E+03  0.96533124401E+03  0.25500000000E-02 0.  1.
          2   -1    0    0  501    0  0.00000000000E+00 -0.00000000000E+00 -0.11008831100E+04  0.11008831100E+04  0.25500000000E-02 0. -1.
    8880023    1    1    2    0    0  0.13868059494E+03 -0.42726431264E+03  0.72880629692E+03  0.10801647675E+04  0.65864270000E+03 0.  1.
    8880022    1    1    2    0    0 -0.13868059494E+03  0.42726431264E+03 -0.86435816292E+03  0.98604958652E+03  0.15294330000E+03 0.  0.
<mgrwt>
<rscale>  0 0.70025980E+03</rscale>
<asrwt>0</asrwt>
<pdfrwt beam="1">  1        2 0.16936663E+00 0.79724357E+03</pdfrwt>
<pdfrwt beam="2">  1       -2 0.14851250E+00 0.79724357E+03</pdfrwt>
<totfact> 0.67848356E+00</totfact>
</mgrwt>
</event>
<event>
 4    5  0.7289609E-008  0.9567901E+03  0.7818608E-02  0.9440411E-01
         -2   -1    0    0    0  501 -0.00000000000E+00  0.00000000000E+00  0.51663022374E+03  0.51663022375E+03  0.25500000000E-02 0.  1.
          2   -1    0    0  501    0  0.00000000000E+00 -0.00000000000E+00 -0.25185152167E+04  0.25185152167E+04  0.25500000000E-02 0. -1.
    8880023    1    1    2    0    0 -0.36679251312E+03 -0.58915224682E+03 -0.50202930650E+02  0.95810628749E+03  0.65864270000E+03 0.  0.
    8880022    1    1    2    0    0  0.36679251312E+03  0.58915224682E+03 -0.19516820624E+04  0.20770391530E+04  0.15294330000E+03 0.  0.
<mgrwt>
<rscale>  0 0.88823325E+03</rscale>
<asrwt>0</asrwt>
<pdfrwt beam="1">  1        2 0.38746387E+00 0.95679011E+03</pdfrwt>
<pdfrwt beam="2">  1       -2 0.79481574E-01 0.95679011E+03</pdfrwt>
<totfact> 0.48427461E+00</totfact>
</mgrwt>
</event>
<event>
 4    5  0.7289609E-008  0.6982707E+03  0.7818608E-02  0.1000445E+00
         -2   -1    0    0    0  501 -0.00000000000E+00  0.00000000000E+00  0.10955895693E+03  0.10955895696E+03  0.25500000000E-02 0.  1.
          2   -1    0    0  501    0  0.00000000000E+00 -0.00000000000E+00 -0.32650154530E+04  0.32650154530E+04  0.25500000000E-02 0. -1.
    8880023    1    1    2    0    0  0.23157917736E+02  0.23072824530E+03 -0.11171317193E+04  0.13174085535E+04  0.65864270000E+03 0.  1.
    8880022    1    1    2    0    0 -0.23157917736E+02 -0.23072824530E+03 -0.20383247768E+04  0.20571658565E+04  0.15294330000E+03 0.  0.
<mgrwt>
<rscale>  0 0.55455464E+03</rscale>
<asrwt>0</asrwt>
<pdfrwt beam="1">  1        2 0.50231000E+00 0.69827073E+03</pdfrwt>
<pdfrwt beam="2">  1       -2 0.16855227E-01 0.69827073E+03</pdfrwt>
<totfact> 0.36280921E+01</totfact>
</mgrwt>
</event>
<event>
 4    5  0.7289609E-008  0.1055147E+04  0.7818608E-02  0.9312719E-01
          2   -1    0    0  501    0  0.00000000000E+00  0.00000000000E+00  0.10946104320E+04  0.10946104320E+04  0.25500000000E-02 0. -1.
         -2   -1    0    0    0  501 -0.00000000000E+00 -0.00000000000E+00 -0.11583041207E+04  0.11583041207E+04  0.25500000000E-02 0.  1.
    8880023    1    1    2    0    0  0.42070740779E+03 -0.70889418276E+03 -0.64135314222E+03  0.12347751798E+04  0.65864270000E+03 0.  1.
    8880022    1    1    2    0    0 -0.42070740779E+03  0.70889418276E+03  0.57765945355E+03  0.10181393729E+04  0.15294330000E+03 0.  0.
<mgrwt>
<rscale>  0 0.99620304E+03</rscale>
<asrwt>0</asrwt>
<pdfrwt beam="1">  1        2 0.16840160E+00 0.10551473E+04</pdfrwt>
<pdfrwt beam="2">  1       -2 0.17820063E+00 0.10551473E+04</pdfrwt>
<totfact> 0.40377747E+00</totfact>
</mgrwt>
</event>
<event>
 4    5  0.7289609E-008  0.8583546E+03  0.7818608E-02  0.9596497E-01
          2   -1    0    0  501    0  0.00000000000E+00  0.00000000000E+00  0.18353264295E+04  0.18353264295E+04  0.25500000000E-02 0. -1.
         -2   -1    0    0    0  501 -0.00000000000E+00 -0.00000000000E+00 -0.61912876629E+03  0.61912876629E+03  0.25500000000E-02 0.  1.
    8880023    1    1    2    0    0 -0.34268238495E+03  0.43073336910E+03 -0.23911084184E+03  0.89103684164E+03  0.65864270000E+03 0.  1.
    8880022    1    1    2    0    0  0.34268238495E+03 -0.43073336910E+03  0.14553085050E+04  0.15634183541E+04  0.15294330000E+03 0.  0.
<mgrwt>
<rscale>  0 0.77528467E+03</rscale>
<asrwt>0</asrwt>
<pdfrwt beam="1">  1        2 0.28235791E+00 0.85835462E+03</pdfrwt>
<pdfrwt beam="2">  1       -2 0.95250580E-01 0.85835462E+03</pdfrwt>
<totfact> 0.77630221E+00</totfact>
</mgrwt>
</event>
<event>
 4    5  0.7289609E-008  0.1855252E+04  0.7818608E-02  0.8692574E-01
          2   -1    0    0  501    0  0.00000000000E+00  0.00000000000E+00  0.26328234005E+04  0.26328234005E+04  0.25500000000E-02 0. -1.
         -2   -1    0    0    0  501 -0.00000000000E+00 -0.00000000000E+00 -0.14728553230E+04  0.14728553230E+04  0.25500000000E-02 0.  1.
    8880023    1    1    2    0    0 -0.15441675050E+04 -0.78974341499E+03  0.14317365081E+04  0.23434648664E+04  0.65864270000E+03 0.  0.
    8880022    1    1    2    0    0  0.15441675050E+04  0.78974341499E+03 -0.27176843069E+03  0.17622138571E+04  0.15294330000E+03 0.  0.
<mgrwt>
<rscale>  0 0.18260388E+04</rscale>
<asrwt>0</asrwt>
<pdfrwt beam="1">  1        2 0.40504975E+00 0.18552515E+04</pdfrwt>
<pdfrwt beam="2">  1       -2 0.22659313E+00 0.18552515E+04</pdfrwt>
<totfact> 0.23621955E-01</totfact>
</mgrwt>
</event>
<event>
 4    5  0.7289609E-008  0.7443879E+03  0.7818608E-02  0.9847345E-01
         -2   -1    0    0    0  501 -0.00000000000E+00  0.00000000000E+00  0.64627712462E+03  0.64627712463E+03  0.25500000000E-02 0.  1.
          2   -1    0    0  501    0  0.00000000000E+00 -0.00000000000E+00 -0.10129035219E+04  0.10129035219E+04  0.25500000000E-02 0. -1.
    8880023    1    1    2    0    0  0.33742492250E+03  0.80296946008E+02  0.36960138030E+03  0.83109479871E+03  0.65864270000E+03 0.  1.
    8880022    1    1    2    0    0 -0.33742492250E+03 -0.80296946008E+02 -0.73622777760E+03  0.82808584784E+03  0.15294330000E+03 0.  0.
<mgrwt>
<rscale>  0 0.62882476E+03</rscale>
<asrwt>0</asrwt>
<pdfrwt beam="1">  1        2 0.15583131E+00 0.74438793E+03</pdfrwt>
<pdfrwt beam="2">  1       -2 0.99427250E-01 0.74438793E+03</pdfrwt>
<totfact> 0.21048659E+01</totfact>
</mgrwt>
</event>
<event>
 4    5  0.7289609E-008  0.8667156E+03  0.7818608E-02  0.9581728E-01
         -2   -1    0    0    0  501 -0.00000000000E+00  0.00000000000E+00  0.22464707478E+03  0.22464707480E+03  0.25500000000E-02 0.  1.
          2   -1    0    0  501    0  0.00000000000E+00 -0.00000000000E+00 -0.33548880991E+04  0.33548880991E+04  0.25500000000E-02 0. -1.
    8880023    1    1    2    0    0  0.19957783215E+03  0.52683431423E+03 -0.80760012976E+03  0.11846577065E+04  0.65864270000E+03 0.  0.
    8880022    1    1    2    0    0 -0.19957783215E+03 -0.52683431423E+03 -0.23226408946E+04  0.23948774674E+04  0.15294330000E+03 0.  0.
<mgrwt>
<rscale>  0 0.78517470E+03</rscale>
<asrwt>0</asrwt>
<pdfrwt beam="1">  1        2 0.51613660E+00 0.86671559E+03</pdfrwt>
<pdfrwt beam="2">  1       -2 0.34561091E-01 0.86671559E+03</pdfrwt>
<totfact> 0.84581660E+00</totfact>
</mgrwt>
</event>
<event>
 4    5  0.7289609E-008  0.1005471E+04  0.7818608E-02  0.9374435E-01
         -2   -1    0    0    0  501 -0.00000000000E+00  0.00000000000E+00  0.36112809422E+04  0.36112809422E+04  0.25500000000E-02 0.  1.
          2   -1    0    0  501    0  0.00000000000E+00 -0.00000000000E+00 -0.33902925128E+03  0.33902925129E+03  0.25500000000E-02 0. -1.
    8880023    1    1    2    0    0  0.72847206997E+03 -0.21561387942E+03  0.29399181728E+04  0.31071031477E+04  0.65864270000E+03 0.  0.
    8880022    1    1    2    0    0 -0.72847206997E+03  0.21561387942E+03  0.33233351813E+03  0.84320704575E+03  0.15294330000E+03 0.  0.
<mgrwt>
<rscale>  0 0.94209762E+03</rscale>
<asrwt>0</asrwt>
<pdfrwt beam="1">  1        2 0.52158346E-01 0.10054706E+04</pdfrwt>
<pdfrwt beam="2">  1       -2 0.55558169E+00 0.10054706E+04</pdfrwt>
<totfact> 0.76203141E-02</totfact>
</mgrwt>
</event>
<event>
 4    5  0.7289609E-008  0.1023123E+04  0.7818608E-02  0.9351911E-01
          2   -1    0    0  501    0  0.00000000000E+00  0.00000000000E+00  0.16939512519E+04  0.16939512519E+04  0.25500000000E-02 0. -1.
         -2   -1    0    0    0  501 -0.00000000000E+00 -0.00000000000E+00 -0.66660366149E+03  0.66660366149E+03  0.25500000000E-02 0.  1.
    8880023    1    1    2    0    0  0.64027616457E+03  0.45057490783E+03 -0.44905328916E+02  0.10241083972E+04  0.65864270000E+03 0.  0.
    8880022    1    1    2    0    0 -0.64027616457E+03 -0.45057490783E+03  0.10722529193E+04  0.13364465161E+04  0.15294330000E+03 0.  0.
<mgrwt>
<rscale>  0 0.96141110E+03</rscale>
<asrwt>0</asrwt>
<pdfrwt beam="1">  1        2 0.26060789E+00 0.10231234E+04</pdfrwt>
<pdfrwt beam="2">  1       -2 0.10255441E+00 0.10231234E+04</pdfrwt>
<totfact> 0.76438388E+00</totfact>
</mgrwt>
</event>
<event>
 4    5  0.7289609E-008  0.7318956E+03  0.7818608E-02  0.9884216E-01
         -2   -1    0    0    0  501 -0.00000000000E+00  0.00000000000E+00  0.19036992830E+03  0.19036992831E+03  0.25500000000E-02 0.  1.
          2   -1    0    0  501    0  0.00000000000E+00 -0.00000000000E+00 -0.19122723408E+04  0.19122723408E+04  0.25500000000E-02 0. -1.
    8880023    1    1    2    0    0  0.22057574981E+03 -0.23066721041E+03 -0.66800990772E+03  0.99091294594E+03  0.65864270000E+03 0.  1.
    8880022    1    1    2    0    0 -0.22057574981E+03  0.23066721041E+03 -0.10538925048E+04  0.11117293232E+04  0.15294330000E+03 0.  0.
<mgrwt>
<rscale>  0 0.61032372E+03</rscale>
<asrwt>0</asrwt>
<pdfrwt beam="1">  1        2 0.29419573E+00 0.73189564E+03</pdfrwt>
<pdfrwt beam="2">  1       -2 0.29287682E-01 0.73189564E+03</pdfrwt>
<totfact> 0.82347801E+01</totfact>
</mgrwt>
</event>
<event>
 4    5  0.7289609E-008  0.1091015E+04  0.7818608E-02  0.9271126E-01
          2   -1    0    0  501    0  0.00000000000E+00  0.00000000000E+00  0.30859947521E+04  0.30859947521E+04  0.25500000000E-02 0. -1.
         -2   -1    0    0    0  501 -0.00000000000E+00 -0.00000000000E+00 -0.11198416881E+04  0.11198416881E+04  0.25500000000E-02 0.  1.
    8880023    1    1    2    0    0 -0.78141506099E+03 -0.38196130148E+03 -0.76694013625E+03  0.13336083804E+04  0.65864270000E+03 0.  0.
    8880022    1    1    2    0    0  0.78141506099E+03  0.38196130148E+03  0.27330932003E+04  0.28722280598E+04  0.15294330000E+03 0.  0.
<mgrwt>
<rscale>  0 0.10348506E+04</rscale>
<asrwt>0</asrwt>
<pdfrwt beam="1">  1        2 0.47476842E+00 0.10910152E+04</pdfrwt>
<pdfrwt beam="2">  1       -2 0.17228334E+00 0.10910152E+04</pdfrwt>
<totfact> 0.31620012E-01</totfact>
</mgrwt>
</event>
<event>
 4    5  0.7289609E-008  0.8279553E+03  0.7818608E-02  0.9653324E-01
         -2   -1    0    0    0  501 -0.00000000000E+00  0.00000000000E+00  0.43612548130E+03  0.43612548130E+03  0.25500000000E-02 0.  1.
          2   -1    0    0  501    0  0.00000000000E+00 -0.00000000000E+00 -0.26126262195E+04  0.26126262195E+04  0.25500000000E-02 0. -1.
    8880023    1    1    2    0    0  0.42261282087E+03 -0.27036663168E+03 -0.18746587140E+02  0.82816746657E+03  0.65864270000E+03 0.  1.
    8880022    1    1    2    0    0 -0.42261282087E+03  0.27036663168E+03 -0.21577541511E+04  0.22205842343E+04  0.15294330000E+03 0.  0.
<mgrwt>
<rscale>  0 0.73865182E+03</rscale>
<asrwt>0</asrwt>
<pdfrwt beam="1">  1        2 0.40194249E+00 0.82795526E+03</pdfrwt>
<pdfrwt beam="2">  1       -2 0.67096230E-01 0.82795526E+03</pdfrwt>
<totfact> 0.63370753E+00</totfact>
</mgrwt>
</event>
<event>
 4    5  0.7289609E-008  0.7058343E+03  0.7818608E-02  0.9973808E-01
          2   -1    0    0  501    0  0.00000000000E+00  0.00000000000E+00  0.18734299993E+04  0.18734299993E+04  0.25500000000E-02 0. -1.
         -2   -1    0    0    0  501 -0.00000000000E+00 -0.00000000000E+00 -0.44993993876E+03  0.44993993877E+03  0.25500000000E-02 0.  1.
    8880023    1    1    2    0    0  0.24757660224E+03 -0.55657201245E+02 -0.15053015636E+03  0.72170730373E+03  0.65864270000E+03 0.  1.
    8880022    1    1    2    0    0 -0.24757660224E+03  0.55657201245E+02  0.15740202169E+04  0.16016626343E+04  0.15294330000E+03 0.  0.
<mgrwt>
<rscale>  0 0.56813785E+03</rscale>
<asrwt>0</asrwt>
<pdfrwt beam="1">  1        2 0.28822000E+00 0.70583433E+03</pdfrwt>
<pdfrwt beam="2">  1       -2 0.69221528E-01 0.70583433E+03</pdfrwt>
<totfact> 0.15538917E+01</totfact>
</mgrwt>
</event>
<event>
 4    5  0.7289609E-008  0.1062553E+04  0.7818608E-02  0.9303941E-01
         -2   -1    0    0    0  501 -0.00000000000E+00  0.00000000000E+00  0.78111758768E+03  0.78111758769E+03  0.25500000000E-02 0.  1.
          2   -1    0    0  501    0  0.00000000000E+00 -0.00000000000E+00 -0.31399033591E+04  0.31399033591E+04  0.25500000000E-02 0. -1.
    8880023    1    1    2    0    0 -0.17815226885E+03  0.81453705733E+03  0.32129881459E+03  0.11100684588E+04  0.65864270000E+03 0.  0.
    8880022    1    1    2    0    0  0.17815226885E+03 -0.81453705733E+03 -0.26800845860E+04  0.28109524880E+04  0.15294330000E+03 0.  0.
<mgrwt>
<rscale>  0 0.10042086E+04</rscale>
<asrwt>0</asrwt>
<pdfrwt beam="1">  1        2 0.48306205E+00 0.10625531E+04</pdfrwt>
<pdfrwt beam="2">  1       -2 0.12017194E+00 0.10625531E+04</pdfrwt>
<totfact> 0.75886740E-01</totfact>
</mgrwt>
</event>
<event>
 4    5  0.7289609E-008  0.9812371E+03  0.7818608E-02  0.9406528E-01
          2   -1    0    0  501    0  0.00000000000E+00  0.00000000000E+00  0.15296921190E+04  0.15296921190E+04  0.25500000000E-02 0. -1.
         -2   -1    0    0    0  501 -0.00000000000E+00 -0.00000000000E+00 -0.95809763362E+03  0.95809763363E+03  0.25500000000E-02 0.  1.
    8880023    1    1    2    0    0 -0.68168015055E+03  0.25363009135E+03 -0.56311199647E+03  0.11313361029E+04  0.65864270000E+03 0.  0.
    8880022    1    1    2    0    0  0.68168015055E+03 -0.25363009135E+03  0.11347064818E+04  0.13564536497E+04  0.15294330000E+03 0.  0.
<mgrwt>
<rscale>  0 0.91540428E+03</rscale>
<asrwt>0</asrwt>
<pdfrwt beam="1">  1        2 0.23533724E+00 0.98123711E+03</pdfrwt>
<pdfrwt beam="2">  1       -2 0.14739964E+00 0.98123711E+03</pdfrwt>
<totfact> 0.38142568E+00</totfact>
</mgrwt>
</event>
<event>
 4    5  0.7289609E-008  0.8890087E+03  0.7818608E-02  0.9543912E-01
          2   -1    0    0  501    0  0.00000000000E+00  0.00000000000E+00  0.63478096617E+03  0.63478096618E+03  0.25500000000E-02 0. -1.
         -2   -1    0    0    0  501 -0.00000000000E+00 -0.00000000000E+00 -0.92287040191E+03  0.92287040192E+03  0.25500000000E-02 0.  1.
    8880023    1    1    2    0    0  0.21790163820E+03 -0.55591826279E+03 -0.30828930535E+03  0.94094566309E+03  0.65864270000E+03 0.  0.
    8880022    1    1    2    0    0 -0.21790163820E+03  0.55591826279E+03  0.20199869606E+02  0.61670570500E+03  0.15294330000E+03 0. -1.
<mgrwt>
<rscale>  0 0.81122387E+03</rscale>
<asrwt>0</asrwt>
<pdfrwt beam="1">  1        2 0.97658610E-01 0.88900869E+03</pdfrwt>
<pdfrwt beam="2">  1       -2 0.14198006E+00 0.88900869E+03</pdfrwt>
<totfact> 0.16059708E+01</totfact>
</mgrwt>
</event>
<event>
 4    5  0.7289609E-008  0.6836458E+03  0.7818608E-02  0.1007332E+00
         -2   -1    0    0    0  501 -0.00000000000E+00  0.00000000000E+00  0.67003013011E+03  0.67003013012E+03  0.25500000000E-02 0.  1.
          2   -1    0    0  501    0  0.00000000000E+00 -0.00000000000E+00 -0.93922364139E+03  0.93922364140E+03  0.25500000000E-02 0. -1.
    8880023    1    1    2    0    0 -0.17675997998E+03 -0.48137881063E+02  0.47188927964E+03  0.83069311098E+03  0.65864270000E+03 0.  1.
    8880022    1    1    2    0    0  0.17675997998E+03  0.48137881063E+02 -0.74108279093E+03  0.77856066054E+03  0.15294330000E+03 0.  0.
<mgrwt>
<rscale>  0 0.52548815E+03</rscale>
<asrwt>0</asrwt>
<pdfrwt beam="1">  1        2 0.14449594E+00 0.68364578E+03</pdfrwt>
<pdfrwt beam="2">  1       -2 0.10308156E+00 0.68364578E+03</pdfrwt>
<totfact> 0.21691513E+01</totfact>
</mgrwt>
</event>
<event>
 4    5  0.7289609E-008  0.8467301E+03  0.7818608E-02  0.9617618E-01
         -2   -1    0    0    0  501 -0.00000000000E+00  0.00000000000E+00  0.86029223579E+03  0.86029223580E+03  0.25500000000E-02 0.  1.
          2   -1    0    0  501    0  0.00000000000E+00 -0.00000000000E+00 -0.22073033807E+04  0.22073033807E+04  0.25500000000E-02 0. -1.
    8880023    1    1    2    0    0  0.46692105372E+03  0.25519864286E+03  0.60365459125E+03  0.10398801323E+04  0.65864270000E+03 0.  0.
    8880022    1    1    2    0    0 -0.46692105372E+03 -0.25519864286E+03 -0.19506657361E+04  0.20277154842E+04  0.15294330000E+03 0.  0.
<mgrwt>
<rscale>  0 0.76140977E+03</rscale>
<asrwt>0</asrwt>
<pdfrwt beam="1">  1        2 0.33958513E+00 0.84673008E+03</pdfrwt>
<pdfrwt beam="2">  1       -2 0.13235265E+00 0.84673008E+03</pdfrwt>
<totfact> 0.21753426E+00</totfact>
</mgrwt>
</event>
<event>
 4    5  0.7289609E-008  0.9579388E+03  0.7818608E-02  0.9438783E-01
         -2   -1    0    0    0  501 -0.00000000000E+00  0.00000000000E+00  0.22951351380E+04  0.22951351380E+04  0.25500000000E-02 0.  1.
          2   -1    0    0  501    0  0.00000000000E+00 -0.00000000000E+00 -0.63881113342E+03  0.63881113342E+03  0.25500000000E-02 0. -1.
    8880023    1    1    2    0    0  0.67901947063E+03  0.15089437539E+03  0.19429257904E+04  0.21662426889E+04  0.65864270000E+03 0.  1.
    8880022    1    1    2    0    0 -0.67901947063E+03 -0.15089437539E+03 -0.28660178579E+03  0.76770358254E+03  0.15294330000E+03 0.  0.
<mgrwt>
<rscale>  0 0.88951597E+03</rscale>
<asrwt>0</asrwt>
<pdfrwt beam="1">  1        2 0.98278637E-01 0.95793881E+03</pdfrwt>
<pdfrwt beam="2">  1       -2 0.35309771E+00 0.95793881E+03</pdfrwt>
<totfact> 0.69678722E-01</totfact>
</mgrwt>
</event>
<event>
 4    5  0.7289609E-008  0.9754037E+03  0.7818608E-02  0.9414469E-01
          2   -1    0    0  501    0  0.00000000000E+00  0.00000000000E+00  0.27911920299E+04  0.27911920299E+04  0.25500000000E-02 0. -1.
         -2   -1    0    0    0  501 -0.00000000000E+00 -0.00000000000E+00 -0.57747824062E+03  0.57747824062E+03  0.25500000000E-02 0.  1.
    8880023    1    1    2    0    0  0.59096639147E+03 -0.41031801472E+03 -0.61678505924E+02  0.97735182683E+03  0.65864270000E+03 0.  1.
    8880022    1    1    2    0    0 -0.59096639147E+03  0.41031801472E+03  0.22753922953E+04  0.23913184437E+04  0.15294330000E+03 0.  0.
<mgrwt>
<rscale>  0 0.90894443E+03</rscale>
<asrwt>0</asrwt>
<pdfrwt beam="1">  1        2 0.42941415E+00 0.97540369E+03</pdfrwt>
<pdfrwt beam="2">  1       -2 0.88842808E-01 0.97540369E+03</pdfrwt>
<totfact> 0.25981387E+00</totfact>
</mgrwt>
</event>
<event>
 4    5  0.7289609E-008  0.1056985E+04  0.7818608E-02  0.9310532E-01
          2   -1    0    0  501    0  0.00000000000E+00  0.00000000000E+00  0.10746549891E+04  0.10746549891E+04  0.25500000000E-02 0. -1.
         -2   -1    0    0    0  501 -0.00000000000E+00 -0.00000000000E+00 -0.93409427322E+03  0.93409427323E+03  0.25500000000E-02 0.  1.
    8880023    1    1    2    0    0  0.22644911837E+03  0.79506417161E+03 -0.24318051486E+03  0.10845981787E+04  0.65864270000E+03 0.  0.
    8880022    1    1    2    0    0 -0.22644911837E+03 -0.79506417161E+03  0.38374123074E+03  0.92415108363E+03  0.15294330000E+03 0.  0.
<mgrwt>
<rscale>  0 0.99819043E+03</rscale>
<asrwt>0</asrwt>
<pdfrwt beam="1">  1        2 0.16533154E+00 0.10569846E+04</pdfrwt>
<pdfrwt beam="2">  1       -2 0.14370681E+00 0.10569846E+04</pdfrwt>
<totfact> 0.74736739E+00</totfact>
</mgrwt>
</event>
<event>
 4    5  0.7289609E-008  0.1087339E+04  0.7818608E-02  0.9275285E-01
         -2   -1    0    0    0  501 -0.00000000000E+00  0.00000000000E+00  0.79720707549E+03  0.79720707550E+03  0.25500000000E-02 0.  1.
          2   -1    0    0  501    0  0.00000000000E+00 -0.00000000000E+00 -0.21977303391E+04  0.21977303391E+04  0.25500000000E-02 0. -1.
    8880023    1    1    2    0    0  0.64820824313E+03 -0.57299338328E+03  0.25849663209E+03  0.11176430820E+04  0.65864270000E+03 0.  0.
    8880022    1    1    2    0    0 -0.64820824313E+03  0.57299338328E+03 -0.16590198957E+04  0.18772943326E+04  0.15294330000E+03 0.  0.
<mgrwt>
<rscale>  0 0.10309031E+04</rscale>
<asrwt>0</asrwt>
<pdfrwt beam="1">  1        2 0.33811236E+00 0.10873387E+04</pdfrwt>
<pdfrwt beam="2">  1       -2 0.12264724E+00 0.10873387E+04</pdfrwt>
<totfact> 0.25794783E+00</totfact>
</mgrwt>
</event>
<event>
 4    5  0.7289609E-008  0.1074765E+04  0.7818608E-02  0.9289687E-01
         -2   -1    0    0    0  501 -0.00000000000E+00  0.00000000000E+00  0.90958747609E+03  0.90958747610E+03  0.25500000000E-02 0.  1.
          2   -1    0    0  501    0  0.00000000000E+00 -0.00000000000E+00 -0.11654760305E+04  0.11654760305E+04  0.25500000000E-02 0. -1.
    8880023    1    1    2    0    0 -0.76585885759E+03 -0.36710871738E+03 -0.48958206510E+03  0.11810204930E+04  0.65864270000E+03 0.  0.
    8880022    1    1    2    0    0  0.76585885759E+03  0.36710871738E+03  0.23369351074E+03  0.89404301357E+03  0.15294330000E+03 0.  0.
<mgrwt>
<rscale>  0 0.10173788E+04</rscale>
<asrwt>0</asrwt>
<pdfrwt beam="1">  1        2 0.17930400E+00 0.10747645E+04</pdfrwt>
<pdfrwt beam="2">  1       -2 0.13993653E+00 0.10747645E+04</pdfrwt>
<totfact> 0.70345939E+00</totfact>
</mgrwt>
</event>
<event>
 4    5  0.7289609E-008  0.9680151E+03  0.7818608E-02  0.9424655E-01
          2   -1    0    0  501    0  0.00000000000E+00  0.00000000000E+00  0.20455685058E+04  0.20455685058E+04  0.25500000000E-02 0. -1.
         -2   -1    0    0    0  501 -0.00000000000E+00 -0.00000000000E+00 -0.11064696593E+04  0.11064696593E+04  0.25500000000E-02 0.  1.
    8880023    1    1    2    0    0  0.20843447062E+03 -0.67808409344E+03 -0.80755080561E+03  0.12606313800E+04  0.65864270000E+03 0.  1.
    8880022    1    1    2    0    0 -0.20843447062E+03  0.67808409344E+03  0.17466496521E+04  0.18914067851E+04  0.15294330000E+03 0.  0.
<mgrwt>
<rscale>  0 0.90074169E+03</rscale>
<asrwt>0</asrwt>
<pdfrwt beam="1">  1        2 0.31470284E+00 0.96801507E+03</pdfrwt>
<pdfrwt beam="2">  1       -2 0.17022610E+00 0.96801507E+03</pdfrwt>
<totfact> 0.13421134E+00</totfact>
</mgrwt>
</event>
<event>
 4    5  0.7289609E-008  0.1395067E+04  0.7818608E-02  0.8987525E-01
         -2   -1    0    0    0  501 -0.00000000000E+00  0.00000000000E+00  0.25904806567E+04  0.25904806567E+04  0.25500000000E-02 0.  1.
          2   -1    0    0  501    0  0.00000000000E+00 -0.00000000000E+00 -0.11249424221E+04  0.11249424221E+04  0.25500000000E-02 0. -1.
    8880023    1    1    2    0    0 -0.27357763550E+03 -0.11989819726E+04  0.19390672024E+04  0.23887641815E+04  0.65864270000E+03 0. -1.
    8880022    1    1    2    0    0  0.27357763550E+03  0.11989819726E+04 -0.47352896784E+03  0.13266588973E+04  0.15294330000E+03 0.  0.
<mgrwt>
<rscale>  0 0.13543721E+04</rscale>
<asrwt>0</asrwt>
<pdfrwt beam="1">  1        2 0.17306806E+00 0.13950673E+04</pdfrwt>
<pdfrwt beam="2">  1       -2 0.39853549E+00 0.13950673E+04</pdfrwt>
<totfact> 0.15310983E-01</totfact>
</mgrwt>
</event>
<event>
 4    5  0.7289609E-008  0.1030769E+04  0.7818608E-02  0.9342365E-01
         -2   -1    0    0    0  501 -0.00000000000E+00  0.00000000000E+00  0.59123427679E+03  0.59123427679E+03  0.25500000000E-02 0.  1.
          2   -1    0    0  501    0  0.00000000000E+00 -0.00000000000E+00 -0.24509420205E+04  0.24509420205E+04  0.25500000000E-02 0. -1.
    8880023    1    1    2    0    0  0.13830758535E+03  0.78073378224E+03 -0.17675044613E+02  0.10309203851E+04  0.65864270000E+03 0.  1.
    8880022    1    1    2    0    0 -0.13830758535E+03 -0.78073378224E+03 -0.18420326991E+04  0.20112559122E+04  0.15294330000E+03 0.  0.
<mgrwt>
<rscale>  0 0.96974467E+03</rscale>
<asrwt>0</asrwt>
<pdfrwt beam="1">  1        2 0.37706800E+00 0.10307689E+04</pdfrwt>
<pdfrwt beam="2">  1       -2 0.90959121E-01 0.10307689E+04</pdfrwt>
<totfact> 0.38486066E+00</totfact>
</mgrwt>
</event>
<event>
 4    5  0.7289609E-008  0.6784183E+03  0.7818608E-02  0.1010233E+00
         -2   -1    0    0    0  501 -0.00000000000E+00  0.00000000000E+00  0.23079448885E+03  0.23079448887E+03  0.25500000000E-02 0.  1.
          2   -1    0    0  501    0  0.00000000000E+00 -0.00000000000E+00 -0.90115739401E+03  0.90115739401E+03  0.25500000000E-02 0. -1.
    8880023    1    1    2    0    0 -0.30313262567E+01 -0.16257903086E+03 -0.42650660466E+03  0.80134837636E+03  0.65864270000E+03 0.  0.
    8880022    1    1    2    0    0  0.30313262567E+01  0.16257903086E+03 -0.24385630050E+03  0.33060350652E+03  0.15294330000E+03 0.  0.
<mgrwt>
<rscale>  0 0.51382182E+03</rscale>
<asrwt>0</asrwt>
<pdfrwt beam="1">  1        2 0.13863960E+00 0.67841826E+03</pdfrwt>
<pdfrwt beam="2">  1       -2 0.35506845E-01 0.67841826E+03</pdfrwt>
<totfact> 0.22100556E+02</totfact>
</mgrwt>
</event>
<event>
 4    5  0.7289609E-008  0.8321162E+03  0.7818608E-02  0.9645229E-01
          2   -1    0    0  501    0  0.00000000000E+00  0.00000000000E+00  0.10792868418E+04  0.10792868418E+04  0.25500000000E-02 0. -1.
         -2   -1    0    0    0  501 -0.00000000000E+00 -0.00000000000E+00 -0.47429887249E+03  0.47429887249E+03  0.25500000000E-02 0.  1.
    8880023    1    1    2    0    0  0.24158572329E+03  0.44748573497E+03  0.13214268547E+03  0.84254319787E+03  0.65864270000E+03 0.  0.
    8880022    1    1    2    0    0 -0.24158572329E+03 -0.44748573497E+03  0.47284528385E+03  0.71104251643E+03  0.15294330000E+03 0.  0.
<mgrwt>
<rscale>  0 0.74373614E+03</rscale>
<asrwt>0</asrwt>
<pdfrwt beam="1">  1        2 0.16604413E+00 0.83211619E+03</pdfrwt>
<pdfrwt beam="2">  1       -2 0.72969057E-01 0.83211619E+03</pdfrwt>
<totfact> 0.38430903E+01</totfact>
</mgrwt>
</event>
<event>
 4    5  0.7289609E-008  0.8186349E+03  0.7818608E-02  0.9671864E-01
          2   -1    0    0  501    0  0.00000000000E+00  0.00000000000E+00  0.12419628946E+04  0.12419628946E+04  0.25500000000E-02 0. -1.
         -2   -1    0    0    0  501 -0.00000000000E+00 -0.00000000000E+00 -0.14335693476E+04  0.14335693476E+04  0.25500000000E-02 0.  1.
    8880023    1    1    2    0    0  0.45862958849E+03  0.16128175553E+03 -0.12538046063E+04  0.14973941034E+04  0.65864270000E+03 0.  0.
    8880022    1    1    2    0    0 -0.45862958849E+03 -0.16128175553E+03  0.10621981533E+04  0.11781381388E+04  0.15294330000E+03 0.  0.
<mgrwt>
<rscale>  0 0.72717008E+03</rscale>
<asrwt>0</asrwt>
<pdfrwt beam="1">  1        2 0.19107122E+00 0.81863491E+03</pdfrwt>
<pdfrwt beam="2">  1       -2 0.22054913E+00 0.81863491E+03</pdfrwt>
<totfact> 0.17879325E+00</totfact>
</mgrwt>
</event>
<event>
 4    5  0.7289609E-008  0.6660495E+03  0.7818608E-02  0.1018669E+00
          2   -1    0    0  501    0  0.00000000000E+00  0.00000000000E+00  0.25262875973E+04  0.25262875973E+04  0.25500000000E-02 0. -1.
         -2   -1    0    0    0  501 -0.00000000000E+00 -0.00000000000E+00 -0.13778345684E+03  0.13778345686E+03  0.25500000000E-02 0.  1.
    8880023    1    1    2    0    0  0.37206251842E+01 -0.98984517611E+02  0.70177474812E+03  0.96752766428E+03  0.65864270000E+03 0.  1.
    8880022    1    1    2    0    0 -0.37206251842E+01  0.98984517611E+02  0.16867293923E+04  0.16965433899E+04  0.15294330000E+03 0.  0.
<mgrwt>
<rscale>  0 0.48170124E+03</rscale>
<asrwt>0</asrwt>
<pdfrwt beam="1">  1        2 0.38865958E+00 0.66604954E+03</pdfrwt>
<pdfrwt beam="2">  1       -2 0.21197457E-01 0.66604954E+03</pdfrwt>
<totfact> 0.68103610E+01</totfact>
</mgrwt>
</event>
<event>
 4    5  0.7289609E-008  0.6594187E+03  0.7818608E-02  0.1024760E+00
         -2   -1    0    0    0  501 -0.00000000000E+00  0.00000000000E+00  0.33283329151E+03  0.33283329152E+03  0.25500000000E-02 0.  1.
          2   -1    0    0  501    0  0.00000000000E+00 -0.00000000000E+00 -0.11478320165E+04  0.11478320165E+04  0.25500000000E-02 0. -1.
    8880023    1    1    2    0    0 -0.27371108639E+02 -0.16542479138E+02 -0.88134134107E+01  0.65947760669E+03  0.65864270000E+03 0.  1.
    8880022    1    1    2    0    0  0.27371108639E+02  0.16542479138E+02 -0.80618531156E+03  0.82118770132E+03  0.15294330000E+03 0.  0.
<mgrwt>
<rscale>  0 0.46007316E+03</rscale>
<asrwt>0</asrwt>
<pdfrwt beam="1">  1        2 0.17658954E+00 0.65941871E+03</pdfrwt>
<pdfrwt beam="2">  1       -2 0.51205122E-01 0.65941871E+03</pdfrwt>
<totfact> 0.75172214E+01</totfact>
</mgrwt>
</event>
<event>
 4    5  0.7289609E-008  0.6808917E+03  0.7818608E-02  0.1008824E+00
          2   -1    0    0  501    0  0.00000000000E+00  0.00000000000E+00  0.62321736026E+03  0.62321736027E+03  0.25500000000E-02 0. -1.
         -2   -1    0    0    0  501 -0.00000000000E+00 -0.00000000000E+00 -0.34233522324E+03  0.34233522325E+03  0.25500000000E-02 0.  1.
    8880023    1    1    2    0    0 -0.44895752292E+02 -0.16669617215E+03  0.13952331158E+03  0.69503971334E+03  0.65864270000E+03 0. -1.
    8880022    1    1    2    0    0  0.44895752292E+02  0.16669617215E+03  0.14135882545E+03  0.27051287017E+03  0.15294330000E+03 0.  0.
<mgrwt>
<rscale>  0 0.51944821E+03</rscale>
<asrwt>0</asrwt>
<pdfrwt beam="1">  1        2 0.95879593E-01 0.68089166E+03</pdfrwt>
<pdfrwt beam="2">  1       -2 0.52666958E-01 0.68089166E+03</pdfrwt>
<totfact> 0.16329009E+02</totfact>
</mgrwt>
</event>
<event>
 4    5  0.7289609E-008  0.8500337E+03  0.7818608E-02  0.9611543E-01
         -2   -1    0    0    0  501 -0.00000000000E+00  0.00000000000E+00  0.43831441939E+03  0.43831441940E+03  0.25500000000E-02 0.  1.
          2   -1    0    0  501    0  0.00000000000E+00 -0.00000000000E+00 -0.35880028849E+04  0.35880028849E+04  0.25500000000E-02 0. -1.
    8880023    1    1    2    0    0 -0.46255680826E+03 -0.27347452876E+03 -0.23249713688E+02  0.85035161798E+03  0.65864270000E+03 0.  0.
    8880022    1    1    2    0    0  0.46255680826E+03  0.27347452876E+03 -0.31264387518E+04  0.31759656863E+04  0.15294330000E+03 0.  0.
<mgrwt>
<rscale>  0 0.76536849E+03</rscale>
<asrwt>0</asrwt>
<pdfrwt beam="1">  1        2 0.55200042E+00 0.85003372E+03</pdfrwt>
<pdfrwt beam="2">  1       -2 0.67432990E-01 0.85003372E+03</pdfrwt>
<totfact> 0.15171150E+00</totfact>
</mgrwt>
</event>
<event>
 4    5  0.7289609E-008  0.8459386E+03  0.7818608E-02  0.9619083E-01
         -2   -1    0    0    0  501 -0.00000000000E+00  0.00000000000E+00  0.35522376951E+03  0.35522376952E+03  0.25500000000E-02 0.  1.
          2   -1    0    0  501    0  0.00000000000E+00 -0.00000000000E+00 -0.28718925909E+04  0.28718925909E+04  0.25500000000E-02 0. -1.
    8880023    1    1    2    0    0 -0.47321309766E+03  0.24056439540E+03 -0.23280666803E+03  0.87738874797E+03  0.65864270000E+03 0.  1.
    8880022    1    1    2    0    0  0.47321309766E+03 -0.24056439540E+03 -0.22838621534E+04  0.23497276125E+04  0.15294330000E+03 0.  0.
<mgrwt>
<rscale>  0 0.76045940E+03</rscale>
<asrwt>0</asrwt>
<pdfrwt beam="1">  1        2 0.44182961E+00 0.84593857E+03</pdfrwt>
<pdfrwt beam="2">  1       -2 0.54649812E-01 0.84593857E+03</pdfrwt>
<totfact> 0.68721202E+00</totfact>
</mgrwt>
</event>
<event>
 4    5  0.7289609E-008  0.7643688E+03  0.7818608E-02  0.9793926E-01
          2   -1    0    0  501    0  0.00000000000E+00  0.00000000000E+00  0.28073540772E+04  0.28073540772E+04  0.25500000000E-02 0. -1.
         -2   -1    0    0    0  501 -0.00000000000E+00 -0.00000000000E+00 -0.30784349298E+03  0.30784349299E+03  0.25500000000E-02 0.  1.
    8880023    1    1    2    0    0  0.34318152546E+03  0.18076463298E+03  0.21651629681E+03  0.79444252467E+03  0.65864270000E+03 0.  0.
    8880022    1    1    2    0    0 -0.34318152546E+03 -0.18076463298E+03  0.22829942874E+04  0.23207550455E+04  0.15294330000E+03 0.  0.
<mgrwt>
<rscale>  0 0.65689544E+03</rscale>
<asrwt>0</asrwt>
<pdfrwt beam="1">  1        2 0.43190065E+00 0.76436877E+03</pdfrwt>
<pdfrwt beam="2">  1       -2 0.47360535E-01 0.76436877E+03</pdfrwt>
<totfact> 0.10199996E+01</totfact>
</mgrwt>
</event>
<event>
 4    5  0.7550784E-008  0.1227635E+04  0.7818608E-02  0.9130717E-01
         -2   -1    0    0    0  501 -0.00000000000E+00  0.00000000000E+00  0.11811856098E+04  0.11811856098E+04  0.25500000000E-02 0.  1.
          2   -1    0    0  501    0  0.00000000000E+00 -0.00000000000E+00 -0.40871583921E+04  0.40871583921E+04  0.25500000000E-02 0. -1.
    8880023    1    1    2    0    0  0.88714606727E+03 -0.53502185055E+03  0.76797707885E+03  0.14480592271E+04  0.65864270000E+03 0.  0.
    8880022    1    1    2    0    0 -0.88714606727E+03  0.53502185055E+03 -0.36739498612E+04  0.38202847748E+04  0.15294330000E+03 0.  0.
<mgrwt>
<rscale>  0 0.11798078E+04</rscale>
<asrwt>0</asrwt>
<pdfrwt beam="1">  1        2 0.62879359E+00 0.12276346E+04</pdfrwt>
<pdfrwt beam="2">  1       -2 0.18172087E+00 0.12276346E+04</pdfrwt>
<totfact> 0.51354625E-02</totfact>
</mgrwt>
</event>
<event>
 4    5  0.7289609E-008  0.8912980E+03  0.7818608E-02  0.9540148E-01
          2   -1    0    0  501    0  0.00000000000E+00  0.00000000000E+00  0.34547616335E+04  0.34547616335E+04  0.25500000000E-02 0. -1.
         -2   -1    0    0    0  501 -0.00000000000E+00 -0.00000000000E+00 -0.49648071307E+03  0.49648071308E+03  0.25500000000E-02 0.  1.
    8880023    1    1    2    0    0  0.24979452156E+03  0.54608112233E+03 -0.37457994608E+02  0.89208475090E+03  0.65864270000E+03 0.  1.
    8880022    1    1    2    0    0 -0.24979452156E+03 -0.54608112233E+03  0.29957389150E+04  0.30591575957E+04  0.15294330000E+03 0.  0.
<mgrwt>
<rscale>  0 0.81387496E+03</rscale>
<asrwt>0</asrwt>
<pdfrwt beam="1">  1        2 0.53150181E+00 0.89129799E+03</pdfrwt>
<pdfrwt beam="2">  1       -2 0.76381646E-01 0.89129799E+03</pdfrwt>
<totfact> 0.14132937E+00</totfact>
</mgrwt>
</event>
<event>
 4    5  0.7289609E-008  0.9511685E+03  0.7818608E-02  0.9448435E-01
         -2   -1    0    0    0  501 -0.00000000000E+00  0.00000000000E+00  0.57100299486E+03  0.57100299487E+03  0.25500000000E-02 0.  1.
          2   -1    0    0  501    0  0.00000000000E+00 -0.00000000000E+00 -0.14459810432E+04  0.14459810432E+04  0.25500000000E-02 0. -1.
    8880023    1    1    2    0    0 -0.22648074684E+03 -0.64777908123E+03 -0.78218217766E+02  0.95437915035E+03  0.65864270000E+03 0.  1.
    8880022    1    1    2    0    0  0.22648074684E+03  0.64777908123E+03 -0.79675983055E+03  0.10626048877E+04  0.15294330000E+03 0.  0.
<mgrwt>
<rscale>  0 0.88194649E+03</rscale>
<asrwt>0</asrwt>
<pdfrwt beam="1">  1        2 0.22245862E+00 0.95116848E+03</pdfrwt>
<pdfrwt beam="2">  1       -2 0.87846615E-01 0.95116848E+03</pdfrwt>
<totfact> 0.15233299E+01</totfact>
</mgrwt>
</event>
<event>
 4    5  0.7289609E-008  0.1005601E+04  0.7818608E-02  0.9374267E-01
          2   -1    0    0  501    0  0.00000000000E+00  0.00000000000E+00  0.56028627020E+03  0.56028627020E+03  0.25500000000E-02 0. -1.
         -2   -1    0    0    0  501 -0.00000000000E+00 -0.00000000000E+00 -0.16473006189E+04  0.16473006189E+04  0.25500000000E-02 0.  1.
    8880023    1    1    2    0    0  0.73972311667E+03 -0.17387327923E+03 -0.10155355329E+04  0.14291762772E+04  0.65864270000E+03 0.  0.
    8880022    1    1    2    0    0 -0.73972311667E+03  0.17387327923E+03 -0.71478815821E+02  0.77841061188E+03  0.15294330000E+03 0.  0.
<mgrwt>
<rscale>  0 0.94224016E+03</rscale>
<asrwt>0</asrwt>
<pdfrwt beam="1">  1        2 0.86197889E-01 0.10056005E+04</pdfrwt>
<pdfrwt beam="2">  1       -2 0.25343086E+00 0.10056005E+04</pdfrwt>
<totfact> 0.32939841E+00</totfact>
</mgrwt>
</event>
<event>
 4    5  0.7289609E-008  0.9677851E+03  0.7818608E-02  0.9424974E-01
         -2   -1    0    0    0  501 -0.00000000000E+00  0.00000000000E+00  0.86618981101E+03  0.86618981102E+03  0.25500000000E-02 0.  1.
          2   -1    0    0  501    0  0.00000000000E+00 -0.00000000000E+00 -0.20651295365E+04  0.20651295365E+04  0.25500000000E-02 0. -1.
    8880023    1    1    2    0    0 -0.62100999500E+02  0.70635771202E+03  0.49614086022E+03  0.10875494062E+04  0.65864270000E+03 0.  1.
    8880022    1    1    2    0    0  0.62100999500E+02 -0.70635771202E+03 -0.16950805857E+04  0.18437699413E+04  0.15294330000E+03 0.  0.
<mgrwt>
<rscale>  0 0.90048598E+03</rscale>
<asrwt>0</asrwt>
<pdfrwt beam="1">  1        2 0.31771223E+00 0.96778508E+03</pdfrwt>
<pdfrwt beam="2">  1       -2 0.13325997E+00 0.96778508E+03</pdfrwt>
<totfact> 0.25151382E+00</totfact>
</mgrwt>
</event>
<event>
 4    5  0.7289609E-008  0.1062765E+04  0.7818608E-02  0.9303691E-01
         -2   -1    0    0    0  501 -0.00000000000E+00  0.00000000000E+00  0.74283830961E+03  0.74283830961E+03  0.25500000000E-02 0.  1.
          2   -1    0    0  501    0  0.00000000000E+00 -0.00000000000E+00 -0.14149417802E+04  0.14149417802E+04  0.25500000000E-02 0. -1.
    8880023    1    1    2    0    0 -0.35468820774E+01  0.83405481920E+03  0.20411070562E+02  0.10629613539E+04  0.65864270000E+03 0.  0.
    8880022    1    1    2    0    0  0.35468820774E+01 -0.83405481920E+03 -0.69251454115E+03  0.10948187359E+04  0.15294330000E+03 0.  0.
<mgrwt>
<rscale>  0 0.10044378E+04</rscale>
<asrwt>0</asrwt>
<pdfrwt beam="1">  1        2 0.21768335E+00 0.10627654E+04</pdfrwt>
<pdfrwt beam="2">  1       -2 0.11428282E+00 0.10627654E+04</pdfrwt>
<totfact> 0.83913876E+00</totfact>
</mgrwt>
</event>
<event>
 4    5  0.7289609E-008  0.7394357E+03  0.7818608E-02  0.9861594E-01
         -2   -1    0    0    0  501 -0.00000000000E+00  0.00000000000E+00  0.55243092943E+03  0.55243092944E+03  0.25500000000E-02 0.  1.
          2   -1    0    0  501    0  0.00000000000E+00 -0.00000000000E+00 -0.31723848360E+04  0.31723848360E+04  0.25500000000E-02 0. -1.
    8880023    1    1    2    0    0  0.22905438786E+03 -0.24594505411E+03  0.28797768681E+03  0.79353401729E+03  0.65864270000E+03 0.  1.
    8880022    1    1    2    0    0 -0.22905438786E+03  0.24594505411E+03 -0.29079315933E+04  0.29312817481E+04  0.15294330000E+03 0.  0.
<mgrwt>
<rscale>  0 0.62159256E+03</rscale>
<asrwt>0</asrwt>
<pdfrwt beam="1">  1        2 0.48805919E+00 0.73943566E+03</pdfrwt>
<pdfrwt beam="2">  1       -2 0.84989376E-01 0.73943566E+03</pdfrwt>
<totfact> 0.17539290E+00</totfact>
</mgrwt>
</event>
<event>
 4    5  0.7289609E-008  0.7000132E+03  0.7818608E-02  0.9997147E-01
         -2   -1    0    0    0  501 -0.00000000000E+00  0.00000000000E+00  0.51960069671E+03  0.51960069672E+03  0.25500000000E-02 0.  1.
          2   -1    0    0  501    0  0.00000000000E+00 -0.00000000000E+00 -0.89002080220E+03  0.89002080220E+03  0.25500000000E-02 0. -1.
    8880023    1    1    2    0    0  0.73879685540E+02  0.22527765228E+03  0.23767666329E+03  0.73926222079E+03  0.65864270000E+03 0.  1.
    8880022    1    1    2    0    0 -0.73879685540E+02 -0.22527765228E+03 -0.60809676878E+03  0.67035927813E+03  0.15294330000E+03 0.  0.
<mgrwt>
<rscale>  0 0.55775531E+03</rscale>
<asrwt>0</asrwt>
<pdfrwt beam="1">  1        2 0.13692628E+00 0.70001317E+03</pdfrwt>
<pdfrwt beam="2">  1       -2 0.79938569E-01 0.70001317E+03</pdfrwt>
<totfact> 0.42030879E+01</totfact>
</mgrwt>
</event>
<event>
 4    5  0.7289609E-008  0.8354574E+03  0.7818608E-02  0.9638806E-01
          2   -1    0    0  501    0  0.00000000000E+00  0.00000000000E+00  0.54314759035E+03  0.54314759036E+03  0.25500000000E-02 0. -1.
         -2   -1    0    0    0  501 -0.00000000000E+00 -0.00000000000E+00 -0.18071951680E+04  0.18071951680E+04  0.25500000000E-02 0.  1.
    8880023    1    1    2    0    0  0.49545551375E+03 -0.13675806909E+03 -0.15364213010E+04  0.17488795144E+04  0.65864270000E+03 0.  1.
    8880022    1    1    2    0    0 -0.49545551375E+03  0.13675806909E+03  0.27237372338E+03  0.60146324391E+03  0.15294330000E+03 0.  0.
<mgrwt>
<rscale>  0 0.74780146E+03</rscale>
<asrwt>0</asrwt>
<pdfrwt beam="1">  1        2 0.83561169E-01 0.83545744E+03</pdfrwt>
<pdfrwt beam="2">  1       -2 0.27803002E+00 0.83545744E+03</pdfrwt>
<totfact> 0.24764974E+00</totfact>
</mgrwt>
</event>
<event>
 4    5  0.7289609E-008  0.7181617E+03  0.7818608E-02  0.9928856E-01
         -2   -1    0    0    0  501 -0.00000000000E+00  0.00000000000E+00  0.24552236397E+03  0.24552236398E+03  0.25500000000E-02 0.  1.
          2   -1    0    0  501    0  0.00000000000E+00 -0.00000000000E+00 -0.14114812652E+04  0.14114812652E+04  0.25500000000E-02 0. -1.
    8880023    1    1    2    0    0 -0.49221216530E+02 -0.28199875674E+03 -0.39297863171E+03  0.81865037605E+03  0.65864270000E+03 0.  0.
    8880022    1    1    2    0    0  0.49221216530E+02  0.28199875674E+03 -0.77298026951E+03  0.83835325313E+03  0.15294330000E+03 0.  0.
<mgrwt>
<rscale>  0 0.58882962E+03</rscale>
<asrwt>0</asrwt>
<pdfrwt beam="1">  1        2 0.21715096E+00 0.71816170E+03</pdfrwt>
<pdfrwt beam="2">  1       -2 0.37772672E-01 0.71816170E+03</pdfrwt>
<totfact> 0.96184256E+01</totfact>
</mgrwt>
</event>
<event>
 4    5  0.7289609E-008  0.2019421E+04  0.7818608E-02  0.8609984E-01
          2   -1    0    0  501    0  0.00000000000E+00  0.00000000000E+00  0.49985632808E+04  0.49985632808E+04  0.25500000000E-02 0. -1.
         -2   -1    0    0    0  501 -0.00000000000E+00 -0.00000000000E+00 -0.88721838446E+03  0.88721838447E+03  0.25500000000E-02 0.  1.
    8880023    1    1    2    0    0 -0.19006091032E+04 -0.17871210739E+03  0.31530305461E+04  0.37442842855E+04  0.65864270000E+03 0.  0.
    8880022    1    1    2    0    0  0.19006091032E+04  0.17871210739E+03  0.95831435030E+03  0.21414973797E+04  0.15294330000E+03 0.  0.
<mgrwt>
<rscale>  0 0.19928226E+04</rscale>
<asrwt>0</asrwt>
<pdfrwt beam="1">  1        2 0.76900971E+00 0.20194215E+04</pdfrwt>
<pdfrwt beam="2">  1       -2 0.13649514E+00 0.20194215E+04</pdfrwt>
<totfact> 0.12113507E-02</totfact>
</mgrwt>
</event>
<event>
 4    5  0.7289609E-008  0.2242703E+04  0.7818608E-02  0.8510575E-01
         -2   -1    0    0    0  501 -0.00000000000E+00  0.00000000000E+00  0.15371647083E+04  0.15371647083E+04  0.25500000000E-02 0.  1.
          2   -1    0    0  501    0  0.00000000000E+00 -0.00000000000E+00 -0.37598671545E+04  0.37598671545E+04  0.25500000000E-02 0. -1.
    8880023    1    1    2    0    0  0.10574359580E+04 -0.18648683465E+04 -0.22087325193E+04  0.31477316123E+04  0.65864270000E+03 0.  0.
    8880022    1    1    2    0    0 -0.10574359580E+04  0.18648683465E+04 -0.13969926858E+02  0.21493002505E+04  0.15294330000E+03 0.  0.
<mgrwt>
<rscale>  0 0.22189665E+04</rscale>
<asrwt>0</asrwt>
<pdfrwt beam="1">  1        2 0.57844110E+00 0.22427026E+04</pdfrwt>
<pdfrwt beam="2">  1       -2 0.23648688E+00 0.22427026E+04</pdfrwt>
<totfact> 0.35610491E-02</totfact>
</mgrwt>
</event>
<event>
 4    5  0.7289609E-008  0.7714080E+03  0.7818608E-02  0.9776421E-01
         -2   -1    0    0    0  501 -0.00000000000E+00  0.00000000000E+00  0.86160364828E+03  0.86160364828E+03  0.25500000000E-02 0.  1.
          2   -1    0    0  501    0  0.00000000000E+00 -0.00000000000E+00 -0.87405202024E+03  0.87405202024E+03  0.25500000000E-02 0. -1.
    8880023    1    1    2    0    0  0.22142067320E+03 -0.33501182543E+03  0.60711365383E+03  0.98166044671E+03  0.65864270000E+03 0.  0.
    8880022    1    1    2    0    0 -0.22142067320E+03  0.33501182543E+03 -0.61956202579E+03  0.75399522181E+03  0.15294330000E+03 0.  0.
<mgrwt>
<rscale>  0 0.66643416E+03</rscale>
<asrwt>0</asrwt>
<pdfrwt beam="1">  1        2 0.13446954E+00 0.77140796E+03</pdfrwt>
<pdfrwt beam="2">  1       -2 0.13255441E+00 0.77140796E+03</pdfrwt>
<totfact> 0.12796546E+01</totfact>
</mgrwt>
</event>
<event>
 4    5  0.7289609E-008  0.6739379E+03  0.7818608E-02  0.1012984E+00
          2   -1    0    0  501    0  0.00000000000E+00  0.00000000000E+00  0.18038218109E+04  0.18038218109E+04  0.25500000000E-02 0. -1.
         -2   -1    0    0    0  501 -0.00000000000E+00 -0.00000000000E+00 -0.40262679264E+03  0.40262679265E+03  0.25500000000E-02 0.  1.
    8880023    1    1    2    0    0  0.13433052169E+03  0.48346480521E+02 -0.10824684657E+03  0.68257575205E+03  0.65864270000E+03 0.  1.
    8880022    1    1    2    0    0 -0.13433052169E+03 -0.48346480521E+02  0.15094418648E+04  0.15238728515E+04  0.15294330000E+03 0.  0.
<mgrwt>
<rscale>  0 0.50305630E+03</rscale>
<asrwt>0</asrwt>
<pdfrwt beam="1">  1        2 0.27751105E+00 0.67393789E+03</pdfrwt>
<pdfrwt beam="2">  1       -2 0.61942584E-01 0.67393789E+03</pdfrwt>
<totfact> 0.21627471E+01</totfact>
</mgrwt>
</event>
<event>
 4    5  0.7289609E-008  0.1534368E+04  0.7818608E-02  0.8885741E-01
         -2   -1    0    0    0  501 -0.00000000000E+00  0.00000000000E+00  0.22938011197E+04  0.22938011197E+04  0.25500000000E-02 0.  1.
          2   -1    0    0  501    0  0.00000000000E+00 -0.00000000000E+00 -0.23364121334E+04  0.23364121334E+04  0.25500000000E-02 0. -1.
    8880023    1    1    2    0    0  0.98744908471E+03  0.97232719717E+03  0.17706103435E+04  0.23429355663E+04  0.65864270000E+03 0.  0.
    8880022    1    1    2    0    0 -0.98744908471E+03 -0.97232719717E+03 -0.18132213572E+04  0.22872776868E+04  0.15294330000E+03 0.  0.
<mgrwt>
<rscale>  0 0.14980646E+04</rscale>
<asrwt>0</asrwt>
<pdfrwt beam="1">  1        2 0.35944802E+00 0.15343683E+04</pdfrwt>
<pdfrwt beam="2">  1       -2 0.35289248E+00 0.15343683E+04</pdfrwt>
<totfact> 0.60273677E-02</totfact>
</mgrwt>
</event>
<event>
 4    5  0.7289609E-008  0.7963590E+03  0.7818608E-02  0.9718725E-01
          2   -1    0    0  501    0  0.00000000000E+00  0.00000000000E+00  0.21413468084E+04  0.21413468084E+04  0.25500000000E-02 0. -1.
         -2   -1    0    0    0  501 -0.00000000000E+00 -0.00000000000E+00 -0.68687336104E+03  0.68687336105E+03  0.25500000000E-02 0.  1.
    8880023    1    1    2    0    0 -0.32943759526E+03 -0.30306484371E+03 -0.41627236944E+03  0.89859352351E+03  0.65864270000E+03 0.  1.
    8880022    1    1    2    0    0  0.32943759526E+03  0.30306484371E+03  0.18707458168E+04  0.19296266459E+04  0.15294330000E+03 0.  0.
<mgrwt>
<rscale>  0 0.69912796E+03</rscale>
<asrwt>0</asrwt>
<pdfrwt beam="1">  1        2 0.32943797E+00 0.79635899E+03</pdfrwt>
<pdfrwt beam="2">  1       -2 0.10567283E+00 0.79635899E+03</pdfrwt>
<totfact> 0.41610244E+00</totfact>
</mgrwt>
</event>
<event>
 4    5  0.7289609E-008  0.8358291E+03  0.7818608E-02  0.9638095E-01
         -2   -1    0    0    0  501 -0.00000000000E+00  0.00000000000E+00  0.12231754619E+04  0.12231754619E+04  0.25500000000E-02 0.  1.
          2   -1    0    0  501    0  0.00000000000E+00 -0.00000000000E+00 -0.84675552873E+03  0.84675552874E+03  0.25500000000E-02 0. -1.
    8880023    1    1    2    0    0 -0.49930310554E+03  0.12448513827E+03  0.96275833459E+03  0.12749564533E+04  0.65864270000E+03 0.  1.
    8880022    1    1    2    0    0  0.49930310554E+03 -0.12448513827E+03 -0.58633840146E+03  0.79497453726E+03  0.15294330000E+03 0.  0.
<mgrwt>
<rscale>  0 0.74825277E+03</rscale>
<asrwt>0</asrwt>
<pdfrwt beam="1">  1        2 0.13027008E+00 0.83582914E+03</pdfrwt>
<pdfrwt beam="2">  1       -2 0.18818084E+00 0.83582914E+03</pdfrwt>
<totfact> 0.51363440E+00</totfact>
</mgrwt>
</event>
<event>
 4    5  0.7289609E-008  0.7236149E+03  0.7818608E-02  0.9910539E-01
          2   -1    0    0  501    0  0.00000000000E+00  0.00000000000E+00  0.82445890857E+03  0.82445890858E+03  0.25500000000E-02 0. -1.
         -2   -1    0    0    0  501 -0.00000000000E+00 -0.00000000000E+00 -0.42501071347E+03  0.42501071348E+03  0.25500000000E-02 0.  1.
    8880023    1    1    2    0    0 -0.29949055021E+03 -0.10665611712E+02 -0.46648550119E+01  0.72362995521E+03  0.65864270000E+03 0.  0.
    8880022    1    1    2    0    0  0.29949055021E+03  0.10665611712E+02  0.40411305011E+03  0.52583966684E+03  0.15294330000E+03 0.  0.
<mgrwt>
<rscale>  0 0.59753237E+03</rscale>
<asrwt>0</asrwt>
<pdfrwt beam="1">  1        2 0.12683983E+00 0.72361492E+03</pdfrwt>
<pdfrwt beam="2">  1       -2 0.65386265E-01 0.72361492E+03</pdfrwt>
<totfact> 0.72395570E+01</totfact>
</mgrwt>
</event>
<event>
 4    5  0.7289609E-008  0.1077312E+04  0.7818608E-02  0.9286747E-01
          2   -1    0    0  501    0  0.00000000000E+00  0.00000000000E+00  0.32202074872E+04  0.32202074872E+04  0.25500000000E-02 0. -1.
         -2   -1    0    0    0  501 -0.00000000000E+00 -0.00000000000E+00 -0.52838554549E+03  0.52838554549E+03  0.25500000000E-02 0.  1.
    8880023    1    1    2    0    0  0.72457703624E+03  0.44919851605E+03  0.18078468657E+03  0.10923756210E+04  0.65864270000E+03 0.  0.
    8880022    1    1    2    0    0 -0.72457703624E+03 -0.44919851605E+03  0.25110372551E+04  0.26562174116E+04  0.15294330000E+03 0.  0.
<mgrwt>
<rscale>  0 0.10201218E+04</rscale>
<asrwt>0</asrwt>
<pdfrwt beam="1">  1        2 0.49541654E+00 0.10773121E+04</pdfrwt>
<pdfrwt beam="2">  1       -2 0.81290084E-01 0.10773121E+04</pdfrwt>
<totfact> 0.17016747E+00</totfact>
</mgrwt>
</event>
<event>
 4    5  0.7289609E-008  0.8636863E+03  0.7818608E-02  0.9587040E-01
          2   -1    0    0  501    0  0.00000000000E+00  0.00000000000E+00  0.26971285005E+04  0.26971285005E+04  0.25500000000E-02 0. -1.
         -2   -1    0    0    0  501 -0.00000000000E+00 -0.00000000000E+00 -0.24979673953E+03  0.24979673955E+03  0.25500000000E-02 0.  1.
    8880023    1    1    2    0    0 -0.44006380155E+03 -0.34422043076E+03  0.21020532506E+04  0.22725716554E+04  0.65864270000E+03 0.  0.
    8880022    1    1    2    0    0  0.44006380155E+03  0.34422043076E+03  0.34527851038E+03  0.67435358465E+03  0.15294330000E+03 0.  0.
<mgrwt>
<rscale>  0 0.78159962E+03</rscale>
<asrwt>0</asrwt>
<pdfrwt beam="1">  1        2 0.41494288E+00 0.86368632E+03</pdfrwt>
<pdfrwt beam="2">  1       -2 0.38430265E-01 0.86368632E+03</pdfrwt>
<totfact> 0.17625388E+01</totfact>
</mgrwt>
</event>
<event>
 4    5  0.7289609E-008  0.8584741E+03  0.7818608E-02  0.9596284E-01
          2   -1    0    0  501    0  0.00000000000E+00  0.00000000000E+00  0.65120068608E+03  0.65120068608E+03  0.25500000000E-02 0. -1.
         -2   -1    0    0    0  501 -0.00000000000E+00 -0.00000000000E+00 -0.88533933011E+03  0.88533933012E+03  0.25500000000E-02 0.  1.
    8880023    1    1    2    0    0  0.53666483559E+02  0.54798490309E+03 -0.39191908103E+03  0.94370457126E+03  0.65864270000E+03 0.  0.
    8880022    1    1    2    0    0 -0.53666483559E+02 -0.54798490309E+03  0.15778043700E+03  0.59283544495E+03  0.15294330000E+03 0.  0.
<mgrwt>
<rscale>  0 0.77542649E+03</rscale>
<asrwt>0</asrwt>
<pdfrwt beam="1">  1        2 0.10018472E+00 0.85847408E+03</pdfrwt>
<pdfrwt beam="2">  1       -2 0.13620605E+00 0.85847408E+03</pdfrwt>
<totfact> 0.17373163E+01</totfact>
</mgrwt>
</event>
<event>
 4    5  0.7289609E-008  0.8440106E+03  0.7818608E-02  0.9622664E-01
         -2   -1    0    0    0  501 -0.00000000000E+00  0.00000000000E+00  0.52748929665E+03  0.52748929665E+03  0.25500000000E-02 0.  1.
          2   -1    0    0  501    0  0.00000000000E+00 -0.00000000000E+00 -0.11776585716E+04  0.11776585716E+04  0.25500000000E-02 0. -1.
    8880023    1    1    2    0    0 -0.48087498251E+03 -0.21749233497E+03  0.12745777682E+02  0.84410682125E+03  0.65864270000E+03 0.  0.
    8880022    1    1    2    0    0  0.48087498251E+03  0.21749233497E+03 -0.66291505259E+03  0.86104104696E+03  0.15294330000E+03 0.  0.
<mgrwt>
<rscale>  0 0.75814131E+03</rscale>
<asrwt>0</asrwt>
<pdfrwt beam="1">  1        2 0.18117824E+00 0.84401059E+03</pdfrwt>
<pdfrwt beam="2">  1       -2 0.81152199E-01 0.84401059E+03</pdfrwt>
<totfact> 0.26382781E+01</totfact>
</mgrwt>
</event>
<event>
 4    5  0.7289609E-008  0.1134725E+04  0.7818608E-02  0.9223345E-01
         -2   -1    0    0    0  501 -0.00000000000E+00  0.00000000000E+00  0.69275783627E+03  0.69275783627E+03  0.25500000000E-02 0.  1.
          2   -1    0    0  501    0  0.00000000000E+00 -0.00000000000E+00 -0.22324065405E+04  0.22324065405E+04  0.25500000000E-02 0. -1.
    8880023    1    1    2    0    0  0.35940842058E+02 -0.92330813272E+03 -0.13807099152E+02  0.11348085717E+04  0.65864270000E+03 0.  0.
    8880022    1    1    2    0    0 -0.35940842058E+02  0.92330813272E+03 -0.15258416051E+04  0.17903558051E+04  0.15294330000E+03 0.  0.
<mgrwt>
<rscale>  0 0.10815685E+04</rscale>
<asrwt>0</asrwt>
<pdfrwt beam="1">  1        2 0.34344716E+00 0.11347246E+04</pdfrwt>
<pdfrwt beam="2">  1       -2 0.10657813E+00 0.11347246E+04</pdfrwt>
<totfact> 0.34652590E+00</totfact>
</mgrwt>
</event>
<event>
 4    5  0.7289609E-008  0.7927077E+03  0.7818608E-02  0.9726791E-01
          2   -1    0    0  501    0  0.00000000000E+00  0.00000000000E+00  0.34477448864E+04  0.34477448864E+04  0.25500000000E-02 0. -1.
         -2   -1    0    0    0  501 -0.00000000000E+00 -0.00000000000E+00 -0.19524384416E+03  0.19524384418E+03  0.25500000000E-02 0.  1.
    8880023    1    1    2    0    0 -0.23667779285E+03  0.37223498098E+03  0.72994312623E+03  0.10775910321E+04  0.65864270000E+03 0.  1.
    8880022    1    1    2    0    0  0.23667779285E+03 -0.37223498098E+03  0.25225579160E+04  0.25653976984E+04  0.15294330000E+03 0.  0.
<mgrwt>
<rscale>  0 0.69443823E+03</rscale>
<asrwt>0</asrwt>
<pdfrwt beam="1">  1        2 0.53042229E+00 0.79270768E+03</pdfrwt>
<pdfrwt beam="2">  1       -2 0.30037515E-01 0.79270768E+03</pdfrwt>
<totfact> 0.96704095E+00</totfact>
</mgrwt>
</event>
<event>
 4    5  0.7289609E-008  0.6814837E+03  0.7818608E-02  0.1008497E+00
          2   -1    0    0  501    0  0.00000000000E+00  0.00000000000E+00  0.17730883838E+04  0.17730883838E+04  0.25500000000E-02 0. -1.
         -2   -1    0    0    0  501 -0.00000000000E+00 -0.00000000000E+00 -0.33871043731E+03  0.33871043732E+03  0.25500000000E-02 0.  1.
    8880023    1    1    2    0    0 -0.32823482488E+01  0.17492592769E+03  0.23476265778E+02  0.68188796390E+03  0.65864270000E+03 0.  1.
    8880022    1    1    2    0    0  0.32823482488E+01 -0.17492592769E+03  0.14109016807E+04  0.14299108573E+04  0.15294330000E+03 0.  0.
<mgrwt>
<rscale>  0 0.52076567E+03</rscale>
<asrwt>0</asrwt>
<pdfrwt beam="1">  1        2 0.27278283E+00 0.68148372E+03</pdfrwt>
<pdfrwt beam="2">  1       -2 0.52109299E-01 0.68148372E+03</pdfrwt>
<totfact> 0.32198557E+01</totfact>
</mgrwt>
</event>
<event>
 4    5  0.7289609E-008  0.6589297E+03  0.7818608E-02  0.1025281E+00
         -2   -1    0    0    0  501 -0.00000000000E+00  0.00000000000E+00  0.25740419080E+03  0.25740419082E+03  0.25500000000E-02 0.  1.
          2   -1    0    0  501    0  0.00000000000E+00 -0.00000000000E+00 -0.14239663361E+04  0.14239663361E+04  0.25500000000E-02 0. -1.
    8880023    1    1    2    0    0 -0.12689136675E+02 -0.14734026754E+02 -0.18032917966E+03  0.68315951654E+03  0.65864270000E+03 0.  1.
    8880022    1    1    2    0    0  0.12689136675E+02  0.14734026754E+02 -0.98623296560E+03  0.99821101035E+03  0.15294330000E+03 0.  0.
<mgrwt>
<rscale>  0 0.45828157E+03</rscale>
<asrwt>0</asrwt>
<pdfrwt beam="1">  1        2 0.21907174E+00 0.65892967E+03</pdfrwt>
<pdfrwt beam="2">  1       -2 0.39600646E-01 0.65892967E+03</pdfrwt>
<totfact> 0.86872542E+01</totfact>
</mgrwt>
</event>
<event>
 4    5  0.7289609E-008  0.9042232E+03  0.7818608E-02  0.9519286E-01
         -2   -1    0    0    0  501 -0.00000000000E+00  0.00000000000E+00  0.30136060247E+03  0.30136060248E+03  0.25500000000E-02 0.  1.
          2   -1    0    0  501    0  0.00000000000E+00 -0.00000000000E+00 -0.39431541127E+04  0.39431541127E+04  0.25500000000E-02 0. -1.
    8880023    1    1    2    0    0  0.46024287944E+03 -0.41471184488E+03 -0.48937154182E+03  0.10281556957E+04  0.65864270000E+03 0.  1.
    8880022    1    1    2    0    0 -0.46024287944E+03  0.41471184488E+03 -0.31524219684E+04  0.32163590195E+04  0.15294330000E+03 0.  0.
<mgrwt>
<rscale>  0 0.82876777E+03</rscale>
<asrwt>0</asrwt>
<pdfrwt beam="1">  1        2 0.60663906E+00 0.90422322E+03</pdfrwt>
<pdfrwt beam="2">  1       -2 0.46363172E-01 0.90422322E+03</pdfrwt>
<totfact> 0.17958369E+00</totfact>
</mgrwt>
</event>
<event>
 4    5  0.7289609E-008  0.7996788E+03  0.7818608E-02  0.9711491E-01
          2   -1    0    0  501    0  0.00000000000E+00  0.00000000000E+00  0.18740225341E+04  0.18740225341E+04  0.25500000000E-02 0. -1.
         -2   -1    0    0    0  501 -0.00000000000E+00 -0.00000000000E+00 -0.92368236080E+03  0.92368236080E+03  0.25500000000E-02 0.  1.
    8880023    1    1    2    0    0  0.45163126101E+03  0.41292925003E+02 -0.71022964007E+03  0.10695383347E+04  0.65864270000E+03 0.  1.
    8880022    1    1    2    0    0 -0.45163126101E+03 -0.41292925003E+02  0.16605698133E+04  0.17281665601E+04  0.15294330000E+03 0.  0.
<mgrwt>
<rscale>  0 0.70336721E+03</rscale>
<asrwt>0</asrwt>
<pdfrwt beam="1">  1        2 0.28831115E+00 0.79967875E+03</pdfrwt>
<pdfrwt beam="2">  1       -2 0.14210498E+00 0.79967875E+03</pdfrwt>
<totfact> 0.27814514E+00</totfact>
</mgrwt>
</event>
<event>
 4    5  0.7289609E-008  0.7917715E+03  0.7818608E-02  0.9728878E-01
         -2   -1    0    0    0  501 -0.00000000000E+00  0.00000000000E+00  0.19949613245E+03  0.19949613247E+03  0.25500000000E-02 0.  1.
          2   -1    0    0  501    0  0.00000000000E+00 -0.00000000000E+00 -0.46667393034E+04  0.46667393034E+04  0.25500000000E-02 0. -1.
    8880023    1    1    2    0    0  0.17133782746E+03 -0.40464218357E+03 -0.66031318256E+03  0.10309780081E+04  0.65864270000E+03 0.  1.
    8880022    1    1    2    0    0 -0.17133782746E+03  0.40464218357E+03 -0.38069299884E+04  0.38352574278E+04  0.15294330000E+03 0.  0.
<mgrwt>
<rscale>  0 0.69323110E+03</rscale>
<asrwt>0</asrwt>
<pdfrwt beam="1">  1        2 0.71795981E+00 0.79177153E+03</pdfrwt>
<pdfrwt beam="2">  1       -2 0.30691716E-01 0.79177153E+03</pdfrwt>
<totfact> 0.92958525E-01</totfact>
</mgrwt>
</event>
<event>
 4    5  0.7289609E-008  0.1077338E+04  0.7818608E-02  0.9286717E-01
         -2   -1    0    0    0  501 -0.00000000000E+00  0.00000000000E+00  0.48773095916E+03  0.48773095916E+03  0.25500000000E-02 0.  1.
          2   -1    0    0  501    0  0.00000000000E+00 -0.00000000000E+00 -0.20480380019E+04  0.20480380019E+04  0.25500000000E-02 0. -1.
    8880023    1    1    2    0    0  0.15594254521E+03 -0.83816989017E+03 -0.56554252702E+03  0.12167560965E+04  0.65864270000E+03 0.  0.
    8880022    1    1    2    0    0 -0.15594254521E+03  0.83816989017E+03 -0.99476451575E+03  0.13190128646E+04  0.15294330000E+03 0.  0.
<mgrwt>
<rscale>  0 0.10201497E+04</rscale>
<asrwt>0</asrwt>
<pdfrwt beam="1">  1        2 0.31508276E+00 0.10773379E+04</pdfrwt>
<pdfrwt beam="2">  1       -2 0.75035533E-01 0.10773379E+04</pdfrwt>
<totfact> 0.99685839E+00</totfact>
</mgrwt>
</event>
<event>
 4    5  0.7289609E-008  0.1113708E+04  0.7818608E-02  0.9245945E-01
         -2   -1    0    0    0  501 -0.00000000000E+00  0.00000000000E+00  0.48762890260E+03  0.48762890261E+03  0.25500000000E-02 0.  1.
          2   -1    0    0  501    0  0.00000000000E+00 -0.00000000000E+00 -0.25997219828E+04  0.25997219828E+04  0.25500000000E-02 0. -1.
    8880023    1    1    2    0    0 -0.48648199846E+03  0.75489790914E+03 -0.46864135884E+03  0.12082923974E+04  0.65864270000E+03 0. -1.
    8880022    1    1    2    0    0  0.48648199846E+03 -0.75489790914E+03 -0.16434517214E+04  0.18790584881E+04  0.15294330000E+03 0.  0.
<mgrwt>
<rscale>  0 0.10591526E+04</rscale>
<asrwt>0</asrwt>
<pdfrwt beam="1">  1        2 0.39995722E+00 0.11137081E+04</pdfrwt>
<pdfrwt beam="2">  1       -2 0.75019833E-01 0.11137081E+04</pdfrwt>
<totfact> 0.48495153E+00</totfact>
</mgrwt>
</event>
<event>
 4    5  0.7289609E-008  0.1356959E+04  0.7818608E-02  0.9017869E-01
         -2   -1    0    0    0  501 -0.00000000000E+00  0.00000000000E+00  0.88384135840E+03  0.88384135840E+03  0.25500000000E-02 0.  1.
          2   -1    0    0  501    0  0.00000000000E+00 -0.00000000000E+00 -0.31388220286E+04  0.31388220286E+04  0.25500000000E-02 0. -1.
    8880023    1    1    2    0    0  0.63404749008E+03  0.10027523076E+04  0.12121015209E+03  0.13623621095E+04  0.65864270000E+03 0.  0.
    8880022    1    1    2    0    0 -0.63404749008E+03 -0.10027523076E+04 -0.23761908223E+04  0.26603012776E+04  0.15294330000E+03 0. -1.
<mgrwt>
<rscale>  0 0.13148525E+04</rscale>
<asrwt>0</asrwt>
<pdfrwt beam="1">  1        2 0.48289569E+00 0.13569593E+04</pdfrwt>
<pdfrwt beam="2">  1       -2 0.13597559E+00 0.13569593E+04</pdfrwt>
<totfact> 0.53257909E-01</totfact>
</mgrwt>
</event>
<event>
 4    5  0.9182824E-008  0.9378498E+03  0.7818608E-02  0.9467815E-01
          2   -1    0    0  501    0  0.00000000000E+00  0.00000000000E+00  0.28166030410E+04  0.28166030410E+04  0.25500000000E-02 0. -1.
         -2   -1    0    0    0  501 -0.00000000000E+00 -0.00000000000E+00 -0.92208224930E+03  0.92208224930E+03  0.25500000000E-02 0.  1.
    8880023    1    1    2    0    0  0.65791537069E+03  0.11357522376E+03 -0.62545820056E+03  0.11272799712E+04  0.65864270000E+03 0.  1.
    8880022    1    1    2    0    0 -0.65791537069E+03 -0.11357522376E+03  0.25199789922E+04  0.26114053191E+04  0.15294330000E+03 0.  0.
<mgrwt>
<rscale>  0 0.86698819E+03</rscale>
<asrwt>0</asrwt>
<pdfrwt beam="1">  1        2 0.43332354E+00 0.93784976E+03</pdfrwt>
<pdfrwt beam="2">  1       -2 0.14185881E+00 0.93784976E+03</pdfrwt>
<totfact> 0.80249504E-01</totfact>
</mgrwt>
</event>
<event>
 4    5  0.7289609E-008  0.7090198E+03  0.7818608E-02  0.9961659E-01
         -2   -1    0    0    0  501 -0.00000000000E+00  0.00000000000E+00  0.71147470800E+03  0.71147470801E+03  0.25500000000E-02 0.  1.
          2   -1    0    0  501    0  0.00000000000E+00 -0.00000000000E+00 -0.52247996504E+03  0.52247996505E+03  0.25500000000E-02 0. -1.
    8880023    1    1    2    0    0  0.30529823819E+02 -0.26070435882E+03  0.44464178061E+03  0.83690821013E+03  0.65864270000E+03 0.  0.
    8880022    1    1    2    0    0 -0.30529823819E+02  0.26070435882E+03 -0.25564703765E+03  0.39704646293E+03  0.15294330000E+03 0.  0.
<mgrwt>
<rscale>  0 0.57363861E+03</rscale>
<asrwt>0</asrwt>
<pdfrwt beam="1">  1        2 0.80381533E-01 0.70901977E+03</pdfrwt>
<pdfrwt beam="2">  1       -2 0.10945765E+00 0.70901977E+03</pdfrwt>
<totfact> 0.39483814E+01</totfact>
</mgrwt>
</event>
<event>
 4    5  0.7289609E-008  0.6820233E+03  0.7818608E-02  0.1008202E+00
         -2   -1    0    0    0  501 -0.00000000000E+00  0.00000000000E+00  0.39989732126E+03  0.39989732127E+03  0.25500000000E-02 0.  1.
          2   -1    0    0  501    0  0.00000000000E+00 -0.00000000000E+00 -0.10880673112E+04  0.10880673112E+04  0.25500000000E-02 0. -1.
    8880023    1    1    2    0    0 -0.15738737024E+03  0.81085033747E+02  0.78373977314E+02  0.68651165583E+03  0.65864270000E+03 0.  1.
    8880022    1    1    2    0    0  0.15738737024E+03 -0.81085033747E+02 -0.76654396726E+03  0.80145297665E+03  0.15294330000E+03 0.  0.
<mgrwt>
<rscale>  0 0.52195703E+03</rscale>
<asrwt>0</asrwt>
<pdfrwt beam="1">  1        2 0.16739497E+00 0.68202329E+03</pdfrwt>
<pdfrwt beam="2">  1       -2 0.61522665E-01 0.68202329E+03</pdfrwt>
<totfact> 0.55649549E+01</totfact>
</mgrwt>
</event>
<event>
 4    5  0.7289609E-008  0.9330983E+03  0.7818608E-02  0.9474861E-01
          2   -1    0    0  501    0  0.00000000000E+00  0.00000000000E+00  0.19070298916E+04  0.19070298916E+04  0.25500000000E-02 0. -1.
         -2   -1    0    0    0  501 -0.00000000000E+00 -0.00000000000E+00 -0.42658890305E+03  0.42658890306E+03  0.25500000000E-02 0.  1.
    8880023    1    1    2    0    0 -0.31062235166E+03 -0.58341747762E+03  0.31451351158E+03  0.98467819808E+03  0.65864270000E+03 0.  0.
    8880022    1    1    2    0    0  0.31062235166E+03  0.58341747762E+03  0.11659274770E+04  0.13489405966E+04  0.15294330000E+03 0.  0.
<mgrwt>
<rscale>  0 0.86162883E+03</rscale>
<asrwt>0</asrwt>
<pdfrwt beam="1">  1        2 0.29338921E+00 0.93309828E+03</pdfrwt>
<pdfrwt beam="2">  1       -2 0.65629062E-01 0.93309828E+03</pdfrwt>
<totfact> 0.16241464E+01</totfact>
</mgrwt>
</event>
<event>
 4    5  0.7289609E-008  0.1143174E+04  0.7818608E-02  0.9214444E-01
          2   -1    0    0  501    0  0.00000000000E+00  0.00000000000E+00  0.29312570720E+04  0.29312570720E+04  0.25500000000E-02 0. -1.
         -2   -1    0    0    0  501 -0.00000000000E+00 -0.00000000000E+00 -0.51934368473E+03  0.51934368474E+03  0.25500000000E-02 0.  1.
    8880023    1    1    2    0    0  0.55936994454E+03 -0.74842572208E+03  0.37284342338E+03  0.12024384479E+04  0.65864270000E+03 0.  0.
    8880022    1    1    2    0    0 -0.55936994454E+03  0.74842572208E+03  0.20390699639E+04  0.22481623089E+04  0.15294330000E+03 0.  0.
<mgrwt>
<rscale>  0 0.10905574E+04</rscale>
<asrwt>0</asrwt>
<pdfrwt beam="1">  1        2 0.45096264E+00 0.11431737E+04</pdfrwt>
<pdfrwt beam="2">  1       -2 0.79899026E-01 0.11431737E+04</pdfrwt>
<totfact> 0.26626726E+00</totfact>
</mgrwt>
</event>
<event>
 4    5  0.7289609E-008  0.1052962E+04  0.7818608E-02  0.9315329E-01
          2   -1    0    0  501    0  0.00000000000E+00  0.00000000000E+00  0.28237099078E+04  0.28237099078E+04  0.25500000000E-02 0. -1.
         -2   -1    0    0    0  501 -0.00000000000E+00 -0.00000000000E+00 -0.82751960507E+03  0.82751960508E+03  0.25500000000E-02 0.  1.
    8880023    1    1    2    0    0 -0.94278361923E+02 -0.81610688056E+03 -0.39006205229E+03  0.11228880002E+04  0.65864270000E+03 0.  1.
    8880022    1    1    2    0    0  0.94278361923E+02  0.81610688056E+03  0.23862523551E+04  0.25283415128E+04  0.15294330000E+03 0.  0.
<mgrwt>
<rscale>  0 0.99383802E+03</rscale>
<asrwt>0</asrwt>
<pdfrwt beam="1">  1        2 0.43441692E+00 0.10529620E+04</pdfrwt>
<pdfrwt beam="2">  1       -2 0.12731071E+00 0.10529620E+04</pdfrwt>
<totfact> 0.10294002E+00</totfact>
</mgrwt>
</event>
<event>
 4    5  0.7289609E-008  0.1428718E+04  0.7818608E-02  0.8961683E-01
          2   -1    0    0  501    0  0.00000000000E+00  0.00000000000E+00  0.12318180113E+04  0.12318180113E+04  0.25500000000E-02 0. -1.
         -2   -1    0    0    0  501 -0.00000000000E+00 -0.00000000000E+00 -0.19460410191E+04  0.19460410191E+04  0.25500000000E-02 0.  1.
    8880023    1    1    2    0    0 -0.12676475466E+04  0.22241741041E+02 -0.11441612329E+04  0.18303934360E+04  0.65864270000E+03 0.  0.
    8880022    1    1    2    0    0  0.12676475466E+04 -0.22241741041E+02  0.42993822508E+03  0.13474655943E+04  0.15294330000E+03 0.  0.
<mgrwt>
<rscale>  0 0.13891864E+04</rscale>
<asrwt>0</asrwt>
<pdfrwt beam="1">  1        2 0.18951046E+00 0.14287180E+04</pdfrwt>
<pdfrwt beam="2">  1       -2 0.29939093E+00 0.14287180E+04</pdfrwt>
<totfact> 0.55279625E-01</totfact>
</mgrwt>
</event>
<event>
 4    5  0.7289609E-008  0.7000998E+03  0.7818608E-02  0.9996787E-01
         -2   -1    0    0    0  501 -0.00000000000E+00  0.00000000000E+00  0.47358190977E+03  0.47358190978E+03  0.25500000000E-02 0.  1.
          2   -1    0    0  501    0  0.00000000000E+00 -0.00000000000E+00 -0.90249439338E+03  0.90249439338E+03  0.25500000000E-02 0. -1.
    8880023    1    1    2    0    0 -0.58178738750E+02 -0.23009725018E+03  0.16427900750E+03  0.71911564352E+03  0.65864270000E+03 0.  1.
    8880022    1    1    2    0    0  0.58178738750E+02  0.23009725018E+03 -0.59319149110E+03  0.65696065964E+03  0.15294330000E+03 0.  0.
<mgrwt>
<rscale>  0 0.55791324E+03</rscale>
<asrwt>0</asrwt>
<pdfrwt beam="1">  1        2 0.13884529E+00 0.70009979E+03</pdfrwt>
<pdfrwt beam="2">  1       -2 0.72858755E-01 0.70009979E+03</pdfrwt>
<totfact> 0.50664363E+01</totfact>
</mgrwt>
</event>
<event>
 4    5  0.7289609E-008  0.7759397E+03  0.7818608E-02  0.9765463E-01
          2   -1    0    0  501    0  0.00000000000E+00  0.00000000000E+00  0.13001893795E+04  0.13001893795E+04  0.25500000000E-02 0. -1.
         -2   -1    0    0    0  501 -0.00000000000E+00 -0.00000000000E+00 -0.16314195209E+04  0.16314195209E+04  0.25500000000E-02 0.  1.
    8880023    1    1    2    0    0 -0.92184188834E+02 -0.39971776876E+03 -0.14971083663E+04  0.16862431278E+04  0.65864270000E+03 0.  1.
    8880022    1    1    2    0    0  0.92184188834E+02  0.39971776876E+03  0.11658782249E+04  0.12453657727E+04  0.15294330000E+03 0.  0.
<mgrwt>
<rscale>  0 0.67249415E+03</rscale>
<asrwt>0</asrwt>
<pdfrwt beam="1">  1        2 0.20002913E+00 0.77593970E+03</pdfrwt>
<pdfrwt beam="2">  1       -2 0.25098762E+00 0.77593970E+03</pdfrwt>
<totfact> 0.10827239E+00</totfact>
</mgrwt>
</event>
<event>
 4    5  0.7289609E-008  0.8566135E+03  0.7818608E-02  0.9599616E-01
         -2   -1    0    0    0  501 -0.00000000000E+00  0.00000000000E+00  0.54772469405E+03  0.54772469405E+03  0.25500000000E-02 0.  1.
          2   -1    0    0  501    0  0.00000000000E+00 -0.00000000000E+00 -0.24037005739E+04  0.24037005739E+04  0.25500000000E-02 0. -1.
    8880023    1    1    2    0    0 -0.52464623449E+03 -0.15723503477E+03  0.14713840582E+03  0.86915846901E+03  0.65864270000E+03 0.  0.
    8880022    1    1    2    0    0  0.52464623449E+03  0.15723503477E+03 -0.20031142856E+04  0.20822667989E+04  0.15294330000E+03 0.  0.
<mgrwt>
<rscale>  0 0.77321604E+03</rscale>
<asrwt>0</asrwt>
<pdfrwt beam="1">  1        2 0.36980008E+00 0.85661353E+03</pdfrwt>
<pdfrwt beam="2">  1       -2 0.84265339E-01 0.85661353E+03</pdfrwt>
<totfact> 0.50015247E+00</totfact>
</mgrwt>
</event>
<event>
 4    5  0.7289609E-008  0.7565793E+03  0.7818608E-02  0.9814045E-01
          2   -1    0    0  501    0  0.00000000000E+00  0.00000000000E+00  0.10948137924E+04  0.10948137924E+04  0.25500000000E-02 0. -1.
         -2   -1    0    0    0  501 -0.00000000000E+00 -0.00000000000E+00 -0.52079640702E+03  0.52079640703E+03  0.25500000000E-02 0.  1.
    8880023    1    1    2    0    0  0.36630869660E+03 -0.66482634485E+02 -0.16475895131E+03  0.77431112623E+03  0.65864270000E+03 0.  0.
    8880022    1    1    2    0    0 -0.36630869660E+03  0.66482634485E+02  0.73877633665E+03  0.84129907316E+03  0.15294330000E+03 0.  0.
<mgrwt>
<rscale>  0 0.64614217E+03</rscale>
<asrwt>0</asrwt>
<pdfrwt beam="1">  1        2 0.16843289E+00 0.75657928E+03</pdfrwt>
<pdfrwt beam="2">  1       -2 0.80122524E-01 0.75657928E+03</pdfrwt>
<totfact> 0.30735324E+01</totfact>
</mgrwt>
</event>
<event>
 4    5  0.7289609E-008  0.1025861E+04  0.7818608E-02  0.9348479E-01
         -2   -1    0    0    0  501 -0.00000000000E+00  0.00000000000E+00  0.29478904562E+03  0.29478904563E+03  0.25500000000E-02 0.  1.
          2   -1    0    0  501    0  0.00000000000E+00 -0.00000000000E+00 -0.32655011565E+04  0.32655011565E+04  0.25500000000E-02 0. -1.
    8880023    1    1    2    0    0  0.20181083470E+02  0.78623961181E+03 -0.99864595010E+03  0.14316717303E+04  0.65864270000E+03 0.  0.
    8880022    1    1    2    0    0 -0.20181083470E+02 -0.78623961181E+03 -0.19720661608E+04  0.21286184719E+04  0.15294330000E+03 0.  0.
<mgrwt>
<rscale>  0 0.96439685E+03</rscale>
<asrwt>0</asrwt>
<pdfrwt beam="1">  1        2 0.50238477E+00 0.10258607E+04</pdfrwt>
<pdfrwt beam="2">  1       -2 0.45352163E-01 0.10258607E+04</pdfrwt>
<totfact> 0.55567845E+00</totfact>
</mgrwt>
</event>
<event>
 4    5  0.8351588E-008  0.9161439E+03  0.7818608E-02  0.9500597E-01
          2   -1    0    0  501    0  0.00000000000E+00  0.00000000000E+00  0.19234128911E+04  0.19234128911E+04  0.25500000000E-02 0. -1.
         -2   -1    0    0    0  501 -0.00000000000E+00 -0.00000000000E+00 -0.13888607488E+04  0.13888607488E+04  0.25500000000E-02 0.  1.
    8880023    1    1    2    0    0  0.52170247543E+03 -0.36515189758E+03 -0.11701348252E+04  0.14861140927E+04  0.65864270000E+03 0.  1.
    8880022    1    1    2    0    0 -0.52170247543E+03  0.36515189758E+03  0.17046869676E+04  0.18261595471E+04  0.15294330000E+03 0.  0.
<mgrwt>
<rscale>  0 0.84239813E+03</rscale>
<asrwt>0</asrwt>
<pdfrwt beam="1">  1        2 0.29590967E+00 0.91614387E+03</pdfrwt>
<pdfrwt beam="2">  1       -2 0.21367088E+00 0.91614387E+03</pdfrwt>
<totfact> 0.80899856E-01</totfact>
</mgrwt>
</event>
<event>
 4    5  0.7289609E-008  0.7992130E+03  0.7818608E-02  0.9712500E-01
          2   -1    0    0  501    0  0.00000000000E+00  0.00000000000E+00  0.10823898256E+04  0.10823898256E+04  0.25500000000E-02 0. -1.
         -2   -1    0    0    0  501 -0.00000000000E+00 -0.00000000000E+00 -0.73489806644E+03  0.73489806645E+03  0.25500000000E-02 0.  1.
    8880023    1    1    2    0    0 -0.30070797258E+03  0.33838734756E+03 -0.42785070024E+03  0.90653058951E+03  0.65864270000E+03 0.  0.
    8880022    1    1    2    0    0  0.30070797258E+03 -0.33838734756E+03  0.77534245940E+03  0.91075730254E+03  0.15294330000E+03 0.  0.
<mgrwt>
<rscale>  0 0.70277388E+03</rscale>
<asrwt>0</asrwt>
<pdfrwt beam="1">  1        2 0.16652151E+00 0.79921304E+03</pdfrwt>
<pdfrwt beam="2">  1       -2 0.11306124E+00 0.79921304E+03</pdfrwt>
<totfact> 0.13900505E+01</totfact>
</mgrwt>
</event>
<event>
 4    5  0.7289609E-008  0.1002428E+04  0.7818608E-02  0.9378388E-01
         -2   -1    0    0    0  501 -0.00000000000E+00  0.00000000000E+00  0.98446437108E+03  0.98446437108E+03  0.25500000000E-02 0.  1.
          2   -1    0    0  501    0  0.00000000000E+00 -0.00000000000E+00 -0.95922126151E+03  0.95922126151E+03  0.25500000000E-02 0. -1.
    8880023    1    1    2    0    0  0.49839080488E+03  0.56802996552E+03 -0.38077476344E+03  0.10723110849E+04  0.65864270000E+03 0. -1.
    8880022    1    1    2    0    0 -0.49839080488E+03 -0.56802996552E+03  0.40601787301E+03  0.87137454767E+03  0.15294330000E+03 0.  0.
<mgrwt>
<rscale>  0 0.93875797E+03</rscale>
<asrwt>0</asrwt>
<pdfrwt beam="1">  1        2 0.14757250E+00 0.10024279E+04</pdfrwt>
<pdfrwt beam="2">  1       -2 0.15145606E+00 0.10024279E+04</pdfrwt>
<totfact> 0.77489823E+00</totfact>
</mgrwt>
</event>
<event>
 4    5  0.7289609E-008  0.9101903E+03  0.7818608E-02  0.9509867E-01
         -2   -1    0    0    0  501 -0.00000000000E+00  0.00000000000E+00  0.36863944577E+03  0.36863944578E+03  0.25500000000E-02 0.  1.
          2   -1    0    0  501    0  0.00000000000E+00 -0.00000000000E+00 -0.26930489489E+04  0.26930489489E+04  0.25500000000E-02 0. -1.
    8880023    1    1    2    0    0 -0.56198324438E+03  0.28073309187E+03 -0.22295937477E+04  0.24082223157E+04  0.65864270000E+03 0. -1.
    8880022    1    1    2    0    0  0.56198324438E+03 -0.28073309187E+03 -0.94815755385E+02  0.65346607894E+03  0.15294330000E+03 0.  0.
<mgrwt>
<rscale>  0 0.83560267E+03</rscale>
<asrwt>0</asrwt>
<pdfrwt beam="1">  1        2 0.41431521E+00 0.91019033E+03</pdfrwt>
<pdfrwt beam="2">  1       -2 0.56713763E-01 0.91019033E+03</pdfrwt>
<totfact> 0.80392066E+00</totfact>
</mgrwt>
</event>
<event>
 4    5  0.7289609E-008  0.6728378E+03  0.7818608E-02  0.1013705E+00
          2   -1    0    0  501    0  0.00000000000E+00  0.00000000000E+00  0.23524094339E+04  0.23524094339E+04  0.25500000000E-02 0. -1.
         -2   -1    0    0    0  501 -0.00000000000E+00 -0.00000000000E+00 -0.10982452508E+03  0.10982452511E+03  0.25500000000E-02 0.  1.
    8880023    1    1    2    0    0 -0.37683150431E+01  0.13742734344E+03  0.10164155880E+04  0.12189386075E+04  0.65864270000E+03 0.  1.
    8880022    1    1    2    0    0  0.37683150431E+01 -0.13742734344E+03  0.12261693208E+04  0.12432953516E+04  0.15294330000E+03 0.  0.
<mgrwt>
<rscale>  0 0.50028239E+03</rscale>
<asrwt>0</asrwt>
<pdfrwt beam="1">  1        2 0.36190915E+00 0.67283778E+03</pdfrwt>
<pdfrwt beam="2">  1       -2 0.16896081E-01 0.67283778E+03</pdfrwt>
<totfact> 0.12624898E+02</totfact>
</mgrwt>
</event>
<event>
 4    5  0.7840591E-008  0.9913791E+03  0.7818608E-02  0.9392924E-01
          2   -1    0    0  501    0  0.00000000000E+00  0.00000000000E+00  0.34838634978E+04  0.34838634978E+04  0.25500000000E-02 0. -1.
         -2   -1    0    0    0  501 -0.00000000000E+00 -0.00000000000E+00 -0.12370551605E+04  0.12370551605E+04  0.25500000000E-02 0.  1.
    8880023    1    1    2    0    0 -0.53694941994E+03  0.51059532034E+03 -0.98750977641E+03  0.13992883997E+04  0.65864270000E+03 0.  0.
    8880022    1    1    2    0    0  0.53694941994E+03 -0.51059532034E+03  0.32343181138E+04  0.33216302586E+04  0.15294330000E+03 0.  0.
<mgrwt>
<rscale>  0 0.92660275E+03</rscale>
<asrwt>0</asrwt>
<pdfrwt beam="1">  1        2 0.53597899E+00 0.99137907E+03</pdfrwt>
<pdfrwt beam="2">  1       -2 0.19031618E+00 0.99137907E+03</pdfrwt>
<totfact> 0.13287259E-01</totfact>
</mgrwt>
</event>
<event>
 4    5  0.7289609E-008  0.7967910E+03  0.7818608E-02  0.9717778E-01
         -2   -1    0    0    0  501 -0.00000000000E+00  0.00000000000E+00  0.20623743144E+03  0.20623743146E+03  0.25500000000E-02 0.  1.
          2   -1    0    0  501    0  0.00000000000E+00 -0.00000000000E+00 -0.31873416352E+04  0.31873416352E+04  0.25500000000E-02 0. -1.
    8880023    1    1    2    0    0 -0.63663062203E+02  0.44386110673E+03 -0.69007800246E+03  0.10540794673E+04  0.65864270000E+03 0.  0.
    8880022    1    1    2    0    0  0.63663062203E+02 -0.44386110673E+03 -0.22910262013E+04  0.23394995994E+04  0.15294330000E+03 0.  0.
<mgrwt>
<rscale>  0 0.69968092E+03</rscale>
<asrwt>0</asrwt>
<pdfrwt beam="1">  1        2 0.49036021E+00 0.79679099E+03</pdfrwt>
<pdfrwt beam="2">  1       -2 0.31728838E-01 0.79679099E+03</pdfrwt>
<totfact> 0.12917190E+01</totfact>
</mgrwt>
</event>
<event>
 4    5  0.7289609E-008  0.7704979E+03  0.7818608E-02  0.9778650E-01
         -2   -1    0    0    0  501 -0.00000000000E+00  0.00000000000E+00  0.10405347852E+04  0.10405347852E+04  0.25500000000E-02 0.  1.
          2   -1    0    0  501    0  0.00000000000E+00 -0.00000000000E+00 -0.63853279414E+03  0.63853279415E+03  0.25500000000E-02 0. -1.
    8880023    1    1    2    0    0  0.44143318567E+02 -0.39737662763E+03  0.78841046244E+03  0.11023874456E+04  0.65864270000E+03 0.  1.
    8880022    1    1    2    0    0 -0.44143318567E+02  0.39737662763E+03 -0.38640847142E+03  0.57668013367E+03  0.15294330000E+03 0.  0.
<mgrwt>
<rscale>  0 0.66520980E+03</rscale>
<asrwt>0</asrwt>
<pdfrwt beam="1">  1        2 0.98235815E-01 0.77049791E+03</pdfrwt>
<pdfrwt beam="2">  1       -2 0.16008227E+00 0.77049791E+03</pdfrwt>
<totfact> 0.11716451E+01</totfact>
</mgrwt>
</event>
<event>
 4    5  0.7289609E-008  0.1279369E+04  0.7818608E-02  0.9083584E-01
          2   -1    0    0  501    0  0.00000000000E+00  0.00000000000E+00  0.24493263053E+04  0.24493263053E+04  0.25500000000E-02 0. -1.
         -2   -1    0    0    0  501 -0.00000000000E+00 -0.00000000000E+00 -0.74671729392E+03  0.74671729392E+03  0.25500000000E-02 0.  1.
    8880023    1    1    2    0    0  0.21161911781E+03  0.10761928807E+04  0.14881123256E+03  0.12879940826E+04  0.65864270000E+03 0.  1.
    8880022    1    1    2    0    0 -0.21161911781E+03 -0.10761928807E+04  0.15537977788E+04  0.19080495166E+04  0.15294330000E+03 0.  0.
<mgrwt>
<rscale>  0 0.12340258E+04</rscale>
<asrwt>0</asrwt>
<pdfrwt beam="1">  1        2 0.37681943E+00 0.12793686E+04</pdfrwt>
<pdfrwt beam="2">  1       -2 0.11487958E+00 0.12793686E+04</pdfrwt>
<totfact> 0.21397934E+00</totfact>
</mgrwt>
</event>
<event>
 4    5  0.7289609E-008  0.1182153E+04  0.7818608E-02  0.9174669E-01
         -2   -1    0    0    0  501 -0.00000000000E+00  0.00000000000E+00  0.67562229598E+03  0.67562229599E+03  0.25500000000E-02 0.  1.
          2   -1    0    0  501    0  0.00000000000E+00 -0.00000000000E+00 -0.31734149067E+04  0.31734149067E+04  0.25500000000E-02 0. -1.
    8880023    1    1    2    0    0 -0.96860297575E+03  0.15963845739E+03 -0.23121689426E+02  0.11823793725E+04  0.65864270000E+03 0.  1.
    8880022    1    1    2    0    0  0.96860297575E+03 -0.15963845739E+03 -0.24746709213E+04  0.26666578302E+04  0.15294330000E+03 0.  0.
<mgrwt>
<rscale>  0 0.11318756E+04</rscale>
<asrwt>0</asrwt>
<pdfrwt beam="1">  1        2 0.48821767E+00 0.11821533E+04</pdfrwt>
<pdfrwt beam="2">  1       -2 0.10394189E+00 0.11821533E+04</pdfrwt>
<totfact> 0.10119554E+00</totfact>
</mgrwt>
</event>
<event>
 4    5  0.7289609E-008  0.1319050E+04  0.7818608E-02  0.9049282E-01
          2   -1    0    0  501    0  0.00000000000E+00  0.00000000000E+00  0.20917417353E+04  0.20917417353E+04  0.25500000000E-02 0. -1.
         -2   -1    0    0    0  501 -0.00000000000E+00 -0.00000000000E+00 -0.80733348076E+03  0.80733348077E+03  0.25500000000E-02 0.  1.
    8880023    1    1    2    0    0  0.75279460393E+03 -0.85987314683E+03  0.23464770034E+03  0.13397579236E+04  0.65864270000E+03 0.  0.
    8880022    1    1    2    0    0 -0.75279460393E+03  0.85987314683E+03  0.10497605542E+04  0.15593172924E+04  0.15294330000E+03 0.  0.
<mgrwt>
<rscale>  0 0.12754275E+04</rscale>
<asrwt>0</asrwt>
<pdfrwt beam="1">  1        2 0.32180642E+00 0.13190496E+04</pdfrwt>
<pdfrwt beam="2">  1       -2 0.12420515E+00 0.13190496E+04</pdfrwt>
<totfact> 0.27906286E+00</totfact>
</mgrwt>
</event>
<event>
 4    5  0.7289609E-008  0.8507056E+03  0.7818608E-02  0.9610315E-01
          2   -1    0    0  501    0  0.00000000000E+00  0.00000000000E+00  0.25255815540E+03  0.25255815541E+03  0.25500000000E-02 0. -1.
         -2   -1    0    0    0  501 -0.00000000000E+00 -0.00000000000E+00 -0.25574021729E+04  0.25574021729E+04  0.25500000000E-02 0.  1.
    8880023    1    1    2    0    0  0.52447720224E+03 -0.12171039528E+03 -0.19981981292E+04  0.21717494620E+04  0.65864270000E+03 0.  1.
    8880022    1    1    2    0    0 -0.52447720224E+03  0.12171039528E+03 -0.30664588823E+03  0.63821086623E+03  0.15294330000E+03 0.  0.
<mgrwt>
<rscale>  0 0.76617201E+03</rscale>
<asrwt>0</asrwt>
<pdfrwt beam="1">  1        2 0.38855103E-01 0.85070557E+03</pdfrwt>
<pdfrwt beam="2">  1       -2 0.39344647E+00 0.85070557E+03</pdfrwt>
<totfact> 0.11373043E+00</totfact>
</mgrwt>
</event>
<event>
 4    5  0.7289609E-008  0.1657017E+04  0.7818608E-02  0.8806047E-01
          2   -1    0    0  501    0  0.00000000000E+00  0.00000000000E+00  0.12629890001E+04  0.12629890001E+04  0.25500000000E-02 0. -1.
         -2   -1    0    0    0  501 -0.00000000000E+00 -0.00000000000E+00 -0.23998757700E+04  0.23998757700E+04  0.25500000000E-02 0.  1.
    8880023    1    1    2    0    0 -0.15170956987E+04  0.10156256623E+03 -0.13270494073E+04  0.21229141880E+04  0.65864270000E+03 0.  0.
    8880022    1    1    2    0    0  0.15170956987E+04 -0.10156256623E+03  0.19016263739E+03  0.15399505822E+04  0.15294330000E+03 0.  0.
<mgrwt>
<rscale>  0 0.16238192E+04</rscale>
<asrwt>0</asrwt>
<pdfrwt beam="1">  1        2 0.19430600E+00 0.16570168E+04</pdfrwt>
<pdfrwt beam="2">  1       -2 0.36921166E+00 0.16570168E+04</pdfrwt>
<totfact> 0.18973924E-01</totfact>
</mgrwt>
</event>
<event>
 4    5  0.7289609E-008  0.7893070E+03  0.7818608E-02  0.9734412E-01
          2   -1    0    0  501    0  0.00000000000E+00  0.00000000000E+00  0.11726067897E+04  0.11726067897E+04  0.25500000000E-02 0. -1.
         -2   -1    0    0    0  501 -0.00000000000E+00 -0.00000000000E+00 -0.34989418511E+03  0.34989418512E+03  0.25500000000E-02 0.  1.
    8880023    1    1    2    0    0 -0.35997551195E+03 -0.24415760198E+03  0.35411093745E+03  0.86510118836E+03  0.65864270000E+03 0.  0.
    8880022    1    1    2    0    0  0.35997551195E+03  0.24415760198E+03  0.46860166715E+03  0.65739978649E+03  0.15294330000E+03 0.  1.
<mgrwt>
<rscale>  0 0.69004360E+03</rscale>
<asrwt>0</asrwt>
<pdfrwt beam="1">  1        2 0.18040104E+00 0.78930698E+03</pdfrwt>
<pdfrwt beam="2">  1       -2 0.53829875E-01 0.78930698E+03</pdfrwt>
<totfact> 0.64800013E+01</totfact>
</mgrwt>
</event>
<event>
 4    5  0.7289609E-008  0.7442471E+03  0.7818608E-02  0.9847744E-01
          2   -1    0    0  501    0  0.00000000000E+00  0.00000000000E+00  0.22239727807E+04  0.22239727807E+04  0.25500000000E-02 0. -1.
         -2   -1    0    0    0  501 -0.00000000000E+00 -0.00000000000E+00 -0.21747359265E+03  0.21747359266E+03  0.25500000000E-02 0.  1.
    8880023    1    1    2    0    0 -0.11291213694E+03 -0.32763444043E+03  0.52118299804E+03  0.90858978694E+03  0.65864270000E+03 0.  0.
    8880022    1    1    2    0    0  0.11291213694E+03  0.32763444043E+03  0.14853161900E+04  0.15328565864E+04  0.15294330000E+03 0.  0.
<mgrwt>
<rscale>  0 0.62862074E+03</rscale>
<asrwt>0</asrwt>
<pdfrwt beam="1">  1        2 0.34214966E+00 0.74424706E+03</pdfrwt>
<pdfrwt beam="2">  1       -2 0.33457476E-01 0.74424706E+03</pdfrwt>
<totfact> 0.43288926E+01</totfact>
</mgrwt>
</event>
<event>
 4    5  0.7289609E-008  0.1685724E+04  0.7818608E-02  0.8788531E-01
         -2   -1    0    0    0  501 -0.00000000000E+00  0.00000000000E+00  0.16119954918E+04  0.16119954918E+04  0.25500000000E-02 0.  1.
          2   -1    0    0  501    0  0.00000000000E+00 -0.00000000000E+00 -0.17488080245E+04  0.17488080245E+04  0.25500000000E-02 0. -1.
    8880023    1    1    2    0    0 -0.95832504445E+03  0.12204376534E+04 -0.50293601073E+03  0.17591503045E+04  0.65864270000E+03 0.  0.
    8880022    1    1    2    0    0  0.95832504445E+03 -0.12204376534E+04  0.36612347801E+03  0.16016532118E+04  0.15294330000E+03 0.  0.
<mgrwt>
<rscale>  0 0.16531736E+04</rscale>
<asrwt>0</asrwt>
<pdfrwt beam="1">  1        2 0.26904739E+00 0.16857239E+04</pdfrwt>
<pdfrwt beam="2">  1       -2 0.24799931E+00 0.16857239E+04</pdfrwt>
<totfact> 0.56151852E-01</totfact>
</mgrwt>
</event>
<event>
 4    5  0.7289609E-008  0.9625557E+03  0.7818608E-02  0.9432275E-01
          2   -1    0    0  501    0  0.00000000000E+00  0.00000000000E+00  0.52793557381E+03  0.52793557381E+03  0.25500000000E-02 0. -1.
         -2   -1    0    0    0  501 -0.00000000000E+00 -0.00000000000E+00 -0.18239828933E+04  0.18239828933E+04  0.25500000000E-02 0.  1.
    8880023    1    1    2    0    0  0.10427673457E+03 -0.69413954820E+03 -0.13193348540E+04  0.16331435984E+04  0.65864270000E+03 0.  1.
    8880022    1    1    2    0    0 -0.10427673457E+03  0.69413954820E+03  0.23287534412E+02  0.71877486880E+03  0.15294330000E+03 0.  0.
<mgrwt>
<rscale>  0 0.89466536E+03</rscale>
<asrwt>0</asrwt>
<pdfrwt beam="1">  1        2 0.81220858E-01 0.96255574E+03</pdfrwt>
<pdfrwt beam="2">  1       -2 0.28061275E+00 0.96255574E+03</pdfrwt>
<totfact> 0.24322150E+00</totfact>
</mgrwt>
</event>
<event>
 4    5  0.7289609E-008  0.7747477E+03  0.7818608E-02  0.9768322E-01
         -2   -1    0    0    0  501 -0.00000000000E+00  0.00000000000E+00  0.81526300315E+03  0.81526300316E+03  0.25500000000E-02 0.  1.
          2   -1    0    0  501    0  0.00000000000E+00 -0.00000000000E+00 -0.17058034534E+04  0.17058034534E+04  0.25500000000E-02 0. -1.
    8880023    1    1    2    0    0 -0.20110274836E+03  0.35493874012E+03  0.59250875133E+03  0.97534642630E+03  0.65864270000E+03 0.  0.
    8880022    1    1    2    0    0  0.20110274836E+03 -0.35493874012E+03 -0.14830492015E+04  0.15457200302E+04  0.15294330000E+03 0.  0.
<mgrwt>
<rscale>  0 0.67090601E+03</rscale>
<asrwt>0</asrwt>
<pdfrwt beam="1">  1        2 0.26243130E+00 0.77474772E+03</pdfrwt>
<pdfrwt beam="2">  1       -2 0.12542508E+00 0.77474772E+03</pdfrwt>
<totfact> 0.47464714E+00</totfact>
</mgrwt>
</event>
<event>
 4    5  0.7289609E-008  0.1220699E+04  0.7818608E-02  0.9137260E-01
         -2   -1    0    0    0  501 -0.00000000000E+00  0.00000000000E+00  0.38698135839E+03  0.38698135840E+03  0.25500000000E-02 0.  1.
          2   -1    0    0  501    0  0.00000000000E+00 -0.00000000000E+00 -0.46210836955E+04  0.46210836955E+04  0.25500000000E-02 0. -1.
    8880023    1    1    2    0    0  0.44078188812E+03  0.92844306536E+03 -0.35747910672E+04  0.37774643054E+04  0.65864270000E+03 0.  0.
    8880022    1    1    2    0    0 -0.44078188812E+03 -0.92844306536E+03 -0.65931126993E+03  0.12306007485E+04  0.15294330000E+03 0.  0.
<mgrwt>
<rscale>  0 0.11725155E+04</rscale>
<asrwt>0</asrwt>
<pdfrwt beam="1">  1        2 0.71093592E+00 0.12206987E+04</pdfrwt>
<pdfrwt beam="2">  1       -2 0.59535597E-01 0.12206987E+04</pdfrwt>
<totfact> 0.25381512E-01</totfact>
</mgrwt>
</event>
<event>
 4    5  0.7289609E-008  0.1056527E+04  0.7818608E-02  0.9311076E-01
          2   -1    0    0  501    0  0.00000000000E+00  0.00000000000E+00  0.35374433611E+03  0.35374433612E+03  0.25500000000E-02 0. -1.
         -2   -1    0    0    0  501 -0.00000000000E+00 -0.00000000000E+00 -0.27253185106E+04  0.27253185106E+04  0.25500000000E-02 0.  1.
    8880023    1    1    2    0    0 -0.17518658874E+03 -0.80730956336E+03 -0.17084883996E+04  0.20087762169E+04  0.65864270000E+03 0.  0.
    8880022    1    1    2    0    0  0.17518658874E+03  0.80730956336E+03 -0.66308577487E+03  0.10702866297E+04  0.15294330000E+03 0.  0.
<mgrwt>
<rscale>  0 0.99769551E+03</rscale>
<asrwt>0</asrwt>
<pdfrwt beam="1">  1        2 0.54422207E-01 0.10565270E+04</pdfrwt>
<pdfrwt beam="2">  1       -2 0.41927976E+00 0.10565270E+04</pdfrwt>
<totfact> 0.51392842E-01</totfact>
</mgrwt>
</event>
<event>
 4    5  0.7289609E-008  0.9189338E+03  0.7818608E-02  0.9496296E-01
          2   -1    0    0  501    0  0.00000000000E+00  0.00000000000E+00  0.16522714169E+04  0.16522714169E+04  0.25500000000E-02 0. -1.
         -2   -1    0    0    0  501 -0.00000000000E+00 -0.00000000000E+00 -0.50625722771E+03  0.50625722771E+03  0.25500000000E-02 0.  1.
    8880023    1    1    2    0    0  0.63670284255E+03 -0.72377909503E+02  0.10274449756E+03  0.92465978043E+03  0.65864270000E+03 0. -1.
    8880022    1    1    2    0    0 -0.63670284255E+03  0.72377909503E+02  0.10432696916E+04  0.12338688642E+04  0.15294330000E+03 0.  0.
<mgrwt>
<rscale>  0 0.84557468E+03</rscale>
<asrwt>0</asrwt>
<pdfrwt beam="1">  1        2 0.25419560E+00 0.91893377E+03</pdfrwt>
<pdfrwt beam="2">  1       -2 0.77885728E-01 0.91893377E+03</pdfrwt>
<totfact> 0.15409335E+01</totfact>
</mgrwt>
</event>
<event>
 4    5  0.7289609E-008  0.8456169E+03  0.7818608E-02  0.9619679E-01
         -2   -1    0    0    0  501 -0.00000000000E+00  0.00000000000E+00  0.76614405211E+03  0.76614405211E+03  0.25500000000E-02 0.  1.
          2   -1    0    0  501    0  0.00000000000E+00 -0.00000000000E+00 -0.23253134944E+04  0.23253134944E+04  0.25500000000E-02 0. -1.
    8880023    1    1    2    0    0 -0.34564808431E+03 -0.40222527174E+03  0.48448900048E+03  0.97457558212E+03  0.65864270000E+03 0.  0.
    8880022    1    1    2    0    0  0.34564808431E+03  0.40222527174E+03 -0.20436584428E+04  0.21168819644E+04  0.15294330000E+03 0.  0.
<mgrwt>
<rscale>  0 0.76007298E+03</rscale>
<asrwt>0</asrwt>
<pdfrwt beam="1">  1        2 0.35774053E+00 0.84561692E+03</pdfrwt>
<pdfrwt beam="2">  1       -2 0.11786832E+00 0.84561692E+03</pdfrwt>
<totfact> 0.25024839E+00</totfact>
</mgrwt>
</event>
<event>
 4    5  0.7289609E-008  0.7025466E+03  0.7818608E-02  0.9986796E-01
         -2   -1    0    0    0  501 -0.00000000000E+00  0.00000000000E+00  0.88701387814E+03  0.88701387814E+03  0.25500000000E-02 0.  1.
          2   -1    0    0  501    0  0.00000000000E+00 -0.00000000000E+00 -0.10987630772E+04  0.10987630772E+04  0.25500000000E-02 0. -1.
    8880023    1    1    2    0    0  0.12181704999E+01  0.24445867592E+03  0.72266648819E+03  0.10078782603E+04  0.65864270000E+03 0.  0.
    8880022    1    1    2    0    0 -0.12181704999E+01 -0.24445867592E+03 -0.93441568728E+03  0.97789869507E+03  0.15294330000E+03 0.  0.
<mgrwt>
<rscale>  0 0.56232995E+03</rscale>
<asrwt>0</asrwt>
<pdfrwt beam="1">  1        2 0.16904047E+00 0.70254661E+03</pdfrwt>
<pdfrwt beam="2">  1       -2 0.13646367E+00 0.70254661E+03</pdfrwt>
<totfact> 0.85871439E+00</totfact>
</mgrwt>
</event>
<event>
 4    5  0.7289609E-008  0.9093462E+03  0.7818608E-02  0.9511191E-01
          2   -1    0    0  501    0  0.00000000000E+00  0.00000000000E+00  0.62448144450E+03  0.62448144450E+03  0.25500000000E-02 0. -1.
         -2   -1    0    0    0  501 -0.00000000000E+00 -0.00000000000E+00 -0.11774602079E+04  0.11774602079E+04  0.25500000000E-02 0.  1.
    8880023    1    1    2    0    0 -0.83831651357E+02  0.62134733643E+03 -0.69086017490E+03  0.11420149937E+04  0.65864270000E+03 0.  0.
    8880022    1    1    2    0    0  0.83831651357E+02 -0.62134733643E+03  0.13788141149E+03  0.65992665873E+03  0.15294330000E+03 0.  0.
<mgrwt>
<rscale>  0 0.83463723E+03</rscale>
<asrwt>0</asrwt>
<pdfrwt beam="1">  1        2 0.96074068E-01 0.90934617E+03</pdfrwt>
<pdfrwt beam="2">  1       -2 0.18114772E+00 0.90934617E+03</pdfrwt>
<totfact> 0.84213709E+00</totfact>
</mgrwt>
</event>
<event>
 4    5  0.7289609E-008  0.2008110E+04  0.7818608E-02  0.8615391E-01
          2   -1    0    0  501    0  0.00000000000E+00  0.00000000000E+00  0.19121912408E+04  0.19121912408E+04  0.25500000000E-02 0. -1.
         -2   -1    0    0    0  501 -0.00000000000E+00 -0.00000000000E+00 -0.26141961047E+04  0.26141961047E+04  0.25500000000E-02 0.  1.
    8880023    1    1    2    0    0  0.82820930077E+03 -0.17066828275E+04  0.73841379926E+03  0.21395705328E+04  0.65864270000E+03 0.  0.
    8880022    1    1    2    0    0 -0.82820930077E+03  0.17066828275E+04 -0.14404186632E+04  0.23868168128E+04  0.15294330000E+03 0.  0.
<mgrwt>
<rscale>  0 0.19813471E+04</rscale>
<asrwt>0</asrwt>
<pdfrwt beam="1">  1        2 0.29418327E+00 0.20081103E+04</pdfrwt>
<pdfrwt beam="2">  1       -2 0.40218402E+00 0.20081103E+04</pdfrwt>
<totfact> 0.47596845E-02</totfact>
</mgrwt>
</event>
<event>
 4    5  0.7289609E-008  0.1110321E+04  0.7818608E-02  0.9249651E-01
         -2   -1    0    0    0  501 -0.00000000000E+00  0.00000000000E+00  0.13260145856E+04  0.13260145856E+04  0.25500000000E-02 0.  1.
          2   -1    0    0  501    0  0.00000000000E+00 -0.00000000000E+00 -0.79438606059E+03  0.79438606059E+03  0.25500000000E-02 0. -1.
    8880023    1    1    2    0    0 -0.86018315438E+03 -0.24308139244E+03  0.48704134008E+03  0.12124450897E+04  0.65864270000E+03 0.  1.
    8880022    1    1    2    0    0  0.86018315438E+03  0.24308139244E+03  0.44587184932E+02  0.90795555646E+03  0.15294330000E+03 0.  0.
<mgrwt>
<rscale>  0 0.10555326E+04</rscale>
<asrwt>0</asrwt>
<pdfrwt beam="1">  1        2 0.12221324E+00 0.11103215E+04</pdfrwt>
<pdfrwt beam="2">  1       -2 0.20400224E+00 0.11103215E+04</pdfrwt>
<totfact> 0.42787857E+00</totfact>
</mgrwt>
</event>
<event>
 4    5  0.7289609E-008  0.8535209E+03  0.7818608E-02  0.9605194E-01
          2   -1    0    0  501    0  0.00000000000E+00  0.00000000000E+00  0.26182282896E+04  0.26182282896E+04  0.25500000000E-02 0. -1.
         -2   -1    0    0    0  501 -0.00000000000E+00 -0.00000000000E+00 -0.15100597375E+04  0.15100597375E+04  0.25500000000E-02 0.  1.
    8880023    1    1    2    0    0 -0.20455855873E+03  0.50283542009E+03 -0.13549804309E+04  0.16013962152E+04  0.65864270000E+03 0.  0.
    8880022    1    1    2    0    0  0.20455855873E+03 -0.50283542009E+03  0.24631489830E+04  0.25268918119E+04  0.15294330000E+03 0.  0.
<mgrwt>
<rscale>  0 0.76953351E+03</rscale>
<asrwt>0</asrwt>
<pdfrwt beam="1">  1        2 0.40280435E+00 0.85352087E+03</pdfrwt>
<pdfrwt beam="2">  1       -2 0.23231689E+00 0.85352087E+03</pdfrwt>
<totfact> 0.25590928E-01</totfact>
</mgrwt>
</event>
<event>
 4    5  0.7289609E-008  0.1783920E+04  0.7818608E-02  0.8731484E-01
          2   -1    0    0  501    0  0.00000000000E+00  0.00000000000E+00  0.28538901096E+04  0.28538901096E+04  0.25500000000E-02 0. -1.
         -2   -1    0    0    0  501 -0.00000000000E+00 -0.00000000000E+00 -0.12838681331E+04  0.12838681331E+04  0.25500000000E-02 0.  1.
    8880023    1    1    2    0    0  0.13981516687E+04  0.89091659055E+03 -0.90633263307E+02  0.17862208863E+04  0.65864270000E+03 0.  0.
    8880022    1    1    2    0    0 -0.13981516687E+04 -0.89091659055E+03  0.16606552398E+04  0.23515373564E+04  0.15294330000E+03 0.  0.
<mgrwt>
<rscale>  0 0.17533950E+04</rscale>
<asrwt>0</asrwt>
<pdfrwt beam="1">  1        2 0.43906001E+00 0.17839200E+04</pdfrwt>
<pdfrwt beam="2">  1       -2 0.19751818E+00 0.17839200E+04</pdfrwt>
<totfact> 0.27034194E-01</totfact>
</mgrwt>
</event>
<event>
 4    5  0.7289609E-008  0.8857352E+03  0.7818608E-02  0.9549330E-01
         -2   -1    0    0    0  501 -0.00000000000E+00  0.00000000000E+00  0.10907955263E+04  0.10907955263E+04  0.25500000000E-02 0.  1.
          2   -1    0    0  501    0  0.00000000000E+00 -0.00000000000E+00 -0.96734644646E+03  0.96734644646E+03  0.25500000000E-02 0. -1.
    8880023    1    1    2    0    0 -0.24689113596E+03  0.53829484221E+03  0.76600381183E+03  0.11710203312E+04  0.65864270000E+03 0.  0.
    8880022    1    1    2    0    0  0.24689113596E+03 -0.53829484221E+03 -0.64255473202E+03  0.88712164150E+03  0.15294330000E+03 0.  0.
<mgrwt>
<rscale>  0 0.80742570E+03</rscale>
<asrwt>0</asrwt>
<pdfrwt beam="1">  1        2 0.14882253E+00 0.88573516E+03</pdfrwt>
<pdfrwt beam="2">  1       -2 0.16781470E+00 0.88573516E+03</pdfrwt>
<totfact> 0.58610066E+00</totfact>
</mgrwt>
</event>
<event>
 4    5  0.7289609E-008  0.9431533E+03  0.7818608E-02  0.9460034E-01
         -2   -1    0    0    0  501 -0.00000000000E+00  0.00000000000E+00  0.66934024697E+03  0.66934024697E+03  0.25500000000E-02 0.  1.
          2   -1    0    0  501    0  0.00000000000E+00 -0.00000000000E+00 -0.17612533041E+04  0.17612533041E+04  0.25500000000E-02 0. -1.
    8880023    1    1    2    0    0  0.92648822501E+02  0.66868830292E+03  0.20074187680E+03  0.96427970949E+03  0.65864270000E+03 0.  0.
    8880022    1    1    2    0    0 -0.92648822501E+02 -0.66868830292E+03 -0.12926549339E+04  0.14663138415E+04  0.15294330000E+03 0.  0.
<mgrwt>
<rscale>  0 0.87295565E+03</rscale>
<asrwt>0</asrwt>
<pdfrwt beam="1">  1        2 0.27096205E+00 0.94315325E+03</pdfrwt>
<pdfrwt beam="2">  1       -2 0.10297542E+00 0.94315325E+03</pdfrwt>
<totfact> 0.70117943E+00</totfact>
</mgrwt>
</event>
<event>
 4    5  0.7289609E-008  0.1099122E+04  0.7818608E-02  0.9262034E-01
          2   -1    0    0  501    0  0.00000000000E+00  0.00000000000E+00  0.10014036725E+04  0.10014036725E+04  0.25500000000E-02 0. -1.
         -2   -1    0    0    0  501 -0.00000000000E+00 -0.00000000000E+00 -0.12428988822E+04  0.12428988822E+04  0.25500000000E-02 0.  1.
    8880023    1    1    2    0    0 -0.80604839679E+03  0.35290875470E+03 -0.63386543140E+03  0.12688002989E+04  0.65864270000E+03 0.  1.
    8880022    1    1    2    0    0  0.80604839679E+03 -0.35290875470E+03  0.39237022166E+03  0.97550225575E+03  0.15294330000E+03 0.  0.
<mgrwt>
<rscale>  0 0.10435444E+04</rscale>
<asrwt>0</asrwt>
<pdfrwt beam="1">  1        2 0.15406210E+00 0.10991218E+04</pdfrwt>
<pdfrwt beam="2">  1       -2 0.19121521E+00 0.10991218E+04</pdfrwt>
<totfact> 0.37540788E+00</totfact>
</mgrwt>
</event>
<event>
 4    5  0.7289609E-008  0.1007567E+04  0.7818608E-02  0.9371724E-01
         -2   -1    0    0    0  501 -0.00000000000E+00  0.00000000000E+00  0.10137977325E+04  0.10137977325E+04  0.25500000000E-02 0.  1.
          2   -1    0    0  501    0  0.00000000000E+00 -0.00000000000E+00 -0.12448226852E+04  0.12448226852E+04  0.25500000000E-02 0. -1.
    8880023    1    1    2    0    0  0.75531871275E+03 -0.10428376248E+03  0.55717038415E+03  0.11513602843E+04  0.65864270000E+03 0.  0.
    8880022    1    1    2    0    0 -0.75531871275E+03  0.10428376248E+03 -0.78819533682E+03  0.11072601334E+04  0.15294330000E+03 0.  0.
<mgrwt>
<rscale>  0 0.94439695E+03</rscale>
<asrwt>0</asrwt>
<pdfrwt beam="1">  1        2 0.19151118E+00 0.10075672E+04</pdfrwt>
<pdfrwt beam="2">  1       -2 0.15596888E+00 0.10075672E+04</pdfrwt>
<totfact> 0.47632810E+00</totfact>
</mgrwt>
</event>
<event>
 4    5  0.7289609E-008  0.8868405E+03  0.7818608E-02  0.9547496E-01
         -2   -1    0    0    0  501 -0.00000000000E+00  0.00000000000E+00  0.23262888225E+04  0.23262888226E+04  0.25500000000E-02 0.  1.
          2   -1    0    0  501    0  0.00000000000E+00 -0.00000000000E+00 -0.11393897397E+04  0.11393897397E+04  0.25500000000E-02 0. -1.
    8880023    1    1    2    0    0  0.57045686248E+03  0.16509046810E+03  0.21489757197E+04  0.23247758483E+04  0.65864270000E+03 0.  1.
    8880022    1    1    2    0    0 -0.57045686248E+03 -0.16509046810E+03 -0.96207663689E+03  0.11409027140E+04  0.15294330000E+03 0.  0.
<mgrwt>
<rscale>  0 0.80870919E+03</rscale>
<asrwt>0</asrwt>
<pdfrwt beam="1">  1        2 0.17529073E+00 0.88684052E+03</pdfrwt>
<pdfrwt beam="2">  1       -2 0.35789059E+00 0.88684052E+03</pdfrwt>
<totfact> 0.29522792E-01</totfact>
</mgrwt>
</event>
<event>
 4    5  0.7289609E-008  0.7549110E+03  0.7818608E-02  0.9818465E-01
          2   -1    0    0  501    0  0.00000000000E+00  0.00000000000E+00  0.19708474272E+04  0.19708474272E+04  0.25500000000E-02 0. -1.
         -2   -1    0    0    0  501 -0.00000000000E+00 -0.00000000000E+00 -0.79200579988E+03  0.79200579988E+03  0.25500000000E-02 0.  1.
    8880023    1    1    2    0    0  0.25528304951E+03  0.26629118294E+03 -0.58457369929E+03  0.95478638744E+03  0.65864270000E+03 0.  1.
    8880022    1    1    2    0    0 -0.25528304951E+03 -0.26629118294E+03  0.17634153267E+04  0.18080668397E+04  0.15294330000E+03 0.  0.
<mgrwt>
<rscale>  0 0.64380953E+03</rscale>
<asrwt>0</asrwt>
<pdfrwt beam="1">  1        2 0.30320729E+00 0.75491101E+03</pdfrwt>
<pdfrwt beam="2">  1       -2 0.12184705E+00 0.75491101E+03</pdfrwt>
<totfact> 0.36688899E+00</totfact>
</mgrwt>
</event>
<event>
 4    5  0.7289609E-008  0.1551010E+04  0.7818608E-02  0.8874431E-01
         -2   -1    0    0    0  501 -0.00000000000E+00  0.00000000000E+00  0.17664618038E+04  0.17664618038E+04  0.25500000000E-02 0.  1.
          2   -1    0    0  501    0  0.00000000000E+00 -0.00000000000E+00 -0.22337532671E+04  0.22337532671E+04  0.25500000000E-02 0. -1.
    8880023    1    1    2    0    0  0.12510654327E+04  0.63769694901E+03  0.10915448198E+04  0.18966028619E+04  0.65864270000E+03 0.  0.
    8880022    1    1    2    0    0 -0.12510654327E+04 -0.63769694901E+03 -0.15588362831E+04  0.21036122091E+04  0.15294330000E+03 0.  0.
<mgrwt>
<rscale>  0 0.15151640E+04</rscale>
<asrwt>0</asrwt>
<pdfrwt beam="1">  1        2 0.34365435E+00 0.15510101E+04</pdfrwt>
<pdfrwt beam="2">  1       -2 0.27176335E+00 0.15510101E+04</pdfrwt>
<totfact> 0.21771089E-01</totfact>
</mgrwt>
</event>
<event>
 4    5  0.7289609E-008  0.1313203E+04  0.7818608E-02  0.9054242E-01
          2   -1    0    0  501    0  0.00000000000E+00  0.00000000000E+00  0.28049772217E+04  0.28049772217E+04  0.25500000000E-02 0. -1.
         -2   -1    0    0    0  501 -0.00000000000E+00 -0.00000000000E+00 -0.58659957751E+03  0.58659957751E+03  0.25500000000E-02 0.  1.
    8880023    1    1    2    0    0  0.65132039875E+03 -0.93084504297E+03  0.69712662585E+03  0.14867704916E+04  0.65864270000E+03 0.  0.
    8880022    1    1    2    0    0 -0.65132039875E+03  0.93084504297E+03  0.15212510183E+04  0.19048063076E+04  0.15294330000E+03 0.  0.
<mgrwt>
<rscale>  0 0.12693361E+04</rscale>
<asrwt>0</asrwt>
<pdfrwt beam="1">  1        2 0.43153495E+00 0.13132026E+04</pdfrwt>
<pdfrwt beam="2">  1       -2 0.90246089E-01 0.13132026E+04</pdfrwt>
<totfact> 0.23534677E+00</totfact>
</mgrwt>
</event>
<event>
 4    5  0.7289609E-008  0.9212841E+03  0.7818608E-02  0.9492693E-01
          2   -1    0    0  501    0  0.00000000000E+00  0.00000000000E+00  0.26317411665E+04  0.26317411665E+04  0.25500000000E-02 0. -1.
         -2   -1    0    0    0  501 -0.00000000000E+00 -0.00000000000E+00 -0.28306092329E+03  0.28306092330E+03  0.25500000000E-02 0.  1.
    8880023    1    1    2    0    0  0.63019344243E+03 -0.13345596071E+03  0.76217432267E+03  0.11956898313E+04  0.65864270000E+03 0.  0.
    8880022    1    1    2    0    0 -0.63019344243E+03  0.13345596071E+03  0.15865059205E+04  0.17191122585E+04  0.15294330000E+03 0.  0.
<mgrwt>
<rscale>  0 0.84824697E+03</rscale>
<asrwt>0</asrwt>
<pdfrwt beam="1">  1        2 0.40488325E+00 0.92128414E+03</pdfrwt>
<pdfrwt beam="2">  1       -2 0.43547835E-01 0.92128414E+03</pdfrwt>
<totfact> 0.14937097E+01</totfact>
</mgrwt>
</event>
<event>
 4    5  0.7289609E-008  0.8168132E+03  0.7818608E-02  0.9675556E-01
          2   -1    0    0  501    0  0.00000000000E+00  0.00000000000E+00  0.24018944283E+04  0.24018944283E+04  0.25500000000E-02 0. -1.
         -2   -1    0    0    0  501 -0.00000000000E+00 -0.00000000000E+00 -0.31700041388E+03  0.31700041389E+03  0.25500000000E-02 0.  1.
    8880023    1    1    2    0    0  0.43952371542E+03  0.20048062069E+03  0.31095032591E+03  0.87399879127E+03  0.65864270000E+03 0.  0.
    8880022    1    1    2    0    0 -0.43952371542E+03 -0.20048062069E+03  0.17739436885E+04  0.18448960509E+04  0.15294330000E+03 0.  0.
<mgrwt>
<rscale>  0 0.72490998E+03</rscale>
<asrwt>0</asrwt>
<pdfrwt beam="1">  1        2 0.36952223E+00 0.81681319E+03</pdfrwt>
<pdfrwt beam="2">  1       -2 0.48769293E-01 0.81681319E+03</pdfrwt>
<totfact> 0.16325606E+01</totfact>
</mgrwt>
</event>
<event>
 4    5  0.7289609E-008  0.1656727E+04  0.7818608E-02  0.8806226E-01
         -2   -1    0    0    0  501 -0.00000000000E+00  0.00000000000E+00  0.19697587959E+04  0.19697587959E+04  0.25500000000E-02 0.  1.
          2   -1    0    0  501    0  0.00000000000E+00 -0.00000000000E+00 -0.16547780211E+04  0.16547780211E+04  0.25500000000E-02 0. -1.
    8880023    1    1    2    0    0  0.13289890902E+04 -0.73805229772E+03 -0.69119865590E+03  0.17951320242E+04  0.65864270000E+03 0.  0.
    8880022    1    1    2    0    0 -0.13289890902E+04  0.73805229772E+03  0.10061794307E+04  0.18294047928E+04  0.15294330000E+03 0.  0.
<mgrwt>
<rscale>  0 0.16235225E+04</rscale>
<asrwt>0</asrwt>
<pdfrwt beam="1">  1        2 0.25458123E+00 0.16567267E+04</pdfrwt>
<pdfrwt beam="2">  1       -2 0.30303981E+00 0.16567267E+04</pdfrwt>
<totfact> 0.29248081E-01</totfact>
</mgrwt>
</event>
<event>
 4    5  0.7289609E-008  0.7439873E+03  0.7818608E-02  0.9848481E-01
         -2   -1    0    0    0  501 -0.00000000000E+00  0.00000000000E+00  0.23789866801E+03  0.23789866803E+03  0.25500000000E-02 0.  1.
          2   -1    0    0  501    0  0.00000000000E+00 -0.00000000000E+00 -0.22091316190E+04  0.22091316190E+04  0.25500000000E-02 0. -1.
    8880023    1    1    2    0    0 -0.18917305477E+03 -0.28969022652E+03 -0.42842875664E+03  0.85852680667E+03  0.65864270000E+03 0.  1.
    8880022    1    1    2    0    0  0.18917305477E+03  0.28969022652E+03 -0.15428041944E+04  0.15885034804E+04  0.15294330000E+03 0.  0.
<mgrwt>
<rscale>  0 0.62824426E+03</rscale>
<asrwt>0</asrwt>
<pdfrwt beam="1">  1        2 0.33986639E+00 0.74398728E+03</pdfrwt>
<pdfrwt beam="2">  1       -2 0.36599797E-01 0.74398728E+03</pdfrwt>
<totfact> 0.37183003E+01</totfact>
</mgrwt>
</event>
<event>
 4    5  0.7289609E-008  0.8030840E+03  0.7818608E-02  0.9704167E-01
         -2   -1    0    0    0  501 -0.00000000000E+00  0.00000000000E+00  0.55718227813E+03  0.55718227814E+03  0.25500000000E-02 0.  1.
          2   -1    0    0  501    0  0.00000000000E+00 -0.00000000000E+00 -0.22795759737E+04  0.22795759737E+04  0.25500000000E-02 0. -1.
    8880023    1    1    2    0    0  0.40581509279E+03 -0.21551753262E+03  0.22180626051E+03  0.83315179881E+03  0.65864270000E+03 0.  1.
    8880022    1    1    2    0    0 -0.40581509279E+03  0.21551753262E+03 -0.19441999560E+04  0.20036064530E+04  0.15294330000E+03 0.  0.
<mgrwt>
<rscale>  0 0.70769227E+03</rscale>
<asrwt>0</asrwt>
<pdfrwt beam="1">  1        2 0.35070399E+00 0.80308399E+03</pdfrwt>
<pdfrwt beam="2">  1       -2 0.85720351E-01 0.80308399E+03</pdfrwt>
<totfact> 0.56916385E+00</totfact>
</mgrwt>
</event>
<event>
 4    5  0.7289609E-008  0.7861542E+03  0.7818608E-02  0.9741574E-01
         -2   -1    0    0    0  501 -0.00000000000E+00  0.00000000000E+00  0.43436387257E+03  0.43436387258E+03  0.25500000000E-02 0.  1.
          2   -1    0    0  501    0  0.00000000000E+00 -0.00000000000E+00 -0.22125130528E+04  0.22125130528E+04  0.25500000000E-02 0. -1.
    8880023    1    1    2    0    0  0.40269083471E+03  0.14855428543E+03  0.25494669018E+02  0.78656752316E+03  0.65864270000E+03 0.  1.
    8880022    1    1    2    0    0 -0.40269083471E+03 -0.14855428543E+03 -0.18036438493E+04  0.18603094023E+04  0.15294330000E+03 0.  0.
<mgrwt>
<rscale>  0 0.68594525E+03</rscale>
<asrwt>0</asrwt>
<pdfrwt beam="1">  1        2 0.34038662E+00 0.78615424E+03</pdfrwt>
<pdfrwt beam="2">  1       -2 0.66825212E-01 0.78615424E+03</pdfrwt>
<totfact> 0.10812685E+01</totfact>
</mgrwt>
</event>
<event>
 4    5  0.7289609E-008  0.6914068E+03  0.7818608E-02  0.1003491E+00
          2   -1    0    0  501    0  0.00000000000E+00  0.00000000000E+00  0.10790396848E+04  0.10790396849E+04  0.25500000000E-02 0. -1.
         -2   -1    0    0    0  501 -0.00000000000E+00 -0.00000000000E+00 -0.25960466863E+03  0.25960466864E+03  0.25500000000E-02 0.  1.
    8880023    1    1    2    0    0 -0.13615069914E+03 -0.16030002797E+03  0.29190525764E+03  0.75050116426E+03  0.65864270000E+03 0.  1.
    8880022    1    1    2    0    0  0.13615069914E+03  0.16030002797E+03  0.52752975858E+03  0.58814318924E+03  0.15294330000E+03 0.  0.
<mgrwt>
<rscale>  0 0.54145634E+03</rscale>
<asrwt>0</asrwt>
<pdfrwt beam="1">  1        2 0.16600611E+00 0.69140677E+03</pdfrwt>
<pdfrwt beam="2">  1       -2 0.39939179E-01 0.69140677E+03</pdfrwt>
<totfact> 0.13542677E+02</totfact>
</mgrwt>
</event>
<event>
 4    5  0.7289609E-008  0.9128792E+03  0.7818608E-02  0.9505665E-01
         -2   -1    0    0    0  501 -0.00000000000E+00  0.00000000000E+00  0.94124446186E+03  0.94124446187E+03  0.25500000000E-02 0.  1.
          2   -1    0    0  501    0  0.00000000000E+00 -0.00000000000E+00 -0.11720594687E+04  0.11720594687E+04  0.25500000000E-02 0. -1.
    8880023    1    1    2    0    0 -0.63084984501E+03  0.39582529184E+02  0.57417927058E+03  0.10784388460E+04  0.65864270000E+03 0.  0.
    8880022    1    1    2    0    0  0.63084984501E+03 -0.39582529184E+02 -0.80499427743E+03  0.10348650846E+04  0.15294330000E+03 0.  0.
<mgrwt>
<rscale>  0 0.83867472E+03</rscale>
<asrwt>0</asrwt>
<pdfrwt beam="1">  1        2 0.18031684E+00 0.91287924E+03</pdfrwt>
<pdfrwt beam="2">  1       -2 0.14480684E+00 0.91287924E+03</pdfrwt>
<totfact> 0.64773397E+00</totfact>
</mgrwt>
</event>
<event>
 4    5  0.7289609E-008  0.6804222E+03  0.7818608E-02  0.1009086E+00
          2   -1    0    0  501    0  0.00000000000E+00  0.00000000000E+00  0.11310345272E+04  0.11310345272E+04  0.25500000000E-02 0. -1.
         -2   -1    0    0    0  501 -0.00000000000E+00 -0.00000000000E+00 -0.61474886578E+03  0.61474886578E+03  0.25500000000E-02 0.  1.
    8880023    1    1    2    0    0  0.14841698298E+03 -0.84478551866E+02 -0.40808076836E+03  0.79341309942E+03  0.65864270000E+03 0.  1.
    8880022    1    1    2    0    0 -0.14841698298E+03  0.84478551866E+02  0.92436642980E+03  0.95237029359E+03  0.15294330000E+03 0.  0.
<mgrwt>
<rscale>  0 0.51839588E+03</rscale>
<asrwt>0</asrwt>
<pdfrwt beam="1">  1        2 0.17400531E+00 0.68042225E+03</pdfrwt>
<pdfrwt beam="2">  1       -2 0.94576749E-01 0.68042225E+03</pdfrwt>
<totfact> 0.20153305E+01</totfact>
</mgrwt>
</event>
<event>
 4    5  0.7289609E-008  0.7467383E+03  0.7818608E-02  0.9840736E-01
         -2   -1    0    0    0  501 -0.00000000000E+00  0.00000000000E+00  0.70728499071E+03  0.70728499071E+03  0.25500000000E-02 0.  1.
          2   -1    0    0  501    0  0.00000000000E+00 -0.00000000000E+00 -0.12167720439E+04  0.12167720439E+04  0.25500000000E-02 0. -1.
    8880023    1    1    2    0    0 -0.20698253283E+03 -0.28454543003E+03  0.46299716939E+03  0.87862645975E+03  0.65864270000E+03 0.  1.
    8880022    1    1    2    0    0  0.20698253283E+03  0.28454543003E+03 -0.97248422257E+03  0.10454305748E+04  0.15294330000E+03 0.  0.
<mgrwt>
<rscale>  0 0.63221474E+03</rscale>
<asrwt>0</asrwt>
<pdfrwt beam="1">  1        2 0.18719570E+00 0.74673829E+03</pdfrwt>
<pdfrwt beam="2">  1       -2 0.10881308E+00 0.74673829E+03</pdfrwt>
<totfact> 0.12736637E+01</totfact>
</mgrwt>
</event>
<event>
 4    5  0.7289609E-008  0.7832708E+03  0.7818608E-02  0.9748209E-01
          2   -1    0    0  501    0  0.00000000000E+00  0.00000000000E+00  0.20314989114E+04  0.20314989114E+04  0.25500000000E-02 0. -1.
         -2   -1    0    0    0  501 -0.00000000000E+00 -0.00000000000E+00 -0.70887068896E+03  0.70887068897E+03  0.25500000000E-02 0.  1.
    8880023    1    1    2    0    0  0.40688416468E+03  0.11894653238E+03 -0.45545526648E+03  0.90606440558E+03  0.65864270000E+03 0.  1.
    8880022    1    1    2    0    0 -0.40688416468E+03 -0.11894653238E+03  0.17780834890E+04  0.18343051948E+04  0.15294330000E+03 0.  0.
<mgrwt>
<rscale>  0 0.68217575E+03</rscale>
<asrwt>0</asrwt>
<pdfrwt beam="1">  1        2 0.31253829E+00 0.78327084E+03</pdfrwt>
<pdfrwt beam="2">  1       -2 0.10905703E+00 0.78327084E+03</pdfrwt>
<totfact> 0.44397014E+00</totfact>
</mgrwt>
</event>
<event>
 4    5  0.7289609E-008  0.8629217E+03  0.7818608E-02  0.9588387E-01
          2   -1    0    0  501    0  0.00000000000E+00  0.00000000000E+00  0.27011761441E+04  0.27011761441E+04  0.25500000000E-02 0. -1.
         -2   -1    0    0    0  501 -0.00000000000E+00 -0.00000000000E+00 -0.42058262938E+03  0.42058262939E+03  0.25500000000E-02 0.  1.
    8880023    1    1    2    0    0  0.55583484582E+03 -0.43258080430E+02  0.10337144411E+03  0.86909119146E+03  0.65864270000E+03 0.  1.
    8880022    1    1    2    0    0 -0.55583484582E+03  0.43258080430E+02  0.21772220706E+04  0.22526675820E+04  0.15294330000E+03 0.  0.
<mgrwt>
<rscale>  0 0.78069577E+03</rscale>
<asrwt>0</asrwt>
<pdfrwt beam="1">  1        2 0.41556556E+00 0.86292169E+03</pdfrwt>
<pdfrwt beam="2">  1       -2 0.64705020E-01 0.86292169E+03</pdfrwt>
<totfact> 0.60541526E+00</totfact>
</mgrwt>
</event>
<event>
 4    5  0.7289609E-008  0.7354087E+03  0.7818608E-02  0.9873529E-01
          2   -1    0    0  501    0  0.00000000000E+00  0.00000000000E+00  0.16472259491E+04  0.16472259491E+04  0.25500000000E-02 0. -1.
         -2   -1    0    0    0  501 -0.00000000000E+00 -0.00000000000E+00 -0.64793025495E+03  0.64793025495E+03  0.25500000000E-02 0.  1.
    8880023    1    1    2    0    0  0.31156736167E+03  0.99707144889E+02 -0.40886727507E+03  0.84142640230E+03  0.65864270000E+03 0.  1.
    8880022    1    1    2    0    0 -0.31156736167E+03 -0.99707144889E+02  0.14081629693E+04  0.14537298018E+04  0.15294330000E+03 0.  0.
<mgrwt>
<rscale>  0 0.61561521E+03</rscale>
<asrwt>0</asrwt>
<pdfrwt beam="1">  1        2 0.25341938E+00 0.73540869E+03</pdfrwt>
<pdfrwt beam="2">  1       -2 0.99681578E-01 0.73540869E+03</pdfrwt>
<totfact> 0.89940636E+00</totfact>
</mgrwt>
</event>
<event>
 4    5  0.7289609E-008  0.1551389E+04  0.7818608E-02  0.8874176E-01
          2   -1    0    0  501    0  0.00000000000E+00  0.00000000000E+00  0.25970066149E+04  0.25970066149E+04  0.25500000000E-02 0. -1.
         -2   -1    0    0    0  501 -0.00000000000E+00 -0.00000000000E+00 -0.11137204475E+04  0.11137204475E+04  0.25500000000E-02 0.  1.
    8880023    1    1    2    0    0 -0.19815979637E+03  0.13905858306E+04 -0.14113061009E+03  0.15577946953E+04  0.65864270000E+03 0.  0.
    8880022    1    1    2    0    0  0.19815979637E+03 -0.13905858306E+04  0.16244167776E+04  0.21529323671E+04  0.15294330000E+03 0.  0.
<mgrwt>
<rscale>  0 0.15155527E+04</rscale>
<asrwt>0</asrwt>
<pdfrwt beam="1">  1        2 0.39953947E+00 0.15513886E+04</pdfrwt>
<pdfrwt beam="2">  1       -2 0.17134161E+00 0.15513886E+04</pdfrwt>
<totfact> 0.59725068E-01</totfact>
</mgrwt>
</event>
<event>
 4    5  0.7289609E-008  0.6966139E+03  0.7818608E-02  0.1001155E+00
         -2   -1    0    0    0  501 -0.00000000000E+00  0.00000000000E+00  0.77061929554E+03  0.77061929554E+03  0.25500000000E-02 0.  1.
          2   -1    0    0  501    0  0.00000000000E+00 -0.00000000000E+00 -0.21336905146E+04  0.21336905146E+04  0.25500000000E-02 0. -1.
    8880023    1    1    2    0    0  0.80296421590E+02  0.21216314924E+03  0.60175165004E+03  0.92053026665E+03  0.65864270000E+03 0.  1.
    8880022    1    1    2    0    0 -0.80296421590E+02 -0.21216314924E+03 -0.19648228691E+04  0.19837795435E+04  0.15294330000E+03 0.  0.
<mgrwt>
<rscale>  0 0.55146734E+03</rscale>
<asrwt>0</asrwt>
<pdfrwt beam="1">  1        2 0.32826008E+00 0.69661390E+03</pdfrwt>
<pdfrwt beam="2">  1       -2 0.11855682E+00 0.69661390E+03</pdfrwt>
<totfact> 0.32334442E+00</totfact>
</mgrwt>
</event>
<event>
 4    5  0.7289609E-008  0.9881319E+03  0.7818608E-02  0.9397252E-01
          2   -1    0    0  501    0  0.00000000000E+00  0.00000000000E+00  0.11346452182E+04  0.11346452182E+04  0.25500000000E-02 0. -1.
         -2   -1    0    0    0  501 -0.00000000000E+00 -0.00000000000E+00 -0.17242378222E+04  0.17242378222E+04  0.25500000000E-02 0.  1.
    8880023    1    1    2    0    0  0.67964179740E+03  0.28404476087E+03 -0.14253673094E+04  0.17343807460E+04  0.65864270000E+03 0.  1.
    8880022    1    1    2    0    0 -0.67964179740E+03 -0.28404476087E+03  0.83577470547E+03  0.11245022945E+04  0.15294330000E+03 0.  0.
<mgrwt>
<rscale>  0 0.92302167E+03</rscale>
<asrwt>0</asrwt>
<pdfrwt beam="1">  1        2 0.17456080E+00 0.98813188E+03</pdfrwt>
<pdfrwt beam="2">  1       -2 0.26526736E+00 0.98813188E+03</pdfrwt>
<totfact> 0.10751405E+00</totfact>
</mgrwt>
</event>
<event>
 4    5  0.7289609E-008  0.1163024E+04  0.7818608E-02  0.9193931E-01
          2   -1    0    0  501    0  0.00000000000E+00  0.00000000000E+00  0.10793799048E+04  0.10793799048E+04  0.25500000000E-02 0. -1.
         -2   -1    0    0    0  501 -0.00000000000E+00 -0.00000000000E+00 -0.12864794544E+04  0.12864794544E+04  0.25500000000E-02 0.  1.
    8880023    1    1    2    0    0  0.92124596116E+03 -0.26480186459E+03 -0.61188812741E+03  0.13141656803E+04  0.65864270000E+03 0.  0.
    8880022    1    1    2    0    0 -0.92124596116E+03  0.26480186459E+03  0.40478857782E+03  0.10516936789E+04  0.15294330000E+03 0.  0.
<mgrwt>
<rscale>  0 0.11116285E+04</rscale>
<asrwt>0</asrwt>
<pdfrwt beam="1">  1        2 0.16605845E+00 0.11630238E+04</pdfrwt>
<pdfrwt beam="2">  1       -2 0.19791991E+00 0.11630238E+04</pdfrwt>
<totfact> 0.30038938E+00</totfact>
</mgrwt>
</event>
<event>
 4    5  0.7289609E-008  0.7401922E+03  0.7818608E-02  0.9859388E-01
          2   -1    0    0  501    0  0.00000000000E+00  0.00000000000E+00  0.43805576390E+03  0.43805576391E+03  0.25500000000E-02 0. -1.
         -2   -1    0    0    0  501 -0.00000000000E+00 -0.00000000000E+00 -0.20115649577E+04  0.20115649577E+04  0.25500000000E-02 0.  1.
    8880023    1    1    2    0    0 -0.11978417706E+03  0.31579428838E+03 -0.18464104936E+04  0.19892501599E+04  0.65864270000E+03 0.  1.
    8880022    1    1    2    0    0  0.11978417706E+03 -0.31579428838E+03  0.27290129978E+03  0.46037056170E+03  0.15294330000E+03 0.  0.
<mgrwt>
<rscale>  0 0.62270559E+03</rscale>
<asrwt>0</asrwt>
<pdfrwt beam="1">  1        2 0.67393195E-01 0.74019220E+03</pdfrwt>
<pdfrwt beam="2">  1       -2 0.30947153E+00 0.74019220E+03</pdfrwt>
<totfact> 0.20838472E+00</totfact>
</mgrwt>
</event>
<event>
 4    5  0.7289609E-008  0.9126497E+03  0.7818608E-02  0.9506022E-01
          2   -1    0    0  501    0  0.00000000000E+00  0.00000000000E+00  0.50166324566E+03  0.50166324567E+03  0.25500000000E-02 0. -1.
         -2   -1    0    0    0  501 -0.00000000000E+00 -0.00000000000E+00 -0.12237634967E+04  0.12237634967E+04  0.25500000000E-02 0.  1.
    8880023    1    1    2    0    0  0.59426316825E+03  0.21440750916E+03 -0.48507730711E+03  0.10335518822E+04  0.65864270000E+03 0. -1.
    8880022    1    1    2    0    0 -0.59426316825E+03 -0.21440750916E+03 -0.23702294390E+03  0.69187486012E+03  0.15294330000E+03 0.  1.
<mgrwt>
<rscale>  0 0.83841268E+03</rscale>
<asrwt>0</asrwt>
<pdfrwt beam="1">  1        2 0.77178961E-01 0.91264971E+03</pdfrwt>
<pdfrwt beam="2">  1       -2 0.18827131E+00 0.91264971E+03</pdfrwt>
<totfact> 0.97857917E+00</totfact>
</mgrwt>
</event>
<event>
 4    5  0.7289609E-008  0.1566340E+04  0.7818608E-02  0.8864158E-01
          2   -1    0    0  501    0  0.00000000000E+00  0.00000000000E+00  0.24575195263E+04  0.24575195263E+04  0.25500000000E-02 0. -1.
         -2   -1    0    0    0  501 -0.00000000000E+00 -0.00000000000E+00 -0.13178579822E+04  0.13178579822E+04  0.25500000000E-02 0.  1.
    8880023    1    1    2    0    0  0.79970240763E+03  0.11747707508E+04 -0.45774020024E+03  0.16318537173E+04  0.65864270000E+03 0.  0.
    8880022    1    1    2    0    0 -0.79970240763E+03 -0.11747707508E+04  0.15974017443E+04  0.21435237912E+04  0.15294330000E+03 0.  0.
<mgrwt>
<rscale>  0 0.15309045E+04</rscale>
<asrwt>0</asrwt>
<pdfrwt beam="1">  1        2 0.37807992E+00 0.15663398E+04</pdfrwt>
<pdfrwt beam="2">  1       -2 0.20274738E+00 0.15663398E+04</pdfrwt>
<totfact> 0.43838240E-01</totfact>
</mgrwt>
</event>
<event>
 4    5  0.7289609E-008  0.1252700E+04  0.7818608E-02  0.9107522E-01
          2   -1    0    0  501    0  0.00000000000E+00  0.00000000000E+00  0.29585325940E+04  0.29585325940E+04  0.25500000000E-02 0. -1.
         -2   -1    0    0    0  501 -0.00000000000E+00 -0.00000000000E+00 -0.14231512663E+04  0.14231512663E+04  0.25500000000E-02 0.  1.
    8880023    1    1    2    0    0  0.14581042921E+02  0.10654735136E+04 -0.10157282640E+04  0.16127493691E+04  0.65864270000E+03 0.  1.
    8880022    1    1    2    0    0 -0.14581042921E+02 -0.10654735136E+04  0.25511095916E+04  0.27689344912E+04  0.15294330000E+03 0.  0.
<mgrwt>
<rscale>  0 0.12061132E+04</rscale>
<asrwt>0</asrwt>
<pdfrwt beam="1">  1        2 0.45515886E+00 0.12526997E+04</pdfrwt>
<pdfrwt beam="2">  1       -2 0.21894635E+00 0.12526997E+04</pdfrwt>
<totfact> 0.18072457E-01</totfact>
</mgrwt>
</event>
<event>
 4    5  0.7289609E-008  0.6615971E+03  0.7818608E-02  0.1022577E+00
         -2   -1    0    0    0  501 -0.00000000000E+00  0.00000000000E+00  0.14817355367E+03  0.14817355369E+03  0.25500000000E-02 0.  1.
          2   -1    0    0  501    0  0.00000000000E+00 -0.00000000000E+00 -0.13692085938E+04  0.13692085938E+04  0.25500000000E-02 0. -1.
    8880023    1    1    2    0    0 -0.28595822063E+02 -0.55523380006E+02 -0.66791399826E+03  0.94011695129E+03  0.65864270000E+03 0.  1.
    8880022    1    1    2    0    0  0.28595822063E+02  0.55523380006E+02 -0.55312104185E+03  0.57726519617E+03  0.15294330000E+03 0.  0.
<mgrwt>
<rscale>  0 0.46768137E+03</rscale>
<asrwt>0</asrwt>
<pdfrwt beam="1">  1        2 0.21064747E+00 0.66159714E+03</pdfrwt>
<pdfrwt beam="2">  1       -2 0.22795932E-01 0.66159714E+03</pdfrwt>
<totfact> 0.25973443E+02</totfact>
</mgrwt>
</event>
<event>
 4    5  0.7289609E-008  0.7830303E+03  0.7818608E-02  0.9748766E-01
          2   -1    0    0  501    0  0.00000000000E+00  0.00000000000E+00  0.19205396393E+04  0.19205396393E+04  0.25500000000E-02 0. -1.
         -2   -1    0    0    0  501 -0.00000000000E+00 -0.00000000000E+00 -0.33786053799E+03  0.33786053800E+03  0.25500000000E-02 0.  1.
    8880023    1    1    2    0    0 -0.41911093236E+03  0.60599247600E+02  0.20558187748E+03  0.80956800644E+03  0.65864270000E+03 0.  1.
    8880022    1    1    2    0    0  0.41911093236E+03 -0.60599247600E+02  0.13770972238E+04  0.14488321709E+04  0.15294330000E+03 0.  0.
<mgrwt>
<rscale>  0 0.68186035E+03</rscale>
<asrwt>0</asrwt>
<pdfrwt beam="1">  1        2 0.29546764E+00 0.78303030E+03</pdfrwt>
<pdfrwt beam="2">  1       -2 0.51978544E-01 0.78303030E+03</pdfrwt>
<totfact> 0.26549381E+01</totfact>
</mgrwt>
</event>
<event>
 4    5  0.7289609E-008  0.1544841E+04  0.7818608E-02  0.8878604E-01
         -2   -1    0    0    0  501 -0.00000000000E+00  0.00000000000E+00  0.12289641949E+04  0.12289641949E+04  0.25500000000E-02 0.  1.
          2   -1    0    0  501    0  0.00000000000E+00 -0.00000000000E+00 -0.20877007703E+04  0.20877007703E+04  0.25500000000E-02 0. -1.
    8880023    1    1    2    0    0 -0.53410390171E+03 -0.12913002167E+04 -0.10918321035E+04  0.18917269295E+04  0.65864270000E+03 0.  1.
    8880022    1    1    2    0    0  0.53410390171E+03  0.12913002167E+04  0.23309552815E+03  0.14249380357E+04  0.15294330000E+03 0.  0.
<mgrwt>
<rscale>  0 0.15088266E+04</rscale>
<asrwt>0</asrwt>
<pdfrwt beam="1">  1        2 0.32118473E+00 0.15448409E+04</pdfrwt>
<pdfrwt beam="2">  1       -2 0.18907141E+00 0.15448409E+04</pdfrwt>
<totfact> 0.87857304E-01</totfact>
</mgrwt>
</event>
<event>
 4    5  0.7289609E-008  0.9261501E+03  0.7818608E-02  0.9485293E-01
          2   -1    0    0  501    0  0.00000000000E+00  0.00000000000E+00  0.18458657789E+04  0.18458657789E+04  0.25500000000E-02 0. -1.
         -2   -1    0    0    0  501 -0.00000000000E+00 -0.00000000000E+00 -0.76380715295E+03  0.76380715296E+03  0.25500000000E-02 0.  1.
    8880023    1    1    2    0    0  0.14405682775E+03  0.63497350249E+03  0.15414403409E+04  0.17982747981E+04  0.65864270000E+03 0.  0.
    8880022    1    1    2    0    0 -0.14405682775E+03 -0.63497350249E+03 -0.45938171496E+03  0.81139813380E+03  0.15294330000E+03 0.  0.
<mgrwt>
<rscale>  0 0.85376859E+03</rscale>
<asrwt>0</asrwt>
<pdfrwt beam="1">  1        2 0.28397935E+00 0.92615006E+03</pdfrwt>
<pdfrwt beam="2">  1       -2 0.11750879E+00 0.92615006E+03</pdfrwt>
<totfact> 0.45810154E+00</totfact>
</mgrwt>
</event>
<event>
 4    5  0.7289609E-008  0.8879997E+03  0.7818608E-02  0.9545577E-01
         -2   -1    0    0    0  501 -0.00000000000E+00  0.00000000000E+00  0.57385274383E+03  0.57385274384E+03  0.25500000000E-02 0.  1.
          2   -1    0    0  501    0  0.00000000000E+00 -0.00000000000E+00 -0.14579591580E+04  0.14579591580E+04  0.25500000000E-02 0. -1.
    8880023    1    1    2    0    0  0.58188727495E+03  0.12704512309E+03  0.76454344334E+02  0.89128487987E+03  0.65864270000E+03 0.  0.
    8880022    1    1    2    0    0 -0.58188727495E+03 -0.12704512309E+03 -0.96056075853E+03  0.11405270220E+04  0.15294330000E+03 0.  0.
<mgrwt>
<rscale>  0 0.81005410E+03</rscale>
<asrwt>0</asrwt>
<pdfrwt beam="1">  1        2 0.22430141E+00 0.88799970E+03</pdfrwt>
<pdfrwt beam="2">  1       -2 0.88285038E-01 0.88799970E+03</pdfrwt>
<totfact> 0.14922433E+01</totfact>
</mgrwt>
</event>
<event>
 4    5  0.7289609E-008  0.2023222E+04  0.7818608E-02  0.8608176E-01
         -2   -1    0    0    0  501 -0.00000000000E+00  0.00000000000E+00  0.15145433156E+04  0.15145433156E+04  0.25500000000E-02 0.  1.
          2   -1    0    0  501    0  0.00000000000E+00 -0.00000000000E+00 -0.30305753638E+04  0.30305753638E+04  0.25500000000E-02 0. -1.
    8880023    1    1    2    0    0  0.19018052590E+04  0.20676544403E+03  0.11506541848E+03  0.20264909200E+04  0.65864270000E+03 0.  0.
    8880022    1    1    2    0    0 -0.19018052590E+04 -0.20676544403E+03 -0.16310974667E+04  0.25186277595E+04  0.15294330000E+03 0.  1.
<mgrwt>
<rscale>  0 0.19966774E+04</rscale>
<asrwt>0</asrwt>
<pdfrwt beam="1">  1        2 0.46624236E+00 0.20232215E+04</pdfrwt>
<pdfrwt beam="2">  1       -2 0.23300666E+00 0.20232215E+04</pdfrwt>
<totfact> 0.12107675E-01</totfact>
</mgrwt>
</event>
<event>
 4    5  0.7289609E-008  0.1680644E+04  0.7818608E-02  0.8791602E-01
          2   -1    0    0  501    0  0.00000000000E+00  0.00000000000E+00  0.25903503961E+04  0.25903503961E+04  0.25500000000E-02 0. -1.
         -2   -1    0    0    0  501 -0.00000000000E+00 -0.00000000000E+00 -0.10208635119E+04  0.10208635119E+04  0.25500000000E-02 0.  1.
    8880023    1    1    2    0    0 -0.10996225716E+03 -0.15422910774E+04  0.62603794624E+03  0.17934567689E+04  0.65864270000E+03 0.  0.
    8880022    1    1    2    0    0  0.10996225716E+03  0.15422910774E+04  0.94344893796E+03  0.18177571392E+04  0.15294330000E+03 0.  0.
<mgrwt>
<rscale>  0 0.16479809E+04</rscale>
<asrwt>0</asrwt>
<pdfrwt beam="1">  1        2 0.39851544E+00 0.16806438E+04</pdfrwt>
<pdfrwt beam="2">  1       -2 0.15705593E+00 0.16806438E+04</pdfrwt>
<totfact> 0.75768831E-01</totfact>
</mgrwt>
</event>
<event>
 4    5  0.7289609E-008  0.1116081E+04  0.7818608E-02  0.9243360E-01
          2   -1    0    0  501    0  0.00000000000E+00  0.00000000000E+00  0.22025522461E+04  0.22025522461E+04  0.25500000000E-02 0. -1.
         -2   -1    0    0    0  501 -0.00000000000E+00 -0.00000000000E+00 -0.54740134159E+03  0.54740134160E+03  0.25500000000E-02 0.  1.
    8880023    1    1    2    0    0 -0.30253224653E+03  0.84870546688E+03  0.37568596636E+03  0.11776149121E+04  0.65864270000E+03 0.  0.
    8880022    1    1    2    0    0  0.30253224653E+03 -0.84870546688E+03  0.12794649382E+04  0.15723386756E+04  0.15294330000E+03 0.  0.
<mgrwt>
<rscale>  0 0.10616878E+04</rscale>
<asrwt>0</asrwt>
<pdfrwt beam="1">  1        2 0.33885419E+00 0.11160811E+04</pdfrwt>
<pdfrwt beam="2">  1       -2 0.84215591E-01 0.11160811E+04</pdfrwt>
<totfact> 0.62789395E+00</totfact>
</mgrwt>
</event>
<event>
 4    5  0.7289609E-008  0.6711424E+03  0.7818608E-02  0.1014857E+00
          2   -1    0    0  501    0  0.00000000000E+00  0.00000000000E+00  0.23836130059E+04  0.23836130059E+04  0.25500000000E-02 0. -1.
         -2   -1    0    0    0  501 -0.00000000000E+00 -0.00000000000E+00 -0.44750521699E+03  0.44750521700E+03  0.25500000000E-02 0.  1.
    8880023    1    1    2    0    0  0.61098417994E+02 -0.11352906623E+03 -0.18850245967E+03  0.69711207788E+03  0.65864270000E+03 0.  1.
    8880022    1    1    2    0    0 -0.61098417994E+02  0.11352906623E+03  0.21246102486E+04  0.21340061450E+04  0.15294330000E+03 0.  0.
<mgrwt>
<rscale>  0 0.49589169E+03</rscale>
<asrwt>0</asrwt>
<pdfrwt beam="1">  1        2 0.36670970E+00 0.67114236E+03</pdfrwt>
<pdfrwt beam="2">  1       -2 0.68846956E-01 0.67114236E+03</pdfrwt>
<totfact> 0.83037274E+00</totfact>
</mgrwt>
</event>
<event>
 4    5  0.7289609E-008  0.6752304E+03  0.7818608E-02  0.1012161E+00
         -2   -1    0    0    0  501 -0.00000000000E+00  0.00000000000E+00  0.63209773562E+03  0.63209773563E+03  0.25500000000E-02 0.  1.
          2   -1    0    0  501    0  0.00000000000E+00 -0.00000000000E+00 -0.31692254233E+04  0.31692254234E+04  0.25500000000E-02 0. -1.
    8880023    1    1    2    0    0 -0.11231538592E+03  0.97525041864E+02  0.44686943226E+03  0.80970882140E+03  0.65864270000E+03 0.  1.
    8880022    1    1    2    0    0  0.11231538592E+03 -0.97525041864E+02 -0.29839971200E+04  0.29916143376E+04  0.15294330000E+03 0.  0.
<mgrwt>
<rscale>  0 0.50624568E+03</rscale>
<asrwt>0</asrwt>
<pdfrwt beam="1">  1        2 0.48757313E+00 0.67523039E+03</pdfrwt>
<pdfrwt beam="2">  1       -2 0.97245807E-01 0.67523039E+03</pdfrwt>
<totfact> 0.13103537E+00</totfact>
</mgrwt>
</event>
<event>
 4    5  0.7289609E-008  0.9586467E+03  0.7818608E-02  0.9437781E-01
         -2   -1    0    0    0  501 -0.00000000000E+00  0.00000000000E+00  0.14145128412E+04  0.14145128412E+04  0.25500000000E-02 0.  1.
          2   -1    0    0  501    0  0.00000000000E+00 -0.00000000000E+00 -0.10826175809E+04  0.10826175809E+04  0.25500000000E-02 0. -1.
    8880023    1    1    2    0    0 -0.63588855470E+03 -0.28432221446E+03  0.10931902701E+04  0.14539836823E+04  0.65864270000E+03 0.  1.
    8880022    1    1    2    0    0  0.63588855470E+03  0.28432221446E+03 -0.76129500977E+03  0.10431467397E+04  0.15294330000E+03 0.  0.
<mgrwt>
<rscale>  0 0.89030620E+03</rscale>
<asrwt>0</asrwt>
<pdfrwt beam="1">  1        2 0.16655655E+00 0.95864675E+03</pdfrwt>
<pdfrwt beam="2">  1       -2 0.21761736E+00 0.95864675E+03</pdfrwt>
<totfact> 0.22820479E+00</totfact>
</mgrwt>
</event>
<event>
 4    5  0.7289609E-008  0.1356678E+04  0.7818608E-02  0.9018097E-01
          2   -1    0    0  501    0  0.00000000000E+00  0.00000000000E+00  0.22974293147E+04  0.22974293147E+04  0.25500000000E-02 0. -1.
         -2   -1    0    0    0  501 -0.00000000000E+00 -0.00000000000E+00 -0.11075312959E+04  0.11075312959E+04  0.25500000000E-02 0.  1.
    8880023    1    1    2    0    0 -0.35734018948E+02 -0.11855331312E+04 -0.40100515753E+03  0.14147017594E+04  0.65864270000E+03 0.  0.
    8880022    1    1    2    0    0  0.35734018948E+02  0.11855331312E+04  0.15909031764E+04  0.19902588512E+04  0.15294330000E+03 0.  0.
<mgrwt>
<rscale>  0 0.13145607E+04</rscale>
<asrwt>0</asrwt>
<pdfrwt beam="1">  1        2 0.35345066E+00 0.13566783E+04</pdfrwt>
<pdfrwt beam="2">  1       -2 0.17038943E+00 0.13566783E+04</pdfrwt>
<totfact> 0.92127562E-01</totfact>
</mgrwt>
</event>
<event>
 4    5  0.7289609E-008  0.8792375E+03  0.7818608E-02  0.9560219E-01
         -2   -1    0    0    0  501 -0.00000000000E+00  0.00000000000E+00  0.59015597623E+03  0.59015597624E+03  0.25500000000E-02 0.  1.
          2   -1    0    0  501    0  0.00000000000E+00 -0.00000000000E+00 -0.18414109206E+04  0.18414109206E+04  0.25500000000E-02 0. -1.
    8880023    1    1    2    0    0 -0.40400440580E+03 -0.41955796629E+03  0.16320101816E+03  0.89425568244E+03  0.65864270000E+03 0.  0.
    8880022    1    1    2    0    0  0.40400440580E+03  0.41955796629E+03 -0.14144559625E+04  0.15373112144E+04  0.15294330000E+03 0.  0.
<mgrwt>
<rscale>  0 0.79986031E+03</rscale>
<asrwt>0</asrwt>
<pdfrwt beam="1">  1        2 0.28329399E+00 0.87923754E+03</pdfrwt>
<pdfrwt beam="2">  1       -2 0.90793228E-01 0.87923754E+03</pdfrwt>
<totfact> 0.85908148E+00</totfact>
</mgrwt>
</event>
<event>
 4    5  0.7289609E-008  0.6830047E+03  0.7818608E-02  0.1007673E+00
         -2   -1    0    0    0  501 -0.00000000000E+00  0.00000000000E+00  0.78145753770E+02  0.78145753812E+02  0.25500000000E-02 0.  1.
          2   -1    0    0  501    0  0.00000000000E+00 -0.00000000000E+00 -0.31869741828E+04  0.31869741828E+04  0.25500000000E-02 0. -1.
    8880023    1    1    2    0    0  0.86194740588E+02 -0.15892040786E+03 -0.16278756518E+04  0.17653539513E+04  0.65864270000E+03 0.  0.
    8880022    1    1    2    0    0 -0.86194740588E+02  0.15892040786E+03 -0.14809527772E+04  0.14997659853E+04  0.15294330000E+03 0.  0.
<mgrwt>
<rscale>  0 0.52410193E+03</rscale>
<asrwt>0</asrwt>
<pdfrwt beam="1">  1        2 0.49030362E+00 0.68300471E+03</pdfrwt>
<pdfrwt beam="2">  1       -2 0.12022426E-01 0.68300471E+03</pdfrwt>
<totfact> 0.71979414E+01</totfact>
</mgrwt>
</event>
<event>
 4    5  0.7289609E-008  0.1156637E+04  0.7818608E-02  0.9200472E-01
         -2   -1    0    0    0  501 -0.00000000000E+00  0.00000000000E+00  0.59999174680E+03  0.59999174680E+03  0.25500000000E-02 0.  1.
          2   -1    0    0  501    0  0.00000000000E+00 -0.00000000000E+00 -0.34441000375E+04  0.34441000375E+04  0.25500000000E-02 0. -1.
    8880023    1    1    2    0    0 -0.94991987512E+03 -0.40643279799E+02 -0.12966272737E+03  0.11638824144E+04  0.65864270000E+03 0.  1.
    8880022    1    1    2    0    0  0.94991987512E+03  0.40643279799E+02 -0.27144455633E+04  0.28802093699E+04  0.15294330000E+03 0.  0.
<mgrwt>
<rscale>  0 0.11048562E+04</rscale>
<asrwt>0</asrwt>
<pdfrwt beam="1">  1        2 0.52986153E+00 0.11566373E+04</pdfrwt>
<pdfrwt beam="2">  1       -2 0.92306425E-01 0.11566373E+04</pdfrwt>
<totfact> 0.89213373E-01</totfact>
</mgrwt>
</event>
<event>
 4    5  0.7289609E-008  0.7795143E+03  0.7818608E-02  0.9756979E-01
         -2   -1    0    0    0  501 -0.00000000000E+00  0.00000000000E+00  0.38943752879E+03  0.38943752880E+03  0.25500000000E-02 0.  1.
          2   -1    0    0  501    0  0.00000000000E+00 -0.00000000000E+00 -0.11008001045E+04  0.11008001045E+04  0.25500000000E-02 0. -1.
    8880023    1    1    2    0    0 -0.35022075751E+03 -0.22622507783E+03 -0.18426933259E+03  0.80099797630E+03  0.65864270000E+03 0.  1.
    8880022    1    1    2    0    0  0.35022075751E+03  0.22622507783E+03 -0.52709324312E+03  0.68923965700E+03  0.15294330000E+03 0. -1.
<mgrwt>
<rscale>  0 0.67723290E+03</rscale>
<asrwt>0</asrwt>
<pdfrwt beam="1">  1        2 0.16935386E+00 0.77951432E+03</pdfrwt>
<pdfrwt beam="2">  1       -2 0.59913466E-01 0.77951432E+03</pdfrwt>
<totfact> 0.57304436E+01</totfact>
</mgrwt>
</event>
<event>
 4    5  0.7289609E-008  0.1135308E+04  0.7818608E-02  0.9222727E-01
          2   -1    0    0  501    0  0.00000000000E+00  0.00000000000E+00  0.73611999172E+03  0.73611999173E+03  0.25500000000E-02 0. -1.
         -2   -1    0    0    0  501 -0.00000000000E+00 -0.00000000000E+00 -0.24231989349E+04  0.24231989349E+04  0.25500000000E-02 0.  1.
    8880023    1    1    2    0    0 -0.24241788567E+03 -0.89238331853E+03  0.10170044420E+03  0.11398542034E+04  0.65864270000E+03 0.  0.
    8880022    1    1    2    0    0  0.24241788567E+03  0.89238331853E+03 -0.17887793874E+04  0.20194647232E+04  0.15294330000E+03 0.  0.
<mgrwt>
<rscale>  0 0.10821898E+04</rscale>
<asrwt>0</asrwt>
<pdfrwt beam="1">  1        2 0.11324923E+00 0.11353082E+04</pdfrwt>
<pdfrwt beam="2">  1       -2 0.37279983E+00 0.11353082E+04</pdfrwt>
<totfact> 0.42634850E-01</totfact>
</mgrwt>
</event>
<event>
 4    5  0.7289609E-008  0.7265490E+03  0.7818608E-02  0.9901019E-01
          2   -1    0    0  501    0  0.00000000000E+00  0.00000000000E+00  0.17801588592E+04  0.17801588592E+04  0.25500000000E-02 0. -1.
         -2   -1    0    0    0  501 -0.00000000000E+00 -0.00000000000E+00 -0.42729723134E+03  0.42729723135E+03  0.25500000000E-02 0.  1.
    8880023    1    1    2    0    0 -0.54744326982E+02  0.30177196543E+03 -0.82987031967E+02  0.73127307772E+03  0.65864270000E+03 0.  1.
    8880022    1    1    2    0    0  0.54744326982E+02 -0.30177196543E+03  0.14358486599E+04  0.14761830129E+04  0.15294330000E+03 0.  0.
<mgrwt>
<rscale>  0 0.60211935E+03</rscale>
<asrwt>0</asrwt>
<pdfrwt beam="1">  1        2 0.27387060E+00 0.72654901E+03</pdfrwt>
<pdfrwt beam="2">  1       -2 0.65738035E-01 0.72654901E+03</pdfrwt>
<totfact> 0.19473038E+01</totfact>
</mgrwt>
</event>
<event>
 4    5  0.7289609E-008  0.6783351E+03  0.7818608E-02  0.1010282E+00
          2   -1    0    0  501    0  0.00000000000E+00  0.00000000000E+00  0.24429479112E+03  0.24429479114E+03  0.25500000000E-02 0. -1.
         -2   -1    0    0    0  501 -0.00000000000E+00 -0.00000000000E+00 -0.98171422053E+03  0.98171422054E+03  0.25500000000E-02 0.  1.
    8880023    1    1    2    0    0  0.85798581713E+02  0.13772039665E+03 -0.73886389545E+03  0.10030246091E+04  0.65864270000E+03 0.  0.
    8880022    1    1    2    0    0 -0.85798581713E+02 -0.13772039665E+03  0.14444660388E+01  0.22298440253E+03  0.15294330000E+03 0.  0.
<mgrwt>
<rscale>  0 0.51362903E+03</rscale>
<asrwt>0</asrwt>
<pdfrwt beam="1">  1        2 0.37583814E-01 0.67833510E+03</pdfrwt>
<pdfrwt beam="2">  1       -2 0.15103296E+00 0.67833510E+03</pdfrwt>
<totfact> 0.41272401E+01</totfact>
</mgrwt>
</event>
<event>
 4    5  0.7289609E-008  0.7628172E+03  0.7818608E-02  0.9797868E-01
         -2   -1    0    0    0  501 -0.00000000000E+00  0.00000000000E+00  0.95773172267E+03  0.95773172268E+03  0.25500000000E-02 0.  1.
          2   -1    0    0  501    0  0.00000000000E+00 -0.00000000000E+00 -0.15095922595E+04  0.15095922595E+04  0.25500000000E-02 0. -1.
    8880023    1    1    2    0    0 -0.38287796224E+03 -0.38527987938E+02  0.76894484404E+03  0.10831280253E+04  0.65864270000E+03 0.  1.
    8880022    1    1    2    0    0  0.38287796224E+03  0.38527987938E+02 -0.13208053809E+04  0.13841959569E+04  0.15294330000E+03 0.  0.
<mgrwt>
<rscale>  0 0.65477094E+03</rscale>
<asrwt>0</asrwt>
<pdfrwt beam="1">  1        2 0.23224496E+00 0.76281724E+03</pdfrwt>
<pdfrwt beam="2">  1       -2 0.14734334E+00 0.76281724E+03</pdfrwt>
<totfact> 0.40348746E+00</totfact>
</mgrwt>
</event>
<event>
 4    5  0.7289609E-008  0.6781848E+03  0.7818608E-02  0.1010370E+00
         -2   -1    0    0    0  501 -0.00000000000E+00  0.00000000000E+00  0.22056417583E+03  0.22056417584E+03  0.25500000000E-02 0.  1.
          2   -1    0    0  501    0  0.00000000000E+00 -0.00000000000E+00 -0.21534823853E+04  0.21534823854E+04  0.25500000000E-02 0. -1.
    8880023    1    1    2    0    0 -0.89343184634E+02  0.13469322646E+03 -0.32721329021E+03  0.75299615766E+03  0.65864270000E+03 0.  1.
    8880022    1    1    2    0    0  0.89343184634E+02 -0.13469322646E+03 -0.16057049193E+04  0.16210504035E+04  0.15294330000E+03 0.  0.
<mgrwt>
<rscale>  0 0.51328005E+03</rscale>
<asrwt>0</asrwt>
<pdfrwt beam="1">  1        2 0.33130497E+00 0.67818484E+03</pdfrwt>
<pdfrwt beam="2">  1       -2 0.33932952E-01 0.67818484E+03</pdfrwt>
<totfact> 0.46497031E+01</totfact>
</mgrwt>
</event>
<event>
 4    5  0.7289609E-008  0.1723314E+04  0.7818608E-02  0.8766186E-01
          2   -1    0    0  501    0  0.00000000000E+00  0.00000000000E+00  0.23888938088E+04  0.23888938088E+04  0.25500000000E-02 0. -1.
         -2   -1    0    0    0  501 -0.00000000000E+00 -0.00000000000E+00 -0.13972090860E+04  0.13972090860E+04  0.25500000000E-02 0.  1.
    8880023    1    1    2    0    0 -0.46410441325E+03 -0.15233540124E+04  0.12977165783E+04  0.21572850710E+04  0.65864270000E+03 0.  0.
    8880022    1    1    2    0    0  0.46410441325E+03  0.15233540124E+04 -0.30603185547E+03  0.16288178238E+04  0.15294330000E+03 0.  0.
<mgrwt>
<rscale>  0 0.16915716E+04</rscale>
<asrwt>0</asrwt>
<pdfrwt beam="1">  1        2 0.36752212E+00 0.17233138E+04</pdfrwt>
<pdfrwt beam="2">  1       -2 0.21495524E+00 0.17233138E+04</pdfrwt>
<totfact> 0.39368538E-01</totfact>
</mgrwt>
</event>
<event>
 4    5  0.7289609E-008  0.8676172E+03  0.7818608E-02  0.9580155E-01
          2   -1    0    0  501    0  0.00000000000E+00  0.00000000000E+00  0.48424522713E+04  0.48424522713E+04  0.25500000000E-02 0. -1.
         -2   -1    0    0    0  501 -0.00000000000E+00 -0.00000000000E+00 -0.11034884706E+03  0.11034884709E+03  0.25500000000E-02 0.  1.
    8880023    1    1    2    0    0  0.55988787484E+03  0.73992660775E+02  0.30937091927E+04  0.32130664671E+04  0.65864270000E+03 0.  0.
    8880022    1    1    2    0    0 -0.55988787484E+03 -0.73992660775E+02  0.16383942315E+04  0.17397346514E+04  0.15294330000E+03 0.  0.
<mgrwt>
<rscale>  0 0.78623698E+03</rscale>
<asrwt>0</asrwt>
<pdfrwt beam="1">  1        2 0.74499262E+00 0.86761717E+03</pdfrwt>
<pdfrwt beam="2">  1       -2 0.16976747E-01 0.86761717E+03</pdfrwt>
<totfact> 0.16994327E+00</totfact>
</mgrwt>
</event>
<event>
 4    5  0.7289609E-008  0.8498136E+03  0.7818608E-02  0.9611946E-01
         -2   -1    0    0    0  501 -0.00000000000E+00  0.00000000000E+00  0.23689155593E+03  0.23689155594E+03  0.25500000000E-02 0.  1.
          2   -1    0    0  501    0  0.00000000000E+00 -0.00000000000E+00 -0.37574984719E+04  0.37574984719E+04  0.25500000000E-02 0. -1.
    8880023    1    1    2    0    0  0.40245694004E+03  0.35552958767E+03 -0.64977090417E+03  0.10697594638E+04  0.65864270000E+03 0.  1.
    8880022    1    1    2    0    0 -0.40245694004E+03 -0.35552958767E+03 -0.28708360118E+04  0.29246305640E+04  0.15294330000E+03 0.  0.
<mgrwt>
<rscale>  0 0.76510507E+03</rscale>
<asrwt>0</asrwt>
<pdfrwt beam="1">  1        2 0.57807665E+00 0.84981356E+03</pdfrwt>
<pdfrwt beam="2">  1       -2 0.36444857E-01 0.84981356E+03</pdfrwt>
<totfact> 0.40219589E+00</totfact>
</mgrwt>
</event>
<event>
 4    5  0.9943654E-008  0.1348415E+04  0.7818608E-02  0.9024839E-01
          2   -1    0    0  501    0  0.00000000000E+00  0.00000000000E+00  0.24098990318E+04  0.24098990318E+04  0.25500000000E-02 0. -1.
         -2   -1    0    0    0  501 -0.00000000000E+00 -0.00000000000E+00 -0.20213402878E+04  0.20213402878E+04  0.25500000000E-02 0.  1.
    8880023    1    1    2    0    0 -0.11241616830E+04 -0.34738199673E+03 -0.16142606119E+04  0.21033452571E+04  0.65864270000E+03 0.  0.
    8880022    1    1    2    0    0  0.11241616830E+04  0.34738199673E+03  0.20028193559E+04  0.23278940625E+04  0.15294330000E+03 0.  0.
<mgrwt>
<rscale>  0 0.13059772E+04</rscale>
<asrwt>0</asrwt>
<pdfrwt beam="1">  1        2 0.37075370E+00 0.13484153E+04</pdfrwt>
<pdfrwt beam="2">  1       -2 0.31097543E+00 0.13484153E+04</pdfrwt>
<totfact> 0.10236879E-01</totfact>
</mgrwt>
</event>
<event>
 4    5  0.7289609E-008  0.1536698E+04  0.7818608E-02  0.8884148E-01
          2   -1    0    0  501    0  0.00000000000E+00  0.00000000000E+00  0.21949369366E+04  0.21949369366E+04  0.25500000000E-02 0. -1.
         -2   -1    0    0    0  501 -0.00000000000E+00 -0.00000000000E+00 -0.15018767310E+04  0.15018767310E+04  0.25500000000E-02 0.  1.
    8880023    1    1    2    0    0 -0.13874644880E+04  0.50713352365E+02 -0.73132632116E+03  0.17018454524E+04  0.65864270000E+03 0.  1.
    8880022    1    1    2    0    0  0.13874644880E+04 -0.50713352365E+02  0.14243865268E+04  0.19949682153E+04  0.15294330000E+03 0.  0.
<mgrwt>
<rscale>  0 0.15004588E+04</rscale>
<asrwt>0</asrwt>
<pdfrwt beam="1">  1        2 0.33768261E+00 0.15366977E+04</pdfrwt>
<pdfrwt beam="2">  1       -2 0.23105796E+00 0.15366977E+04</pdfrwt>
<totfact> 0.40874779E-01</totfact>
</mgrwt>
</event>
<event>
 4    5  0.7289609E-008  0.1059933E+04  0.7818608E-02  0.9307035E-01
          2   -1    0    0  501    0  0.00000000000E+00  0.00000000000E+00  0.30588311456E+04  0.30588311456E+04  0.25500000000E-02 0. -1.
         -2   -1    0    0    0  501 -0.00000000000E+00 -0.00000000000E+00 -0.11952503590E+04  0.11952503590E+04  0.25500000000E-02 0.  1.
    8880023    1    1    2    0    0 -0.80667760732E+03 -0.19727732824E+03 -0.88367704909E+03  0.13799791447E+04  0.65864270000E+03 0.  1.
    8880022    1    1    2    0    0  0.80667760732E+03  0.19727732824E+03  0.27472578357E+04  0.28741023599E+04  0.15294330000E+03 0.  0.
<mgrwt>
<rscale>  0 0.10013776E+04</rscale>
<asrwt>0</asrwt>
<pdfrwt beam="1">  1        2 0.47058941E+00 0.10599327E+04</pdfrwt>
<pdfrwt beam="2">  1       -2 0.18388467E+00 0.10599327E+04</pdfrwt>
<totfact> 0.27453193E-01</totfact>
</mgrwt>
</event>
<event>
 4    5  0.7289609E-008  0.9563969E+03  0.7818608E-02  0.9440969E-01
          2   -1    0    0  501    0  0.00000000000E+00  0.00000000000E+00  0.13603376223E+04  0.13603376223E+04  0.25500000000E-02 0. -1.
         -2   -1    0    0    0  501 -0.00000000000E+00 -0.00000000000E+00 -0.63165005082E+03  0.63165005082E+03  0.25500000000E-02 0.  1.
    8880023    1    1    2    0    0  0.65817290830E+03  0.21838777979E+03 -0.24647820822E+02  0.95671444064E+03  0.65864270000E+03 0.  0.
    8880022    1    1    2    0    0 -0.65817290830E+03 -0.21838777979E+03  0.75333539230E+03  0.10352732325E+04  0.15294330000E+03 0.  0.
<mgrwt>
<rscale>  0 0.88779399E+03</rscale>
<asrwt>0</asrwt>
<pdfrwt beam="1">  1        2 0.20928271E+00 0.95639689E+03</pdfrwt>
<pdfrwt beam="2">  1       -2 0.97176933E-01 0.95639689E+03</pdfrwt>
<totfact> 0.13465364E+01</totfact>
</mgrwt>
</event>
<event>
 4    5  0.7289609E-008  0.8709919E+03  0.7818608E-02  0.9574302E-01
          2   -1    0    0  501    0  0.00000000000E+00  0.00000000000E+00  0.44044148591E+04  0.44044148591E+04  0.25500000000E-02 0. -1.
         -2   -1    0    0    0  501 -0.00000000000E+00 -0.00000000000E+00 -0.22921444170E+03  0.22921444172E+03  0.25500000000E-02 0.  1.
    8880023    1    1    2    0    0  0.29680189706E+03 -0.48654428485E+03  0.72476251435E+03  0.11330964724E+04  0.65864270000E+03 0.  1.
    8880022    1    1    2    0    0 -0.29680189706E+03  0.48654428485E+03  0.34504379030E+04  0.35005328284E+04  0.15294330000E+03 0.  0.
<mgrwt>
<rscale>  0 0.79020631E+03</rscale>
<asrwt>0</asrwt>
<pdfrwt beam="1">  1        2 0.67760227E+00 0.87099191E+03</pdfrwt>
<pdfrwt beam="2">  1       -2 0.35263761E-01 0.87099191E+03</pdfrwt>
<totfact> 0.12624062E+00</totfact>
</mgrwt>
</event>
<event>
 4    5  0.7289609E-008  0.6740244E+03  0.7818608E-02  0.1012928E+00
         -2   -1    0    0    0  501 -0.00000000000E+00  0.00000000000E+00  0.30347802337E+03  0.30347802338E+03  0.25500000000E-02 0.  1.
          2   -1    0    0  501    0  0.00000000000E+00 -0.00000000000E+00 -0.27287197844E+04  0.27287197844E+04  0.25500000000E-02 0. -1.
    8880023    1    1    2    0    0 -0.99589823134E+02 -0.10286160058E+03 -0.81297308807E+02  0.67890949355E+03  0.65864270000E+03 0.  1.
    8880022    1    1    2    0    0  0.99589823134E+02  0.10286160058E+03 -0.23439444522E+04  0.23532883142E+04  0.15294330000E+03 0.  0.
<mgrwt>
<rscale>  0 0.50327199E+03</rscale>
<asrwt>0</asrwt>
<pdfrwt beam="1">  1        2 0.41980303E+00 0.67402437E+03</pdfrwt>
<pdfrwt beam="2">  1       -2 0.46688928E-01 0.67402437E+03</pdfrwt>
<totfact> 0.11866301E+01</totfact>
</mgrwt>
</event>
<event>
 4    5  0.7289609E-008  0.1449483E+04  0.7818608E-02  0.8946157E-01
          2   -1    0    0  501    0  0.00000000000E+00  0.00000000000E+00  0.20049271920E+04  0.20049271920E+04  0.25500000000E-02 0. -1.
         -2   -1    0    0    0  501 -0.00000000000E+00 -0.00000000000E+00 -0.10174391953E+04  0.10174391954E+04  0.25500000000E-02 0.  1.
    8880023    1    1    2    0    0 -0.10938784243E+04  0.68601884935E+03  0.10980345547E+03  0.14536364311E+04  0.65864270000E+03 0.  0.
    8880022    1    1    2    0    0  0.10938784243E+04 -0.68601884935E+03  0.87768454118E+03  0.15687299562E+04  0.15294330000E+03 0.  0.
<mgrwt>
<rscale>  0 0.14106345E+04</rscale>
<asrwt>0</asrwt>
<pdfrwt beam="1">  1        2 0.30845034E+00 0.14494834E+04</pdfrwt>
<pdfrwt beam="2">  1       -2 0.15652911E+00 0.14494834E+04</pdfrwt>
<totfact> 0.16828948E+00</totfact>
</mgrwt>
</event>
<event>
 4    5  0.8146919E-008  0.1348358E+04  0.7818608E-02  0.9024886E-01
         -2   -1    0    0    0  501 -0.00000000000E+00  0.00000000000E+00  0.14846826492E+04  0.14846826492E+04  0.25500000000E-02 0.  1.
          2   -1    0    0  501    0  0.00000000000E+00 -0.00000000000E+00 -0.25795796222E+04  0.25795796222E+04  0.25500000000E-02 0. -1.
    8880023    1    1    2    0    0 -0.11346967918E+04  0.31100200262E+03  0.98496252055E+03  0.16697965229E+04  0.65864270000E+03 0.  1.
    8880022    1    1    2    0    0  0.11346967918E+04 -0.31100200262E+03 -0.20798594936E+04  0.23944657485E+04  0.15294330000E+03 0.  0.
<mgrwt>
<rscale>  0 0.13059176E+04</rscale>
<asrwt>0</asrwt>
<pdfrwt beam="1">  1        2 0.39685840E+00 0.13483580E+04</pdfrwt>
<pdfrwt beam="2">  1       -2 0.22841271E+00 0.13483580E+04</pdfrwt>
<totfact> 0.26185542E-01</totfact>
</mgrwt>
</event>
<event>
 4    5  0.7289609E-008  0.1071008E+04  0.7818608E-02  0.9294043E-01
         -2   -1    0    0    0  501 -0.00000000000E+00  0.00000000000E+00  0.73601333602E+03  0.73601333602E+03  0.25500000000E-02 0.  1.
          2   -1    0    0  501    0  0.00000000000E+00 -0.00000000000E+00 -0.26913116339E+04  0.26913116339E+04  0.25500000000E-02 0. -1.
    8880023    1    1    2    0    0 -0.55586326164E+03  0.63581822183E+03  0.21597943168E+03  0.10925685782E+04  0.65864270000E+03 0.  0.
    8880022    1    1    2    0    0  0.55586326164E+03 -0.63581822183E+03 -0.21712777295E+04  0.23347563917E+04  0.15294330000E+03 0.  0.
<mgrwt>
<rscale>  0 0.10133316E+04</rscale>
<asrwt>0</asrwt>
<pdfrwt beam="1">  1        2 0.41404794E+00 0.10710084E+04</pdfrwt>
<pdfrwt beam="2">  1       -2 0.11323282E+00 0.10710084E+04</pdfrwt>
<totfact> 0.16472266E+00</totfact>
</mgrwt>
</event>
<event>
 4    5  0.7289609E-008  0.1166990E+04  0.7818608E-02  0.9189898E-01
         -2   -1    0    0    0  501 -0.00000000000E+00  0.00000000000E+00  0.18027823884E+04  0.18027823884E+04  0.25500000000E-02 0.  1.
          2   -1    0    0  501    0  0.00000000000E+00 -0.00000000000E+00 -0.10845744439E+04  0.10845744439E+04  0.25500000000E-02 0. -1.
    8880023    1    1    2    0    0  0.58631991794E+03 -0.76438541917E+03  0.13036936831E+04  0.17497095590E+04  0.65864270000E+03 0.  1.
    8880022    1    1    2    0    0 -0.58631991794E+03  0.76438541917E+03 -0.58548573862E+03  0.11376472733E+04  0.15294330000E+03 0.  0.
<mgrwt>
<rscale>  0 0.11158313E+04</rscale>
<asrwt>0</asrwt>
<pdfrwt beam="1">  1        2 0.16685761E+00 0.11669903E+04</pdfrwt>
<pdfrwt beam="2">  1       -2 0.27735114E+00 0.11669903E+04</pdfrwt>
<totfact> 0.95323023E-01</totfact>
</mgrwt>
</event>
<event>
 4    5  0.7289609E-008  0.1179179E+04  0.7818608E-02  0.9177633E-01
          2   -1    0    0  501    0  0.00000000000E+00  0.00000000000E+00  0.23348946048E+04  0.23348946048E+04  0.25500000000E-02 0. -1.
         -2   -1    0    0    0  501 -0.00000000000E+00 -0.00000000000E+00 -0.67643796452E+03  0.67643796452E+03  0.25500000000E-02 0.  1.
    8880023    1    1    2    0    0 -0.25706220736E+02  0.97774796298E+03  0.12459391976E+03  0.11857426955E+04  0.65864270000E+03 0.  0.
    8880022    1    1    2    0    0  0.25706220736E+02 -0.97774796298E+03  0.15338627205E+04  0.18255898738E+04  0.15294330000E+03 0.  0.
<mgrwt>
<rscale>  0 0.11287307E+04</rscale>
<asrwt>0</asrwt>
<pdfrwt beam="1">  1        2 0.35921456E+00 0.11791786E+04</pdfrwt>
<pdfrwt beam="2">  1       -2 0.10406738E+00 0.11791786E+04</pdfrwt>
<totfact> 0.31984377E+00</totfact>
</mgrwt>
</event>
<event>
 4    5  0.7289609E-008  0.6684335E+03  0.7818608E-02  0.1016812E+00
         -2   -1    0    0    0  501 -0.00000000000E+00  0.00000000000E+00  0.13249057452E+04  0.13249057452E+04  0.25500000000E-02 0.  1.
          2   -1    0    0  501    0  0.00000000000E+00 -0.00000000000E+00 -0.14453816199E+04  0.14453816199E+04  0.25500000000E-02 0. -1.
    8880023    1    1    2    0    0 -0.11250238953E+03  0.18340530230E+02  0.12334844519E+04  0.14029566144E+04  0.65864270000E+03 0.  1.
    8880022    1    1    2    0    0  0.11250238953E+03 -0.18340530230E+02 -0.13539603266E+04  0.13673307507E+04  0.15294330000E+03 0.  0.
<mgrwt>
<rscale>  0 0.48854963E+03</rscale>
<asrwt>0</asrwt>
<pdfrwt beam="1">  1        2 0.22236640E+00 0.66843352E+03</pdfrwt>
<pdfrwt beam="2">  1       -2 0.20383165E+00 0.66843352E+03</pdfrwt>
<totfact> 0.17934452E+00</totfact>
</mgrwt>
</event>
<event>
 4    5  0.7289609E-008  0.1095615E+04  0.7818608E-02  0.9265954E-01
          2   -1    0    0  501    0  0.00000000000E+00  0.00000000000E+00  0.22364119928E+04  0.22364119929E+04  0.25500000000E-02 0. -1.
         -2   -1    0    0    0  501 -0.00000000000E+00 -0.00000000000E+00 -0.57153693667E+03  0.57153693667E+03  0.25500000000E-02 0.  1.
    8880023    1    1    2    0    0  0.83702287626E+03  0.25681579354E+03  0.22905761849E+03  0.11193030180E+04  0.65864270000E+03 0.  0.
    8880022    1    1    2    0    0 -0.83702287626E+03 -0.25681579354E+03  0.14358174377E+04  0.16886459115E+04  0.15294330000E+03 0.  0.
<mgrwt>
<rscale>  0 0.10397851E+04</rscale>
<asrwt>0</asrwt>
<pdfrwt beam="1">  1        2 0.34406339E+00 0.10956148E+04</pdfrwt>
<pdfrwt beam="2">  1       -2 0.87928758E-01 0.10956148E+04</pdfrwt>
<totfact> 0.54566493E+00</totfact>
</mgrwt>
</event>
<event>
 4    5  0.7289609E-008  0.1668915E+04  0.7818608E-02  0.8798739E-01
         -2   -1    0    0    0  501 -0.00000000000E+00  0.00000000000E+00  0.60432540167E+03  0.60432540167E+03  0.25500000000E-02 0.  1.
          2   -1    0    0  501    0  0.00000000000E+00 -0.00000000000E+00 -0.53386802743E+04  0.53386802743E+04  0.25500000000E-02 0. -1.
    8880023    1    1    2    0    0 -0.14376089941E+04  0.53361725819E+03 -0.11092092411E+04  0.20039017802E+04  0.65864270000E+03 0.  0.
    8880022    1    1    2    0    0  0.14376089941E+04 -0.53361725819E+03 -0.36251456315E+04  0.39391038957E+04  0.15294330000E+03 0.  0.
<mgrwt>
<rscale>  0 0.16359890E+04</rscale>
<asrwt>0</asrwt>
<pdfrwt beam="1">  1        2 0.82133540E+00 0.16689150E+04</pdfrwt>
<pdfrwt beam="2">  1       -2 0.92973142E-01 0.16689150E+04</pdfrwt>
<totfact> 0.10910473E-02</totfact>
</mgrwt>
</event>
<event>
 4    5  0.7289609E-008  0.8480559E+03  0.7818608E-02  0.9615173E-01
         -2   -1    0    0    0  501 -0.00000000000E+00  0.00000000000E+00  0.10605172194E+04  0.10605172194E+04  0.25500000000E-02 0.  1.
          2   -1    0    0  501    0  0.00000000000E+00 -0.00000000000E+00 -0.12838480021E+04  0.12838480021E+04  0.25500000000E-02 0. -1.
    8880023    1    1    2    0    0  0.30110941295E+03  0.44127291952E+03  0.80896121265E+03  0.11720141287E+04  0.65864270000E+03 0.  1.
    8880022    1    1    2    0    0 -0.30110941295E+03 -0.44127291952E+03 -0.10322919953E+04  0.11723510928E+04  0.15294330000E+03 0.  0.
<mgrwt>
<rscale>  0 0.76300007E+03</rscale>
<asrwt>0</asrwt>
<pdfrwt beam="1">  1        2 0.19751508E+00 0.84805594E+03</pdfrwt>
<pdfrwt beam="2">  1       -2 0.16315650E+00 0.84805594E+03</pdfrwt>
<totfact> 0.40737311E+00</totfact>
</mgrwt>
</event>
<event>
 4    5  0.7289609E-008  0.9429256E+03  0.7818608E-02  0.9460366E-01
          2   -1    0    0  501    0  0.00000000000E+00  0.00000000000E+00  0.17445907023E+04  0.17445907023E+04  0.25500000000E-02 0. -1.
         -2   -1    0    0    0  501 -0.00000000000E+00 -0.00000000000E+00 -0.97471279141E+03  0.97471279141E+03  0.25500000000E-02 0.  1.
    8880023    1    1    2    0    0 -0.27006161647E+03  0.61835684982E+03 -0.64629602326E+03  0.11431566937E+04  0.65864270000E+03 0.  1.
    8880022    1    1    2    0    0  0.27006161647E+03 -0.61835684982E+03  0.14161739341E+04  0.15761468000E+04  0.15294330000E+03 0.  0.
<mgrwt>
<rscale>  0 0.87269980E+03</rscale>
<asrwt>0</asrwt>
<pdfrwt beam="1">  1        2 0.26839857E+00 0.94292559E+03</pdfrwt>
<pdfrwt beam="2">  1       -2 0.14995581E+00 0.94292559E+03</pdfrwt>
<totfact> 0.27834626E+00</totfact>
</mgrwt>
</event>
<event>
 4    5  0.7289609E-008  0.6862153E+03  0.7818608E-02  0.1006006E+00
          2   -1    0    0  501    0  0.00000000000E+00  0.00000000000E+00  0.17280053670E+04  0.17280053670E+04  0.25500000000E-02 0. -1.
         -2   -1    0    0    0  501 -0.00000000000E+00 -0.00000000000E+00 -0.13351539566E+03  0.13351539569E+03  0.25500000000E-02 0.  1.
    8880023    1    1    2    0    0 -0.39564213766E+02  0.18845648352E+03  0.95169348728E+03  0.11732910437E+04  0.65864270000E+03 0.  0.
    8880022    1    1    2    0    0  0.39564213766E+02 -0.18845648352E+03  0.64279648401E+03  0.68822971896E+03  0.15294330000E+03 0.  0.
<mgrwt>
<rscale>  0 0.53093372E+03</rscale>
<asrwt>0</asrwt>
<pdfrwt beam="1">  1        2 0.26584699E+00 0.68621526E+03</pdfrwt>
<pdfrwt beam="2">  1       -2 0.20540830E-01 0.68621526E+03</pdfrwt>
<totfact> 0.19728009E+02</totfact>
</mgrwt>
</event>
<event>
 4    5  0.7289609E-008  0.6946485E+03  0.7818608E-02  0.1002017E+00
         -2   -1    0    0    0  501 -0.00000000000E+00  0.00000000000E+00  0.58731647176E+03  0.58731647177E+03  0.25500000000E-02 0.  1.
          2   -1    0    0  501    0  0.00000000000E+00 -0.00000000000E+00 -0.64884304972E+03  0.64884304972E+03  0.25500000000E-02 0. -1.
    8880023    1    1    2    0    0 -0.14210947336E+03  0.16891179873E+03  0.32386073125E+03  0.76643478371E+03  0.65864270000E+03 0.  1.
    8880022    1    1    2    0    0  0.14210947336E+03 -0.16891179873E+03 -0.38538730921E+03  0.46972473778E+03  0.15294330000E+03 0.  0.
<mgrwt>
<rscale>  0 0.54774603E+03</rscale>
<asrwt>0</asrwt>
<pdfrwt beam="1">  1        2 0.99822007E-01 0.69464848E+03</pdfrwt>
<pdfrwt beam="2">  1       -2 0.90356381E-01 0.69464848E+03</pdfrwt>
<totfact> 0.47988162E+01</totfact>
</mgrwt>
</event>
<event>
 4    5  0.7289609E-008  0.8003033E+03  0.7818608E-02  0.9710141E-01
          2   -1    0    0  501    0  0.00000000000E+00  0.00000000000E+00  0.96454646557E+03  0.96454646557E+03  0.25500000000E-02 0. -1.
         -2   -1    0    0    0  501 -0.00000000000E+00 -0.00000000000E+00 -0.12035547552E+04  0.12035547552E+04  0.25500000000E-02 0.  1.
    8880023    1    1    2    0    0  0.34055939939E+03  0.30115528979E+03 -0.99245566471E+03  0.12749328083E+04  0.65864270000E+03 0.  1.
    8880022    1    1    2    0    0 -0.34055939939E+03 -0.30115528979E+03  0.75344737504E+03  0.89316841248E+03  0.15294330000E+03 0.  0.
<mgrwt>
<rscale>  0 0.70416223E+03</rscale>
<asrwt>0</asrwt>
<pdfrwt beam="1">  1        2 0.14839177E+00 0.80030333E+03</pdfrwt>
<pdfrwt beam="2">  1       -2 0.18516227E+00 0.80030333E+03</pdfrwt>
<totfact> 0.45040319E+00</totfact>
</mgrwt>
</event>
<event>
 4    5  0.7289609E-008  0.1252171E+04  0.7818608E-02  0.9108005E-01
          2   -1    0    0  501    0  0.00000000000E+00  0.00000000000E+00  0.31929347144E+04  0.31929347144E+04  0.25500000000E-02 0. -1.
         -2   -1    0    0    0  501 -0.00000000000E+00 -0.00000000000E+00 -0.91975830254E+03  0.91975830254E+03  0.25500000000E-02 0.  1.
    8880023    1    1    2    0    0  0.47368317240E+02  0.10638973042E+04 -0.33086903120E+03  0.12951470007E+04  0.65864270000E+03 0.  0.
    8880022    1    1    2    0    0 -0.47368317240E+02 -0.10638973042E+04  0.26040454430E+04  0.28175460162E+04  0.15294330000E+03 0.  0.
<mgrwt>
<rscale>  0 0.12055588E+04</rscale>
<asrwt>0</asrwt>
<pdfrwt beam="1">  1        2 0.49122072E+00 0.12521707E+04</pdfrwt>
<pdfrwt beam="2">  1       -2 0.14150128E+00 0.12521707E+04</pdfrwt>
<totfact> 0.44937780E-01</totfact>
</mgrwt>
</event>
<event>
 4    5  0.7289609E-008  0.7204770E+03  0.7818608E-02  0.9920975E-01
         -2   -1    0    0    0  501 -0.00000000000E+00  0.00000000000E+00  0.22510074845E+03  0.22510074846E+03  0.25500000000E-02 0.  1.
          2   -1    0    0  501    0  0.00000000000E+00 -0.00000000000E+00 -0.12652696363E+04  0.12652696363E+04  0.25500000000E-02 0. -1.
    8880023    1    1    2    0    0 -0.28789752242E+03  0.48907424637E+02 -0.58334762624E+03  0.92702835928E+03  0.65864270000E+03 0.  1.
    8880022    1    1    2    0    0  0.28789752242E+03 -0.48907424637E+02 -0.45682126161E+03  0.56334202548E+03  0.15294330000E+03 0.  0.
<mgrwt>
<rscale>  0 0.59255422E+03</rscale>
<asrwt>0</asrwt>
<pdfrwt beam="1">  1        2 0.19465686E+00 0.72047701E+03</pdfrwt>
<pdfrwt beam="2">  1       -2 0.34630885E-01 0.72047701E+03</pdfrwt>
<totfact> 0.13764365E+02</totfact>
</mgrwt>
</event>
<event>
 4    5  0.7289609E-008  0.1077781E+04  0.7818608E-02  0.9286207E-01
          2   -1    0    0  501    0  0.00000000000E+00  0.00000000000E+00  0.12358680391E+04  0.12358680392E+04  0.25500000000E-02 0. -1.
         -2   -1    0    0    0  501 -0.00000000000E+00 -0.00000000000E+00 -0.13282077411E+04  0.13282077411E+04  0.25500000000E-02 0.  1.
    8880023    1    1    2    0    0  0.60086287614E+03  0.60561109646E+03 -0.88116099673E+03  0.13921407632E+04  0.65864270000E+03 0.  1.
    8880022    1    1    2    0    0 -0.60086287614E+03 -0.60561109646E+03  0.78882129480E+03  0.11719350171E+04  0.15294330000E+03 0.  0.
<mgrwt>
<rscale>  0 0.10206262E+04</rscale>
<asrwt>0</asrwt>
<pdfrwt beam="1">  1        2 0.19013354E+00 0.10777807E+04</pdfrwt>
<pdfrwt beam="2">  1       -2 0.20433965E+00 0.10777807E+04</pdfrwt>
<totfact> 0.22096417E+00</totfact>
</mgrwt>
</event>
<event>
 4    5  0.7289609E-008  0.6645848E+03  0.7818608E-02  0.1019884E+00
         -2   -1    0    0    0  501 -0.00000000000E+00  0.00000000000E+00  0.23983480587E+04  0.23983480587E+04  0.25500000000E-02 0.  1.
          2   -1    0    0  501    0  0.00000000000E+00 -0.00000000000E+00 -0.48128058243E+03  0.48128058244E+03  0.25500000000E-02 0. -1.
    8880023    1    1    2    0    0 -0.69960196651E+02 -0.54481704031E+02  0.23339946317E+04  0.24267681867E+04  0.65864270000E+03 0.  1.
    8880022    1    1    2    0    0  0.69960196651E+02  0.54481704031E+02 -0.41692715544E+03  0.45286045438E+03  0.15294330000E+03 0.  0.
<mgrwt>
<rscale>  0 0.47728366E+03</rscale>
<asrwt>0</asrwt>
<pdfrwt beam="1">  1        2 0.74043167E-01 0.66458475E+03</pdfrwt>
<pdfrwt beam="2">  1       -2 0.36897662E+00 0.66458475E+03</pdfrwt>
<totfact> 0.81636199E-01</totfact>
</mgrwt>
</event>
<event>
 4    5  0.7289609E-008  0.2373999E+04  0.7818608E-02  0.8457824E-01
         -2   -1    0    0    0  501 -0.00000000000E+00  0.00000000000E+00  0.18327858789E+04  0.18327858789E+04  0.25500000000E-02 0.  1.
          2   -1    0    0  501    0  0.00000000000E+00 -0.00000000000E+00 -0.31646687282E+04  0.31646687282E+04  0.25500000000E-02 0. -1.
    8880023    1    1    2    0    0  0.22479316002E+04 -0.38582809884E+03 -0.45499587738E+02  0.23744347159E+04  0.65864270000E+03 0.  0.
    8880022    1    1    2    0    0 -0.22479316002E+04  0.38582809884E+03 -0.12863832616E+04  0.26230198913E+04  0.15294330000E+03 0.  0.
<mgrwt>
<rscale>  0 0.23516671E+04</rscale>
<asrwt>0</asrwt>
<pdfrwt beam="1">  1        2 0.48687211E+00 0.23739987E+04</pdfrwt>
<pdfrwt beam="2">  1       -2 0.28196706E+00 0.23739987E+04</pdfrwt>
<totfact> 0.47823063E-02</totfact>
</mgrwt>
</event>
<event>
 4    5  0.7289609E-008  0.1394014E+04  0.7818608E-02  0.8988348E-01
          2   -1    0    0  501    0  0.00000000000E+00  0.00000000000E+00  0.92246587337E+03  0.92246587338E+03  0.25500000000E-02 0. -1.
         -2   -1    0    0    0  501 -0.00000000000E+00 -0.00000000000E+00 -0.19772415178E+04  0.19772415178E+04  0.25500000000E-02 0.  1.
    8880023    1    1    2    0    0 -0.40476895041E+03  0.11600113379E+04 -0.88204778861E+03  0.16496310845E+04  0.65864270000E+03 0.  0.
    8880022    1    1    2    0    0  0.40476895041E+03 -0.11600113379E+04 -0.17272785583E+03  0.12500763067E+04  0.15294330000E+03 0.  0.
<mgrwt>
<rscale>  0 0.13532809E+04</rscale>
<asrwt>0</asrwt>
<pdfrwt beam="1">  1        2 0.14191783E+00 0.13940138E+04</pdfrwt>
<pdfrwt beam="2">  1       -2 0.30419100E+00 0.13940138E+04</pdfrwt>
<totfact> 0.81382566E-01</totfact>
</mgrwt>
</event>
<event>
 4    5  0.7289609E-008  0.1300492E+04  0.7818608E-02  0.9065135E-01
         -2   -1    0    0    0  501 -0.00000000000E+00  0.00000000000E+00  0.90218450101E+03  0.90218450101E+03  0.25500000000E-02 0.  1.
          2   -1    0    0  501    0  0.00000000000E+00 -0.00000000000E+00 -0.26913807275E+04  0.26913807275E+04  0.25500000000E-02 0. -1.
    8880023    1    1    2    0    0  0.11081232750E+04 -0.17184975039E+03  0.18934556025E+03  0.13142037425E+04  0.65864270000E+03 0.  1.
    8880022    1    1    2    0    0 -0.11081232750E+04  0.17184975039E+03 -0.19785417867E+04  0.22793614861E+04  0.15294330000E+03 0.  0.
<mgrwt>
<rscale>  0 0.12560836E+04</rscale>
<asrwt>0</asrwt>
<pdfrwt beam="1">  1        2 0.41405857E+00 0.13004921E+04</pdfrwt>
<pdfrwt beam="2">  1       -2 0.13879762E+00 0.13004921E+04</pdfrwt>
<totfact> 0.95613965E-01</totfact>
</mgrwt>
</event>
<event>
 4    5  0.7289609E-008  0.1124963E+04  0.7818608E-02  0.9233759E-01
         -2   -1    0    0    0  501 -0.00000000000E+00  0.00000000000E+00  0.83590373475E+03  0.83590373475E+03  0.25500000000E-02 0.  1.
          2   -1    0    0  501    0  0.00000000000E+00 -0.00000000000E+00 -0.19182101897E+04  0.19182101897E+04  0.25500000000E-02 0. -1.
    8880023    1    1    2    0    0  0.54187831774E+02  0.91038188391E+03  0.23048283405E+03  0.11483309796E+04  0.65864270000E+03 0.  1.
    8880022    1    1    2    0    0 -0.54187831774E+02 -0.91038188391E+03 -0.13127892890E+04  0.16057829449E+04  0.15294330000E+03 0.  0.
<mgrwt>
<rscale>  0 0.10711672E+04</rscale>
<asrwt>0</asrwt>
<pdfrwt beam="1">  1        2 0.29510926E+00 0.11249630E+04</pdfrwt>
<pdfrwt beam="2">  1       -2 0.12860057E+00 0.11249630E+04</pdfrwt>
<totfact> 0.32546028E+00</totfact>
</mgrwt>
</event>
<event>
 4    5  0.7289609E-008  0.8487155E+03  0.7818608E-02  0.9613960E-01
          2   -1    0    0  501    0  0.00000000000E+00  0.00000000000E+00  0.27700828021E+04  0.27700828021E+04  0.25500000000E-02 0. -1.
         -2   -1    0    0    0  501 -0.00000000000E+00 -0.00000000000E+00 -0.61758551579E+03  0.61758551579E+03  0.25500000000E-02 0.  1.
    8880023    1    1    2    0    0  0.35816264168E+03  0.39777788688E+03 -0.27889236552E+03  0.89336380215E+03  0.65864270000E+03 0.  1.
    8880022    1    1    2    0    0 -0.35816264168E+03 -0.39777788688E+03  0.24313896518E+04  0.24943045157E+04  0.15294330000E+03 0.  0.
<mgrwt>
<rscale>  0 0.76379036E+03</rscale>
<asrwt>0</asrwt>
<pdfrwt beam="1">  1        2 0.42616658E+00 0.84871546E+03</pdfrwt>
<pdfrwt beam="2">  1       -2 0.95013158E-01 0.84871546E+03</pdfrwt>
<totfact> 0.23351942E+00</totfact>
</mgrwt>
</event>
<event>
 4    5  0.7289609E-008  0.6777407E+03  0.7818608E-02  0.1010632E+00
          2   -1    0    0  501    0  0.00000000000E+00  0.00000000000E+00  0.75435334850E+03  0.75435334851E+03  0.25500000000E-02 0. -1.
         -2   -1    0    0    0  501 -0.00000000000E+00 -0.00000000000E+00 -0.41201216796E+03  0.41201216797E+03  0.25500000000E-02 0.  1.
    8880023    1    1    2    0    0  0.35568821673E+02 -0.15574683602E+03 -0.87104679272E+02  0.68331519039E+03  0.65864270000E+03 0.  1.
    8880022    1    1    2    0    0 -0.35568821673E+02  0.15574683602E+03  0.42944585981E+03  0.48305032608E+03  0.15294330000E+03 0.  0.
<mgrwt>
<rscale>  0 0.51224375E+03</rscale>
<asrwt>0</asrwt>
<pdfrwt beam="1">  1        2 0.11605436E+00 0.67774068E+03</pdfrwt>
<pdfrwt beam="2">  1       -2 0.63386488E-01 0.67774068E+03</pdfrwt>
<totfact> 0.87266720E+01</totfact>
</mgrwt>
</event>
<event>
 4    5  0.7289609E-008  0.1326949E+04  0.7818608E-02  0.9042630E-01
         -2   -1    0    0    0  501 -0.00000000000E+00  0.00000000000E+00  0.33088046063E+04  0.33088046063E+04  0.25500000000E-02 0.  1.
          2   -1    0    0  501    0  0.00000000000E+00 -0.00000000000E+00 -0.73571490165E+03  0.73571490166E+03  0.25500000000E-02 0. -1.
    8880023    1    1    2    0    0 -0.42140763215E+03 -0.10721008984E+04  0.25587666071E+04  0.28823742791E+04  0.65864270000E+03 0.  0.
    8880022    1    1    2    0    0  0.42140763215E+03  0.10721008984E+04  0.14323097511E+02  0.11621452288E+04  0.15294330000E+03 0.  0.
<mgrwt>
<rscale>  0 0.12836530E+04</rscale>
<asrwt>0</asrwt>
<pdfrwt beam="1">  1        2 0.11318691E+00 0.13269495E+04</pdfrwt>
<pdfrwt beam="2">  1       -2 0.50904686E+00 0.13269495E+04</pdfrwt>
<totfact> 0.53756021E-02</totfact>
</mgrwt>
</event>
<event>
 4    5  0.7289609E-008  0.1089062E+04  0.7818608E-02  0.9273333E-01
         -2   -1    0    0    0  501 -0.00000000000E+00  0.00000000000E+00  0.21438336934E+04  0.21438336934E+04  0.25500000000E-02 0.  1.
          2   -1    0    0  501    0  0.00000000000E+00 -0.00000000000E+00 -0.69256794138E+03  0.69256794138E+03  0.25500000000E-02 0. -1.
    8880023    1    1    2    0    0  0.72668988084E+03  0.47346294754E+03  0.16077703393E+04  0.19419013919E+04  0.65864270000E+03 0.  1.
    8880022    1    1    2    0    0 -0.72668988084E+03 -0.47346294754E+03 -0.15650458732E+03  0.89450024286E+03  0.15294330000E+03 0.  0.
<mgrwt>
<rscale>  0 0.10327536E+04</rscale>
<asrwt>0</asrwt>
<pdfrwt beam="1">  1        2 0.10654892E+00 0.10890618E+04</pdfrwt>
<pdfrwt beam="2">  1       -2 0.32982056E+00 0.10890618E+04</pdfrwt>
<totfact> 0.86272956E-01</totfact>
</mgrwt>
</event>
<event>
 4    5  0.7289609E-008  0.7791819E+03  0.7818608E-02  0.9757762E-01
          2   -1    0    0  501    0  0.00000000000E+00  0.00000000000E+00  0.13459563696E+04  0.13459563696E+04  0.25500000000E-02 0. -1.
         -2   -1    0    0    0  501 -0.00000000000E+00 -0.00000000000E+00 -0.49612650789E+03  0.49612650790E+03  0.25500000000E-02 0.  1.
    8880023    1    1    2    0    0  0.41577937563E+03  0.21018331993E+02 -0.10792496599E+03  0.78662078795E+03  0.65864270000E+03 0.  1.
    8880022    1    1    2    0    0 -0.41577937563E+03 -0.21018331993E+02  0.95775482768E+03  0.10554620895E+04  0.15294330000E+03 0.  0.
<mgrwt>
<rscale>  0 0.67679373E+03</rscale>
<asrwt>0</asrwt>
<pdfrwt beam="1">  1        2 0.20707021E+00 0.77918192E+03</pdfrwt>
<pdfrwt beam="2">  1       -2 0.76327156E-01 0.77918192E+03</pdfrwt>
<totfact> 0.24298722E+01</totfact>
</mgrwt>
</event>
<event>
 4    5  0.7289609E-008  0.1032024E+04  0.7818608E-02  0.9340810E-01
          2   -1    0    0  501    0  0.00000000000E+00  0.00000000000E+00  0.31811844996E+04  0.31811844996E+04  0.25500000000E-02 0. -1.
         -2   -1    0    0    0  501 -0.00000000000E+00 -0.00000000000E+00 -0.31150994933E+03  0.31150994934E+03  0.25500000000E-02 0.  1.
    8880023    1    1    2    0    0 -0.29138049655E+02 -0.79398618730E+03  0.92296255400E+03  0.13845335582E+04  0.65864270000E+03 0.  0.
    8880022    1    1    2    0    0  0.29138049655E+02  0.79398618730E+03  0.19467119962E+04  0.21081608906E+04  0.15294330000E+03 0.  0.
<mgrwt>
<rscale>  0 0.97111095E+03</rscale>
<asrwt>0</asrwt>
<pdfrwt beam="1">  1        2 0.48941304E+00 0.10320239E+04</pdfrwt>
<pdfrwt beam="2">  1       -2 0.47924604E-01 0.10320239E+04</pdfrwt>
<totfact> 0.56301917E+00</totfact>
</mgrwt>
</event>
<event>
 4    5  0.7289609E-008  0.6818152E+03  0.7818608E-02  0.1008315E+00
         -2   -1    0    0    0  501 -0.00000000000E+00  0.00000000000E+00  0.41948080354E+03  0.41948080355E+03  0.25500000000E-02 0.  1.
          2   -1    0    0  501    0  0.00000000000E+00 -0.00000000000E+00 -0.64386077477E+03  0.64386077477E+03  0.25500000000E-02 0. -1.
    8880023    1    1    2    0    0  0.17304001469E+03 -0.33449469849E+02  0.72578809282E+02  0.68566726882E+03  0.65864270000E+03 0.  1.
    8880022    1    1    2    0    0 -0.17304001469E+03  0.33449469849E+02 -0.29695878051E+03  0.37767430950E+03  0.15294330000E+03 0.  0.
<mgrwt>
<rscale>  0 0.52149853E+03</rscale>
<asrwt>0</asrwt>
<pdfrwt beam="1">  1        2 0.99055504E-01 0.68181517E+03</pdfrwt>
<pdfrwt beam="2">  1       -2 0.64535508E-01 0.68181517E+03</pdfrwt>
<totfact> 0.10246122E+02</totfact>
</mgrwt>
</event>
<event>
 4    5  0.7289609E-008  0.8776621E+03  0.7818608E-02  0.9562887E-01
         -2   -1    0    0    0  501 -0.00000000000E+00  0.00000000000E+00  0.63531881544E+03  0.63531881545E+03  0.25500000000E-02 0.  1.
          2   -1    0    0  501    0  0.00000000000E+00 -0.00000000000E+00 -0.24417603116E+04  0.24417603116E+04  0.25500000000E-02 0. -1.
    8880023    1    1    2    0    0 -0.57835105344E+03 -0.44616276862E+02  0.26797711964E+03  0.91766142781E+03  0.65864270000E+03 0.  0.
    8880022    1    1    2    0    0  0.57835105344E+03  0.44616276862E+02 -0.20744186158E+04  0.21594176992E+04  0.15294330000E+03 0.  0.
<mgrwt>
<rscale>  0 0.79802050E+03</rscale>
<asrwt>0</asrwt>
<pdfrwt beam="1">  1        2 0.37565543E+00 0.87766210E+03</pdfrwt>
<pdfrwt beam="2">  1       -2 0.97741357E-01 0.87766210E+03</pdfrwt>
<totfact> 0.33643004E+00</totfact>
</mgrwt>
</event>
<event>
 4    5  0.7289609E-008  0.9953444E+03  0.7818608E-02  0.9387674E-01
         -2   -1    0    0    0  501 -0.00000000000E+00  0.00000000000E+00  0.51767538181E+03  0.51767538181E+03  0.25500000000E-02 0.  1.
          2   -1    0    0  501    0  0.00000000000E+00 -0.00000000000E+00 -0.39578849230E+04  0.39578849230E+04  0.25500000000E-02 0. -1.
    8880023    1    1    2    0    0 -0.69847720300E+03  0.26273554119E+03 -0.45449976231E+02  0.99638159071E+03  0.65864270000E+03 0.  1.
    8880022    1    1    2    0    0  0.69847720300E+03 -0.26273554119E+03 -0.33947595649E+04  0.34791787141E+04  0.15294330000E+03 0.  0.
<mgrwt>
<rscale>  0 0.93097040E+03</rscale>
<asrwt>0</asrwt>
<pdfrwt beam="1">  1        2 0.60890535E+00 0.99534445E+03</pdfrwt>
<pdfrwt beam="2">  1       -2 0.79642369E-01 0.99534445E+03</pdfrwt>
<totfact> 0.54344069E-01</totfact>
</mgrwt>
</event>
<event>
 4    5  0.7289609E-008  0.7424122E+03  0.7818608E-02  0.9852975E-01
          2   -1    0    0  501    0  0.00000000000E+00  0.00000000000E+00  0.21626447942E+04  0.21626447942E+04  0.25500000000E-02 0. -1.
         -2   -1    0    0    0  501 -0.00000000000E+00 -0.00000000000E+00 -0.40798632832E+03  0.40798632832E+03  0.25500000000E-02 0.  1.
    8880023    1    1    2    0    0  0.20379911089E+03 -0.27537534830E+03 -0.33862029040E+02  0.74318403059E+03  0.65864270000E+03 0.  1.
    8880022    1    1    2    0    0 -0.20379911089E+03  0.27537534830E+03  0.17885204949E+04  0.18274470919E+04  0.15294330000E+03 0.  0.
<mgrwt>
<rscale>  0 0.62595440E+03</rscale>
<asrwt>0</asrwt>
<pdfrwt beam="1">  1        2 0.33271458E+00 0.74241219E+03</pdfrwt>
<pdfrwt beam="2">  1       -2 0.62767128E-01 0.74241219E+03</pdfrwt>
<totfact> 0.13264371E+01</totfact>
</mgrwt>
</event>
<event>
 4    5  0.7289609E-008  0.6969235E+03  0.7818608E-02  0.1001021E+00
          2   -1    0    0  501    0  0.00000000000E+00  0.00000000000E+00  0.56752819018E+03  0.56752819019E+03  0.25500000000E-02 0. -1.
         -2   -1    0    0    0  501 -0.00000000000E+00 -0.00000000000E+00 -0.56691790416E+03  0.56691790417E+03  0.25500000000E-02 0.  1.
    8880023    1    1    2    0    0  0.12763457176E+03  0.18868364515E+03 -0.27157156588E+03  0.74796619142E+03  0.65864270000E+03 0.  0.
    8880022    1    1    2    0    0 -0.12763457176E+03 -0.18868364515E+03  0.27218185190E+03  0.38647990293E+03  0.15294330000E+03 0.  0.
<mgrwt>
<rscale>  0 0.55204753E+03</rscale>
<asrwt>0</asrwt>
<pdfrwt beam="1">  1        2 0.87312030E-01 0.69692346E+03</pdfrwt>
<pdfrwt beam="2">  1       -2 0.87218138E-01 0.69692346E+03</pdfrwt>
<totfact> 0.61182059E+01</totfact>
</mgrwt>
</event>
<event>
 4    5  0.7289609E-008  0.8148817E+03  0.7818608E-02  0.9679497E-01
          2   -1    0    0  501    0  0.00000000000E+00  0.00000000000E+00  0.10966000258E+04  0.10966000258E+04  0.25500000000E-02 0. -1.
         -2   -1    0    0    0  501 -0.00000000000E+00 -0.00000000000E+00 -0.76213838118E+03  0.76213838119E+03  0.25500000000E-02 0.  1.
    8880023    1    1    2    0    0 -0.47151395305E+03 -0.88862702446E+02 -0.44672199041E+03  0.92929690131E+03  0.65864270000E+03 0.  1.
    8880022    1    1    2    0    0  0.47151395305E+03  0.88862702446E+02  0.78118363499E+03  0.92944150564E+03  0.15294330000E+03 0.  0.
<mgrwt>
<rscale>  0 0.72250774E+03</rscale>
<asrwt>0</asrwt>
<pdfrwt beam="1">  1        2 0.16870770E+00 0.81488171E+03</pdfrwt>
<pdfrwt beam="2">  1       -2 0.11725206E+00 0.81488171E+03</pdfrwt>
<totfact> 0.12442188E+01</totfact>
</mgrwt>
</event>
<event>
 4    5  0.7289609E-008  0.1006656E+04  0.7818608E-02  0.9372901E-01
          2   -1    0    0  501    0  0.00000000000E+00  0.00000000000E+00  0.14618725572E+04  0.14618725572E+04  0.25500000000E-02 0. -1.
         -2   -1    0    0    0  501 -0.00000000000E+00 -0.00000000000E+00 -0.11738159939E+04  0.11738159939E+04  0.25500000000E-02 0.  1.
    8880023    1    1    2    0    0 -0.15333174359E+03 -0.74567767979E+03 -0.80913227532E+03  0.12915305149E+04  0.65864270000E+03 0.  1.
    8880022    1    1    2    0    0  0.15333174359E+03  0.74567767979E+03  0.10971888386E+04  0.13441580362E+04  0.15294330000E+03 0.  0.
<mgrwt>
<rscale>  0 0.94339769E+03</rscale>
<asrwt>0</asrwt>
<pdfrwt beam="1">  1        2 0.22490347E+00 0.10066559E+04</pdfrwt>
<pdfrwt beam="2">  1       -2 0.18058708E+00 0.10066559E+04</pdfrwt>
<totfact> 0.23767971E+00</totfact>
</mgrwt>
</event>
<event>
 4    5  0.7289609E-008  0.7101267E+03  0.7818608E-02  0.9957531E-01
         -2   -1    0    0    0  501 -0.00000000000E+00  0.00000000000E+00  0.27476147883E+03  0.27476147884E+03  0.25500000000E-02 0.  1.
          2   -1    0    0  501    0  0.00000000000E+00 -0.00000000000E+00 -0.33741537250E+04  0.33741537250E+04  0.25500000000E-02 0. -1.
    8880023    1    1    2    0    0  0.44313925023E+02 -0.26173648342E+03 -0.20607570490E+03  0.73942350052E+03  0.65864270000E+03 0.  1.
    8880022    1    1    2    0    0 -0.44313925023E+02  0.26173648342E+03 -0.28933165412E+04  0.29094917033E+04  0.15294330000E+03 0.  0.
<mgrwt>
<rscale>  0 0.57552307E+03</rscale>
<asrwt>0</asrwt>
<pdfrwt beam="1">  1        2 0.51910054E+00 0.71012669E+03</pdfrwt>
<pdfrwt beam="2">  1       -2 0.42270999E-01 0.71012669E+03</pdfrwt>
<totfact> 0.57270709E+00</totfact>
</mgrwt>
</event>
<event>
 4    5  0.7289609E-008  0.9532509E+03  0.7818608E-02  0.9445452E-01
          2   -1    0    0  501    0  0.00000000000E+00  0.00000000000E+00  0.27111211468E+04  0.27111211468E+04  0.25500000000E-02 0. -1.
         -2   -1    0    0    0  501 -0.00000000000E+00 -0.00000000000E+00 -0.44263324693E+03  0.44263324694E+03  0.25500000000E-02 0.  1.
    8880023    1    1    2    0    0 -0.39466100755E+03 -0.56490679847E+03  0.20795940656E+03  0.97567121659E+03  0.65864270000E+03 0.  1.
    8880022    1    1    2    0    0  0.39466100755E+03  0.56490679847E+03  0.20605284933E+04  0.21780831771E+04  0.15294330000E+03 0.  0.
<mgrwt>
<rscale>  0 0.88427705E+03</rscale>
<asrwt>0</asrwt>
<pdfrwt beam="1">  1        2 0.41709556E+00 0.95325086E+03</pdfrwt>
<pdfrwt beam="2">  1       -2 0.68097423E-01 0.95325086E+03</pdfrwt>
<totfact> 0.52769820E+00</totfact>
</mgrwt>
</event>
<event>
 4    5  0.7920956E-008  0.7112055E+03  0.7818608E-02  0.9953551E-01
         -2   -1    0    0    0  501 -0.00000000000E+00  0.00000000000E+00  0.21246233480E+04  0.21246233480E+04  0.25500000000E-02 0.  1.
          2   -1    0    0  501    0  0.00000000000E+00 -0.00000000000E+00 -0.21717843488E+04  0.21717843488E+04  0.25500000000E-02 0. -1.
    8880023    1    1    2    0    0  0.14932627227E+03 -0.22294562756E+03  0.20534950592E+04  0.21731671019E+04  0.65864270000E+03 0.  1.
    8880022    1    1    2    0    0 -0.14932627227E+03  0.22294562756E+03 -0.21006560600E+04  0.21232405949E+04  0.15294330000E+03 0.  0.
<mgrwt>
<rscale>  0 0.57734697E+03</rscale>
<asrwt>0</asrwt>
<pdfrwt beam="1">  1        2 0.33412067E+00 0.71120552E+03</pdfrwt>
<pdfrwt beam="2">  1       -2 0.32686513E+00 0.71120552E+03</pdfrwt>
<totfact> 0.12675934E-01</totfact>
</mgrwt>
</event>
<event>
 4    5  0.7289609E-008  0.7472624E+03  0.7818608E-02  0.9839276E-01
          2   -1    0    0  501    0  0.00000000000E+00  0.00000000000E+00  0.99824964391E+03  0.99824964391E+03  0.25500000000E-02 0. -1.
         -2   -1    0    0    0  501 -0.00000000000E+00 -0.00000000000E+00 -0.36462987817E+03  0.36462987818E+03  0.25500000000E-02 0.  1.
    8880023    1    1    2    0    0 -0.20529088895E+03  0.28713511239E+03  0.18100116218E+03  0.76887095720E+03  0.65864270000E+03 0.  1.
    8880022    1    1    2    0    0  0.20529088895E+03 -0.28713511239E+03  0.45261860356E+03  0.59400856488E+03  0.15294330000E+03 0.  0.
<mgrwt>
<rscale>  0 0.63296716E+03</rscale>
<asrwt>0</asrwt>
<pdfrwt beam="1">  1        2 0.15357687E+00 0.74726242E+03</pdfrwt>
<pdfrwt beam="2">  1       -2 0.56096905E-01 0.74726242E+03</pdfrwt>
<totfact> 0.76450938E+01</totfact>
</mgrwt>
</event>
<event>
 4    5  0.7289609E-008  0.6993166E+03  0.7818608E-02  0.1000005E+00
         -2   -1    0    0    0  501 -0.00000000000E+00  0.00000000000E+00  0.51620072072E+03  0.51620072072E+03  0.25500000000E-02 0.  1.
          2   -1    0    0  501    0  0.00000000000E+00 -0.00000000000E+00 -0.44161679669E+04  0.44161679669E+04  0.25500000000E-02 0. -1.
    8880023    1    1    2    0    0  0.18038850932E+03  0.15064345867E+03  0.27246844933E+03  0.75052163732E+03  0.65864270000E+03 0.  1.
    8880022    1    1    2    0    0 -0.18038850932E+03 -0.15064345867E+03 -0.41724356955E+04  0.41818470503E+04  0.15294330000E+03 0.  0.
<mgrwt>
<rscale>  0 0.55648124E+03</rscale>
<asrwt>0</asrwt>
<pdfrwt beam="1">  1        2 0.67941043E+00 0.69931658E+03</pdfrwt>
<pdfrwt beam="2">  1       -2 0.79415499E-01 0.69931658E+03</pdfrwt>
<totfact> 0.24082494E-01</totfact>
</mgrwt>
</event>
<event>
 4    5  0.7289609E-008  0.6957513E+03  0.7818608E-02  0.1001530E+00
         -2   -1    0    0    0  501 -0.00000000000E+00  0.00000000000E+00  0.26466732480E+03  0.26466732481E+03  0.25500000000E-02 0.  1.
          2   -1    0    0  501    0  0.00000000000E+00 -0.00000000000E+00 -0.98030246148E+03  0.98030246149E+03  0.25500000000E-02 0. -1.
    8880023    1    1    2    0    0 -0.21680152745E+03  0.57068499249E+02 -0.32151112701E+03  0.76644590609E+03  0.65864270000E+03 0.  1.
    8880022    1    1    2    0    0  0.21680152745E+03 -0.57068499249E+02 -0.39412400967E+03  0.47852388021E+03  0.15294330000E+03 0.  0.
<mgrwt>
<rscale>  0 0.54984229E+03</rscale>
<asrwt>0</asrwt>
<pdfrwt beam="1">  1        2 0.15081576E+00 0.69575134E+03</pdfrwt>
<pdfrwt beam="2">  1       -2 0.40718050E-01 0.69575134E+03</pdfrwt>
<totfact> 0.15039497E+02</totfact>
</mgrwt>
</event>
<event>
 4    5  0.7289609E-008  0.1170345E+04  0.7818608E-02  0.9186502E-01
         -2   -1    0    0    0  501 -0.00000000000E+00  0.00000000000E+00  0.69334221957E+03  0.69334221958E+03  0.25500000000E-02 0.  1.
          2   -1    0    0  501    0  0.00000000000E+00 -0.00000000000E+00 -0.28926355076E+04  0.28926355076E+04  0.25500000000E-02 0. -1.
    8880023    1    1    2    0    0  0.56905486744E+03  0.78235167507E+03  0.88349592479E+01  0.11703785065E+04  0.65864270000E+03 0.  1.
    8880022    1    1    2    0    0 -0.56905486744E+03 -0.78235167507E+03 -0.22081282472E+04  0.24155992207E+04  0.15294330000E+03 0.  0.
<mgrwt>
<rscale>  0 0.11193842E+04</rscale>
<asrwt>0</asrwt>
<pdfrwt beam="1">  1        2 0.44502084E+00 0.11703452E+04</pdfrwt>
<pdfrwt beam="2">  1       -2 0.10666803E+00 0.11703452E+04</pdfrwt>
<totfact> 0.14249379E+00</totfact>
</mgrwt>
</event>
<event>
 4    5  0.7289609E-008  0.7199035E+03  0.7818608E-02  0.9922913E-01
          2   -1    0    0  501    0  0.00000000000E+00  0.00000000000E+00  0.13816781072E+04  0.13816781072E+04  0.25500000000E-02 0. -1.
         -2   -1    0    0    0  501 -0.00000000000E+00 -0.00000000000E+00 -0.20935940186E+03  0.20935940188E+03  0.25500000000E-02 0.  1.
    8880023    1    1    2    0    0  0.29032859735E+03  0.12657021980E+02  0.62797826576E+03  0.95531031773E+03  0.65864270000E+03 0.  0.
    8880022    1    1    2    0    0 -0.29032859735E+03 -0.12657021980E+02  0.54434043958E+03  0.63572719135E+03  0.15294330000E+03 0.  0.
<mgrwt>
<rscale>  0 0.59163587E+03</rscale>
<asrwt>0</asrwt>
<pdfrwt beam="1">  1        2 0.21256587E+00 0.71990354E+03</pdfrwt>
<pdfrwt beam="2">  1       -2 0.32209138E-01 0.71990354E+03</pdfrwt>
<totfact> 0.13536402E+02</totfact>
</mgrwt>
</event>
<event>
 4    5  0.7289609E-008  0.8795959E+03  0.7818608E-02  0.9559614E-01
         -2   -1    0    0    0  501 -0.00000000000E+00  0.00000000000E+00  0.47366940364E+03  0.47366940365E+03  0.25500000000E-02 0.  1.
          2   -1    0    0  501    0  0.00000000000E+00 -0.00000000000E+00 -0.13733484047E+04  0.13733484047E+04  0.25500000000E-02 0. -1.
    8880023    1    1    2    0    0  0.57678649752E+03 -0.84829932567E+02 -0.16194734921E+03  0.89438019397E+03  0.65864270000E+03 0.  0.
    8880022    1    1    2    0    0 -0.57678649752E+03  0.84829932567E+02 -0.73773165184E+03  0.95263761437E+03  0.15294330000E+03 0.  0.
<mgrwt>
<rscale>  0 0.80027852E+03</rscale>
<asrwt>0</asrwt>
<pdfrwt beam="1">  1        2 0.21128437E+00 0.87959592E+03</pdfrwt>
<pdfrwt beam="2">  1       -2 0.72872217E-01 0.87959592E+03</pdfrwt>
<totfact> 0.25707929E+01</totfact>
</mgrwt>
</event>
<event>
 4    5  0.7289609E-008  0.8621030E+03  0.7818608E-02  0.9589834E-01
         -2   -1    0    0    0  501 -0.00000000000E+00  0.00000000000E+00  0.14129941223E+04  0.14129941223E+04  0.25500000000E-02 0.  1.
          2   -1    0    0  501    0  0.00000000000E+00 -0.00000000000E+00 -0.17817177548E+04  0.17817177548E+04  0.25500000000E-02 0. -1.
    8880023    1    1    2    0    0  0.10464957445E+03 -0.54631472590E+03  0.12260483318E+04  0.14988048677E+04  0.65864270000E+03 0.  0.
    8880022    1    1    2    0    0 -0.10464957445E+03  0.54631472590E+03 -0.15947719643E+04  0.16959070094E+04  0.15294330000E+03 0.  0.
<mgrwt>
<rscale>  0 0.77972732E+03</rscale>
<asrwt>0</asrwt>
<pdfrwt beam="1">  1        2 0.27411042E+00 0.86210296E+03</pdfrwt>
<pdfrwt beam="2">  1       -2 0.21738371E+00 0.86210296E+03</pdfrwt>
<totfact> 0.92492989E-01</totfact>
</mgrwt>
</event>
<event>
 4    5  0.7289609E-008  0.8423556E+03  0.7818608E-02  0.9625754E-01
          2   -1    0    0  501    0  0.00000000000E+00  0.00000000000E+00  0.13168624971E+04  0.13168624971E+04  0.25500000000E-02 0. -1.
         -2   -1    0    0    0  501 -0.00000000000E+00 -0.00000000000E+00 -0.50664728932E+03  0.50664728932E+03  0.25500000000E-02 0.  1.
    8880023    1    1    2    0    0  0.52385844573E+03 -0.36401483344E+02 -0.43381901295E+01  0.84236676413E+03  0.65864270000E+03 0.  0.
    8880022    1    1    2    0    0 -0.52385844573E+03  0.36401483344E+02  0.81455339792E+03  0.98114302231E+03  0.15294330000E+03 0.  0.
<mgrwt>
<rscale>  0 0.75614782E+03</rscale>
<asrwt>0</asrwt>
<pdfrwt beam="1">  1        2 0.20259423E+00 0.84235559E+03</pdfrwt>
<pdfrwt beam="2">  1       -2 0.77945736E-01 0.84235559E+03</pdfrwt>
<totfact> 0.23937555E+01</totfact>
</mgrwt>
</event>
<event>
 4    5  0.7289609E-008  0.8773989E+03  0.7818608E-02  0.9563334E-01
          2   -1    0    0  501    0  0.00000000000E+00  0.00000000000E+00  0.28825749791E+04  0.28825749791E+04  0.25500000000E-02 0. -1.
         -2   -1    0    0    0  501 -0.00000000000E+00 -0.00000000000E+00 -0.19294519292E+03  0.19294519294E+03  0.25500000000E-02 0.  1.
    8880023    1    1    2    0    0  0.41071359561E+03  0.40906348102E+03  0.13817392861E+04  0.16367749540E+04  0.65864270000E+03 0.  0.
    8880022    1    1    2    0    0 -0.41071359561E+03 -0.40906348102E+03  0.13078905001E+04  0.14387452180E+04  0.15294330000E+03 0.  0.
<mgrwt>
<rscale>  0 0.79771290E+03</rscale>
<asrwt>0</asrwt>
<pdfrwt beam="1">  1        2 0.44347304E+00 0.87739888E+03</pdfrwt>
<pdfrwt beam="2">  1       -2 0.29683878E-01 0.87739888E+03</pdfrwt>
<totfact> 0.22296542E+01</totfact>
</mgrwt>
</event>
<event>
 4    5  0.7289609E-008  0.1971381E+04  0.7818608E-02  0.8633226E-01
          2   -1    0    0  501    0  0.00000000000E+00  0.00000000000E+00  0.32196599294E+04  0.32196599294E+04  0.25500000000E-02 0. -1.
         -2   -1    0    0    0  501 -0.00000000000E+00 -0.00000000000E+00 -0.16994509359E+04  0.16994509359E+04  0.25500000000E-02 0.  1.
    8880023    1    1    2    0    0 -0.12748748667E+04 -0.13517490717E+04  0.21820910439E+04  0.29407249121E+04  0.65864270000E+03 0.  0.
    8880022    1    1    2    0    0  0.12748748667E+04  0.13517490717E+04 -0.66188205033E+03  0.19783859533E+04  0.15294330000E+03 0.  0.
<mgrwt>
<rscale>  0 0.19440688E+04</rscale>
<asrwt>0</asrwt>
<pdfrwt beam="1">  1        2 0.49533229E+00 0.19713807E+04</pdfrwt>
<pdfrwt beam="2">  1       -2 0.26145399E+00 0.19713807E+04</pdfrwt>
<totfact> 0.61222429E-02</totfact>
</mgrwt>
</event>
<event>
 4    5  0.7289609E-008  0.8598067E+03  0.7818608E-02  0.9593907E-01
          2   -1    0    0  501    0  0.00000000000E+00  0.00000000000E+00  0.16253330691E+04  0.16253330691E+04  0.25500000000E-02 0. -1.
         -2   -1    0    0    0  501 -0.00000000000E+00 -0.00000000000E+00 -0.33024867870E+03  0.33024867871E+03  0.25500000000E-02 0.  1.
    8880023    1    1    2    0    0  0.41838067066E+03  0.36113009782E+03  0.57193733754E+03  0.10326566987E+04  0.65864270000E+03 0.  0.
    8880022    1    1    2    0    0 -0.41838067066E+03 -0.36113009782E+03  0.72314705291E+03  0.92292504911E+03  0.15294330000E+03 0.  0.
<mgrwt>
<rscale>  0 0.77700744E+03</rscale>
<asrwt>0</asrwt>
<pdfrwt beam="1">  1        2 0.25005124E+00 0.85980669E+03</pdfrwt>
<pdfrwt beam="2">  1       -2 0.50807489E-01 0.85980669E+03</pdfrwt>
<totfact> 0.40030829E+01</totfact>
</mgrwt>
</event>
<event>
 4    5  0.7289609E-008  0.8265885E+03  0.7818608E-02  0.9656007E-01
         -2   -1    0    0    0  501 -0.00000000000E+00  0.00000000000E+00  0.69105280062E+03  0.69105280062E+03  0.25500000000E-02 0.  1.
          2   -1    0    0  501    0  0.00000000000E+00 -0.00000000000E+00 -0.15748748088E+04  0.15748748088E+04  0.25500000000E-02 0. -1.
    8880023    1    1    2    0    0  0.10027449584E+03 -0.48926826426E+03  0.37152816214E+03  0.90624598783E+03  0.65864270000E+03 0.  0.
    8880022    1    1    2    0    0 -0.10027449584E+03  0.48926826426E+03 -0.12553501703E+04  0.13596816216E+04  0.15294330000E+03 0.  0.
<mgrwt>
<rscale>  0 0.73697637E+03</rscale>
<asrwt>0</asrwt>
<pdfrwt beam="1">  1        2 0.24228843E+00 0.82658854E+03</pdfrwt>
<pdfrwt beam="2">  1       -2 0.10631582E+00 0.82658854E+03</pdfrwt>
<totfact> 0.83471777E+00</totfact>
</mgrwt>
</event>
<event>
 4    5  0.7289609E-008  0.1483415E+04  0.7818608E-02  0.8921437E-01
          2   -1    0    0  501    0  0.00000000000E+00  0.00000000000E+00  0.28588454050E+04  0.28588454050E+04  0.25500000000E-02 0. -1.
         -2   -1    0    0    0  501 -0.00000000000E+00 -0.00000000000E+00 -0.89415021348E+03  0.89415021349E+03  0.25500000000E-02 0.  1.
    8880023    1    1    2    0    0 -0.13073688404E+04  0.23978414492E+03  0.19040225828E+04  0.24136739471E+04  0.65864270000E+03 0.  0.
    8880022    1    1    2    0    0  0.13073688404E+04 -0.23978414492E+03  0.60672608687E+02  0.13393216714E+04  0.15294330000E+03 0.  0.
<mgrwt>
<rscale>  0 0.14456285E+04</rscale>
<asrwt>0</asrwt>
<pdfrwt beam="1">  1        2 0.43982238E+00 0.14834150E+04</pdfrwt>
<pdfrwt beam="2">  1       -2 0.13756157E+00 0.14834150E+04</pdfrwt>
<totfact> 0.76066715E-01</totfact>
</mgrwt>
</event>
<event>
 4    5  0.7289609E-008  0.1628975E+04  0.7818608E-02  0.8823552E-01
          2   -1    0    0  501    0  0.00000000000E+00  0.00000000000E+00  0.25394053819E+04  0.25394053819E+04  0.25500000000E-02 0. -1.
         -2   -1    0    0    0  501 -0.00000000000E+00 -0.00000000000E+00 -0.10346689536E+04  0.10346689536E+04  0.25500000000E-02 0.  1.
    8880023    1    1    2    0    0 -0.13345641877E+03 -0.14838934961E+04  0.31000091667E+03  0.16582102696E+04  0.65864270000E+03 0.  0.
    8880022    1    1    2    0    0  0.13345641877E+03  0.14838934961E+04  0.11947355116E+04  0.19158640659E+04  0.15294330000E+03 0.  0.
<mgrwt>
<rscale>  0 0.15951186E+04</rscale>
<asrwt>0</asrwt>
<pdfrwt beam="1">  1        2 0.39067775E+00 0.16289754E+04</pdfrwt>
<pdfrwt beam="2">  1       -2 0.15917984E+00 0.16289754E+04</pdfrwt>
<totfact> 0.78596295E-01</totfact>
</mgrwt>
</event>
<event>
 4    5  0.7289609E-008  0.6678885E+03  0.7818608E-02  0.1017224E+00
          2   -1    0    0  501    0  0.00000000000E+00  0.00000000000E+00  0.21334239948E+04  0.21334239948E+04  0.25500000000E-02 0. -1.
         -2   -1    0    0    0  501 -0.00000000000E+00 -0.00000000000E+00 -0.24433727949E+03  0.24433727950E+03  0.25500000000E-02 0.  1.
    8880023    1    1    2    0    0 -0.53017716985E+02 -0.97231309298E+02  0.22763745904E+03  0.70561591879E+03  0.65864270000E+03 0.  1.
    8880022    1    1    2    0    0  0.53017716985E+02  0.97231309298E+02  0.16614492562E+04  0.16721453555E+04  0.15294330000E+03 0.  0.
<mgrwt>
<rscale>  0 0.48701825E+03</rscale>
<asrwt>0</asrwt>
<pdfrwt beam="1">  1        2 0.32821907E+00 0.66788847E+03</pdfrwt>
<pdfrwt beam="2">  1       -2 0.37590351E-01 0.66788847E+03</pdfrwt>
<totfact> 0.39285167E+01</totfact>
</mgrwt>
</event>
<event>
 4    5  0.7289609E-008  0.2047337E+04  0.7818608E-02  0.8596803E-01
         -2   -1    0    0    0  501 -0.00000000000E+00  0.00000000000E+00  0.11650629468E+04  0.11650629468E+04  0.25500000000E-02 0.  1.
          2   -1    0    0  501    0  0.00000000000E+00 -0.00000000000E+00 -0.38167055199E+04  0.38167055199E+04  0.25500000000E-02 0. -1.
    8880023    1    1    2    0    0  0.17497446707E+04  0.83436916095E+03 -0.21599024650E+04  0.29760321191E+04  0.65864270000E+03 0.  0.
    8880022    1    1    2    0    0 -0.17497446707E+04 -0.83436916095E+03 -0.49174010807E+03  0.20057363477E+04  0.15294330000E+03 0.  0.
<mgrwt>
<rscale>  0 0.20211347E+04</rscale>
<asrwt>0</asrwt>
<pdfrwt beam="1">  1        2 0.58718546E+00 0.20473369E+04</pdfrwt>
<pdfrwt beam="2">  1       -2 0.17924045E+00 0.20473369E+04</pdfrwt>
<totfact> 0.78273585E-02</totfact>
</mgrwt>
</event>
<event>
 4    5  0.7289609E-008  0.8138828E+03  0.7818608E-02  0.9681545E-01
         -2   -1    0    0    0  501 -0.00000000000E+00  0.00000000000E+00  0.43913063016E+03  0.43913063017E+03  0.25500000000E-02 0.  1.
          2   -1    0    0  501    0  0.00000000000E+00 -0.00000000000E+00 -0.14548117914E+04  0.14548117914E+04  0.25500000000E-02 0. -1.
    8880023    1    1    2    0    0 -0.21226704563E+03  0.42841293770E+03 -0.62030804400E+02  0.81624320567E+03  0.65864270000E+03 0.  1.
    8880022    1    1    2    0    0  0.21226704563E+03 -0.42841293770E+03 -0.95365035685E+03  0.10776992159E+04  0.15294330000E+03 0.  0.
<mgrwt>
<rscale>  0 0.72126286E+03</rscale>
<asrwt>0</asrwt>
<pdfrwt beam="1">  1        2 0.22381720E+00 0.81388276E+03</pdfrwt>
<pdfrwt beam="2">  1       -2 0.67558559E-01 0.81388276E+03</pdfrwt>
<totfact> 0.27463042E+01</totfact>
</mgrwt>
</event>
<event>
 4    5  0.7289609E-008  0.6947756E+03  0.7818608E-02  0.1001961E+00
          2   -1    0    0  501    0  0.00000000000E+00  0.00000000000E+00  0.15553058495E+04  0.15553058495E+04  0.25500000000E-02 0. -1.
         -2   -1    0    0    0  501 -0.00000000000E+00 -0.00000000000E+00 -0.91986029972E+03  0.91986029972E+03  0.25500000000E-02 0.  1.
    8880023    1    1    2    0    0  0.19737942244E+03  0.99720790458E+02 -0.77412304812E+03  0.10401824707E+04  0.65864270000E+03 0.  0.
    8880022    1    1    2    0    0 -0.19737942244E+03 -0.99720790458E+02  0.14095685979E+04  0.14349836785E+04  0.15294330000E+03 0.  0.
<mgrwt>
<rscale>  0 0.54798867E+03</rscale>
<asrwt>0</asrwt>
<pdfrwt beam="1">  1        2 0.23927782E+00 0.69477556E+03</pdfrwt>
<pdfrwt beam="2">  1       -2 0.14151697E+00 0.69477556E+03</pdfrwt>
<totfact> 0.42760668E+00</totfact>
</mgrwt>
</event>
<event>
 4    5  0.7289609E-008  0.6628392E+03  0.7818608E-02  0.1021419E+00
          2   -1    0    0  501    0  0.00000000000E+00  0.00000000000E+00  0.87338192275E+03  0.87338192275E+03  0.25500000000E-02 0. -1.
         -2   -1    0    0    0  501 -0.00000000000E+00 -0.00000000000E+00 -0.20491892786E+03  0.20491892787E+03  0.25500000000E-02 0.  1.
    8880023    1    1    2    0    0  0.64068863904E+02  0.37956873688E+02  0.44886037053E+03  0.80051944516E+03  0.65864270000E+03 0.  0.
    8880022    1    1    2    0    0 -0.64068863904E+02 -0.37956873688E+02  0.21960262436E+03  0.27778140547E+03  0.15294330000E+03 0.  1.
<mgrwt>
<rscale>  0 0.47177853E+03</rscale>
<asrwt>0</asrwt>
<pdfrwt beam="1">  1        2 0.13436645E+00 0.66283916E+03</pdfrwt>
<pdfrwt beam="2">  1       -2 0.31525989E-01 0.66283916E+03</pdfrwt>
<totfact> 0.28904871E+02</totfact>
</mgrwt>
</event>
<event>
 4    5  0.7289609E-008  0.9020187E+03  0.7818608E-02  0.9522799E-01
          2   -1    0    0  501    0  0.00000000000E+00  0.00000000000E+00  0.35188167007E+04  0.35188167007E+04  0.25500000000E-02 0. -1.
         -2   -1    0    0    0  501 -0.00000000000E+00 -0.00000000000E+00 -0.64204239683E+03  0.64204239684E+03  0.25500000000E-02 0.  1.
    8880023    1    1    2    0    0 -0.60878430181E+03 -0.95964781472E+02 -0.27715772638E+03  0.94363879582E+03  0.65864270000E+03 0.  1.
    8880022    1    1    2    0    0  0.60878430181E+03  0.95964781472E+02  0.31539320302E+04  0.32172203017E+04  0.15294330000E+03 0.  0.
<mgrwt>
<rscale>  0 0.82623638E+03</rscale>
<asrwt>0</asrwt>
<pdfrwt beam="1">  1        2 0.54135642E+00 0.90201872E+03</pdfrwt>
<pdfrwt beam="2">  1       -2 0.98775752E-01 0.90201872E+03</pdfrwt>
<totfact> 0.70660198E-01</totfact>
</mgrwt>
</event>
<event>
 4    5  0.7289609E-008  0.7546402E+03  0.7818608E-02  0.9819186E-01
         -2   -1    0    0    0  501 -0.00000000000E+00  0.00000000000E+00  0.58289262647E+03  0.58289262647E+03  0.25500000000E-02 0.  1.
          2   -1    0    0  501    0  0.00000000000E+00 -0.00000000000E+00 -0.33416400137E+04  0.33416400137E+04  0.25500000000E-02 0. -1.
    8880023    1    1    2    0    0  0.36386364690E+03 -0.57227124617E+02  0.32027218156E+03  0.81979032311E+03  0.65864270000E+03 0.  1.
    8880022    1    1    2    0    0 -0.36386364690E+03  0.57227124617E+02 -0.30790195688E+04  0.31047423170E+04  0.15294330000E+03 0.  0.
<mgrwt>
<rscale>  0 0.64342990E+03</rscale>
<asrwt>0</asrwt>
<pdfrwt beam="1">  1        2 0.51409845E+00 0.75464025E+03</pdfrwt>
<pdfrwt beam="2">  1       -2 0.89675791E-01 0.75464025E+03</pdfrwt>
<totfact> 0.12024215E+00</totfact>
</mgrwt>
</event>
<event>
 4    5  0.7289609E-008  0.9276591E+03  0.7818608E-02  0.9483014E-01
          2   -1    0    0  501    0  0.00000000000E+00  0.00000000000E+00  0.40215720910E+04  0.40215720910E+04  0.25500000000E-02 0. -1.
         -2   -1    0    0    0  501 -0.00000000000E+00 -0.00000000000E+00 -0.38687384807E+03  0.38687384808E+03  0.25500000000E-02 0.  1.
    8880023    1    1    2    0    0 -0.51600864997E+03  0.40059479145E+03  0.25398261547E+03  0.96179960959E+03  0.65864270000E+03 0.  0.
    8880022    1    1    2    0    0  0.51600864997E+03 -0.40059479145E+03  0.33807156274E+04  0.34466463295E+04  0.15294330000E+03 0.  0.
<mgrwt>
<rscale>  0 0.85547805E+03</rscale>
<asrwt>0</asrwt>
<pdfrwt beam="1">  1        2 0.61870343E+00 0.92765905E+03</pdfrwt>
<pdfrwt beam="2">  1       -2 0.59519051E-01 0.92765905E+03</pdfrwt>
<totfact> 0.92634118E-01</totfact>
</mgrwt>
</event>
<event>
 4    5  0.7289609E-008  0.7003553E+03  0.7818608E-02  0.9995731E-01
         -2   -1    0    0    0  501 -0.00000000000E+00  0.00000000000E+00  0.10773734145E+03  0.10773734148E+03  0.25500000000E-02 0.  1.
          2   -1    0    0  501    0  0.00000000000E+00 -0.00000000000E+00 -0.38637208492E+04  0.38637208492E+04  0.25500000000E-02 0. -1.
    8880023    1    1    2    0    0 -0.10000926532E+03  0.21606809015E+03 -0.11242277788E+04  0.13245322109E+04  0.65864270000E+03 0.  1.
    8880022    1    1    2    0    0  0.10000926532E+03 -0.21606809015E+03 -0.26317557290E+04  0.26469259798E+04  0.15294330000E+03 0.  0.
<mgrwt>
<rscale>  0 0.55837835E+03</rscale>
<asrwt>0</asrwt>
<pdfrwt beam="1">  1        2 0.59441849E+00 0.70035525E+03</pdfrwt>
<pdfrwt beam="2">  1       -2 0.16574979E-01 0.70035525E+03</pdfrwt>
<totfact> 0.14327145E+01</totfact>
</mgrwt>
</event>
<event>
 4    5  0.7289609E-008  0.9940360E+03  0.7818608E-02  0.9389402E-01
          2   -1    0    0  501    0  0.00000000000E+00  0.00000000000E+00  0.24178640878E+04  0.24178640878E+04  0.25500000000E-02 0. -1.
         -2   -1    0    0    0  501 -0.00000000000E+00 -0.00000000000E+00 -0.10464379419E+04  0.10464379419E+04  0.25500000000E-02 0.  1.
    8880023    1    1    2    0    0  0.66572834883E+03 -0.33332122780E+03 -0.72762092529E+03  0.12318846101E+04  0.65864270000E+03 0.  1.
    8880022    1    1    2    0    0 -0.66572834883E+03  0.33332122780E+03  0.20990470712E+04  0.22324174196E+04  0.15294330000E+03 0.  0.
<mgrwt>
<rscale>  0 0.92952982E+03</rscale>
<asrwt>0</asrwt>
<pdfrwt beam="1">  1        2 0.37197908E+00 0.99403596E+03</pdfrwt>
<pdfrwt beam="2">  1       -2 0.16099046E+00 0.99403596E+03</pdfrwt>
<totfact> 0.96657901E-01</totfact>
</mgrwt>
</event>
<event>
 4    5  0.7289609E-008  0.8043549E+03  0.7818608E-02  0.9701458E-01
          2   -1    0    0  501    0  0.00000000000E+00  0.00000000000E+00  0.19383933792E+04  0.19383933792E+04  0.25500000000E-02 0. -1.
         -2   -1    0    0    0  501 -0.00000000000E+00 -0.00000000000E+00 -0.53034495352E+03  0.53034495353E+03  0.25500000000E-02 0.  1.
    8880023    1    1    2    0    0  0.39630449339E+02  0.46000649570E+03 -0.16595758414E+03  0.82129694666E+03  0.65864270000E+03 0.  1.
    8880022    1    1    2    0    0 -0.39630449339E+02 -0.46000649570E+03  0.15740060098E+04  0.16474413860E+04  0.15294330000E+03 0.  0.
<mgrwt>
<rscale>  0 0.70930058E+03</rscale>
<asrwt>0</asrwt>
<pdfrwt beam="1">  1        2 0.29821436E+00 0.80435487E+03</pdfrwt>
<pdfrwt beam="2">  1       -2 0.81591532E-01 0.80435487E+03</pdfrwt>
<totfact> 0.98062566E+00</totfact>
</mgrwt>
</event>
<event>
 4    5  0.7289609E-008  0.6615591E+03  0.7818608E-02  0.1022613E+00
          2   -1    0    0  501    0  0.00000000000E+00  0.00000000000E+00  0.30142490252E+04  0.30142490252E+04  0.25500000000E-02 0. -1.
         -2   -1    0    0    0  501 -0.00000000000E+00 -0.00000000000E+00 -0.44085133491E+03  0.44085133492E+03  0.25500000000E-02 0.  1.
    8880023    1    1    2    0    0 -0.43761109517E+02 -0.43991672494E+02 -0.18880275642E+03  0.68797310198E+03  0.65864270000E+03 0.  1.
    8880022    1    1    2    0    0  0.43761109517E+02  0.43991672494E+02  0.27622004467E+04  0.27671272582E+04  0.15294330000E+03 0.  0.
<mgrwt>
<rscale>  0 0.46755348E+03</rscale>
<asrwt>0</asrwt>
<pdfrwt beam="1">  1        2 0.46373061E+00 0.66155915E+03</pdfrwt>
<pdfrwt beam="2">  1       -2 0.67823284E-01 0.66155915E+03</pdfrwt>
<totfact> 0.36943855E+00</totfact>
</mgrwt>
</event>
<event>
 4    5  0.7289609E-008  0.1467237E+04  0.7818608E-02  0.8933124E-01
          2   -1    0    0  501    0  0.00000000000E+00  0.00000000000E+00  0.13102847168E+04  0.13102847168E+04  0.25500000000E-02 0. -1.
         -2   -1    0    0    0  501 -0.00000000000E+00 -0.00000000000E+00 -0.22440643121E+04  0.22440643121E+04  0.25500000000E-02 0.  1.
    8880023    1    1    2    0    0 -0.13032684882E+04 -0.14305587796E+03 -0.15177038895E+04  0.21109734814E+04  0.65864270000E+03 0.  0.
    8880022    1    1    2    0    0  0.13032684882E+04  0.14305587796E+03  0.58392429418E+03  0.14433755475E+04  0.15294330000E+03 0.  0.
<mgrwt>
<rscale>  0 0.14289518E+04</rscale>
<asrwt>0</asrwt>
<pdfrwt beam="1">  1        2 0.20158226E+00 0.14672368E+04</pdfrwt>
<pdfrwt beam="2">  1       -2 0.34524066E+00 0.14672368E+04</pdfrwt>
<totfact> 0.25758205E-01</totfact>
</mgrwt>
</event>
<event>
 4    5  0.7289609E-008  0.7440725E+03  0.7818608E-02  0.9848239E-01
         -2   -1    0    0    0  501 -0.00000000000E+00  0.00000000000E+00  0.13366642584E+04  0.13366642584E+04  0.25500000000E-02 0.  1.
          2   -1    0    0  501    0  0.00000000000E+00 -0.00000000000E+00 -0.31915945873E+03  0.31915945874E+03  0.25500000000E-02 0. -1.
    8880023    1    1    2    0    0 -0.33500326689E+03  0.87215481839E+02  0.10376275323E+04  0.12768378249E+04  0.65864270000E+03 0.  1.
    8880022    1    1    2    0    0  0.33500326689E+03 -0.87215481839E+02 -0.20122732646E+02  0.37898589220E+03  0.15294330000E+03 0.  0.
<mgrwt>
<rscale>  0 0.62836785E+03</rscale>
<asrwt>0</asrwt>
<pdfrwt beam="1">  1        2 0.49101456E-01 0.74407253E+03</pdfrwt>
<pdfrwt beam="2">  1       -2 0.20564065E+00 0.74407253E+03</pdfrwt>
<totfact> 0.12759177E+01</totfact>
</mgrwt>
</event>
<event>
 4    5  0.7289609E-008  0.1099358E+04  0.7818608E-02  0.9261771E-01
         -2   -1    0    0    0  501 -0.00000000000E+00  0.00000000000E+00  0.47836228375E+03  0.47836228376E+03  0.25500000000E-02 0.  1.
          2   -1    0    0  501    0  0.00000000000E+00 -0.00000000000E+00 -0.27173131583E+04  0.27173131583E+04  0.25500000000E-02 0. -1.
    8880023    1    1    2    0    0  0.46531354144E+03 -0.74716906199E+03 -0.43438637476E+03  0.11820659998E+04  0.65864270000E+03 0.  1.
    8880022    1    1    2    0    0 -0.46531354144E+03  0.74716906199E+03 -0.18045644998E+04  0.20136094423E+04  0.15294330000E+03 0.  0.
<mgrwt>
<rscale>  0 0.10437977E+04</rscale>
<asrwt>0</asrwt>
<pdfrwt beam="1">  1        2 0.41804817E+00 0.10993582E+04</pdfrwt>
<pdfrwt beam="2">  1       -2 0.73594199E-01 0.10993582E+04</pdfrwt>
<totfact> 0.43266867E+00</totfact>
</mgrwt>
</event>
<event>
 4    5  0.7289609E-008  0.1341470E+04  0.7818608E-02  0.9030551E-01
          2   -1    0    0  501    0  0.00000000000E+00  0.00000000000E+00  0.18505222630E+04  0.18505222630E+04  0.25500000000E-02 0. -1.
         -2   -1    0    0    0  501 -0.00000000000E+00 -0.00000000000E+00 -0.87579401220E+03  0.87579401221E+03  0.25500000000E-02 0.  1.
    8880023    1    1    2    0    0  0.11204382566E+04  0.33218822409E+03  0.32417421366E+03  0.13800833417E+04  0.65864270000E+03 0.  0.
    8880022    1    1    2    0    0 -0.11204382566E+04 -0.33218822409E+03  0.65055403714E+03  0.13462329335E+04  0.15294330000E+03 0.  0.
<mgrwt>
<rscale>  0 0.12987580E+04</rscale>
<asrwt>0</asrwt>
<pdfrwt beam="1">  1        2 0.28469573E+00 0.13414698E+04</pdfrwt>
<pdfrwt beam="2">  1       -2 0.13473754E+00 0.13414698E+04</pdfrwt>
<totfact> 0.30808376E+00</totfact>
</mgrwt>
</event>
<event>
 4    5  0.7289609E-008  0.7574321E+03  0.7818608E-02  0.9811802E-01
         -2   -1    0    0    0  501 -0.00000000000E+00  0.00000000000E+00  0.33547889922E+03  0.33547889923E+03  0.25500000000E-02 0.  1.
          2   -1    0    0  501    0  0.00000000000E+00 -0.00000000000E+00 -0.10818987670E+04  0.10818987670E+04  0.25500000000E-02 0. -1.
    8880023    1    1    2    0    0 -0.37330506858E+03  0.23161155240E+02 -0.29851693861E+03  0.81413492876E+03  0.65864270000E+03 0.  1.
    8880022    1    1    2    0    0  0.37330506858E+03 -0.23161155240E+02 -0.44790292915E+03  0.60324273745E+03  0.15294330000E+03 0. -1.
<mgrwt>
<rscale>  0 0.64733035E+03</rscale>
<asrwt>0</asrwt>
<pdfrwt beam="1">  1        2 0.16644596E+00 0.75743206E+03</pdfrwt>
<pdfrwt beam="2">  1       -2 0.51612139E-01 0.75743206E+03</pdfrwt>
<totfact> 0.80416940E+01</totfact>
</mgrwt>
</event>
<event>
 4    5  0.7289609E-008  0.1313569E+04  0.7818608E-02  0.9053930E-01
         -2   -1    0    0    0  501 -0.00000000000E+00  0.00000000000E+00  0.60202610909E+03  0.60202610909E+03  0.25500000000E-02 0.  1.
          2   -1    0    0  501    0  0.00000000000E+00 -0.00000000000E+00 -0.42700751696E+04  0.42700751696E+04  0.25500000000E-02 0. -1.
    8880023    1    1    2    0    0 -0.22228415515E+03  0.11145595313E+04 -0.34698418313E+03  0.13586248283E+04  0.65864270000E+03 0.  0.
    8880022    1    1    2    0    0  0.22228415515E+03 -0.11145595313E+04 -0.33210648774E+04  0.35134764504E+04  0.15294330000E+03 0.  0.
<mgrwt>
<rscale>  0 0.12697179E+04</rscale>
<asrwt>0</asrwt>
<pdfrwt beam="1">  1        2 0.65693462E+00 0.13135690E+04</pdfrwt>
<pdfrwt beam="2">  1       -2 0.92619404E-01 0.13135690E+04</pdfrwt>
<totfact> 0.20030286E-01</totfact>
</mgrwt>
</event>
<event>
 4    5  0.7289609E-008  0.1502760E+04  0.7818608E-02  0.8907689E-01
         -2   -1    0    0    0  501 -0.00000000000E+00  0.00000000000E+00  0.10882184053E+04  0.10882184053E+04  0.25500000000E-02 0.  1.
          2   -1    0    0  501    0  0.00000000000E+00 -0.00000000000E+00 -0.19127921224E+04  0.19127921224E+04  0.25500000000E-02 0. -1.
    8880023    1    1    2    0    0  0.76024978237E+02 -0.13485910754E+04 -0.24221138712E+03  0.15221544758E+04  0.65864270000E+03 0.  1.
    8880022    1    1    2    0    0 -0.76024978237E+02  0.13485910754E+04 -0.58236233003E+03  0.14788560519E+04  0.15294330000E+03 0.  0.
<mgrwt>
<rscale>  0 0.14655517E+04</rscale>
<asrwt>0</asrwt>
<pdfrwt beam="1">  1        2 0.29427571E+00 0.15027601E+04</pdfrwt>
<pdfrwt beam="2">  1       -2 0.16741822E+00 0.15027601E+04</pdfrwt>
<totfact> 0.15656538E+00</totfact>
</mgrwt>
</event>
<event>
 4    5  0.7289609E-008  0.1279632E+04  0.7818608E-02  0.9083351E-01
         -2   -1    0    0    0  501 -0.00000000000E+00  0.00000000000E+00  0.16200468312E+04  0.16200468312E+04  0.25500000000E-02 0.  1.
          2   -1    0    0  501    0  0.00000000000E+00 -0.00000000000E+00 -0.14139556306E+04  0.14139556306E+04  0.25500000000E-02 0. -1.
    8880023    1    1    2    0    0 -0.10797275924E+04 -0.19451681595E+03  0.10388010746E+04  0.16482009418E+04  0.65864270000E+03 0.  1.
    8880022    1    1    2    0    0  0.10797275924E+04  0.19451681595E+03 -0.83270987401E+03  0.13858015200E+04  0.15294330000E+03 0.  0.
<mgrwt>
<rscale>  0 0.12343014E+04</rscale>
<asrwt>0</asrwt>
<pdfrwt beam="1">  1        2 0.21753164E+00 0.12796322E+04</pdfrwt>
<pdfrwt beam="2">  1       -2 0.24923797E+00 0.12796322E+04</pdfrwt>
<totfact> 0.88858137E-01</totfact>
</mgrwt>
</event>
<event>
 4    5  0.7289609E-008  0.9005965E+03  0.7818608E-02  0.9525075E-01
          2   -1    0    0  501    0  0.00000000000E+00  0.00000000000E+00  0.32665095742E+04  0.32665095742E+04  0.25500000000E-02 0. -1.
         -2   -1    0    0    0  501 -0.00000000000E+00 -0.00000000000E+00 -0.98740298726E+03  0.98740298727E+03  0.25500000000E-02 0.  1.
    8880023    1    1    2    0    0  0.61373828916E+03 -0.24273466149E+02 -0.74219584950E+03  0.11670170410E+04  0.65864270000E+03 0.  1.
    8880022    1    1    2    0    0 -0.61373828916E+03  0.24273466149E+02  0.30213024364E+04  0.30868955205E+04  0.15294330000E+03 0.  0.
<mgrwt>
<rscale>  0 0.82460145E+03</rscale>
<asrwt>0</asrwt>
<pdfrwt beam="1">  1        2 0.50253994E+00 0.90059652E+03</pdfrwt>
<pdfrwt beam="2">  1       -2 0.15190815E+00 0.90059652E+03</pdfrwt>
<totfact> 0.35461358E-01</totfact>
</mgrwt>
</event>
<event>
 4    5  0.7988488E-008  0.9582449E+03  0.7818608E-02  0.9438349E-01
         -2   -1    0    0    0  501 -0.00000000000E+00  0.00000000000E+00  0.16434976111E+04  0.16434976111E+04  0.25500000000E-02 0.  1.
          2   -1    0    0  501    0  0.00000000000E+00 -0.00000000000E+00 -0.22579940169E+04  0.22579940169E+04  0.25500000000E-02 0. -1.
    8880023    1    1    2    0    0 -0.52110575650E+02 -0.69405157137E+03  0.14384392608E+04  0.17283925506E+04  0.65864270000E+03 0.  1.
    8880022    1    1    2    0    0  0.52110575650E+02  0.69405157137E+03 -0.20529356666E+04  0.21730990774E+04  0.15294330000E+03 0.  0.
<mgrwt>
<rscale>  0 0.88985768E+03</rscale>
<asrwt>0</asrwt>
<pdfrwt beam="1">  1        2 0.34738370E+00 0.95824491E+03</pdfrwt>
<pdfrwt beam="2">  1       -2 0.25284579E+00 0.95824491E+03</pdfrwt>
<totfact> 0.30011965E-01</totfact>
</mgrwt>
</event>
<event>
 4    5  0.7289609E-008  0.6935777E+03  0.7818608E-02  0.1002496E+00
          2   -1    0    0  501    0  0.00000000000E+00  0.00000000000E+00  0.12014430885E+04  0.12014430885E+04  0.25500000000E-02 0. -1.
         -2   -1    0    0    0  501 -0.00000000000E+00 -0.00000000000E+00 -0.22389329852E+03  0.22389329853E+03  0.25500000000E-02 0.  1.
    8880023    1    1    2    0    0 -0.13206084532E+03  0.17262615096E+03  0.42829005735E+03  0.81515791989E+03  0.65864270000E+03 0.  1.
    8880022    1    1    2    0    0  0.13206084532E+03 -0.17262615096E+03  0.54925973264E+03  0.61017846715E+03  0.15294330000E+03 0. -1.
<mgrwt>
<rscale>  0 0.54569021E+03</rscale>
<asrwt>0</asrwt>
<pdfrwt beam="1">  1        2 0.18483740E+00 0.69357773E+03</pdfrwt>
<pdfrwt beam="2">  1       -2 0.34445123E-01 0.69357773E+03</pdfrwt>
<totfact> 0.15186672E+02</totfact>
</mgrwt>
</event>
<event>
 4    5  0.7289609E-008  0.8229302E+03  0.7818608E-02  0.9663248E-01
          2   -1    0    0  501    0  0.00000000000E+00  0.00000000000E+00  0.18379506778E+04  0.18379506778E+04  0.25500000000E-02 0. -1.
         -2   -1    0    0    0  501 -0.00000000000E+00 -0.00000000000E+00 -0.64163539629E+03  0.64163539629E+03  0.25500000000E-02 0.  1.
    8880023    1    1    2    0    0  0.92733154527E+02 -0.48456622528E+03 -0.31598456609E+03  0.88151024776E+03  0.65864270000E+03 0.  1.
    8880022    1    1    2    0    0 -0.92733154527E+02  0.48456622528E+03  0.15122998476E+04  0.15980758263E+04  0.15294330000E+03 0.  0.
<mgrwt>
<rscale>  0 0.73247795E+03</rscale>
<asrwt>0</asrwt>
<pdfrwt beam="1">  1        2 0.28276164E+00 0.82293017E+03</pdfrwt>
<pdfrwt beam="2">  1       -2 0.98713139E-01 0.82293017E+03</pdfrwt>
<totfact> 0.71483218E+00</totfact>
</mgrwt>
</event>
<event>
 4    5  0.7289609E-008  0.7811719E+03  0.7818608E-02  0.9753091E-01
          2   -1    0    0  501    0  0.00000000000E+00  0.00000000000E+00  0.26669017117E+04  0.26669017117E+04  0.25500000000E-02 0. -1.
         -2   -1    0    0    0  501 -0.00000000000E+00 -0.00000000000E+00 -0.40119704655E+03  0.40119704656E+03  0.25500000000E-02 0.  1.
    8880023    1    1    2    0    0  0.13489440155E+03  0.39777241030E+03  0.23241203309E+02  0.78151759402E+03  0.65864270000E+03 0.  0.
    8880022    1    1    2    0    0 -0.13489440155E+03 -0.39777241030E+03  0.22424634618E+04  0.22865811642E+04  0.15294330000E+03 0.  0.
<mgrwt>
<rscale>  0 0.67941857E+03</rscale>
<asrwt>0</asrwt>
<pdfrwt beam="1">  1        2 0.41029258E+00 0.78117194E+03</pdfrwt>
<pdfrwt beam="2">  1       -2 0.61722621E-01 0.78117194E+03</pdfrwt>
<totfact> 0.71064151E+00</totfact>
</mgrwt>
</event>
<event>
 4    5  0.7289609E-008  0.8023079E+03  0.7818608E-02  0.9705828E-01
         -2   -1    0    0    0  501 -0.00000000000E+00  0.00000000000E+00  0.36265709348E+03  0.36265709349E+03  0.25500000000E-02 0.  1.
          2   -1    0    0  501    0  0.00000000000E+00 -0.00000000000E+00 -0.28495573659E+04  0.28495573659E+04  0.25500000000E-02 0. -1.
    8880023    1    1    2    0    0 -0.35196397782E+03  0.29327322048E+03 -0.13789950861E+03  0.81407266523E+03  0.65864270000E+03 0.  1.
    8880022    1    1    2    0    0  0.35196397782E+03 -0.29327322048E+03 -0.23490007638E+04  0.23981417942E+04  0.15294330000E+03 0.  0.
<mgrwt>
<rscale>  0 0.70670861E+03</rscale>
<asrwt>0</asrwt>
<pdfrwt beam="1">  1        2 0.43839343E+00 0.80230794E+03</pdfrwt>
<pdfrwt beam="2">  1       -2 0.55793401E-01 0.80230794E+03</pdfrwt>
<totfact> 0.68378930E+00</totfact>
</mgrwt>
</event>
<event>
 4    5  0.7289609E-008  0.7223029E+03  0.7818608E-02  0.9914869E-01
         -2   -1    0    0    0  501 -0.00000000000E+00  0.00000000000E+00  0.24051252003E+03  0.24051252005E+03  0.25500000000E-02 0.  1.
          2   -1    0    0  501    0  0.00000000000E+00 -0.00000000000E+00 -0.17123164204E+04  0.17123164204E+04  0.25500000000E-02 0. -1.
    8880023    1    1    2    0    0 -0.29632385511E+03 -0.10172514723E+02 -0.39024206842E+03  0.82098135508E+03  0.65864270000E+03 0.  1.
    8880022    1    1    2    0    0  0.29632385511E+03  0.10172514723E+02 -0.10815618320E+04  0.11318475854E+04  0.15294330000E+03 0.  0.
<mgrwt>
<rscale>  0 0.59546038E+03</rscale>
<asrwt>0</asrwt>
<pdfrwt beam="1">  1        2 0.26343329E+00 0.72230292E+03</pdfrwt>
<pdfrwt beam="2">  1       -2 0.37001927E-01 0.72230292E+03</pdfrwt>
<totfact> 0.68193821E+01</totfact>
</mgrwt>
</event>
<event>
 4    5  0.7289609E-008  0.2013593E+04  0.7818608E-02  0.8612765E-01
         -2   -1    0    0    0  501 -0.00000000000E+00  0.00000000000E+00  0.24503967155E+04  0.24503967155E+04  0.25500000000E-02 0.  1.
          2   -1    0    0  501    0  0.00000000000E+00 -0.00000000000E+00 -0.20624898592E+04  0.20624898592E+04  0.25500000000E-02 0. -1.
    8880023    1    1    2    0    0  0.18969070692E+04 -0.14996538847E+03  0.13004499097E+04  0.23970244515E+04  0.65864270000E+03 0.  1.
    8880022    1    1    2    0    0 -0.18969070692E+04  0.14996538847E+03 -0.91254305335E+03  0.21158621232E+04  0.15294330000E+03 0.  0.
<mgrwt>
<rscale>  0 0.19869095E+04</rscale>
<asrwt>0</asrwt>
<pdfrwt beam="1">  1        2 0.31730613E+00 0.20135929E+04</pdfrwt>
<pdfrwt beam="2">  1       -2 0.37698411E+00 0.20135929E+04</pdfrwt>
<totfact> 0.57172587E-02</totfact>
</mgrwt>
</event>
<event>
 4    5  0.7289609E-008  0.6928470E+03  0.7818608E-02  0.1002828E+00
         -2   -1    0    0    0  501 -0.00000000000E+00  0.00000000000E+00  0.10493595615E+04  0.10493595615E+04  0.25500000000E-02 0.  1.
          2   -1    0    0  501    0  0.00000000000E+00 -0.00000000000E+00 -0.51432762169E+03  0.51432762170E+03  0.25500000000E-02 0. -1.
    8880023    1    1    2    0    0 -0.21217103093E+03 -0.34788439811E+02  0.88591415419E+03  0.11246692299E+04  0.65864270000E+03 0.  1.
    8880022    1    1    2    0    0  0.21217103093E+03  0.34788439811E+02 -0.35088221438E+03  0.43901795327E+03  0.15294330000E+03 0.  0.
<mgrwt>
<rscale>  0 0.54427520E+03</rscale>
<asrwt>0</asrwt>
<pdfrwt beam="1">  1        2 0.79127326E-01 0.69284702E+03</pdfrwt>
<pdfrwt beam="2">  1       -2 0.16143993E+00 0.69284702E+03</pdfrwt>
<totfact> 0.14944529E+01</totfact>
</mgrwt>
</event>
<event>
 4    5  0.7289609E-008  0.1158834E+04  0.7818608E-02  0.9198216E-01
          2   -1    0    0  501    0  0.00000000000E+00  0.00000000000E+00  0.89520356142E+03  0.89520356143E+03  0.25500000000E-02 0. -1.
         -2   -1    0    0    0  501 -0.00000000000E+00 -0.00000000000E+00 -0.17338323009E+04  0.17338323009E+04  0.25500000000E-02 0.  1.
    8880023    1    1    2    0    0 -0.92347410919E+03  0.23723831807E+03 -0.11318287238E+04  0.16198558319E+04  0.65864270000E+03 0.  1.
    8880022    1    1    2    0    0  0.92347410919E+03 -0.23723831807E+03  0.29319998435E+03  0.10091800304E+04  0.15294330000E+03 0.  0.
<mgrwt>
<rscale>  0 0.11071866E+04</rscale>
<asrwt>0</asrwt>
<pdfrwt beam="1">  1        2 0.13772362E+00 0.11588342E+04</pdfrwt>
<pdfrwt beam="2">  1       -2 0.26674343E+00 0.11588342E+04</pdfrwt>
<totfact> 0.14702248E+00</totfact>
</mgrwt>
</event>
<event>
 4    5  0.7289609E-008  0.1046053E+04  0.7818608E-02  0.9323642E-01
         -2   -1    0    0    0  501 -0.00000000000E+00  0.00000000000E+00  0.17879008568E+04  0.17879008568E+04  0.25500000000E-02 0.  1.
          2   -1    0    0  501    0  0.00000000000E+00 -0.00000000000E+00 -0.13095694504E+04  0.13095694504E+04  0.25500000000E-02 0. -1.
    8880023    1    1    2    0    0  0.61930059005E+03 -0.52619658471E+03  0.14713056058E+04  0.18052607730E+04  0.65864270000E+03 0.  1.
    8880022    1    1    2    0    0 -0.61930059005E+03  0.52619658471E+03 -0.99297419943E+03  0.12922095342E+04  0.15294330000E+03 0.  0.
<mgrwt>
<rscale>  0 0.98635199E+03</rscale>
<asrwt>0</asrwt>
<pdfrwt beam="1">  1        2 0.20147222E+00 0.10460527E+04</pdfrwt>
<pdfrwt beam="2">  1       -2 0.27506167E+00 0.10460527E+04</pdfrwt>
<totfact> 0.73213097E-01</totfact>
</mgrwt>
</event>
<event>
 4    5  0.7289609E-008  0.1586273E+04  0.7818608E-02  0.8851002E-01
         -2   -1    0    0    0  501 -0.00000000000E+00  0.00000000000E+00  0.30224829646E+04  0.30224829646E+04  0.25500000000E-02 0.  1.
          2   -1    0    0  501    0  0.00000000000E+00 -0.00000000000E+00 -0.81801032266E+03  0.81801032267E+03  0.25500000000E-02 0. -1.
    8880023    1    1    2    0    0  0.13901673070E+04 -0.38715079929E+03  0.16449865709E+04  0.22852225072E+04  0.65864270000E+03 0.  1.
    8880022    1    1    2    0    0 -0.13901673070E+04  0.38715079929E+03  0.55948607111E+03  0.15552707801E+04  0.15294330000E+03 0.  0.
<mgrwt>
<rscale>  0 0.15513566E+04</rscale>
<asrwt>0</asrwt>
<pdfrwt beam="1">  1        2 0.12584774E+00 0.15862727E+04</pdfrwt>
<pdfrwt beam="2">  1       -2 0.46499739E+00 0.15862727E+04</pdfrwt>
<totfact> 0.87025929E-02</totfact>
</mgrwt>
</event>
<event>
 4    5  0.7289609E-008  0.1273929E+04  0.7818608E-02  0.9088407E-01
          2   -1    0    0  501    0  0.00000000000E+00  0.00000000000E+00  0.14777197228E+04  0.14777197228E+04  0.25500000000E-02 0. -1.
         -2   -1    0    0    0  501 -0.00000000000E+00 -0.00000000000E+00 -0.14150375822E+04  0.14150375822E+04  0.25500000000E-02 0.  1.
    8880023    1    1    2    0    0  0.99086807636E+03  0.45526498524E+03 -0.79095091350E+03  0.14994996850E+04  0.65864270000E+03 0.  0.
    8880022    1    1    2    0    0 -0.99086807636E+03 -0.45526498524E+03  0.85363305410E+03  0.13932576200E+04  0.15294330000E+03 0.  0.
<mgrwt>
<rscale>  0 0.12283389E+04</rscale>
<asrwt>0</asrwt>
<pdfrwt beam="1">  1        2 0.22734150E+00 0.12739293E+04</pdfrwt>
<pdfrwt beam="2">  1       -2 0.21769809E+00 0.12739293E+04</pdfrwt>
<totfact> 0.12856142E+00</totfact>
</mgrwt>
</event>
<event>
 4    5  0.7289609E-008  0.8609959E+03  0.7818608E-02  0.9591794E-01
         -2   -1    0    0    0  501 -0.00000000000E+00  0.00000000000E+00  0.17630757377E+04  0.17630757377E+04  0.25500000000E-02 0.  1.
          2   -1    0    0  501    0  0.00000000000E+00 -0.00000000000E+00 -0.13107007448E+04  0.13107007448E+04  0.25500000000E-02 0. -1.
    8880023    1    1    2    0    0 -0.51677656265E+03  0.20111128488E+03  0.15848254244E+04  0.18036035032E+04  0.65864270000E+03 0.  1.
    8880022    1    1    2    0    0  0.51677656265E+03 -0.20111128488E+03 -0.11324504315E+04  0.12701729793E+04  0.15294330000E+03 0.  0.
<mgrwt>
<rscale>  0 0.77841673E+03</rscale>
<asrwt>0</asrwt>
<pdfrwt beam="1">  1        2 0.20164627E+00 0.86099592E+03</pdfrwt>
<pdfrwt beam="2">  1       -2 0.27124242E+00 0.86099592E+03</pdfrwt>
<totfact> 0.79355491E-01</totfact>
</mgrwt>
</event>
<event>
 4    5  0.7289609E-008  0.1547029E+04  0.7818608E-02  0.8877121E-01
         -2   -1    0    0    0  501 -0.00000000000E+00  0.00000000000E+00  0.13878735135E+04  0.13878735135E+04  0.25500000000E-02 0.  1.
          2   -1    0    0  501    0  0.00000000000E+00 -0.00000000000E+00 -0.29963891735E+04  0.29963891735E+04  0.25500000000E-02 0. -1.
    8880023    1    1    2    0    0 -0.13331144744E+04  0.42696063779E+03 -0.23340477332E+04  0.28001926032E+04  0.65864270000E+03 0.  0.
    8880022    1    1    2    0    0  0.13331144744E+04 -0.42696063779E+03  0.72553207313E+03  0.15840700838E+04  0.15294330000E+03 0.  0.
<mgrwt>
<rscale>  0 0.15110749E+04</rscale>
<asrwt>0</asrwt>
<pdfrwt beam="1">  1        2 0.46098295E+00 0.15470293E+04</pdfrwt>
<pdfrwt beam="2">  1       -2 0.21351900E+00 0.15470293E+04</pdfrwt>
<totfact> 0.17810853E-01</totfact>
</mgrwt>
</event>
<event>
 4    5  0.7289609E-008  0.6854193E+03  0.7818608E-02  0.1006410E+00
         -2   -1    0    0    0  501 -0.00000000000E+00  0.00000000000E+00  0.47320854310E+03  0.47320854311E+03  0.25500000000E-02 0.  1.
          2   -1    0    0  501    0  0.00000000000E+00 -0.00000000000E+00 -0.65056194454E+03  0.65056194455E+03  0.25500000000E-02 0. -1.
    8880023    1    1    2    0    0  0.47309958267E+02 -0.18371512165E+03  0.16361367885E+03  0.70467660685E+03  0.65864270000E+03 0.  1.
    8880022    1    1    2    0    0 -0.47309958267E+02  0.18371512165E+03 -0.34096708029E+03  0.41909388081E+03  0.15294330000E+03 0.  0.
<mgrwt>
<rscale>  0 0.52926519E+03</rscale>
<asrwt>0</asrwt>
<pdfrwt beam="1">  1        2 0.10008645E+00 0.68541935E+03</pdfrwt>
<pdfrwt beam="2">  1       -2 0.72801314E-01 0.68541935E+03</pdfrwt>
<totfact> 0.77863957E+01</totfact>
</mgrwt>
</event>
<event>
 4    5  0.1706155E-007  0.1418239E+04  0.7818608E-02  0.8969639E-01
         -2   -1    0    0    0  501 -0.00000000000E+00  0.00000000000E+00  0.28359899565E+04  0.28359899565E+04  0.25500000000E-02 0.  1.
          2   -1    0    0  501    0  0.00000000000E+00 -0.00000000000E+00 -0.23727456120E+04  0.23727456120E+04  0.25500000000E-02 0. -1.
    8880023    1    1    2    0    0 -0.12385891477E+04  0.20853657962E+03  0.24630939764E+04  0.28422232011E+04  0.65864270000E+03 0.  1.
    8880022    1    1    2    0    0  0.12385891477E+04 -0.20853657962E+03 -0.19998496319E+04  0.23665123674E+04  0.15294330000E+03 0.  0.
<mgrwt>
<rscale>  0 0.13783525E+04</rscale>
<asrwt>0</asrwt>
<pdfrwt beam="1">  1        2 0.36503779E+00 0.14182386E+04</pdfrwt>
<pdfrwt beam="2">  1       -2 0.43630615E+00 0.14182386E+04</pdfrwt>
<totfact> 0.16755413E-02</totfact>
</mgrwt>
</event>
<event>
 4    5  0.7289609E-008  0.6685286E+03  0.7818608E-02  0.1016740E+00
         -2   -1    0    0    0  501 -0.00000000000E+00  0.00000000000E+00  0.13101394456E+03  0.13101394459E+03  0.25500000000E-02 0.  1.
          2   -1    0    0  501    0  0.00000000000E+00 -0.00000000000E+00 -0.16711685399E+04  0.16711685399E+04  0.25500000000E-02 0. -1.
    8880023    1    1    2    0    0 -0.37275727151E+02  0.10830876097E+03 -0.82459596267E+03  0.10615502699E+04  0.65864270000E+03 0.  1.
    8880022    1    1    2    0    0  0.37275727151E+02 -0.10830876097E+03 -0.71555863267E+03  0.74063221462E+03  0.15294330000E+03 0.  0.
<mgrwt>
<rscale>  0 0.48881477E+03</rscale>
<asrwt>0</asrwt>
<pdfrwt beam="1">  1        2 0.25710284E+00 0.66852859E+03</pdfrwt>
<pdfrwt beam="2">  1       -2 0.20155993E-01 0.66852859E+03</pdfrwt>
<totfact> 0.21935923E+02</totfact>
</mgrwt>
</event>
<event>
 4    5  0.7289609E-008  0.9950292E+03  0.7818608E-02  0.9388090E-01
         -2   -1    0    0    0  501 -0.00000000000E+00  0.00000000000E+00  0.89604154642E+03  0.89604154642E+03  0.25500000000E-02 0.  1.
          2   -1    0    0  501    0  0.00000000000E+00 -0.00000000000E+00 -0.17809247916E+04  0.17809247916E+04  0.25500000000E-02 0. -1.
    8880023    1    1    2    0    0  0.74199725532E+03  0.75583858582E+02  0.48712383457E+03  0.11078685315E+04  0.65864270000E+03 0.  0.
    8880022    1    1    2    0    0 -0.74199725532E+03 -0.75583858582E+02 -0.13720070797E+04  0.15690978065E+04  0.15294330000E+03 0.  0.
<mgrwt>
<rscale>  0 0.93062336E+03</rscale>
<asrwt>0</asrwt>
<pdfrwt beam="1">  1        2 0.27398843E+00 0.99502917E+03</pdfrwt>
<pdfrwt beam="2">  1       -2 0.13785255E+00 0.99502917E+03</pdfrwt>
<totfact> 0.32927963E+00</totfact>
</mgrwt>
</event>
<event>
 4    5  0.7289609E-008  0.1258190E+04  0.7818608E-02  0.9102534E-01
          2   -1    0    0  501    0  0.00000000000E+00  0.00000000000E+00  0.37339002920E+03  0.37339002921E+03  0.25500000000E-02 0. -1.
         -2   -1    0    0    0  501 -0.00000000000E+00 -0.00000000000E+00 -0.41828842353E+04  0.41828842353E+04  0.25500000000E-02 0.  1.
    8880023    1    1    2    0    0  0.76534987555E+03 -0.75064660607E+03 -0.28260373882E+04  0.30934654168E+04  0.65864270000E+03 0.  1.
    8880022    1    1    2    0    0 -0.76534987555E+03  0.75064660607E+03 -0.98345681790E+03  0.14628088477E+04  0.15294330000E+03 0.  0.
<mgrwt>
<rscale>  0 0.12118652E+04</rscale>
<asrwt>0</asrwt>
<pdfrwt beam="1">  1        2 0.57444623E-01 0.12581896E+04</pdfrwt>
<pdfrwt beam="2">  1       -2 0.64352062E+00 0.12581896E+04</pdfrwt>
<totfact> 0.29111591E-02</totfact>
</mgrwt>
</event>
<event>
 4    5  0.7289609E-008  0.1331033E+04  0.7818608E-02  0.9039213E-01
          2   -1    0    0  501    0  0.00000000000E+00  0.00000000000E+00  0.20501238928E+04  0.20501238928E+04  0.25500000000E-02 0. -1.
         -2   -1    0    0    0  501 -0.00000000000E+00 -0.00000000000E+00 -0.10546477976E+04  0.10546477976E+04  0.25500000000E-02 0.  1.
    8880023    1    1    2    0    0 -0.11425373162E+04 -0.18013450580E+03 -0.29681239935E+03  0.13637256930E+04  0.65864270000E+03 0.  0.
    8880022    1    1    2    0    0  0.11425373162E+04  0.18013450580E+03  0.12922884946E+04  0.17410459975E+04  0.15294330000E+03 0.  0.
<mgrwt>
<rscale>  0 0.12879033E+04</rscale>
<asrwt>0</asrwt>
<pdfrwt beam="1">  1        2 0.31540367E+00 0.13310335E+04</pdfrwt>
<pdfrwt beam="2">  1       -2 0.16225351E+00 0.13310335E+04</pdfrwt>
<totfact> 0.14563233E+00</totfact>
</mgrwt>
</event>
<event>
 4    5  0.7289609E-008  0.6726745E+03  0.7818608E-02  0.1013814E+00
         -2   -1    0    0    0  501 -0.00000000000E+00  0.00000000000E+00  0.21787910292E+03  0.21787910293E+03  0.25500000000E-02 0.  1.
          2   -1    0    0  501    0  0.00000000000E+00 -0.00000000000E+00 -0.26375411437E+04  0.26375411437E+04  0.25500000000E-02 0. -1.
    8880023    1    1    2    0    0  0.12714781001E+03  0.50141506021E+02 -0.31849406552E+03  0.74426434300E+03  0.65864270000E+03 0.  1.
    8880022    1    1    2    0    0 -0.12714781001E+03 -0.50141506021E+02 -0.21011679753E+04  0.21111559037E+04  0.15294330000E+03 0.  0.
<mgrwt>
<rscale>  0 0.49986572E+03</rscale>
<asrwt>0</asrwt>
<pdfrwt beam="1">  1        2 0.40577554E+00 0.67267447E+03</pdfrwt>
<pdfrwt beam="2">  1       -2 0.33519864E-01 0.67267447E+03</pdfrwt>
<totfact> 0.25525222E+01</totfact>
</mgrwt>
</event>
<event>
 4    5  0.7289609E-008  0.1619114E+04  0.7818608E-02  0.8829805E-01
         -2   -1    0    0    0  501 -0.00000000000E+00  0.00000000000E+00  0.68289650834E+03  0.68289650835E+03  0.25500000000E-02 0.  1.
          2   -1    0    0  501    0  0.00000000000E+00 -0.00000000000E+00 -0.40150232964E+04  0.40150232964E+04  0.25500000000E-02 0. -1.
    8880023    1    1    2    0    0  0.12382190315E+04 -0.80903197247E+03 -0.91428210065E+03  0.18594195514E+04  0.65864270000E+03 0.  0.
    8880022    1    1    2    0    0 -0.12382190315E+04  0.80903197247E+03 -0.24178446874E+04  0.28385002533E+04  0.15294330000E+03 0.  0.
<mgrwt>
<rscale>  0 0.15850185E+04</rscale>
<asrwt>0</asrwt>
<pdfrwt beam="1">  1        2 0.61769588E+00 0.16191137E+04</pdfrwt>
<pdfrwt beam="2">  1       -2 0.10506100E+00 0.16191137E+04</pdfrwt>
<totfact> 0.23316106E-01</totfact>
</mgrwt>
</event>
<event>
 4    5  0.7289609E-008  0.8296597E+03  0.7818608E-02  0.9649995E-01
          2   -1    0    0  501    0  0.00000000000E+00  0.00000000000E+00  0.15252398937E+04  0.15252398937E+04  0.25500000000E-02 0. -1.
         -2   -1    0    0    0  501 -0.00000000000E+00 -0.00000000000E+00 -0.35173245175E+03  0.35173245176E+03  0.25500000000E-02 0.  1.
    8880023    1    1    2    0    0  0.43083039185E+03 -0.26250743855E+03  0.35284565783E+03  0.90157376090E+03  0.65864270000E+03 0.  0.
    8880022    1    1    2    0    0 -0.43083039185E+03  0.26250743855E+03  0.82066178412E+03  0.97539858457E+03  0.15294330000E+03 0.  0.
<mgrwt>
<rscale>  0 0.74073746E+03</rscale>
<asrwt>0</asrwt>
<pdfrwt beam="1">  1        2 0.23465229E+00 0.82965968E+03</pdfrwt>
<pdfrwt beam="2">  1       -2 0.54112684E-01 0.82965968E+03</pdfrwt>
<totfact> 0.40073802E+01</totfact>
</mgrwt>
</event>
<event>
 4    5  0.7289609E-008  0.1210727E+04  0.7818608E-02  0.9146764E-01
          2   -1    0    0  501    0  0.00000000000E+00  0.00000000000E+00  0.11012324251E+04  0.11012324251E+04  0.25500000000E-02 0. -1.
         -2   -1    0    0    0  501 -0.00000000000E+00 -0.00000000000E+00 -0.13161398214E+04  0.13161398214E+04  0.25500000000E-02 0.  1.
    8880023    1    1    2    0    0  0.62653241198E+03 -0.79969230089E+03 -0.55952567733E+03  0.13337652827E+04  0.65864270000E+03 0.  0.
    8880022    1    1    2    0    0 -0.62653241198E+03  0.79969230089E+03  0.34461828106E+03  0.10836069638E+04  0.15294330000E+03 0.  0.
<mgrwt>
<rscale>  0 0.11620213E+04</rscale>
<asrwt>0</asrwt>
<pdfrwt beam="1">  1        2 0.16942037E+00 0.12107274E+04</pdfrwt>
<pdfrwt beam="2">  1       -2 0.20248305E+00 0.12107274E+04</pdfrwt>
<totfact> 0.27046250E+00</totfact>
</mgrwt>
</event>
<event>
 4    5  0.9179043E-008  0.1213173E+04  0.7818608E-02  0.9144422E-01
          2   -1    0    0  501    0  0.00000000000E+00  0.00000000000E+00  0.21850887490E+04  0.21850887490E+04  0.25500000000E-02 0. -1.
         -2   -1    0    0    0  501 -0.00000000000E+00 -0.00000000000E+00 -0.15600192975E+04  0.15600192975E+04  0.25500000000E-02 0.  1.
    8880023    1    1    2    0    0  0.99156387665E+03  0.23405269109E+03 -0.11635751447E+04  0.16809809360E+04  0.65864270000E+03 0.  0.
    8880022    1    1    2    0    0 -0.99156387665E+03 -0.23405269109E+03  0.17886445962E+04  0.20641271105E+04  0.15294330000E+03 0.  0.
<mgrwt>
<rscale>  0 0.11645968E+04</rscale>
<asrwt>0</asrwt>
<pdfrwt beam="1">  1        2 0.33616750E+00 0.12131734E+04</pdfrwt>
<pdfrwt beam="2">  1       -2 0.24000297E+00 0.12131734E+04</pdfrwt>
<totfact> 0.37899759E-01</totfact>
</mgrwt>
</event>
<event>
 4    5  0.7289609E-008  0.9071814E+03  0.7818608E-02  0.9514600E-01
          2   -1    0    0  501    0  0.00000000000E+00  0.00000000000E+00  0.20546053285E+04  0.20546053285E+04  0.25500000000E-02 0. -1.
         -2   -1    0    0    0  501 -0.00000000000E+00 -0.00000000000E+00 -0.66647193159E+03  0.66647193160E+03  0.25500000000E-02 0.  1.
    8880023    1    1    2    0    0 -0.62217257210E+03 -0.45488346621E+02 -0.26702112088E+03  0.94566293383E+03  0.65864270000E+03 0.  0.
    8880022    1    1    2    0    0  0.62217257210E+03  0.45488346621E+02  0.16551545178E+04  0.17754143263E+04  0.15294330000E+03 0.  0.
<mgrwt>
<rscale>  0 0.83215923E+03</rscale>
<asrwt>0</asrwt>
<pdfrwt beam="1">  1        2 0.31609312E+00 0.90718141E+03</pdfrwt>
<pdfrwt beam="2">  1       -2 0.10253415E+00 0.90718141E+03</pdfrwt>
<totfact> 0.49111466E+00</totfact>
</mgrwt>
</event>
<event>
 4    5  0.7289609E-008  0.1048442E+04  0.7818608E-02  0.9320757E-01
         -2   -1    0    0    0  501 -0.00000000000E+00  0.00000000000E+00  0.99319987807E+03  0.99319987807E+03  0.25500000000E-02 0.  1.
          2   -1    0    0  501    0  0.00000000000E+00 -0.00000000000E+00 -0.18295229538E+04  0.18295229538E+04  0.25500000000E-02 0. -1.
    8880023    1    1    2    0    0 -0.79896245105E+03  0.16455695175E+03  0.56730462368E+03  0.11920841962E+04  0.65864270000E+03 0.  1.
    8880022    1    1    2    0    0  0.79896245105E+03 -0.16455695175E+03 -0.14036276994E+04  0.16306386357E+04  0.15294330000E+03 0.  0.
<mgrwt>
<rscale>  0 0.98894196E+03</rscale>
<asrwt>0</asrwt>
<pdfrwt beam="1">  1        2 0.28146507E+00 0.10484418E+04</pdfrwt>
<pdfrwt beam="2">  1       -2 0.15279998E+00 0.10484418E+04</pdfrwt>
<totfact> 0.23449659E+00</totfact>
</mgrwt>
</event>
<event>
 4    5  0.7289609E-008  0.1083176E+04  0.7818608E-02  0.9280022E-01
          2   -1    0    0  501    0  0.00000000000E+00  0.00000000000E+00  0.24758944702E+04  0.24758944702E+04  0.25500000000E-02 0. -1.
         -2   -1    0    0    0  501 -0.00000000000E+00 -0.00000000000E+00 -0.58116906552E+03  0.58116906553E+03  0.25500000000E-02 0.  1.
    8880023    1    1    2    0    0 -0.85342163411E+03  0.10551000317E+03  0.13377132327E+03  0.10914054332E+04  0.65864270000E+03 0.  0.
    8880022    1    1    2    0    0  0.85342163411E+03 -0.10551000317E+03  0.17609540814E+04  0.19656581025E+04  0.15294330000E+03 0.  0.
<mgrwt>
<rscale>  0 0.10264303E+04</rscale>
<asrwt>0</asrwt>
<pdfrwt beam="1">  1        2 0.38090685E+00 0.10831764E+04</pdfrwt>
<pdfrwt beam="2">  1       -2 0.89410624E-01 0.10831764E+04</pdfrwt>
<totfact> 0.38502044E+00</totfact>
</mgrwt>
</event>
<event>
 4    5  0.7289609E-008  0.1081736E+04  0.7818608E-02  0.9281668E-01
          2   -1    0    0  501    0  0.00000000000E+00  0.00000000000E+00  0.83820588851E+03  0.83820588851E+03  0.25500000000E-02 0. -1.
         -2   -1    0    0    0  501 -0.00000000000E+00 -0.00000000000E+00 -0.16493170057E+04  0.16493170057E+04  0.25500000000E-02 0.  1.
    8880023    1    1    2    0    0  0.41726562350E+03 -0.74982148482E+03 -0.11253786452E+04  0.15609709033E+04  0.65864270000E+03 0.  0.
    8880022    1    1    2    0    0 -0.41726562350E+03  0.74982148482E+03  0.31426752801E+03  0.92655199089E+03  0.15294330000E+03 0.  0.
<mgrwt>
<rscale>  0 0.10248817E+04</rscale>
<asrwt>0</asrwt>
<pdfrwt beam="1">  1        2 0.12895475E+00 0.10817361E+04</pdfrwt>
<pdfrwt beam="2">  1       -2 0.25374108E+00 0.10817361E+04</pdfrwt>
<totfact> 0.19488231E+00</totfact>
</mgrwt>
</event>
<event>
 4    5  0.7289609E-008  0.1276445E+04  0.7818608E-02  0.9086173E-01
         -2   -1    0    0    0  501 -0.00000000000E+00  0.00000000000E+00  0.13748945374E+04  0.13748945374E+04  0.25500000000E-02 0.  1.
          2   -1    0    0  501    0  0.00000000000E+00 -0.00000000000E+00 -0.26798519814E+04  0.26798519814E+04  0.25500000000E-02 0. -1.
    8880023    1    1    2    0    0 -0.27289322789E+03 -0.10587873188E+04  0.91830671014E+03  0.15724499103E+04  0.65864270000E+03 0.  0.
    8880022    1    1    2    0    0  0.27289322789E+03  0.10587873188E+04 -0.22232641542E+04  0.24822966085E+04  0.15294330000E+03 0.  0.
<mgrwt>
<rscale>  0 0.12309694E+04</rscale>
<asrwt>0</asrwt>
<pdfrwt beam="1">  1        2 0.41228492E+00 0.12764449E+04</pdfrwt>
<pdfrwt beam="2">  1       -2 0.21152224E+00 0.12764449E+04</pdfrwt>
<totfact> 0.29560533E-01</totfact>
</mgrwt>
</event>
<event>
 4    5  0.7289609E-008  0.9428260E+03  0.7818608E-02  0.9460512E-01
         -2   -1    0    0    0  501 -0.00000000000E+00  0.00000000000E+00  0.65898251023E+03  0.65898251023E+03  0.25500000000E-02 0.  1.
          2   -1    0    0  501    0  0.00000000000E+00 -0.00000000000E+00 -0.21544355158E+04  0.21544355158E+04  0.25500000000E-02 0. -1.
    8880023    1    1    2    0    0 -0.66582776279E+03  0.10855410001E+03  0.21617764607E+03  0.96729188111E+03  0.65864270000E+03 0.  0.
    8880022    1    1    2    0    0  0.66582776279E+03 -0.10855410001E+03 -0.17116306517E+04  0.18461261450E+04  0.15294330000E+03 0.  0.
<mgrwt>
<rscale>  0 0.87258783E+03</rscale>
<asrwt>0</asrwt>
<pdfrwt beam="1">  1        2 0.33145161E+00 0.94282597E+03</pdfrwt>
<pdfrwt beam="2">  1       -2 0.10138193E+00 0.94282597E+03</pdfrwt>
<totfact> 0.44233247E+00</totfact>
</mgrwt>
</event>
<event>
 4    5  0.7289609E-008  0.7113445E+03  0.7818608E-02  0.9953042E-01
          2   -1    0    0  501    0  0.00000000000E+00  0.00000000000E+00  0.30945643564E+04  0.30945643565E+04  0.25500000000E-02 0. -1.
         -2   -1    0    0    0  501 -0.00000000000E+00 -0.00000000000E+00 -0.10214601692E+03  0.10214601695E+03  0.25500000000E-02 0.  1.
    8880023    1    1    2    0    0 -0.19467837141E+03 -0.18520571880E+03  0.13551391434E+04  0.15304944073E+04  0.65864270000E+03 0.  1.
    8880022    1    1    2    0    0  0.19467837141E+03  0.18520571880E+03  0.16372791962E+04  0.16662159661E+04  0.15294330000E+03 0. -1.
<mgrwt>
<rscale>  0 0.57758108E+03</rscale>
<asrwt>0</asrwt>
<pdfrwt beam="1">  1        2 0.47608680E+00 0.71134452E+03</pdfrwt>
<pdfrwt beam="2">  1       -2 0.15714773E-01 0.71134452E+03</pdfrwt>
<totfact> 0.52299232E+01</totfact>
</mgrwt>
</event>
<event>
 4    5  0.7289609E-008  0.9164138E+03  0.7818608E-02  0.9500180E-01
         -2   -1    0    0    0  501 -0.00000000000E+00  0.00000000000E+00  0.62446638135E+03  0.62446638135E+03  0.25500000000E-02 0.  1.
          2   -1    0    0  501    0  0.00000000000E+00 -0.00000000000E+00 -0.10568970780E+04  0.10568970780E+04  0.25500000000E-02 0. -1.
    8880023    1    1    2    0    0  0.56940460532E+03  0.28597624922E+03 -0.39421196681E+02  0.91726128049E+03  0.65864270000E+03 0.  1.
    8880022    1    1    2    0    0 -0.56940460532E+03 -0.28597624922E+03 -0.39300949997E+03  0.76410217887E+03  0.15294330000E+03 0.  0.
<mgrwt>
<rscale>  0 0.84270567E+03</rscale>
<asrwt>0</asrwt>
<pdfrwt beam="1">  1        2 0.16259955E+00 0.91641379E+03</pdfrwt>
<pdfrwt beam="2">  1       -2 0.96071751E-01 0.91641379E+03</pdfrwt>
<totfact> 0.21064553E+01</totfact>
</mgrwt>
</event>
<event>
 4    5  0.7289609E-008  0.8643877E+03  0.7818608E-02  0.9585806E-01
          2   -1    0    0  501    0  0.00000000000E+00  0.00000000000E+00  0.12096466222E+04  0.12096466222E+04  0.25500000000E-02 0. -1.
         -2   -1    0    0    0  501 -0.00000000000E+00 -0.00000000000E+00 -0.52586124371E+03  0.52586124371E+03  0.25500000000E-02 0.  1.
    8880023    1    1    2    0    0  0.83889197738E+02  0.55346039952E+03  0.35043228193E+02  0.86509770861E+03  0.65864270000E+03 0.  0.
    8880022    1    1    2    0    0 -0.83889197738E+02 -0.55346039952E+03  0.64874215026E+03  0.87041015727E+03  0.15294330000E+03 0.  0.
<mgrwt>
<rscale>  0 0.78242813E+03</rscale>
<asrwt>0</asrwt>
<pdfrwt beam="1">  1        2 0.18609948E+00 0.86438765E+03</pdfrwt>
<pdfrwt beam="2">  1       -2 0.80901730E-01 0.86438765E+03</pdfrwt>
<totfact> 0.25378764E+01</totfact>
</mgrwt>
</event>
<event>
 4    5  0.7289609E-008  0.1268663E+04  0.7818608E-02  0.9093105E-01
          2   -1    0    0  501    0  0.00000000000E+00  0.00000000000E+00  0.19281975195E+04  0.19281975195E+04  0.25500000000E-02 0. -1.
         -2   -1    0    0    0  501 -0.00000000000E+00 -0.00000000000E+00 -0.12486317410E+04  0.12486317410E+04  0.25500000000E-02 0.  1.
    8880023    1    1    2    0    0  0.87499020112E+03  0.64037998134E+03 -0.67335900666E+03  0.14362858109E+04  0.65864270000E+03 0.  0.
    8880022    1    1    2    0    0 -0.87499020112E+03 -0.64037998134E+03  0.13529247851E+04  0.17405434495E+04  0.15294330000E+03 0.  0.
<mgrwt>
<rscale>  0 0.12228294E+04</rscale>
<asrwt>0</asrwt>
<pdfrwt beam="1">  1        2 0.29664577E+00 0.12686625E+04</pdfrwt>
<pdfrwt beam="2">  1       -2 0.19209719E+00 0.12686625E+04</pdfrwt>
<totfact> 0.10586808E+00</totfact>
</mgrwt>
</event>
<event>
 4    5  0.7289609E-008  0.7013870E+03  0.7818608E-02  0.9991495E-01
         -2   -1    0    0    0  501 -0.00000000000E+00  0.00000000000E+00  0.54555741912E+03  0.54555741913E+03  0.25500000000E-02 0.  1.
          2   -1    0    0  501    0  0.00000000000E+00 -0.00000000000E+00 -0.69562457386E+03  0.69562457386E+03  0.25500000000E-02 0. -1.
    8880023    1    1    2    0    0 -0.21248801833E+03 -0.11394017255E+03  0.25439017507E+03  0.74609522736E+03  0.65864270000E+03 0.  1.
    8880022    1    1    2    0    0  0.21248801833E+03  0.11394017255E+03 -0.40445732980E+03  0.49508676563E+03  0.15294330000E+03 0.  0.
<mgrwt>
<rscale>  0 0.56024727E+03</rscale>
<asrwt>0</asrwt>
<pdfrwt beam="1">  1        2 0.10701917E+00 0.70138700E+03</pdfrwt>
<pdfrwt beam="2">  1       -2 0.83931910E-01 0.70138700E+03</pdfrwt>
<totfact> 0.52067784E+01</totfact>
</mgrwt>
</event>
<event>
 4    5  0.7289609E-008  0.8797277E+03  0.7818608E-02  0.9559392E-01
          2   -1    0    0  501    0  0.00000000000E+00  0.00000000000E+00  0.33468085712E+04  0.33468085712E+04  0.25500000000E-02 0. -1.
         -2   -1    0    0    0  501 -0.00000000000E+00 -0.00000000000E+00 -0.36712167878E+03  0.36712167879E+03  0.25500000000E-02 0.  1.
    8880023    1    1    2    0    0  0.54467526731E+03 -0.20842117519E+03  0.24448593526E+03  0.91306851435E+03  0.65864270000E+03 0.  1.
    8880022    1    1    2    0    0 -0.54467526731E+03  0.20842117519E+03  0.27352009571E+04  0.28008617356E+04  0.15294330000E+03 0.  0.
<mgrwt>
<rscale>  0 0.80043222E+03</rscale>
<asrwt>0</asrwt>
<pdfrwt beam="1">  1        2 0.51489362E+00 0.87972765E+03</pdfrwt>
<pdfrwt beam="2">  1       -2 0.56480259E-01 0.87972765E+03</pdfrwt>
<totfact> 0.32091540E+00</totfact>
</mgrwt>
</event>
<event>
 4    5  0.7289609E-008  0.7634381E+03  0.7818608E-02  0.9796287E-01
         -2   -1    0    0    0  501 -0.00000000000E+00  0.00000000000E+00  0.27076573125E+03  0.27076573127E+03  0.25500000000E-02 0.  1.
          2   -1    0    0  501    0  0.00000000000E+00 -0.00000000000E+00 -0.18775743197E+04  0.18775743197E+04  0.25500000000E-02 0. -1.
    8880023    1    1    2    0    0  0.14250207162E+03 -0.35877669004E+03 -0.37923786279E+03  0.85244302834E+03  0.65864270000E+03 0.  1.
    8880022    1    1    2    0    0 -0.14250207162E+03  0.35877669004E+03 -0.12275707256E+04  0.12958970226E+04  0.15294330000E+03 0.  0.
<mgrwt>
<rscale>  0 0.65562210E+03</rscale>
<asrwt>0</asrwt>
<pdfrwt beam="1">  1        2 0.28885758E+00 0.76343812E+03</pdfrwt>
<pdfrwt beam="2">  1       -2 0.41656268E-01 0.76343812E+03</pdfrwt>
<totfact> 0.43812544E+01</totfact>
</mgrwt>
</event>
<event>
 4    5  0.7289609E-008  0.1011363E+04  0.7818608E-02  0.9366840E-01
         -2   -1    0    0    0  501 -0.00000000000E+00  0.00000000000E+00  0.13720470082E+04  0.13720470082E+04  0.25500000000E-02 0.  1.
          2   -1    0    0  501    0  0.00000000000E+00 -0.00000000000E+00 -0.66723380820E+03  0.66723380820E+03  0.25500000000E-02 0. -1.
    8880023    1    1    2    0    0  0.71335367911E+03  0.28314671803E+03  0.74426796714E+03  0.12557032088E+04  0.65864270000E+03 0.  1.
    8880022    1    1    2    0    0 -0.71335367911E+03 -0.28314671803E+03 -0.39454767154E+02  0.78357760758E+03  0.15294330000E+03 0.  0.
<mgrwt>
<rscale>  0 0.94855625E+03</rscale>
<asrwt>0</asrwt>
<pdfrwt beam="1">  1        2 0.10265135E+00 0.10113633E+04</pdfrwt>
<pdfrwt beam="2">  1       -2 0.21108416E+00 0.10113633E+04</pdfrwt>
<totfact> 0.48718599E+00</totfact>
</mgrwt>
</event>
<event>
 4    5  0.7289609E-008  0.9813977E+03  0.7818608E-02  0.9406310E-01
         -2   -1    0    0    0  501 -0.00000000000E+00  0.00000000000E+00  0.88456870526E+03  0.88456870526E+03  0.25500000000E-02 0.  1.
          2   -1    0    0  501    0  0.00000000000E+00 -0.00000000000E+00 -0.18370099882E+04  0.18370099882E+04  0.25500000000E-02 0. -1.
    8880023    1    1    2    0    0 -0.69415380769E+03 -0.21790310412E+03  0.49141599695E+03  0.10975569051E+04  0.65864270000E+03 0.  0.
    8880022    1    1    2    0    0  0.69415380769E+03  0.21790310412E+03 -0.14438572799E+04  0.16240217884E+04  0.15294330000E+03 0.  0.
<mgrwt>
<rscale>  0 0.91558194E+03</rscale>
<asrwt>0</asrwt>
<pdfrwt beam="1">  1        2 0.28261692E+00 0.98139772E+03</pdfrwt>
<pdfrwt beam="2">  1       -2 0.13608749E+00 0.98139772E+03</pdfrwt>
<totfact> 0.31762334E+00</totfact>
</mgrwt>
</event>
<event>
 4    5  0.7289609E-008  0.1128995E+04  0.7818608E-02  0.9229440E-01
          2   -1    0    0  501    0  0.00000000000E+00  0.00000000000E+00  0.29285841070E+04  0.29285841070E+04  0.25500000000E-02 0. -1.
         -2   -1    0    0    0  501 -0.00000000000E+00 -0.00000000000E+00 -0.83398891931E+03  0.83398891931E+03  0.25500000000E-02 0.  1.
    8880023    1    1    2    0    0  0.54071933692E+03  0.74056865811E+03 -0.32143760948E+03  0.11738618665E+04  0.65864270000E+03 0.  0.
    8880022    1    1    2    0    0 -0.54071933692E+03 -0.74056865811E+03  0.24160327972E+04  0.25887111598E+04  0.15294330000E+03 0.  0.
<mgrwt>
<rscale>  0 0.10754655E+04</rscale>
<asrwt>0</asrwt>
<pdfrwt beam="1">  1        2 0.45055140E+00 0.11289949E+04</pdfrwt>
<pdfrwt beam="2">  1       -2 0.12830599E+00 0.11289949E+04</pdfrwt>
<totfact> 0.86235097E-01</totfact>
</mgrwt>
</event>
<event>
 4    5  0.7289609E-008  0.8444823E+03  0.7818608E-02  0.9621786E-01
          2   -1    0    0  501    0  0.00000000000E+00  0.00000000000E+00  0.27178996278E+04  0.27178996278E+04  0.25500000000E-02 0. -1.
         -2   -1    0    0    0  501 -0.00000000000E+00 -0.00000000000E+00 -0.30591484366E+03  0.30591484367E+03  0.25500000000E-02 0.  1.
    8880023    1    1    2    0    0  0.12951134319E+03 -0.51241283262E+03  0.39345910750E+03  0.93164390975E+03  0.65864270000E+03 0.  0.
    8880022    1    1    2    0    0 -0.12951134319E+03  0.51241283262E+03  0.20185256767E+04  0.20921705618E+04  0.15294330000E+03 0.  0.
<mgrwt>
<rscale>  0 0.75870885E+03</rscale>
<asrwt>0</asrwt>
<pdfrwt beam="1">  1        2 0.41813840E+00 0.84448227E+03</pdfrwt>
<pdfrwt beam="2">  1       -2 0.47063823E-01 0.84448227E+03</pdfrwt>
<totfact> 0.11513416E+01</totfact>
</mgrwt>
</event>
<event>
 4    5  0.7289609E-008  0.8986108E+03  0.7818608E-02  0.9528265E-01
         -2   -1    0    0    0  501 -0.00000000000E+00  0.00000000000E+00  0.12274108548E+04  0.12274108548E+04  0.25500000000E-02 0.  1.
          2   -1    0    0  501    0  0.00000000000E+00 -0.00000000000E+00 -0.70650732516E+03  0.70650732517E+03  0.25500000000E-02 0. -1.
    8880023    1    1    2    0    0 -0.57962234411E+03  0.19423986686E+03  0.83779681695E+03  0.12285784063E+04  0.65864270000E+03 0.  1.
    8880022    1    1    2    0    0  0.57962234411E+03 -0.19423986686E+03 -0.31689328735E+03  0.70533977363E+03  0.15294330000E+03 0.  0.
<mgrwt>
<rscale>  0 0.82231625E+03</rscale>
<asrwt>0</asrwt>
<pdfrwt beam="1">  1        2 0.10869344E+00 0.89861081E+03</pdfrwt>
<pdfrwt beam="2">  1       -2 0.18883244E+00 0.89861081E+03</pdfrwt>
<totfact> 0.64080075E+00</totfact>
</mgrwt>
</event>
<event>
 4    5  0.7289609E-008  0.8156558E+03  0.7818608E-02  0.9677914E-01
         -2   -1    0    0    0  501 -0.00000000000E+00  0.00000000000E+00  0.96368057583E+03  0.96368057584E+03  0.25500000000E-02 0.  1.
          2   -1    0    0  501    0  0.00000000000E+00 -0.00000000000E+00 -0.97816776971E+03  0.97816776972E+03  0.25500000000E-02 0. -1.
    8880023    1    1    2    0    0  0.46124431699E+03 -0.13688619426E+03  0.69464283657E+03  0.10713650297E+04  0.65864270000E+03 0.  1.
    8880022    1    1    2    0    0 -0.46124431699E+03  0.13688619426E+03 -0.70913003045E+03  0.87048331589E+03  0.15294330000E+03 0.  0.
<mgrwt>
<rscale>  0 0.72347123E+03</rscale>
<asrwt>0</asrwt>
<pdfrwt beam="1">  1        2 0.15048735E+00 0.81565578E+03</pdfrwt>
<pdfrwt beam="2">  1       -2 0.14825855E+00 0.81565578E+03</pdfrwt>
<totfact> 0.81231962E+00</totfact>
</mgrwt>
</event>
<event>
 4    5  0.7289609E-008  0.9821537E+03  0.7818608E-02  0.9405288E-01
         -2   -1    0    0    0  501 -0.00000000000E+00  0.00000000000E+00  0.82866597187E+03  0.82866597187E+03  0.25500000000E-02 0.  1.
          2   -1    0    0  501    0  0.00000000000E+00 -0.00000000000E+00 -0.12907121044E+04  0.12907121044E+04  0.25500000000E-02 0. -1.
    8880023    1    1    2    0    0  0.15533786691E+03 -0.71181864504E+03  0.32643820777E+03  0.10349820028E+04  0.65864270000E+03 0.  0.
    8880022    1    1    2    0    0 -0.15533786691E+03  0.71181864504E+03 -0.78848434033E+03  0.10843960735E+04  0.15294330000E+03 0.  0.
<mgrwt>
<rscale>  0 0.91641801E+03</rscale>
<asrwt>0</asrwt>
<pdfrwt beam="1">  1        2 0.19857109E+00 0.98215368E+03</pdfrwt>
<pdfrwt beam="2">  1       -2 0.12748707E+00 0.98215368E+03</pdfrwt>
<totfact> 0.75942930E+00</totfact>
</mgrwt>
</event>
<event>
 4    5  0.7289609E-008  0.7441347E+03  0.7818608E-02  0.9848063E-01
         -2   -1    0    0    0  501 -0.00000000000E+00  0.00000000000E+00  0.47887828542E+03  0.47887828542E+03  0.25500000000E-02 0.  1.
          2   -1    0    0  501    0  0.00000000000E+00 -0.00000000000E+00 -0.83429504855E+03  0.83429504855E+03  0.25500000000E-02 0. -1.
    8880023    1    1    2    0    0  0.21831653344E+03  0.26881988835E+03  0.65553139311E+02  0.74701650683E+03  0.65864270000E+03 0.  0.
    8880022    1    1    2    0    0 -0.21831653344E+03 -0.26881988835E+03 -0.42096990244E+03  0.56615682714E+03  0.15294330000E+03 0.  0.
<mgrwt>
<rscale>  0 0.62845794E+03</rscale>
<asrwt>0</asrwt>
<pdfrwt beam="1">  1        2 0.12835308E+00 0.74413470E+03</pdfrwt>
<pdfrwt beam="2">  1       -2 0.73673583E-01 0.74413470E+03</pdfrwt>
<totfact> 0.54853308E+01</totfact>
</mgrwt>
</event>
<event>
 4    5  0.7289609E-008  0.8410598E+03  0.7818608E-02  0.9628185E-01
          2   -1    0    0  501    0  0.00000000000E+00  0.00000000000E+00  0.80755665858E+03  0.80755665859E+03  0.25500000000E-02 0. -1.
         -2   -1    0    0    0  501 -0.00000000000E+00 -0.00000000000E+00 -0.10490661442E+04  0.10490661442E+04  0.25500000000E-02 0.  1.
    8880023    1    1    2    0    0 -0.12279307122E+02 -0.52289639857E+03 -0.73836143608E+03  0.11191779312E+04  0.65864270000E+03 0.  0.
    8880022    1    1    2    0    0  0.12279307122E+02  0.52289639857E+03  0.49685195046E+03  0.73744487164E+03  0.15294330000E+03 0.  0.
<mgrwt>
<rscale>  0 0.75458466E+03</rscale>
<asrwt>0</asrwt>
<pdfrwt beam="1">  1        2 0.12423948E+00 0.84105983E+03</pdfrwt>
<pdfrwt beam="2">  1       -2 0.16139479E+00 0.84105983E+03</pdfrwt>
<totfact> 0.84260426E+00</totfact>
</mgrwt>
</event>
<event>
 4    5  0.7289609E-008  0.7741616E+03  0.7818608E-02  0.9769734E-01
         -2   -1    0    0    0  501 -0.00000000000E+00  0.00000000000E+00  0.30260459241E+03  0.30260459242E+03  0.25500000000E-02 0.  1.
          2   -1    0    0  501    0  0.00000000000E+00 -0.00000000000E+00 -0.21015118116E+04  0.21015118116E+04  0.25500000000E-02 0. -1.
    8880023    1    1    2    0    0 -0.39039146580E+03 -0.11450126815E+03 -0.27838339246E+03  0.82269286884E+03  0.65864270000E+03 0.  1.
    8880022    1    1    2    0    0  0.39039146580E+03  0.11450126815E+03 -0.15205238268E+04  0.15814235352E+04  0.15294330000E+03 0.  0.
<mgrwt>
<rscale>  0 0.67012364E+03</rscale>
<asrwt>0</asrwt>
<pdfrwt beam="1">  1        2 0.32330950E+00 0.77416164E+03</pdfrwt>
<pdfrwt beam="2">  1       -2 0.46554554E-01 0.77416164E+03</pdfrwt>
<totfact> 0.26469823E+01</totfact>
</mgrwt>
</event>
<event>
 4    5  0.7289609E-008  0.1329058E+04  0.7818608E-02  0.9040864E-01
          2   -1    0    0  501    0  0.00000000000E+00  0.00000000000E+00  0.22926873649E+04  0.22926873649E+04  0.25500000000E-02 0. -1.
         -2   -1    0    0    0  501 -0.00000000000E+00 -0.00000000000E+00 -0.85855181670E+03  0.85855181670E+03  0.25500000000E-02 0.  1.
    8880023    1    1    2    0    0 -0.10437435287E+04  0.49313711281E+03  0.33112618801E+02  0.13294703523E+04  0.65864270000E+03 0.  0.
    8880022    1    1    2    0    0  0.10437435287E+04 -0.49313711281E+03  0.14010229294E+04  0.18217688293E+04  0.15294330000E+03 0.  0.
<mgrwt>
<rscale>  0 0.12858475E+04</rscale>
<asrwt>0</asrwt>
<pdfrwt beam="1">  1        2 0.35272113E+00 0.13290579E+04</pdfrwt>
<pdfrwt beam="2">  1       -2 0.13208490E+00 0.13290579E+04</pdfrwt>
<totfact> 0.18390868E+00</totfact>
</mgrwt>
</event>
<event>
 4    5  0.7289609E-008  0.1281850E+04  0.7818608E-02  0.9081394E-01
          2   -1    0    0  501    0  0.00000000000E+00  0.00000000000E+00  0.92653734582E+03  0.92653734582E+03  0.25500000000E-02 0. -1.
         -2   -1    0    0    0  501 -0.00000000000E+00 -0.00000000000E+00 -0.24118001695E+04  0.24118001695E+04  0.25500000000E-02 0.  1.
    8880023    1    1    2    0    0 -0.14025845742E+03 -0.10907133838E+04 -0.17763251726E+04  0.21905409025E+04  0.65864270000E+03 0.  1.
    8880022    1    1    2    0    0  0.14025845742E+03  0.10907133838E+04  0.29106234892E+03  0.11477966128E+04  0.15294330000E+03 0. -1.
<mgrwt>
<rscale>  0 0.12366188E+04</rscale>
<asrwt>0</asrwt>
<pdfrwt beam="1">  1        2 0.14254421E+00 0.12818496E+04</pdfrwt>
<pdfrwt beam="2">  1       -2 0.37104618E+00 0.12818496E+04</pdfrwt>
<totfact> 0.31363559E-01</totfact>
</mgrwt>
</event>
<event>
 4    5  0.7289609E-008  0.8731746E+03  0.7818608E-02  0.9570545E-01
          2   -1    0    0  501    0  0.00000000000E+00  0.00000000000E+00  0.15494402453E+04  0.15494402453E+04  0.25500000000E-02 0. -1.
         -2   -1    0    0    0  501 -0.00000000000E+00 -0.00000000000E+00 -0.89526367128E+03  0.89526367128E+03  0.25500000000E-02 0.  1.
    8880023    1    1    2    0    0 -0.43299929541E+03 -0.37567975120E+03 -0.59851652956E+03  0.10586103663E+04  0.65864270000E+03 0.  1.
    8880022    1    1    2    0    0  0.43299929541E+03  0.37567975120E+03  0.12526931036E+04  0.13860935503E+04  0.15294330000E+03 0.  0.
<mgrwt>
<rscale>  0 0.79276782E+03</rscale>
<asrwt>0</asrwt>
<pdfrwt beam="1">  1        2 0.23837542E+00 0.87317459E+03</pdfrwt>
<pdfrwt beam="2">  1       -2 0.13773287E+00 0.87317459E+03</pdfrwt>
<totfact> 0.45006225E+00</totfact>
</mgrwt>
</event>
<event>
 4    5  0.7289609E-008  0.1280295E+04  0.7818608E-02  0.9082766E-01
         -2   -1    0    0    0  501 -0.00000000000E+00  0.00000000000E+00  0.19736519306E+04  0.19736519307E+04  0.25500000000E-02 0.  1.
          2   -1    0    0  501    0  0.00000000000E+00 -0.00000000000E+00 -0.22096329545E+04  0.22096329545E+04  0.25500000000E-02 0. -1.
    8880023    1    1    2    0    0  0.26776406007E+03  0.10647282947E+04  0.15935459796E+04  0.20441484606E+04  0.65864270000E+03 0.  1.
    8880022    1    1    2    0    0 -0.26776406007E+03 -0.10647282947E+04 -0.18295270035E+04  0.21391364246E+04  0.15294330000E+03 0.  0.
<mgrwt>
<rscale>  0 0.12349937E+04</rscale>
<asrwt>0</asrwt>
<pdfrwt beam="1">  1        2 0.33994353E+00 0.12802946E+04</pdfrwt>
<pdfrwt beam="2">  1       -2 0.30363876E+00 0.12802946E+04</pdfrwt>
<totfact> 0.14882886E-01</totfact>
</mgrwt>
</event>
<event>
 4    5  0.7289609E-008  0.6621340E+03  0.7818608E-02  0.1022069E+00
         -2   -1    0    0    0  501 -0.00000000000E+00  0.00000000000E+00  0.30496166910E+03  0.30496166911E+03  0.25500000000E-02 0.  1.
          2   -1    0    0  501    0  0.00000000000E+00 -0.00000000000E+00 -0.17370461372E+04  0.17370461372E+04  0.25500000000E-02 0. -1.
    8880023    1    1    2    0    0  0.67865545339E+02  0.23466141871E+01 -0.65667728820E+02  0.66538236805E+03  0.65864270000E+03 0.  1.
    8880022    1    1    2    0    0 -0.67865545339E+02 -0.23466141871E+01 -0.13664167392E+04  0.13766254382E+04  0.15294330000E+03 0.  0.
<mgrwt>
<rscale>  0 0.46947209E+03</rscale>
<asrwt>0</asrwt>
<pdfrwt beam="1">  1        2 0.26723786E+00 0.66213401E+03</pdfrwt>
<pdfrwt beam="2">  1       -2 0.46917181E-01 0.66213401E+03</pdfrwt>
<totfact> 0.41782924E+01</totfact>
</mgrwt>
</event>
<event>
 4    5  0.7289609E-008  0.1182991E+04  0.7818608E-02  0.9173836E-01
          2   -1    0    0  501    0  0.00000000000E+00  0.00000000000E+00  0.17505566437E+04  0.17505566437E+04  0.25500000000E-02 0. -1.
         -2   -1    0    0    0  501 -0.00000000000E+00 -0.00000000000E+00 -0.84703287449E+03  0.84703287449E+03  0.25500000000E-02 0.  1.
    8880023    1    1    2    0    0  0.72507365533E+03  0.66326836806E+03 -0.96900143732E+02  0.11869526435E+04  0.65864270000E+03 0.  1.
    8880022    1    1    2    0    0 -0.72507365533E+03 -0.66326836806E+03  0.10004239129E+04  0.14106368747E+04  0.15294330000E+03 0.  0.
<mgrwt>
<rscale>  0 0.11327607E+04</rscale>
<asrwt>0</asrwt>
<pdfrwt beam="1">  1        2 0.26931641E+00 0.11829907E+04</pdfrwt>
<pdfrwt beam="2">  1       -2 0.13031275E+00 0.11829907E+04</pdfrwt>
<totfact> 0.38716575E+00</totfact>
</mgrwt>
</event>
<event>
 4    5  0.7289609E-008  0.7652804E+03  0.7818608E-02  0.9791624E-01
          2   -1    0    0  501    0  0.00000000000E+00  0.00000000000E+00  0.15568069578E+04  0.15568069578E+04  0.25500000000E-02 0. -1.
         -2   -1    0    0    0  501 -0.00000000000E+00 -0.00000000000E+00 -0.57129864685E+03  0.57129864685E+03  0.25500000000E-02 0.  1.
    8880023    1    1    2    0    0 -0.22998010371E+03 -0.31456807983E+03 -0.26462984868E+03  0.80974260603E+03  0.65864270000E+03 0.  0.
    8880022    1    1    2    0    0  0.22998010371E+03  0.31456807983E+03  0.12501381597E+04  0.13183629986E+04  0.15294330000E+03 0.  0.
<mgrwt>
<rscale>  0 0.65813993E+03</rscale>
<asrwt>0</asrwt>
<pdfrwt beam="1">  1        2 0.23950876E+00 0.76528043E+03</pdfrwt>
<pdfrwt beam="2">  1       -2 0.87892100E-01 0.76528043E+03</pdfrwt>
<totfact> 0.13469098E+01</totfact>
</mgrwt>
</event>
<event>
 4    5  0.7289609E-008  0.1036142E+04  0.7818608E-02  0.9335729E-01
         -2   -1    0    0    0  501 -0.00000000000E+00  0.00000000000E+00  0.14428698070E+04  0.14428698070E+04  0.25500000000E-02 0.  1.
          2   -1    0    0  501    0  0.00000000000E+00 -0.00000000000E+00 -0.11749213936E+04  0.11749213936E+04  0.25500000000E-02 0. -1.
    8880023    1    1    2    0    0  0.12545552059E+03  0.78996239257E+03  0.10596387448E+04  0.14820337868E+04  0.65864270000E+03 0.  0.
    8880022    1    1    2    0    0 -0.12545552059E+03 -0.78996239257E+03 -0.79169033143E+03  0.11357574139E+04  0.15294330000E+03 0.  0.
<mgrwt>
<rscale>  0 0.97559063E+03</rscale>
<asrwt>0</asrwt>
<pdfrwt beam="1">  1        2 0.18075714E+00 0.10361418E+04</pdfrwt>
<pdfrwt beam="2">  1       -2 0.22197997E+00 0.10361418E+04</pdfrwt>
<totfact> 0.18630641E+00</totfact>
</mgrwt>
</event>
<event>
 4    5  0.7289609E-008  0.7821850E+03  0.7818608E-02  0.9750729E-01
         -2   -1    0    0    0  501 -0.00000000000E+00  0.00000000000E+00  0.98457803819E+03  0.98457803820E+03  0.25500000000E-02 0.  1.
          2   -1    0    0  501    0  0.00000000000E+00 -0.00000000000E+00 -0.56028155674E+03  0.56028155674E+03  0.25500000000E-02 0. -1.
    8880023    1    1    2    0    0 -0.40086033633E+03 -0.13158312856E+03  0.67292862951E+03  0.10318169778E+04  0.65864270000E+03 0.  1.
    8880022    1    1    2    0    0  0.40086033633E+03  0.13158312856E+03 -0.24863214805E+03  0.51304261716E+03  0.15294330000E+03 0.  0.
<mgrwt>
<rscale>  0 0.68075075E+03</rscale>
<asrwt>0</asrwt>
<pdfrwt beam="1">  1        2 0.86197164E-01 0.78218498E+03</pdfrwt>
<pdfrwt beam="2">  1       -2 0.15147354E+00 0.78218498E+03</pdfrwt>
<totfact> 0.15897599E+01</totfact>
</mgrwt>
</event>
<event>
 4    5  0.7289609E-008  0.7403058E+03  0.7818608E-02  0.9859057E-01
          2   -1    0    0  501    0  0.00000000000E+00  0.00000000000E+00  0.13802064402E+04  0.13802064402E+04  0.25500000000E-02 0. -1.
         -2   -1    0    0    0  501 -0.00000000000E+00 -0.00000000000E+00 -0.10269316816E+04  0.10269316816E+04  0.25500000000E-02 0.  1.
    8880023    1    1    2    0    0 -0.45491274023E+02  0.33492247145E+03 -0.86213608378E+03  0.11363676127E+04  0.65864270000E+03 0.  1.
    8880022    1    1    2    0    0  0.45491274023E+02 -0.33492247145E+03  0.12154108424E+04  0.12707705091E+04  0.15294330000E+03 0.  0.
<mgrwt>
<rscale>  0 0.62287251E+03</rscale>
<asrwt>0</asrwt>
<pdfrwt beam="1">  1        2 0.21233945E+00 0.74030583E+03</pdfrwt>
<pdfrwt beam="2">  1       -2 0.15798949E+00 0.74030583E+03</pdfrwt>
<totfact> 0.39751763E+00</totfact>
</mgrwt>
</event>
<event>
 4    5  0.7289609E-008  0.9950555E+03  0.7818608E-02  0.9388055E-01
          2   -1    0    0  501    0  0.00000000000E+00  0.00000000000E+00  0.32651490008E+04  0.32651490008E+04  0.25500000000E-02 0. -1.
         -2   -1    0    0    0  501 -0.00000000000E+00 -0.00000000000E+00 -0.64129625854E+03  0.64129625854E+03  0.25500000000E-02 0.  1.
    8880023    1    1    2    0    0  0.74496251751E+03  0.36825355449E+02 -0.17108397195E+03  0.10096559766E+04  0.65864270000E+03 0.  0.
    8880022    1    1    2    0    0 -0.74496251751E+03 -0.36825355449E+02  0.27949367142E+04  0.28967892828E+04  0.15294330000E+03 0.  0.
<mgrwt>
<rscale>  0 0.93065235E+03</rscale>
<asrwt>0</asrwt>
<pdfrwt beam="1">  1        2 0.50233060E+00 0.99505551E+03</pdfrwt>
<pdfrwt beam="2">  1       -2 0.98660965E-01 0.99505551E+03</pdfrwt>
<totfact> 0.10295166E+00</totfact>
</mgrwt>
</event>
<event>
 4    5  0.7289609E-008  0.8090462E+03  0.7818608E-02  0.9691567E-01
          2   -1    0    0  501    0  0.00000000000E+00  0.00000000000E+00  0.45734759621E+03  0.45734759621E+03  0.25500000000E-02 0. -1.
         -2   -1    0    0    0  501 -0.00000000000E+00 -0.00000000000E+00 -0.10767158285E+04  0.10767158285E+04  0.25500000000E-02 0.  1.
    8880023    1    1    2    0    0  0.26051053339E+03  0.39099845519E+03 -0.65173723406E+03  0.10389019003E+04  0.65864270000E+03 0.  1.
    8880022    1    1    2    0    0 -0.26051053339E+03 -0.39099845519E+03  0.32369001748E+02  0.49516152441E+03  0.15294330000E+03 0. -1.
<mgrwt>
<rscale>  0 0.71521107E+03</rscale>
<asrwt>0</asrwt>
<pdfrwt beam="1">  1        2 0.70361169E-01 0.80904619E+03</pdfrwt>
<pdfrwt beam="2">  1       -2 0.16564859E+00 0.80904619E+03</pdfrwt>
<totfact> 0.15782374E+01</totfact>
</mgrwt>
</event>
<event>
 4    5  0.7289609E-008  0.1110107E+04  0.7818608E-02  0.9249885E-01
         -2   -1    0    0    0  501 -0.00000000000E+00  0.00000000000E+00  0.11049009942E+04  0.11049009942E+04  0.25500000000E-02 0.  1.
          2   -1    0    0  501    0  0.00000000000E+00 -0.00000000000E+00 -0.17988972470E+04  0.17988972470E+04  0.25500000000E-02 0. -1.
    8880023    1    1    2    0    0  0.63352881438E+03  0.63021388771E+03  0.64715453188E+03  0.12849698430E+04  0.65864270000E+03 0.  0.
    8880022    1    1    2    0    0 -0.63352881438E+03 -0.63021388771E+03 -0.13411507847E+04  0.16188283983E+04  0.15294330000E+03 0.  0.
<mgrwt>
<rscale>  0 0.10553037E+04</rscale>
<asrwt>0</asrwt>
<pdfrwt beam="1">  1        2 0.27675342E+00 0.11101074E+04</pdfrwt>
<pdfrwt beam="2">  1       -2 0.16998477E+00 0.11101074E+04</pdfrwt>
<totfact> 0.18077657E+00</totfact>
</mgrwt>
</event>
<event>
 4    5  0.7289609E-008  0.1103312E+04  0.7818608E-02  0.9257378E-01
          2   -1    0    0  501    0  0.00000000000E+00  0.00000000000E+00  0.18344674205E+04  0.18344674205E+04  0.25500000000E-02 0. -1.
         -2   -1    0    0    0  501 -0.00000000000E+00 -0.00000000000E+00 -0.71468971702E+03  0.71468971702E+03  0.25500000000E-02 0.  1.
    8880023    1    1    2    0    0 -0.66907950919E+03 -0.57949941825E+03  0.12204910103E+04  0.16452645617E+04  0.65864270000E+03 0.  0.
    8880022    1    1    2    0    0  0.66907950919E+03  0.57949941825E+03 -0.10071330690E+03  0.90389257579E+03  0.15294330000E+03 0.  0.
<mgrwt>
<rscale>  0 0.10480325E+04</rscale>
<asrwt>0</asrwt>
<pdfrwt beam="1">  1        2 0.28222576E+00 0.11033119E+04</pdfrwt>
<pdfrwt beam="2">  1       -2 0.10995226E+00 0.11033119E+04</pdfrwt>
<totfact> 0.53565725E+00</totfact>
</mgrwt>
</event>
<event>
 4    5  0.7289609E-008  0.1058117E+04  0.7818608E-02  0.9309187E-01
         -2   -1    0    0    0  501 -0.00000000000E+00  0.00000000000E+00  0.18196760975E+04  0.18196760975E+04  0.25500000000E-02 0.  1.
          2   -1    0    0  501    0  0.00000000000E+00 -0.00000000000E+00 -0.50068334462E+03  0.50068334462E+03  0.25500000000E-02 0. -1.
    8880023    1    1    2    0    0  0.32762986097E+03  0.76056536727E+03  0.62346871726E+03  0.12281386124E+04  0.65864270000E+03 0. -1.
    8880022    1    1    2    0    0 -0.32762986097E+03 -0.76056536727E+03  0.69552403564E+03  0.10922208297E+04  0.15294330000E+03 0.  0.
<mgrwt>
<rscale>  0 0.99941472E+03</rscale>
<asrwt>0</asrwt>
<pdfrwt beam="1">  1        2 0.77028207E-01 0.10581168E+04</pdfrwt>
<pdfrwt beam="2">  1       -2 0.27995017E+00 0.10581168E+04</pdfrwt>
<totfact> 0.25854894E+00</totfact>
</mgrwt>
</event>
<event>
 4    5  0.7289609E-008  0.7344456E+03  0.7818608E-02  0.9876432E-01
         -2   -1    0    0    0  501 -0.00000000000E+00  0.00000000000E+00  0.38665100388E+03  0.38665100388E+03  0.25500000000E-02 0.  1.
          2   -1    0    0  501    0  0.00000000000E+00 -0.00000000000E+00 -0.12732652900E+04  0.12732652900E+04  0.25500000000E-02 0. -1.
    8880023    1    1    2    0    0  0.13566104749E+03 -0.29529006629E+03 -0.34557443539E+02  0.73525816298E+03  0.65864270000E+03 0.  1.
    8880022    1    1    2    0    0 -0.13566104749E+03  0.29529006629E+03 -0.85205684262E+03  0.92465813094E+03  0.15294330000E+03 0.  0.
<mgrwt>
<rscale>  0 0.61417197E+03</rscale>
<asrwt>0</asrwt>
<pdfrwt beam="1">  1        2 0.19588697E+00 0.73444561E+03</pdfrwt>
<pdfrwt beam="2">  1       -2 0.59484770E-01 0.73444561E+03</pdfrwt>
<totfact> 0.46127279E+01</totfact>
</mgrwt>
</event>
<event>
 4    5  0.7289609E-008  0.6810247E+03  0.7818608E-02  0.1008750E+00
          2   -1    0    0  501    0  0.00000000000E+00  0.00000000000E+00  0.12162266493E+04  0.12162266493E+04  0.25500000000E-02 0. -1.
         -2   -1    0    0    0  501 -0.00000000000E+00 -0.00000000000E+00 -0.54654814828E+03  0.54654814828E+03  0.25500000000E-02 0.  1.
    8880023    1    1    2    0    0 -0.16850045455E+03  0.39899479667E+02 -0.31572450105E+03  0.75065074335E+03  0.65864270000E+03 0.  1.
    8880022    1    1    2    0    0  0.16850045455E+03 -0.39899479667E+02  0.98540300205E+03  0.10121240542E+04  0.15294330000E+03 0.  0.
<mgrwt>
<rscale>  0 0.51974510E+03</rscale>
<asrwt>0</asrwt>
<pdfrwt beam="1">  1        2 0.18711179E+00 0.68102465E+03</pdfrwt>
<pdfrwt beam="2">  1       -2 0.84084332E-01 0.68102465E+03</pdfrwt>
<totfact> 0.23500221E+01</totfact>
</mgrwt>
</event>
<event>
 4    5  0.7289609E-008  0.7148493E+03  0.7818608E-02  0.9940416E-01
         -2   -1    0    0    0  501 -0.00000000000E+00  0.00000000000E+00  0.17852360910E+04  0.17852360910E+04  0.25500000000E-02 0.  1.
          2   -1    0    0  501    0  0.00000000000E+00 -0.00000000000E+00 -0.29878700932E+03  0.29878700933E+03  0.25500000000E-02 0. -1.
    8880023    1    1    2    0    0  0.27690656698E+03 -0.22849866894E+02  0.15957552863E+04  0.17485549758E+04  0.65864270000E+03 0.  1.
    8880022    1    1    2    0    0 -0.27690656698E+03  0.22849866894E+02 -0.10930620458E+03  0.33546812461E+03  0.15294330000E+03 0.  0.
<mgrwt>
<rscale>  0 0.58341929E+03</rscale>
<asrwt>0</asrwt>
<pdfrwt beam="1">  1        2 0.45967233E-01 0.71484933E+03</pdfrwt>
<pdfrwt beam="2">  1       -2 0.27465170E+00 0.71484933E+03</pdfrwt>
<totfact> 0.51959684E+00</totfact>
</mgrwt>
</event>
<event>
 4    5  0.7289609E-008  0.9180337E+03  0.7818608E-02  0.9497681E-01
         -2   -1    0    0    0  501 -0.00000000000E+00  0.00000000000E+00  0.37765354564E+03  0.37765354565E+03  0.25500000000E-02 0.  1.
          2   -1    0    0  501    0  0.00000000000E+00 -0.00000000000E+00 -0.39140223273E+04  0.39140223273E+04  0.25500000000E-02 0. -1.
    8880023    1    1    2    0    0 -0.22730098836E+03  0.59775405089E+03 -0.26590826477E+03  0.95576830676E+03  0.65864270000E+03 0.  0.
    8880022    1    1    2    0    0  0.22730098836E+03 -0.59775405089E+03 -0.32704605168E+04  0.33359075661E+04  0.15294330000E+03 0.  0.
<mgrwt>
<rscale>  0 0.84455039E+03</rscale>
<asrwt>0</asrwt>
<pdfrwt beam="1">  1        2 0.60215725E+00 0.91803369E+03</pdfrwt>
<pdfrwt beam="2">  1       -2 0.58100548E-01 0.91803369E+03</pdfrwt>
<totfact> 0.11859093E+00</totfact>
</mgrwt>
</event>
<event>
 4    5  0.7289609E-008  0.7171796E+03  0.7818608E-02  0.9932247E-01
         -2   -1    0    0    0  501 -0.00000000000E+00  0.00000000000E+00  0.26057867313E+03  0.26057867315E+03  0.25500000000E-02 0.  1.
          2   -1    0    0  501    0  0.00000000000E+00 -0.00000000000E+00 -0.15914755913E+04  0.15914755913E+04  0.25500000000E-02 0. -1.
    8880023    1    1    2    0    0  0.18022178648E+03 -0.21921788778E+03 -0.30972079475E+03  0.78120007143E+03  0.65864270000E+03 0.  1.
    8880022    1    1    2    0    0 -0.18022178648E+03  0.21921788778E+03 -0.10211761234E+04  0.10708541930E+04  0.15294330000E+03 0.  0.
<mgrwt>
<rscale>  0 0.58723581E+03</rscale>
<asrwt>0</asrwt>
<pdfrwt beam="1">  1        2 0.24484239E+00 0.71717960E+03</pdfrwt>
<pdfrwt beam="2">  1       -2 0.40089027E-01 0.71717960E+03</pdfrwt>
<totfact> 0.68057948E+01</totfact>
</mgrwt>
</event>
<event>
 4    5  0.7289609E-008  0.8623496E+03  0.7818608E-02  0.9589398E-01
          2   -1    0    0  501    0  0.00000000000E+00  0.00000000000E+00  0.27951868004E+04  0.27951868004E+04  0.25500000000E-02 0. -1.
         -2   -1    0    0    0  501 -0.00000000000E+00 -0.00000000000E+00 -0.61769921954E+03  0.61769921954E+03  0.25500000000E-02 0.  1.
    8880023    1    1    2    0    0 -0.20466319433E+03  0.51763850549E+03 -0.26575899394E+03  0.90237170535E+03  0.65864270000E+03 0.  0.
    8880022    1    1    2    0    0  0.20466319433E+03 -0.51763850549E+03  0.24432465748E+04  0.25105143146E+04  0.15294330000E+03 0.  0.
<mgrwt>
<rscale>  0 0.78001915E+03</rscale>
<asrwt>0</asrwt>
<pdfrwt beam="1">  1        2 0.43002874E+00 0.86234961E+03</pdfrwt>
<pdfrwt beam="2">  1       -2 0.95030648E-01 0.86234961E+03</pdfrwt>
<totfact> 0.22502206E+00</totfact>
</mgrwt>
</event>
<event>
 4    5  0.9113392E-008  0.9917250E+03  0.7818608E-02  0.9392465E-01
          2   -1    0    0  501    0  0.00000000000E+00  0.00000000000E+00  0.18072728221E+04  0.18072728221E+04  0.25500000000E-02 0. -1.
         -2   -1    0    0    0  501 -0.00000000000E+00 -0.00000000000E+00 -0.14690923721E+04  0.14690923721E+04  0.25500000000E-02 0.  1.
    8880023    1    1    2    0    0 -0.70928195962E+03  0.21593374023E+03 -0.12031281421E+04  0.15591779280E+04  0.65864270000E+03 0.  1.
    8880022    1    1    2    0    0  0.70928195962E+03 -0.21593374023E+03  0.15413085921E+04  0.17171872663E+04  0.15294330000E+03 0.  0.
<mgrwt>
<rscale>  0 0.92698401E+03</rscale>
<asrwt>0</asrwt>
<pdfrwt beam="1">  1        2 0.27804197E+00 0.99172500E+03</pdfrwt>
<pdfrwt beam="2">  1       -2 0.22601421E+00 0.99172500E+03</pdfrwt>
<totfact> 0.77392622E-01</totfact>
</mgrwt>
</event>
<event>
 4    5  0.7289609E-008  0.8634981E+03  0.7818608E-02  0.9587371E-01
          2   -1    0    0  501    0  0.00000000000E+00  0.00000000000E+00  0.89138002985E+03  0.89138002985E+03  0.25500000000E-02 0. -1.
         -2   -1    0    0    0  501 -0.00000000000E+00 -0.00000000000E+00 -0.59512215153E+03  0.59512215154E+03  0.25500000000E-02 0.  1.
    8880023    1    1    2    0    0 -0.15857787091E+03  0.53541737240E+03  0.75213371593E+02  0.86676753593E+03  0.65864270000E+03 0.  0.
    8880022    1    1    2    0    0  0.15857787091E+03 -0.53541737240E+03  0.22104450672E+03  0.61973464546E+03  0.15294330000E+03 0.  0.
<mgrwt>
<rscale>  0 0.78137715E+03</rscale>
<asrwt>0</asrwt>
<pdfrwt beam="1">  1        2 0.13713539E+00 0.86349807E+03</pdfrwt>
<pdfrwt beam="2">  1       -2 0.91557254E-01 0.86349807E+03</pdfrwt>
<totfact> 0.30340488E+01</totfact>
</mgrwt>
</event>
<event>
 4    5  0.7289609E-008  0.1372807E+04  0.7818608E-02  0.9005106E-01
         -2   -1    0    0    0  501 -0.00000000000E+00  0.00000000000E+00  0.24746222618E+04  0.24746222618E+04  0.25500000000E-02 0.  1.
          2   -1    0    0  501    0  0.00000000000E+00 -0.00000000000E+00 -0.12636951719E+04  0.12636951719E+04  0.25500000000E-02 0. -1.
    8880023    1    1    2    0    0  0.82982493193E+03 -0.87302852117E+03  0.18986154998E+04  0.23429338955E+04  0.65864270000E+03 0.  0.
    8880022    1    1    2    0    0 -0.82982493193E+03  0.87302852117E+03 -0.68768840989E+03  0.13953835381E+04  0.15294330000E+03 0.  0.
<mgrwt>
<rscale>  0 0.13312998E+04</rscale>
<asrwt>0</asrwt>
<pdfrwt beam="1">  1        2 0.19441464E+00 0.13728068E+04</pdfrwt>
<pdfrwt beam="2">  1       -2 0.38071112E+00 0.13728068E+04</pdfrwt>
<totfact> 0.16516009E-01</totfact>
</mgrwt>
</event>
<event>
 4    5  0.7289609E-008  0.9187977E+03  0.7818608E-02  0.9496505E-01
         -2   -1    0    0    0  501 -0.00000000000E+00  0.00000000000E+00  0.14198485089E+04  0.14198485089E+04  0.25500000000E-02 0.  1.
          2   -1    0    0  501    0  0.00000000000E+00 -0.00000000000E+00 -0.17390099023E+04  0.17390099023E+04  0.25500000000E-02 0. -1.
    8880023    1    1    2    0    0  0.59875005686E+03  0.22776617194E+03  0.11951600543E+04  0.15075134564E+04  0.65864270000E+03 0.  1.
    8880022    1    1    2    0    0 -0.59875005686E+03 -0.22776617194E+03 -0.15143214477E+04  0.16513449548E+04  0.15294330000E+03 0.  0.
<mgrwt>
<rscale>  0 0.84541989E+03</rscale>
<asrwt>0</asrwt>
<pdfrwt beam="1">  1        2 0.26753998E+00 0.91879773E+03</pdfrwt>
<pdfrwt beam="2">  1       -2 0.21843823E+00 0.91879773E+03</pdfrwt>
<totfact> 0.95233083E-01</totfact>
</mgrwt>
</event>
<event>
 4    5  0.7289609E-008  0.1165944E+04  0.7818608E-02  0.9190960E-01
          2   -1    0    0  501    0  0.00000000000E+00  0.00000000000E+00  0.34447077048E+04  0.34447077048E+04  0.25500000000E-02 0. -1.
         -2   -1    0    0    0  501 -0.00000000000E+00 -0.00000000000E+00 -0.46910887400E+03  0.46910887401E+03  0.25500000000E-02 0.  1.
    8880023    1    1    2    0    0  0.48546092416E+03  0.83062747009E+03  0.52886847814E+03  0.12802837093E+04  0.65864270000E+03 0.  1.
    8880022    1    1    2    0    0 -0.48546092416E+03 -0.83062747009E+03  0.24467303527E+04  0.26335328695E+04  0.15294330000E+03 0.  0.
<mgrwt>
<rscale>  0 0.11147225E+04</rscale>
<asrwt>0</asrwt>
<pdfrwt beam="1">  1        2 0.52995504E+00 0.11659436E+04</pdfrwt>
<pdfrwt beam="2">  1       -2 0.72170595E-01 0.11659436E+04</pdfrwt>
<totfact> 0.15569581E+00</totfact>
</mgrwt>
</event>
<event>
 4    5  0.7289609E-008  0.8347352E+03  0.7818608E-02  0.9640188E-01
         -2   -1    0    0    0  501 -0.00000000000E+00  0.00000000000E+00  0.45045604174E+03  0.45045604175E+03  0.25500000000E-02 0.  1.
          2   -1    0    0  501    0  0.00000000000E+00 -0.00000000000E+00 -0.26148895458E+04  0.26148895458E+04  0.25500000000E-02 0. -1.
    8880023    1    1    2    0    0  0.23155192455E+03 -0.45755484388E+03  0.10353223448E+01  0.83473589061E+03  0.65864270000E+03 0.  1.
    8880022    1    1    2    0    0 -0.23155192455E+03  0.45755484388E+03 -0.21654688264E+04  0.22306096969E+04  0.15294330000E+03 0.  0.
<mgrwt>
<rscale>  0 0.74692404E+03</rscale>
<asrwt>0</asrwt>
<pdfrwt beam="1">  1        2 0.40229069E+00 0.83473525E+03</pdfrwt>
<pdfrwt beam="2">  1       -2 0.69300931E-01 0.83473525E+03</pdfrwt>
<totfact> 0.58828200E+00</totfact>
</mgrwt>
</event>
<event>
 4    5  0.1135580E-007  0.1391284E+04  0.7818608E-02  0.8990485E-01
          2   -1    0    0  501    0  0.00000000000E+00  0.00000000000E+00  0.29817663202E+04  0.29817663202E+04  0.25500000000E-02 0. -1.
         -2   -1    0    0    0  501 -0.00000000000E+00 -0.00000000000E+00 -0.18463433935E+04  0.18463433935E+04  0.25500000000E-02 0.  1.
    8880023    1    1    2    0    0  0.42951984739E+03  0.11477685447E+04 -0.14211877032E+04  0.19888299640E+04  0.65864270000E+03 0.  0.
    8880022    1    1    2    0    0 -0.42951984739E+03 -0.11477685447E+04  0.25566106299E+04  0.28392797498E+04  0.15294330000E+03 0.  0.
<mgrwt>
<rscale>  0 0.13504529E+04</rscale>
<asrwt>0</asrwt>
<pdfrwt beam="1">  1        2 0.45873328E+00 0.13912836E+04</pdfrwt>
<pdfrwt beam="2">  1       -2 0.28405283E+00 0.13912836E+04</pdfrwt>
<totfact> 0.67981520E-02</totfact>
</mgrwt>
</event>
<event>
 4    5  0.7289609E-008  0.9072201E+03  0.7818608E-02  0.9514539E-01
         -2   -1    0    0    0  501 -0.00000000000E+00  0.00000000000E+00  0.11244174245E+04  0.11244174245E+04  0.25500000000E-02 0.  1.
          2   -1    0    0  501    0  0.00000000000E+00 -0.00000000000E+00 -0.17050265416E+04  0.17050265416E+04  0.25500000000E-02 0. -1.
    8880023    1    1    2    0    0  0.57879367474E+03  0.23288629640E+03  0.86127997159E+03  0.12509402626E+04  0.65864270000E+03 0.  1.
    8880022    1    1    2    0    0 -0.57879367474E+03 -0.23288629640E+03 -0.14418890887E+04  0.15785037035E+04  0.15294330000E+03 0.  0.
<mgrwt>
<rscale>  0 0.83220358E+03</rscale>
<asrwt>0</asrwt>
<pdfrwt beam="1">  1        2 0.26231178E+00 0.90722012E+03</pdfrwt>
<pdfrwt beam="2">  1       -2 0.17298730E+00 0.90722012E+03</pdfrwt>
<totfact> 0.19921593E+00</totfact>
</mgrwt>
</event>
<event>
 4    5  0.7289609E-008  0.1343905E+04  0.7818608E-02  0.9028543E-01
          2   -1    0    0  501    0  0.00000000000E+00  0.00000000000E+00  0.44623966454E+03  0.44623966455E+03  0.25500000000E-02 0. -1.
         -2   -1    0    0    0  501 -0.00000000000E+00 -0.00000000000E+00 -0.40693548184E+04  0.40693548184E+04  0.25500000000E-02 0.  1.
    8880023    1    1    2    0    0 -0.19618684518E+03  0.11548943021E+04 -0.27012721889E+04  0.30171098376E+04  0.65864270000E+03 0.  1.
    8880022    1    1    2    0    0  0.19618684518E+03 -0.11548943021E+04 -0.92184296492E+03  0.14984846453E+04  0.15294330000E+03 0.  0.
<mgrwt>
<rscale>  0 0.13012895E+04</rscale>
<asrwt>0</asrwt>
<pdfrwt beam="1">  1        2 0.68652259E-01 0.13439049E+04</pdfrwt>
<pdfrwt beam="2">  1       -2 0.62605456E+00 0.13439049E+04</pdfrwt>
<totfact> 0.26963885E-02</totfact>
</mgrwt>
</event>
<event>
 4    5  0.7289609E-008  0.6841463E+03  0.7818608E-02  0.1007069E+00
          2   -1    0    0  501    0  0.00000000000E+00  0.00000000000E+00  0.79352709172E+03  0.79352709173E+03  0.25500000000E-02 0. -1.
         -2   -1    0    0    0  501 -0.00000000000E+00 -0.00000000000E+00 -0.49944123212E+03  0.49944123213E+03  0.25500000000E-02 0.  1.
    8880023    1    1    2    0    0  0.18235416815E+02 -0.18415584710E+03 -0.22570238773E+03  0.72041493637E+03  0.65864270000E+03 0.  1.
    8880022    1    1    2    0    0 -0.18235416815E+02  0.18415584710E+03  0.51978824733E+03  0.57255338749E+03  0.15294330000E+03 0.  0.
<mgrwt>
<rscale>  0 0.52656249E+03</rscale>
<asrwt>0</asrwt>
<pdfrwt beam="1">  1        2 0.12208109E+00 0.68414627E+03</pdfrwt>
<pdfrwt beam="2">  1       -2 0.76837113E-01 0.68414627E+03</pdfrwt>
<totfact> 0.53685643E+01</totfact>
</mgrwt>
</event>
<event>
 4    5  0.7289609E-008  0.9873815E+03  0.7818608E-02  0.9398256E-01
          2   -1    0    0  501    0  0.00000000000E+00  0.00000000000E+00  0.19579558195E+04  0.19579558195E+04  0.25500000000E-02 0. -1.
         -2   -1    0    0    0  501 -0.00000000000E+00 -0.00000000000E+00 -0.81743772365E+03  0.81743772366E+03  0.25500000000E-02 0.  1.
    8880023    1    1    2    0    0  0.32900407916E+03 -0.65792727585E+03 -0.39693162338E+03  0.10641789813E+04  0.65864270000E+03 0.  0.
    8880022    1    1    2    0    0 -0.32900407916E+03  0.65792727585E+03  0.15374497192E+04  0.17112145618E+04  0.15294330000E+03 0.  0.
<mgrwt>
<rscale>  0 0.92219354E+03</rscale>
<asrwt>0</asrwt>
<pdfrwt beam="1">  1        2 0.30122397E+00 0.98738148E+03</pdfrwt>
<pdfrwt beam="2">  1       -2 0.12575965E+00 0.98738148E+03</pdfrwt>
<totfact> 0.33289084E+00</totfact>
</mgrwt>
</event>
<event>
 4    5  0.8287651E-008  0.6954146E+03  0.7818608E-02  0.1001678E+00
         -2   -1    0    0    0  501 -0.00000000000E+00  0.00000000000E+00  0.10324533316E+04  0.10324533316E+04  0.25500000000E-02 0.  1.
          2   -1    0    0  501    0  0.00000000000E+00 -0.00000000000E+00 -0.25075784915E+04  0.25075784915E+04  0.25500000000E-02 0. -1.
    8880023    1    1    2    0    0 -0.21508632983E+03  0.59406398461E+02  0.90682200069E+03  0.11427718918E+04  0.65864270000E+03 0.  1.
    8880022    1    1    2    0    0  0.21508632983E+03 -0.59406398461E+02 -0.23819471606E+04  0.23972599313E+04  0.15294330000E+03 0.  0.
<mgrwt>
<rscale>  0 0.54920446E+03</rscale>
<asrwt>0</asrwt>
<pdfrwt beam="1">  1        2 0.38578130E+00 0.69541459E+03</pdfrwt>
<pdfrwt beam="2">  1       -2 0.15883898E+00 0.69541459E+03</pdfrwt>
<totfact> 0.94416956E-01</totfact>
</mgrwt>
</event>
<event>
 4    5  0.7289609E-008  0.9734842E+03  0.7818608E-02  0.9417101E-01
          2   -1    0    0  501    0  0.00000000000E+00  0.00000000000E+00  0.22704636621E+04  0.22704636621E+04  0.25500000000E-02 0. -1.
         -2   -1    0    0    0  501 -0.00000000000E+00 -0.00000000000E+00 -0.69774667759E+03  0.69774667759E+03  0.25500000000E-02 0.  1.
    8880023    1    1    2    0    0 -0.32467975538E+02 -0.71610550316E+03 -0.24877856833E+03  0.10047697465E+04  0.65864270000E+03 0.  1.
    8880022    1    1    2    0    0  0.32467975538E+02  0.71610550316E+03  0.18214955529E+04  0.19634405933E+04  0.15294330000E+03 0.  0.
<mgrwt>
<rscale>  0 0.90681569E+03</rscale>
<asrwt>0</asrwt>
<pdfrwt beam="1">  1        2 0.34930211E+00 0.97348419E+03</pdfrwt>
<pdfrwt beam="2">  1       -2 0.10734564E+00 0.97348419E+03</pdfrwt>
<totfact> 0.33090677E+00</totfact>
</mgrwt>
</event>
<event>
 4    5  0.7289609E-008  0.2224716E+04  0.7818608E-02  0.8518106E-01
         -2   -1    0    0    0  501 -0.00000000000E+00  0.00000000000E+00  0.19721891679E+04  0.19721891679E+04  0.25500000000E-02 0.  1.
          2   -1    0    0  501    0  0.00000000000E+00 -0.00000000000E+00 -0.35634995210E+04  0.35634995210E+04  0.25500000000E-02 0. -1.
    8880023    1    1    2    0    0 -0.17892808089E+04 -0.11463101363E+04 -0.23855908075E+04  0.32619635879E+04  0.65864270000E+03 0.  0.
    8880022    1    1    2    0    0  0.17892808089E+04  0.11463101363E+04  0.79428045436E+03  0.22737251010E+04  0.15294330000E+03 0.  0.
<mgrwt>
<rscale>  0 0.22007735E+04</rscale>
<asrwt>0</asrwt>
<pdfrwt beam="1">  1        2 0.54823069E+00 0.22247164E+04</pdfrwt>
<pdfrwt beam="2">  1       -2 0.30341372E+00 0.22247164E+04</pdfrwt>
<totfact> 0.19160923E-02</totfact>
</mgrwt>
</event>
<event>
 4    5  0.7289609E-008  0.7065522E+03  0.7818608E-02  0.9971034E-01
          2   -1    0    0  501    0  0.00000000000E+00  0.00000000000E+00  0.11416406457E+04  0.11416406457E+04  0.25500000000E-02 0. -1.
         -2   -1    0    0    0  501 -0.00000000000E+00 -0.00000000000E+00 -0.19943662507E+04  0.19943662507E+04  0.25500000000E-02 0.  1.
    8880023    1    1    2    0    0  0.45581507105E+02 -0.25165091551E+03 -0.19105500248E+04  0.20370118950E+04  0.65864270000E+03 0.  1.
    8880022    1    1    2    0    0 -0.45581507105E+02  0.25165091551E+03  0.10578244198E+04  0.10989950014E+04  0.15294330000E+03 0.  0.
<mgrwt>
<rscale>  0 0.56938799E+03</rscale>
<asrwt>0</asrwt>
<pdfrwt beam="1">  1        2 0.17563702E+00 0.70655224E+03</pdfrwt>
<pdfrwt beam="2">  1       -2 0.30682558E+00 0.70655224E+03</pdfrwt>
<totfact> 0.62842763E-01</totfact>
</mgrwt>
</event>
<event>
 4    5  0.7289609E-008  0.1241421E+04  0.7818608E-02  0.9117873E-01
         -2   -1    0    0    0  501 -0.00000000000E+00  0.00000000000E+00  0.23762552037E+04  0.23762552037E+04  0.25500000000E-02 0.  1.
          2   -1    0    0  501    0  0.00000000000E+00 -0.00000000000E+00 -0.81804769824E+03  0.81804769825E+03  0.25500000000E-02 0. -1.
    8880023    1    1    2    0    0 -0.35528787954E+03 -0.99049857482E+03  0.17174038354E+04  0.21191043024E+04  0.65864270000E+03 0.  0.
    8880022    1    1    2    0    0  0.35528787954E+03  0.99049857482E+03 -0.15919632998E+03  0.10751985996E+04  0.15294330000E+03 0.  0.
<mgrwt>
<rscale>  0 0.11942858E+04</rscale>
<asrwt>0</asrwt>
<pdfrwt beam="1">  1        2 0.12585349E+00 0.12414214E+04</pdfrwt>
<pdfrwt beam="2">  1       -2 0.36557772E+00 0.12414214E+04</pdfrwt>
<totfact> 0.40642454E-01</totfact>
</mgrwt>
</event>
<event>
 4    5  0.7289609E-008  0.7897563E+03  0.7818608E-02  0.9733399E-01
         -2   -1    0    0    0  501 -0.00000000000E+00  0.00000000000E+00  0.40637812261E+03  0.40637812262E+03  0.25500000000E-02 0.  1.
          2   -1    0    0  501    0  0.00000000000E+00 -0.00000000000E+00 -0.19711212819E+04  0.19711212819E+04  0.25500000000E-02 0. -1.
    8880023    1    1    2    0    0 -0.42626201347E+03  0.90584308897E+02 -0.47122171189E+02  0.79116087266E+03  0.65864270000E+03 0.  1.
    8880022    1    1    2    0    0  0.42626201347E+03 -0.90584308897E+02 -0.15176209881E+04  0.15863385319E+04  0.15294330000E+03 0.  0.
<mgrwt>
<rscale>  0 0.69062578E+03</rscale>
<asrwt>0</asrwt>
<pdfrwt beam="1">  1        2 0.30324942E+00 0.78975631E+03</pdfrwt>
<pdfrwt beam="2">  1       -2 0.62519712E-01 0.78975631E+03</pdfrwt>
<totfact> 0.16916590E+01</totfact>
</mgrwt>
</event>
<event>
 4    5  0.7289609E-008  0.8364605E+03  0.7818608E-02  0.9636891E-01
         -2   -1    0    0    0  501 -0.00000000000E+00  0.00000000000E+00  0.29359487577E+04  0.29359487577E+04  0.25500000000E-02 0.  1.
          2   -1    0    0  501    0  0.00000000000E+00 -0.00000000000E+00 -0.47282152279E+03  0.47282152280E+03  0.25500000000E-02 0. -1.
    8880023    1    1    2    0    0 -0.28585657977E+03  0.42911764122E+03  0.26959421424E+04  0.28227238929E+04  0.65864270000E+03 0.  0.
    8880022    1    1    2    0    0  0.28585657977E+03 -0.42911764122E+03 -0.23281490752E+03  0.58604638756E+03  0.15294330000E+03 0.  0.
<mgrwt>
<rscale>  0 0.74901892E+03</rscale>
<asrwt>0</asrwt>
<pdfrwt beam="1">  1        2 0.72741772E-01 0.83646048E+03</pdfrwt>
<pdfrwt beam="2">  1       -2 0.45168443E+00 0.83646048E+03</pdfrwt>
<totfact> 0.23312960E-01</totfact>
</mgrwt>
</event>
<event>
 4    5  0.7289609E-008  0.9964017E+03  0.7818608E-02  0.9386281E-01
          2   -1    0    0  501    0  0.00000000000E+00  0.00000000000E+00  0.15561829047E+04  0.15561829047E+04  0.25500000000E-02 0. -1.
         -2   -1    0    0    0  501 -0.00000000000E+00 -0.00000000000E+00 -0.82474017291E+03  0.82474017291E+03  0.25500000000E-02 0.  1.
    8880023    1    1    2    0    0 -0.53492779799E+02 -0.74575106040E+03 -0.35107741501E+03  0.10564429370E+04  0.65864270000E+03 0.  0.
    8880022    1    1    2    0    0  0.53492779799E+02  0.74575106040E+03  0.10825201468E+04  0.13244801406E+04  0.15294330000E+03 0.  0.
<mgrwt>
<rscale>  0 0.93213390E+03</rscale>
<asrwt>0</asrwt>
<pdfrwt beam="1">  1        2 0.23941275E+00 0.99640169E+03</pdfrwt>
<pdfrwt beam="2">  1       -2 0.12688310E+00 0.99640169E+03</pdfrwt>
<totfact> 0.54191175E+00</totfact>
</mgrwt>
</event>
<event>
 4    5  0.7289609E-008  0.7038877E+03  0.7818608E-02  0.9981440E-01
          2   -1    0    0  501    0  0.00000000000E+00  0.00000000000E+00  0.68204220764E+03  0.68204220764E+03  0.25500000000E-02 0. -1.
         -2   -1    0    0    0  501 -0.00000000000E+00 -0.00000000000E+00 -0.12481095638E+04  0.12481095638E+04  0.25500000000E-02 0.  1.
    8880023    1    1    2    0    0  0.21123892990E+02  0.24738921646E+03 -0.11091963553E+04  0.13136873312E+04  0.65864270000E+03 0.  1.
    8880022    1    1    2    0    0 -0.21123892990E+02 -0.24738921646E+03  0.54312899918E+03  0.61646444021E+03  0.15294330000E+03 0.  0.
<mgrwt>
<rscale>  0 0.56471585E+03</rscale>
<asrwt>0</asrwt>
<pdfrwt beam="1">  1        2 0.10492957E+00 0.70388767E+03</pdfrwt>
<pdfrwt beam="2">  1       -2 0.19201686E+00 0.70388767E+03</pdfrwt>
<totfact> 0.65242170E+00</totfact>
</mgrwt>
</event>
<event>
 4    5  0.7289609E-008  0.8889284E+03  0.7818608E-02  0.9544044E-01
          2   -1    0    0  501    0  0.00000000000E+00  0.00000000000E+00  0.84385400621E+03  0.84385400621E+03  0.25500000000E-02 0. -1.
         -2   -1    0    0    0  501 -0.00000000000E+00 -0.00000000000E+00 -0.71861723742E+03  0.71861723743E+03  0.25500000000E-02 0.  1.
    8880023    1    1    2    0    0  0.59499836148E+03  0.48583757247E+02  0.27078680398E+03  0.92925730081E+03  0.65864270000E+03 0. -1.
    8880022    1    1    2    0    0 -0.59499836148E+03 -0.48583757247E+02 -0.14555003520E+03  0.63321394283E+03  0.15294330000E+03 0. -1.
<mgrwt>
<rscale>  0 0.81113078E+03</rscale>
<asrwt>0</asrwt>
<pdfrwt beam="1">  1        2 0.12982369E+00 0.88892836E+03</pdfrwt>
<pdfrwt beam="2">  1       -2 0.11055650E+00 0.88892836E+03</pdfrwt>
<totfact> 0.20852855E+01</totfact>
</mgrwt>
</event>
<event>
 4    5  0.7289609E-008  0.1780450E+04  0.7818608E-02  0.8733428E-01
          2   -1    0    0  501    0  0.00000000000E+00  0.00000000000E+00  0.30328533044E+04  0.30328533044E+04  0.25500000000E-02 0. -1.
         -2   -1    0    0    0  501 -0.00000000000E+00 -0.00000000000E+00 -0.10539331559E+04  0.10539331559E+04  0.25500000000E-02 0.  1.
    8880023    1    1    2    0    0 -0.13527872248E+04  0.95192385715E+03  0.46725399008E+03  0.18407413732E+04  0.65864270000E+03 0.  0.
    8880022    1    1    2    0    0  0.13527872248E+04 -0.95192385715E+03  0.15116661584E+04  0.22460450870E+04  0.15294330000E+03 0.  0.
<mgrwt>
<rscale>  0 0.17498580E+04</rscale>
<asrwt>0</asrwt>
<pdfrwt beam="1">  1        2 0.46659281E+00 0.17804501E+04</pdfrwt>
<pdfrwt beam="2">  1       -2 0.16214356E+00 0.17804501E+04</pdfrwt>
<totfact> 0.37041241E-01</totfact>
</mgrwt>
</event>
<event>
 4    5  0.7289609E-008  0.8203456E+03  0.7818608E-02  0.9668417E-01
         -2   -1    0    0    0  501 -0.00000000000E+00  0.00000000000E+00  0.10111537593E+04  0.10111537593E+04  0.25500000000E-02 0.  1.
          2   -1    0    0  501    0  0.00000000000E+00 -0.00000000000E+00 -0.11545340920E+04  0.11545340920E+04  0.25500000000E-02 0. -1.
    8880023    1    1    2    0    0  0.73805701114E+02 -0.48343505723E+03  0.76568642793E+03  0.11221598140E+04  0.65864270000E+03 0.  0.
    8880022    1    1    2    0    0 -0.73805701114E+02  0.48343505723E+03 -0.90906676073E+03  0.10435280373E+04  0.15294330000E+03 0.  0.
<mgrwt>
<rscale>  0 0.72928758E+03</rscale>
<asrwt>0</asrwt>
<pdfrwt beam="1">  1        2 0.17762063E+00 0.82034562E+03</pdfrwt>
<pdfrwt beam="2">  1       -2 0.15556212E+00 0.82034562E+03</pdfrwt>
<totfact> 0.55481929E+00</totfact>
</mgrwt>
</event>
<event>
 4    5  0.7289609E-008  0.9217627E+03  0.7818608E-02  0.9491962E-01
         -2   -1    0    0    0  501 -0.00000000000E+00  0.00000000000E+00  0.81515592947E+03  0.81515592947E+03  0.25500000000E-02 0.  1.
          2   -1    0    0  501    0  0.00000000000E+00 -0.00000000000E+00 -0.14767587473E+04  0.14767587473E+04  0.25500000000E-02 0. -1.
    8880023    1    1    2    0    0 -0.61682234431E+03  0.18805970533E+03  0.42823810262E+03  0.10163829672E+04  0.65864270000E+03 0.  1.
    8880022    1    1    2    0    0  0.61682234431E+03 -0.18805970533E+03 -0.10898409204E+04  0.12755317095E+04  0.15294330000E+03 0.  0.
<mgrwt>
<rscale>  0 0.84879065E+03</rscale>
<asrwt>0</asrwt>
<pdfrwt beam="1">  1        2 0.22719365E+00 0.92176269E+03</pdfrwt>
<pdfrwt beam="2">  1       -2 0.12540860E+00 0.92176269E+03</pdfrwt>
<totfact> 0.62365676E+00</totfact>
</mgrwt>
</event>
<event>
 4    5  0.7289609E-008  0.1568571E+04  0.7818608E-02  0.8862674E-01
          2   -1    0    0  501    0  0.00000000000E+00  0.00000000000E+00  0.30420761769E+04  0.30420761769E+04  0.25500000000E-02 0. -1.
         -2   -1    0    0    0  501 -0.00000000000E+00 -0.00000000000E+00 -0.12110187203E+04  0.12110187204E+04  0.25500000000E-02 0.  1.
    8880023    1    1    2    0    0  0.69094325243E+03  0.12446698012E+04 -0.38464103368E+03  0.16150431645E+04  0.65864270000E+03 0.  1.
    8880022    1    1    2    0    0 -0.69094325243E+03 -0.12446698012E+04  0.22156984902E+04  0.26380517327E+04  0.15294330000E+03 0.  0.
<mgrwt>
<rscale>  0 0.15331948E+04</rscale>
<asrwt>0</asrwt>
<pdfrwt beam="1">  1        2 0.46801172E+00 0.15685712E+04</pdfrwt>
<pdfrwt beam="2">  1       -2 0.18631057E+00 0.15685712E+04</pdfrwt>
<totfact> 0.25175757E-01</totfact>
</mgrwt>
</event>
<event>
 4    5  0.7289609E-008  0.9027235E+03  0.7818608E-02  0.9521674E-01
         -2   -1    0    0    0  501 -0.00000000000E+00  0.00000000000E+00  0.53987886655E+03  0.53987886656E+03  0.25500000000E-02 0.  1.
          2   -1    0    0  501    0  0.00000000000E+00 -0.00000000000E+00 -0.18364352692E+04  0.18364352692E+04  0.25500000000E-02 0. -1.
    8880023    1    1    2    0    0 -0.61724850473E+03  0.10187677921E+02  0.32088852024E+02  0.90329364332E+03  0.65864270000E+03 0.  1.
    8880022    1    1    2    0    0  0.61724850473E+03 -0.10187677921E+02 -0.13286452547E+04  0.14730204925E+04  0.15294330000E+03 0.  0.
<mgrwt>
<rscale>  0 0.82704605E+03</rscale>
<asrwt>0</asrwt>
<pdfrwt beam="1">  1        2 0.28252850E+00 0.90272350E+03</pdfrwt>
<pdfrwt beam="2">  1       -2 0.83058288E-01 0.90272350E+03</pdfrwt>
<totfact> 0.10573904E+01</totfact>
</mgrwt>
</event>
<event>
 4    5  0.7289609E-008  0.7739990E+03  0.7818608E-02  0.9770127E-01
          2   -1    0    0  501    0  0.00000000000E+00  0.00000000000E+00  0.14815871519E+04  0.14815871519E+04  0.25500000000E-02 0. -1.
         -2   -1    0    0    0  501 -0.00000000000E+00 -0.00000000000E+00 -0.14107709456E+04  0.14107709456E+04  0.25500000000E-02 0.  1.
    8880023    1    1    2    0    0  0.40439445830E+03 -0.41585161931E+02 -0.12676036243E+04  0.14852250194E+04  0.65864270000E+03 0.  1.
    8880022    1    1    2    0    0 -0.40439445830E+03  0.41585161931E+02  0.13384198306E+04  0.14071330781E+04  0.15294330000E+03 0.  0.
<mgrwt>
<rscale>  0 0.66990632E+03</rscale>
<asrwt>0</asrwt>
<pdfrwt beam="1">  1        2 0.22793648E+00 0.77399897E+03</pdfrwt>
<pdfrwt beam="2">  1       -2 0.21704168E+00 0.77399897E+03</pdfrwt>
<totfact> 0.13828246E+00</totfact>
</mgrwt>
</event>
<event>
 4    5  0.7289609E-008  0.1174536E+04  0.7818608E-02  0.9182281E-01
          2   -1    0    0  501    0  0.00000000000E+00  0.00000000000E+00  0.17572499469E+04  0.17572499469E+04  0.25500000000E-02 0. -1.
         -2   -1    0    0    0  501 -0.00000000000E+00 -0.00000000000E+00 -0.14748016344E+04  0.14748016344E+04  0.25500000000E-02 0.  1.
    8880023    1    1    2    0    0  0.88062286248E+03 -0.41258759482E+03 -0.10499592075E+04  0.15754204813E+04  0.65864270000E+03 0.  0.
    8880022    1    1    2    0    0 -0.88062286248E+03  0.41258759482E+03  0.13324075200E+04  0.16566311001E+04  0.15294330000E+03 0.  0.
<mgrwt>
<rscale>  0 0.11238202E+04</rscale>
<asrwt>0</asrwt>
<pdfrwt beam="1">  1        2 0.27034614E+00 0.11745362E+04</pdfrwt>
<pdfrwt beam="2">  1       -2 0.22689256E+00 0.11745362E+04</pdfrwt>
<totfact> 0.79373200E-01</totfact>
</mgrwt>
</event>
<event>
 4    5  0.7289609E-008  0.6990866E+03  0.7818608E-02  0.1000101E+00
          2   -1    0    0  501    0  0.00000000000E+00  0.00000000000E+00  0.73496415670E+03  0.73496415671E+03  0.25500000000E-02 0. -1.
         -2   -1    0    0    0  501 -0.00000000000E+00 -0.00000000000E+00 -0.11411827719E+04  0.11411827719E+04  0.25500000000E-02 0.  1.
    8880023    1    1    2    0    0  0.19346305116E+03 -0.13222683340E+03 -0.99976829876E+03  0.12199421073E+04  0.65864270000E+03 0.  1.
    8880022    1    1    2    0    0 -0.19346305116E+03  0.13222683340E+03  0.59354968358E+03  0.65620482132E+03  0.15294330000E+03 0.  0.
<mgrwt>
<rscale>  0 0.55605905E+03</rscale>
<asrwt>0</asrwt>
<pdfrwt beam="1">  1        2 0.11307141E+00 0.69908661E+03</pdfrwt>
<pdfrwt beam="2">  1       -2 0.17556658E+00 0.69908661E+03</pdfrwt>
<totfact> 0.76771033E+00</totfact>
</mgrwt>
</event>
<event>
 4    5  0.7289609E-008  0.1217988E+04  0.7818608E-02  0.9139832E-01
         -2   -1    0    0    0  501 -0.00000000000E+00  0.00000000000E+00  0.62347983768E+03  0.62347983768E+03  0.25500000000E-02 0.  1.
          2   -1    0    0  501    0  0.00000000000E+00 -0.00000000000E+00 -0.30089495669E+04  0.30089495669E+04  0.25500000000E-02 0. -1.
    8880023    1    1    2    0    0  0.96376774393E+03  0.34761460448E+03 -0.22879558124E+04  0.25919560534E+04  0.65864270000E+03 0. -1.
    8880022    1    1    2    0    0 -0.96376774393E+03 -0.34761460448E+03 -0.97513916900E+02  0.10404733512E+04  0.15294330000E+03 0.  1.
<mgrwt>
<rscale>  0 0.11696637E+04</rscale>
<asrwt>0</asrwt>
<pdfrwt beam="1">  1        2 0.46291531E+00 0.12179878E+04</pdfrwt>
<pdfrwt beam="2">  1       -2 0.95919977E-01 0.12179878E+04</pdfrwt>
<totfact> 0.15488845E+00</totfact>
</mgrwt>
</event>
<event>
 4    5  0.7289609E-008  0.1523267E+04  0.7818608E-02  0.8893379E-01
         -2   -1    0    0    0  501 -0.00000000000E+00  0.00000000000E+00  0.11094362065E+04  0.11094362065E+04  0.25500000000E-02 0.  1.
          2   -1    0    0  501    0  0.00000000000E+00 -0.00000000000E+00 -0.21881143358E+04  0.21881143358E+04  0.25500000000E-02 0. -1.
    8880023    1    1    2    0    0 -0.10278891961E+04  0.91102952121E+03 -0.11577324286E+04  0.19132918153E+04  0.65864270000E+03 0.  0.
    8880022    1    1    2    0    0  0.10278891961E+04 -0.91102952121E+03  0.79054299317E+02  0.13842587270E+04  0.15294330000E+03 0.  0.
<mgrwt>
<rscale>  0 0.14866506E+04</rscale>
<asrwt>0</asrwt>
<pdfrwt beam="1">  1        2 0.33663297E+00 0.15232666E+04</pdfrwt>
<pdfrwt beam="2">  1       -2 0.17068249E+00 0.15232666E+04</pdfrwt>
<totfact> 0.10385024E+00</totfact>
</mgrwt>
</event>
<event>
 4    5  0.7289609E-008  0.1554614E+04  0.7818608E-02  0.8872003E-01
         -2   -1    0    0    0  501 -0.00000000000E+00  0.00000000000E+00  0.15164621051E+04  0.15164621051E+04  0.25500000000E-02 0.  1.
          2   -1    0    0  501    0  0.00000000000E+00 -0.00000000000E+00 -0.19836188697E+04  0.19836188697E+04  0.25500000000E-02 0. -1.
    8880023    1    1    2    0    0  0.74855437076E+03 -0.11927624901E+04 -0.11440283643E+04  0.19301883608E+04  0.65864270000E+03 0.  0.
    8880022    1    1    2    0    0 -0.74855437076E+03  0.11927624901E+04  0.67687159981E+03  0.15698926140E+04  0.15294330000E+03 0.  0.
<mgrwt>
<rscale>  0 0.15188659E+04</rscale>
<asrwt>0</asrwt>
<pdfrwt beam="1">  1        2 0.30517213E+00 0.15546145E+04</pdfrwt>
<pdfrwt beam="2">  1       -2 0.23330186E+00 0.15546145E+04</pdfrwt>
<totfact> 0.51877514E-01</totfact>
</mgrwt>
</event>
<event>
 4    5  0.7289609E-008  0.1497038E+04  0.7818608E-02  0.8911731E-01
          2   -1    0    0  501    0  0.00000000000E+00  0.00000000000E+00  0.36545468074E+04  0.36545468074E+04  0.25500000000E-02 0. -1.
         -2   -1    0    0    0  501 -0.00000000000E+00 -0.00000000000E+00 -0.58233524156E+03  0.58233524157E+03  0.25500000000E-02 0.  1.
    8880023    1    1    2    0    0  0.66839368784E+03 -0.11664311454E+04  0.11574152212E+04  0.18922822040E+04  0.65864270000E+03 0. -1.
    8880022    1    1    2    0    0 -0.66839368784E+03  0.11664311454E+04  0.19147963446E+04  0.23445998450E+04  0.15294330000E+03 0.  0.
<mgrwt>
<rscale>  0 0.14596603E+04</rscale>
<asrwt>0</asrwt>
<pdfrwt beam="1">  1        2 0.56223798E+00 0.14970377E+04</pdfrwt>
<pdfrwt beam="2">  1       -2 0.89590036E-01 0.14970377E+04</pdfrwt>
<totfact> 0.65082463E-01</totfact>
</mgrwt>
</event>
<event>
 4    5  0.7289609E-008  0.1478995E+04  0.7818608E-02  0.8924613E-01
         -2   -1    0    0    0  501 -0.00000000000E+00  0.00000000000E+00  0.14148014580E+04  0.14148014580E+04  0.25500000000E-02 0.  1.
          2   -1    0    0  501    0  0.00000000000E+00 -0.00000000000E+00 -0.23242351764E+04  0.23242351764E+04  0.25500000000E-02 0. -1.
    8880023    1    1    2    0    0  0.12762329265E+04 -0.35333376957E+03  0.71077497645E+03  0.16409224566E+04  0.65864270000E+03 0.  0.
    8880022    1    1    2    0    0 -0.12762329265E+04  0.35333376957E+03 -0.16202086948E+04  0.20981141778E+04  0.15294330000E+03 0.  0.
<mgrwt>
<rscale>  0 0.14410734E+04</rscale>
<asrwt>0</asrwt>
<pdfrwt beam="1">  1        2 0.35757464E+00 0.14789947E+04</pdfrwt>
<pdfrwt beam="2">  1       -2 0.21766176E+00 0.14789947E+04</pdfrwt>
<totfact> 0.42245747E-01</totfact>
</mgrwt>
</event>
<event>
 4    5  0.7289609E-008  0.7865043E+03  0.7818608E-02  0.9740774E-01
         -2   -1    0    0    0  501 -0.00000000000E+00  0.00000000000E+00  0.17921360258E+03  0.17921360260E+03  0.25500000000E-02 0.  1.
          2   -1    0    0  501    0  0.00000000000E+00 -0.00000000000E+00 -0.23952438919E+04  0.23952438919E+04  0.25500000000E-02 0. -1.
    8880023    1    1    2    0    0  0.16956026294E+03 -0.39500405392E+03 -0.97793332799E+03  0.12549672050E+04  0.65864270000E+03 0.  1.
    8880022    1    1    2    0    0 -0.16956026294E+03  0.39500405392E+03 -0.12380969613E+04  0.13194902895E+04  0.15294330000E+03 0.  0.
<mgrwt>
<rscale>  0 0.68640155E+03</rscale>
<asrwt>0</asrwt>
<pdfrwt beam="1">  1        2 0.36849904E+00 0.78650435E+03</pdfrwt>
<pdfrwt beam="2">  1       -2 0.27571325E-01 0.78650435E+03</pdfrwt>
<totfact> 0.49559427E+01</totfact>
</mgrwt>
</event>
<event>
 4    5  0.7289609E-008  0.1026373E+04  0.7818608E-02  0.9347839E-01
          2   -1    0    0  501    0  0.00000000000E+00  0.00000000000E+00  0.29013332160E+04  0.29013332160E+04  0.25500000000E-02 0. -1.
         -2   -1    0    0    0  501 -0.00000000000E+00 -0.00000000000E+00 -0.37706117116E+03  0.37706117117E+03  0.25500000000E-02 0.  1.
    8880023    1    1    2    0    0 -0.56253179835E+03  0.55062617549E+03  0.58853514714E+03  0.11831377920E+04  0.65864270000E+03 0.  0.
    8880022    1    1    2    0    0  0.56253179835E+03 -0.55062617549E+03  0.19357368977E+04  0.20952565952E+04  0.15294330000E+03 0.  0.
<mgrwt>
<rscale>  0 0.96495530E+03</rscale>
<asrwt>0</asrwt>
<pdfrwt beam="1">  1        2 0.44635895E+00 0.10263729E+04</pdfrwt>
<pdfrwt beam="2">  1       -2 0.58009411E-01 0.10263729E+04</pdfrwt>
<totfact> 0.56701650E+00</totfact>
</mgrwt>
</event>
<event>
 4    5  0.9810689E-008  0.6594699E+03  0.7818608E-02  0.1024706E+00
          2   -1    0    0  501    0  0.00000000000E+00  0.00000000000E+00  0.22922353465E+04  0.22922353465E+04  0.25500000000E-02 0. -1.
         -2   -1    0    0    0  501 -0.00000000000E+00 -0.00000000000E+00 -0.22811975847E+04  0.22811975847E+04  0.25500000000E-02 0.  1.
    8880023    1    1    2    0    0  0.25514741416E+02 -0.20960901803E+02 -0.22307522433E+04  0.23261891881E+04  0.65864270000E+03 0.  1.
    8880022    1    1    2    0    0 -0.25514741416E+02  0.20960901803E+02  0.22417900050E+04  0.22472437432E+04  0.15294330000E+03 0.  0.
<mgrwt>
<rscale>  0 0.46025884E+03</rscale>
<asrwt>0</asrwt>
<pdfrwt beam="1">  1        2 0.35265159E+00 0.65946991E+03</pdfrwt>
<pdfrwt beam="2">  1       -2 0.35095348E+00 0.65946991E+03</pdfrwt>
<totfact> 0.78645770E-02</totfact>
</mgrwt>
</event>
<event>
 4    5  0.7289609E-008  0.8531759E+03  0.7818608E-02  0.9605819E-01
          2   -1    0    0  501    0  0.00000000000E+00  0.00000000000E+00  0.20048931541E+04  0.20048931541E+04  0.25500000000E-02 0. -1.
         -2   -1    0    0    0  501 -0.00000000000E+00 -0.00000000000E+00 -0.41994533827E+03  0.41994533828E+03  0.25500000000E-02 0.  1.
    8880023    1    1    2    0    0  0.52856636451E+03 -0.12131152364E+03  0.12799449219E+03  0.86272341092E+03  0.65864270000E+03 0.  1.
    8880022    1    1    2    0    0 -0.52856636451E+03  0.12131152364E+03  0.14569533237E+04  0.15621150815E+04  0.15294330000E+03 0.  0.
<mgrwt>
<rscale>  0 0.76912208E+03</rscale>
<asrwt>0</asrwt>
<pdfrwt beam="1">  1        2 0.30844510E+00 0.85317589E+03</pdfrwt>
<pdfrwt beam="2">  1       -2 0.64606976E-01 0.85317589E+03</pdfrwt>
<totfact> 0.14987224E+01</totfact>
</mgrwt>
</event>
<event>
 4    5  0.7289609E-008  0.9786293E+03  0.7818608E-02  0.9410067E-01
          2   -1    0    0  501    0  0.00000000000E+00  0.00000000000E+00  0.24326427601E+04  0.24326427601E+04  0.25500000000E-02 0. -1.
         -2   -1    0    0    0  501 -0.00000000000E+00 -0.00000000000E+00 -0.51428353138E+03  0.51428353138E+03  0.25500000000E-02 0.  1.
    8880023    1    1    2    0    0 -0.96634097442E+02  0.71733317851E+03  0.99866706872E+02  0.98371164636E+03  0.65864270000E+03 0.  0.
    8880022    1    1    2    0    0  0.96634097442E+02 -0.71733317851E+03  0.18184925218E+04  0.19632146451E+04  0.15294330000E+03 0.  0.
<mgrwt>
<rscale>  0 0.91251813E+03</rscale>
<asrwt>0</asrwt>
<pdfrwt beam="1">  1        2 0.37425273E+00 0.97862927E+03</pdfrwt>
<pdfrwt beam="2">  1       -2 0.79120543E-01 0.97862927E+03</pdfrwt>
<totfact> 0.54598575E+00</totfact>
</mgrwt>
</event>
<event>
 4    5  0.7289609E-008  0.9997860E+03  0.7818608E-02  0.9381838E-01
          2   -1    0    0  501    0  0.00000000000E+00  0.00000000000E+00  0.36603135094E+04  0.36603135094E+04  0.25500000000E-02 0. -1.
         -2   -1    0    0    0  501 -0.00000000000E+00 -0.00000000000E+00 -0.55961867343E+03  0.55961867344E+03  0.25500000000E-02 0.  1.
    8880023    1    1    2    0    0  0.74583144010E+03  0.97454350995E+02 -0.26278784015E+02  0.10001313255E+04  0.65864270000E+03 0.  0.
    8880022    1    1    2    0    0 -0.74583144010E+03 -0.97454350995E+02  0.31269736200E+04  0.32198008573E+04  0.15294330000E+03 0.  0.
<mgrwt>
<rscale>  0 0.93585563E+03</rscale>
<asrwt>0</asrwt>
<pdfrwt beam="1">  1        2 0.56312516E+00 0.99978602E+03</pdfrwt>
<pdfrwt beam="2">  1       -2 0.86095180E-01 0.99978602E+03</pdfrwt>
<totfact> 0.75969368E-01</totfact>
</mgrwt>
</event>
<event>
 4    5  0.7289609E-008  0.9996134E+03  0.7818608E-02  0.9382064E-01
          2   -1    0    0  501    0  0.00000000000E+00  0.00000000000E+00  0.24293531666E+04  0.24293531666E+04  0.25500000000E-02 0. -1.
         -2   -1    0    0    0  501 -0.00000000000E+00 -0.00000000000E+00 -0.90964810439E+03  0.90964810440E+03  0.25500000000E-02 0.  1.
    8880023    1    1    2    0    0  0.72286060717E+03  0.20709736266E+03  0.21337021942E+04  0.23562495698E+04  0.65864270000E+03 0.  0.
    8880022    1    1    2    0    0 -0.72286060717E+03 -0.20709736266E+03 -0.61399713207E+03  0.98275170121E+03  0.15294330000E+03 0.  0.
<mgrwt>
<rscale>  0 0.93566592E+03</rscale>
<asrwt>0</asrwt>
<pdfrwt beam="1">  1        2 0.37374664E+00 0.99961342E+03</pdfrwt>
<pdfrwt beam="2">  1       -2 0.13994586E+00 0.99961342E+03</pdfrwt>
<totfact> 0.13815115E+00</totfact>
</mgrwt>
</event>
<event>
 4    5  0.7289609E-008  0.1542827E+04  0.7818608E-02  0.8879972E-01
          2   -1    0    0  501    0  0.00000000000E+00  0.00000000000E+00  0.15114173995E+04  0.15114173995E+04  0.25500000000E-02 0. -1.
         -2   -1    0    0    0  501 -0.00000000000E+00 -0.00000000000E+00 -0.19232131333E+04  0.19232131333E+04  0.25500000000E-02 0.  1.
    8880023    1    1    2    0    0  0.13642325229E+04  0.29218688301E+03 -0.10768896555E+04  0.18814901242E+04  0.65864270000E+03 0.  0.
    8880022    1    1    2    0    0 -0.13642325229E+04 -0.29218688301E+03  0.66509392169E+03  0.15531404086E+04  0.15294330000E+03 0.  0.
<mgrwt>
<rscale>  0 0.15067570E+04</rscale>
<asrwt>0</asrwt>
<pdfrwt beam="1">  1        2 0.23252575E+00 0.15428265E+04</pdfrwt>
<pdfrwt beam="2">  1       -2 0.29587894E+00 0.15428265E+04</pdfrwt>
<totfact> 0.39450882E-01</totfact>
</mgrwt>
</event>
<event>
 4    5  0.7289609E-008  0.9704521E+03  0.7818608E-02  0.9421279E-01
          2   -1    0    0  501    0  0.00000000000E+00  0.00000000000E+00  0.19679224251E+04  0.19679224251E+04  0.25500000000E-02 0. -1.
         -2   -1    0    0    0  501 -0.00000000000E+00 -0.00000000000E+00 -0.66806099565E+03  0.66806099565E+03  0.25500000000E-02 0.  1.
    8880023    1    1    2    0    0  0.36819942394E+03 -0.61024274381E+03 -0.17937746569E+03  0.98689082660E+03  0.65864270000E+03 0.  1.
    8880022    1    1    2    0    0 -0.36819942394E+03  0.61024274381E+03  0.14792388951E+04  0.16490925941E+04  0.15294330000E+03 0.  0.
<mgrwt>
<rscale>  0 0.90344983E+03</rscale>
<asrwt>0</asrwt>
<pdfrwt beam="1">  1        2 0.30275730E+00 0.97045207E+03</pdfrwt>
<pdfrwt beam="2">  1       -2 0.10277862E+00 0.97045207E+03</pdfrwt>
<totfact> 0.54052558E+00</totfact>
</mgrwt>
</event>
<event>
 4    5  0.7289609E-008  0.1485082E+04  0.7818608E-02  0.8920243E-01
         -2   -1    0    0    0  501 -0.00000000000E+00  0.00000000000E+00  0.75122002370E+03  0.75122002371E+03  0.25500000000E-02 0.  1.
          2   -1    0    0  501    0  0.00000000000E+00 -0.00000000000E+00 -0.34752473815E+04  0.34752473815E+04  0.25500000000E-02 0. -1.
    8880023    1    1    2    0    0  0.28219261238E+02 -0.13307368724E+04 -0.24407571690E+04  0.28570549023E+04  0.65864270000E+03 0.  0.
    8880022    1    1    2    0    0 -0.28219261238E+02  0.13307368724E+04 -0.28327018876E+03  0.13694125029E+04  0.15294330000E+03 0.  0.
<mgrwt>
<rscale>  0 0.14473456E+04</rscale>
<asrwt>0</asrwt>
<pdfrwt beam="1">  1        2 0.53465343E+00 0.14850815E+04</pdfrwt>
<pdfrwt beam="2">  1       -2 0.11557231E+00 0.14850815E+04</pdfrwt>
<totfact> 0.47323590E-01</totfact>
</mgrwt>
</event>
<event>
 4    5  0.7289609E-008  0.7148336E+03  0.7818608E-02  0.9940471E-01
          2   -1    0    0  501    0  0.00000000000E+00  0.00000000000E+00  0.16272061755E+04  0.16272061755E+04  0.25500000000E-02 0. -1.
         -2   -1    0    0    0  501 -0.00000000000E+00 -0.00000000000E+00 -0.34516863333E+03  0.34516863334E+03  0.25500000000E-02 0.  1.
    8880023    1    1    2    0    0 -0.25880181592E+03 -0.10098781322E+03  0.68526141450E+02  0.71811068553E+03  0.65864270000E+03 0.  1.
    8880022    1    1    2    0    0  0.25880181592E+03  0.10098781322E+03  0.12135114007E+04  0.12542641233E+04  0.15294330000E+03 0.  0.
<mgrwt>
<rscale>  0 0.58339341E+03</rscale>
<asrwt>0</asrwt>
<pdfrwt beam="1">  1        2 0.25033941E+00 0.71483363E+03</pdfrwt>
<pdfrwt beam="2">  1       -2 0.53102868E-01 0.71483363E+03</pdfrwt>
<totfact> 0.37051559E+01</totfact>
</mgrwt>
</event>
<event>
 4    5  0.7289609E-008  0.9840065E+03  0.7818608E-02  0.9402788E-01
         -2   -1    0    0    0  501 -0.00000000000E+00  0.00000000000E+00  0.40396295466E+03  0.40396295466E+03  0.25500000000E-02 0.  1.
          2   -1    0    0  501    0  0.00000000000E+00 -0.00000000000E+00 -0.28648293715E+04  0.28648293715E+04  0.25500000000E-02 0. -1.
    8880023    1    1    2    0    0 -0.31019631054E+03  0.66199461929E+03 -0.37466539715E+03  0.10529211714E+04  0.65864270000E+03 0.  1.
    8880022    1    1    2    0    0  0.31019631054E+03 -0.66199461929E+03 -0.20862010197E+04  0.22158711548E+04  0.15294330000E+03 0.  0.
<mgrwt>
<rscale>  0 0.91846622E+03</rscale>
<asrwt>0</asrwt>
<pdfrwt beam="1">  1        2 0.44074297E+00 0.98400652E+03</pdfrwt>
<pdfrwt beam="2">  1       -2 0.62148149E-01 0.98400652E+03</pdfrwt>
<totfact> 0.51847752E+00</totfact>
</mgrwt>
</event>
<event>
 4    5  0.7289609E-008  0.7902884E+03  0.7818608E-02  0.9732202E-01
         -2   -1    0    0    0  501 -0.00000000000E+00  0.00000000000E+00  0.15743267110E+04  0.15743267110E+04  0.25500000000E-02 0.  1.
          2   -1    0    0  501    0  0.00000000000E+00 -0.00000000000E+00 -0.51173174181E+03  0.51173174182E+03  0.25500000000E-02 0. -1.
    8880023    1    1    2    0    0 -0.28022756016E+03 -0.33498955367E+03  0.13333195755E+04  0.15499344448E+04  0.65864270000E+03 0.  1.
    8880022    1    1    2    0    0  0.28022756016E+03  0.33498955367E+03 -0.27072460628E+03  0.53612400804E+03  0.15294330000E+03 0.  0.
<mgrwt>
<rscale>  0 0.69131454E+03</rscale>
<asrwt>0</asrwt>
<pdfrwt beam="1">  1        2 0.78727959E-01 0.79028836E+03</pdfrwt>
<pdfrwt beam="2">  1       -2 0.24220411E+00 0.79028836E+03</pdfrwt>
<totfact> 0.43981854E+00</totfact>
</mgrwt>
</event>
<event>
 4    5  0.7289609E-008  0.1324442E+04  0.7818608E-02  0.9044735E-01
         -2   -1    0    0    0  501 -0.00000000000E+00  0.00000000000E+00  0.12888313594E+04  0.12888313594E+04  0.25500000000E-02 0.  1.
          2   -1    0    0  501    0  0.00000000000E+00 -0.00000000000E+00 -0.19568478407E+04  0.19568478407E+04  0.25500000000E-02 0. -1.
    8880023    1    1    2    0    0  0.89777547712E+03 -0.71717279749E+03  0.66260730972E+03  0.14809443885E+04  0.65864270000E+03 0.  0.
    8880022    1    1    2    0    0 -0.89777547712E+03  0.71717279749E+03 -0.13306237910E+04  0.17647348115E+04  0.15294330000E+03 0.  0.
<mgrwt>
<rscale>  0 0.12810433E+04</rscale>
<asrwt>0</asrwt>
<pdfrwt beam="1">  1        2 0.30105351E+00 0.13244425E+04</pdfrwt>
<pdfrwt beam="2">  1       -2 0.19828175E+00 0.13244425E+04</pdfrwt>
<totfact> 0.92248188E-01</totfact>
</mgrwt>
</event>
<event>
 4    5  0.7289609E-008  0.1472657E+04  0.7818608E-02  0.8929189E-01
          2   -1    0    0  501    0  0.00000000000E+00  0.00000000000E+00  0.20656144316E+04  0.20656144316E+04  0.25500000000E-02 0. -1.
         -2   -1    0    0    0  501 -0.00000000000E+00 -0.00000000000E+00 -0.10467871421E+04  0.10467871422E+04  0.25500000000E-02 0.  1.
    8880023    1    1    2    0    0 -0.18062108317E+03 -0.13047157764E+04  0.10111393014E+04  0.17863706575E+04  0.65864270000E+03 0.  1.
    8880022    1    1    2    0    0  0.18062108317E+03  0.13047157764E+04  0.76879880385E+01  0.13260309163E+04  0.15294330000E+03 0.  0.
<mgrwt>
<rscale>  0 0.14345401E+04</rscale>
<asrwt>0</asrwt>
<pdfrwt beam="1">  1        2 0.31778683E+00 0.14726566E+04</pdfrwt>
<pdfrwt beam="2">  1       -2 0.16104418E+00 0.14726566E+04</pdfrwt>
<totfact> 0.14368988E+00</totfact>
</mgrwt>
</event>
<event>
 4    5  0.7289609E-008  0.7086361E+03  0.7818608E-02  0.9963101E-01
          2   -1    0    0  501    0  0.00000000000E+00  0.00000000000E+00  0.16685242220E+04  0.16685242220E+04  0.25500000000E-02 0. -1.
         -2   -1    0    0    0  501 -0.00000000000E+00 -0.00000000000E+00 -0.25304219965E+03  0.25304219967E+03  0.25500000000E-02 0.  1.
    8880023    1    1    2    0    0  0.20499070677E+03 -0.16227676514E+03  0.30670575531E+03  0.77216161843E+03  0.65864270000E+03 0.  1.
    8880022    1    1    2    0    0 -0.20499070677E+03  0.16227676514E+03  0.11087762670E+04  0.11494048033E+04  0.15294330000E+03 0.  0.
<mgrwt>
<rscale>  0 0.57298230E+03</rscale>
<asrwt>0</asrwt>
<pdfrwt beam="1">  1        2 0.25669603E+00 0.70863612E+03</pdfrwt>
<pdfrwt beam="2">  1       -2 0.38929570E-01 0.70863612E+03</pdfrwt>
<totfact> 0.65429514E+01</totfact>
</mgrwt>
</event>
<event>
 4    5  0.7289609E-008  0.8120124E+03  0.7818608E-02  0.9685400E-01
         -2   -1    0    0    0  501 -0.00000000000E+00  0.00000000000E+00  0.11900102650E+04  0.11900102650E+04  0.25500000000E-02 0.  1.
          2   -1    0    0  501    0  0.00000000000E+00 -0.00000000000E+00 -0.77317190081E+03  0.77317190081E+03  0.25500000000E-02 0. -1.
    8880023    1    1    2    0    0 -0.17016552107E+03 -0.44339335326E+03  0.93870252094E+03  0.12411795194E+04  0.65864270000E+03 0.  1.
    8880022    1    1    2    0    0  0.17016552107E+03  0.44339335326E+03 -0.52186415677E+03  0.72200264640E+03  0.15294330000E+03 0.  0.
<mgrwt>
<rscale>  0 0.71892745E+03</rscale>
<asrwt>0</asrwt>
<pdfrwt beam="1">  1        2 0.11894952E+00 0.81201242E+03</pdfrwt>
<pdfrwt beam="2">  1       -2 0.18307850E+00 0.81201242E+03</pdfrwt>
<totfact> 0.62962066E+00</totfact>
</mgrwt>
</event>
<event>
 4    5  0.7289609E-008  0.1725589E+04  0.7818608E-02  0.8764854E-01
          2   -1    0    0  501    0  0.00000000000E+00  0.00000000000E+00  0.25578079938E+04  0.25578079938E+04  0.25500000000E-02 0. -1.
         -2   -1    0    0    0  501 -0.00000000000E+00 -0.00000000000E+00 -0.13125467843E+04  0.13125467843E+04  0.25500000000E-02 0.  1.
    8880023    1    1    2    0    0 -0.13622889041E+04  0.82946796024E+03  0.14514860823E+04  0.22548769830E+04  0.65864270000E+03 0.  0.
    8880022    1    1    2    0    0  0.13622889041E+04 -0.82946796024E+03 -0.20622487282E+03  0.16154777951E+04  0.15294330000E+03 0.  0.
<mgrwt>
<rscale>  0 0.16938946E+04</rscale>
<asrwt>0</asrwt>
<pdfrwt beam="1">  1        2 0.39350892E+00 0.17255893E+04</pdfrwt>
<pdfrwt beam="2">  1       -2 0.20193028E+00 0.17255893E+04</pdfrwt>
<totfact> 0.38192076E-01</totfact>
</mgrwt>
</event>
<event>
 4    5  0.7289609E-008  0.8497128E+03  0.7818608E-02  0.9612131E-01
          2   -1    0    0  501    0  0.00000000000E+00  0.00000000000E+00  0.20216399305E+04  0.20216399305E+04  0.25500000000E-02 0. -1.
         -2   -1    0    0    0  501 -0.00000000000E+00 -0.00000000000E+00 -0.43190331704E+03  0.43190331704E+03  0.25500000000E-02 0.  1.
    8880023    1    1    2    0    0  0.46506209254E+03  0.26817709006E+03  0.91412310658E+02  0.85461577235E+03  0.65864270000E+03 0.  0.
    8880022    1    1    2    0    0 -0.46506209254E+03 -0.26817709006E+03  0.14983243028E+04  0.15989274752E+04  0.15294330000E+03 0.  0.
<mgrwt>
<rscale>  0 0.76498454E+03</rscale>
<asrwt>0</asrwt>
<pdfrwt beam="1">  1        2 0.31102152E+00 0.84971284E+03</pdfrwt>
<pdfrwt beam="2">  1       -2 0.66446665E-01 0.84971284E+03</pdfrwt>
<totfact> 0.13817988E+01</totfact>
</mgrwt>
</event>
<event>
 4    5  0.7289609E-008  0.1717756E+04  0.7818608E-02  0.8769449E-01
          2   -1    0    0  501    0  0.00000000000E+00  0.00000000000E+00  0.23982777228E+04  0.23982777228E+04  0.25500000000E-02 0. -1.
         -2   -1    0    0    0  501 -0.00000000000E+00 -0.00000000000E+00 -0.14057812465E+04  0.14057812465E+04  0.25500000000E-02 0.  1.
    8880023    1    1    2    0    0  0.14767707580E+04 -0.57967611551E+03 -0.31026399933E+03  0.17455515536E+04  0.65864270000E+03 0.  0.
    8880022    1    1    2    0    0 -0.14767707580E+04  0.57967611551E+03  0.13027604756E+04  0.20585074157E+04  0.15294330000E+03 0.  0.
<mgrwt>
<rscale>  0 0.16858972E+04</rscale>
<asrwt>0</asrwt>
<pdfrwt beam="1">  1        2 0.36896580E+00 0.17177562E+04</pdfrwt>
<pdfrwt beam="2">  1       -2 0.21627404E+00 0.17177562E+04</pdfrwt>
<totfact> 0.38152288E-01</totfact>
</mgrwt>
</event>
<event>
 4    5  0.7289609E-008  0.8936626E+03  0.7818608E-02  0.9536283E-01
         -2   -1    0    0    0  501 -0.00000000000E+00  0.00000000000E+00  0.10122746362E+04  0.10122746362E+04  0.25500000000E-02 0.  1.
          2   -1    0    0  501    0  0.00000000000E+00 -0.00000000000E+00 -0.16877178979E+04  0.16877178979E+04  0.25500000000E-02 0. -1.
    8880023    1    1    2    0    0 -0.33047088547E+03  0.50558054010E+03  0.73562378070E+03  0.11574866054E+04  0.65864270000E+03 0.  0.
    8880022    1    1    2    0    0  0.33047088547E+03 -0.50558054010E+03 -0.14110670424E+04  0.15425059286E+04  0.15294330000E+03 0.  0.
<mgrwt>
<rscale>  0 0.81660897E+03</rscale>
<asrwt>0</asrwt>
<pdfrwt beam="1">  1        2 0.25964891E+00 0.89366263E+03</pdfrwt>
<pdfrwt beam="2">  1       -2 0.15573456E+00 0.89366263E+03</pdfrwt>
<totfact> 0.27226636E+00</totfact>
</mgrwt>
</event>
<event>
 4    5  0.7289609E-008  0.7132500E+03  0.7818608E-02  0.9946125E-01
         -2   -1    0    0    0  501 -0.00000000000E+00  0.00000000000E+00  0.25447285718E+03  0.25447285719E+03  0.25500000000E-02 0.  1.
          2   -1    0    0  501    0  0.00000000000E+00 -0.00000000000E+00 -0.23804890705E+04  0.23804890705E+04  0.25500000000E-02 0. -1.
    8880023    1    1    2    0    0 -0.13641751873E+03 -0.23728796897E+03 -0.28605009065E+03  0.76847262818E+03  0.65864270000E+03 0.  0.
    8880022    1    1    2    0    0  0.13641751873E+03  0.23728796897E+03 -0.18399661227E+04  0.18664892996E+04  0.15294330000E+03 0. -1.
<mgrwt>
<rscale>  0 0.58077025E+03</rscale>
<asrwt>0</asrwt>
<pdfrwt beam="1">  1        2 0.36622907E+00 0.71324997E+03</pdfrwt>
<pdfrwt beam="2">  1       -2 0.39149672E-01 0.71324997E+03</pdfrwt>
<totfact> 0.26345030E+01</totfact>
</mgrwt>
</event>
<event>
 4    5  0.7289609E-008  0.9802720E+03  0.7818608E-02  0.9407835E-01
          2   -1    0    0  501    0  0.00000000000E+00  0.00000000000E+00  0.61982969576E+03  0.61982969576E+03  0.25500000000E-02 0. -1.
         -2   -1    0    0    0  501 -0.00000000000E+00 -0.00000000000E+00 -0.17310093832E+04  0.17310093832E+04  0.25500000000E-02 0.  1.
    8880023    1    1    2    0    0 -0.59720958342E+02  0.72357195805E+03 -0.12576447435E+04  0.15945543197E+04  0.65864270000E+03 0.  0.
    8880022    1    1    2    0    0  0.59720958342E+02 -0.72357195805E+03  0.14646505612E+03  0.75628475922E+03  0.15294330000E+03 0.  0.
<mgrwt>
<rscale>  0 0.91433649E+03</rscale>
<asrwt>0</asrwt>
<pdfrwt beam="1">  1        2 0.95358416E-01 0.98027199E+03</pdfrwt>
<pdfrwt beam="2">  1       -2 0.26630913E+00 0.98027199E+03</pdfrwt>
<totfact> 0.24414252E+00</totfact>
</mgrwt>
</event>
<event>
 4    5  0.7289609E-008  0.7586959E+03  0.7818608E-02  0.9808495E-01
          2   -1    0    0  501    0  0.00000000000E+00  0.00000000000E+00  0.31621726409E+04  0.31621726409E+04  0.25500000000E-02 0. -1.
         -2   -1    0    0    0  501 -0.00000000000E+00 -0.00000000000E+00 -0.69242972137E+03  0.69242972138E+03  0.25500000000E-02 0.  1.
    8880023    1    1    2    0    0  0.16970597547E+03 -0.33616828223E+03 -0.46631536913E+03  0.89054447494E+03  0.65864270000E+03 0.  0.
    8880022    1    1    2    0    0 -0.16970597547E+03  0.33616828223E+03  0.29360582887E+04  0.29640578873E+04  0.15294330000E+03 0.  0.
<mgrwt>
<rscale>  0 0.64908615E+03</rscale>
<asrwt>0</asrwt>
<pdfrwt beam="1">  1        2 0.48648810E+00 0.75869588E+03</pdfrwt>
<pdfrwt beam="2">  1       -2 0.10652765E+00 0.75869588E+03</pdfrwt>
<totfact> 0.10447353E+00</totfact>
</mgrwt>
</event>
<event>
 4    5  0.7289609E-008  0.8886895E+03  0.7818608E-02  0.9544438E-01
          2   -1    0    0  501    0  0.00000000000E+00  0.00000000000E+00  0.16093405693E+04  0.16093405693E+04  0.25500000000E-02 0. -1.
         -2   -1    0    0    0  501 -0.00000000000E+00 -0.00000000000E+00 -0.67367495232E+03  0.67367495233E+03  0.25500000000E-02 0.  1.
    8880023    1    1    2    0    0 -0.29032018970E+03  0.52122254847E+03 -0.27028768131E+03  0.92888341277E+03  0.65864270000E+03 0.  1.
    8880022    1    1    2    0    0  0.29032018970E+03 -0.52122254847E+03  0.12059532983E+04  0.13541321088E+04  0.15294330000E+03 0.  0.
<mgrwt>
<rscale>  0 0.81085387E+03</rscale>
<asrwt>0</asrwt>
<pdfrwt beam="1">  1        2 0.24759085E+00 0.88868946E+03</pdfrwt>
<pdfrwt beam="2">  1       -2 0.10364230E+00 0.88868946E+03</pdfrwt>
<totfact> 0.84275877E+00</totfact>
</mgrwt>
</event>
<event>
 4    5  0.7289609E-008  0.6790052E+03  0.7818608E-02  0.1009892E+00
         -2   -1    0    0    0  501 -0.00000000000E+00  0.00000000000E+00  0.66922423221E+03  0.66922423221E+03  0.25500000000E-02 0.  1.
          2   -1    0    0  501    0  0.00000000000E+00 -0.00000000000E+00 -0.45260011732E+03  0.45260011733E+03  0.25500000000E-02 0. -1.
    8880023    1    1    2    0    0 -0.13508875098E+03 -0.94809842624E+02  0.43651312286E+03  0.80721235718E+03  0.65864270000E+03 0.  1.
    8880022    1    1    2    0    0  0.13508875098E+03  0.94809842624E+02 -0.21988900797E+03  0.31461199236E+03  0.15294330000E+03 0.  0.
<mgrwt>
<rscale>  0 0.51517564E+03</rscale>
<asrwt>0</asrwt>
<pdfrwt beam="1">  1        2 0.69630788E-01 0.67900522E+03</pdfrwt>
<pdfrwt beam="2">  1       -2 0.10295757E+00 0.67900522E+03</pdfrwt>
<totfact> 0.54098104E+01</totfact>
</mgrwt>
</event>
<event>
 4    5  0.7289609E-008  0.1829965E+04  0.7818608E-02  0.8706139E-01
         -2   -1    0    0    0  501 -0.00000000000E+00  0.00000000000E+00  0.17532554290E+04  0.17532554290E+04  0.25500000000E-02 0.  1.
          2   -1    0    0  501    0  0.00000000000E+00 -0.00000000000E+00 -0.23533288643E+04  0.23533288643E+04  0.25500000000E-02 0. -1.
    8880023    1    1    2    0    0 -0.14934334059E+04  0.82741738470E+03  0.69572921288E+03  0.19577569334E+04  0.65864270000E+03 0.  0.
    8880022    1    1    2    0    0  0.14934334059E+04 -0.82741738470E+03 -0.12958026482E+04  0.21488273599E+04  0.15294330000E+03 0.  0.
<mgrwt>
<rscale>  0 0.18003012E+04</rscale>
<asrwt>0</asrwt>
<pdfrwt beam="1">  1        2 0.36205059E+00 0.18299653E+04</pdfrwt>
<pdfrwt beam="2">  1       -2 0.26973160E+00 0.18299653E+04</pdfrwt>
<totfact> 0.18590225E-01</totfact>
</mgrwt>
</event>
<event>
 4    5  0.7289609E-008  0.1198223E+04  0.7818608E-02  0.9158851E-01
         -2   -1    0    0    0  501 -0.00000000000E+00  0.00000000000E+00  0.78257425956E+03  0.78257425957E+03  0.25500000000E-02 0.  1.
          2   -1    0    0  501    0  0.00000000000E+00 -0.00000000000E+00 -0.18626506965E+04  0.18626506965E+04  0.25500000000E-02 0. -1.
    8880023    1    1    2    0    0  0.97578883456E+03 -0.22308049517E+03 -0.47727333843E+02  0.11991734077E+04  0.65864270000E+03 0. -1.
    8880022    1    1    2    0    0 -0.97578883456E+03  0.22308049517E+03 -0.10323491031E+04  0.14460515484E+04  0.15294330000E+03 0.  0.
<mgrwt>
<rscale>  0 0.11488432E+04</rscale>
<asrwt>0</asrwt>
<pdfrwt beam="1">  1        2 0.28656164E+00 0.11982233E+04</pdfrwt>
<pdfrwt beam="2">  1       -2 0.12039604E+00 0.11982233E+04</pdfrwt>
<totfact> 0.40930558E+00</totfact>
</mgrwt>
</event>
<event>
 4    5  0.7289609E-008  0.1398052E+04  0.7818608E-02  0.8985198E-01
          2   -1    0    0  501    0  0.00000000000E+00  0.00000000000E+00  0.31080362235E+04  0.31080362236E+04  0.25500000000E-02 0. -1.
         -2   -1    0    0    0  501 -0.00000000000E+00 -0.00000000000E+00 -0.58587553384E+03  0.58587553384E+03  0.25500000000E-02 0.  1.
    8880023    1    1    2    0    0 -0.13068775784E+03 -0.12262383203E+04  0.17128351315E+04  0.22109622571E+04  0.65864270000E+03 0. -1.
    8880022    1    1    2    0    0  0.13068775784E+03  0.12262383203E+04  0.80932555819E+03  0.14829495003E+04  0.15294330000E+03 0.  0.
<mgrwt>
<rscale>  0 0.13574632E+04</rscale>
<asrwt>0</asrwt>
<pdfrwt beam="1">  1        2 0.47815942E+00 0.13980522E+04</pdfrwt>
<pdfrwt beam="2">  1       -2 0.90134697E-01 0.13980522E+04</pdfrwt>
<totfact> 0.15197012E+00</totfact>
</mgrwt>
</event>
<event>
 4    5  0.7289609E-008  0.6845953E+03  0.7818608E-02  0.1006835E+00
         -2   -1    0    0    0  501 -0.00000000000E+00  0.00000000000E+00  0.18450812150E+03  0.18450812151E+03  0.25500000000E-02 0.  1.
          2   -1    0    0  501    0  0.00000000000E+00 -0.00000000000E+00 -0.13666882288E+04  0.13666882288E+04  0.25500000000E-02 0. -1.
    8880023    1    1    2    0    0 -0.12398762122E+03 -0.13959802397E+03 -0.56207055014E+03  0.88577313580E+03  0.65864270000E+03 0.  1.
    8880022    1    1    2    0    0  0.12398762122E+03  0.13959802397E+03 -0.62010955715E+03  0.66542321450E+03  0.15294330000E+03 0.  0.
<mgrwt>
<rscale>  0 0.52752066E+03</rscale>
<asrwt>0</asrwt>
<pdfrwt beam="1">  1        2 0.21025972E+00 0.68459531E+03</pdfrwt>
<pdfrwt beam="2">  1       -2 0.28385866E-01 0.68459531E+03</pdfrwt>
<totfact> 0.17504715E+02</totfact>
</mgrwt>
</event>
<event>
 4    5  0.7289609E-008  0.1534850E+04  0.7818608E-02  0.8885411E-01
         -2   -1    0    0    0  501 -0.00000000000E+00  0.00000000000E+00  0.10439884128E+04  0.10439884129E+04  0.25500000000E-02 0.  1.
          2   -1    0    0  501    0  0.00000000000E+00 -0.00000000000E+00 -0.30808770905E+04  0.30808770905E+04  0.25500000000E-02 0. -1.
    8880023    1    1    2    0    0 -0.12525202271E+04 -0.59426313815E+03  0.13813650064E+03  0.15410540211E+04  0.65864270000E+03 0.  0.
    8880022    1    1    2    0    0  0.12525202271E+04  0.59426313815E+03 -0.21750251783E+04  0.25838114823E+04  0.15294330000E+03 0.  0.
<mgrwt>
<rscale>  0 0.14985602E+04</rscale>
<asrwt>0</asrwt>
<pdfrwt beam="1">  1        2 0.47398109E+00 0.15348504E+04</pdfrwt>
<pdfrwt beam="2">  1       -2 0.16061360E+00 0.15348504E+04</pdfrwt>
<totfact> 0.36389550E-01</totfact>
</mgrwt>
</event>
<event>
 4    5  0.7289609E-008  0.1164167E+04  0.7818608E-02  0.9192766E-01
         -2   -1    0    0    0  501 -0.00000000000E+00  0.00000000000E+00  0.14729529868E+04  0.14729529868E+04  0.25500000000E-02 0.  1.
          2   -1    0    0  501    0  0.00000000000E+00 -0.00000000000E+00 -0.11795869665E+04  0.11795869665E+04  0.25500000000E-02 0. -1.
    8880023    1    1    2    0    0 -0.16331685474E+03 -0.94594009564E+03 -0.61977311710E+03  0.13188646566E+04  0.65864270000E+03 0. -1.
    8880022    1    1    2    0    0  0.16331685474E+03  0.94594009564E+03  0.91313913739E+03  0.13336752966E+04  0.15294330000E+03 0.  0.
<mgrwt>
<rscale>  0 0.11128403E+04</rscale>
<asrwt>0</asrwt>
<pdfrwt beam="1">  1        2 0.18147492E+00 0.11641672E+04</pdfrwt>
<pdfrwt beam="2">  1       -2 0.22660815E+00 0.11641672E+04</pdfrwt>
<totfact> 0.17063168E+00</totfact>
</mgrwt>
</event>
<event>
 4    5  0.7289609E-008  0.9937035E+03  0.7818608E-02  0.9389842E-01
         -2   -1    0    0    0  501 -0.00000000000E+00  0.00000000000E+00  0.80091242182E+03  0.80091242182E+03  0.25500000000E-02 0.  1.
          2   -1    0    0  501    0  0.00000000000E+00 -0.00000000000E+00 -0.31730966563E+04  0.31730966563E+04  0.25500000000E-02 0. -1.
    8880023    1    1    2    0    0  0.66283065311E+03 -0.33807084726E+03  0.42112406614E+03  0.10792553256E+04  0.65864270000E+03 0.  1.
    8880022    1    1    2    0    0 -0.66283065311E+03  0.33807084726E+03 -0.27933083006E+04  0.28947537525E+04  0.15294330000E+03 0.  0.
<mgrwt>
<rscale>  0 0.92916366E+03</rscale>
<asrwt>0</asrwt>
<pdfrwt beam="1">  1        2 0.48816871E+00 0.99370347E+03</pdfrwt>
<pdfrwt beam="2">  1       -2 0.12321730E+00 0.99370347E+03</pdfrwt>
<totfact> 0.68685801E-01</totfact>
</mgrwt>
</event>
<event>
 4    5  0.7289609E-008  0.1556844E+04  0.7818608E-02  0.8870506E-01
          2   -1    0    0  501    0  0.00000000000E+00  0.00000000000E+00  0.22867015823E+04  0.22867015823E+04  0.25500000000E-02 0. -1.
         -2   -1    0    0    0  501 -0.00000000000E+00 -0.00000000000E+00 -0.10776601847E+04  0.10776601847E+04  0.25500000000E-02 0.  1.
    8880023    1    1    2    0    0  0.15248291704E+03 -0.14023911007E+04  0.93890847100E+02  0.15596722529E+04  0.65864270000E+03 0.  0.
    8880022    1    1    2    0    0 -0.15248291704E+03  0.14023911007E+04  0.11151505505E+04  0.18046895141E+04  0.15294330000E+03 0.  0.
<mgrwt>
<rscale>  0 0.15211550E+04</rscale>
<asrwt>0</asrwt>
<pdfrwt beam="1">  1        2 0.35180024E+00 0.15568436E+04</pdfrwt>
<pdfrwt beam="2">  1       -2 0.16579387E+00 0.15568436E+04</pdfrwt>
<totfact> 0.98773579E-01</totfact>
</mgrwt>
</event>
<event>
 4    5  0.7289609E-008  0.6688744E+03  0.7818608E-02  0.1016483E+00
          2   -1    0    0  501    0  0.00000000000E+00  0.00000000000E+00  0.37721783562E+03  0.37721783563E+03  0.25500000000E-02 0. -1.
         -2   -1    0    0    0  501 -0.00000000000E+00 -0.00000000000E+00 -0.11720193274E+04  0.11720193274E+04  0.25500000000E-02 0.  1.
    8880023    1    1    2    0    0 -0.98485657296E+02  0.62315912924E+02 -0.10406811780E+04  0.12370974974E+04  0.65864270000E+03 0.  1.
    8880022    1    1    2    0    0  0.98485657296E+02 -0.62315912924E+02  0.24587968624E+03  0.31213966556E+03  0.15294330000E+03 0.  0.
<mgrwt>
<rscale>  0 0.48977428E+03</rscale>
<asrwt>0</asrwt>
<pdfrwt beam="1">  1        2 0.58033514E-01 0.66887436E+03</pdfrwt>
<pdfrwt beam="2">  1       -2 0.18031066E+00 0.66887436E+03</pdfrwt>
<totfact> 0.15688471E+01</totfact>
</mgrwt>
</event>
<event>
 4    5  0.7289609E-008  0.2153516E+04  0.7818608E-02  0.8548698E-01
          2   -1    0    0  501    0  0.00000000000E+00  0.00000000000E+00  0.10033122448E+04  0.10033122448E+04  0.25500000000E-02 0. -1.
         -2   -1    0    0    0  501 -0.00000000000E+00 -0.00000000000E+00 -0.55620613655E+04  0.55620613655E+04  0.25500000000E-02 0.  1.
    8880023    1    1    2    0    0  0.20142748262E+04 -0.38277630928E+03 -0.83112420594E+03  0.23083323917E+04  0.65864270000E+03 0.  0.
    8880022    1    1    2    0    0 -0.20142748262E+04  0.38277630928E+03 -0.37276249148E+04  0.42570412186E+04  0.15294330000E+03 0.  0.
<mgrwt>
<rscale>  0 0.21287165E+04</rscale>
<asrwt>0</asrwt>
<pdfrwt beam="1">  1        2 0.15435573E+00 0.21535160E+04</pdfrwt>
<pdfrwt beam="2">  1       -2 0.85570173E+00 0.21535160E+04</pdfrwt>
<totfact> 0.66123067E-04</totfact>
</mgrwt>
</event>
<event>
 4    5  0.7289609E-008  0.7216848E+03  0.7818608E-02  0.9916926E-01
          2   -1    0    0  501    0  0.00000000000E+00  0.00000000000E+00  0.24243883813E+04  0.24243883813E+04  0.25500000000E-02 0. -1.
         -2   -1    0    0    0  501 -0.00000000000E+00 -0.00000000000E+00 -0.64591378983E+03  0.64591378983E+03  0.25500000000E-02 0.  1.
    8880023    1    1    2    0    0 -0.22363962262E+03 -0.19236442846E+03 -0.42792888293E+03  0.83901852736E+03  0.65864270000E+03 0.  1.
    8880022    1    1    2    0    0  0.22363962262E+03  0.19236442846E+03  0.22064034744E+04  0.22312836438E+04  0.15294330000E+03 0.  0.
<mgrwt>
<rscale>  0 0.59447956E+03</rscale>
<asrwt>0</asrwt>
<pdfrwt beam="1">  1        2 0.37298284E+00 0.72168481E+03</pdfrwt>
<pdfrwt beam="2">  1       -2 0.99371350E-01 0.72168481E+03</pdfrwt>
<totfact> 0.34001714E+00</totfact>
</mgrwt>
</event>
<event>
 4    5  0.7289609E-008  0.8668999E+03  0.7818608E-02  0.9581406E-01
         -2   -1    0    0    0  501 -0.00000000000E+00  0.00000000000E+00  0.48545050787E+03  0.48545050787E+03  0.25500000000E-02 0.  1.
          2   -1    0    0  501    0  0.00000000000E+00 -0.00000000000E+00 -0.18150206425E+04  0.18150206425E+04  0.25500000000E-02 0. -1.
    8880023    1    1    2    0    0 -0.52363584768E+03 -0.20859231391E+03 -0.20629346063E+02  0.86714533417E+03  0.65864270000E+03 0.  0.
    8880022    1    1    2    0    0  0.52363584768E+03  0.20859231391E+03 -0.13089407886E+04  0.14333258162E+04  0.15294330000E+03 0.  0.
<mgrwt>
<rscale>  0 0.78539194E+03</rscale>
<asrwt>0</asrwt>
<pdfrwt beam="1">  1        2 0.27923394E+00 0.86689991E+03</pdfrwt>
<pdfrwt beam="2">  1       -2 0.74684694E-01 0.86689991E+03</pdfrwt>
<totfact> 0.13851143E+01</totfact>
</mgrwt>
</event>
<event>
 4    5  0.7289609E-008  0.7678101E+03  0.7818608E-02  0.9785292E-01
          2   -1    0    0  501    0  0.00000000000E+00  0.00000000000E+00  0.14564012340E+04  0.14564012340E+04  0.25500000000E-02 0. -1.
         -2   -1    0    0    0  501 -0.00000000000E+00 -0.00000000000E+00 -0.42100608304E+03  0.42100608305E+03  0.25500000000E-02 0.  1.
    8880023    1    1    2    0    0  0.28164893335E+03 -0.27639828661E+03  0.11989106985E+04  0.14236991269E+04  0.65864270000E+03 0. -1.
    8880022    1    1    2    0    0 -0.28164893335E+03  0.27639828661E+03 -0.16351554760E+03  0.45370819016E+03  0.15294330000E+03 0.  1.
<mgrwt>
<rscale>  0 0.66157866E+03</rscale>
<asrwt>0</asrwt>
<pdfrwt beam="1">  1        2 0.22406173E+00 0.76781009E+03</pdfrwt>
<pdfrwt beam="2">  1       -2 0.64770167E-01 0.76781009E+03</pdfrwt>
<totfact> 0.30165700E+01</totfact>
</mgrwt>
</event>
<event>
 4    5  0.7289609E-008  0.1281193E+04  0.7818608E-02  0.9081973E-01
          2   -1    0    0  501    0  0.00000000000E+00  0.00000000000E+00  0.27394785893E+04  0.27394785893E+04  0.25500000000E-02 0. -1.
         -2   -1    0    0    0  501 -0.00000000000E+00 -0.00000000000E+00 -0.65067148066E+03  0.65067148066E+03  0.25500000000E-02 0.  1.
    8880023    1    1    2    0    0  0.64553315129E+03 -0.88934380162E+03  0.35108925939E+03  0.13284273865E+04  0.65864270000E+03 0.  1.
    8880022    1    1    2    0    0 -0.64553315129E+03  0.88934380162E+03  0.17377178493E+04  0.20617226835E+04  0.15294330000E+03 0.  0.
<mgrwt>
<rscale>  0 0.12359327E+04</rscale>
<asrwt>0</asrwt>
<pdfrwt beam="1">  1        2 0.42145825E+00 0.12811931E+04</pdfrwt>
<pdfrwt beam="2">  1       -2 0.10010330E+00 0.12811931E+04</pdfrwt>
<totfact> 0.20246010E+00</totfact>
</mgrwt>
</event>
<event>
 4    5  0.7289609E-008  0.8534941E+03  0.7818608E-02  0.9605243E-01
         -2   -1    0    0    0  501 -0.00000000000E+00  0.00000000000E+00  0.42069413320E+03  0.42069413321E+03  0.25500000000E-02 0.  1.
          2   -1    0    0  501    0  0.00000000000E+00 -0.00000000000E+00 -0.17225157492E+04  0.17225157492E+04  0.25500000000E-02 0. -1.
    8880023    1    1    2    0    0  0.48352304308E+03  0.24667256868E+03 -0.15810398228E+03  0.86801438053E+03  0.65864270000E+03 0.  1.
    8880022    1    1    2    0    0 -0.48352304308E+03 -0.24667256868E+03 -0.11437176337E+04  0.12751955018E+04  0.15294330000E+03 0.  0.
<mgrwt>
<rscale>  0 0.76950153E+03</rscale>
<asrwt>0</asrwt>
<pdfrwt beam="1">  1        2 0.26500242E+00 0.85349405E+03</pdfrwt>
<pdfrwt beam="2">  1       -2 0.64722175E-01 0.85349405E+03</pdfrwt>
<totfact> 0.21316016E+01</totfact>
</mgrwt>
</event>
<event>
 4    5  0.7289609E-008  0.6619898E+03  0.7818608E-02  0.1022205E+00
          2   -1    0    0  501    0  0.00000000000E+00  0.00000000000E+00  0.84826733225E+03  0.84826733226E+03  0.25500000000E-02 0. -1.
         -2   -1    0    0    0  501 -0.00000000000E+00 -0.00000000000E+00 -0.15216363766E+04  0.15216363766E+04  0.25500000000E-02 0.  1.
    8880023    1    1    2    0    0  0.60089885337E+02  0.28451240455E+02 -0.14402480808E+04  0.15851009457E+04  0.65864270000E+03 0.  1.
    8880022    1    1    2    0    0 -0.60089885337E+02 -0.28451240455E+02  0.76687903650E+03  0.78480276315E+03  0.15294330000E+03 0.  0.
<mgrwt>
<rscale>  0 0.46899405E+03</rscale>
<asrwt>0</asrwt>
<pdfrwt beam="1">  1        2 0.13050267E+00 0.66198978E+03</pdfrwt>
<pdfrwt beam="2">  1       -2 0.23409790E+00 0.66198978E+03</pdfrwt>
<totfact> 0.26774195E+00</totfact>
</mgrwt>
</event>
<event>
 4    5  0.7289609E-008  0.7095482E+03  0.7818608E-02  0.9959682E-01
          2   -1    0    0  501    0  0.00000000000E+00  0.00000000000E+00  0.15522341768E+04  0.15522341768E+04  0.25500000000E-02 0. -1.
         -2   -1    0    0    0  501 -0.00000000000E+00 -0.00000000000E+00 -0.27343463763E+03  0.27343463764E+03  0.25500000000E-02 0.  1.
    8880023    1    1    2    0    0 -0.19318681976E+03 -0.17979800959E+03  0.24951892830E+03  0.75214252202E+03  0.65864270000E+03 0.  1.
    8880022    1    1    2    0    0  0.19318681976E+03  0.17979800959E+03  0.10292806108E+04  0.10735262924E+04  0.15294330000E+03 0.  0.
<mgrwt>
<rscale>  0 0.57453994E+03</rscale>
<asrwt>0</asrwt>
<pdfrwt beam="1">  1        2 0.23880526E+00 0.70954822E+03</pdfrwt>
<pdfrwt beam="2">  1       -2 0.42066868E-01 0.70954822E+03</pdfrwt>
<totfact> 0.65151248E+01</totfact>
</mgrwt>
</event>
<event>
 4    5  0.7289609E-008  0.7237824E+03  0.7818608E-02  0.9909989E-01
         -2   -1    0    0    0  501 -0.00000000000E+00  0.00000000000E+00  0.66875826472E+03  0.66875826472E+03  0.25500000000E-02 0.  1.
          2   -1    0    0  501    0  0.00000000000E+00 -0.00000000000E+00 -0.19970259250E+04  0.19970259250E+04  0.25500000000E-02 0. -1.
    8880023    1    1    2    0    0 -0.29987710512E+03  0.11157414447E+02  0.45240316180E+03  0.85353945026E+03  0.65864270000E+03 0.  1.
    8880022    1    1    2    0    0  0.29987710512E+03 -0.11157414447E+02 -0.17806708221E+04  0.18122447395E+04  0.15294330000E+03 0.  0.
<mgrwt>
<rscale>  0 0.59779593E+03</rscale>
<asrwt>0</asrwt>
<pdfrwt beam="1">  1        2 0.30723476E+00 0.72378241E+03</pdfrwt>
<pdfrwt beam="2">  1       -2 0.10288589E+00 0.72378241E+03</pdfrwt>
<totfact> 0.53858306E+00</totfact>
</mgrwt>
</event>
<event>
 4    5  0.7289609E-008  0.7405936E+03  0.7818608E-02  0.9858221E-01
          2   -1    0    0  501    0  0.00000000000E+00  0.00000000000E+00  0.50365025114E+03  0.50365025114E+03  0.25500000000E-02 0. -1.
         -2   -1    0    0    0  501 -0.00000000000E+00 -0.00000000000E+00 -0.10177428245E+04  0.10177428246E+04  0.25500000000E-02 0.  1.
    8880023    1    1    2    0    0  0.32201170572E+03 -0.10477175731E+03 -0.77145479369E+03  0.10694023400E+04  0.65864270000E+03 0.  0.
    8880022    1    1    2    0    0 -0.32201170572E+03  0.10477175731E+03  0.25736222028E+03  0.45199073573E+03  0.15294330000E+03 0.  1.
<mgrwt>
<rscale>  0 0.62329489E+03</rscale>
<asrwt>0</asrwt>
<pdfrwt beam="1">  1        2 0.77484654E-01 0.74059359E+03</pdfrwt>
<pdfrwt beam="2">  1       -2 0.15657582E+00 0.74059359E+03</pdfrwt>
<totfact> 0.16556844E+01</totfact>
</mgrwt>
</event>
<event>
 4    5  0.7289609E-008  0.1132052E+04  0.7818608E-02  0.9226182E-01
         -2   -1    0    0    0  501 -0.00000000000E+00  0.00000000000E+00  0.10948137002E+04  0.10948137002E+04  0.25500000000E-02 0.  1.
          2   -1    0    0  501    0  0.00000000000E+00 -0.00000000000E+00 -0.15510757252E+04  0.15510757252E+04  0.25500000000E-02 0. -1.
    8880023    1    1    2    0    0 -0.84781009547E+03 -0.35909497284E+03  0.56260541882E+03  0.12641464397E+04  0.65864270000E+03 0.  1.
    8880022    1    1    2    0    0  0.84781009547E+03  0.35909497284E+03 -0.10188674438E+04  0.13817429857E+04  0.15294330000E+03 0.  0.
<mgrwt>
<rscale>  0 0.10787223E+04</rscale>
<asrwt>0</asrwt>
<pdfrwt beam="1">  1        2 0.23862704E+00 0.11320518E+04</pdfrwt>
<pdfrwt beam="2">  1       -2 0.16843288E+00 0.11320518E+04</pdfrwt>
<totfact> 0.25404640E+00</totfact>
</mgrwt>
</event>
<event>
 4    5  0.7289609E-008  0.7989189E+03  0.7818608E-02  0.9713139E-01
         -2   -1    0    0    0  501 -0.00000000000E+00  0.00000000000E+00  0.27495904425E+03  0.27495904426E+03  0.25500000000E-02 0.  1.
          2   -1    0    0  501    0  0.00000000000E+00 -0.00000000000E+00 -0.28065550780E+04  0.28065550780E+04  0.25500000000E-02 0. -1.
    8880023    1    1    2    0    0 -0.18604924437E+03 -0.41212479742E+03 -0.24750984976E+04  0.26008429305E+04  0.65864270000E+03 0. -1.
    8880022    1    1    2    0    0  0.18604924437E+03  0.41212479742E+03 -0.56497536118E+02  0.48067119175E+03  0.15294330000E+03 0.  0.
<mgrwt>
<rscale>  0 0.70239889E+03</rscale>
<asrwt>0</asrwt>
<pdfrwt beam="1">  1        2 0.43177768E+00 0.79891888E+03</pdfrwt>
<pdfrwt beam="2">  1       -2 0.42301393E-01 0.79891888E+03</pdfrwt>
<totfact> 0.12717470E+01</totfact>
</mgrwt>
</event>
<event>
 4    5  0.7289609E-008  0.6726896E+03  0.7818608E-02  0.1013804E+00
          2   -1    0    0  501    0  0.00000000000E+00  0.00000000000E+00  0.56256754445E+03  0.56256754446E+03  0.25500000000E-02 0. -1.
         -2   -1    0    0    0  501 -0.00000000000E+00 -0.00000000000E+00 -0.42310235314E+03  0.42310235314E+03  0.25500000000E-02 0.  1.
    8880023    1    1    2    0    0 -0.13514863549E+03 -0.20879464193E+02 -0.89060510167E+02  0.67855956734E+03  0.65864270000E+03 0.  1.
    8880022    1    1    2    0    0  0.13514863549E+03  0.20879464193E+02  0.22852570148E+03  0.30711033026E+03  0.15294330000E+03 0.  0.
<mgrwt>
<rscale>  0 0.49990441E+03</rscale>
<asrwt>0</asrwt>
<pdfrwt beam="1">  1        2 0.86548853E-01 0.67268961E+03</pdfrwt>
<pdfrwt beam="2">  1       -2 0.65092669E-01 0.67268961E+03</pdfrwt>
<totfact> 0.11842550E+02</totfact>
</mgrwt>
</event>
<event>
 4    5  0.7289609E-008  0.1673696E+04  0.7818608E-02  0.8795821E-01
         -2   -1    0    0    0  501 -0.00000000000E+00  0.00000000000E+00  0.16305542434E+04  0.16305542434E+04  0.25500000000E-02 0.  1.
          2   -1    0    0  501    0  0.00000000000E+00 -0.00000000000E+00 -0.20617597388E+04  0.20617597388E+04  0.25500000000E-02 0. -1.
    8880023    1    1    2    0    0 -0.15138346462E+04  0.27523378210E+03  0.66072371296E+03  0.17993929537E+04  0.65864270000E+03 0.  0.
    8880022    1    1    2    0    0  0.15138346462E+04 -0.27523378210E+03 -0.10919292084E+04  0.18929210284E+04  0.15294330000E+03 0.  0.
<mgrwt>
<rscale>  0 0.16408781E+04</rscale>
<asrwt>0</asrwt>
<pdfrwt beam="1">  1        2 0.31719381E+00 0.16736963E+04</pdfrwt>
<pdfrwt beam="2">  1       -2 0.25085450E+00 0.16736963E+04</pdfrwt>
<totfact> 0.36070802E-01</totfact>
</mgrwt>
</event>
<event>
 4    5  0.7289609E-008  0.6753037E+03  0.7818608E-02  0.1012116E+00
          2   -1    0    0  501    0  0.00000000000E+00  0.00000000000E+00  0.38126201512E+04  0.38126201512E+04  0.25500000000E-02 0. -1.
         -2   -1    0    0    0  501 -0.00000000000E+00 -0.00000000000E+00 -0.56444327964E+03  0.56444327965E+03  0.25500000000E-02 0.  1.
    8880023    1    1    2    0    0 -0.15502858269E+02 -0.14827192047E+03 -0.35816235414E+03  0.76440524540E+03  0.65864270000E+03 0.  1.
    8880022    1    1    2    0    0  0.15502858269E+02  0.14827192047E+03  0.36063392257E+04  0.36126581855E+04  0.15294330000E+03 0.  0.
<mgrwt>
<rscale>  0 0.50642445E+03</rscale>
<asrwt>0</asrwt>
<pdfrwt beam="1">  1        2 0.58655692E+00 0.67530371E+03</pdfrwt>
<pdfrwt beam="2">  1       -2 0.86837431E-01 0.67530371E+03</pdfrwt>
<totfact> 0.62083316E-01</totfact>
</mgrwt>
</event>
<event>
 4    5  0.7289609E-008  0.1372152E+04  0.7818608E-02  0.9005629E-01
          2   -1    0    0  501    0  0.00000000000E+00  0.00000000000E+00  0.18480787106E+04  0.18480787106E+04  0.25500000000E-02 0. -1.
         -2   -1    0    0    0  501 -0.00000000000E+00 -0.00000000000E+00 -0.14298169493E+04  0.14298169493E+04  0.25500000000E-02 0.  1.
    8880023    1    1    2    0    0 -0.10434168927E+04  0.60022651347E+03 -0.77514060852E+03  0.15759580732E+04  0.65864270000E+03 0.  1.
    8880022    1    1    2    0    0  0.10434168927E+04 -0.60022651347E+03  0.11934023698E+04  0.17019375866E+04  0.15294330000E+03 0.  0.
<mgrwt>
<rscale>  0 0.13306205E+04</rscale>
<asrwt>0</asrwt>
<pdfrwt beam="1">  1        2 0.28431980E+00 0.13721519E+04</pdfrwt>
<pdfrwt beam="2">  1       -2 0.21997184E+00 0.13721519E+04</pdfrwt>
<totfact> 0.76340380E-01</totfact>
</mgrwt>
</event>
<event>
 4    5  0.7289609E-008  0.9060382E+03  0.7818608E-02  0.9516407E-01
         -2   -1    0    0    0  501 -0.00000000000E+00  0.00000000000E+00  0.47716603718E+03  0.47716603719E+03  0.25500000000E-02 0.  1.
          2   -1    0    0  501    0  0.00000000000E+00 -0.00000000000E+00 -0.14072008707E+04  0.14072008707E+04  0.25500000000E-02 0. -1.
    8880023    1    1    2    0    0  0.51194229677E+03  0.35356778799E+03 -0.22872938955E+03  0.93446371563E+03  0.65864270000E+03 0. -1.
    8880022    1    1    2    0    0 -0.51194229677E+03 -0.35356778799E+03 -0.70130544401E+03  0.94990319229E+03  0.15294330000E+03 0.  0.
<mgrwt>
<rscale>  0 0.83084936E+03</rscale>
<asrwt>0</asrwt>
<pdfrwt beam="1">  1        2 0.21649244E+00 0.90603825E+03</pdfrwt>
<pdfrwt beam="2">  1       -2 0.73410160E-01 0.90603825E+03</pdfrwt>
<totfact> 0.24134378E+01</totfact>
</mgrwt>
</event>
<event>
 4    5  0.7289609E-008  0.9478352E+03  0.7818608E-02  0.9453236E-01
          2   -1    0    0  501    0  0.00000000000E+00  0.00000000000E+00  0.14094369744E+04  0.14094369744E+04  0.25500000000E-02 0. -1.
         -2   -1    0    0    0  501 -0.00000000000E+00 -0.00000000000E+00 -0.69769177054E+03  0.69769177055E+03  0.25500000000E-02 0.  1.
    8880023    1    1    2    0    0 -0.18987275881E+03  0.65462186043E+03 -0.18976926686E+03  0.96664576014E+03  0.65864270000E+03 0.  0.
    8880022    1    1    2    0    0  0.18987275881E+03 -0.65462186043E+03  0.90151447070E+03  0.11404829848E+04  0.15294330000E+03 0. -1.
<mgrwt>
<rscale>  0 0.87821151E+03</rscale>
<asrwt>0</asrwt>
<pdfrwt beam="1">  1        2 0.21683645E+00 0.94783524E+03</pdfrwt>
<pdfrwt beam="2">  1       -2 0.10733720E+00 0.94783524E+03</pdfrwt>
<totfact> 0.99596876E+00</totfact>
</mgrwt>
</event>
<event>
 4    5  0.7289609E-008  0.9559103E+03  0.7818608E-02  0.9441661E-01
          2   -1    0    0  501    0  0.00000000000E+00  0.00000000000E+00  0.17832814817E+04  0.17832814817E+04  0.25500000000E-02 0. -1.
         -2   -1    0    0    0  501 -0.00000000000E+00 -0.00000000000E+00 -0.58794239208E+03  0.58794239208E+03  0.25500000000E-02 0.  1.
    8880023    1    1    2    0    0  0.68177586400E+03  0.12302813364E+03 -0.28808908007E+02  0.95634429462E+03  0.65864270000E+03 0.  1.
    8880022    1    1    2    0    0 -0.68177586400E+03 -0.12302813364E+03  0.12241479976E+04  0.14148795791E+04  0.15294330000E+03 0.  0.
<mgrwt>
<rscale>  0 0.88725032E+03</rscale>
<asrwt>0</asrwt>
<pdfrwt beam="1">  1        2 0.27435099E+00 0.95591028E+03</pdfrwt>
<pdfrwt beam="2">  1       -2 0.90452677E-01 0.95591028E+03</pdfrwt>
<totfact> 0.92418140E+00</totfact>
</mgrwt>
</event>
<event>
 4    5  0.7289609E-008  0.1197457E+04  0.7818608E-02  0.9159599E-01
         -2   -1    0    0    0  501 -0.00000000000E+00  0.00000000000E+00  0.72829839334E+03  0.72829839334E+03  0.25500000000E-02 0.  1.
          2   -1    0    0  501    0  0.00000000000E+00 -0.00000000000E+00 -0.25971280164E+04  0.25971280164E+04  0.25500000000E-02 0. -1.
    8880023    1    1    2    0    0  0.66443438128E+03 -0.74740826666E+03 -0.19734741772E+04  0.23083549767E+04  0.65864270000E+03 0. -1.
    8880022    1    1    2    0    0 -0.66443438128E+03  0.74740826666E+03  0.10464455418E+03  0.10170714330E+04  0.15294330000E+03 0.  0.
<mgrwt>
<rscale>  0 0.11480346E+04</rscale>
<asrwt>0</asrwt>
<pdfrwt beam="1">  1        2 0.39955815E+00 0.11974566E+04</pdfrwt>
<pdfrwt beam="2">  1       -2 0.11204591E+00 0.11974566E+04</pdfrwt>
<totfact> 0.18872658E+00</totfact>
</mgrwt>
</event>
<event>
 4    5  0.7289609E-008  0.1061058E+04  0.7818608E-02  0.9305704E-01
         -2   -1    0    0    0  501 -0.00000000000E+00  0.00000000000E+00  0.62079872386E+03  0.62079872387E+03  0.25500000000E-02 0.  1.
          2   -1    0    0  501    0  0.00000000000E+00 -0.00000000000E+00 -0.18607065606E+04  0.18607065606E+04  0.25500000000E-02 0. -1.
    8880023    1    1    2    0    0 -0.74546974368E+03  0.36920144320E+03 -0.10523588690E+03  0.10662643399E+04  0.65864270000E+03 0.  0.
    8880022    1    1    2    0    0  0.74546974368E+03 -0.36920144320E+03 -0.11346719498E+04  0.14152409446E+04  0.15294330000E+03 0.  0.
<mgrwt>
<rscale>  0 0.10025940E+04</rscale>
<asrwt>0</asrwt>
<pdfrwt beam="1">  1        2 0.28626255E+00 0.10610585E+04</pdfrwt>
<pdfrwt beam="2">  1       -2 0.95507497E-01 0.10610585E+04</pdfrwt>
<totfact> 0.72940164E+00</totfact>
</mgrwt>
</event>
<event>
 4    5  0.7289609E-008  0.7907601E+03  0.7818608E-02  0.9731143E-01
         -2   -1    0    0    0  501 -0.00000000000E+00  0.00000000000E+00  0.79436629935E+03  0.79436629936E+03  0.25500000000E-02 0.  1.
          2   -1    0    0  501    0  0.00000000000E+00 -0.00000000000E+00 -0.14848554245E+04  0.14848554245E+04  0.25500000000E-02 0. -1.
    8880023    1    1    2    0    0 -0.26803081847E+03  0.34590575001E+03  0.54450380723E+03  0.96009682319E+03  0.65864270000E+03 0.  0.
    8880022    1    1    2    0    0  0.26803081847E+03 -0.34590575001E+03 -0.12349929324E+04  0.13191249007E+04  0.15294330000E+03 0. -1.
<mgrwt>
<rscale>  0 0.69192465E+03</rscale>
<asrwt>0</asrwt>
<pdfrwt beam="1">  1        2 0.22843930E+00 0.79076009E+03</pdfrwt>
<pdfrwt beam="2">  1       -2 0.12221020E+00 0.79076009E+03</pdfrwt>
<totfact> 0.66941087E+00</totfact>
</mgrwt>
</event>
<event>
 4    5  0.7289609E-008  0.7488541E+03  0.7818608E-02  0.9834868E-01
          2   -1    0    0  501    0  0.00000000000E+00  0.00000000000E+00  0.41636540936E+04  0.41636540936E+04  0.25500000000E-02 0. -1.
         -2   -1    0    0    0  501 -0.00000000000E+00 -0.00000000000E+00 -0.82647024795E+02  0.82647024835E+02  0.25500000000E-02 0.  1.
    8880023    1    1    2    0    0  0.18607708904E+02  0.35584553049E+03  0.21482723473E+04  0.22750508946E+04  0.65864270000E+03 0.  0.
    8880022    1    1    2    0    0 -0.18607708904E+02 -0.35584553049E+03  0.19327347215E+04  0.19712502239E+04  0.15294330000E+03 0.  0.
<mgrwt>
<rscale>  0 0.63524445E+03</rscale>
<asrwt>0</asrwt>
<pdfrwt beam="1">  1        2 0.64056228E+00 0.74885412E+03</pdfrwt>
<pdfrwt beam="2">  1       -2 0.12714925E-01 0.74885412E+03</pdfrwt>
<totfact> 0.12833465E+01</totfact>
</mgrwt>
</event>
<event>
 4    5  0.7289609E-008  0.1194173E+04  0.7818608E-02  0.9162807E-01
          2   -1    0    0  501    0  0.00000000000E+00  0.00000000000E+00  0.36423713952E+04  0.36423713952E+04  0.25500000000E-02 0. -1.
         -2   -1    0    0    0  501 -0.00000000000E+00 -0.00000000000E+00 -0.42522778183E+03  0.42522778184E+03  0.25500000000E-02 0.  1.
    8880023    1    1    2    0    0  0.56118760366E+03  0.82298746867E+03  0.76956301429E+03  0.14206608812E+04  0.65864270000E+03 0.  0.
    8880022    1    1    2    0    0 -0.56118760366E+03 -0.82298746867E+03  0.24475805991E+04  0.26469382959E+04  0.15294330000E+03 0.  0.
<mgrwt>
<rscale>  0 0.11445706E+04</rscale>
<asrwt>0</asrwt>
<pdfrwt beam="1">  1        2 0.56036479E+00 0.11941734E+04</pdfrwt>
<pdfrwt beam="2">  1       -2 0.65419663E-01 0.11941734E+04</pdfrwt>
<totfact> 0.13990150E+00</totfact>
</mgrwt>
</event>
<event>
 4    5  0.7289609E-008  0.6916558E+03  0.7818608E-02  0.1003375E+00
          2   -1    0    0  501    0  0.00000000000E+00  0.00000000000E+00  0.10605630040E+04  0.10605630040E+04  0.25500000000E-02 0. -1.
         -2   -1    0    0    0  501 -0.00000000000E+00 -0.00000000000E+00 -0.71573151414E+03  0.71573151415E+03  0.25500000000E-02 0.  1.
    8880023    1    1    2    0    0 -0.72142582476E+02  0.19842635946E+03 -0.52493198536E+03  0.86829797181E+03  0.65864270000E+03 0.  1.
    8880022    1    1    2    0    0  0.72142582476E+02 -0.19842635946E+03  0.86976347523E+03  0.90799654635E+03  0.15294330000E+03 0.  0.
<mgrwt>
<rscale>  0 0.54194669E+03</rscale>
<asrwt>0</asrwt>
<pdfrwt beam="1">  1        2 0.16316354E+00 0.69165582E+03</pdfrwt>
<pdfrwt beam="2">  1       -2 0.11011254E+00 0.69165582E+03</pdfrwt>
<totfact> 0.15478726E+01</totfact>
</mgrwt>
</event>
<event>
 4    5  0.7289609E-008  0.7956573E+03  0.7818608E-02  0.9720266E-01
          2   -1    0    0  501    0  0.00000000000E+00  0.00000000000E+00  0.15783748223E+04  0.15783748223E+04  0.25500000000E-02 0. -1.
         -2   -1    0    0    0  501 -0.00000000000E+00 -0.00000000000E+00 -0.33683936943E+03  0.33683936944E+03  0.25500000000E-02 0.  1.
    8880023    1    1    2    0    0 -0.43838680443E+03 -0.84127061571E+02  0.27884959578E+03  0.84310595782E+03  0.65864270000E+03 0. -1.
    8880022    1    1    2    0    0  0.43838680443E+03  0.84127061571E+02  0.96268585709E+03  0.10721082339E+04  0.15294330000E+03 0.  0.
<mgrwt>
<rscale>  0 0.69822898E+03</rscale>
<asrwt>0</asrwt>
<pdfrwt beam="1">  1        2 0.24282690E+00 0.79565731E+03</pdfrwt>
<pdfrwt beam="2">  1       -2 0.51821441E-01 0.79565731E+03</pdfrwt>
<totfact> 0.41077250E+01</totfact>
</mgrwt>
</event>
<event>
 4    5  0.7289609E-008  0.1001663E+04  0.7818608E-02  0.9379385E-01
         -2   -1    0    0    0  501 -0.00000000000E+00  0.00000000000E+00  0.17563297684E+04  0.17563297684E+04  0.25500000000E-02 0.  1.
          2   -1    0    0  501    0  0.00000000000E+00 -0.00000000000E+00 -0.63273441871E+03  0.63273441871E+03  0.25500000000E-02 0. -1.
    8880023    1    1    2    0    0 -0.75096074997E+03  0.74680993778E+02  0.12573117305E+04  0.16075329834E+04  0.65864270000E+03 0.  0.
    8880022    1    1    2    0    0  0.75096074997E+03 -0.74680993778E+02 -0.13371638083E+03  0.78153120369E+03  0.15294330000E+03 0.  0.
<mgrwt>
<rscale>  0 0.93791834E+03</rscale>
<asrwt>0</asrwt>
<pdfrwt beam="1">  1        2 0.97343758E-01 0.10016634E+04</pdfrwt>
<pdfrwt beam="2">  1       -2 0.27020458E+00 0.10016634E+04</pdfrwt>
<totfact> 0.22490064E+00</totfact>
</mgrwt>
</event>
<event>
 4    5  0.7289609E-008  0.8247707E+03  0.7818608E-02  0.9659594E-01
          2   -1    0    0  501    0  0.00000000000E+00  0.00000000000E+00  0.39288417860E+04  0.39288417860E+04  0.25500000000E-02 0. -1.
         -2   -1    0    0    0  501 -0.00000000000E+00 -0.00000000000E+00 -0.23249172984E+03  0.23249172985E+03  0.25500000000E-02 0.  1.
    8880023    1    1    2    0    0 -0.36155633008E+03  0.34016695613E+03  0.59552090660E+03  0.10172963650E+04  0.65864270000E+03 0.  1.
    8880022    1    1    2    0    0  0.36155633008E+03 -0.34016695613E+03  0.31008291495E+04  0.31440371508E+04  0.15294330000E+03 0.  0.
<mgrwt>
<rscale>  0 0.73474365E+03</rscale>
<asrwt>0</asrwt>
<pdfrwt beam="1">  1        2 0.60443715E+00 0.82477072E+03</pdfrwt>
<pdfrwt beam="2">  1       -2 0.35767962E-01 0.82477072E+03</pdfrwt>
<totfact> 0.31136581E+00</totfact>
</mgrwt>
</event>
<event>
 4    5  0.7289609E-008  0.7981182E+03  0.7818608E-02  0.9714880E-01
         -2   -1    0    0    0  501 -0.00000000000E+00  0.00000000000E+00  0.87157214877E+03  0.87157214877E+03  0.25500000000E-02 0.  1.
          2   -1    0    0  501    0  0.00000000000E+00 -0.00000000000E+00 -0.79328960826E+03  0.79328960826E+03  0.25500000000E-02 0. -1.
    8880023    1    1    2    0    0 -0.24535480789E+03  0.37813145336E+03  0.56979388198E+03  0.98064144925E+03  0.65864270000E+03 0.  0.
    8880022    1    1    2    0    0  0.24535480789E+03 -0.37813145336E+03 -0.49151134147E+03  0.68422030778E+03  0.15294330000E+03 0.  0.
<mgrwt>
<rscale>  0 0.70137722E+03</rscale>
<asrwt>0</asrwt>
<pdfrwt beam="1">  1        2 0.12204455E+00 0.79811815E+03</pdfrwt>
<pdfrwt beam="2">  1       -2 0.13408802E+00 0.79811815E+03</pdfrwt>
<totfact> 0.14125786E+01</totfact>
</mgrwt>
</event>
<event>
 4    5  0.7289609E-008  0.8363610E+03  0.7818608E-02  0.9637080E-01
          2   -1    0    0  501    0  0.00000000000E+00  0.00000000000E+00  0.11127446848E+04  0.11127446848E+04  0.25500000000E-02 0. -1.
         -2   -1    0    0    0  501 -0.00000000000E+00 -0.00000000000E+00 -0.11872261849E+04  0.11872261849E+04  0.25500000000E-02 0.  1.
    8880023    1    1    2    0    0  0.17873693122E+03  0.48346936006E+03 -0.95426361894E+03  0.12689045565E+04  0.65864270000E+03 0.  1.
    8880022    1    1    2    0    0 -0.17873693122E+03 -0.48346936006E+03  0.87978211888E+03  0.10310663133E+04  0.15294330000E+03 0.  0.
<mgrwt>
<rscale>  0 0.74889823E+03</rscale>
<asrwt>0</asrwt>
<pdfrwt beam="1">  1        2 0.17119149E+00 0.83636100E+03</pdfrwt>
<pdfrwt beam="2">  1       -2 0.18265018E+00 0.83636100E+03</pdfrwt>
<totfact> 0.37609015E+00</totfact>
</mgrwt>
</event>
<event>
 4    5  0.7289609E-008  0.1150810E+04  0.7818608E-02  0.9206488E-01
         -2   -1    0    0    0  501 -0.00000000000E+00  0.00000000000E+00  0.39162004066E+04  0.39162004066E+04  0.25500000000E-02 0.  1.
          2   -1    0    0  501    0  0.00000000000E+00 -0.00000000000E+00 -0.81565431427E+03  0.81565431428E+03  0.25500000000E-02 0. -1.
    8880023    1    1    2    0    0 -0.30237469000E+03 -0.89393686335E+03  0.35085219299E+04  0.36924368522E+04  0.65864270000E+03 0.  1.
    8880022    1    1    2    0    0  0.30237469000E+03  0.89393686335E+03 -0.40797583750E+03  0.10394178687E+04  0.15294330000E+03 0.  0.
<mgrwt>
<rscale>  0 0.10986712E+04</rscale>
<asrwt>0</asrwt>
<pdfrwt beam="1">  1        2 0.12548528E+00 0.11508101E+04</pdfrwt>
<pdfrwt beam="2">  1       -2 0.60249235E+00 0.11508101E+04</pdfrwt>
<totfact> 0.15976550E-02</totfact>
</mgrwt>
</event>
<event>
 4    5  0.7289609E-008  0.8432031E+03  0.7818608E-02  0.9624170E-01
          2   -1    0    0  501    0  0.00000000000E+00  0.00000000000E+00  0.94178018834E+03  0.94178018834E+03  0.25500000000E-02 0. -1.
         -2   -1    0    0    0  501 -0.00000000000E+00 -0.00000000000E+00 -0.92465383004E+03  0.92465383004E+03  0.25500000000E-02 0.  1.
    8880023    1    1    2    0    0 -0.51695710626E+03  0.99682181680E+02 -0.60456116402E+03  0.10375382375E+04  0.65864270000E+03 0.  0.
    8880022    1    1    2    0    0  0.51695710626E+03 -0.99682181680E+02  0.62168752233E+03  0.82889578084E+03  0.15294330000E+03 0.  0.
<mgrwt>
<rscale>  0 0.75716904E+03</rscale>
<asrwt>0</asrwt>
<pdfrwt beam="1">  1        2 0.14488926E+00 0.84320306E+03</pdfrwt>
<pdfrwt beam="2">  1       -2 0.14225443E+00 0.84320306E+03</pdfrwt>
<totfact> 0.95344750E+00</totfact>
</mgrwt>
</event>
<event>
 4    5  0.7289609E-008  0.1670250E+04  0.7818608E-02  0.8797923E-01
          2   -1    0    0  501    0  0.00000000000E+00  0.00000000000E+00  0.27158677660E+04  0.27158677660E+04  0.25500000000E-02 0. -1.
         -2   -1    0    0    0  501 -0.00000000000E+00 -0.00000000000E+00 -0.15581132795E+04  0.15581132795E+04  0.25500000000E-02 0.  1.
    8880023    1    1    2    0    0  0.14385667796E+04 -0.53521065135E+03 -0.74133605350E+03  0.18273790442E+04  0.65864270000E+03 0.  0.
    8880022    1    1    2    0    0 -0.14385667796E+04  0.53521065135E+03  0.18990905400E+04  0.24466020013E+04  0.15294330000E+03 0.  0.
<mgrwt>
<rscale>  0 0.16373542E+04</rscale>
<asrwt>0</asrwt>
<pdfrwt beam="1">  1        2 0.41782580E+00 0.16702500E+04</pdfrwt>
<pdfrwt beam="2">  1       -2 0.23970974E+00 0.16702500E+04</pdfrwt>
<totfact> 0.17785024E-01</totfact>
</mgrwt>
</event>
<event>
 4    5  0.7289609E-008  0.1568391E+04  0.7818608E-02  0.8862794E-01
          2   -1    0    0  501    0  0.00000000000E+00  0.00000000000E+00  0.32981605959E+04  0.32981605959E+04  0.25500000000E-02 0. -1.
         -2   -1    0    0    0  501 -0.00000000000E+00 -0.00000000000E+00 -0.10739759058E+04  0.10739759058E+04  0.25500000000E-02 0.  1.
    8880023    1    1    2    0    0 -0.13287845118E+04 -0.51026727773E+03  0.24637939338E+04  0.29206389246E+04  0.65864270000E+03 0.  0.
    8880022    1    1    2    0    0  0.13287845118E+04  0.51026727773E+03 -0.23960924375E+03  0.14514975771E+04  0.15294330000E+03 0.  0.
<mgrwt>
<rscale>  0 0.15330101E+04</rscale>
<asrwt>0</asrwt>
<pdfrwt beam="1">  1        2 0.50740933E+00 0.15683913E+04</pdfrwt>
<pdfrwt beam="2">  1       -2 0.16522706E+00 0.15683913E+04</pdfrwt>
<totfact> 0.24238687E-01</totfact>
</mgrwt>
</event>
<event>
 4    5  0.7289609E-008  0.8789426E+03  0.7818608E-02  0.9560718E-01
          2   -1    0    0  501    0  0.00000000000E+00  0.00000000000E+00  0.18745047405E+04  0.18745047405E+04  0.25500000000E-02 0. -1.
         -2   -1    0    0    0  501 -0.00000000000E+00 -0.00000000000E+00 -0.38114829180E+03  0.38114829181E+03  0.25500000000E-02 0.  1.
    8880023    1    1    2    0    0  0.92148226910E+02 -0.57466385810E+03  0.31708333941E+03  0.93438851444E+03  0.65864270000E+03 0.  1.
    8880022    1    1    2    0    0 -0.92148226910E+02  0.57466385810E+03  0.11762731092E+04  0.13212645178E+04  0.15294330000E+03 0.  0.
<mgrwt>
<rscale>  0 0.79951601E+03</rscale>
<asrwt>0</asrwt>
<pdfrwt beam="1">  1        2 0.28838535E+00 0.87894258E+03</pdfrwt>
<pdfrwt beam="2">  1       -2 0.58638198E-01 0.87894258E+03</pdfrwt>
<totfact> 0.21646534E+01</totfact>
</mgrwt>
</event>
<event>
 4    5  0.7289609E-008  0.1151591E+04  0.7818608E-02  0.9205679E-01
          2   -1    0    0  501    0  0.00000000000E+00  0.00000000000E+00  0.23988157985E+04  0.23988157985E+04  0.25500000000E-02 0. -1.
         -2   -1    0    0    0  501 -0.00000000000E+00 -0.00000000000E+00 -0.58419271755E+03  0.58419271756E+03  0.25500000000E-02 0.  1.
    8880023    1    1    2    0    0 -0.94057727800E+03 -0.87551689439E+02  0.29767129066E+03  0.11894407584E+04  0.65864270000E+03 0.  0.
    8880022    1    1    2    0    0  0.94057727800E+03  0.87551689439E+02  0.15169517903E+04  0.17935677576E+04  0.15294330000E+03 0.  0.
<mgrwt>
<rscale>  0 0.10995001E+04</rscale>
<asrwt>0</asrwt>
<pdfrwt beam="1">  1        2 0.36904858E+00 0.11515907E+04</pdfrwt>
<pdfrwt beam="2">  1       -2 0.89875804E-01 0.11515907E+04</pdfrwt>
<totfact> 0.41750415E+00</totfact>
</mgrwt>
</event>
<event>
 4    5  0.7289609E-008  0.6688458E+03  0.7818608E-02  0.1016504E+00
         -2   -1    0    0    0  501 -0.00000000000E+00  0.00000000000E+00  0.17016175534E+03  0.17016175536E+03  0.25500000000E-02 0.  1.
          2   -1    0    0  501    0  0.00000000000E+00 -0.00000000000E+00 -0.13545461859E+04  0.13545461859E+04  0.25500000000E-02 0. -1.
    8880023    1    1    2    0    0 -0.42549980216E+02 -0.10832387332E+03 -0.56291917573E+03  0.87420407630E+03  0.65864270000E+03 0.  1.
    8880022    1    1    2    0    0  0.42549980216E+02  0.10832387332E+03 -0.62146525480E+03  0.65050386492E+03  0.15294330000E+03 0.  0.
<mgrwt>
<rscale>  0 0.48969546E+03</rscale>
<asrwt>0</asrwt>
<pdfrwt beam="1">  1        2 0.20839171E+00 0.66884585E+03</pdfrwt>
<pdfrwt beam="2">  1       -2 0.26178733E-01 0.66884585E+03</pdfrwt>
<totfact> 0.20641897E+02</totfact>
</mgrwt>
</event>
<event>
 4    5  0.8120069E-008  0.1065054E+04  0.7818608E-02  0.9301000E-01
         -2   -1    0    0    0  501 -0.00000000000E+00  0.00000000000E+00  0.13934598805E+04  0.13934598805E+04  0.25500000000E-02 0.  1.
          2   -1    0    0  501    0  0.00000000000E+00 -0.00000000000E+00 -0.19164697787E+04  0.19164697787E+04  0.25500000000E-02 0. -1.
    8880023    1    1    2    0    0  0.82573788107E+03 -0.13669800188E+03  0.10663673449E+04  0.15071426318E+04  0.65864270000E+03 0.  1.
    8880022    1    1    2    0    0 -0.82573788107E+03  0.13669800188E+03 -0.15893772431E+04  0.18027870273E+04  0.15294330000E+03 0.  0.
<mgrwt>
<rscale>  0 0.10069086E+04</rscale>
<asrwt>0</asrwt>
<pdfrwt beam="1">  1        2 0.29484150E+00 0.10650538E+04</pdfrwt>
<pdfrwt beam="2">  1       -2 0.21437844E+00 0.10650538E+04</pdfrwt>
<totfact> 0.78914897E-01</totfact>
</mgrwt>
</event>
<event>
 4    5  0.7289609E-008  0.1066792E+04  0.7818608E-02  0.9298963E-01
          2   -1    0    0  501    0  0.00000000000E+00  0.00000000000E+00  0.22040476163E+04  0.22040476163E+04  0.25500000000E-02 0. -1.
         -2   -1    0    0    0  501 -0.00000000000E+00 -0.00000000000E+00 -0.83260441897E+03  0.83260441898E+03  0.25500000000E-02 0.  1.
    8880023    1    1    2    0    0 -0.82242249987E+03 -0.16689873976E+03 -0.34395604645E+03  0.11208701646E+04  0.65864270000E+03 0.  1.
    8880022    1    1    2    0    0  0.82242249987E+03  0.16689873976E+03  0.17153992437E+04  0.19157818707E+04  0.15294330000E+03 0.  0.
<mgrwt>
<rscale>  0 0.10087840E+04</rscale>
<asrwt>0</asrwt>
<pdfrwt beam="1">  1        2 0.33908425E+00 0.10667915E+04</pdfrwt>
<pdfrwt beam="2">  1       -2 0.12809299E+00 0.10667915E+04</pdfrwt>
<totfact> 0.22988499E+00</totfact>
</mgrwt>
</event>
<event>
 4    5  0.7289609E-008  0.7293960E+03  0.7818608E-02  0.9891988E-01
         -2   -1    0    0    0  501 -0.00000000000E+00  0.00000000000E+00  0.47101478632E+03  0.47101478632E+03  0.25500000000E-02 0.  1.
          2   -1    0    0  501    0  0.00000000000E+00 -0.00000000000E+00 -0.27765555054E+04  0.27765555054E+04  0.25500000000E-02 0. -1.
    8880023    1    1    2    0    0 -0.20828138145E+03 -0.23415192785E+03  0.16888617982E+03  0.74869286571E+03  0.65864270000E+03 0.  0.
    8880022    1    1    2    0    0  0.20828138145E+03  0.23415192785E+03 -0.24744268989E+04  0.24988774260E+04  0.15294330000E+03 0.  0.
<mgrwt>
<rscale>  0 0.60651169E+03</rscale>
<asrwt>0</asrwt>
<pdfrwt beam="1">  1        2 0.42716238E+00 0.72939596E+03</pdfrwt>
<pdfrwt beam="2">  1       -2 0.72463815E-01 0.72939596E+03</pdfrwt>
<totfact> 0.43756235E+00</totfact>
</mgrwt>
</event>
<event>
 4    5  0.7289609E-008  0.8540981E+03  0.7818608E-02  0.9604149E-01
          2   -1    0    0  501    0  0.00000000000E+00  0.00000000000E+00  0.65696651879E+03  0.65696651879E+03  0.25500000000E-02 0. -1.
         -2   -1    0    0    0  501 -0.00000000000E+00 -0.00000000000E+00 -0.14203121196E+04  0.14203121196E+04  0.25500000000E-02 0.  1.
    8880023    1    1    2    0    0 -0.26990070920E+03 -0.47204559149E+03 -0.11205581915E+04  0.14089479409E+04  0.65864270000E+03 0.  1.
    8880022    1    1    2    0    0  0.26990070920E+03  0.47204559149E+03  0.35721259070E+03  0.66833069752E+03  0.15294330000E+03 0.  0.
<mgrwt>
<rscale>  0 0.77022169E+03</rscale>
<asrwt>0</asrwt>
<pdfrwt beam="1">  1        2 0.10107177E+00 0.85409814E+03</pdfrwt>
<pdfrwt beam="2">  1       -2 0.21850956E+00 0.85409814E+03</pdfrwt>
<totfact> 0.45301008E+00</totfact>
</mgrwt>
</event>
<event>
 4    5  0.7289609E-008  0.6780694E+03  0.7818608E-02  0.1010437E+00
         -2   -1    0    0    0  501 -0.00000000000E+00  0.00000000000E+00  0.54676920853E+03  0.54676920854E+03  0.25500000000E-02 0.  1.
          2   -1    0    0  501    0  0.00000000000E+00 -0.00000000000E+00 -0.85886259413E+03  0.85886259413E+03  0.25500000000E-02 0. -1.
    8880023    1    1    2    0    0 -0.15275515118E+03 -0.51319720939E+02  0.30962000333E+03  0.74541438321E+03  0.65864270000E+03 0.  1.
    8880022    1    1    2    0    0  0.15275515118E+03  0.51319720939E+02 -0.62171338893E+03  0.66021741946E+03  0.15294330000E+03 0. -1.
<mgrwt>
<rscale>  0 0.51301131E+03</rscale>
<asrwt>0</asrwt>
<pdfrwt beam="1">  1        2 0.13213271E+00 0.67806936E+03</pdfrwt>
<pdfrwt beam="2">  1       -2 0.84118340E-01 0.67806936E+03</pdfrwt>
<totfact> 0.39420884E+01</totfact>
</mgrwt>
</event>
<event>
 4    5  0.7289609E-008  0.1481975E+04  0.7818608E-02  0.8922470E-01
         -2   -1    0    0    0  501 -0.00000000000E+00  0.00000000000E+00  0.14324566542E+04  0.14324566542E+04  0.25500000000E-02 0.  1.
          2   -1    0    0  501    0  0.00000000000E+00 -0.00000000000E+00 -0.20602569024E+04  0.20602569024E+04  0.25500000000E-02 0. -1.
    8880023    1    1    2    0    0 -0.12913896996E+04  0.30782104091E+03  0.67314996956E+03  0.16276923042E+04  0.65864270000E+03 0.  0.
    8880022    1    1    2    0    0  0.12913896996E+04 -0.30782104091E+03 -0.13009502178E+04  0.18650212524E+04  0.15294330000E+03 0.  0.
<mgrwt>
<rscale>  0 0.14441452E+04</rscale>
<asrwt>0</asrwt>
<pdfrwt beam="1">  1        2 0.31696260E+00 0.14819755E+04</pdfrwt>
<pdfrwt beam="2">  1       -2 0.22037795E+00 0.14819755E+04</pdfrwt>
<totfact> 0.57135400E-01</totfact>
</mgrwt>
</event>
<event>
 4    5  0.7289609E-008  0.1020658E+04  0.7818608E-02  0.9355016E-01
         -2   -1    0    0    0  501 -0.00000000000E+00  0.00000000000E+00  0.46274596544E+03  0.46274596545E+03  0.25500000000E-02 0.  1.
          2   -1    0    0  501    0  0.00000000000E+00 -0.00000000000E+00 -0.26472972056E+04  0.26472972056E+04  0.25500000000E-02 0. -1.
    8880023    1    1    2    0    0 -0.59971333919E+03 -0.49827413275E+03 -0.29842989419E+03  0.10633925938E+04  0.65864270000E+03 0.  1.
    8880022    1    1    2    0    0  0.59971333919E+03  0.49827413275E+03 -0.18861213460E+04  0.20466505772E+04  0.15294330000E+03 0.  0.
<mgrwt>
<rscale>  0 0.95872024E+03</rscale>
<asrwt>0</asrwt>
<pdfrwt beam="1">  1        2 0.40727649E+00 0.10206583E+04</pdfrwt>
<pdfrwt beam="2">  1       -2 0.71191688E-01 0.10206583E+04</pdfrwt>
<totfact> 0.51695411E+00</totfact>
</mgrwt>
</event>
<event>
 4    5  0.7289609E-008  0.8441381E+03  0.7818608E-02  0.9622426E-01
         -2   -1    0    0    0  501 -0.00000000000E+00  0.00000000000E+00  0.45748173731E+03  0.45748173732E+03  0.25500000000E-02 0.  1.
          2   -1    0    0  501    0  0.00000000000E+00 -0.00000000000E+00 -0.11596533290E+04  0.11596533290E+04  0.25500000000E-02 0. -1.
    8880023    1    1    2    0    0 -0.14043894040E+03 -0.50895554708E+03 -0.18877794153E+03  0.86498911112E+03  0.65864270000E+03 0.  0.
    8880022    1    1    2    0    0  0.14043894040E+03  0.50895554708E+03 -0.51339365015E+03  0.75214595520E+03  0.15294330000E+03 0.  0.
<mgrwt>
<rscale>  0 0.75829470E+03</rscale>
<asrwt>0</asrwt>
<pdfrwt beam="1">  1        2 0.17840820E+00 0.84413805E+03</pdfrwt>
<pdfrwt beam="2">  1       -2 0.70381806E-01 0.84413805E+03</pdfrwt>
<totfact> 0.37124704E+01</totfact>
</mgrwt>
</event>
<event>
 4    5  0.7289609E-008  0.7079425E+03  0.7818608E-02  0.9965722E-01
          2   -1    0    0  501    0  0.00000000000E+00  0.00000000000E+00  0.31700149144E+04  0.31700149144E+04  0.25500000000E-02 0. -1.
         -2   -1    0    0    0  501 -0.00000000000E+00 -0.00000000000E+00 -0.10172413403E+03  0.10172413406E+03  0.25500000000E-02 0.  1.
    8880023    1    1    2    0    0 -0.19960206040E+03  0.16592571007E+03  0.13217205663E+04  0.14993757986E+04  0.65864270000E+03 0.  0.
    8880022    1    1    2    0    0  0.19960206040E+03 -0.16592571007E+03  0.17465702140E+04  0.17723632498E+04  0.15294330000E+03 0.  0.
<mgrwt>
<rscale>  0 0.57179146E+03</rscale>
<asrwt>0</asrwt>
<pdfrwt beam="1">  1        2 0.48769453E+00 0.70794246E+03</pdfrwt>
<pdfrwt beam="2">  1       -2 0.15649869E-01 0.70794246E+03</pdfrwt>
<totfact> 0.47260030E+01</totfact>
</mgrwt>
</event>
<event>
 4    5  0.7289609E-008  0.1240616E+04  0.7818608E-02  0.9118617E-01
          2   -1    0    0  501    0  0.00000000000E+00  0.00000000000E+00  0.28955730499E+04  0.28955730499E+04  0.25500000000E-02 0. -1.
         -2   -1    0    0    0  501 -0.00000000000E+00 -0.00000000000E+00 -0.78527118938E+03  0.78527118939E+03  0.25500000000E-02 0.  1.
    8880023    1    1    2    0    0  0.97547192405E+02  0.10468060270E+04 -0.83403642387E+02  0.12434165379E+04  0.65864270000E+03 0.  1.
    8880022    1    1    2    0    0 -0.97547192405E+02 -0.10468060270E+04  0.21937055029E+04  0.24374277014E+04  0.15294330000E+03 0.  0.
<mgrwt>
<rscale>  0 0.11934408E+04</rscale>
<asrwt>0</asrwt>
<pdfrwt beam="1">  1        2 0.44547277E+00 0.12406162E+04</pdfrwt>
<pdfrwt beam="2">  1       -2 0.12081095E+00 0.12406162E+04</pdfrwt>
<totfact> 0.10354293E+00</totfact>
</mgrwt>
</event>
<event>
 4    5  0.7289609E-008  0.7054318E+03  0.7818608E-02  0.9975372E-01
          2   -1    0    0  501    0  0.00000000000E+00  0.00000000000E+00  0.11382548435E+04  0.11382548435E+04  0.25500000000E-02 0. -1.
         -2   -1    0    0    0  501 -0.00000000000E+00 -0.00000000000E+00 -0.31425328402E+03  0.31425328403E+03  0.25500000000E-02 0.  1.
    8880023    1    1    2    0    0 -0.24961035404E+03 -0.38968369513E+02  0.15648359345E+03  0.72257953469E+03  0.65864270000E+03 0.  1.
    8880022    1    1    2    0    0  0.24961035404E+03  0.38968369513E+02  0.66751796608E+03  0.72992859289E+03  0.15294330000E+03 0.  0.
<mgrwt>
<rscale>  0 0.56743420E+03</rscale>
<asrwt>0</asrwt>
<pdfrwt beam="1">  1        2 0.17511613E+00 0.70543183E+03</pdfrwt>
<pdfrwt beam="2">  1       -2 0.48346659E-01 0.70543183E+03</pdfrwt>
<totfact> 0.85239694E+01</totfact>
</mgrwt>
</event>
<event>
 4    5  0.7289609E-008  0.1437700E+04  0.7818608E-02  0.8954929E-01
          2   -1    0    0  501    0  0.00000000000E+00  0.00000000000E+00  0.42293057834E+04  0.42293057834E+04  0.25500000000E-02 0. -1.
         -2   -1    0    0    0  501 -0.00000000000E+00 -0.00000000000E+00 -0.72429249662E+03  0.72429249663E+03  0.25500000000E-02 0.  1.
    8880023    1    1    2    0    0 -0.48262816400E+03  0.11833175643E+04  0.25782513670E+03  0.14606349339E+04  0.65864270000E+03 0.  0.
    8880022    1    1    2    0    0  0.48262816400E+03 -0.11833175643E+04  0.32471881501E+04  0.34929633462E+04  0.15294330000E+03 0.  0.
<mgrwt>
<rscale>  0 0.13984667E+04</rscale>
<asrwt>0</asrwt>
<pdfrwt beam="1">  1        2 0.65066241E+00 0.14376998E+04</pdfrwt>
<pdfrwt beam="2">  1       -2 0.11142962E+00 0.14376998E+04</pdfrwt>
<totfact> 0.13692774E-01</totfact>
</mgrwt>
</event>
<event>
 4    5  0.7289609E-008  0.9581781E+03  0.7818608E-02  0.9438444E-01
          2   -1    0    0  501    0  0.00000000000E+00  0.00000000000E+00  0.19374859579E+04  0.19374859579E+04  0.25500000000E-02 0. -1.
         -2   -1    0    0    0  501 -0.00000000000E+00 -0.00000000000E+00 -0.75915649634E+03  0.75915649634E+03  0.25500000000E-02 0.  1.
    8880023    1    1    2    0    0 -0.42419244560E+03 -0.55168458476E+03 -0.34219711247E+03  0.10174498425E+04  0.65864270000E+03 0.  1.
    8880022    1    1    2    0    0  0.42419244560E+03  0.55168458476E+03  0.15205265741E+04  0.16791926118E+04  0.15294330000E+03 0.  0.
<mgrwt>
<rscale>  0 0.88978313E+03</rscale>
<asrwt>0</asrwt>
<pdfrwt beam="1">  1        2 0.29807476E+00 0.95817812E+03</pdfrwt>
<pdfrwt beam="2">  1       -2 0.11679331E+00 0.95817812E+03</pdfrwt>
<totfact> 0.41246489E+00</totfact>
</mgrwt>
</event>
<event>
 4    5  0.7289609E-008  0.9872100E+03  0.7818608E-02  0.9398485E-01
          2   -1    0    0  501    0  0.00000000000E+00  0.00000000000E+00  0.13759333324E+04  0.13759333324E+04  0.25500000000E-02 0. -1.
         -2   -1    0    0    0  501 -0.00000000000E+00 -0.00000000000E+00 -0.90563587184E+03  0.90563587184E+03  0.25500000000E-02 0.  1.
    8880023    1    1    2    0    0 -0.71809879490E+03 -0.15845363180E+03 -0.45731608465E+03  0.10879897243E+04  0.65864270000E+03 0.  0.
    8880022    1    1    2    0    0  0.71809879490E+03  0.15845363180E+03  0.92761354523E+03  0.11935794800E+04  0.15294330000E+03 0.  0.
<mgrwt>
<rscale>  0 0.92200430E+03</rscale>
<asrwt>0</asrwt>
<pdfrwt beam="1">  1        2 0.21168205E+00 0.98721003E+03</pdfrwt>
<pdfrwt beam="2">  1       -2 0.13932860E+00 0.98721003E+03</pdfrwt>
<totfact> 0.53984865E+00</totfact>
</mgrwt>
</event>
<event>
 4    5  0.7289609E-008  0.1192842E+04  0.7818608E-02  0.9164112E-01
         -2   -1    0    0    0  501 -0.00000000000E+00  0.00000000000E+00  0.25737442550E+04  0.25737442550E+04  0.25500000000E-02 0.  1.
          2   -1    0    0  501    0  0.00000000000E+00 -0.00000000000E+00 -0.71929501210E+03  0.71929501210E+03  0.25500000000E-02 0. -1.
    8880023    1    1    2    0    0 -0.96878272948E+03  0.22477202946E+03  0.19461897739E+04  0.22826579429E+04  0.65864270000E+03 0.  1.
    8880022    1    1    2    0    0  0.96878272948E+03 -0.22477202946E+03 -0.91740531004E+02  0.10103813242E+04  0.15294330000E+03 0.  0.
<mgrwt>
<rscale>  0 0.11431657E+04</rscale>
<asrwt>0</asrwt>
<pdfrwt beam="1">  1        2 0.11066077E+00 0.11928423E+04</pdfrwt>
<pdfrwt beam="2">  1       -2 0.39596065E+00 0.11928423E+04</pdfrwt>
<totfact> 0.30917722E-01</totfact>
</mgrwt>
</event>
<event>
 4    5  0.7289609E-008  0.1016648E+04  0.7818608E-02  0.9360093E-01
          2   -1    0    0  501    0  0.00000000000E+00  0.00000000000E+00  0.21838308322E+04  0.21838308322E+04  0.25500000000E-02 0. -1.
         -2   -1    0    0    0  501 -0.00000000000E+00 -0.00000000000E+00 -0.48388806459E+03  0.48388806460E+03  0.25500000000E-02 0.  1.
    8880023    1    1    2    0    0 -0.31524563680E+03  0.70737810648E+03  0.15659549540E+04  0.18670267061E+04  0.65864270000E+03 0.  0.
    8880022    1    1    2    0    0  0.31524563680E+03 -0.70737810648E+03  0.13398781361E+03  0.80069219071E+03  0.15294330000E+03 0.  0.
<mgrwt>
<rscale>  0 0.95433882E+03</rscale>
<asrwt>0</asrwt>
<pdfrwt beam="1">  1        2 0.33597397E+00 0.10166483E+04</pdfrwt>
<pdfrwt beam="2">  1       -2 0.74444318E-01 0.10166483E+04</pdfrwt>
<totfact> 0.85882964E+00</totfact>
</mgrwt>
</event>
<event>
 4    5  0.7289609E-008  0.1968916E+04  0.7818608E-02  0.8634438E-01
          2   -1    0    0  501    0  0.00000000000E+00  0.00000000000E+00  0.41760663785E+04  0.41760663785E+04  0.25500000000E-02 0. -1.
         -2   -1    0    0    0  501 -0.00000000000E+00 -0.00000000000E+00 -0.13842818318E+04  0.13842818318E+04  0.25500000000E-02 0.  1.
    8880023    1    1    2    0    0  0.18189809200E+04 -0.36623350353E+03 -0.25947527792E+03  0.19859396246E+04  0.65864270000E+03 0.  0.
    8880022    1    1    2    0    0 -0.18189809200E+04  0.36623350353E+03  0.30512598246E+04  0.35744085856E+04  0.15294330000E+03 0.  0.
<mgrwt>
<rscale>  0 0.19415662E+04</rscale>
<asrwt>0</asrwt>
<pdfrwt beam="1">  1        2 0.64247174E+00 0.19689156E+04</pdfrwt>
<pdfrwt beam="2">  1       -2 0.21296644E+00 0.19689156E+04</pdfrwt>
<totfact> 0.24026078E-02</totfact>
</mgrwt>
</event>
<event>
 4    5  0.7289609E-008  0.6626047E+03  0.7818608E-02  0.1021633E+00
          2   -1    0    0  501    0  0.00000000000E+00  0.00000000000E+00  0.39047485642E+04  0.39047485642E+04  0.25500000000E-02 0. -1.
         -2   -1    0    0    0  501 -0.00000000000E+00 -0.00000000000E+00 -0.55076733908E+02  0.55076733967E+02  0.25500000000E-02 0.  1.
    8880023    1    1    2    0    0 -0.59557782852E+02 -0.41081345329E+02  0.21015058493E+04  0.22034908321E+04  0.65864270000E+03 0.  0.
    8880022    1    1    2    0    0  0.59557782852E+02  0.41081345329E+02  0.17481659810E+04  0.17563344661E+04  0.15294330000E+03 0.  0.
<mgrwt>
<rscale>  0 0.47101729E+03</rscale>
<asrwt>0</asrwt>
<pdfrwt beam="1">  1        2 0.60073055E+00 0.66260472E+03</pdfrwt>
<pdfrwt beam="2">  1       -2 0.84733437E-02 0.66260472E+03</pdfrwt>
<totfact> 0.40711814E+01</totfact>
</mgrwt>
</event>
<event>
 4    5  0.7289609E-008  0.1008835E+04  0.7818608E-02  0.9370088E-01
         -2   -1    0    0    0  501 -0.00000000000E+00  0.00000000000E+00  0.88896485637E+03  0.88896485638E+03  0.25500000000E-02 0.  1.
          2   -1    0    0  501    0  0.00000000000E+00 -0.00000000000E+00 -0.13033294294E+04  0.13033294294E+04  0.25500000000E-02 0. -1.
    8880023    1    1    2    0    0 -0.22527400020E+03  0.73019887675E+03  0.38136285015E+03  0.10785112909E+04  0.65864270000E+03 0.  0.
    8880022    1    1    2    0    0  0.22527400020E+03 -0.73019887675E+03 -0.79572742321E+03  0.11137829950E+04  0.15294330000E+03 0.  0.
<mgrwt>
<rscale>  0 0.94578709E+03</rscale>
<asrwt>0</asrwt>
<pdfrwt beam="1">  1        2 0.20051222E+00 0.10088355E+04</pdfrwt>
<pdfrwt beam="2">  1       -2 0.13676382E+00 0.10088355E+04</pdfrwt>
<totfact> 0.62250290E+00</totfact>
</mgrwt>
</event>
<event>
 4    5  0.7289609E-008  0.8526877E+03  0.7818608E-02  0.9606705E-01
          2   -1    0    0  501    0  0.00000000000E+00  0.00000000000E+00  0.16974782358E+04  0.16974782358E+04  0.25500000000E-02 0. -1.
         -2   -1    0    0    0  501 -0.00000000000E+00 -0.00000000000E+00 -0.49467752623E+03  0.49467752624E+03  0.25500000000E-02 0.  1.
    8880023    1    1    2    0    0  0.41935325962E+03 -0.34264995253E+03 -0.12627757585E+02  0.85278122215E+03  0.65864270000E+03 0.  1.
    8880022    1    1    2    0    0 -0.41935325962E+03  0.34264995253E+03  0.12154284671E+04  0.13393745399E+04  0.15294330000E+03 0. -1.
<mgrwt>
<rscale>  0 0.76853966E+03</rscale>
<asrwt>0</asrwt>
<pdfrwt beam="1">  1        2 0.26115050E+00 0.85268772E+03</pdfrwt>
<pdfrwt beam="2">  1       -2 0.76104234E-01 0.85268772E+03</pdfrwt>
<totfact> 0.15435795E+01</totfact>
</mgrwt>
</event>
<event>
 4    5  0.7289609E-008  0.1317630E+04  0.7818608E-02  0.9050483E-01
         -2   -1    0    0    0  501 -0.00000000000E+00  0.00000000000E+00  0.10949683073E+04  0.10949683073E+04  0.25500000000E-02 0.  1.
          2   -1    0    0  501    0  0.00000000000E+00 -0.00000000000E+00 -0.38771087305E+04  0.38771087305E+04  0.25500000000E-02 0. -1.
    8880023    1    1    2    0    0  0.70297585125E+03  0.89897875096E+03  0.56408615568E+03  0.14332973311E+04  0.65864270000E+03 0.  0.
    8880022    1    1    2    0    0 -0.70297585125E+03 -0.89897875096E+03 -0.33462265789E+04  0.35387797067E+04  0.15294330000E+03 0.  0.
<mgrwt>
<rscale>  0 0.12739486E+04</rscale>
<asrwt>0</asrwt>
<pdfrwt beam="1">  1        2 0.59647826E+00 0.13176297E+04</pdfrwt>
<pdfrwt beam="2">  1       -2 0.16845666E+00 0.13176297E+04</pdfrwt>
<totfact> 0.92073790E-02</totfact>
</mgrwt>
</event>
<event>
 4    5  0.7289609E-008  0.9052199E+03  0.7818608E-02  0.9517703E-01
          2   -1    0    0  501    0  0.00000000000E+00  0.00000000000E+00  0.15380680849E+04  0.15380680849E+04  0.25500000000E-02 0. -1.
         -2   -1    0    0    0  501 -0.00000000000E+00 -0.00000000000E+00 -0.47955142177E+03  0.47955142178E+03  0.25500000000E-02 0.  1.
    8880023    1    1    2    0    0 -0.40360171777E+03 -0.47193054061E+03  0.16709051163E+03  0.92051193750E+03  0.65864270000E+03 0.  1.
    8880022    1    1    2    0    0  0.40360171777E+03  0.47193054061E+03  0.89142615148E+03  0.10971075692E+04  0.15294330000E+03 0.  0.
<mgrwt>
<rscale>  0 0.82991107E+03</rscale>
<asrwt>0</asrwt>
<pdfrwt beam="1">  1        2 0.23662586E+00 0.90521986E+03</pdfrwt>
<pdfrwt beam="2">  1       -2 0.73777142E-01 0.90521986E+03</pdfrwt>
<totfact> 0.20148076E+01</totfact>
</mgrwt>
</event>
<event>
 4    5  0.7289609E-008  0.8486904E+03  0.7818608E-02  0.9614006E-01
         -2   -1    0    0    0  501 -0.00000000000E+00  0.00000000000E+00  0.55312401320E+03  0.55312401320E+03  0.25500000000E-02 0.  1.
          2   -1    0    0  501    0  0.00000000000E+00 -0.00000000000E+00 -0.27558654107E+04  0.27558654107E+04  0.25500000000E-02 0. -1.
    8880023    1    1    2    0    0  0.17049946033E+03 -0.50734131028E+03  0.17535223913E+03  0.86661634252E+03  0.65864270000E+03 0.  1.
    8880022    1    1    2    0    0 -0.17049946033E+03  0.50734131028E+03 -0.23780936366E+04  0.24423730814E+04  0.15294330000E+03 0.  0.
<mgrwt>
<rscale>  0 0.76376040E+03</rscale>
<asrwt>0</asrwt>
<pdfrwt beam="1">  1        2 0.42397929E+00 0.84869045E+03</pdfrwt>
<pdfrwt beam="2">  1       -2 0.85096004E-01 0.84869045E+03</pdfrwt>
<totfact> 0.30715944E+00</totfact>
</mgrwt>
</event>
<event>
 4    5  0.7289609E-008  0.6692043E+03  0.7818608E-02  0.1016240E+00
          2   -1    0    0  501    0  0.00000000000E+00  0.00000000000E+00  0.81328421808E+03  0.81328421809E+03  0.25500000000E-02 0. -1.
         -2   -1    0    0    0  501 -0.00000000000E+00 -0.00000000000E+00 -0.73663188544E+03  0.73663188544E+03  0.25500000000E-02 0.  1.
    8880023    1    1    2    0    0 -0.36670197076E+02 -0.11260306084E+03 -0.56744625210E+03  0.87739934348E+03  0.65864270000E+03 0.  1.
    8880022    1    1    2    0    0  0.36670197076E+02  0.11260306084E+03  0.64409858474E+03  0.67251676005E+03  0.15294330000E+03 0.  0.
<mgrwt>
<rscale>  0 0.49068289E+03</rscale>
<asrwt>0</asrwt>
<pdfrwt beam="1">  1        2 0.12512065E+00 0.66920427E+03</pdfrwt>
<pdfrwt beam="2">  1       -2 0.11332798E+00 0.66920427E+03</pdfrwt>
<totfact> 0.21067130E+01</totfact>
</mgrwt>
</event>
<event>
 4    5  0.7289609E-008  0.8475631E+03  0.7818608E-02  0.9616081E-01
         -2   -1    0    0    0  501 -0.00000000000E+00  0.00000000000E+00  0.97294646473E+03  0.97294646474E+03  0.25500000000E-02 0.  1.
          2   -1    0    0  501    0  0.00000000000E+00 -0.00000000000E+00 -0.51204059006E+03  0.51204059007E+03  0.25500000000E-02 0. -1.
    8880023    1    1    2    0    0  0.53112644366E+03  0.49574697086E+02  0.19531127297E+03  0.86977563162E+03  0.65864270000E+03 0.  0.
    8880022    1    1    2    0    0 -0.53112644366E+03 -0.49574697086E+02  0.26559460170E+03  0.61521142318E+03  0.15294330000E+03 0.  0.
<mgrwt>
<rscale>  0 0.76240914E+03</rscale>
<asrwt>0</asrwt>
<pdfrwt beam="1">  1        2 0.78775476E-01 0.84756307E+03</pdfrwt>
<pdfrwt beam="2">  1       -2 0.14968407E+00 0.84756307E+03</pdfrwt>
<totfact> 0.18143945E+01</totfact>
</mgrwt>
</event>
<event>
 4    5  0.7289609E-008  0.6761781E+03  0.7818608E-02  0.1011574E+00
         -2   -1    0    0    0  501 -0.00000000000E+00  0.00000000000E+00  0.19321354409E+03  0.19321354410E+03  0.25500000000E-02 0.  1.
          2   -1    0    0  501    0  0.00000000000E+00 -0.00000000000E+00 -0.20318825130E+04  0.20318825130E+04  0.25500000000E-02 0. -1.
    8880023    1    1    2    0    0  0.70669298748E+02  0.13569235922E+03 -0.43312797129E+03  0.80300473966E+03  0.65864270000E+03 0.  1.
    8880022    1    1    2    0    0 -0.70669298748E+02 -0.13569235922E+03 -0.14055409976E+04  0.14220913174E+04  0.15294330000E+03 0.  0.
<mgrwt>
<rscale>  0 0.50853924E+03</rscale>
<asrwt>0</asrwt>
<pdfrwt beam="1">  1        2 0.31259730E+00 0.67617806E+03</pdfrwt>
<pdfrwt beam="2">  1       -2 0.29725162E-01 0.67617806E+03</pdfrwt>
<totfact> 0.69420752E+01</totfact>
</mgrwt>
</event>
<event>
 4    5  0.7289609E-008  0.8736527E+03  0.7818608E-02  0.9569725E-01
         -2   -1    0    0    0  501 -0.00000000000E+00  0.00000000000E+00  0.62867942957E+03  0.62867942957E+03  0.25500000000E-02 0.  1.
          2   -1    0    0  501    0  0.00000000000E+00 -0.00000000000E+00 -0.12706523360E+04  0.12706523360E+04  0.25500000000E-02 0. -1.
    8880023    1    1    2    0    0 -0.20437557599E+03 -0.53636697204E+03  0.17323472299E+03  0.89066232674E+03  0.65864270000E+03 0.  1.
    8880022    1    1    2    0    0  0.20437557599E+03  0.53636697204E+03 -0.81520762942E+03  0.10086694388E+04  0.15294330000E+03 0.  0.
<mgrwt>
<rscale>  0 0.79332837E+03</rscale>
<asrwt>0</asrwt>
<pdfrwt beam="1">  1        2 0.19548497E+00 0.87365274E+03</pdfrwt>
<pdfrwt beam="2">  1       -2 0.96719912E-01 0.87365274E+03</pdfrwt>
<totfact> 0.15470404E+01</totfact>
</mgrwt>
</event>
<event>
 4    5  0.7289609E-008  0.9689280E+03  0.7818608E-02  0.9423388E-01
         -2   -1    0    0    0  501 -0.00000000000E+00  0.00000000000E+00  0.86952404575E+03  0.86952404575E+03  0.25500000000E-02 0.  1.
          2   -1    0    0  501    0  0.00000000000E+00 -0.00000000000E+00 -0.32849310095E+04  0.32849310095E+04  0.25500000000E-02 0. -1.
    8880023    1    1    2    0    0  0.63054307966E+03 -0.32776004166E+03  0.54118023507E+03  0.11098186669E+04  0.65864270000E+03 0.  1.
    8880022    1    1    2    0    0 -0.63054307966E+03  0.32776004166E+03 -0.29565871988E+04  0.30446363884E+04  0.15294330000E+03 0.  0.
<mgrwt>
<rscale>  0 0.90175647E+03</rscale>
<asrwt>0</asrwt>
<pdfrwt beam="1">  1        2 0.50537400E+00 0.96892798E+03</pdfrwt>
<pdfrwt beam="2">  1       -2 0.13377293E+00 0.96892798E+03</pdfrwt>
<totfact> 0.47448420E-01</totfact>
</mgrwt>
</event>
<event>
 4    5  0.7289609E-008  0.6671086E+03  0.7818608E-02  0.1017826E+00
          2   -1    0    0  501    0  0.00000000000E+00  0.00000000000E+00  0.31596147848E+03  0.31596147849E+03  0.25500000000E-02 0. -1.
         -2   -1    0    0    0  501 -0.00000000000E+00 -0.00000000000E+00 -0.16916285575E+04  0.16916285575E+04  0.25500000000E-02 0.  1.
    8880023    1    1    2    0    0 -0.85129353937E+02 -0.63061211778E+02 -0.15896970346E+04  0.17239984314E+04  0.65864270000E+03 0.  1.
    8880022    1    1    2    0    0  0.85129353937E+02  0.63061211778E+02  0.21402995555E+03  0.28359160464E+03  0.15294330000E+03 0.  0.
<mgrwt>
<rscale>  0 0.48479268E+03</rscale>
<asrwt>0</asrwt>
<pdfrwt beam="1">  1        2 0.48609460E-01 0.66710863E+03</pdfrwt>
<pdfrwt beam="2">  1       -2 0.26025054E+00 0.66710863E+03</pdfrwt>
<totfact> 0.59957594E+00</totfact>
</mgrwt>
</event>
<event>
 4    5  0.7289609E-008  0.8697992E+03  0.7818608E-02  0.9576365E-01
          2   -1    0    0  501    0  0.00000000000E+00  0.00000000000E+00  0.14031117697E+04  0.14031117697E+04  0.25500000000E-02 0. -1.
         -2   -1    0    0    0  501 -0.00000000000E+00 -0.00000000000E+00 -0.74185882794E+03  0.74185882794E+03  0.25500000000E-02 0.  1.
    8880023    1    1    2    0    0  0.34396976806E+03  0.45213417199E+03 -0.37985694773E+03  0.94912697666E+03  0.65864270000E+03 0.  0.
    8880022    1    1    2    0    0 -0.34396976806E+03 -0.45213417199E+03  0.10411098895E+04  0.11958436210E+04  0.15294330000E+03 0.  0.
<mgrwt>
<rscale>  0 0.78880474E+03</rscale>
<asrwt>0</asrwt>
<pdfrwt beam="1">  1        2 0.21586335E+00 0.86979924E+03</pdfrwt>
<pdfrwt beam="2">  1       -2 0.11413213E+00 0.86979924E+03</pdfrwt>
<totfact> 0.87242981E+00</totfact>
</mgrwt>
</event>
<event>
 4    5  0.7289609E-008  0.9538115E+03  0.7818608E-02  0.9444651E-01
         -2   -1    0    0    0  501 -0.00000000000E+00  0.00000000000E+00  0.45097748224E+03  0.45097748225E+03  0.25500000000E-02 0.  1.
          2   -1    0    0  501    0  0.00000000000E+00 -0.00000000000E+00 -0.22408870576E+04  0.22408870576E+04  0.25500000000E-02 0. -1.
    8880023    1    1    2    0    0  0.66896882018E+03 -0.16860299225E+03 -0.23264549882E+03  0.98177410118E+03  0.65864270000E+03 0.  1.
    8880022    1    1    2    0    0 -0.66896882018E+03  0.16860299225E+03 -0.15572640766E+04  0.17100904387E+04  0.15294330000E+03 0. -1.
<mgrwt>
<rscale>  0 0.88490418E+03</rscale>
<asrwt>0</asrwt>
<pdfrwt beam="1">  1        2 0.34475185E+00 0.95381154E+03</pdfrwt>
<pdfrwt beam="2">  1       -2 0.69381152E-01 0.95381154E+03</pdfrwt>
<totfact> 0.93944111E+00</totfact>
</mgrwt>
</event>
<event>
 4    5  0.7289609E-008  0.9428291E+03  0.7818608E-02  0.9460507E-01
          2   -1    0    0  501    0  0.00000000000E+00  0.00000000000E+00  0.30085884369E+04  0.30085884369E+04  0.25500000000E-02 0. -1.
         -2   -1    0    0    0  501 -0.00000000000E+00 -0.00000000000E+00 -0.29718995167E+03  0.29718995168E+03  0.25500000000E-02 0.  1.
    8880023    1    1    2    0    0  0.17717872073E+03  0.65094107981E+03  0.68732951210E+03  0.11667684659E+04  0.65864270000E+03 0.  1.
    8880022    1    1    2    0    0 -0.17717872073E+03 -0.65094107981E+03  0.20240689731E+04  0.21390099227E+04  0.15294330000E+03 0.  0.
<mgrwt>
<rscale>  0 0.87259140E+03</rscale>
<asrwt>0</asrwt>
<pdfrwt beam="1">  1        2 0.46285978E+00 0.94282914E+03</pdfrwt>
<pdfrwt beam="2">  1       -2 0.45721529E-01 0.94282914E+03</pdfrwt>
<totfact> 0.80472754E+00</totfact>
</mgrwt>
</event>
<event>
 4    5  0.7289609E-008  0.2059292E+04  0.7818608E-02  0.8591228E-01
         -2   -1    0    0    0  501 -0.00000000000E+00  0.00000000000E+00  0.13366454611E+04  0.13366454611E+04  0.25500000000E-02 0.  1.
          2   -1    0    0  501    0  0.00000000000E+00 -0.00000000000E+00 -0.45459855514E+04  0.45459855514E+04  0.25500000000E-02 0. -1.
    8880023    1    1    2    0    0 -0.11205495781E+04  0.15972609495E+04 -0.33371188468E+04  0.39213577115E+04  0.65864270000E+03 0.  0.
    8880022    1    1    2    0    0  0.11205495781E+04 -0.15972609495E+04  0.12777875650E+03  0.19612733010E+04  0.15294330000E+03 0.  0.
<mgrwt>
<rscale>  0 0.20332561E+04</rscale>
<asrwt>0</asrwt>
<pdfrwt beam="1">  1        2 0.69938239E+00 0.20592921E+04</pdfrwt>
<pdfrwt beam="2">  1       -2 0.20563777E+00 0.20592921E+04</pdfrwt>
<totfact> 0.12096151E-02</totfact>
</mgrwt>
</event>
<event>
 4    5  0.7289609E-008  0.6941086E+03  0.7818608E-02  0.1002258E+00
         -2   -1    0    0    0  501 -0.00000000000E+00  0.00000000000E+00  0.83462468358E+03  0.83462468359E+03  0.25500000000E-02 0.  1.
          2   -1    0    0  501    0  0.00000000000E+00 -0.00000000000E+00 -0.12889400034E+04  0.12889400034E+04  0.25500000000E-02 0. -1.
    8880023    1    1    2    0    0 -0.21563698601E+03 -0.38434272047E+02  0.67193382636E+03  0.96606509940E+03  0.65864270000E+03 0.  1.
    8880022    1    1    2    0    0  0.21563698601E+03  0.38434272047E+02 -0.11262491462E+04  0.11574995876E+04  0.15294330000E+03 0.  0.
<mgrwt>
<rscale>  0 0.54671201E+03</rscale>
<asrwt>0</asrwt>
<pdfrwt beam="1">  1        2 0.19829846E+00 0.69410857E+03</pdfrwt>
<pdfrwt beam="2">  1       -2 0.12840380E+00 0.69410857E+03</pdfrwt>
<totfact> 0.77412002E+00</totfact>
</mgrwt>
</event>
<event>
 4    5  0.7289609E-008  0.6599646E+03  0.7818608E-02  0.1024193E+00
          2   -1    0    0  501    0  0.00000000000E+00  0.00000000000E+00  0.14411011903E+04  0.14411011903E+04  0.25500000000E-02 0. -1.
         -2   -1    0    0    0  501 -0.00000000000E+00 -0.00000000000E+00 -0.27520893287E+03  0.27520893289E+03  0.25500000000E-02 0.  1.
    8880023    1    1    2    0    0 -0.34089927019E+02  0.24103104113E+02  0.13542192640E+03  0.67371536064E+03  0.65864270000E+03 0.  1.
    8880022    1    1    2    0    0  0.34089927019E+02 -0.24103104113E+02  0.10304703311E+04  0.10425947626E+04  0.15294330000E+03 0.  0.
<mgrwt>
<rscale>  0 0.46203490E+03</rscale>
<asrwt>0</asrwt>
<pdfrwt beam="1">  1        2 0.22170788E+00 0.65996461E+03</pdfrwt>
<pdfrwt beam="2">  1       -2 0.42339836E-01 0.65996461E+03</pdfrwt>
<totfact> 0.74551930E+01</totfact>
</mgrwt>
</event>
<event>
 4    5  0.7289609E-008  0.7732658E+03  0.7818608E-02  0.9771900E-01
         -2   -1    0    0    0  501 -0.00000000000E+00  0.00000000000E+00  0.21567288860E+03  0.21567288862E+03  0.25500000000E-02 0.  1.
          2   -1    0    0  501    0  0.00000000000E+00 -0.00000000000E+00 -0.32408792757E+04  0.32408792757E+04  0.25500000000E-02 0. -1.
    8880023    1    1    2    0    0  0.40485986443E+03  0.14773171077E+02 -0.56288118992E+03  0.95643880967E+03  0.65864270000E+03 0.  0.
    8880022    1    1    2    0    0 -0.40485986443E+03 -0.14773171077E+02 -0.24623251972E+04  0.25001133546E+04  0.15294330000E+03 0.  0.
<mgrwt>
<rscale>  0 0.66892580E+03</rscale>
<asrwt>0</asrwt>
<pdfrwt beam="1">  1        2 0.49859678E+00 0.77326578E+03</pdfrwt>
<pdfrwt beam="2">  1       -2 0.33180447E-01 0.77326578E+03</pdfrwt>
<totfact> 0.11019187E+01</totfact>
</mgrwt>
</event>
<event>
 4    5  0.7289609E-008  0.1317015E+04  0.7818608E-02  0.9051004E-01
         -2   -1    0    0    0  501 -0.00000000000E+00  0.00000000000E+00  0.95792953804E+03  0.95792953804E+03  0.25500000000E-02 0.  1.
          2   -1    0    0  501    0  0.00000000000E+00 -0.00000000000E+00 -0.16704439248E+04  0.16704439248E+04  0.25500000000E-02 0. -1.
    8880023    1    1    2    0    0  0.11295371635E+04 -0.15768327087E+03 -0.90018105487E+02  0.13200877559E+04  0.65864270000E+03 0.  0.
    8880022    1    1    2    0    0 -0.11295371635E+04  0.15768327087E+03 -0.62249628128E+03  0.13082857069E+04  0.15294330000E+03 0.  0.
<mgrwt>
<rscale>  0 0.12733082E+04</rscale>
<asrwt>0</asrwt>
<pdfrwt beam="1">  1        2 0.25699137E+00 0.13170150E+04</pdfrwt>
<pdfrwt beam="2">  1       -2 0.14737378E+00 0.13170150E+04</pdfrwt>
<totfact> 0.30746074E+00</totfact>
</mgrwt>
</event>
<event>
 4    5  0.7289609E-008  0.7641863E+03  0.7818608E-02  0.9794388E-01
         -2   -1    0    0    0  501 -0.00000000000E+00  0.00000000000E+00  0.11479026481E+04  0.11479026481E+04  0.25500000000E-02 0.  1.
          2   -1    0    0  501    0  0.00000000000E+00 -0.00000000000E+00 -0.34341211640E+03  0.34341211641E+03  0.25500000000E-02 0. -1.
    8880023    1    1    2    0    0  0.35641615043E+03  0.15211208519E+03  0.75073437125E+03  0.10712529399E+04  0.65864270000E+03 0.  0.
    8880022    1    1    2    0    0 -0.35641615043E+03 -0.15211208519E+03  0.53756160494E+02  0.42006182468E+03  0.15294330000E+03 0.  0.
<mgrwt>
<rscale>  0 0.65664607E+03</rscale>
<asrwt>0</asrwt>
<pdfrwt beam="1">  1        2 0.52832633E-01 0.76418634E+03</pdfrwt>
<pdfrwt beam="2">  1       -2 0.17660041E+00 0.76418634E+03</pdfrwt>
<totfact> 0.18320107E+01</totfact>
</mgrwt>
</event>
<event>
 4    5  0.7289609E-008  0.9792439E+03  0.7818608E-02  0.9409231E-01
          2   -1    0    0  501    0  0.00000000000E+00  0.00000000000E+00  0.11503984792E+04  0.11503984792E+04  0.25500000000E-02 0. -1.
         -2   -1    0    0    0  501 -0.00000000000E+00 -0.00000000000E+00 -0.92839259559E+03  0.92839259560E+03  0.25500000000E-02 0.  1.
    8880023    1    1    2    0    0 -0.50230237129E+03 -0.52230326579E+03 -0.45096662906E+03  0.10780953021E+04  0.65864270000E+03 0. -1.
    8880022    1    1    2    0    0  0.50230237129E+03  0.52230326579E+03  0.67297251268E+03  0.10006957727E+04  0.15294330000E+03 0.  0.
<mgrwt>
<rscale>  0 0.91319859E+03</rscale>
<asrwt>0</asrwt>
<pdfrwt beam="1">  1        2 0.17698438E+00 0.97924388E+03</pdfrwt>
<pdfrwt beam="2">  1       -2 0.14282963E+00 0.97924388E+03</pdfrwt>
<totfact> 0.68724545E+00</totfact>
</mgrwt>
</event>
<event>
 4    5  0.7289609E-008  0.7029577E+03  0.7818608E-02  0.9985146E-01
          2   -1    0    0  501    0  0.00000000000E+00  0.00000000000E+00  0.19456246091E+04  0.19456246091E+04  0.25500000000E-02 0. -1.
         -2   -1    0    0    0  501 -0.00000000000E+00 -0.00000000000E+00 -0.39709096665E+03  0.39709096666E+03  0.25500000000E-02 0.  1.
    8880023    1    1    2    0    0 -0.19420527511E+03  0.15041136343E+03  0.18168475706E+04  0.19480976794E+04  0.65864270000E+03 0. -1.
    8880022    1    1    2    0    0  0.19420527511E+03 -0.15041136343E+03 -0.26831392815E+03  0.39461789643E+03  0.15294330000E+03 0.  0.
<mgrwt>
<rscale>  0 0.56306380E+03</rscale>
<asrwt>0</asrwt>
<pdfrwt beam="1">  1        2 0.29932686E+00 0.70295766E+03</pdfrwt>
<pdfrwt beam="2">  1       -2 0.61090918E-01 0.70295766E+03</pdfrwt>
<totfact> 0.18570519E+01</totfact>
</mgrwt>
</event>
<event>
 4    5  0.7289609E-008  0.1245769E+04  0.7818608E-02  0.9113866E-01
         -2   -1    0    0    0  501 -0.00000000000E+00  0.00000000000E+00  0.72427868228E+03  0.72427868228E+03  0.25500000000E-02 0.  1.
          2   -1    0    0  501    0  0.00000000000E+00 -0.00000000000E+00 -0.27815806706E+04  0.27815806706E+04  0.25500000000E-02 0. -1.
    8880023    1    1    2    0    0  0.10371825533E+04 -0.20587261015E+03 -0.67790480238E+02  0.12476124943E+04  0.65864270000E+03 0.  0.
    8880022    1    1    2    0    0 -0.10371825533E+04  0.20587261015E+03 -0.19895115081E+04  0.22582468586E+04  0.15294330000E+03 0.  0.
<mgrwt>
<rscale>  0 0.11988472E+04</rscale>
<asrwt>0</asrwt>
<pdfrwt beam="1">  1        2 0.42793548E+00 0.12457694E+04</pdfrwt>
<pdfrwt beam="2">  1       -2 0.11142749E+00 0.12457694E+04</pdfrwt>
<totfact> 0.14803619E+00</totfact>
</mgrwt>
</event>
<event>
 4    5  0.7289609E-008  0.1094017E+04  0.7818608E-02  0.9267746E-01
          2   -1    0    0  501    0  0.00000000000E+00  0.00000000000E+00  0.32068538165E+04  0.32068538165E+04  0.25500000000E-02 0. -1.
         -2   -1    0    0    0  501 -0.00000000000E+00 -0.00000000000E+00 -0.54039159573E+03  0.54039159573E+03  0.25500000000E-02 0.  1.
    8880023    1    1    2    0    0 -0.74705997289E+03  0.45273076033E+03  0.18174348207E+03  0.11090106600E+04  0.65864270000E+03 0.  1.
    8880022    1    1    2    0    0  0.74705997289E+03 -0.45273076033E+03  0.24847187387E+04  0.26382347522E+04  0.15294330000E+03 0.  0.
<mgrwt>
<rscale>  0 0.10380719E+04</rscale>
<asrwt>0</asrwt>
<pdfrwt beam="1">  1        2 0.49336214E+00 0.10940173E+04</pdfrwt>
<pdfrwt beam="2">  1       -2 0.83137167E-01 0.10940173E+04</pdfrwt>
<totfact> 0.16452740E+00</totfact>
</mgrwt>
</event>
<event>
 4    5  0.7289609E-008  0.1081960E+04  0.7818608E-02  0.9281413E-01
         -2   -1    0    0    0  501 -0.00000000000E+00  0.00000000000E+00  0.10275840341E+04  0.10275840341E+04  0.25500000000E-02 0.  1.
          2   -1    0    0  501    0  0.00000000000E+00 -0.00000000000E+00 -0.19748182855E+04  0.19748182855E+04  0.25500000000E-02 0. -1.
    8880023    1    1    2    0    0  0.74410713215E+03  0.42793809176E+03  0.59203347990E+03  0.12333451593E+04  0.65864270000E+03 0.  0.
    8880022    1    1    2    0    0 -0.74410713215E+03 -0.42793809176E+03 -0.15392677313E+04  0.17690571603E+04  0.15294330000E+03 0.  0.
<mgrwt>
<rscale>  0 0.10251220E+04</rscale>
<asrwt>0</asrwt>
<pdfrwt beam="1">  1        2 0.30381820E+00 0.10819596E+04</pdfrwt>
<pdfrwt beam="2">  1       -2 0.15808985E+00 0.10819596E+04</pdfrwt>
<totfact> 0.17715916E+00</totfact>
</mgrwt>
</event>
<event>
 4    5  0.7289609E-008  0.8007837E+03  0.7818608E-02  0.9709104E-01
         -2   -1    0    0    0  501 -0.00000000000E+00  0.00000000000E+00  0.66681781288E+03  0.66681781289E+03  0.25500000000E-02 0.  1.
          2   -1    0    0  501    0  0.00000000000E+00 -0.00000000000E+00 -0.70150939146E+03  0.70150939147E+03  0.25500000000E-02 0. -1.
    8880023    1    1    2    0    0  0.42052501028E+03 -0.17493726560E+03  0.21181801679E+03  0.82832445918E+03  0.65864270000E+03 0.  0.
    8880022    1    1    2    0    0 -0.42052501028E+03  0.17493726560E+03 -0.24650959538E+03  0.54000274518E+03  0.15294330000E+03 0.  0.
<mgrwt>
<rscale>  0 0.70477316E+03</rscale>
<asrwt>0</asrwt>
<pdfrwt beam="1">  1        2 0.10792452E+00 0.80078370E+03</pdfrwt>
<pdfrwt beam="2">  1       -2 0.10258736E+00 0.80078370E+03</pdfrwt>
<totfact> 0.32049212E+01</totfact>
</mgrwt>
</event>
<event>
 4    5  0.7289609E-008  0.1245032E+04  0.7818608E-02  0.9114545E-01
          2   -1    0    0  501    0  0.00000000000E+00  0.00000000000E+00  0.27265232284E+04  0.27265232284E+04  0.25500000000E-02 0. -1.
         -2   -1    0    0    0  501 -0.00000000000E+00 -0.00000000000E+00 -0.72981395416E+03  0.72981395416E+03  0.25500000000E-02 0.  1.
    8880023    1    1    2    0    0  0.71618802591E+03  0.77676765782E+03  0.61926823771E+02  0.12465706640E+04  0.65864270000E+03 0.  0.
    8880022    1    1    2    0    0 -0.71618802591E+03 -0.77676765782E+03  0.19347824504E+04  0.22097665185E+04  0.15294330000E+03 0.  0.
<mgrwt>
<rscale>  0 0.11980732E+04</rscale>
<asrwt>0</asrwt>
<pdfrwt beam="1">  1        2 0.41946511E+00 0.12450315E+04</pdfrwt>
<pdfrwt beam="2">  1       -2 0.11227907E+00 0.12450315E+04</pdfrwt>
<totfact> 0.15671115E+00</totfact>
</mgrwt>
</event>
<event>
 4    5  0.7289609E-008  0.7990097E+03  0.7818608E-02  0.9712941E-01
         -2   -1    0    0    0  501 -0.00000000000E+00  0.00000000000E+00  0.67897496840E+03  0.67897496840E+03  0.25500000000E-02 0.  1.
          2   -1    0    0  501    0  0.00000000000E+00 -0.00000000000E+00 -0.13727733614E+04  0.13727733614E+04  0.25500000000E-02 0. -1.
    8880023    1    1    2    0    0 -0.31975093599E+03  0.31994619886E+03  0.37388209936E+03  0.88215886422E+03  0.65864270000E+03 0.  1.
    8880022    1    1    2    0    0  0.31975093599E+03 -0.31994619886E+03 -0.10676804924E+04  0.11695894656E+04  0.15294330000E+03 0.  0.
<mgrwt>
<rscale>  0 0.70251463E+03</rscale>
<asrwt>0</asrwt>
<pdfrwt beam="1">  1        2 0.21119590E+00 0.79900966E+03</pdfrwt>
<pdfrwt beam="2">  1       -2 0.10445769E+00 0.79900966E+03</pdfrwt>
<totfact> 0.11344900E+01</totfact>
</mgrwt>
</event>
<event>
 4    5  0.7289609E-008  0.7776023E+03  0.7818608E-02  0.9761500E-01
          2   -1    0    0  501    0  0.00000000000E+00  0.00000000000E+00  0.11489322984E+04  0.11489322985E+04  0.25500000000E-02 0. -1.
         -2   -1    0    0    0  501 -0.00000000000E+00 -0.00000000000E+00 -0.65047557670E+03  0.65047557670E+03  0.25500000000E-02 0.  1.
    8880023    1    1    2    0    0 -0.88704016174E+02  0.40371620822E+03 -0.34270859902E+03  0.84977324586E+03  0.65864270000E+03 0.  0.
    8880022    1    1    2    0    0  0.88704016174E+02 -0.40371620822E+03  0.84116532078E+03  0.94963462930E+03  0.15294330000E+03 0.  0.
<mgrwt>
<rscale>  0 0.67470264E+03</rscale>
<asrwt>0</asrwt>
<pdfrwt beam="1">  1        2 0.17675881E+00 0.77760233E+03</pdfrwt>
<pdfrwt beam="2">  1       -2 0.10007317E+00 0.77760233E+03</pdfrwt>
<totfact> 0.17024604E+01</totfact>
</mgrwt>
</event>
<event>
 4    5  0.7289609E-008  0.7200190E+03  0.7818608E-02  0.9922522E-01
          2   -1    0    0  501    0  0.00000000000E+00  0.00000000000E+00  0.18978344220E+04  0.18978344220E+04  0.25500000000E-02 0. -1.
         -2   -1    0    0    0  501 -0.00000000000E+00 -0.00000000000E+00 -0.65105438103E+03  0.65105438104E+03  0.25500000000E-02 0.  1.
    8880023    1    1    2    0    0 -0.34085381671E+01  0.29087037452E+03 -0.43104306060E+03  0.83918145789E+03  0.65864270000E+03 0.  1.
    8880022    1    1    2    0    0  0.34085381671E+01 -0.29087037452E+03  0.16778231016E+04  0.17097073452E+04  0.15294330000E+03 0.  0.
<mgrwt>
<rscale>  0 0.59182103E+03</rscale>
<asrwt>0</asrwt>
<pdfrwt beam="1">  1        2 0.29197452E+00 0.72001903E+03</pdfrwt>
<pdfrwt beam="2">  1       -2 0.10016221E+00 0.72001903E+03</pdfrwt>
<totfact> 0.65056861E+00</totfact>
</mgrwt>
</event>
<event>
 4    5  0.7289609E-008  0.8758899E+03  0.7818608E-02  0.9565900E-01
          2   -1    0    0  501    0  0.00000000000E+00  0.00000000000E+00  0.11766078322E+04  0.11766078322E+04  0.25500000000E-02 0. -1.
         -2   -1    0    0    0  501 -0.00000000000E+00 -0.00000000000E+00 -0.12288247107E+04  0.12288247107E+04  0.25500000000E-02 0.  1.
    8880023    1    1    2    0    0 -0.32693065417E+03  0.47590878580E+03 -0.97219240838E+03  0.13085645228E+04  0.65864270000E+03 0.  1.
    8880022    1    1    2    0    0  0.32693065417E+03 -0.47590878580E+03  0.91997552989E+03  0.10968680202E+04  0.15294330000E+03 0.  0.
<mgrwt>
<rscale>  0 0.79594823E+03</rscale>
<asrwt>0</asrwt>
<pdfrwt beam="1">  1        2 0.18101659E+00 0.87588985E+03</pdfrwt>
<pdfrwt beam="2">  1       -2 0.18904996E+00 0.87588985E+03</pdfrwt>
<totfact> 0.30983675E+00</totfact>
</mgrwt>
</event>
<event>
 4    5  0.8448857E-008  0.1236921E+04  0.7818608E-02  0.9122042E-01
         -2   -1    0    0    0  501 -0.00000000000E+00  0.00000000000E+00  0.16172758212E+04  0.16172758212E+04  0.25500000000E-02 0.  1.
          2   -1    0    0  501    0  0.00000000000E+00 -0.00000000000E+00 -0.24185553648E+04  0.24185553648E+04  0.25500000000E-02 0. -1.
    8880023    1    1    2    0    0 -0.92689861498E+03 -0.48685035749E+03  0.12306962431E+04  0.17448747124E+04  0.65864270000E+03 0.  1.
    8880022    1    1    2    0    0  0.92689861498E+03  0.48685035749E+03 -0.20319757867E+04  0.22909564735E+04  0.15294330000E+03 0.  0.
<mgrwt>
<rscale>  0 0.11895626E+04</rscale>
<asrwt>0</asrwt>
<pdfrwt beam="1">  1        2 0.37208544E+00 0.12369214E+04</pdfrwt>
<pdfrwt beam="2">  1       -2 0.24881166E+00 0.12369214E+04</pdfrwt>
<totfact> 0.24616115E-01</totfact>
</mgrwt>
</event>
<event>
 4    5  0.7289609E-008  0.1194500E+04  0.7818608E-02  0.9162487E-01
         -2   -1    0    0    0  501 -0.00000000000E+00  0.00000000000E+00  0.12769887736E+04  0.12769887736E+04  0.25500000000E-02 0.  1.
          2   -1    0    0  501    0  0.00000000000E+00 -0.00000000000E+00 -0.11028096023E+04  0.11028096023E+04  0.25500000000E-02 0. -1.
    8880023    1    1    2    0    0  0.79255774438E+03 -0.60404696188E+03  0.53522113801E+03  0.13089279519E+04  0.65864270000E+03 0.  0.
    8880022    1    1    2    0    0 -0.79255774438E+03  0.60404696188E+03 -0.36104196668E+03  0.10708704240E+04  0.15294330000E+03 0.  0.
<mgrwt>
<rscale>  0 0.11449154E+04</rscale>
<asrwt>0</asrwt>
<pdfrwt beam="1">  1        2 0.16966302E+00 0.11945002E+04</pdfrwt>
<pdfrwt beam="2">  1       -2 0.19645981E+00 0.11945002E+04</pdfrwt>
<totfact> 0.29610013E+00</totfact>
</mgrwt>
</event>
<event>
 4    5  0.7289609E-008  0.1166311E+04  0.7818608E-02  0.9190587E-01
          2   -1    0    0  501    0  0.00000000000E+00  0.00000000000E+00  0.14957327936E+04  0.14957327936E+04  0.25500000000E-02 0. -1.
         -2   -1    0    0    0  501 -0.00000000000E+00 -0.00000000000E+00 -0.89008229723E+03  0.89008229724E+03  0.25500000000E-02 0.  1.
    8880023    1    1    2    0    0 -0.54032075183E+03 -0.79657090387E+03 -0.11750887274E+03  0.11722159618E+04  0.65864270000E+03 0.  0.
    8880022    1    1    2    0    0  0.54032075183E+03  0.79657090387E+03  0.72315936908E+03  0.12135991290E+04  0.15294330000E+03 0.  0.
<mgrwt>
<rscale>  0 0.11151120E+04</rscale>
<asrwt>0</asrwt>
<pdfrwt beam="1">  1        2 0.23011273E+00 0.11663112E+04</pdfrwt>
<pdfrwt beam="2">  1       -2 0.13693574E+00 0.11663112E+04</pdfrwt>
<totfact> 0.47399814E+00</totfact>
</mgrwt>
</event>
<event>
 4    5  0.7289609E-008  0.8511772E+03  0.7818608E-02  0.9609454E-01
         -2   -1    0    0    0  501 -0.00000000000E+00  0.00000000000E+00  0.29695512058E+03  0.29695512059E+03  0.25500000000E-02 0.  1.
          2   -1    0    0  501    0  0.00000000000E+00 -0.00000000000E+00 -0.40471115126E+04  0.40471115126E+04  0.25500000000E-02 0. -1.
    8880023    1    1    2    0    0  0.28607524154E+03  0.45700477445E+03 -0.38785608019E+03  0.93537957691E+03  0.65864270000E+03 0.  1.
    8880022    1    1    2    0    0 -0.28607524154E+03 -0.45700477445E+03 -0.33623003118E+04  0.34086870562E+04  0.15294330000E+03 0.  0.
<mgrwt>
<rscale>  0 0.76673576E+03</rscale>
<asrwt>0</asrwt>
<pdfrwt beam="1">  1        2 0.62263250E+00 0.85117719E+03</pdfrwt>
<pdfrwt beam="2">  1       -2 0.45685406E-01 0.85117719E+03</pdfrwt>
<totfact> 0.15473798E+00</totfact>
</mgrwt>
</event>
<event>
 4    5  0.7289609E-008  0.8848653E+03  0.7818608E-02  0.9550778E-01
         -2   -1    0    0    0  501 -0.00000000000E+00  0.00000000000E+00  0.10906046968E+04  0.10906046968E+04  0.25500000000E-02 0.  1.
          2   -1    0    0  501    0  0.00000000000E+00 -0.00000000000E+00 -0.99920242285E+03  0.99920242285E+03  0.25500000000E-02 0. -1.
    8880023    1    1    2    0    0 -0.12215034539E+03 -0.57814847094E+03  0.77292745883E+03  0.11749057086E+04  0.65864270000E+03 0.  1.
    8880022    1    1    2    0    0  0.12215034539E+03  0.57814847094E+03 -0.68152518485E+03  0.91490141104E+03  0.15294330000E+03 0.  0.
<mgrwt>
<rscale>  0 0.80641494E+03</rscale>
<asrwt>0</asrwt>
<pdfrwt beam="1">  1        2 0.15372345E+00 0.88486528E+03</pdfrwt>
<pdfrwt beam="2">  1       -2 0.16778534E+00 0.88486528E+03</pdfrwt>
<totfact> 0.55926404E+00</totfact>
</mgrwt>
</event>
<event>
 4    5  0.7289609E-008  0.7981326E+03  0.7818608E-02  0.9714848E-01
          2   -1    0    0  501    0  0.00000000000E+00  0.00000000000E+00  0.75734316596E+03  0.75734316597E+03  0.25500000000E-02 0. -1.
         -2   -1    0    0    0  501 -0.00000000000E+00 -0.00000000000E+00 -0.14151233710E+04  0.14151233710E+04  0.25500000000E-02 0.  1.
    8880023    1    1    2    0    0 -0.34342373479E+03 -0.29200278303E+03 -0.12061483936E+04  0.14463089713E+04  0.65864270000E+03 0.  1.
    8880022    1    1    2    0    0  0.34342373479E+03  0.29200278303E+03  0.54836818855E+03  0.72615756565E+03  0.15294330000E+03 0.  0.
<mgrwt>
<rscale>  0 0.70139571E+03</rscale>
<asrwt>0</asrwt>
<pdfrwt beam="1">  1        2 0.11651433E+00 0.79813263E+03</pdfrwt>
<pdfrwt beam="2">  1       -2 0.21771129E+00 0.79813263E+03</pdfrwt>
<totfact> 0.38520350E+00</totfact>
</mgrwt>
</event>
<event>
 4    5  0.7289609E-008  0.7157334E+03  0.7818608E-02  0.9937296E-01
          2   -1    0    0  501    0  0.00000000000E+00  0.00000000000E+00  0.59385219267E+03  0.59385219267E+03  0.25500000000E-02 0. -1.
         -2   -1    0    0    0  501 -0.00000000000E+00 -0.00000000000E+00 -0.14565202463E+04  0.14565202463E+04  0.25500000000E-02 0.  1.
    8880023    1    1    2    0    0  0.24360978462E+03  0.13826912418E+03 -0.13147761323E+04  0.14969671213E+04  0.65864270000E+03 0.  0.
    8880022    1    1    2    0    0 -0.24360978462E+03 -0.13826912418E+03  0.45210807866E+03  0.55340531771E+03  0.15294330000E+03 0.  0.
<mgrwt>
<rscale>  0 0.58487309E+03</rscale>
<asrwt>0</asrwt>
<pdfrwt beam="1">  1        2 0.91361876E-01 0.71573339E+03</pdfrwt>
<pdfrwt beam="2">  1       -2 0.22408004E+00 0.71573339E+03</pdfrwt>
<totfact> 0.48129959E+00</totfact>
</mgrwt>
</event>
<event>
 4    5  0.7289609E-008  0.8301573E+03  0.7818608E-02  0.9649026E-01
         -2   -1    0    0    0  501 -0.00000000000E+00  0.00000000000E+00  0.23830373716E+04  0.23830373716E+04  0.25500000000E-02 0.  1.
          2   -1    0    0  501    0  0.00000000000E+00 -0.00000000000E+00 -0.41972377876E+03  0.41972377877E+03  0.25500000000E-02 0. -1.
    8880023    1    1    2    0    0 -0.43753265847E+03 -0.25281638285E+03  0.20993740597E+04  0.22575501323E+04  0.65864270000E+03 0.  1.
    8880022    1    1    2    0    0  0.43753265847E+03  0.25281638285E+03 -0.13606046685E+03  0.54521101816E+03  0.15294330000E+03 0.  0.
<mgrwt>
<rscale>  0 0.74134560E+03</rscale>
<asrwt>0</asrwt>
<pdfrwt beam="1">  1        2 0.64572888E-01 0.83015731E+03</pdfrwt>
<pdfrwt beam="2">  1       -2 0.36662114E+00 0.83015731E+03</pdfrwt>
<totfact> 0.95833261E-01</totfact>
</mgrwt>
</event>
<event>
 4    5  0.7289609E-008  0.1219459E+04  0.7818608E-02  0.9138435E-01
          2   -1    0    0  501    0  0.00000000000E+00  0.00000000000E+00  0.21980776456E+04  0.21980776456E+04  0.25500000000E-02 0. -1.
         -2   -1    0    0    0  501 -0.00000000000E+00 -0.00000000000E+00 -0.83490673168E+03  0.83490673169E+03  0.25500000000E-02 0.  1.
    8880023    1    1    2    0    0  0.11585846209E+03 -0.10197291423E+04 -0.11731010560E+03  0.12250888025E+04  0.65864270000E+03 0.  1.
    8880022    1    1    2    0    0 -0.11585846209E+03  0.10197291423E+04  0.14804810195E+04  0.18078955747E+04  0.15294330000E+03 0.  0.
<mgrwt>
<rscale>  0 0.11712117E+04</rscale>
<asrwt>0</asrwt>
<pdfrwt beam="1">  1        2 0.33816578E+00 0.12194593E+04</pdfrwt>
<pdfrwt beam="2">  1       -2 0.12844719E+00 0.12194593E+04</pdfrwt>
<totfact> 0.22588480E+00</totfact>
</mgrwt>
</event>
<event>
 4    5  0.8859923E-008  0.7525515E+03  0.7818608E-02  0.9824787E-01
          2   -1    0    0  501    0  0.00000000000E+00  0.00000000000E+00  0.24535472964E+04  0.24535472964E+04  0.25500000000E-02 0. -1.
         -2   -1    0    0    0  501 -0.00000000000E+00 -0.00000000000E+00 -0.20446250008E+04  0.20446250008E+04  0.25500000000E-02 0.  1.
    8880023    1    1    2    0    0  0.14235453797E+03  0.33505044761E+03 -0.19584681301E+04  0.20980779871E+04  0.65864270000E+03 0.  0.
    8880022    1    1    2    0    0 -0.14235453797E+03 -0.33505044761E+03  0.23673904257E+04  0.24000943101E+04  0.15294330000E+03 0. -1.
<mgrwt>
<rscale>  0 0.64049135E+03</rscale>
<asrwt>0</asrwt>
<pdfrwt beam="1">  1        2 0.37746881E+00 0.75255154E+03</pdfrwt>
<pdfrwt beam="2">  1       -2 0.31455769E+00 0.75255154E+03</pdfrwt>
<totfact> 0.10374321E-01</totfact>
</mgrwt>
</event>
<event>
 4    5  0.7289609E-008  0.7141843E+03  0.7818608E-02  0.9942779E-01
         -2   -1    0    0    0  501 -0.00000000000E+00  0.00000000000E+00  0.19770523028E+03  0.19770523030E+03  0.25500000000E-02 0.  1.
          2   -1    0    0  501    0  0.00000000000E+00 -0.00000000000E+00 -0.14755301354E+04  0.14755301354E+04  0.25500000000E-02 0. -1.
    8880023    1    1    2    0    0  0.24577562863E+03 -0.12587015832E+03 -0.62893100154E+03  0.95163720364E+03  0.65864270000E+03 0.  1.
    8880022    1    1    2    0    0 -0.24577562863E+03  0.12587015832E+03 -0.64889390361E+03  0.72159816209E+03  0.15294330000E+03 0.  0.
<mgrwt>
<rscale>  0 0.58232073E+03</rscale>
<asrwt>0</asrwt>
<pdfrwt beam="1">  1        2 0.22700463E+00 0.71418426E+03</pdfrwt>
<pdfrwt beam="2">  1       -2 0.30416190E-01 0.71418426E+03</pdfrwt>
<totfact> 0.13348719E+02</totfact>
</mgrwt>
</event>
<event>
 4    5  0.7289609E-008  0.8169501E+03  0.7818608E-02  0.9675278E-01
          2   -1    0    0  501    0  0.00000000000E+00  0.00000000000E+00  0.20985703632E+04  0.20985703632E+04  0.25500000000E-02 0. -1.
         -2   -1    0    0    0  501 -0.00000000000E+00 -0.00000000000E+00 -0.49452449401E+03  0.49452449402E+03  0.25500000000E-02 0.  1.
    8880023    1    1    2    0    0  0.48228283375E+03  0.31630239218E+02 -0.92742009966E+02  0.82219735492E+03  0.65864270000E+03 0.  1.
    8880022    1    1    2    0    0 -0.48228283375E+03 -0.31630239218E+02  0.16967878792E+04  0.17708975023E+04  0.15294330000E+03 0.  0.
<mgrwt>
<rscale>  0 0.72507999E+03</rscale>
<asrwt>0</asrwt>
<pdfrwt beam="1">  1        2 0.32285698E+00 0.81695007E+03</pdfrwt>
<pdfrwt beam="2">  1       -2 0.76080692E-01 0.81695007E+03</pdfrwt>
<totfact> 0.93572072E+00</totfact>
</mgrwt>
</event>
<event>
 4    5  0.7289609E-008  0.9992350E+03  0.7818608E-02  0.9382559E-01
         -2   -1    0    0    0  501 -0.00000000000E+00  0.00000000000E+00  0.47587690371E+03  0.47587690372E+03  0.25500000000E-02 0.  1.
          2   -1    0    0  501    0  0.00000000000E+00 -0.00000000000E+00 -0.16658556767E+04  0.16658556767E+04  0.25500000000E-02 0. -1.
    8880023    1    1    2    0    0 -0.19173888711E+03  0.72656496309E+03 -0.80786504482E+03  0.12849578138E+04  0.65864270000E+03 0.  1.
    8880022    1    1    2    0    0  0.19173888711E+03 -0.72656496309E+03 -0.38211372821E+03  0.85677476663E+03  0.15294330000E+03 0. -1.
<mgrwt>
<rscale>  0 0.93525000E+03</rscale>
<asrwt>0</asrwt>
<pdfrwt beam="1">  1        2 0.25628549E+00 0.99923503E+03</pdfrwt>
<pdfrwt beam="2">  1       -2 0.73211832E-01 0.99923503E+03</pdfrwt>
<totfact> 0.17242343E+01</totfact>
</mgrwt>
</event>
<event>
 4    5  0.7289609E-008  0.7509617E+03  0.7818608E-02  0.9829095E-01
          2   -1    0    0  501    0  0.00000000000E+00  0.00000000000E+00  0.11743891927E+04  0.11743891927E+04  0.25500000000E-02 0. -1.
         -2   -1    0    0    0  501 -0.00000000000E+00 -0.00000000000E+00 -0.33517781806E+03  0.33517781807E+03  0.25500000000E-02 0.  1.
    8880023    1    1    2    0    0 -0.33935447490E+03 -0.12235959605E+03  0.23029826541E+03  0.78548127138E+03  0.65864270000E+03 0.  0.
    8880022    1    1    2    0    0  0.33935447490E+03  0.12235959605E+03  0.60891310918E+03  0.72408573934E+03  0.15294330000E+03 0.  0.
<mgrwt>
<rscale>  0 0.63824253E+03</rscale>
<asrwt>0</asrwt>
<pdfrwt beam="1">  1        2 0.18067526E+00 0.75096174E+03</pdfrwt>
<pdfrwt beam="2">  1       -2 0.51565818E-01 0.75096174E+03</pdfrwt>
<totfact> 0.70848143E+01</totfact>
</mgrwt>
</event>
<event>
 4    5  0.7289609E-008  0.6624897E+03  0.7818608E-02  0.1021739E+00
          2   -1    0    0  501    0  0.00000000000E+00  0.00000000000E+00  0.12752409291E+04  0.12752409291E+04  0.25500000000E-02 0. -1.
         -2   -1    0    0    0  501 -0.00000000000E+00 -0.00000000000E+00 -0.31570272635E+03  0.31570272636E+03  0.25500000000E-02 0.  1.
    8880023    1    1    2    0    0  0.63027915014E+02  0.33314238351E+02  0.48338100954E+02  0.66425080716E+03  0.65864270000E+03 0.  1.
    8880022    1    1    2    0    0 -0.63027915014E+02 -0.33314238351E+02  0.91120010181E+03  0.92669284831E+03  0.15294330000E+03 0.  0.
<mgrwt>
<rscale>  0 0.47064171E+03</rscale>
<asrwt>0</asrwt>
<pdfrwt beam="1">  1        2 0.19619091E+00 0.66248967E+03</pdfrwt>
<pdfrwt beam="2">  1       -2 0.48569650E-01 0.66248967E+03</pdfrwt>
<totfact> 0.70412862E+01</totfact>
</mgrwt>
</event>
<event>
 4    5  0.7289609E-008  0.1069900E+04  0.7818608E-02  0.9295333E-01
         -2   -1    0    0    0  501 -0.00000000000E+00  0.00000000000E+00  0.80490621533E+03  0.80490621534E+03  0.25500000000E-02 0.  1.
          2   -1    0    0  501    0  0.00000000000E+00 -0.00000000000E+00 -0.28579209129E+04  0.28579209129E+04  0.25500000000E-02 0. -1.
    8880023    1    1    2    0    0 -0.47562016587E+03 -0.69617616672E+03  0.33870936405E+03  0.11222343948E+04  0.65864270000E+03 0.  1.
    8880022    1    1    2    0    0  0.47562016587E+03  0.69617616672E+03 -0.23917240616E+04  0.25405927334E+04  0.15294330000E+03 0.  0.
<mgrwt>
<rscale>  0 0.10121367E+04</rscale>
<asrwt>0</asrwt>
<pdfrwt beam="1">  1        2 0.43968013E+00 0.10699000E+04</pdfrwt>
<pdfrwt beam="2">  1       -2 0.12383173E+00 0.10699000E+04</pdfrwt>
<totfact> 0.10502617E+00</totfact>
</mgrwt>
</event>
<event>
 4    5  0.7289609E-008  0.6698203E+03  0.7818608E-02  0.1015792E+00
          2   -1    0    0  501    0  0.00000000000E+00  0.00000000000E+00  0.35007506572E+03  0.35007506573E+03  0.25500000000E-02 0. -1.
         -2   -1    0    0    0  501 -0.00000000000E+00 -0.00000000000E+00 -0.14041660027E+04  0.14041660027E+04  0.25500000000E-02 0.  1.
    8880023    1    1    2    0    0  0.85471648938E+02 -0.86853696595E+02 -0.12865475991E+04  0.14504702335E+04  0.65864270000E+03 0.  1.
    8880022    1    1    2    0    0 -0.85471648938E+02  0.86853696595E+02  0.23245666208E+03  0.30377083492E+03  0.15294330000E+03 0.  0.
<mgrwt>
<rscale>  0 0.49236177E+03</rscale>
<asrwt>0</asrwt>
<pdfrwt beam="1">  1        2 0.53857703E-01 0.66982025E+03</pdfrwt>
<pdfrwt beam="2">  1       -2 0.21602554E+00 0.66982025E+03</pdfrwt>
<totfact> 0.99669787E+00</totfact>
</mgrwt>
</event>
<event>
 4    5  0.1023242E-007  0.6976617E+03  0.7818608E-02  0.1000704E+00
          2   -1    0    0  501    0  0.00000000000E+00  0.00000000000E+00  0.30599801768E+04  0.30599801768E+04  0.25500000000E-02 0. -1.
         -2   -1    0    0    0  501 -0.00000000000E+00 -0.00000000000E+00 -0.17271103021E+04  0.17271103021E+04  0.25500000000E-02 0.  1.
    8880023    1    1    2    0    0 -0.89418094438E+02  0.21195753352E+03 -0.16500120566E+04  0.17914439943E+04  0.65864270000E+03 0.  1.
    8880022    1    1    2    0    0  0.89418094438E+02 -0.21195753352E+03  0.29828819313E+04  0.29956464846E+04  0.15294330000E+03 0.  0.
<mgrwt>
<rscale>  0 0.55342482E+03</rscale>
<asrwt>0</asrwt>
<pdfrwt beam="1">  1        2 0.47076617E+00 0.69766166E+03</pdfrwt>
<pdfrwt beam="2">  1       -2 0.26570928E+00 0.69766166E+03</pdfrwt>
<totfact> 0.91208701E-02</totfact>
</mgrwt>
</event>
<event>
 4    5  0.7289609E-008  0.1127625E+04  0.7818608E-02  0.9230905E-01
         -2   -1    0    0    0  501 -0.00000000000E+00  0.00000000000E+00  0.68421251321E+03  0.68421251322E+03  0.25500000000E-02 0.  1.
          2   -1    0    0  501    0  0.00000000000E+00 -0.00000000000E+00 -0.17909298101E+04  0.17909298101E+04  0.25500000000E-02 0. -1.
    8880023    1    1    2    0    0  0.67034888651E+03 -0.62318570978E+03 -0.14194882318E+03  0.11365244094E+04  0.65864270000E+03 0.  1.
    8880022    1    1    2    0    0 -0.67034888651E+03  0.62318570978E+03 -0.96476847367E+03  0.13386179139E+04  0.15294330000E+03 0.  0.
<mgrwt>
<rscale>  0 0.10740054E+04</rscale>
<asrwt>0</asrwt>
<pdfrwt beam="1">  1        2 0.27552766E+00 0.11276251E+04</pdfrwt>
<pdfrwt beam="2">  1       -2 0.10526346E+00 0.11276251E+04</pdfrwt>
<totfact> 0.62771949E+00</totfact>
</mgrwt>
</event>
<event>
 4    5  0.7289609E-008  0.7107087E+03  0.7818608E-02  0.9955379E-01
         -2   -1    0    0    0  501 -0.00000000000E+00  0.00000000000E+00  0.55178831960E+03  0.55178831961E+03  0.25500000000E-02 0.  1.
          2   -1    0    0  501    0  0.00000000000E+00 -0.00000000000E+00 -0.10417663358E+04  0.10417663358E+04  0.25500000000E-02 0. -1.
    8880023    1    1    2    0    0 -0.38258705854E+02 -0.26425909618E+03  0.28037786713E+03  0.76401475976E+03  0.65864270000E+03 0.  1.
    8880022    1    1    2    0    0  0.38258705854E+02  0.26425909618E+03 -0.77035588335E+03  0.82953989567E+03  0.15294330000E+03 0.  0.
<mgrwt>
<rscale>  0 0.57650851E+03</rscale>
<asrwt>0</asrwt>
<pdfrwt beam="1">  1        2 0.16027174E+00 0.71070866E+03</pdfrwt>
<pdfrwt beam="2">  1       -2 0.84890511E-01 0.71070866E+03</pdfrwt>
<totfact> 0.29221314E+01</totfact>
</mgrwt>
</event>
<event>
 4    5  0.7289609E-008  0.6997440E+03  0.7818608E-02  0.9998265E-01
          2   -1    0    0  501    0  0.00000000000E+00  0.00000000000E+00  0.20789568444E+04  0.20789568444E+04  0.25500000000E-02 0. -1.
         -2   -1    0    0    0  501 -0.00000000000E+00 -0.00000000000E+00 -0.51824973022E+03  0.51824973022E+03  0.25500000000E-02 0.  1.
    8880023    1    1    2    0    0  0.22356629374E+03 -0.76482574494E+02 -0.26625661303E+03  0.74868836117E+03  0.65864270000E+03 0.  0.
    8880022    1    1    2    0    0 -0.22356629374E+03  0.76482574494E+02  0.18269637273E+04  0.18485182135E+04  0.15294330000E+03 0.  0.
<mgrwt>
<rscale>  0 0.55726387E+03</rscale>
<asrwt>0</asrwt>
<pdfrwt beam="1">  1        2 0.31983952E+00 0.69974401E+03</pdfrwt>
<pdfrwt beam="2">  1       -2 0.79730726E-01 0.69974401E+03</pdfrwt>
<totfact> 0.87955370E+00</totfact>
</mgrwt>
</event>
<event>
 4    5  0.7289609E-008  0.1017276E+04  0.7818608E-02  0.9359297E-01
          2   -1    0    0  501    0  0.00000000000E+00  0.00000000000E+00  0.10059327465E+04  0.10059327465E+04  0.25500000000E-02 0. -1.
         -2   -1    0    0    0  501 -0.00000000000E+00 -0.00000000000E+00 -0.22209437137E+04  0.22209437137E+04  0.25500000000E-02 0.  1.
    8880023    1    1    2    0    0  0.46638683118E+03 -0.61929235495E+03 -0.19168041334E+04  0.21700202739E+04  0.65864270000E+03 0.  0.
    8880022    1    1    2    0    0 -0.46638683118E+03  0.61929235495E+03  0.70179316624E+03  0.10568561862E+04  0.15294330000E+03 0.  0.
<mgrwt>
<rscale>  0 0.95502469E+03</rscale>
<asrwt>0</asrwt>
<pdfrwt beam="1">  1        2 0.15475888E+00 0.10172757E+04</pdfrwt>
<pdfrwt beam="2">  1       -2 0.34168365E+00 0.10172757E+04</pdfrwt>
<totfact> 0.44144685E-01</totfact>
</mgrwt>
</event>
<event>
 4    5  0.7289609E-008  0.1208006E+04  0.7818608E-02  0.9149379E-01
          2   -1    0    0  501    0  0.00000000000E+00  0.00000000000E+00  0.27247411037E+04  0.27247411037E+04  0.25500000000E-02 0. -1.
         -2   -1    0    0    0  501 -0.00000000000E+00 -0.00000000000E+00 -0.12480404774E+04  0.12480404774E+04  0.25500000000E-02 0.  1.
    8880023    1    1    2    0    0 -0.69995329049E+03  0.73180124027E+03 -0.81868403546E+03  0.14592879840E+04  0.65864270000E+03 0.  0.
    8880022    1    1    2    0    0  0.69995329049E+03 -0.73180124027E+03  0.22953846618E+04  0.25134935971E+04  0.15294330000E+03 0.  0.
<mgrwt>
<rscale>  0 0.11591547E+04</rscale>
<asrwt>0</asrwt>
<pdfrwt beam="1">  1        2 0.41919094E+00 0.12080057E+04</pdfrwt>
<pdfrwt beam="2">  1       -2 0.19200623E+00 0.12080057E+04</pdfrwt>
<totfact> 0.37706250E-01</totfact>
</mgrwt>
</event>
<event>
 4    5  0.7289609E-008  0.7672921E+03  0.7818608E-02  0.9786582E-01
          2   -1    0    0  501    0  0.00000000000E+00  0.00000000000E+00  0.25397419356E+04  0.25397419356E+04  0.25500000000E-02 0. -1.
         -2   -1    0    0    0  501 -0.00000000000E+00 -0.00000000000E+00 -0.82898707108E+03  0.82898707109E+03  0.25500000000E-02 0.  1.
    8880023    1    1    2    0    0 -0.18604530292E+02 -0.39316776371E+03 -0.62839109217E+03  0.99177244868E+03  0.65864270000E+03 0.  1.
    8880022    1    1    2    0    0  0.18604530292E+02  0.39316776371E+03  0.23391459567E+04  0.23769565581E+04  0.15294330000E+03 0.  0.
<mgrwt>
<rscale>  0 0.66087628E+03</rscale>
<asrwt>0</asrwt>
<pdfrwt beam="1">  1        2 0.39072953E+00 0.76729214E+03</pdfrwt>
<pdfrwt beam="2">  1       -2 0.12753647E+00 0.76729214E+03</pdfrwt>
<totfact> 0.15779301E+00</totfact>
</mgrwt>
</event>
<event>
 4    5  0.7289609E-008  0.9827180E+03  0.7818608E-02  0.9404525E-01
         -2   -1    0    0    0  501 -0.00000000000E+00  0.00000000000E+00  0.46306165830E+03  0.46306165830E+03  0.25500000000E-02 0.  1.
          2   -1    0    0  501    0  0.00000000000E+00 -0.00000000000E+00 -0.21437990410E+04  0.21437990410E+04  0.25500000000E-02 0. -1.
    8880023    1    1    2    0    0 -0.31628219184E+03  0.65718335447E+03 -0.15718308188E+04  0.18537493669E+04  0.65864270000E+03 0.  0.
    8880022    1    1    2    0    0  0.31628219184E+03 -0.65718335447E+03 -0.10890656392E+03  0.75311133238E+03  0.15294330000E+03 0.  0.
<mgrwt>
<rscale>  0 0.91704194E+03</rscale>
<asrwt>0</asrwt>
<pdfrwt beam="1">  1        2 0.32981523E+00 0.98271796E+03</pdfrwt>
<pdfrwt beam="2">  1       -2 0.71240257E-01 0.98271796E+03</pdfrwt>
<totfact> 0.10002147E+01</totfact>
</mgrwt>
</event>
<event>
 4    5  0.7289609E-008  0.8318616E+03  0.7818608E-02  0.9645721E-01
          2   -1    0    0  501    0  0.00000000000E+00  0.00000000000E+00  0.25091264974E+04  0.25091264974E+04  0.25500000000E-02 0. -1.
         -2   -1    0    0    0  501 -0.00000000000E+00 -0.00000000000E+00 -0.66164899993E+03  0.66164899993E+03  0.25500000000E-02 0.  1.
    8880023    1    1    2    0    0 -0.50777311239E+03 -0.18708531280E+02 -0.35561052655E+03  0.90468369924E+03  0.65864270000E+03 0.  1.
    8880022    1    1    2    0    0  0.50777311239E+03  0.18708531280E+02  0.22030880240E+04  0.22660917981E+04  0.15294330000E+03 0.  0.
<mgrwt>
<rscale>  0 0.74342577E+03</rscale>
<asrwt>0</asrwt>
<pdfrwt beam="1">  1        2 0.38601947E+00 0.83186162E+03</pdfrwt>
<pdfrwt beam="2">  1       -2 0.10179215E+00 0.83186162E+03</pdfrwt>
<totfact> 0.28189164E+00</totfact>
</mgrwt>
</event>
<event>
 4    5  0.7289609E-008  0.8045635E+03  0.7818608E-02  0.9701014E-01
         -2   -1    0    0    0  501 -0.00000000000E+00  0.00000000000E+00  0.35740154900E+03  0.35740154901E+03  0.25500000000E-02 0.  1.
          2   -1    0    0  501    0  0.00000000000E+00 -0.00000000000E+00 -0.26863490573E+04  0.26863490573E+04  0.25500000000E-02 0. -1.
    8880023    1    1    2    0    0 -0.31293147111E+03 -0.33997956666E+03 -0.15930514947E+03  0.82018324067E+03  0.65864270000E+03 0.  1.
    8880022    1    1    2    0    0  0.31293147111E+03  0.33997956666E+03 -0.21696423588E+04  0.22235673656E+04  0.15294330000E+03 0.  0.
<mgrwt>
<rscale>  0 0.70956431E+03</rscale>
<asrwt>0</asrwt>
<pdfrwt beam="1">  1        2 0.41328446E+00 0.80456350E+03</pdfrwt>
<pdfrwt beam="2">  1       -2 0.54984855E-01 0.80456350E+03</pdfrwt>
<totfact> 0.87931031E+00</totfact>
</mgrwt>
</event>
<event>
 4    5  0.7289609E-008  0.8624267E+03  0.7818608E-02  0.9589261E-01
          2   -1    0    0  501    0  0.00000000000E+00  0.00000000000E+00  0.15479967004E+04  0.15479967004E+04  0.25500000000E-02 0. -1.
         -2   -1    0    0    0  501 -0.00000000000E+00 -0.00000000000E+00 -0.70133615027E+03  0.70133615027E+03  0.25500000000E-02 0.  1.
    8880023    1    1    2    0    0 -0.36608311286E+03 -0.41946722075E+03 -0.34208122869E+03  0.92779273984E+03  0.65864270000E+03 0.  1.
    8880022    1    1    2    0    0  0.36608311286E+03  0.41946722075E+03  0.11887417788E+04  0.13215401108E+04  0.15294330000E+03 0.  0.
<mgrwt>
<rscale>  0 0.78011034E+03</rscale>
<asrwt>0</asrwt>
<pdfrwt beam="1">  1        2 0.23815333E+00 0.86242669E+03</pdfrwt>
<pdfrwt beam="2">  1       -2 0.10789787E+00 0.86242669E+03</pdfrwt>
<totfact> 0.82989881E+00</totfact>
</mgrwt>
</event>
<event>
 4    5  0.7289609E-008  0.8297741E+03  0.7818608E-02  0.9649772E-01
         -2   -1    0    0    0  501 -0.00000000000E+00  0.00000000000E+00  0.28669734633E+04  0.28669734633E+04  0.25500000000E-02 0.  1.
          2   -1    0    0  501    0  0.00000000000E+00 -0.00000000000E+00 -0.97460006341E+03  0.97460006342E+03  0.25500000000E-02 0. -1.
    8880023    1    1    2    0    0  0.41984496780E+03  0.28008058869E+03  0.27291373409E+04  0.28524929036E+04  0.65864270000E+03 0.  1.
    8880022    1    1    2    0    0 -0.41984496780E+03 -0.28008058869E+03 -0.83676394100E+03  0.98908062316E+03  0.15294330000E+03 0.  0.
<mgrwt>
<rscale>  0 0.74087738E+03</rscale>
<asrwt>0</asrwt>
<pdfrwt beam="1">  1        2 0.14993847E+00 0.82977415E+03</pdfrwt>
<pdfrwt beam="2">  1       -2 0.44107283E+00 0.82977415E+03</pdfrwt>
<totfact> 0.10947571E-01</totfact>
</mgrwt>
</event>
<event>
 4    5  0.7289609E-008  0.8552708E+03  0.7818608E-02  0.9602032E-01
         -2   -1    0    0    0  501 -0.00000000000E+00  0.00000000000E+00  0.42975618231E+03  0.42975618232E+03  0.25500000000E-02 0.  1.
          2   -1    0    0  501    0  0.00000000000E+00 -0.00000000000E+00 -0.20273609588E+04  0.20273609588E+04  0.25500000000E-02 0. -1.
    8880023    1    1    2    0    0  0.25784886035E+03  0.48082412658E+03 -0.10637206245E+03  0.86186025400E+03  0.65864270000E+03 0.  1.
    8880022    1    1    2    0    0 -0.25784886035E+03 -0.48082412658E+03 -0.14912327140E+04  0.15952568871E+04  0.15294330000E+03 0.  0.
<mgrwt>
<rscale>  0 0.77161846E+03</rscale>
<asrwt>0</asrwt>
<pdfrwt beam="1">  1        2 0.31190168E+00 0.85527077E+03</pdfrwt>
<pdfrwt beam="2">  1       -2 0.66116337E-01 0.85527077E+03</pdfrwt>
<totfact> 0.13857129E+01</totfact>
</mgrwt>
</event>
<event>
 4    5  0.7289609E-008  0.6657103E+03  0.7818608E-02  0.1018945E+00
         -2   -1    0    0    0  501 -0.00000000000E+00  0.00000000000E+00  0.72072131324E+03  0.72072131324E+03  0.25500000000E-02 0.  1.
          2   -1    0    0  501    0  0.00000000000E+00 -0.00000000000E+00 -0.17592549813E+04  0.17592549813E+04  0.25500000000E-02 0. -1.
    8880023    1    1    2    0    0  0.93918073384E+02 -0.23224553461E+02  0.56079722085E+03  0.87043880518E+03  0.65864270000E+03 0.  1.
    8880022    1    1    2    0    0 -0.93918073384E+02  0.23224553461E+02 -0.15993308889E+04  0.16095374894E+04  0.15294330000E+03 0.  0.
<mgrwt>
<rscale>  0 0.48069331E+03</rscale>
<asrwt>0</asrwt>
<pdfrwt beam="1">  1        2 0.27065461E+00 0.66571029E+03</pdfrwt>
<pdfrwt beam="2">  1       -2 0.11088020E+00 0.66571029E+03</pdfrwt>
<totfact> 0.61202916E+00</totfact>
</mgrwt>
</event>
<event>
 4    5  0.7289609E-008  0.1049934E+04  0.7818608E-02  0.9318961E-01
          2   -1    0    0  501    0  0.00000000000E+00  0.00000000000E+00  0.39385207063E+04  0.39385207063E+04  0.25500000000E-02 0. -1.
         -2   -1    0    0    0  501 -0.00000000000E+00 -0.00000000000E+00 -0.36482425732E+03  0.36482425733E+03  0.25500000000E-02 0.  1.
    8880023    1    1    2    0    0  0.27116561056E+03  0.77137510190E+03  0.58680953013E+03  0.12027909075E+04  0.65864270000E+03 0.  1.
    8880022    1    1    2    0    0 -0.27116561056E+03 -0.77137510190E+03  0.29868869189E+04  0.31005540562E+04  0.15294330000E+03 0.  0.
<mgrwt>
<rscale>  0 0.99055840E+03</rscale>
<asrwt>0</asrwt>
<pdfrwt beam="1">  1        2 0.60592624E+00 0.10499336E+04</pdfrwt>
<pdfrwt beam="2">  1       -2 0.56126811E-01 0.10499336E+04</pdfrwt>
<totfact> 0.11912492E+00</totfact>
</mgrwt>
</event>
<event>
 4    5  0.7289609E-008  0.7764838E+03  0.7818608E-02  0.9764162E-01
         -2   -1    0    0    0  501 -0.00000000000E+00  0.00000000000E+00  0.13465277791E+04  0.13465277791E+04  0.25500000000E-02 0.  1.
          2   -1    0    0  501    0  0.00000000000E+00 -0.00000000000E+00 -0.11340029727E+04  0.11340029727E+04  0.25500000000E-02 0. -1.
    8880023    1    1    2    0    0 -0.21974355482E+03  0.34760553691E+03  0.11832367567E+04  0.14152654408E+04  0.65864270000E+03 0.  1.
    8880022    1    1    2    0    0  0.21974355482E+03 -0.34760553691E+03 -0.97071195036E+03  0.10652653110E+04  0.15294330000E+03 0.  0.
<mgrwt>
<rscale>  0 0.67321770E+03</rscale>
<asrwt>0</asrwt>
<pdfrwt beam="1">  1        2 0.17446199E+00 0.77648377E+03</pdfrwt>
<pdfrwt beam="2">  1       -2 0.20715812E+00 0.77648377E+03</pdfrwt>
<totfact> 0.25371030E+00</totfact>
</mgrwt>
</event>
<event>
 4    5  0.7289609E-008  0.8141997E+03  0.7818608E-02  0.9680895E-01
         -2   -1    0    0    0  501 -0.00000000000E+00  0.00000000000E+00  0.31303551085E+03  0.31303551086E+03  0.25500000000E-02 0.  1.
          2   -1    0    0  501    0  0.00000000000E+00 -0.00000000000E+00 -0.20358935695E+04  0.20358935695E+04  0.25500000000E-02 0. -1.
    8880023    1    1    2    0    0  0.30890478865E+03 -0.36563472454E+03 -0.34860819411E+03  0.88569114228E+03  0.65864270000E+03 0.  1.
    8880022    1    1    2    0    0 -0.30890478865E+03  0.36563472454E+03 -0.13742498646E+04  0.14632379381E+04  0.15294330000E+03 0.  0.
<mgrwt>
<rscale>  0 0.72165799E+03</rscale>
<asrwt>0</asrwt>
<pdfrwt beam="1">  1        2 0.31321439E+00 0.81419968E+03</pdfrwt>
<pdfrwt beam="2">  1       -2 0.48159311E-01 0.81419968E+03</pdfrwt>
<totfact> 0.26720979E+01</totfact>
</mgrwt>
</event>
<event>
 4    5  0.7289609E-008  0.9246097E+03  0.7818608E-02  0.9487627E-01
          2   -1    0    0  501    0  0.00000000000E+00  0.00000000000E+00  0.16411623518E+04  0.16411623518E+04  0.25500000000E-02 0. -1.
         -2   -1    0    0    0  501 -0.00000000000E+00 -0.00000000000E+00 -0.38942111750E+03  0.38942111751E+03  0.25500000000E-02 0.  1.
    8880023    1    1    2    0    0  0.52798339802E+03 -0.37726172647E+03  0.82375362999E+03  0.12383348207E+04  0.65864270000E+03 0.  1.
    8880022    1    1    2    0    0 -0.52798339802E+03  0.37726172647E+03  0.42798760432E+03  0.79224864867E+03  0.15294330000E+03 0. -1.
<mgrwt>
<rscale>  0 0.85202220E+03</rscale>
<asrwt>0</asrwt>
<pdfrwt beam="1">  1        2 0.25248652E+00 0.92460969E+03</pdfrwt>
<pdfrwt beam="2">  1       -2 0.59910941E-01 0.92460969E+03</pdfrwt>
<totfact> 0.27663362E+01</totfact>
</mgrwt>
</event>
<event>
 4    5  0.7289609E-008  0.6911492E+03  0.7818608E-02  0.1003611E+00
          2   -1    0    0  501    0  0.00000000000E+00  0.00000000000E+00  0.72638966000E+03  0.72638966000E+03  0.25500000000E-02 0. -1.
         -2   -1    0    0    0  501 -0.00000000000E+00 -0.00000000000E+00 -0.10158701829E+04  0.10158701829E+04  0.25500000000E-02 0.  1.
    8880023    1    1    2    0    0 -0.20761431765E+03 -0.27807543768E+02 -0.86723720383E+03  0.11089578614E+04  0.65864270000E+03 0.  1.
    8880022    1    1    2    0    0  0.20761431765E+03  0.27807543768E+02  0.57775668094E+03  0.63330198149E+03  0.15294330000E+03 0.  0.
<mgrwt>
<rscale>  0 0.54094786E+03</rscale>
<asrwt>0</asrwt>
<pdfrwt beam="1">  1        2 0.11175226E+00 0.69114917E+03</pdfrwt>
<pdfrwt beam="2">  1       -2 0.15628772E+00 0.69114917E+03</pdfrwt>
<totfact> 0.10731511E+01</totfact>
</mgrwt>
</event>
<event>
 4    5  0.7289609E-008  0.7607977E+03  0.7818608E-02  0.9803047E-01
         -2   -1    0    0    0  501 -0.00000000000E+00  0.00000000000E+00  0.56811229425E+03  0.56811229425E+03  0.25500000000E-02 0.  1.
          2   -1    0    0  501    0  0.00000000000E+00 -0.00000000000E+00 -0.20841287815E+04  0.20841287815E+04  0.25500000000E-02 0. -1.
    8880023    1    1    2    0    0  0.85215869923E+02 -0.37113507237E+03  0.27943486878E+03  0.81049184979E+03  0.65864270000E+03 0.  1.
    8880022    1    1    2    0    0 -0.85215869923E+02  0.37113507237E+03 -0.17954513560E+04  0.18417492259E+04  0.15294330000E+03 0.  0.
<mgrwt>
<rscale>  0 0.65199301E+03</rscale>
<asrwt>0</asrwt>
<pdfrwt beam="1">  1        2 0.32063519E+00 0.76079773E+03</pdfrwt>
<pdfrwt beam="2">  1       -2 0.87401892E-01 0.76079773E+03</pdfrwt>
<totfact> 0.70246080E+00</totfact>
</mgrwt>
</event>
<event>
 4    5  0.7289609E-008  0.6877539E+03  0.7818608E-02  0.1005239E+00
         -2   -1    0    0    0  501 -0.00000000000E+00  0.00000000000E+00  0.81660263462E+03  0.81660263462E+03  0.25500000000E-02 0.  1.
          2   -1    0    0  501    0  0.00000000000E+00 -0.00000000000E+00 -0.11919540133E+04  0.11919540133E+04  0.25500000000E-02 0. -1.
    8880023    1    1    2    0    0 -0.14315253884E+03  0.13675756517E+03  0.65410644457E+03  0.94913683318E+03  0.65864270000E+03 0.  1.
    8880022    1    1    2    0    0  0.14315253884E+03 -0.13675756517E+03 -0.10294578232E+04  0.10594198147E+04  0.15294330000E+03 0.  0.
<mgrwt>
<rscale>  0 0.53411562E+03</rscale>
<asrwt>0</asrwt>
<pdfrwt beam="1">  1        2 0.18337754E+00 0.68775394E+03</pdfrwt>
<pdfrwt beam="2">  1       -2 0.12563117E+00 0.68775394E+03</pdfrwt>
<totfact> 0.93248689E+00</totfact>
</mgrwt>
</event>
<event>
 4    5  0.7289609E-008  0.1405012E+04  0.7818608E-02  0.8979798E-01
         -2   -1    0    0    0  501 -0.00000000000E+00  0.00000000000E+00  0.18536491520E+04  0.18536491520E+04  0.25500000000E-02 0.  1.
          2   -1    0    0  501    0  0.00000000000E+00 -0.00000000000E+00 -0.19672277958E+04  0.19672277958E+04  0.25500000000E-02 0. -1.
    8880023    1    1    2    0    0 -0.96359954655E+03 -0.78212824496E+03  0.13135642143E+04  0.19234109881E+04  0.65864270000E+03 0.  1.
    8880022    1    1    2    0    0  0.96359954655E+03  0.78212824496E+03 -0.14271428582E+04  0.18974659597E+04  0.15294330000E+03 0.  0.
<mgrwt>
<rscale>  0 0.13646684E+04</rscale>
<asrwt>0</asrwt>
<pdfrwt beam="1">  1        2 0.30265043E+00 0.14050121E+04</pdfrwt>
<pdfrwt beam="2">  1       -2 0.28517679E+00 0.14050121E+04</pdfrwt>
<totfact> 0.25883693E-01</totfact>
</mgrwt>
</event>
<event>
 4    5  0.7289609E-008  0.8078277E+03  0.7818608E-02  0.9694120E-01
          2   -1    0    0  501    0  0.00000000000E+00  0.00000000000E+00  0.12937598065E+04  0.12937598065E+04  0.25500000000E-02 0. -1.
         -2   -1    0    0    0  501 -0.00000000000E+00 -0.00000000000E+00 -0.72402723879E+03  0.72402723879E+03  0.25500000000E-02 0.  1.
    8880023    1    1    2    0    0 -0.34461298471E+03  0.31625510919E+03 -0.42145724459E+03  0.91115960106E+03  0.65864270000E+03 0.  1.
    8880022    1    1    2    0    0  0.34461298471E+03 -0.31625510919E+03  0.99118981230E+03  0.11066274442E+04  0.15294330000E+03 0.  0.
<mgrwt>
<rscale>  0 0.71367986E+03</rscale>
<asrwt>0</asrwt>
<pdfrwt beam="1">  1        2 0.19903997E+00 0.80782771E+03</pdfrwt>
<pdfrwt beam="2">  1       -2 0.11138881E+00 0.80782771E+03</pdfrwt>
<totfact> 0.10772371E+01</totfact>
</mgrwt>
</event>
<event>
 4    5  0.7289609E-008  0.7162654E+03  0.7818608E-02  0.9935431E-01
          2   -1    0    0  501    0  0.00000000000E+00  0.00000000000E+00  0.89617450401E+03  0.89617450402E+03  0.25500000000E-02 0. -1.
         -2   -1    0    0    0  501 -0.00000000000E+00 -0.00000000000E+00 -0.68617939760E+03  0.68617939761E+03  0.25500000000E-02 0.  1.
    8880023    1    1    2    0    0 -0.24578966985E+03  0.13716191846E+03 -0.45197629174E+03  0.84694670921E+03  0.65864270000E+03 0.  1.
    8880022    1    1    2    0    0  0.24578966985E+03 -0.13716191846E+03  0.66197139815E+03  0.73540719242E+03  0.15294330000E+03 0.  0.
<mgrwt>
<rscale>  0 0.58574451E+03</rscale>
<asrwt>0</asrwt>
<pdfrwt beam="1">  1        2 0.13787300E+00 0.71626543E+03</pdfrwt>
<pdfrwt beam="2">  1       -2 0.10556606E+00 0.71626543E+03</pdfrwt>
<totfact> 0.21807522E+01</totfact>
</mgrwt>
</event>
<event>
 4    5  0.7289609E-008  0.1036117E+04  0.7818608E-02  0.9335759E-01
         -2   -1    0    0    0  501 -0.00000000000E+00  0.00000000000E+00  0.60545186515E+03  0.60545186516E+03  0.25500000000E-02 0.  1.
          2   -1    0    0  501    0  0.00000000000E+00 -0.00000000000E+00 -0.22645280031E+04  0.22645280031E+04  0.25500000000E-02 0. -1.
    8880023    1    1    2    0    0 -0.78075446861E+03  0.17364246643E+03 -0.16068724024E+02  0.10362420840E+04  0.65864270000E+03 0.  1.
    8880022    1    1    2    0    0  0.78075446861E+03 -0.17364246643E+03 -0.16430074139E+04  0.18337377843E+04  0.15294330000E+03 0.  0.
<mgrwt>
<rscale>  0 0.97556417E+03</rscale>
<asrwt>0</asrwt>
<pdfrwt beam="1">  1        2 0.34838892E+00 0.10361175E+04</pdfrwt>
<pdfrwt beam="2">  1       -2 0.93146442E-01 0.10361175E+04</pdfrwt>
<totfact> 0.46356247E+00</totfact>
</mgrwt>
</event>
<event>
 4    5  0.7289609E-008  0.8763245E+03  0.7818608E-02  0.9565160E-01
         -2   -1    0    0    0  501 -0.00000000000E+00  0.00000000000E+00  0.36746738515E+03  0.36746738516E+03  0.25500000000E-02 0.  1.
          2   -1    0    0  501    0  0.00000000000E+00 -0.00000000000E+00 -0.33684626772E+04  0.33684626772E+04  0.25500000000E-02 0. -1.
    8880023    1    1    2    0    0 -0.47559887476E+03  0.32854237929E+03 -0.23673252200E+03  0.90773722955E+03  0.65864270000E+03 0.  1.
    8880022    1    1    2    0    0  0.47559887476E+03 -0.32854237929E+03 -0.27642627701E+04  0.28281928328E+04  0.15294330000E+03 0.  0.
<mgrwt>
<rscale>  0 0.79645669E+03</rscale>
<asrwt>0</asrwt>
<pdfrwt beam="1">  1        2 0.51822500E+00 0.87632448E+03</pdfrwt>
<pdfrwt beam="2">  1       -2 0.56533446E-01 0.87632448E+03</pdfrwt>
<totfact> 0.31006994E+00</totfact>
</mgrwt>
</event>
<event>
 4    5  0.7289609E-008  0.1683452E+04  0.7818608E-02  0.8789903E-01
          2   -1    0    0  501    0  0.00000000000E+00  0.00000000000E+00  0.21028856389E+04  0.21028856389E+04  0.25500000000E-02 0. -1.
         -2   -1    0    0    0  501 -0.00000000000E+00 -0.00000000000E+00 -0.15730639534E+04  0.15730639534E+04  0.25500000000E-02 0.  1.
    8880023    1    1    2    0    0 -0.51279173376E+03 -0.14619321178E+04  0.11078912837E+04  0.20153000228E+04  0.65864270000E+03 0.  0.
    8880022    1    1    2    0    0  0.51279173376E+03  0.14619321178E+04 -0.57806959819E+03  0.16606495695E+04  0.15294330000E+03 0.  0.
<mgrwt>
<rscale>  0 0.16508516E+04</rscale>
<asrwt>0</asrwt>
<pdfrwt beam="1">  1        2 0.32352087E+00 0.16834521E+04</pdfrwt>
<pdfrwt beam="2">  1       -2 0.24200984E+00 0.16834521E+04</pdfrwt>
<totfact> 0.38760395E-01</totfact>
</mgrwt>
</event>
<event>
 4    5  0.7289609E-008  0.1250430E+04  0.7818608E-02  0.9109595E-01
         -2   -1    0    0    0  501 -0.00000000000E+00  0.00000000000E+00  0.15226982399E+04  0.15226982399E+04  0.25500000000E-02 0.  1.
          2   -1    0    0  501    0  0.00000000000E+00 -0.00000000000E+00 -0.17068592945E+04  0.17068592945E+04  0.25500000000E-02 0. -1.
    8880023    1    1    2    0    0  0.80899029717E+03  0.68941902470E+03  0.10217717170E+04  0.16148038706E+04  0.65864270000E+03 0.  1.
    8880022    1    1    2    0    0 -0.80899029717E+03 -0.68941902470E+03 -0.12059327716E+04  0.16147536639E+04  0.15294330000E+03 0.  0.
<mgrwt>
<rscale>  0 0.12037337E+04</rscale>
<asrwt>0</asrwt>
<pdfrwt beam="1">  1        2 0.26259374E+00 0.12504296E+04</pdfrwt>
<pdfrwt beam="2">  1       -2 0.23426127E+00 0.12504296E+04</pdfrwt>
<totfact> 0.75431417E-01</totfact>
</mgrwt>
</event>
<event>
 4    5  0.7289609E-008  0.1288637E+04  0.7818608E-02  0.9075435E-01
          2   -1    0    0  501    0  0.00000000000E+00  0.00000000000E+00  0.10115080085E+04  0.10115080085E+04  0.25500000000E-02 0. -1.
         -2   -1    0    0    0  501 -0.00000000000E+00 -0.00000000000E+00 -0.22548451523E+04  0.22548451523E+04  0.25500000000E-02 0.  1.
    8880023    1    1    2    0    0 -0.88989938628E+03  0.65943514820E+03 -0.16348656783E+04  0.20816751967E+04  0.65864270000E+03 0.  0.
    8880022    1    1    2    0    0  0.88989938628E+03 -0.65943514820E+03  0.39152853445E+03  0.11846779641E+04  0.15294330000E+03 0.  0.
<mgrwt>
<rscale>  0 0.12437097E+04</rscale>
<asrwt>0</asrwt>
<pdfrwt beam="1">  1        2 0.15561662E+00 0.12886372E+04</pdfrwt>
<pdfrwt beam="2">  1       -2 0.34689925E+00 0.12886372E+04</pdfrwt>
<totfact> 0.39151904E-01</totfact>
</mgrwt>
</event>
<event>
 4    5  0.7289609E-008  0.1131582E+04  0.7818608E-02  0.9226682E-01
         -2   -1    0    0    0  501 -0.00000000000E+00  0.00000000000E+00  0.84901668407E+03  0.84901668407E+03  0.25500000000E-02 0.  1.
          2   -1    0    0  501    0  0.00000000000E+00 -0.00000000000E+00 -0.37364184485E+04  0.37364184485E+04  0.25500000000E-02 0. -1.
    8880023    1    1    2    0    0 -0.74302549693E+03  0.54275313088E+03  0.37516127779E+03  0.11921510143E+04  0.65864270000E+03 0.  0.
    8880022    1    1    2    0    0  0.74302549693E+03 -0.54275313088E+03 -0.32625630422E+04  0.33932841183E+04  0.15294330000E+03 0.  0.
<mgrwt>
<rscale>  0 0.10782220E+04</rscale>
<asrwt>0</asrwt>
<pdfrwt beam="1">  1        2 0.57483360E+00 0.11315821E+04</pdfrwt>
<pdfrwt beam="2">  1       -2 0.13061795E+00 0.11315821E+04</pdfrwt>
<totfact> 0.23864558E-01</totfact>
</mgrwt>
</event>
<event>
 4    5  0.7289609E-008  0.6649823E+03  0.7818608E-02  0.1019548E+00
         -2   -1    0    0    0  501 -0.00000000000E+00  0.00000000000E+00  0.38427478908E+03  0.38427478909E+03  0.25500000000E-02 0.  1.
          2   -1    0    0  501    0  0.00000000000E+00 -0.00000000000E+00 -0.17965065934E+04  0.17965065934E+04  0.25500000000E-02 0. -1.
    8880023    1    1    2    0    0  0.77452749476E+02  0.48911326552E+02  0.87300797770E+02  0.67068836416E+03  0.65864270000E+03 0.  1.
    8880022    1    1    2    0    0 -0.77452749476E+02 -0.48911326552E+02 -0.14995326021E+04  0.15100930184E+04  0.15294330000E+03 0.  0.
<mgrwt>
<rscale>  0 0.47849979E+03</rscale>
<asrwt>0</asrwt>
<pdfrwt beam="1">  1        2 0.27638563E+00 0.66498229E+03</pdfrwt>
<pdfrwt beam="2">  1       -2 0.59119199E-01 0.66498229E+03</pdfrwt>
<totfact> 0.24118087E+01</totfact>
</mgrwt>
</event>
<event>
 4    5  0.7289609E-008  0.1074915E+04  0.7818608E-02  0.9289513E-01
         -2   -1    0    0    0  501 -0.00000000000E+00  0.00000000000E+00  0.22304416578E+04  0.22304416578E+04  0.25500000000E-02 0.  1.
          2   -1    0    0  501    0  0.00000000000E+00 -0.00000000000E+00 -0.16354780270E+04  0.16354780270E+04  0.25500000000E-02 0. -1.
    8880023    1    1    2    0    0 -0.80482858826E+03 -0.27181472989E+03  0.19689800778E+04  0.22432844351E+04  0.65864270000E+03 0.  1.
    8880022    1    1    2    0    0  0.80482858826E+03  0.27181472989E+03 -0.13740164470E+04  0.16226352497E+04  0.15294330000E+03 0.  0.
<mgrwt>
<rscale>  0 0.10175410E+04</rscale>
<asrwt>0</asrwt>
<pdfrwt beam="1">  1        2 0.25161201E+00 0.10749151E+04</pdfrwt>
<pdfrwt beam="2">  1       -2 0.34314487E+00 0.10749151E+04</pdfrwt>
<totfact> 0.18296929E-01</totfact>
</mgrwt>
</event>
<event>
 4    5  0.7289609E-008  0.1071440E+04  0.7818608E-02  0.9293541E-01
         -2   -1    0    0    0  501 -0.00000000000E+00  0.00000000000E+00  0.24077887010E+04  0.24077887010E+04  0.25500000000E-02 0.  1.
          2   -1    0    0  501    0  0.00000000000E+00 -0.00000000000E+00 -0.15945146656E+04  0.15945146656E+04  0.25500000000E-02 0. -1.
    8880023    1    1    2    0    0 -0.70717962695E+03 -0.46267781993E+03  0.21564952512E+04  0.24079982900E+04  0.65864270000E+03 0.  0.
    8880022    1    1    2    0    0  0.70717962695E+03  0.46267781993E+03 -0.13432212158E+04  0.15943050766E+04  0.15294330000E+03 0.  0.
<mgrwt>
<rscale>  0 0.10137970E+04</rscale>
<asrwt>0</asrwt>
<pdfrwt beam="1">  1        2 0.24530995E+00 0.10714402E+04</pdfrwt>
<pdfrwt beam="2">  1       -2 0.37042903E+00 0.10714402E+04</pdfrwt>
<totfact> 0.12994778E-01</totfact>
</mgrwt>
</event>
<event>
 4    5  0.7289609E-008  0.9360661E+03  0.7818608E-02  0.9470452E-01
         -2   -1    0    0    0  501 -0.00000000000E+00  0.00000000000E+00  0.44766688039E+03  0.44766688039E+03  0.25500000000E-02 0.  1.
          2   -1    0    0  501    0  0.00000000000E+00 -0.00000000000E+00 -0.24606448453E+04  0.24606448453E+04  0.25500000000E-02 0. -1.
    8880023    1    1    2    0    0  0.41740962390E+03  0.51785984786E+03 -0.18109710044E+03  0.95342329644E+03  0.65864270000E+03 0.  1.
    8880022    1    1    2    0    0 -0.41740962390E+03 -0.51785984786E+03 -0.18318808644E+04  0.19548884292E+04  0.15294330000E+03 0.  0.
<mgrwt>
<rscale>  0 0.86497785E+03</rscale>
<asrwt>0</asrwt>
<pdfrwt beam="1">  1        2 0.37856074E+00 0.93606614E+03</pdfrwt>
<pdfrwt beam="2">  1       -2 0.68871829E-01 0.93606614E+03</pdfrwt>
<totfact> 0.71994668E+00</totfact>
</mgrwt>
</event>
<event>
 4    5  0.7289609E-008  0.7062554E+03  0.7818608E-02  0.9972178E-01
          2   -1    0    0  501    0  0.00000000000E+00  0.00000000000E+00  0.34082184791E+04  0.34082184791E+04  0.25500000000E-02 0. -1.
         -2   -1    0    0    0  501 -0.00000000000E+00 -0.00000000000E+00 -0.16200957389E+03  0.16200957391E+03  0.25500000000E-02 0.  1.
    8880023    1    1    2    0    0  0.18265860610E+03 -0.17782683142E+03  0.65888491766E+03  0.96588099129E+03  0.65864270000E+03 0.  1.
    8880022    1    1    2    0    0 -0.18265860610E+03  0.17782683142E+03  0.25873239876E+04  0.26043470617E+04  0.15294330000E+03 0.  0.
<mgrwt>
<rscale>  0 0.56887193E+03</rscale>
<asrwt>0</asrwt>
<pdfrwt beam="1">  1        2 0.52434130E+00 0.70625545E+03</pdfrwt>
<pdfrwt beam="2">  1       -2 0.24924550E-01 0.70625545E+03</pdfrwt>
<totfact> 0.14694377E+01</totfact>
</mgrwt>
</event>
<event>
 4    5  0.7289609E-008  0.1142540E+04  0.7818608E-02  0.9215108E-01
          2   -1    0    0  501    0  0.00000000000E+00  0.00000000000E+00  0.19899212653E+04  0.19899212653E+04  0.25500000000E-02 0. -1.
         -2   -1    0    0    0  501 -0.00000000000E+00 -0.00000000000E+00 -0.64382615139E+03  0.64382615139E+03  0.25500000000E-02 0.  1.
    8880023    1    1    2    0    0  0.81763882933E+03 -0.45061500185E+03  0.22089938251E+03  0.11636983624E+04  0.65864270000E+03 0.  1.
    8880022    1    1    2    0    0 -0.81763882933E+03  0.45061500185E+03  0.11251957314E+04  0.14700490543E+04  0.15294330000E+03 0.  0.
<mgrwt>
<rscale>  0 0.10898836E+04</rscale>
<asrwt>0</asrwt>
<pdfrwt beam="1">  1        2 0.30614173E+00 0.11425399E+04</pdfrwt>
<pdfrwt beam="2">  1       -2 0.99050179E-01 0.11425399E+04</pdfrwt>
<totfact> 0.56308201E+00</totfact>
</mgrwt>
</event>
<event>
 4    5  0.7289609E-008  0.6914680E+03  0.7818608E-02  0.1003463E+00
          2   -1    0    0  501    0  0.00000000000E+00  0.00000000000E+00  0.14683255826E+04  0.14683255826E+04  0.25500000000E-02 0. -1.
         -2   -1    0    0    0  501 -0.00000000000E+00 -0.00000000000E+00 -0.41883078030E+03  0.41883078031E+03  0.25500000000E-02 0.  1.
    8880023    1    1    2    0    0  0.45649123161E+02  0.20550891878E+03 -0.10881587803E+03  0.69997775659E+03  0.65864270000E+03 0.  1.
    8880022    1    1    2    0    0 -0.45649123161E+02 -0.20550891878E+03  0.11583106804E+04  0.11871786064E+04  0.15294330000E+03 0.  0.
<mgrwt>
<rscale>  0 0.54157696E+03</rscale>
<asrwt>0</asrwt>
<pdfrwt beam="1">  1        2 0.22589624E+00 0.69146798E+03</pdfrwt>
<pdfrwt beam="2">  1       -2 0.64435505E-01 0.69146798E+03</pdfrwt>
<totfact> 0.30305993E+01</totfact>
</mgrwt>
</event>
<event>
 4    5  0.7289609E-008  0.6615497E+03  0.7818608E-02  0.1022622E+00
         -2   -1    0    0    0  501 -0.00000000000E+00  0.00000000000E+00  0.58429410355E+03  0.58429410355E+03  0.25500000000E-02 0.  1.
          2   -1    0    0  501    0  0.00000000000E+00 -0.00000000000E+00 -0.11407367297E+04  0.11407367297E+04  0.25500000000E-02 0. -1.
    8880023    1    1    2    0    0 -0.59027107868E+02  0.18805133115E+02  0.38756005813E+03  0.76671431277E+03  0.65864270000E+03 0.  1.
    8880022    1    1    2    0    0  0.59027107868E+02 -0.18805133115E+02 -0.94400268429E+03  0.95831652049E+03  0.15294330000E+03 0.  0.
<mgrwt>
<rscale>  0 0.46752173E+03</rscale>
<asrwt>0</asrwt>
<pdfrwt beam="1">  1        2 0.17549796E+00 0.66154973E+03</pdfrwt>
<pdfrwt beam="2">  1       -2 0.89891401E-01 0.66154973E+03</pdfrwt>
<totfact> 0.22419728E+01</totfact>
</mgrwt>
</event>
<event>
 4    5  0.7289609E-008  0.9303143E+03  0.7818608E-02  0.9479022E-01
          2   -1    0    0  501    0  0.00000000000E+00  0.00000000000E+00  0.60842615457E+03  0.60842615458E+03  0.25500000000E-02 0. -1.
         -2   -1    0    0    0  501 -0.00000000000E+00 -0.00000000000E+00 -0.11624223835E+04  0.11624223835E+04  0.25500000000E-02 0.  1.
    8880023    1    1    2    0    0 -0.10732576546E+03  0.64819418665E+03 -0.57904079177E+03  0.10957978684E+04  0.65864270000E+03 0.  0.
    8880022    1    1    2    0    0  0.10732576546E+03 -0.64819418665E+03  0.25044562827E+02  0.67505066972E+03  0.15294330000E+03 0.  0.
<mgrwt>
<rscale>  0 0.85848280E+03</rscale>
<asrwt>0</asrwt>
<pdfrwt beam="1">  1        2 0.93604024E-01 0.93031432E+03</pdfrwt>
<pdfrwt beam="2">  1       -2 0.17883421E+00 0.93031432E+03</pdfrwt>
<totfact> 0.90021474E+00</totfact>
</mgrwt>
</event>
<event>
 4    5  0.7289609E-008  0.9502968E+03  0.7818608E-02  0.9449687E-01
         -2   -1    0    0    0  501 -0.00000000000E+00  0.00000000000E+00  0.43278739882E+03  0.43278739883E+03  0.25500000000E-02 0.  1.
          2   -1    0    0  501    0  0.00000000000E+00 -0.00000000000E+00 -0.24174459793E+04  0.24174459793E+04  0.25500000000E-02 0. -1.
    8880023    1    1    2    0    0  0.65000692680E+03 -0.21620562933E+03 -0.25549013195E+03  0.98404232269E+03  0.65864270000E+03 0.  1.
    8880022    1    1    2    0    0 -0.65000692680E+03  0.21620562933E+03 -0.17291684485E+04  0.18661910554E+04  0.15294330000E+03 0.  0.
<mgrwt>
<rscale>  0 0.88097033E+03</rscale>
<asrwt>0</asrwt>
<pdfrwt beam="1">  1        2 0.37191476E+00 0.95029684E+03</pdfrwt>
<pdfrwt beam="2">  1       -2 0.66582678E-01 0.95029684E+03</pdfrwt>
<totfact> 0.81826772E+00</totfact>
</mgrwt>
</event>
<event>
 4    5  0.7289609E-008  0.6750779E+03  0.7818608E-02  0.1012257E+00
         -2   -1    0    0    0  501 -0.00000000000E+00  0.00000000000E+00  0.11275220071E+03  0.11275220074E+03  0.25500000000E-02 0.  1.
          2   -1    0    0  501    0  0.00000000000E+00 -0.00000000000E+00 -0.34035746280E+04  0.34035746280E+04  0.25500000000E-02 0. -1.
    8880023    1    1    2    0    0  0.75747159333E+02 -0.12720985134E+03 -0.94771130612E+03  0.11635664590E+04  0.65864270000E+03 0.  1.
    8880022    1    1    2    0    0 -0.75747159333E+02  0.12720985134E+03 -0.23431111212E+04  0.23527603698E+04  0.15294330000E+03 0.  0.
<mgrwt>
<rscale>  0 0.50587316E+03</rscale>
<asrwt>0</asrwt>
<pdfrwt beam="1">  1        2 0.52362679E+00 0.67507791E+03</pdfrwt>
<pdfrwt beam="2">  1       -2 0.17346495E-01 0.67507791E+03</pdfrwt>
<totfact> 0.28149521E+01</totfact>
</mgrwt>
</event>
<event>
 4    5  0.7289609E-008  0.6740267E+03  0.7818608E-02  0.1012927E+00
         -2   -1    0    0    0  501 -0.00000000000E+00  0.00000000000E+00  0.12807446995E+04  0.12807446995E+04  0.25500000000E-02 0.  1.
          2   -1    0    0  501    0  0.00000000000E+00 -0.00000000000E+00 -0.11288578159E+04  0.11288578159E+04  0.25500000000E-02 0. -1.
    8880023    1    1    2    0    0  0.72347918575E+02 -0.12356179286E+03  0.11807694460E+04  0.13596059829E+04  0.65864270000E+03 0.  1.
    8880022    1    1    2    0    0 -0.72347918575E+02  0.12356179286E+03 -0.10288825624E+04  0.10499965325E+04  0.15294330000E+03 0.  0.
<mgrwt>
<rscale>  0 0.50327771E+03</rscale>
<asrwt>0</asrwt>
<pdfrwt beam="1">  1        2 0.17367043E+00 0.67402666E+03</pdfrwt>
<pdfrwt beam="2">  1       -2 0.19703765E+00 0.67402666E+03</pdfrwt>
<totfact> 0.30211630E+00</totfact>
</mgrwt>
</event>
<event>
 4    5  0.7289609E-008  0.8097899E+03  0.7818608E-02  0.9690015E-01
         -2   -1    0    0    0  501 -0.00000000000E+00  0.00000000000E+00  0.50700639736E+03  0.50700639737E+03  0.25500000000E-02 0.  1.
          2   -1    0    0  501    0  0.00000000000E+00 -0.00000000000E+00 -0.23001254693E+04  0.23001254693E+04  0.25500000000E-02 0. -1.
    8880023    1    1    2    0    0 -0.13062246374E+03 -0.45264463991E+03  0.13096799904E+03  0.82031227048E+03  0.65864270000E+03 0.  1.
    8880022    1    1    2    0    0  0.13062246374E+03  0.45264463991E+03 -0.19240870709E+04  0.19868195961E+04  0.15294330000E+03 0.  0.
<mgrwt>
<rscale>  0 0.71614428E+03</rscale>
<asrwt>0</asrwt>
<pdfrwt beam="1">  1        2 0.35386545E+00 0.80978985E+03</pdfrwt>
<pdfrwt beam="2">  1       -2 0.78000985E-01 0.80978985E+03</pdfrwt>
<totfact> 0.68552799E+00</totfact>
</mgrwt>
</event>
<event>
 4    5  0.7289609E-008  0.2921443E+04  0.7818608E-02  0.8271837E-01
          2   -1    0    0  501    0  0.00000000000E+00  0.00000000000E+00  0.20989728757E+04  0.20989728757E+04  0.25500000000E-02 0. -1.
         -2   -1    0    0    0  501 -0.00000000000E+00 -0.00000000000E+00 -0.46448714976E+04  0.46448714976E+04  0.25500000000E-02 0.  1.
    8880023    1    1    2    0    0  0.28430024166E+04 -0.13548157246E+03 -0.25736233314E+04  0.38933745332E+04  0.65864270000E+03 0.  0.
    8880022    1    1    2    0    0 -0.28430024166E+04  0.13548157246E+03  0.27724709522E+02  0.28504698402E+04  0.15294330000E+03 0.  0.
<mgrwt>
<rscale>  0 0.29035013E+04</rscale>
<asrwt>0</asrwt>
<pdfrwt beam="1">  1        2 0.32291890E+00 0.29214428E+04</pdfrwt>
<pdfrwt beam="2">  1       -2 0.71459561E+00 0.29214428E+04</pdfrwt>
<totfact> 0.94127806E-04</totfact>
</mgrwt>
</event>
<event>
 4    5  0.7289609E-008  0.2316543E+04  0.7818608E-02  0.8480442E-01
         -2   -1    0    0    0  501 -0.00000000000E+00  0.00000000000E+00  0.20444334719E+04  0.20444334719E+04  0.25500000000E-02 0.  1.
          2   -1    0    0  501    0  0.00000000000E+00 -0.00000000000E+00 -0.26481119456E+04  0.26481119456E+04  0.25500000000E-02 0. -1.
    8880023    1    1    2    0    0 -0.15878301331E+04  0.15528543597E+04  0.20131830267E+03  0.23252742761E+04  0.65864270000E+03 0.  0.
    8880022    1    1    2    0    0  0.15878301331E+04 -0.15528543597E+04 -0.80499677644E+03  0.23672711414E+04  0.15294330000E+03 0.  0.
<mgrwt>
<rscale>  0 0.22936184E+04</rscale>
<asrwt>0</asrwt>
<pdfrwt beam="1">  1        2 0.40740184E+00 0.23165430E+04</pdfrwt>
<pdfrwt beam="2">  1       -2 0.31452823E+00 0.23165430E+04</pdfrwt>
<totfact> 0.63366080E-02</totfact>
</mgrwt>
</event>
<event>
 4    5  0.7289609E-008  0.7258300E+03  0.7818608E-02  0.9903331E-01
          2   -1    0    0  501    0  0.00000000000E+00  0.00000000000E+00  0.22951069163E+04  0.22951069163E+04  0.25500000000E-02 0. -1.
         -2   -1    0    0    0  501 -0.00000000000E+00 -0.00000000000E+00 -0.96064475137E+03  0.96064475137E+03  0.25500000000E-02 0.  1.
    8880023    1    1    2    0    0 -0.18738162091E+03  0.24063884650E+03 -0.80808970984E+03  0.10862035314E+04  0.65864270000E+03 0.  0.
    8880022    1    1    2    0    0  0.18738162091E+03 -0.24063884650E+03  0.21425518748E+04  0.21695481362E+04  0.15294330000E+03 0.  0.
<mgrwt>
<rscale>  0 0.60100104E+03</rscale>
<asrwt>0</asrwt>
<pdfrwt beam="1">  1        2 0.35309337E+00 0.72582996E+03</pdfrwt>
<pdfrwt beam="2">  1       -2 0.14779150E+00 0.72582996E+03</pdfrwt>
<totfact> 0.14944345E+00</totfact>
</mgrwt>
</event>
<event>
 4    5  0.7289609E-008  0.9122132E+03  0.7818608E-02  0.9506703E-01
         -2   -1    0    0    0  501 -0.00000000000E+00  0.00000000000E+00  0.39059752919E+03  0.39059752920E+03  0.25500000000E-02 0.  1.
          2   -1    0    0  501    0  0.00000000000E+00 -0.00000000000E+00 -0.19244355110E+04  0.19244355110E+04  0.25500000000E-02 0. -1.
    8880023    1    1    2    0    0 -0.12229460527E+03 -0.61916613585E+03 -0.37427268014E+03  0.98600857989E+03  0.65864270000E+03 0.  1.
    8880022    1    1    2    0    0  0.12229460527E+03  0.61916613585E+03 -0.11595653017E+04  0.13290244603E+04  0.15294330000E+03 0.  0.
<mgrwt>
<rscale>  0 0.83791420E+03</rscale>
<asrwt>0</asrwt>
<pdfrwt beam="1">  1        2 0.29606700E+00 0.91221318E+03</pdfrwt>
<pdfrwt beam="2">  1       -2 0.60091929E-01 0.91221318E+03</pdfrwt>
<totfact> 0.19228637E+01</totfact>
</mgrwt>
</event>
<event>
 4    5  0.7289609E-008  0.1000934E+04  0.7818608E-02  0.9380336E-01
         -2   -1    0    0    0  501 -0.00000000000E+00  0.00000000000E+00  0.50059051306E+03  0.50059051306E+03  0.25500000000E-02 0.  1.
          2   -1    0    0  501    0  0.00000000000E+00 -0.00000000000E+00 -0.18521657750E+04  0.18521657750E+04  0.25500000000E-02 0. -1.
    8880023    1    1    2    0    0 -0.53493651680E+03  0.53094496067E+03 -0.12107359887E+04  0.15709078487E+04  0.65864270000E+03 0.  0.
    8880022    1    1    2    0    0  0.53493651680E+03 -0.53094496067E+03 -0.14083927316E+03  0.78184843937E+03  0.15294330000E+03 0.  0.
<mgrwt>
<rscale>  0 0.93711763E+03</rscale>
<asrwt>0</asrwt>
<pdfrwt beam="1">  1        2 0.28494858E+00 0.10009345E+04</pdfrwt>
<pdfrwt beam="2">  1       -2 0.77013926E-01 0.10009345E+04</pdfrwt>
<totfact> 0.12157314E+01</totfact>
</mgrwt>
</event>
<event>
 4    5  0.7289609E-008  0.7081436E+03  0.7818608E-02  0.9964960E-01
         -2   -1    0    0    0  501 -0.00000000000E+00  0.00000000000E+00  0.60022710075E+03  0.60022710076E+03  0.25500000000E-02 0.  1.
          2   -1    0    0  501    0  0.00000000000E+00 -0.00000000000E+00 -0.17643768239E+04  0.17643768239E+04  0.25500000000E-02 0. -1.
    8880023    1    1    2    0    0 -0.18881474156E+03  0.17890241964E+03  0.37144140374E+03  0.79964742547E+03  0.65864270000E+03 0.  1.
    8880022    1    1    2    0    0  0.18881474156E+03 -0.17890241964E+03 -0.15355911269E+04  0.15649564992E+04  0.15294330000E+03 0.  0.
<mgrwt>
<rscale>  0 0.57213724E+03</rscale>
<asrwt>0</asrwt>
<pdfrwt beam="1">  1        2 0.27144258E+00 0.70814355E+03</pdfrwt>
<pdfrwt beam="2">  1       -2 0.92342632E-01 0.70814355E+03</pdfrwt>
<totfact> 0.93209966E+00</totfact>
</mgrwt>
</event>
<event>
 4    5  0.7289609E-008  0.1209000E+04  0.7818608E-02  0.9148423E-01
         -2   -1    0    0    0  501 -0.00000000000E+00  0.00000000000E+00  0.20044546407E+04  0.20044546407E+04  0.25500000000E-02 0.  1.
          2   -1    0    0  501    0  0.00000000000E+00 -0.00000000000E+00 -0.96748103399E+03  0.96748103400E+03  0.25500000000E-02 0. -1.
    8880023    1    1    2    0    0 -0.94291676407E+03 -0.37253078175E+03  0.14311498234E+04  0.18734650332E+04  0.65864270000E+03 0.  1.
    8880022    1    1    2    0    0  0.94291676407E+03  0.37253078175E+03 -0.39417621673E+03  0.10984706415E+04  0.15294330000E+03 0.  0.
<mgrwt>
<rscale>  0 0.11602022E+04</rscale>
<asrwt>0</asrwt>
<pdfrwt beam="1">  1        2 0.14884324E+00 0.12090002E+04</pdfrwt>
<pdfrwt beam="2">  1       -2 0.30837763E+00 0.12090002E+04</pdfrwt>
<totfact> 0.73037425E-01</totfact>
</mgrwt>
</event>
<event>
 4    5  0.7289609E-008  0.7076984E+03  0.7818608E-02  0.9966649E-01
          2   -1    0    0  501    0  0.00000000000E+00  0.00000000000E+00  0.15808939886E+04  0.15808939886E+04  0.25500000000E-02 0. -1.
         -2   -1    0    0    0  501 -0.00000000000E+00 -0.00000000000E+00 -0.69395094520E+03  0.69395094521E+03  0.25500000000E-02 0.  1.
    8880023    1    1    2    0    0 -0.24002744400E+03 -0.97023965325E+02 -0.49302058344E+03  0.86250004387E+03  0.65864270000E+03 0.  1.
    8880022    1    1    2    0    0  0.24002744400E+03  0.97023965325E+02  0.13799636268E+04  0.14123448899E+04  0.15294330000E+03 0.  0.
<mgrwt>
<rscale>  0 0.57137115E+03</rscale>
<asrwt>0</asrwt>
<pdfrwt beam="1">  1        2 0.24321446E+00 0.70769840E+03</pdfrwt>
<pdfrwt beam="2">  1       -2 0.10676168E+00 0.70769840E+03</pdfrwt>
<totfact> 0.83368999E+00</totfact>
</mgrwt>
</event>
<event>
 4    5  0.7289609E-008  0.1401472E+04  0.7818608E-02  0.8982540E-01
         -2   -1    0    0    0  501 -0.00000000000E+00  0.00000000000E+00  0.10813948754E+04  0.10813948754E+04  0.25500000000E-02 0.  1.
          2   -1    0    0  501    0  0.00000000000E+00 -0.00000000000E+00 -0.17458023471E+04  0.17458023471E+04  0.25500000000E-02 0. -1.
    8880023    1    1    2    0    0 -0.12232610414E+04  0.18424423542E+03  0.27140137676E+02  0.14017347492E+04  0.65864270000E+03 0.  0.
    8880022    1    1    2    0    0  0.12232610414E+04 -0.18424423542E+03 -0.69154760932E+03  0.14254624733E+04  0.15294330000E+03 0.  0.
<mgrwt>
<rscale>  0 0.13610040E+04</rscale>
<asrwt>0</asrwt>
<pdfrwt beam="1">  1        2 0.26858498E+00 0.14014720E+04</pdfrwt>
<pdfrwt beam="2">  1       -2 0.16636844E+00 0.14014720E+04</pdfrwt>
<totfact> 0.19921426E+00</totfact>
</mgrwt>
</event>
<event>
 4    5  0.7289609E-008  0.6723876E+03  0.7818608E-02  0.1014006E+00
          2   -1    0    0  501    0  0.00000000000E+00  0.00000000000E+00  0.28353990036E+04  0.28353990036E+04  0.25500000000E-02 0. -1.
         -2   -1    0    0    0  501 -0.00000000000E+00 -0.00000000000E+00 -0.11807361264E+03  0.11807361267E+03  0.25500000000E-02 0.  1.
    8880023    1    1    2    0    0 -0.11084467680E+03 -0.77513560544E+02  0.89339501690E+03  0.11181501495E+04  0.65864270000E+03 0.  0.
    8880022    1    1    2    0    0  0.11084467680E+03  0.77513560544E+02  0.18239303741E+04  0.18353224668E+04  0.15294330000E+03 0. -1.
<mgrwt>
<rscale>  0 0.49913068E+03</rscale>
<asrwt>0</asrwt>
<pdfrwt beam="1">  1        2 0.43621523E+00 0.67238761E+03</pdfrwt>
<pdfrwt beam="2">  1       -2 0.18165171E-01 0.67238761E+03</pdfrwt>
<totfact> 0.58973092E+01</totfact>
</mgrwt>
</event>
<event>
 4    5  0.7289609E-008  0.1307777E+04  0.7818608E-02  0.9058873E-01
         -2   -1    0    0    0  501 -0.00000000000E+00  0.00000000000E+00  0.77472605576E+03  0.77472605577E+03  0.25500000000E-02 0.  1.
          2   -1    0    0  501    0  0.00000000000E+00 -0.00000000000E+00 -0.30667160584E+04  0.30667160584E+04  0.25500000000E-02 0. -1.
    8880023    1    1    2    0    0  0.37764003084E+03 -0.10648282451E+04 -0.29715867522E+02  0.13081148357E+04  0.65864270000E+03 0.  0.
    8880022    1    1    2    0    0 -0.37764003084E+03  0.10648282451E+04 -0.22622741351E+04  0.25333272784E+04  0.15294330000E+03 0.  0.
<mgrwt>
<rscale>  0 0.12636812E+04</rscale>
<asrwt>0</asrwt>
<pdfrwt beam="1">  1        2 0.47180246E+00 0.13077773E+04</pdfrwt>
<pdfrwt beam="2">  1       -2 0.11918863E+00 0.13077773E+04</pdfrwt>
<totfact> 0.83215346E-01</totfact>
</mgrwt>
</event>
<event>
 4    5  0.7289609E-008  0.8891014E+03  0.7818608E-02  0.9543759E-01
          2   -1    0    0  501    0  0.00000000000E+00  0.00000000000E+00  0.66024908768E+03  0.66024908768E+03  0.25500000000E-02 0. -1.
         -2   -1    0    0    0  501 -0.00000000000E+00 -0.00000000000E+00 -0.18148067522E+04  0.18148067522E+04  0.25500000000E-02 0.  1.
    8880023    1    1    2    0    0 -0.28545183372E+03  0.52460298590E+03 -0.15181325131E+04  0.17593258867E+04  0.65864270000E+03 0.  1.
    8880022    1    1    2    0    0  0.28545183372E+03 -0.52460298590E+03  0.36357484862E+03  0.71572995309E+03  0.15294330000E+03 0.  0.
<mgrwt>
<rscale>  0 0.81133128E+03</rscale>
<asrwt>0</asrwt>
<pdfrwt beam="1">  1        2 0.10157678E+00 0.88910137E+03</pdfrwt>
<pdfrwt beam="2">  1       -2 0.27920104E+00 0.88910137E+03</pdfrwt>
<totfact> 0.19090068E+00</totfact>
</mgrwt>
</event>
<event>
 4    5  0.7289609E-008  0.8291453E+03  0.7818608E-02  0.9650998E-01
         -2   -1    0    0    0  501 -0.00000000000E+00  0.00000000000E+00  0.88546121170E+03  0.88546121170E+03  0.25500000000E-02 0.  1.
          2   -1    0    0  501    0  0.00000000000E+00 -0.00000000000E+00 -0.79133719435E+03  0.79133719435E+03  0.25500000000E-02 0. -1.
    8880023    1    1    2    0    0 -0.10115042370E+03 -0.49339677697E+03  0.53788332703E+03  0.98833216456E+03  0.65864270000E+03 0.  1.
    8880022    1    1    2    0    0  0.10115042370E+03  0.49339677697E+03 -0.44375930968E+03  0.68846624150E+03  0.15294330000E+03 0.  0.
<mgrwt>
<rscale>  0 0.74010852E+03</rscale>
<asrwt>0</asrwt>
<pdfrwt beam="1">  1        2 0.12174418E+00 0.82914534E+03</pdfrwt>
<pdfrwt beam="2">  1       -2 0.13622480E+00 0.82914534E+03</pdfrwt>
<totfact> 0.13569797E+01</totfact>
</mgrwt>
</event>
<event>
 4    5  0.7289609E-008  0.7218564E+03  0.7818608E-02  0.9916354E-01
          2   -1    0    0  501    0  0.00000000000E+00  0.00000000000E+00  0.15025022357E+04  0.15025022357E+04  0.25500000000E-02 0. -1.
         -2   -1    0    0    0  501 -0.00000000000E+00 -0.00000000000E+00 -0.61238813709E+03  0.61238813709E+03  0.25500000000E-02 0.  1.
    8880023    1    1    2    0    0  0.38176026107E+02  0.29293171230E+03 -0.37031632123E+03  0.81130190501E+03  0.65864270000E+03 0.  1.
    8880022    1    1    2    0    0 -0.38176026107E+02 -0.29293171230E+03  0.12604304198E+04  0.13035884678E+04  0.15294330000E+03 0.  0.
<mgrwt>
<rscale>  0 0.59475208E+03</rscale>
<asrwt>0</asrwt>
<pdfrwt beam="1">  1        2 0.23115419E+00 0.72185636E+03</pdfrwt>
<pdfrwt beam="2">  1       -2 0.94213560E-01 0.72185636E+03</pdfrwt>
<totfact> 0.12364834E+01</totfact>
</mgrwt>
</event>
<event>
 4    5  0.7289609E-008  0.1099373E+04  0.7818608E-02  0.9261755E-01
         -2   -1    0    0    0  501 -0.00000000000E+00  0.00000000000E+00  0.12315961830E+04  0.12315961830E+04  0.25500000000E-02 0.  1.
          2   -1    0    0  501    0  0.00000000000E+00 -0.00000000000E+00 -0.14695861975E+04  0.14695861975E+04  0.25500000000E-02 0. -1.
    8880023    1    1    2    0    0  0.69162880576E+03  0.54448083789E+03  0.77907848111E+03  0.13474358143E+04  0.65864270000E+03 0.  1.
    8880022    1    1    2    0    0 -0.69162880576E+03 -0.54448083789E+03 -0.10170684956E+04  0.13537465662E+04  0.15294330000E+03 0.  0.
<mgrwt>
<rscale>  0 0.10438131E+04</rscale>
<asrwt>0</asrwt>
<pdfrwt beam="1">  1        2 0.22609018E+00 0.10993725E+04</pdfrwt>
<pdfrwt beam="2">  1       -2 0.18947634E+00 0.10993725E+04</pdfrwt>
<totfact> 0.20246210E+00</totfact>
</mgrwt>
</event>
<event>
 4    5  0.7289609E-008  0.9482784E+03  0.7818608E-02  0.9452595E-01
         -2   -1    0    0    0  501 -0.00000000000E+00  0.00000000000E+00  0.42083641505E+03  0.42083641505E+03  0.25500000000E-02 0.  1.
          2   -1    0    0  501    0  0.00000000000E+00 -0.00000000000E+00 -0.21874838785E+04  0.21874838785E+04  0.25500000000E-02 0. -1.
    8880023    1    1    2    0    0 -0.48823801931E+03  0.47649277695E+03 -0.31867858695E+03  0.10003939114E+04  0.65864270000E+03 0.  0.
    8880022    1    1    2    0    0  0.48823801931E+03 -0.47649277695E+03 -0.14479688765E+04  0.16079263821E+04  0.15294330000E+03 0.  0.
<mgrwt>
<rscale>  0 0.87870841E+03</rscale>
<asrwt>0</asrwt>
<pdfrwt beam="1">  1        2 0.33653597E+00 0.94827841E+03</pdfrwt>
<pdfrwt beam="2">  1       -2 0.64744065E-01 0.94827841E+03</pdfrwt>
<totfact> 0.11695845E+01</totfact>
</mgrwt>
</event>
<event>
 4    5  0.7289609E-008  0.8703299E+03  0.7818608E-02  0.9575446E-01
          2   -1    0    0  501    0  0.00000000000E+00  0.00000000000E+00  0.73810388533E+03  0.73810388534E+03  0.25500000000E-02 0. -1.
         -2   -1    0    0    0  501 -0.00000000000E+00 -0.00000000000E+00 -0.16332440938E+04  0.16332440938E+04  0.25500000000E-02 0.  1.
    8880023    1    1    2    0    0  0.55205413826E+03 -0.13747796192E+03 -0.13642837730E+04  0.16182534972E+04  0.65864270000E+03 0.  1.
    8880022    1    1    2    0    0 -0.55205413826E+03  0.13747796192E+03  0.46914356454E+03  0.75309448195E+03  0.15294330000E+03 0.  0.
<mgrwt>
<rscale>  0 0.78942853E+03</rscale>
<asrwt>0</asrwt>
<pdfrwt beam="1">  1        2 0.11355444E+00 0.87032992E+03</pdfrwt>
<pdfrwt beam="2">  1       -2 0.25126832E+00 0.87032992E+03</pdfrwt>
<totfact> 0.24500986E+00</totfact>
</mgrwt>
</event>
<event>
 4    5  0.7289609E-008  0.1340036E+04  0.7818608E-02  0.9031735E-01
         -2   -1    0    0    0  501 -0.00000000000E+00  0.00000000000E+00  0.13783855379E+04  0.13783855379E+04  0.25500000000E-02 0.  1.
          2   -1    0    0  501    0  0.00000000000E+00 -0.00000000000E+00 -0.16772114547E+04  0.16772114547E+04  0.25500000000E-02 0. -1.
    8880023    1    1    2    0    0 -0.11527006432E+04  0.18212046862E+03  0.70006323280E+03  0.15118814021E+04  0.65864270000E+03 0.  0.
    8880022    1    1    2    0    0  0.11527006432E+04 -0.18212046862E+03 -0.99888914961E+03  0.15437155904E+04  0.15294330000E+03 0.  0.
<mgrwt>
<rscale>  0 0.12972674E+04</rscale>
<asrwt>0</asrwt>
<pdfrwt beam="1">  1        2 0.25803253E+00 0.13400361E+04</pdfrwt>
<pdfrwt beam="2">  1       -2 0.21205931E+00 0.13400361E+04</pdfrwt>
<totfact> 0.10713018E+00</totfact>
</mgrwt>
</event>
<event>
 4    5  0.7289609E-008  0.1563097E+04  0.7818608E-02  0.8866320E-01
         -2   -1    0    0    0  501 -0.00000000000E+00  0.00000000000E+00  0.22027064620E+04  0.22027064620E+04  0.25500000000E-02 0.  1.
          2   -1    0    0  501    0  0.00000000000E+00 -0.00000000000E+00 -0.13139918388E+04  0.13139918388E+04  0.25500000000E-02 0. -1.
    8880023    1    1    2    0    0 -0.12580408386E+03  0.14119609767E+04  0.12997133055E+04  0.20328613701E+04  0.65864270000E+03 0.  0.
    8880022    1    1    2    0    0  0.12580408386E+03 -0.14119609767E+04 -0.41099868227E+03  0.14838369308E+04  0.15294330000E+03 0.  0.
<mgrwt>
<rscale>  0 0.15275751E+04</rscale>
<asrwt>0</asrwt>
<pdfrwt beam="1">  1        2 0.20215259E+00 0.15630965E+04</pdfrwt>
<pdfrwt beam="2">  1       -2 0.33887792E+00 0.15630965E+04</pdfrwt>
<totfact> 0.27798008E-01</totfact>
</mgrwt>
</event>
<event>
 4    5  0.7289609E-008  0.1300764E+04  0.7818608E-02  0.9064900E-01
         -2   -1    0    0    0  501 -0.00000000000E+00  0.00000000000E+00  0.11918628049E+04  0.11918628049E+04  0.25500000000E-02 0.  1.
          2   -1    0    0  501    0  0.00000000000E+00 -0.00000000000E+00 -0.22634497028E+04  0.22634497028E+04  0.25500000000E-02 0. -1.
    8880023    1    1    2    0    0  0.11049132430E+04  0.19324702355E+03  0.60319085330E+03  0.14338155734E+04  0.65864270000E+03 0.  1.
    8880022    1    1    2    0    0 -0.11049132430E+04 -0.19324702355E+03 -0.16747777512E+04  0.20214969344E+04  0.15294330000E+03 0.  0.
<mgrwt>
<rscale>  0 0.12563676E+04</rscale>
<asrwt>0</asrwt>
<pdfrwt beam="1">  1        2 0.34822303E+00 0.13007643E+04</pdfrwt>
<pdfrwt beam="2">  1       -2 0.18336351E+00 0.13007643E+04</pdfrwt>
<totfact> 0.78596378E-01</totfact>
</mgrwt>
</event>
<event>
 4    5  0.7289609E-008  0.1322047E+04  0.7818608E-02  0.9046751E-01
         -2   -1    0    0    0  501 -0.00000000000E+00  0.00000000000E+00  0.21417186982E+04  0.21417186982E+04  0.25500000000E-02 0.  1.
          2   -1    0    0  501    0  0.00000000000E+00 -0.00000000000E+00 -0.11949900138E+04  0.11949900138E+04  0.25500000000E-02 0. -1.
    8880023    1    1    2    0    0 -0.54518274455E+03  0.10083526368E+04  0.15460126474E+04  0.20341987556E+04  0.65864270000E+03 0.  0.
    8880022    1    1    2    0    0  0.54518274455E+03 -0.10083526368E+04 -0.59928396306E+03  0.13025099564E+04  0.15294330000E+03 0.  0.
<mgrwt>
<rscale>  0 0.12785496E+04</rscale>
<asrwt>0</asrwt>
<pdfrwt beam="1">  1        2 0.18384462E+00 0.13220475E+04</pdfrwt>
<pdfrwt beam="2">  1       -2 0.32949518E+00 0.13220475E+04</pdfrwt>
<totfact> 0.38460196E-01</totfact>
</mgrwt>
</event>
<event>
 4    5  0.7289609E-008  0.1145955E+04  0.7818608E-02  0.9211537E-01
          2   -1    0    0  501    0  0.00000000000E+00  0.00000000000E+00  0.23704662352E+04  0.23704662352E+04  0.25500000000E-02 0. -1.
         -2   -1    0    0    0  501 -0.00000000000E+00 -0.00000000000E+00 -0.74611787970E+03  0.74611787970E+03  0.25500000000E-02 0.  1.
    8880023    1    1    2    0    0  0.98589493750E+02  0.93256751240E+03  0.18159557331E+04  0.21473023738E+04  0.65864270000E+03 0.  0.
    8880022    1    1    2    0    0 -0.98589493750E+02 -0.93256751240E+03 -0.19160737765E+03  0.96928174111E+03  0.15294330000E+03 0.  0.
<mgrwt>
<rscale>  0 0.10935135E+04</rscale>
<asrwt>0</asrwt>
<pdfrwt beam="1">  1        2 0.36468711E+00 0.11459547E+04</pdfrwt>
<pdfrwt beam="2">  1       -2 0.11478737E+00 0.11459547E+04</pdfrwt>
<totfact> 0.24146286E+00</totfact>
</mgrwt>
</event>
<event>
 4    5  0.7289609E-008  0.1011132E+04  0.7818608E-02  0.9367137E-01
         -2   -1    0    0    0  501 -0.00000000000E+00  0.00000000000E+00  0.50529938821E+03  0.50529938822E+03  0.25500000000E-02 0.  1.
          2   -1    0    0  501    0  0.00000000000E+00 -0.00000000000E+00 -0.23269886184E+04  0.23269886184E+04  0.25500000000E-02 0. -1.
    8880023    1    1    2    0    0 -0.10575833641E+03  0.75986333793E+03 -0.19851020658E+03  0.10304337079E+04  0.65864270000E+03 0.  0.
    8880022    1    1    2    0    0  0.10575833641E+03 -0.75986333793E+03 -0.16231790236E+04  0.18018542987E+04  0.15294330000E+03 0.  0.
<mgrwt>
<rscale>  0 0.94830263E+03</rscale>
<asrwt>0</asrwt>
<pdfrwt beam="1">  1        2 0.35799824E+00 0.10111317E+04</pdfrwt>
<pdfrwt beam="2">  1       -2 0.77738369E-01 0.10111317E+04</pdfrwt>
<totfact> 0.64895441E+00</totfact>
</mgrwt>
</event>
<event>
 4    5  0.7289609E-008  0.7048119E+03  0.7818608E-02  0.9977796E-01
         -2   -1    0    0    0  501 -0.00000000000E+00  0.00000000000E+00  0.18816348921E+03  0.18816348923E+03  0.25500000000E-02 0.  1.
          2   -1    0    0  501    0  0.00000000000E+00 -0.00000000000E+00 -0.26466417695E+04  0.26466417695E+04  0.25500000000E-02 0. -1.
    8880023    1    1    2    0    0 -0.23870196404E+03 -0.77272300401E+02 -0.52430482999E+03  0.87843918234E+03  0.65864270000E+03 0.  1.
    8880022    1    1    2    0    0  0.23870196404E+03  0.77272300401E+02 -0.19341734503E+04  0.19563660764E+04  0.15294330000E+03 0.  0.
<mgrwt>
<rscale>  0 0.56634653E+03</rscale>
<asrwt>0</asrwt>
<pdfrwt beam="1">  1        2 0.40717563E+00 0.70481192E+03</pdfrwt>
<pdfrwt beam="2">  1       -2 0.28948231E-01 0.70481192E+03</pdfrwt>
<totfact> 0.32977294E+01</totfact>
</mgrwt>
</event>
<event>
 4    5  0.7289609E-008  0.1051415E+04  0.7818608E-02  0.9317182E-01
         -2   -1    0    0    0  501 -0.00000000000E+00  0.00000000000E+00  0.35266084122E+03  0.35266084123E+03  0.25500000000E-02 0.  1.
          2   -1    0    0  501    0  0.00000000000E+00 -0.00000000000E+00 -0.31510009698E+04  0.31510009698E+04  0.25500000000E-02 0. -1.
    8880023    1    1    2    0    0  0.77610327540E+03 -0.26329981195E+03 -0.74810160288E+03  0.12903988916E+04  0.65864270000E+03 0. -1.
    8880022    1    1    2    0    0 -0.77610327540E+03  0.26329981195E+03 -0.20502385257E+04  0.22132629194E+04  0.15294330000E+03 0.  0.
<mgrwt>
<rscale>  0 0.99216287E+03</rscale>
<asrwt>0</asrwt>
<pdfrwt beam="1">  1        2 0.48476936E+00 0.10514149E+04</pdfrwt>
<pdfrwt beam="2">  1       -2 0.54255516E-01 0.10514149E+04</pdfrwt>
<totfact> 0.45492541E+00</totfact>
</mgrwt>
</event>
<event>
 4    5  0.7289609E-008  0.7187220E+03  0.7818608E-02  0.9926934E-01
         -2   -1    0    0    0  501 -0.00000000000E+00  0.00000000000E+00  0.21111415424E+03  0.21111415426E+03  0.25500000000E-02 0.  1.
          2   -1    0    0  501    0  0.00000000000E+00 -0.00000000000E+00 -0.20423149750E+04  0.20423149750E+04  0.25500000000E-02 0. -1.
    8880023    1    1    2    0    0  0.23622070611E+02  0.28669327951E+03 -0.48183469669E+03  0.86528950065E+03  0.65864270000E+03 0.  1.
    8880022    1    1    2    0    0 -0.23622070611E+02 -0.28669327951E+03 -0.13493661241E+04  0.13881396286E+04  0.15294330000E+03 0. -1.
<mgrwt>
<rscale>  0 0.58973506E+03</rscale>
<asrwt>0</asrwt>
<pdfrwt beam="1">  1        2 0.31420229E+00 0.71872195E+03</pdfrwt>
<pdfrwt beam="2">  1       -2 0.32479102E-01 0.71872195E+03</pdfrwt>
<totfact> 0.57772844E+01</totfact>
</mgrwt>
</event>
<event>
 4    5  0.7289609E-008  0.1013442E+04  0.7818608E-02  0.9364179E-01
         -2   -1    0    0    0  501 -0.00000000000E+00  0.00000000000E+00  0.11634296160E+04  0.11634296160E+04  0.25500000000E-02 0.  1.
          2   -1    0    0  501    0  0.00000000000E+00 -0.00000000000E+00 -0.15083934568E+04  0.15083934568E+04  0.25500000000E-02 0. -1.
    8880023    1    1    2    0    0 -0.23180387009E+02  0.76988167005E+03  0.79466014143E+03  0.12878470650E+04  0.65864270000E+03 0.  1.
    8880022    1    1    2    0    0  0.23180387009E+02 -0.76988167005E+03 -0.11396239822E+04  0.13839760078E+04  0.15294330000E+03 0.  0.
<mgrwt>
<rscale>  0 0.95083209E+03</rscale>
<asrwt>0</asrwt>
<pdfrwt beam="1">  1        2 0.23206053E+00 0.10134423E+04</pdfrwt>
<pdfrwt beam="2">  1       -2 0.17898917E+00 0.10134423E+04</pdfrwt>
<totfact> 0.22932196E+00</totfact>
</mgrwt>
</event>
<event>
 4    5  0.7289609E-008  0.9181243E+03  0.7818608E-02  0.9497541E-01
          2   -1    0    0  501    0  0.00000000000E+00  0.00000000000E+00  0.88368708764E+03  0.88368708765E+03  0.25500000000E-02 0. -1.
         -2   -1    0    0    0  501 -0.00000000000E+00 -0.00000000000E+00 -0.10309505383E+04  0.10309505383E+04  0.25500000000E-02 0.  1.
    8880023    1    1    2    0    0 -0.46104708720E+03  0.44337083154E+03 -0.61722389992E+03  0.11063081215E+04  0.65864270000E+03 0.  1.
    8880022    1    1    2    0    0  0.46104708720E+03 -0.44337083154E+03  0.46996044924E+03  0.80832950444E+03  0.15294330000E+03 0.  0.
<mgrwt>
<rscale>  0 0.84465359E+03</rscale>
<asrwt>0</asrwt>
<pdfrwt beam="1">  1        2 0.13595186E+00 0.91812435E+03</pdfrwt>
<pdfrwt beam="2">  1       -2 0.15860777E+00 0.91812435E+03</pdfrwt>
<totfact> 0.77531716E+00</totfact>
</mgrwt>
</event>
<event>
 4    5  0.7289609E-008  0.7107662E+03  0.7818608E-02  0.9955167E-01
          2   -1    0    0  501    0  0.00000000000E+00  0.00000000000E+00  0.22978750588E+04  0.22978750588E+04  0.25500000000E-02 0. -1.
         -2   -1    0    0    0  501 -0.00000000000E+00 -0.00000000000E+00 -0.44971322859E+03  0.44971322860E+03  0.25500000000E-02 0.  1.
    8880023    1    1    2    0    0 -0.26601599740E+03 -0.24775174534E+02 -0.14952241324E+03  0.72632326031E+03  0.65864270000E+03 0.  1.
    8880022    1    1    2    0    0  0.26601599740E+03  0.24775174534E+02  0.19976842434E+04  0.20212650271E+04  0.15294330000E+03 0.  0.
<mgrwt>
<rscale>  0 0.57660566E+03</rscale>
<asrwt>0</asrwt>
<pdfrwt beam="1">  1        2 0.35351924E+00 0.71076615E+03</pdfrwt>
<pdfrwt beam="2">  1       -2 0.69186650E-01 0.71076615E+03</pdfrwt>
<totfact> 0.91031634E+00</totfact>
</mgrwt>
</event>
<event>
 4    5  0.7289609E-008  0.1549510E+04  0.7818608E-02  0.8875444E-01
          2   -1    0    0  501    0  0.00000000000E+00  0.00000000000E+00  0.11843326834E+04  0.11843326834E+04  0.25500000000E-02 0. -1.
         -2   -1    0    0    0  501 -0.00000000000E+00 -0.00000000000E+00 -0.26794724108E+04  0.26794724108E+04  0.25500000000E-02 0.  1.
    8880023    1    1    2    0    0  0.58276965654E+03  0.12757553441E+04 -0.18458366237E+04  0.24099990079E+04  0.65864270000E+03 0.  1.
    8880022    1    1    2    0    0 -0.58276965654E+03 -0.12757553441E+04  0.35069689626E+03  0.14538060863E+04  0.15294330000E+03 0.  0.
<mgrwt>
<rscale>  0 0.15136236E+04</rscale>
<asrwt>0</asrwt>
<pdfrwt beam="1">  1        2 0.18220503E+00 0.15495104E+04</pdfrwt>
<pdfrwt beam="2">  1       -2 0.41222652E+00 0.15495104E+04</pdfrwt>
<totfact> 0.11237970E-01</totfact>
</mgrwt>
</event>
<event>
 4    5  0.7289609E-008  0.1118458E+04  0.7818608E-02  0.9240778E-01
          2   -1    0    0  501    0  0.00000000000E+00  0.00000000000E+00  0.12844022058E+04  0.12844022058E+04  0.25500000000E-02 0. -1.
         -2   -1    0    0    0  501 -0.00000000000E+00 -0.00000000000E+00 -0.12797202466E+04  0.12797202466E+04  0.25500000000E-02 0.  1.
    8880023    1    1    2    0    0 -0.43887385431E+03 -0.79027124890E+03 -0.77490768265E+03  0.13606730062E+04  0.65864270000E+03 0.  0.
    8880022    1    1    2    0    0  0.43887385431E+03  0.79027124890E+03  0.77958964192E+03  0.12034494462E+04  0.15294330000E+03 0.  0.
<mgrwt>
<rscale>  0 0.10642265E+04</rscale>
<asrwt>0</asrwt>
<pdfrwt beam="1">  1        2 0.19760034E+00 0.11184584E+04</pdfrwt>
<pdfrwt beam="2">  1       -2 0.19688004E+00 0.11184584E+04</pdfrwt>
<totfact> 0.23047681E+00</totfact>
</mgrwt>
</event>
<event>
 4    5  0.7289609E-008  0.7331426E+03  0.7818608E-02  0.9880392E-01
          2   -1    0    0  501    0  0.00000000000E+00  0.00000000000E+00  0.48335561772E+04  0.48335561772E+04  0.25500000000E-02 0. -1.
         -2   -1    0    0    0  501 -0.00000000000E+00 -0.00000000000E+00 -0.36805378070E+03  0.36805378071E+03  0.25500000000E-02 0.  1.
    8880023    1    1    2    0    0  0.10068359297E+03 -0.30586061947E+03  0.11365729803E+02  0.73323072120E+03  0.65864270000E+03 0.  1.
    8880022    1    1    2    0    0 -0.10068359297E+03  0.30586061947E+03  0.44541366667E+04  0.44683792367E+04  0.15294330000E+03 0.  0.
<mgrwt>
<rscale>  0 0.61221056E+03</rscale>
<asrwt>0</asrwt>
<pdfrwt beam="1">  1        2 0.74362404E+00 0.73314263E+03</pdfrwt>
<pdfrwt beam="2">  1       -2 0.56623658E-01 0.73314263E+03</pdfrwt>
<totfact> 0.18729968E-01</totfact>
</mgrwt>
</event>
<event>
 4    5  0.7289609E-008  0.8193095E+03  0.7818608E-02  0.9670502E-01
          2   -1    0    0  501    0  0.00000000000E+00  0.00000000000E+00  0.14346941555E+04  0.14346941555E+04  0.25500000000E-02 0. -1.
         -2   -1    0    0    0  501 -0.00000000000E+00 -0.00000000000E+00 -0.78691850407E+03  0.78691850408E+03  0.25500000000E-02 0.  1.
    8880023    1    1    2    0    0 -0.43756413835E+03  0.21446538382E+03 -0.50383358070E+03  0.96182964153E+03  0.65864270000E+03 0.  1.
    8880022    1    1    2    0    0  0.43756413835E+03 -0.21446538382E+03  0.11516092322E+04  0.12597830181E+04  0.15294330000E+03 0.  0.
<mgrwt>
<rscale>  0 0.72800559E+03</rscale>
<asrwt>0</asrwt>
<pdfrwt beam="1">  1        2 0.22072218E+00 0.81930945E+03</pdfrwt>
<pdfrwt beam="2">  1       -2 0.12106439E+00 0.81930945E+03</pdfrwt>
<totfact> 0.72848648E+00</totfact>
</mgrwt>
</event>
<event>
 4    5  0.7289609E-008  0.8634231E+03  0.7818608E-02  0.9587503E-01
          2   -1    0    0  501    0  0.00000000000E+00  0.00000000000E+00  0.31393072097E+04  0.31393072097E+04  0.25500000000E-02 0. -1.
         -2   -1    0    0    0  501 -0.00000000000E+00 -0.00000000000E+00 -0.70744921593E+03  0.70744921593E+03  0.25500000000E-02 0.  1.
    8880023    1    1    2    0    0  0.10240920989E+03 -0.54881833411E+03 -0.40339886289E+03  0.95301104872E+03  0.65864270000E+03 0.  1.
    8880022    1    1    2    0    0 -0.10240920989E+03  0.54881833411E+03  0.28352568567E+04  0.28937453769E+04  0.15294330000E+03 0.  0.
<mgrwt>
<rscale>  0 0.78128852E+03</rscale>
<asrwt>0</asrwt>
<pdfrwt beam="1">  1        2 0.48297034E+00 0.86342308E+03</pdfrwt>
<pdfrwt beam="2">  1       -2 0.10883834E+00 0.86342308E+03</pdfrwt>
<totfact> 0.10030929E+00</totfact>
</mgrwt>
</event>
<event>
 4    5  0.7289609E-008  0.1335086E+04  0.7818608E-02  0.9035838E-01
         -2   -1    0    0    0  501 -0.00000000000E+00  0.00000000000E+00  0.51248500223E+03  0.51248500224E+03  0.25500000000E-02 0.  1.
          2   -1    0    0  501    0  0.00000000000E+00 -0.00000000000E+00 -0.35954854276E+04  0.35954854276E+04  0.25500000000E-02 0. -1.
    8880023    1    1    2    0    0  0.78092327581E+02 -0.11586831826E+04 -0.83948859301E+03  0.15770847895E+04  0.65864270000E+03 0.  1.
    8880022    1    1    2    0    0 -0.78092327581E+02  0.11586831826E+04 -0.22435118324E+04  0.25308856403E+04  0.15294330000E+03 0. -1.
<mgrwt>
<rscale>  0 0.12921196E+04</rscale>
<asrwt>0</asrwt>
<pdfrwt beam="1">  1        2 0.55315159E+00 0.13350863E+04</pdfrwt>
<pdfrwt beam="2">  1       -2 0.78843849E-01 0.13350863E+04</pdfrwt>
<totfact> 0.98109510E-01</totfact>
</mgrwt>
</event>
<event>
 4    5  0.7289609E-008  0.9677087E+03  0.7818608E-02  0.9425080E-01
         -2   -1    0    0    0  501 -0.00000000000E+00  0.00000000000E+00  0.62687011119E+03  0.62687011120E+03  0.25500000000E-02 0.  1.
          2   -1    0    0  501    0  0.00000000000E+00 -0.00000000000E+00 -0.15485521383E+04  0.15485521383E+04  0.25500000000E-02 0. -1.
    8880023    1    1    2    0    0  0.10400580956E+03 -0.70130788202E+03  0.42810139908E+02  0.96865518537E+03  0.65864270000E+03 0.  1.
    8880022    1    1    2    0    0 -0.10400580956E+03  0.70130788202E+03 -0.96449216703E+03  0.12067670641E+04  0.15294330000E+03 0.  0.
<mgrwt>
<rscale>  0 0.90040107E+03</rscale>
<asrwt>0</asrwt>
<pdfrwt beam="1">  1        2 0.23823879E+00 0.96770872E+03</pdfrwt>
<pdfrwt beam="2">  1       -2 0.96441556E-01 0.96770872E+03</pdfrwt>
<totfact> 0.10716545E+01</totfact>
</mgrwt>
</event>
<event>
 4    5  0.7289609E-008  0.6969457E+03  0.7818608E-02  0.1001012E+00
         -2   -1    0    0    0  501 -0.00000000000E+00  0.00000000000E+00  0.57116389521E+03  0.57116389521E+03  0.25500000000E-02 0.  1.
          2   -1    0    0  501    0  0.00000000000E+00 -0.00000000000E+00 -0.12170824476E+04  0.12170824476E+04  0.25500000000E-02 0. -1.
    8880023    1    1    2    0    0 -0.21379147241E+03  0.78843371247E+02  0.33240710124E+03  0.77215785827E+03  0.65864270000E+03 0.  1.
    8880022    1    1    2    0    0  0.21379147241E+03 -0.78843371247E+02 -0.97832565366E+03  0.10160884846E+04  0.15294330000E+03 0.  0.
<mgrwt>
<rscale>  0 0.55208911E+03</rscale>
<asrwt>0</asrwt>
<pdfrwt beam="1">  1        2 0.18724345E+00 0.69694568E+03</pdfrwt>
<pdfrwt beam="2">  1       -2 0.87871369E-01 0.69694568E+03</pdfrwt>
<totfact> 0.21188866E+01</totfact>
</mgrwt>
</event>
<event>
 4    5  0.7289609E-008  0.7109585E+03  0.7818608E-02  0.9954459E-01
          2   -1    0    0  501    0  0.00000000000E+00  0.00000000000E+00  0.27657957234E+04  0.27657957234E+04  0.25500000000E-02 0. -1.
         -2   -1    0    0    0  501 -0.00000000000E+00 -0.00000000000E+00 -0.16234895923E+03  0.16234895925E+03  0.25500000000E-02 0.  1.
    8880023    1    1    2    0    0 -0.25933573927E+03 -0.66308077861E+02  0.69247012052E+03  0.99246000470E+03  0.65864270000E+03 0.  0.
    8880022    1    1    2    0    0  0.25933573927E+03  0.66308077861E+02  0.19109766437E+04  0.19356846780E+04  0.15294330000E+03 0.  0.
<mgrwt>
<rscale>  0 0.57693045E+03</rscale>
<asrwt>0</asrwt>
<pdfrwt beam="1">  1        2 0.42550701E+00 0.71095850E+03</pdfrwt>
<pdfrwt beam="2">  1       -2 0.24976764E-01 0.71095850E+03</pdfrwt>
<totfact> 0.36752831E+01</totfact>
</mgrwt>
</event>
<event>
 4    5  0.7289609E-008  0.9568090E+03  0.7818608E-02  0.9440384E-01
         -2   -1    0    0    0  501 -0.00000000000E+00  0.00000000000E+00  0.39329173721E+03  0.39329173722E+03  0.25500000000E-02 0.  1.
          2   -1    0    0  501    0  0.00000000000E+00 -0.00000000000E+00 -0.30255377851E+04  0.30255377851E+04  0.25500000000E-02 0. -1.
    8880023    1    1    2    0    0  0.26131916328E+03  0.64295072798E+03 -0.33434921008E+03  0.10135447421E+04  0.65864270000E+03 0.  0.
    8880022    1    1    2    0    0 -0.26131916328E+03 -0.64295072798E+03 -0.22978968378E+04  0.24052847802E+04  0.15294330000E+03 0.  0.
<mgrwt>
<rscale>  0 0.88825439E+03</rscale>
<asrwt>0</asrwt>
<pdfrwt beam="1">  1        2 0.46546734E+00 0.95680905E+03</pdfrwt>
<pdfrwt beam="2">  1       -2 0.60506423E-01 0.95680905E+03</pdfrwt>
<totfact> 0.43968404E+00</totfact>
</mgrwt>
</event>
<event>
 4    5  0.7289609E-008  0.1258996E+04  0.7818608E-02  0.9101804E-01
         -2   -1    0    0    0  501 -0.00000000000E+00  0.00000000000E+00  0.12263510738E+04  0.12263510738E+04  0.25500000000E-02 0.  1.
          2   -1    0    0  501    0  0.00000000000E+00 -0.00000000000E+00 -0.33783112284E+04  0.33783112284E+04  0.25500000000E-02 0. -1.
    8880023    1    1    2    0    0 -0.43876764769E+02  0.10720707557E+04  0.77846908298E+03  0.14802314667E+04  0.65864270000E+03 0.  0.
    8880022    1    1    2    0    0  0.43876764769E+02 -0.10720707557E+04 -0.29304292377E+04  0.31244308355E+04  0.15294330000E+03 0.  0.
<mgrwt>
<rscale>  0 0.12127100E+04</rscale>
<asrwt>0</asrwt>
<pdfrwt beam="1">  1        2 0.51974019E+00 0.12589961E+04</pdfrwt>
<pdfrwt beam="2">  1       -2 0.18866940E+00 0.12589961E+04</pdfrwt>
<totfact> 0.15306170E-01</totfact>
</mgrwt>
</event>
<event>
 4    5  0.7289609E-008  0.1288991E+04  0.7818608E-02  0.9075125E-01
          2   -1    0    0  501    0  0.00000000000E+00  0.00000000000E+00  0.19162303378E+04  0.19162303378E+04  0.25500000000E-02 0. -1.
         -2   -1    0    0    0  501 -0.00000000000E+00 -0.00000000000E+00 -0.79321583060E+03  0.79321583060E+03  0.25500000000E-02 0.  1.
    8880023    1    1    2    0    0  0.11017117262E+04 -0.11798313505E+03  0.89142073460E+03  0.15672044793E+04  0.65864270000E+03 0.  0.
    8880022    1    1    2    0    0 -0.11017117262E+04  0.11798313505E+03  0.23159377262E+03  0.11422416891E+04  0.15294330000E+03 0.  0.
<mgrwt>
<rscale>  0 0.12440796E+04</rscale>
<asrwt>0</asrwt>
<pdfrwt beam="1">  1        2 0.29480466E+00 0.12889914E+04</pdfrwt>
<pdfrwt beam="2">  1       -2 0.12203321E+00 0.12889914E+04</pdfrwt>
<totfact> 0.36626111E+00</totfact>
</mgrwt>
</event>
<event>
 4    5  0.7289609E-008  0.7104843E+03  0.7818608E-02  0.9956207E-01
         -2   -1    0    0    0  501 -0.00000000000E+00  0.00000000000E+00  0.54409762277E+03  0.54409762277E+03  0.25500000000E-02 0.  1.
          2   -1    0    0  501    0  0.00000000000E+00 -0.00000000000E+00 -0.51322911314E+03  0.51322911314E+03  0.25500000000E-02 0. -1.
    8880023    1    1    2    0    0 -0.14739530497E+03 -0.22192883417E+03  0.15295082169E+03  0.72676126994E+03  0.65864270000E+03 0. -1.
    8880022    1    1    2    0    0  0.14739530497E+03  0.22192883417E+03 -0.12208231206E+03  0.33056546598E+03  0.15294330000E+03 0.  0.
<mgrwt>
<rscale>  0 0.57612908E+03</rscale>
<asrwt>0</asrwt>
<pdfrwt beam="1">  1        2 0.78958325E-01 0.71048433E+03</pdfrwt>
<pdfrwt beam="2">  1       -2 0.83707326E-01 0.71048433E+03</pdfrwt>
<totfact> 0.75554622E+01</totfact>
</mgrwt>
</event>
<event>
 4    5  0.7289609E-008  0.7784896E+03  0.7818608E-02  0.9759397E-01
          2   -1    0    0  501    0  0.00000000000E+00  0.00000000000E+00  0.37526064982E+04  0.37526064982E+04  0.25500000000E-02 0. -1.
         -2   -1    0    0    0  501 -0.00000000000E+00 -0.00000000000E+00 -0.11802340166E+03  0.11802340169E+03  0.25500000000E-02 0.  1.
    8880023    1    1    2    0    0  0.39864088423E+03  0.11541811301E+03  0.14921792543E+04  0.16830463536E+04  0.65864270000E+03 0.  0.
    8880022    1    1    2    0    0 -0.39864088423E+03 -0.11541811301E+03  0.21424038423E+04  0.21875835463E+04  0.15294330000E+03 0.  0.
<mgrwt>
<rscale>  0 0.67587810E+03</rscale>
<asrwt>0</asrwt>
<pdfrwt beam="1">  1        2 0.57732404E+00 0.77848963E+03</pdfrwt>
<pdfrwt beam="2">  1       -2 0.18157448E-01 0.77848963E+03</pdfrwt>
<totfact> 0.14589390E+01</totfact>
</mgrwt>
</event>
<event>
 4    5  0.7289609E-008  0.7538338E+03  0.7818608E-02  0.9821341E-01
         -2   -1    0    0    0  501 -0.00000000000E+00  0.00000000000E+00  0.24691725920E+03  0.24691725921E+03  0.25500000000E-02 0.  1.
          2   -1    0    0  501    0  0.00000000000E+00 -0.00000000000E+00 -0.13523218220E+04  0.13523218220E+04  0.25500000000E-02 0. -1.
    8880023    1    1    2    0    0  0.29725804580E+03 -0.21469260172E+03 -0.65497439907E+03  0.99862752252E+03  0.65864270000E+03 0.  0.
    8880022    1    1    2    0    0 -0.29725804580E+03  0.21469260172E+03 -0.45043016373E+03  0.60061155870E+03  0.15294330000E+03 0.  1.
<mgrwt>
<rscale>  0 0.64229751E+03</rscale>
<asrwt>0</asrwt>
<pdfrwt beam="1">  1        2 0.20804951E+00 0.75383384E+03</pdfrwt>
<pdfrwt beam="2">  1       -2 0.37987271E-01 0.75383384E+03</pdfrwt>
<totfact> 0.10245240E+02</totfact>
</mgrwt>
</event>
<event>
 4    5  0.7289609E-008  0.1553597E+04  0.7818608E-02  0.8872688E-01
         -2   -1    0    0    0  501 -0.00000000000E+00  0.00000000000E+00  0.21003477289E+04  0.21003477289E+04  0.25500000000E-02 0.  1.
          2   -1    0    0  501    0  0.00000000000E+00 -0.00000000000E+00 -0.21959870617E+04  0.21959870617E+04  0.25500000000E-02 0. -1.
    8880023    1    1    2    0    0  0.72986581068E+03  0.12029748359E+04 -0.16004498824E+04  0.22304937995E+04  0.65864270000E+03 0.  0.
    8880022    1    1    2    0    0 -0.72986581068E+03 -0.12029748359E+04  0.15048105495E+04  0.20658409911E+04  0.15294330000E+03 0.  0.
<mgrwt>
<rscale>  0 0.15178207E+04</rscale>
<asrwt>0</asrwt>
<pdfrwt beam="1">  1        2 0.33784416E+00 0.15535967E+04</pdfrwt>
<pdfrwt beam="2">  1       -2 0.32313042E+00 0.15535967E+04</pdfrwt>
<totfact> 0.11077662E-01</totfact>
</mgrwt>
</event>
<event>
 4    5  0.7289609E-008  0.1392513E+04  0.7818608E-02  0.8989522E-01
         -2   -1    0    0    0  501 -0.00000000000E+00  0.00000000000E+00  0.73614609377E+03  0.73614609378E+03  0.25500000000E-02 0.  1.
          2   -1    0    0  501    0  0.00000000000E+00 -0.00000000000E+00 -0.42373828010E+04  0.42373828010E+04  0.25500000000E-02 0. -1.
    8880023    1    1    2    0    0  0.58947533553E+03  0.10760122292E+04 -0.14889255653E+03  0.14004508875E+04  0.65864270000E+03 0.  0.
    8880022    1    1    2    0    0 -0.58947533553E+03 -0.10760122292E+04 -0.33523441507E+04  0.35730780073E+04  0.15294330000E+03 0.  0.
<mgrwt>
<rscale>  0 0.13517269E+04</rscale>
<asrwt>0</asrwt>
<pdfrwt beam="1">  1        2 0.65190503E+00 0.13925134E+04</pdfrwt>
<pdfrwt beam="2">  1       -2 0.11325325E+00 0.13925134E+04</pdfrwt>
<totfact> 0.13034709E-01</totfact>
</mgrwt>
</event>
<event>
 4    5  0.7289609E-008  0.8518620E+03  0.7818608E-02  0.9608207E-01
         -2   -1    0    0    0  501 -0.00000000000E+00  0.00000000000E+00  0.55005643064E+03  0.55005643065E+03  0.25500000000E-02 0.  1.
          2   -1    0    0  501    0  0.00000000000E+00 -0.00000000000E+00 -0.21741740096E+04  0.21741740096E+04  0.25500000000E-02 0. -1.
    8880023    1    1    2    0    0 -0.62624078231E+02  0.53659753971E+03  0.14859503358E+03  0.86472503437E+03  0.65864270000E+03 0.  1.
    8880022    1    1    2    0    0  0.62624078231E+02 -0.53659753971E+03 -0.17727126126E+04  0.18595054059E+04  0.15294330000E+03 0.  0.
<mgrwt>
<rscale>  0 0.76755391E+03</rscale>
<asrwt>0</asrwt>
<pdfrwt beam="1">  1        2 0.33448830E+00 0.85186202E+03</pdfrwt>
<pdfrwt beam="2">  1       -2 0.84624067E-01 0.85186202E+03</pdfrwt>
<totfact> 0.66552630E+00</totfact>
</mgrwt>
</event>
<event>
 4    5  0.7289609E-008  0.1601203E+04  0.7818608E-02  0.8841293E-01
          2   -1    0    0  501    0  0.00000000000E+00  0.00000000000E+00  0.20789706522E+04  0.20789706522E+04  0.25500000000E-02 0. -1.
         -2   -1    0    0    0  501 -0.00000000000E+00 -0.00000000000E+00 -0.15558371853E+04  0.15558371853E+04  0.25500000000E-02 0.  1.
    8880023    1    1    2    0    0 -0.13956813198E+04 -0.42674728036E+03 -0.67763267662E+03  0.17386879646E+04  0.65864270000E+03 0.  0.
    8880022    1    1    2    0    0  0.13956813198E+04  0.42674728036E+03  0.12007661435E+04  0.18961198728E+04  0.15294330000E+03 0.  0.
<mgrwt>
<rscale>  0 0.15666648E+04</rscale>
<asrwt>0</asrwt>
<pdfrwt beam="1">  1        2 0.31984164E+00 0.16012026E+04</pdfrwt>
<pdfrwt beam="2">  1       -2 0.23935957E+00 0.16012026E+04</pdfrwt>
<totfact> 0.41863369E-01</totfact>
</mgrwt>
</event>
<event>
 4    5  0.7289609E-008  0.1375651E+04  0.7818608E-02  0.9002838E-01
         -2   -1    0    0    0  501 -0.00000000000E+00  0.00000000000E+00  0.94352264566E+03  0.94352264566E+03  0.25500000000E-02 0.  1.
          2   -1    0    0  501    0  0.00000000000E+00 -0.00000000000E+00 -0.25714024194E+04  0.25714024194E+04  0.25500000000E-02 0. -1.
    8880023    1    1    2    0    0  0.80056623188E+03  0.90426654820E+03 -0.18211315717E+04  0.22823090696E+04  0.65864270000E+03 0.  0.
    8880022    1    1    2    0    0 -0.80056623188E+03 -0.90426654820E+03  0.19325179789E+03  0.12326159954E+04  0.15294330000E+03 0.  0.
<mgrwt>
<rscale>  0 0.13342493E+04</rscale>
<asrwt>0</asrwt>
<pdfrwt beam="1">  1        2 0.39560037E+00 0.13756506E+04</pdfrwt>
<pdfrwt beam="2">  1       -2 0.14515733E+00 0.13756506E+04</pdfrwt>
<totfact> 0.99068519E-01</totfact>
</mgrwt>
</event>
<event>
 4    5  0.7289609E-008  0.1070113E+04  0.7818608E-02  0.9295085E-01
          2   -1    0    0  501    0  0.00000000000E+00  0.00000000000E+00  0.13949292533E+04  0.13949292534E+04  0.25500000000E-02 0. -1.
         -2   -1    0    0    0  501 -0.00000000000E+00 -0.00000000000E+00 -0.84883479394E+03  0.84883479395E+03  0.25500000000E-02 0.  1.
    8880023    1    1    2    0    0 -0.30329293742E+03 -0.78698429299E+03 -0.22190118669E+03  0.10928774983E+04  0.65864270000E+03 0.  0.
    8880022    1    1    2    0    0  0.30329293742E+03  0.78698429299E+03  0.76799564609E+03  0.11508865490E+04  0.15294330000E+03 0.  0.
<mgrwt>
<rscale>  0 0.10123660E+04</rscale>
<asrwt>0</asrwt>
<pdfrwt beam="1">  1        2 0.21460450E+00 0.10701127E+04</pdfrwt>
<pdfrwt beam="2">  1       -2 0.13058997E+00 0.10701127E+04</pdfrwt>
<totfact> 0.61654103E+00</totfact>
</mgrwt>
</event>
<event>
 4    5  0.7289609E-008  0.8111283E+03  0.7818608E-02  0.9687231E-01
         -2   -1    0    0    0  501 -0.00000000000E+00  0.00000000000E+00  0.23370322956E+03  0.23370322957E+03  0.25500000000E-02 0.  1.
          2   -1    0    0  501    0  0.00000000000E+00 -0.00000000000E+00 -0.35450297093E+04  0.35450297093E+04  0.25500000000E-02 0. -1.
    8880023    1    1    2    0    0  0.39165699399E+03 -0.26593938717E+03 -0.56695024619E+03  0.98962707446E+03  0.65864270000E+03 0.  1.
    8880022    1    1    2    0    0 -0.39165699399E+03  0.26593938717E+03 -0.27443762336E+04  0.27891058644E+04  0.15294330000E+03 0.  0.
<mgrwt>
<rscale>  0 0.71782141E+03</rscale>
<asrwt>0</asrwt>
<pdfrwt beam="1">  1        2 0.54538915E+00 0.81112833E+03</pdfrwt>
<pdfrwt beam="2">  1       -2 0.35954346E-01 0.81112833E+03</pdfrwt>
<totfact> 0.58915102E+00</totfact>
</mgrwt>
</event>
<event>
 4    5  0.7289609E-008  0.6923929E+03  0.7818608E-02  0.1003035E+00
          2   -1    0    0  501    0  0.00000000000E+00  0.00000000000E+00  0.10417606177E+04  0.10417606178E+04  0.25500000000E-02 0. -1.
         -2   -1    0    0    0  501 -0.00000000000E+00 -0.00000000000E+00 -0.38128242547E+03  0.38128242548E+03  0.25500000000E-02 0.  1.
    8880023    1    1    2    0    0 -0.19697653104E+03 -0.82450026108E+02 -0.20987558479E+02  0.69271093860E+03  0.65864270000E+03 0.  1.
    8880022    1    1    2    0    0  0.19697653104E+03  0.82450026108E+02  0.68146575075E+03  0.73033210463E+03  0.15294330000E+03 0.  0.
<mgrwt>
<rscale>  0 0.54339079E+03</rscale>
<asrwt>0</asrwt>
<pdfrwt beam="1">  1        2 0.16027086E+00 0.69239293E+03</pdfrwt>
<pdfrwt beam="2">  1       -2 0.58658835E-01 0.69239293E+03</pdfrwt>
<totfact> 0.65668196E+01</totfact>
</mgrwt>
</event>
<event>
 4    5  0.7852232E-008  0.1122959E+04  0.7818608E-02  0.9235915E-01
         -2   -1    0    0    0  501 -0.00000000000E+00  0.00000000000E+00  0.12372996104E+04  0.12372996104E+04  0.25500000000E-02 0.  1.
          2   -1    0    0  501    0  0.00000000000E+00 -0.00000000000E+00 -0.26008464654E+04  0.26008464654E+04  0.25500000000E-02 0. -1.
    8880023    1    1    2    0    0  0.33830265158E+03  0.84426183665E+03  0.87073543580E+03  0.14209916039E+04  0.65864270000E+03 0.  1.
    8880022    1    1    2    0    0 -0.33830265158E+03 -0.84426183665E+03 -0.22342822908E+04  0.24171544719E+04  0.15294330000E+03 0.  0.
<mgrwt>
<rscale>  0 0.10690297E+04</rscale>
<asrwt>0</asrwt>
<pdfrwt beam="1">  1        2 0.40013022E+00 0.11229590E+04</pdfrwt>
<pdfrwt beam="2">  1       -2 0.19035379E+00 0.11229590E+04</pdfrwt>
<totfact> 0.46310198E-01</totfact>
</mgrwt>
</event>
<event>
 4    5  0.7289609E-008  0.7591630E+03  0.7818608E-02  0.9807279E-01
         -2   -1    0    0    0  501 -0.00000000000E+00  0.00000000000E+00  0.60327887368E+03  0.60327887369E+03  0.25500000000E-02 0.  1.
          2   -1    0    0  501    0  0.00000000000E+00 -0.00000000000E+00 -0.56738762171E+03  0.56738762172E+03  0.25500000000E-02 0. -1.
    8880023    1    1    2    0    0  0.14340137922E+03  0.34921953010E+03  0.67280066904E+02  0.76213847130E+03  0.65864270000E+03 0.  0.
    8880022    1    1    2    0    0 -0.14340137922E+03 -0.34921953010E+03 -0.31388814936E+02  0.40852802411E+03  0.15294330000E+03 0. -1.
<mgrwt>
<rscale>  0 0.64973357E+03</rscale>
<asrwt>0</asrwt>
<pdfrwt beam="1">  1        2 0.87290403E-01 0.75916299E+03</pdfrwt>
<pdfrwt beam="2">  1       -2 0.92812134E-01 0.75916299E+03</pdfrwt>
<totfact> 0.52798023E+01</totfact>
</mgrwt>
</event>
<event>
 4    5  0.7289609E-008  0.9592451E+03  0.7818608E-02  0.9436935E-01
          2   -1    0    0  501    0  0.00000000000E+00  0.00000000000E+00  0.24601008581E+04  0.24601008581E+04  0.25500000000E-02 0. -1.
         -2   -1    0    0    0  501 -0.00000000000E+00 -0.00000000000E+00 -0.36641509182E+03  0.36641509183E+03  0.25500000000E-02 0.  1.
    8880023    1    1    2    0    0  0.31965154242E+03  0.61980951012E+03  0.50338582563E+03  0.10833044046E+04  0.65864270000E+03 0.  1.
    8880022    1    1    2    0    0 -0.31965154242E+03 -0.61980951012E+03  0.15902999407E+04  0.17432115453E+04  0.15294330000E+03 0.  0.
<mgrwt>
<rscale>  0 0.89097391E+03</rscale>
<asrwt>0</asrwt>
<pdfrwt beam="1">  1        2 0.37847707E+00 0.95924509E+03</pdfrwt>
<pdfrwt beam="2">  1       -2 0.56371551E-01 0.95924509E+03</pdfrwt>
<totfact> 0.11018503E+01</totfact>
</mgrwt>
</event>
<event>
 4    5  0.7289609E-008  0.6824563E+03  0.7818608E-02  0.1007967E+00
          2   -1    0    0  501    0  0.00000000000E+00  0.00000000000E+00  0.21138323813E+04  0.21138323813E+04  0.25500000000E-02 0. -1.
         -2   -1    0    0    0  501 -0.00000000000E+00 -0.00000000000E+00 -0.11027884840E+03  0.11027884843E+03  0.25500000000E-02 0.  1.
    8880023    1    1    2    0    0 -0.13179251239E+03 -0.12069440911E+03  0.11359752354E+04  0.13252118127E+04  0.65864270000E+03 0.  1.
    8880022    1    1    2    0    0  0.13179251239E+03  0.12069440911E+03  0.86757829742E+03  0.89889941700E+03  0.15294330000E+03 0.  0.
<mgrwt>
<rscale>  0 0.52290684E+03</rscale>
<asrwt>0</asrwt>
<pdfrwt beam="1">  1        2 0.32520499E+00 0.68245631E+03</pdfrwt>
<pdfrwt beam="2">  1       -2 0.16965976E-01 0.68245631E+03</pdfrwt>
<totfact> 0.16948605E+02</totfact>
</mgrwt>
</event>
<event>
 4    5  0.7289609E-008  0.8790122E+03  0.7818608E-02  0.9560600E-01
          2   -1    0    0  501    0  0.00000000000E+00  0.00000000000E+00  0.47901345040E+04  0.47901345040E+04  0.25500000000E-02 0. -1.
         -2   -1    0    0    0  501 -0.00000000000E+00 -0.00000000000E+00 -0.22497970567E+03  0.22497970569E+03  0.25500000000E-02 0.  1.
    8880023    1    1    2    0    0  0.56400297484E+03 -0.14405870208E+03  0.75806560686E+03  0.11607436995E+04  0.65864270000E+03 0.  1.
    8880022    1    1    2    0    0 -0.56400297484E+03  0.14405870208E+03  0.38070891915E+04  0.38543705103E+04  0.15294330000E+03 0.  0.
<mgrwt>
<rscale>  0 0.79959730E+03</rscale>
<asrwt>0</asrwt>
<pdfrwt beam="1">  1        2 0.73694379E+00 0.87901221E+03</pdfrwt>
<pdfrwt beam="2">  1       -2 0.34612262E-01 0.87901221E+03</pdfrwt>
<totfact> 0.53590788E-01</totfact>
</mgrwt>
</event>
<event>
 4    5  0.7289609E-008  0.6610786E+03  0.7818608E-02  0.1023078E+00
          2   -1    0    0  501    0  0.00000000000E+00  0.00000000000E+00  0.28906843194E+03  0.28906843195E+03  0.25500000000E-02 0. -1.
         -2   -1    0    0    0  501 -0.00000000000E+00 -0.00000000000E+00 -0.11323790655E+04  0.11323790655E+04  0.25500000000E-02 0.  1.
    8880023    1    1    2    0    0  0.55766759848E+02  0.10236157521E+02 -0.99770775100E+03  0.11968482247E+04  0.65864270000E+03 0.  1.
    8880022    1    1    2    0    0 -0.55766759848E+02 -0.10236157521E+02  0.15439711742E+03  0.22459927272E+03  0.15294330000E+03 0.  0.
<mgrwt>
<rscale>  0 0.46592178E+03</rscale>
<asrwt>0</asrwt>
<pdfrwt beam="1">  1        2 0.44472067E-01 0.66107860E+03</pdfrwt>
<pdfrwt beam="2">  1       -2 0.17421216E+00 0.66107860E+03</pdfrwt>
<totfact> 0.23257610E+01</totfact>
</mgrwt>
</event>
<event>
 4    5  0.7289609E-008  0.6593028E+03  0.7818608E-02  0.1024882E+00
          2   -1    0    0  501    0  0.00000000000E+00  0.00000000000E+00  0.21626396572E+04  0.21626396572E+04  0.25500000000E-02 0. -1.
         -2   -1    0    0    0  501 -0.00000000000E+00 -0.00000000000E+00 -0.62397401624E+03  0.62397401624E+03  0.25500000000E-02 0.  1.
    8880023    1    1    2    0    0  0.25282152929E+02 -0.15193660908E+02 -0.44590851655E+03  0.79593633287E+03  0.65864270000E+03 0.  1.
    8880022    1    1    2    0    0 -0.25282152929E+02  0.15193660908E+02  0.19845741575E+04  0.19906773406E+04  0.15294330000E+03 0.  0.
<mgrwt>
<rscale>  0 0.45965167E+03</rscale>
<asrwt>0</asrwt>
<pdfrwt beam="1">  1        2 0.33271379E+00 0.65930284E+03</pdfrwt>
<pdfrwt beam="2">  1       -2 0.95996003E-01 0.65930284E+03</pdfrwt>
<totfact> 0.52126831E+00</totfact>
</mgrwt>
</event>
<event>
 4    5  0.7289609E-008  0.8015087E+03  0.7818608E-02  0.9707543E-01
          2   -1    0    0  501    0  0.00000000000E+00  0.00000000000E+00  0.49015794598E+03  0.49015794599E+03  0.25500000000E-02 0. -1.
         -2   -1    0    0    0  501 -0.00000000000E+00 -0.00000000000E+00 -0.12070926884E+04  0.12070926884E+04  0.25500000000E-02 0.  1.
    8880023    1    1    2    0    0 -0.16627986134E+03  0.42539032233E+03 -0.87852081075E+03  0.11892076941E+04  0.65864270000E+03 0.  1.
    8880022    1    1    2    0    0  0.16627986134E+03 -0.42539032233E+03  0.16158606835E+03  0.50804294023E+03  0.15294330000E+03 0.  0.
<mgrwt>
<rscale>  0 0.70569427E+03</rscale>
<asrwt>0</asrwt>
<pdfrwt beam="1">  1        2 0.75408915E-01 0.80150866E+03</pdfrwt>
<pdfrwt beam="2">  1       -2 0.18570657E+00 0.80150866E+03</pdfrwt>
<totfact> 0.10568391E+01</totfact>
</mgrwt>
</event>
<event>
 4    5  0.7289609E-008  0.7246754E+03  0.7818608E-02  0.9907072E-01
          2   -1    0    0  501    0  0.00000000000E+00  0.00000000000E+00  0.71514892451E+03  0.71514892451E+03  0.25500000000E-02 0. -1.
         -2   -1    0    0    0  501 -0.00000000000E+00 -0.00000000000E+00 -0.92667079112E+03  0.92667079113E+03  0.25500000000E-02 0.  1.
    8880023    1    1    2    0    0 -0.10473595086E+03  0.28350418526E+03 -0.72604091475E+03  0.10258118047E+04  0.65864270000E+03 0.  1.
    8880022    1    1    2    0    0  0.10473595086E+03 -0.28350418526E+03  0.51451904813E+03  0.61600791096E+03  0.15294330000E+03 0.  0.
<mgrwt>
<rscale>  0 0.59919759E+03</rscale>
<asrwt>0</asrwt>
<pdfrwt beam="1">  1        2 0.11002291E+00 0.72467541E+03</pdfrwt>
<pdfrwt beam="2">  1       -2 0.14256474E+00 0.72467541E+03</pdfrwt>
<totfact> 0.13897975E+01</totfact>
</mgrwt>
</event>
<event>
 4    5  0.7289609E-008  0.6987360E+03  0.7818608E-02  0.1000249E+00
          2   -1    0    0  501    0  0.00000000000E+00  0.00000000000E+00  0.53160877085E+03  0.53160877085E+03  0.25500000000E-02 0. -1.
         -2   -1    0    0    0  501 -0.00000000000E+00 -0.00000000000E+00 -0.62956708396E+03  0.62956708396E+03  0.25500000000E-02 0.  1.
    8880023    1    1    2    0    0  0.10513422146E+01  0.23328253432E+03 -0.35332525404E+03  0.78298837000E+03  0.65864270000E+03 0.  0.
    8880022    1    1    2    0    0 -0.10513422146E+01 -0.23328253432E+03  0.25536694093E+03  0.37818748482E+03  0.15294330000E+03 0.  0.
<mgrwt>
<rscale>  0 0.55541388E+03</rscale>
<asrwt>0</asrwt>
<pdfrwt beam="1">  1        2 0.81785965E-01 0.69873604E+03</pdfrwt>
<pdfrwt beam="2">  1       -2 0.96856474E-01 0.69873604E+03</pdfrwt>
<totfact> 0.51835736E+01</totfact>
</mgrwt>
</event>
<event>
 4    5  0.7289609E-008  0.1294036E+04  0.7818608E-02  0.9070727E-01
          2   -1    0    0  501    0  0.00000000000E+00  0.00000000000E+00  0.27441017769E+04  0.27441017769E+04  0.25500000000E-02 0. -1.
         -2   -1    0    0    0  501 -0.00000000000E+00 -0.00000000000E+00 -0.90615432531E+03  0.90615432531E+03  0.25500000000E-02 0.  1.
    8880023    1    1    2    0    0 -0.64264473589E+03 -0.90979550097E+03 -0.21290125297E+03  0.13114332846E+04  0.65864270000E+03 0.  0.
    8880022    1    1    2    0    0  0.64264473589E+03  0.90979550097E+03  0.20508487045E+04  0.23388228176E+04  0.15294330000E+03 0.  0.
<mgrwt>
<rscale>  0 0.12493470E+04</rscale>
<asrwt>0</asrwt>
<pdfrwt beam="1">  1        2 0.42216951E+00 0.12940364E+04</pdfrwt>
<pdfrwt beam="2">  1       -2 0.13940836E+00 0.12940364E+04</pdfrwt>
<totfact> 0.88027563E-01</totfact>
</mgrwt>
</event>
<event>
 4    5  0.7289609E-008  0.7035655E+03  0.7818608E-02  0.9982720E-01
          2   -1    0    0  501    0  0.00000000000E+00  0.00000000000E+00  0.19416758336E+04  0.19416758336E+04  0.25500000000E-02 0. -1.
         -2   -1    0    0    0  501 -0.00000000000E+00 -0.00000000000E+00 -0.27408678171E+03  0.27408678172E+03  0.25500000000E-02 0.  1.
    8880023    1    1    2    0    0 -0.82637197769E+02  0.23316363789E+03  0.21694865161E+03  0.73625478755E+03  0.65864270000E+03 0.  1.
    8880022    1    1    2    0    0  0.82637197769E+02 -0.23316363789E+03  0.14506404002E+04  0.14795078277E+04  0.15294330000E+03 0.  0.
<mgrwt>
<rscale>  0 0.56414482E+03</rscale>
<asrwt>0</asrwt>
<pdfrwt beam="1">  1        2 0.29871936E+00 0.70356549E+03</pdfrwt>
<pdfrwt beam="2">  1       -2 0.42167198E-01 0.70356549E+03</pdfrwt>
<totfact> 0.39764107E+01</totfact>
</mgrwt>
</event>
<event>
 4    5  0.7289609E-008  0.1656112E+04  0.7818608E-02  0.8806606E-01
          2   -1    0    0  501    0  0.00000000000E+00  0.00000000000E+00  0.35293572449E+04  0.35293572449E+04  0.25500000000E-02 0. -1.
         -2   -1    0    0    0  501 -0.00000000000E+00 -0.00000000000E+00 -0.11407383304E+04  0.11407383304E+04  0.25500000000E-02 0.  1.
    8880023    1    1    2    0    0  0.87188705786E+03 -0.12444710331E+04 -0.19634391949E+03  0.16677099073E+04  0.65864270000E+03 0.  1.
    8880022    1    1    2    0    0 -0.87188705786E+03  0.12444710331E+04  0.25849628339E+04  0.30023856680E+04  0.15294330000E+03 0.  0.
<mgrwt>
<rscale>  0 0.16228932E+04</rscale>
<asrwt>0</asrwt>
<pdfrwt beam="1">  1        2 0.54297804E+00 0.16561115E+04</pdfrwt>
<pdfrwt beam="2">  1       -2 0.17549820E+00 0.16561115E+04</pdfrwt>
<totfact> 0.14081920E-01</totfact>
</mgrwt>
</event>
<event>
 4    5  0.7289609E-008  0.1062767E+04  0.7818608E-02  0.9303689E-01
          2   -1    0    0  501    0  0.00000000000E+00  0.00000000000E+00  0.98049230273E+03  0.98049230274E+03  0.25500000000E-02 0. -1.
         -2   -1    0    0    0  501 -0.00000000000E+00 -0.00000000000E+00 -0.16058855151E+04  0.16058855151E+04  0.25500000000E-02 0.  1.
    8880023    1    1    2    0    0  0.36926389859E+02 -0.83324658708E+03 -0.11684044119E+04  0.15794437341E+04  0.65864270000E+03 0. -1.
    8880022    1    1    2    0    0 -0.36926389859E+02  0.83324658708E+03  0.54301119955E+03  0.10069340837E+04  0.15294330000E+03 0.  0.
<mgrwt>
<rscale>  0 0.10044396E+04</rscale>
<asrwt>0</asrwt>
<pdfrwt beam="1">  1        2 0.15084497E+00 0.10627670E+04</pdfrwt>
<pdfrwt beam="2">  1       -2 0.24705931E+00 0.10627670E+04</pdfrwt>
<totfact> 0.17181761E+00</totfact>
</mgrwt>
</event>
<event>
 4    5  0.7289609E-008  0.9157554E+03  0.7818608E-02  0.9501198E-01
         -2   -1    0    0    0  501 -0.00000000000E+00  0.00000000000E+00  0.67050624475E+03  0.67050624476E+03  0.25500000000E-02 0.  1.
          2   -1    0    0  501    0  0.00000000000E+00 -0.00000000000E+00 -0.17397271915E+04  0.17397271915E+04  0.25500000000E-02 0. -1.
    8880023    1    1    2    0    0 -0.61983104685E+03  0.14355202046E+03  0.23992031910E+03  0.94666238702E+03  0.65864270000E+03 0.  1.
    8880022    1    1    2    0    0  0.61983104685E+03 -0.14355202046E+03 -0.13091412658E+04  0.14635710492E+04  0.15294330000E+03 0.  0.
<mgrwt>
<rscale>  0 0.84195541E+03</rscale>
<asrwt>0</asrwt>
<pdfrwt beam="1">  1        2 0.26765033E+00 0.91575538E+03</pdfrwt>
<pdfrwt beam="2">  1       -2 0.10315481E+00 0.91575538E+03</pdfrwt>
<totfact> 0.71991259E+00</totfact>
</mgrwt>
</event>
<event>
 4    5  0.7289609E-008  0.1433600E+04  0.7818608E-02  0.8958005E-01
          2   -1    0    0  501    0  0.00000000000E+00  0.00000000000E+00  0.24488450021E+04  0.24488450021E+04  0.25500000000E-02 0. -1.
         -2   -1    0    0    0  501 -0.00000000000E+00 -0.00000000000E+00 -0.86141490365E+03  0.86141490366E+03  0.25500000000E-02 0.  1.
    8880023    1    1    2    0    0 -0.24145095922E+03  0.12502396187E+04  0.24627996646E+03  0.14546001849E+04  0.65864270000E+03 0.  0.
    8880022    1    1    2    0    0  0.24145095922E+03 -0.12502396187E+04  0.13411501320E+04  0.18556597208E+04  0.15294330000E+03 0.  0.
<mgrwt>
<rscale>  0 0.13942309E+04</rscale>
<asrwt>0</asrwt>
<pdfrwt beam="1">  1        2 0.37674538E+00 0.14335996E+04</pdfrwt>
<pdfrwt beam="2">  1       -2 0.13252537E+00 0.14335996E+04</pdfrwt>
<totfact> 0.14698498E+00</totfact>
</mgrwt>
</event>
<event>
 4    5  0.7289609E-008  0.1227417E+04  0.7818608E-02  0.9130922E-01
          2   -1    0    0  501    0  0.00000000000E+00  0.00000000000E+00  0.18582589540E+04  0.18582589540E+04  0.25500000000E-02 0. -1.
         -2   -1    0    0    0  501 -0.00000000000E+00 -0.00000000000E+00 -0.82459650796E+03  0.82459650796E+03  0.25500000000E-02 0.  1.
    8880023    1    1    2    0    0 -0.51846912174E+03  0.89662197859E+03  0.22947230978E+02  0.12276310457E+04  0.65864270000E+03 0.  0.
    8880022    1    1    2    0    0  0.51846912174E+03 -0.89662197859E+03  0.10107152150E+04  0.14552244162E+04  0.15294330000E+03 0.  0.
<mgrwt>
<rscale>  0 0.11795786E+04</rscale>
<asrwt>0</asrwt>
<pdfrwt beam="1">  1        2 0.28588599E+00 0.12274166E+04</pdfrwt>
<pdfrwt beam="2">  1       -2 0.12686100E+00 0.12274166E+04</pdfrwt>
<totfact> 0.35971122E+00</totfact>
</mgrwt>
</event>
<event>
 4    5  0.7289609E-008  0.1121616E+04  0.7818608E-02  0.9237362E-01
          2   -1    0    0  501    0  0.00000000000E+00  0.00000000000E+00  0.13966052899E+04  0.13966052899E+04  0.25500000000E-02 0. -1.
         -2   -1    0    0    0  501 -0.00000000000E+00 -0.00000000000E+00 -0.10670400860E+04  0.10670400860E+04  0.25500000000E-02 0.  1.
    8880023    1    1    2    0    0 -0.85614093240E+03 -0.30205187141E+03  0.84887146558E+03  0.14066291624E+04  0.65864270000E+03 0.  1.
    8880022    1    1    2    0    0  0.85614093240E+03  0.30205187141E+03 -0.51930626175E+03  0.10570162135E+04  0.15294330000E+03 0.  0.
<mgrwt>
<rscale>  0 0.10675970E+04</rscale>
<asrwt>0</asrwt>
<pdfrwt beam="1">  1        2 0.21486235E+00 0.11216162E+04</pdfrwt>
<pdfrwt beam="2">  1       -2 0.16416001E+00 0.11216162E+04</pdfrwt>
<totfact> 0.33407878E+00</totfact>
</mgrwt>
</event>
<event>
 4    5  0.7289609E-008  0.1021093E+04  0.7818608E-02  0.9354467E-01
          2   -1    0    0  501    0  0.00000000000E+00  0.00000000000E+00  0.27455575053E+04  0.27455575053E+04  0.25500000000E-02 0. -1.
         -2   -1    0    0    0  501 -0.00000000000E+00 -0.00000000000E+00 -0.13037741546E+04  0.13037741546E+04  0.25500000000E-02 0.  1.
    8880023    1    1    2    0    0 -0.41750088654E+03 -0.65917723277E+03 -0.10314761475E+04  0.14514044452E+04  0.65864270000E+03 0.  1.
    8880022    1    1    2    0    0  0.41750088654E+03  0.65917723277E+03  0.24732594982E+04  0.25979272147E+04  0.15294330000E+03 0.  0.
<mgrwt>
<rscale>  0 0.95919535E+03</rscale>
<asrwt>0</asrwt>
<pdfrwt beam="1">  1        2 0.42239347E+00 0.10210934E+04</pdfrwt>
<pdfrwt beam="2">  1       -2 0.20058064E+00 0.10210934E+04</pdfrwt>
<totfact> 0.33139479E-01</totfact>
</mgrwt>
</event>
<event>
 4    5  0.7289609E-008  0.1331899E+04  0.7818608E-02  0.9038491E-01
         -2   -1    0    0    0  501 -0.00000000000E+00  0.00000000000E+00  0.79510045565E+03  0.79510045566E+03  0.25500000000E-02 0.  1.
          2   -1    0    0  501    0  0.00000000000E+00 -0.00000000000E+00 -0.35073314290E+04  0.35073314290E+04  0.25500000000E-02 0. -1.
    8880023    1    1    2    0    0 -0.10141664717E+04  0.55822132626E+03 -0.28310411078E+04  0.31286975951E+04  0.65864270000E+03 0.  0.
    8880022    1    1    2    0    0  0.10141664717E+04 -0.55822132626E+03  0.11881013444E+03  0.11737342896E+04  0.15294330000E+03 0.  0.
<mgrwt>
<rscale>  0 0.12888038E+04</rscale>
<asrwt>0</asrwt>
<pdfrwt beam="1">  1        2 0.53958944E+00 0.13318990E+04</pdfrwt>
<pdfrwt beam="2">  1       -2 0.12232315E+00 0.13318990E+04</pdfrwt>
<totfact> 0.39805369E-01</totfact>
</mgrwt>
</event>
<event>
 4    5  0.7289609E-008  0.7867409E+03  0.7818608E-02  0.9740234E-01
          2   -1    0    0  501    0  0.00000000000E+00  0.00000000000E+00  0.22535118979E+04  0.22535118979E+04  0.25500000000E-02 0. -1.
         -2   -1    0    0    0  501 -0.00000000000E+00 -0.00000000000E+00 -0.55755462307E+03  0.55755462307E+03  0.25500000000E-02 0.  1.
    8880023    1    1    2    0    0  0.43029158016E+03  0.39201897105E+00 -0.23956086627E+03  0.82240538212E+03  0.65864270000E+03 0.  1.
    8880022    1    1    2    0    0 -0.43029158016E+03 -0.39201897105E+00  0.19355181411E+04  0.19886611389E+04  0.15294330000E+03 0.  0.
<mgrwt>
<rscale>  0 0.68670964E+03</rscale>
<asrwt>0</asrwt>
<pdfrwt beam="1">  1        2 0.34669413E+00 0.78674087E+03</pdfrwt>
<pdfrwt beam="2">  1       -2 0.85777635E-01 0.78674087E+03</pdfrwt>
<totfact> 0.58908192E+00</totfact>
</mgrwt>
</event>
<event>
 4    5  0.7455455E-008  0.9732301E+03  0.7818608E-02  0.9417451E-01
         -2   -1    0    0    0  501 -0.00000000000E+00  0.00000000000E+00  0.91967220134E+03  0.91967220134E+03  0.25500000000E-02 0.  1.
          2   -1    0    0  501    0  0.00000000000E+00 -0.00000000000E+00 -0.28276559187E+04  0.28276559187E+04  0.25500000000E-02 0. -1.
    8880023    1    1    2    0    0  0.46843081360E+03 -0.54216155130E+03  0.59406932075E+03  0.11402171455E+04  0.65864270000E+03 0.  0.
    8880022    1    1    2    0    0 -0.46843081360E+03  0.54216155130E+03 -0.25020530381E+04  0.26071109745E+04  0.15294330000E+03 0.  0.
<mgrwt>
<rscale>  0 0.90653376E+03</rscale>
<asrwt>0</asrwt>
<pdfrwt beam="1">  1        2 0.43502398E+00 0.97323008E+03</pdfrwt>
<pdfrwt beam="2">  1       -2 0.14148803E+00 0.97323008E+03</pdfrwt>
<totfact> 0.79092269E-01</totfact>
</mgrwt>
</event>
<event>
 4    5  0.7289609E-008  0.8665218E+03  0.7818608E-02  0.9582066E-01
         -2   -1    0    0    0  501 -0.00000000000E+00  0.00000000000E+00  0.58858507012E+03  0.58858507013E+03  0.25500000000E-02 0.  1.
          2   -1    0    0  501    0  0.00000000000E+00 -0.00000000000E+00 -0.22484548663E+04  0.22484548663E+04  0.25500000000E-02 0. -1.
    8880023    1    1    2    0    0  0.53786481897E+03 -0.16658710884E+03  0.19871983712E+03  0.88901608998E+03  0.65864270000E+03 0.  0.
    8880022    1    1    2    0    0 -0.53786481897E+03  0.16658710884E+03 -0.18585896333E+04  0.19480238464E+04  0.15294330000E+03 0. -1.
<mgrwt>
<rscale>  0 0.78494627E+03</rscale>
<asrwt>0</asrwt>
<pdfrwt beam="1">  1        2 0.34591613E+00 0.86652180E+03</pdfrwt>
<pdfrwt beam="2">  1       -2 0.90551550E-01 0.86652180E+03</pdfrwt>
<totfact> 0.51704530E+00</totfact>
</mgrwt>
</event>
<event>
 4    5  0.7289609E-008  0.1010580E+04  0.7818608E-02  0.9367845E-01
          2   -1    0    0  501    0  0.00000000000E+00  0.00000000000E+00  0.13239130820E+04  0.13239130820E+04  0.25500000000E-02 0. -1.
         -2   -1    0    0    0  501 -0.00000000000E+00 -0.00000000000E+00 -0.78733716238E+03  0.78733716238E+03  0.25500000000E-02 0.  1.
    8880023    1    1    2    0    0  0.49593627419E+03  0.58438799786E+03  0.79741636547E+03  0.12873015134E+04  0.65864270000E+03 0. -1.
    8880022    1    1    2    0    0 -0.49593627419E+03 -0.58438799786E+03 -0.26084044587E+03  0.82394873100E+03  0.15294330000E+03 0.  0.
<mgrwt>
<rscale>  0 0.94769861E+03</rscale>
<asrwt>0</asrwt>
<pdfrwt beam="1">  1        2 0.20367893E+00 0.10105802E+04</pdfrwt>
<pdfrwt beam="2">  1       -2 0.12112879E+00 0.10105802E+04</pdfrwt>
<totfact> 0.82384220E+00</totfact>
</mgrwt>
</event>
<event>
 4    5  0.7289609E-008  0.6909958E+03  0.7818608E-02  0.1003683E+00
          2   -1    0    0  501    0  0.00000000000E+00  0.00000000000E+00  0.35861038549E+04  0.35861038549E+04  0.25500000000E-02 0. -1.
         -2   -1    0    0    0  501 -0.00000000000E+00 -0.00000000000E+00 -0.17413117411E+03  0.17413117413E+03  0.25500000000E-02 0.  1.
    8880023    1    1    2    0    0  0.10021652369E+02  0.20872125305E+03  0.54094155303E+03  0.87754940889E+03  0.65864270000E+03 0.  1.
    8880022    1    1    2    0    0 -0.10021652369E+02 -0.20872125305E+03  0.28710311278E+04  0.28826856202E+04  0.15294330000E+03 0.  0.
<mgrwt>
<rscale>  0 0.54064450E+03</rscale>
<asrwt>0</asrwt>
<pdfrwt beam="1">  1        2 0.55170830E+00 0.69099580E+03</pdfrwt>
<pdfrwt beam="2">  1       -2 0.26789411E-01 0.69099580E+03</pdfrwt>
<totfact> 0.97878372E+00</totfact>
</mgrwt>
</event>
<event>
 4    5  0.8592191E-008  0.9992330E+03  0.7818608E-02  0.9382562E-01
          2   -1    0    0  501    0  0.00000000000E+00  0.00000000000E+00  0.21699212708E+04  0.21699212708E+04  0.25500000000E-02 0. -1.
         -2   -1    0    0    0  501 -0.00000000000E+00 -0.00000000000E+00 -0.15188201605E+04  0.15188201605E+04  0.25500000000E-02 0.  1.
    8880023    1    1    2    0    0 -0.72681941006E+03  0.19076121705E+03 -0.12724913382E+04  0.16179309963E+04  0.65864270000E+03 0.  1.
    8880022    1    1    2    0    0  0.72681941006E+03 -0.19076121705E+03  0.19235924485E+04  0.20708104350E+04  0.15294330000E+03 0.  0.
<mgrwt>
<rscale>  0 0.93524771E+03</rscale>
<asrwt>0</asrwt>
<pdfrwt beam="1">  1        2 0.33383404E+00 0.99923296E+03</pdfrwt>
<pdfrwt beam="2">  1       -2 0.23366464E+00 0.99923296E+03</pdfrwt>
<totfact> 0.43718398E-01</totfact>
</mgrwt>
</event>
<event>
 4    5  0.7289609E-008  0.1239664E+04  0.7818608E-02  0.9119498E-01
          2   -1    0    0  501    0  0.00000000000E+00  0.00000000000E+00  0.19262531053E+04  0.19262531053E+04  0.25500000000E-02 0. -1.
         -2   -1    0    0    0  501 -0.00000000000E+00 -0.00000000000E+00 -0.12445736506E+04  0.12445736506E+04  0.25500000000E-02 0.  1.
    8880023    1    1    2    0    0  0.67421779312E+03  0.80522462503E+03 -0.70384496199E+03  0.14255399911E+04  0.65864270000E+03 0.  0.
    8880022    1    1    2    0    0 -0.67421779312E+03 -0.80522462503E+03  0.13855244167E+04  0.17452867649E+04  0.15294330000E+03 0.  0.
<mgrwt>
<rscale>  0 0.11924414E+04</rscale>
<asrwt>0</asrwt>
<pdfrwt beam="1">  1        2 0.29634663E+00 0.12396639E+04</pdfrwt>
<pdfrwt beam="2">  1       -2 0.19147287E+00 0.12396639E+04</pdfrwt>
<totfact> 0.10752182E+00</totfact>
</mgrwt>
</event>
<event>
 4    5  0.7289609E-008  0.7692141E+03  0.7818608E-02  0.9781812E-01
         -2   -1    0    0    0  501 -0.00000000000E+00  0.00000000000E+00  0.13674133939E+03  0.13674133941E+03  0.25500000000E-02 0.  1.
          2   -1    0    0  501    0  0.00000000000E+00 -0.00000000000E+00 -0.27970968059E+04  0.27970968059E+04  0.25500000000E-02 0. -1.
    8880023    1    1    2    0    0  0.25304369710E+02 -0.39653480498E+03 -0.13232287591E+04  0.15305635295E+04  0.65864270000E+03 0. -1.
    8880022    1    1    2    0    0 -0.25304369710E+02  0.39653480498E+03 -0.13371267075E+04  0.14032746159E+04  0.15294330000E+03 0.  1.
<mgrwt>
<rscale>  0 0.66347830E+03</rscale>
<asrwt>0</asrwt>
<pdfrwt beam="1">  1        2 0.43032254E+00 0.76921412E+03</pdfrwt>
<pdfrwt beam="2">  1       -2 0.21037131E-01 0.76921412E+03</pdfrwt>
<totfact> 0.47428413E+01</totfact>
</mgrwt>
</event>
<event>
 4    5  0.7640451E-008  0.1101968E+04  0.7818608E-02  0.9258868E-01
          2   -1    0    0  501    0  0.00000000000E+00  0.00000000000E+00  0.21099939958E+04  0.21099939958E+04  0.25500000000E-02 0. -1.
         -2   -1    0    0    0  501 -0.00000000000E+00 -0.00000000000E+00 -0.19021244288E+04  0.19021244288E+04  0.25500000000E-02 0.  1.
    8880023    1    1    2    0    0 -0.88345897696E+03 -0.48501664133E+01 -0.16298019079E+04  0.19673809376E+04  0.65864270000E+03 0.  0.
    8880022    1    1    2    0    0  0.88345897696E+03  0.48501664133E+01  0.18376714749E+04  0.20447374870E+04  0.15294330000E+03 0.  0.
<mgrwt>
<rscale>  0 0.10465934E+04</rscale>
<asrwt>0</asrwt>
<pdfrwt beam="1">  1        2 0.32461446E+00 0.11019680E+04</pdfrwt>
<pdfrwt beam="2">  1       -2 0.29263453E+00 0.11019680E+04</pdfrwt>
<totfact> 0.20300869E-01</totfact>
</mgrwt>
</event>
<event>
 4    5  0.7289609E-008  0.1046570E+04  0.7818608E-02  0.9323016E-01
          2   -1    0    0  501    0  0.00000000000E+00  0.00000000000E+00  0.16844609344E+04  0.16844609344E+04  0.25500000000E-02 0. -1.
         -2   -1    0    0    0  501 -0.00000000000E+00 -0.00000000000E+00 -0.15508718638E+04  0.15508718638E+04  0.25500000000E-02 0.  1.
    8880023    1    1    2    0    0 -0.53667758064E+03 -0.61112652500E+03 -0.12455960415E+04  0.16269044717E+04  0.65864270000E+03 0.  1.
    8880022    1    1    2    0    0  0.53667758064E+03  0.61112652500E+03  0.13791851121E+04  0.16084283266E+04  0.15294330000E+03 0.  0.
<mgrwt>
<rscale>  0 0.98691286E+03</rscale>
<asrwt>0</asrwt>
<pdfrwt beam="1">  1        2 0.25914784E+00 0.10465700E+04</pdfrwt>
<pdfrwt beam="2">  1       -2 0.23859567E+00 0.10465700E+04</pdfrwt>
<totfact> 0.74959858E-01</totfact>
</mgrwt>
</event>
<event>
 4    5  0.7289609E-008  0.8064714E+03  0.7818608E-02  0.9696974E-01
         -2   -1    0    0    0  501 -0.00000000000E+00  0.00000000000E+00  0.67899283977E+03  0.67899283978E+03  0.25500000000E-02 0.  1.
          2   -1    0    0  501    0  0.00000000000E+00 -0.00000000000E+00 -0.63760235750E+03  0.63760235750E+03  0.25500000000E-02 0. -1.
    8880023    1    1    2    0    0 -0.17669009065E+03  0.43054213381E+03  0.13546367353E+03  0.81776924021E+03  0.65864270000E+03 0.  1.
    8880022    1    1    2    0    0  0.17669009065E+03 -0.43054213381E+03 -0.94073191250E+02  0.49882595707E+03  0.15294330000E+03 0. -1.
<mgrwt>
<rscale>  0 0.71197224E+03</rscale>
<asrwt>0</asrwt>
<pdfrwt beam="1">  1        2 0.98092671E-01 0.80647140E+03</pdfrwt>
<pdfrwt beam="2">  1       -2 0.10446044E+00 0.80647140E+03</pdfrwt>
<totfact> 0.34558882E+01</totfact>
</mgrwt>
</event>
<event>
 4    5  0.7289609E-008  0.9457396E+03  0.7818608E-02  0.9456271E-01
          2   -1    0    0  501    0  0.00000000000E+00  0.00000000000E+00  0.98406243202E+03  0.98406243202E+03  0.25500000000E-02 0. -1.
         -2   -1    0    0    0  501 -0.00000000000E+00 -0.00000000000E+00 -0.85389719825E+03  0.85389719826E+03  0.25500000000E-02 0.  1.
    8880023    1    1    2    0    0  0.63729482393E+03  0.23338484902E+03 -0.33246689476E+03  0.10024757467E+04  0.65864270000E+03 0.  0.
    8880022    1    1    2    0    0 -0.63729482393E+03 -0.23338484902E+03  0.46263212852E+03  0.83548388357E+03  0.15294330000E+03 0.  0.
<mgrwt>
<rscale>  0 0.87586040E+03</rscale>
<asrwt>0</asrwt>
<pdfrwt beam="1">  1        2 0.15139422E+00 0.94573960E+03</pdfrwt>
<pdfrwt beam="2">  1       -2 0.13136880E+00 0.94573960E+03</pdfrwt>
<totfact> 0.10873288E+01</totfact>
</mgrwt>
</event>
<event>
 4    5  0.7289609E-008  0.1019469E+04  0.7818608E-02  0.9356518E-01
         -2   -1    0    0    0  501 -0.00000000000E+00  0.00000000000E+00  0.93824895537E+03  0.93824895538E+03  0.25500000000E-02 0.  1.
          2   -1    0    0  501    0  0.00000000000E+00 -0.00000000000E+00 -0.10976925472E+04  0.10976925472E+04  0.25500000000E-02 0. -1.
    8880023    1    1    2    0    0 -0.74571656996E+03 -0.22229121195E+03  0.36763222596E+03  0.10837297843E+04  0.65864270000E+03 0.  0.
    8880022    1    1    2    0    0  0.74571656996E+03  0.22229121195E+03 -0.52707581776E+03  0.95221171822E+03  0.15294330000E+03 0.  0.
<mgrwt>
<rscale>  0 0.95742117E+03</rscale>
<asrwt>0</asrwt>
<pdfrwt beam="1">  1        2 0.16887578E+00 0.10194689E+04</pdfrwt>
<pdfrwt beam="2">  1       -2 0.14434599E+00 0.10194689E+04</pdfrwt>
<totfact> 0.71721251E+00</totfact>
</mgrwt>
</event>
<event>
 4    5  0.7289609E-008  0.9304202E+03  0.7818608E-02  0.9478863E-01
         -2   -1    0    0    0  501 -0.00000000000E+00  0.00000000000E+00  0.12006264365E+04  0.12006264365E+04  0.25500000000E-02 0.  1.
          2   -1    0    0  501    0  0.00000000000E+00 -0.00000000000E+00 -0.83460859357E+03  0.83460859357E+03  0.25500000000E-02 0. -1.
    8880023    1    1    2    0    0  0.45091259929E+03  0.47806844918E+03  0.80495175820E+03  0.12302963682E+04  0.65864270000E+03 0.  0.
    8880022    1    1    2    0    0 -0.45091259929E+03 -0.47806844918E+03 -0.43893391531E+03  0.80493866184E+03  0.15294330000E+03 0.  0.
<mgrwt>
<rscale>  0 0.85860258E+03</rscale>
<asrwt>0</asrwt>
<pdfrwt beam="1">  1        2 0.12840132E+00 0.93042024E+03</pdfrwt>
<pdfrwt beam="2">  1       -2 0.18471176E+00 0.93042024E+03</pdfrwt>
<totfact> 0.54708424E+00</totfact>
</mgrwt>
</event>
<event>
 4    5  0.7289609E-008  0.1084617E+04  0.7818608E-02  0.9278379E-01
          2   -1    0    0  501    0  0.00000000000E+00  0.00000000000E+00  0.30174158827E+04  0.30174158827E+04  0.25500000000E-02 0. -1.
         -2   -1    0    0    0  501 -0.00000000000E+00 -0.00000000000E+00 -0.47856611853E+03  0.47856611853E+03  0.25500000000E-02 0.  1.
    8880023    1    1    2    0    0 -0.80598717069E+03  0.30490806960E+03  0.35168488187E+03  0.11402090653E+04  0.65864270000E+03 0. -1.
    8880022    1    1    2    0    0  0.80598717069E+03 -0.30490806960E+03  0.21871648823E+04  0.23557729359E+04  0.15294330000E+03 0.  0.
<mgrwt>
<rscale>  0 0.10279790E+04</rscale>
<asrwt>0</asrwt>
<pdfrwt beam="1">  1        2 0.46421783E+00 0.10846172E+04</pdfrwt>
<pdfrwt beam="2">  1       -2 0.73625556E-01 0.10846172E+04</pdfrwt>
<totfact> 0.28522556E+00</totfact>
</mgrwt>
</event>
<event>
 4    5  0.7289609E-008  0.6625179E+03  0.7818608E-02  0.1021713E+00
          2   -1    0    0  501    0  0.00000000000E+00  0.00000000000E+00  0.32696865230E+03  0.32696865231E+03  0.25500000000E-02 0. -1.
         -2   -1    0    0    0  501 -0.00000000000E+00 -0.00000000000E+00 -0.82338673089E+03  0.82338673089E+03  0.25500000000E-02 0.  1.
    8880023    1    1    2    0    0  0.43653447794E+02  0.56693095693E+02 -0.64558860013E+03  0.92504841900E+03  0.65864270000E+03 0.  1.
    8880022    1    1    2    0    0 -0.43653447794E+02 -0.56693095693E+02  0.14917052155E+03  0.22530696420E+03  0.15294330000E+03 0.  0.
<mgrwt>
<rscale>  0 0.47073391E+03</rscale>
<asrwt>0</asrwt>
<pdfrwt beam="1">  1        2 0.50302870E-01 0.66251788E+03</pdfrwt>
<pdfrwt beam="2">  1       -2 0.12667488E+00 0.66251788E+03</pdfrwt>
<totfact> 0.47010066E+01</totfact>
</mgrwt>
</event>
<event>
 4    5  0.7289609E-008  0.7859509E+03  0.7818608E-02  0.9742039E-01
          2   -1    0    0  501    0  0.00000000000E+00  0.00000000000E+00  0.29028905122E+03  0.29028905123E+03  0.25500000000E-02 0. -1.
         -2   -1    0    0    0  501 -0.00000000000E+00 -0.00000000000E+00 -0.24932154951E+04  0.24932154951E+04  0.25500000000E-02 0.  1.
    8880023    1    1    2    0    0 -0.29285212786E+03 -0.31328291433E+03 -0.21913750565E+04  0.23280557119E+04  0.65864270000E+03 0.  1.
    8880022    1    1    2    0    0  0.29285212786E+03  0.31328291433E+03 -0.11551387356E+02  0.45544883441E+03  0.15294330000E+03 0. -1.
<mgrwt>
<rscale>  0 0.68568005E+03</rscale>
<asrwt>0</asrwt>
<pdfrwt beam="1">  1        2 0.44659856E-01 0.78595086E+03</pdfrwt>
<pdfrwt beam="2">  1       -2 0.38357160E+00 0.78595086E+03</pdfrwt>
<totfact> 0.11384084E+00</totfact>
</mgrwt>
</event>
<event>
 4    5  0.7289609E-008  0.1329444E+04  0.7818608E-02  0.9040541E-01
          2   -1    0    0  501    0  0.00000000000E+00  0.00000000000E+00  0.28262746698E+04  0.28262746698E+04  0.25500000000E-02 0. -1.
         -2   -1    0    0    0  501 -0.00000000000E+00 -0.00000000000E+00 -0.86511584971E+03  0.86511584971E+03  0.25500000000E-02 0.  1.
    8880023    1    1    2    0    0 -0.11095429214E+04 -0.32019806829E+03 -0.90037947417E+02  0.13324899007E+04  0.65864270000E+03 0.  0.
    8880022    1    1    2    0    0  0.11095429214E+04  0.32019806829E+03  0.20511967675E+04  0.23589006188E+04  0.15294330000E+03 0.  0.
<mgrwt>
<rscale>  0 0.12862497E+04</rscale>
<asrwt>0</asrwt>
<pdfrwt beam="1">  1        2 0.43481149E+00 0.13294444E+04</pdfrwt>
<pdfrwt beam="2">  1       -2 0.13309475E+00 0.13294444E+04</pdfrwt>
<totfact> 0.88233057E-01</totfact>
</mgrwt>
</event>
<event>
 4    5  0.7289609E-008  0.8907492E+03  0.7818608E-02  0.9541048E-01
         -2   -1    0    0    0  501 -0.00000000000E+00  0.00000000000E+00  0.36466816748E+03  0.36466816749E+03  0.25500000000E-02 0.  1.
          2   -1    0    0  501    0  0.00000000000E+00 -0.00000000000E+00 -0.21254906092E+04  0.21254906092E+04  0.25500000000E-02 0. -1.
    8880023    1    1    2    0    0  0.59490431808E+03  0.75582401170E+02 -0.36377483045E+03  0.96216743895E+03  0.65864270000E+03 0. -1.
    8880022    1    1    2    0    0 -0.59490431808E+03 -0.75582401170E+02 -0.13970476113E+04  0.15279913378E+04  0.15294330000E+03 0.  1.
<mgrwt>
<rscale>  0 0.81323977E+03</rscale>
<asrwt>0</asrwt>
<pdfrwt beam="1">  1        2 0.32699855E+00 0.89074915E+03</pdfrwt>
<pdfrwt beam="2">  1       -2 0.56102796E-01 0.89074915E+03</pdfrwt>
<totfact> 0.17268221E+01</totfact>
</mgrwt>
</event>
<event>
 4    5  0.7289609E-008  0.7538410E+03  0.7818608E-02  0.9821321E-01
         -2   -1    0    0    0  501 -0.00000000000E+00  0.00000000000E+00  0.10750751797E+04  0.10750751798E+04  0.25500000000E-02 0.  1.
          2   -1    0    0  501    0  0.00000000000E+00 -0.00000000000E+00 -0.11984009366E+04  0.11984009366E+04  0.25500000000E-02 0. -1.
    8880023    1    1    2    0    0  0.35668175741E+03  0.85112737979E+02  0.90101633289E+03  0.11747794230E+04  0.65864270000E+03 0.  0.
    8880022    1    1    2    0    0 -0.35668175741E+03 -0.85112737979E+02 -0.10243420898E+04  0.10986966934E+04  0.15294330000E+03 0.  0.
<mgrwt>
<rscale>  0 0.64230757E+03</rscale>
<asrwt>0</asrwt>
<pdfrwt beam="1">  1        2 0.18436938E+00 0.75384100E+03</pdfrwt>
<pdfrwt beam="2">  1       -2 0.16539618E+00 0.75384100E+03</pdfrwt>
<totfact> 0.44620344E+00</totfact>
</mgrwt>
</event>
<event>
 4    5  0.7289609E-008  0.1949079E+04  0.7818608E-02  0.8644266E-01
         -2   -1    0    0    0  501 -0.00000000000E+00  0.00000000000E+00  0.10184935637E+04  0.10184935637E+04  0.25500000000E-02 0.  1.
          2   -1    0    0  501    0  0.00000000000E+00 -0.00000000000E+00 -0.37984414026E+04  0.37984414026E+04  0.25500000000E-02 0. -1.
    8880023    1    1    2    0    0  0.10930806788E+04 -0.14731848359E+04 -0.78154947837E+03  0.20999354096E+04  0.65864270000E+03 0.  0.
    8880022    1    1    2    0    0 -0.10930806788E+04  0.14731848359E+04 -0.19983983605E+04  0.27169995567E+04  0.15294330000E+03 0.  0.
<mgrwt>
<rscale>  0 0.19214225E+04</rscale>
<asrwt>0</asrwt>
<pdfrwt beam="1">  1        2 0.58437559E+00 0.19490790E+04</pdfrwt>
<pdfrwt beam="2">  1       -2 0.15669132E+00 0.19490790E+04</pdfrwt>
<totfact> 0.11912811E-01</totfact>
</mgrwt>
</event>
<event>
 4    5  0.7289609E-008  0.7511872E+03  0.7818608E-02  0.9828481E-01
         -2   -1    0    0    0  501 -0.00000000000E+00  0.00000000000E+00  0.34243601435E+03  0.34243601436E+03  0.25500000000E-02 0.  1.
          2   -1    0    0  501    0  0.00000000000E+00 -0.00000000000E+00 -0.28702010950E+04  0.28702010950E+04  0.25500000000E-02 0. -1.
    8880023    1    1    2    0    0 -0.27612478349E+03 -0.23286716459E+03 -0.10519607854E+03  0.75851725993E+03  0.65864270000E+03 0.  0.
    8880022    1    1    2    0    0  0.27612478349E+03  0.23286716459E+03 -0.24225690021E+04  0.24541198494E+04  0.15294330000E+03 0.  0.
<mgrwt>
<rscale>  0 0.63856211E+03</rscale>
<asrwt>0</asrwt>
<pdfrwt beam="1">  1        2 0.44156938E+00 0.75118721E+03</pdfrwt>
<pdfrwt beam="2">  1       -2 0.52682466E-01 0.75118721E+03</pdfrwt>
<totfact> 0.75520671E+00</totfact>
</mgrwt>
</event>
<event>
 4    5  0.7289609E-008  0.7353460E+03  0.7818608E-02  0.9873717E-01
         -2   -1    0    0    0  501 -0.00000000000E+00  0.00000000000E+00  0.93574064974E+03  0.93574064974E+03  0.25500000000E-02 0.  1.
          2   -1    0    0  501    0  0.00000000000E+00 -0.00000000000E+00 -0.13294302613E+04  0.13294302613E+04  0.25500000000E-02 0. -1.
    8880023    1    1    2    0    0  0.29170490404E+03 -0.14775566206E+03  0.75928826092E+03  0.10570015876E+04  0.65864270000E+03 0.  0.
    8880022    1    1    2    0    0 -0.29170490404E+03  0.14775566206E+03 -0.11529778725E+04  0.12081693234E+04  0.15294330000E+03 0.  0.
<mgrwt>
<rscale>  0 0.61552138E+03</rscale>
<asrwt>0</asrwt>
<pdfrwt beam="1">  1        2 0.20452773E+00 0.73534597E+03</pdfrwt>
<pdfrwt beam="2">  1       -2 0.14396010E+00 0.73534597E+03</pdfrwt>
<totfact> 0.54405199E+00</totfact>
</mgrwt>
</event>
<event>
 4    5  0.7289609E-008  0.8159710E+03  0.7818608E-02  0.9677271E-01
         -2   -1    0    0    0  501 -0.00000000000E+00  0.00000000000E+00  0.17833327566E+04  0.17833327566E+04  0.25500000000E-02 0.  1.
          2   -1    0    0  501    0  0.00000000000E+00 -0.00000000000E+00 -0.16170819714E+04  0.16170819714E+04  0.25500000000E-02 0. -1.
    8880023    1    1    2    0    0 -0.45109909876E+03 -0.16884316894E+03  0.16457821387E+04  0.18369560329E+04  0.65864270000E+03 0.  1.
    8880022    1    1    2    0    0  0.45109909876E+03  0.16884316894E+03 -0.14795313535E+04  0.15634586952E+04  0.15294330000E+03 0.  0.
<mgrwt>
<rscale>  0 0.72386325E+03</rscale>
<asrwt>0</asrwt>
<pdfrwt beam="1">  1        2 0.24878184E+00 0.81597097E+03</pdfrwt>
<pdfrwt beam="2">  1       -2 0.27435888E+00 0.81597097E+03</pdfrwt>
<totfact> 0.51530103E-01</totfact>
</mgrwt>
</event>
<event>
 4    5  0.8202486E-008  0.1090163E+04  0.7818608E-02  0.9272089E-01
         -2   -1    0    0    0  501 -0.00000000000E+00  0.00000000000E+00  0.13232572509E+04  0.13232572509E+04  0.25500000000E-02 0.  1.
          2   -1    0    0  501    0  0.00000000000E+00 -0.00000000000E+00 -0.22545653216E+04  0.22545653216E+04  0.25500000000E-02 0. -1.
    8880023    1    1    2    0    0  0.17073233667E+03 -0.85175970582E+03  0.98437365801E+03  0.14688246431E+04  0.65864270000E+03 0.  0.
    8880022    1    1    2    0    0 -0.17073233667E+03  0.85175970582E+03 -0.19156817287E+04  0.21089979294E+04  0.15294330000E+03 0.  0.
<mgrwt>
<rscale>  0 0.10339353E+04</rscale>
<asrwt>0</asrwt>
<pdfrwt beam="1">  1        2 0.34685620E+00 0.10901625E+04</pdfrwt>
<pdfrwt beam="2">  1       -2 0.20357804E+00 0.10901625E+04</pdfrwt>
<totfact> 0.59925806E-01</totfact>
</mgrwt>
</event>
<event>
 4    5  0.7289609E-008  0.7713272E+03  0.7818608E-02  0.9776619E-01
         -2   -1    0    0    0  501 -0.00000000000E+00  0.00000000000E+00  0.87222723627E+03  0.87222723627E+03  0.25500000000E-02 0.  1.
          2   -1    0    0  501    0  0.00000000000E+00 -0.00000000000E+00 -0.20578629132E+04  0.20578629132E+04  0.25500000000E-02 0. -1.
    8880023    1    1    2    0    0  0.30405777558E+03  0.26207696371E+03  0.67226589032E+03  0.10231750091E+04  0.65864270000E+03 0.  1.
    8880022    1    1    2    0    0 -0.30405777558E+03 -0.26207696371E+03 -0.18579015673E+04  0.19069151404E+04  0.15294330000E+03 0.  0.
<mgrwt>
<rscale>  0 0.66632563E+03</rscale>
<asrwt>0</asrwt>
<pdfrwt beam="1">  1        2 0.31659429E+00 0.77132721E+03</pdfrwt>
<pdfrwt beam="2">  1       -2 0.13418881E+00 0.77132721E+03</pdfrwt>
<totfact> 0.25711905E+00</totfact>
</mgrwt>
</event>
<event>
 4    5  0.7289609E-008  0.9730195E+03  0.7818608E-02  0.9417740E-01
         -2   -1    0    0    0  501 -0.00000000000E+00  0.00000000000E+00  0.72661751157E+03  0.72661751157E+03  0.25500000000E-02 0.  1.
          2   -1    0    0  501    0  0.00000000000E+00 -0.00000000000E+00 -0.14492978079E+04  0.14492978079E+04  0.25500000000E-02 0. -1.
    8880023    1    1    2    0    0  0.71545193525E+03 -0.32944816788E+02  0.20460966697E+03  0.99429983139E+03  0.65864270000E+03 0.  1.
    8880022    1    1    2    0    0 -0.71545193525E+03  0.32944816788E+02 -0.92728996327E+03  0.11816154881E+04  0.15294330000E+03 0.  0.
<mgrwt>
<rscale>  0 0.90630016E+03</rscale>
<asrwt>0</asrwt>
<pdfrwt beam="1">  1        2 0.22296889E+00 0.97301955E+03</pdfrwt>
<pdfrwt beam="2">  1       -2 0.11178731E+00 0.97301955E+03</pdfrwt>
<totfact> 0.85436885E+00</totfact>
</mgrwt>
</event>
<event>
 4    5  0.7289609E-008  0.1528123E+04  0.7818608E-02  0.8890029E-01
         -2   -1    0    0    0  501 -0.00000000000E+00  0.00000000000E+00  0.39390640570E+04  0.39390640570E+04  0.25500000000E-02 0.  1.
          2   -1    0    0  501    0  0.00000000000E+00 -0.00000000000E+00 -0.57999330493E+03  0.57999330494E+03  0.25500000000E-02 0. -1.
    8880023    1    1    2    0    0 -0.12700210927E+04  0.53702391495E+03  0.23515926736E+04  0.28044868640E+04  0.65864270000E+03 0.  0.
    8880022    1    1    2    0    0  0.12700210927E+04 -0.53702391495E+03  0.10074780784E+04  0.17145704980E+04  0.15294330000E+03 0.  0.
<mgrwt>
<rscale>  0 0.14916438E+04</rscale>
<asrwt>0</asrwt>
<pdfrwt beam="1">  1        2 0.89229742E-01 0.15281225E+04</pdfrwt>
<pdfrwt beam="2">  1       -2 0.60600984E+00 0.15281225E+04</pdfrwt>
<totfact> 0.22988701E-02</totfact>
</mgrwt>
</event>
<event>
 4    5  0.7289609E-008  0.1107190E+04  0.7818608E-02  0.9253093E-01
         -2   -1    0    0    0  501 -0.00000000000E+00  0.00000000000E+00  0.72503147713E+03  0.72503147714E+03  0.25500000000E-02 0.  1.
          2   -1    0    0  501    0  0.00000000000E+00 -0.00000000000E+00 -0.17625639355E+04  0.17625639355E+04  0.25500000000E-02 0. -1.
    8880023    1    1    2    0    0 -0.45001800609E+03 -0.76781764482E+03  0.65047746390E+01  0.11072094020E+04  0.65864270000E+03 0.  1.
    8880022    1    1    2    0    0  0.45001800609E+03  0.76781764482E+03 -0.10440372330E+04  0.13803860107E+04  0.15294330000E+03 0.  0.
<mgrwt>
<rscale>  0 0.10521835E+04</rscale>
<asrwt>0</asrwt>
<pdfrwt beam="1">  1        2 0.27116368E+00 0.11071903E+04</pdfrwt>
<pdfrwt beam="2">  1       -2 0.11154330E+00 0.11071903E+04</pdfrwt>
<totfact> 0.56651613E+00</totfact>
</mgrwt>
</event>
<event>
 4    5  0.7289609E-008  0.9397286E+03  0.7818608E-02  0.9465049E-01
          2   -1    0    0  501    0  0.00000000000E+00  0.00000000000E+00  0.17500140020E+04  0.17500140020E+04  0.25500000000E-02 0. -1.
         -2   -1    0    0    0  501 -0.00000000000E+00 -0.00000000000E+00 -0.67395876459E+03  0.67395876459E+03  0.25500000000E-02 0.  1.
    8880023    1    1    2    0    0 -0.67027335382E+03 -0.36533671189E+01 -0.21252024411E+03  0.96345979488E+03  0.65864270000E+03 0.  0.
    8880022    1    1    2    0    0  0.67027335382E+03  0.36533671189E+01  0.12885754815E+04  0.14605129717E+04  0.15294330000E+03 0.  0.
<mgrwt>
<rscale>  0 0.86910402E+03</rscale>
<asrwt>0</asrwt>
<pdfrwt beam="1">  1        2 0.26923293E+00 0.93972864E+03</pdfrwt>
<pdfrwt beam="2">  1       -2 0.10368596E+00 0.93972864E+03</pdfrwt>
<totfact> 0.69987417E+00</totfact>
</mgrwt>
</event>
<event>
 4    5  0.7289609E-008  0.9300229E+03  0.7818608E-02  0.9479459E-01
          2   -1    0    0  501    0  0.00000000000E+00  0.00000000000E+00  0.23882486937E+04  0.23882486937E+04  0.25500000000E-02 0. -1.
         -2   -1    0    0    0  501 -0.00000000000E+00 -0.00000000000E+00 -0.35952279707E+03  0.35952279708E+03  0.25500000000E-02 0.  1.
    8880023    1    1    2    0    0 -0.52447954554E+03  0.39503622617E+03  0.45425768989E+03  0.10350326897E+04  0.65864270000E+03 0.  1.
    8880022    1    1    2    0    0  0.52447954554E+03 -0.39503622617E+03  0.15744682068E+04  0.17127388011E+04  0.15294330000E+03 0.  0.
<mgrwt>
<rscale>  0 0.85815324E+03</rscale>
<asrwt>0</asrwt>
<pdfrwt beam="1">  1        2 0.36742288E+00 0.93002291E+03</pdfrwt>
<pdfrwt beam="2">  1       -2 0.55311199E-01 0.93002291E+03</pdfrwt>
<totfact> 0.12636432E+01</totfact>
</mgrwt>
</event>
<event>
 4    5  0.7289609E-008  0.9421068E+03  0.7818608E-02  0.9461563E-01
          2   -1    0    0  501    0  0.00000000000E+00  0.00000000000E+00  0.29228361192E+04  0.29228361192E+04  0.25500000000E-02 0. -1.
         -2   -1    0    0    0  501 -0.00000000000E+00 -0.00000000000E+00 -0.69058008819E+03  0.69058008820E+03  0.25500000000E-02 0.  1.
    8880023    1    1    2    0    0  0.67236991779E+03 -0.40910868933E+02 -0.29993515116E+03  0.98869930045E+03  0.65864270000E+03 0.  0.
    8880022    1    1    2    0    0 -0.67236991779E+03  0.40910868933E+02  0.25321911822E+04  0.26247169070E+04  0.15294330000E+03 0.  0.
<mgrwt>
<rscale>  0 0.87177937E+03</rscale>
<asrwt>0</asrwt>
<pdfrwt beam="1">  1        2 0.44966709E+00 0.94210679E+03</pdfrwt>
<pdfrwt beam="2">  1       -2 0.10624309E+00 0.94210679E+03</pdfrwt>
<totfact> 0.14271351E+00</totfact>
</mgrwt>
</event>
<event>
 4    5  0.7289609E-008  0.6591281E+03  0.7818608E-02  0.1025068E+00
          2   -1    0    0  501    0  0.00000000000E+00  0.00000000000E+00  0.16549426658E+04  0.16549426658E+04  0.25500000000E-02 0. -1.
         -2   -1    0    0    0  501 -0.00000000000E+00 -0.00000000000E+00 -0.10323764367E+03  0.10323764370E+03  0.25500000000E-02 0.  1.
    8880023    1    1    2    0    0 -0.64055511259E+01 -0.24465637276E+02  0.11209042563E+04  0.13003369396E+04  0.65864270000E+03 0.  1.
    8880022    1    1    2    0    0  0.64055511259E+01  0.24465637276E+02  0.43080076584E+03  0.45784336989E+03  0.15294330000E+03 0.  0.
<mgrwt>
<rscale>  0 0.45901238E+03</rscale>
<asrwt>0</asrwt>
<pdfrwt beam="1">  1        2 0.25460655E+00 0.65912806E+03</pdfrwt>
<pdfrwt beam="2">  1       -2 0.15882715E-01 0.65912806E+03</pdfrwt>
<totfact> 0.33775187E+02</totfact>
</mgrwt>
</event>
<event>
 4    5  0.7289609E-008  0.9822071E+03  0.7818608E-02  0.9405215E-01
          2   -1    0    0  501    0  0.00000000000E+00  0.00000000000E+00  0.40692361477E+04  0.40692361477E+04  0.25500000000E-02 0. -1.
         -2   -1    0    0    0  501 -0.00000000000E+00 -0.00000000000E+00 -0.21843659155E+03  0.21843659157E+03  0.25500000000E-02 0.  1.
    8880023    1    1    2    0    0 -0.51453854889E+03 -0.51591735742E+03  0.12932204253E+04  0.16239303904E+04  0.65864270000E+03 0.  1.
    8880022    1    1    2    0    0  0.51453854889E+03  0.51591735742E+03  0.25575791308E+04  0.26637423489E+04  0.15294330000E+03 0.  0.
<mgrwt>
<rscale>  0 0.91647712E+03</rscale>
<asrwt>0</asrwt>
<pdfrwt beam="1">  1        2 0.62603632E+00 0.98220713E+03</pdfrwt>
<pdfrwt beam="2">  1       -2 0.33605630E-01 0.98220713E+03</pdfrwt>
<totfact> 0.26353653E+00</totfact>
</mgrwt>
</event>
<event>
 4    5  0.7289609E-008  0.7683850E+03  0.7818608E-02  0.9783864E-01
          2   -1    0    0  501    0  0.00000000000E+00  0.00000000000E+00  0.16931989262E+04  0.16931989262E+04  0.25500000000E-02 0. -1.
         -2   -1    0    0    0  501 -0.00000000000E+00 -0.00000000000E+00 -0.47461143715E+03  0.47461143716E+03  0.25500000000E-02 0.  1.
    8880023    1    1    2    0    0 -0.21099742595E+02  0.39517102900E+03 -0.10716985873E+03  0.77582274147E+03  0.65864270000E+03 0.  1.
    8880022    1    1    2    0    0  0.21099742595E+02 -0.39517102900E+03  0.13257573478E+04  0.13919876219E+04  0.15294330000E+03 0.  0.
<mgrwt>
<rscale>  0 0.66235730E+03</rscale>
<asrwt>0</asrwt>
<pdfrwt beam="1">  1        2 0.26049214E+00 0.76838503E+03</pdfrwt>
<pdfrwt beam="2">  1       -2 0.73017145E-01 0.76838503E+03</pdfrwt>
<totfact> 0.17187896E+01</totfact>
</mgrwt>
</event>
<event>
 4    5  0.7289609E-008  0.6847562E+03  0.7818608E-02  0.1006752E+00
          2   -1    0    0  501    0  0.00000000000E+00  0.00000000000E+00  0.15829252582E+04  0.15829252582E+04  0.25500000000E-02 0. -1.
         -2   -1    0    0    0  501 -0.00000000000E+00 -0.00000000000E+00 -0.43476528043E+03  0.43476528044E+03  0.25500000000E-02 0.  1.
    8880023    1    1    2    0    0 -0.58810427427E+01 -0.18720664437E+03 -0.14682670240E+03  0.70032078447E+03  0.65864270000E+03 0.  1.
    8880022    1    1    2    0    0  0.58810427427E+01  0.18720664437E+03  0.12949866801E+04  0.13173697541E+04  0.15294330000E+03 0.  0.
<mgrwt>
<rscale>  0 0.52786276E+03</rscale>
<asrwt>0</asrwt>
<pdfrwt beam="1">  1        2 0.24352697E+00 0.68475625E+03</pdfrwt>
<pdfrwt beam="2">  1       -2 0.66886965E-01 0.68475625E+03</pdfrwt>
<totfact> 0.24186868E+01</totfact>
</mgrwt>
</event>
<event>
 4    5  0.7289609E-008  0.7051177E+03  0.7818608E-02  0.9976599E-01
         -2   -1    0    0    0  501 -0.00000000000E+00  0.00000000000E+00  0.39034191499E+03  0.39034191500E+03  0.25500000000E-02 0.  1.
          2   -1    0    0  501    0  0.00000000000E+00 -0.00000000000E+00 -0.94749407709E+03  0.94749407709E+03  0.25500000000E-02 0. -1.
    8880023    1    1    2    0    0 -0.62059582530E+02  0.24398627789E+03  0.28059484675E+01  0.70512323405E+03  0.65864270000E+03 0.  1.
    8880022    1    1    2    0    0  0.62059582530E+02 -0.24398627789E+03 -0.55995811057E+03  0.63271275804E+03  0.15294330000E+03 0.  0.
<mgrwt>
<rscale>  0 0.56688356E+03</rscale>
<asrwt>0</asrwt>
<pdfrwt beam="1">  1        2 0.14576832E+00 0.70511765E+03</pdfrwt>
<pdfrwt beam="2">  1       -2 0.60052603E-01 0.70511765E+03</pdfrwt>
<totfact> 0.71714226E+01</totfact>
</mgrwt>
</event>
<event>
 4    5  0.7289609E-008  0.6932638E+03  0.7818608E-02  0.1002638E+00
          2   -1    0    0  501    0  0.00000000000E+00  0.00000000000E+00  0.74622523723E+03  0.74622523723E+03  0.25500000000E-02 0. -1.
         -2   -1    0    0    0  501 -0.00000000000E+00 -0.00000000000E+00 -0.33467073074E+03  0.33467073075E+03  0.25500000000E-02 0.  1.
    8880023    1    1    2    0    0  0.11196605493E+03 -0.18511635537E+03  0.15145009728E+03  0.70961383915E+03  0.65864270000E+03 0.  1.
    8880022    1    1    2    0    0 -0.11196605493E+03  0.18511635537E+03  0.26010440921E+03  0.37128212883E+03  0.15294330000E+03 0. -1.
<mgrwt>
<rscale>  0 0.54508348E+03</rscale>
<asrwt>0</asrwt>
<pdfrwt beam="1">  1        2 0.11480388E+00 0.69326378E+03</pdfrwt>
<pdfrwt beam="2">  1       -2 0.51487805E-01 0.69326378E+03</pdfrwt>
<totfact> 0.13647036E+02</totfact>
</mgrwt>
</event>
<event>
 4    5  0.7289609E-008  0.6752619E+03  0.7818608E-02  0.1012142E+00
          2   -1    0    0  501    0  0.00000000000E+00  0.00000000000E+00  0.69273063151E+03  0.69273063152E+03  0.25500000000E-02 0. -1.
         -2   -1    0    0    0  501 -0.00000000000E+00 -0.00000000000E+00 -0.15620582881E+04  0.15620582881E+04  0.25500000000E-02 0.  1.
    8880023    1    1    2    0    0  0.43013908432E+02 -0.14254185724E+03 -0.14698068916E+04  0.16175014319E+04  0.65864270000E+03 0.  1.
    8880022    1    1    2    0    0 -0.43013908432E+02  0.14254185724E+03  0.60047923497E+03  0.63728748774E+03  0.15294330000E+03 0.  0.
<mgrwt>
<rscale>  0 0.50632243E+03</rscale>
<asrwt>0</asrwt>
<pdfrwt beam="1">  1        2 0.10657394E+00 0.67526186E+03</pdfrwt>
<pdfrwt beam="2">  1       -2 0.24031666E+00 0.67526186E+03</pdfrwt>
<totfact> 0.31853320E+00</totfact>
</mgrwt>
</event>
<event>
 4    5  0.7289609E-008  0.8880258E+03  0.7818608E-02  0.9545534E-01
         -2   -1    0    0    0  501 -0.00000000000E+00  0.00000000000E+00  0.76681459688E+03  0.76681459689E+03  0.25500000000E-02 0.  1.
          2   -1    0    0  501    0  0.00000000000E+00 -0.00000000000E+00 -0.17530001117E+04  0.17530001117E+04  0.25500000000E-02 0. -1.
    8880023    1    1    2    0    0  0.87111337632E+02 -0.58922942100E+03  0.42200967269E+03  0.98319991142E+03  0.65864270000E+03 0.  0.
    8880022    1    1    2    0    0 -0.87111337632E+02  0.58922942100E+03 -0.14081951875E+04  0.15366147971E+04  0.15294330000E+03 0.  0.
<mgrwt>
<rscale>  0 0.81008442E+03</rscale>
<asrwt>0</asrwt>
<pdfrwt beam="1">  1        2 0.26969232E+00 0.88802585E+03</pdfrwt>
<pdfrwt beam="2">  1       -2 0.11797148E+00 0.88802585E+03</pdfrwt>
<totfact> 0.51272668E+00</totfact>
</mgrwt>
</event>
<event>
 4    5  0.7289609E-008  0.8703611E+03  0.7818608E-02  0.9575392E-01
         -2   -1    0    0    0  501 -0.00000000000E+00  0.00000000000E+00  0.10037977580E+04  0.10037977580E+04  0.25500000000E-02 0.  1.
          2   -1    0    0  501    0  0.00000000000E+00 -0.00000000000E+00 -0.14186827879E+04  0.14186827879E+04  0.25500000000E-02 0. -1.
    8880023    1    1    2    0    0  0.20499680654E+03  0.53074906758E+03  0.72929915926E+03  0.11355200277E+04  0.65864270000E+03 0.  0.
    8880022    1    1    2    0    0 -0.20499680654E+03 -0.53074906758E+03 -0.11441841892E+04  0.12869605181E+04  0.15294330000E+03 0.  0.
<mgrwt>
<rscale>  0 0.78946519E+03</rscale>
<asrwt>0</asrwt>
<pdfrwt beam="1">  1        2 0.21825889E+00 0.87036111E+03</pdfrwt>
<pdfrwt beam="2">  1       -2 0.15443042E+00 0.87036111E+03</pdfrwt>
<totfact> 0.39455079E+00</totfact>
</mgrwt>
</event>
<event>
 4    5  0.7289609E-008  0.1001215E+04  0.7818608E-02  0.9379969E-01
         -2   -1    0    0    0  501 -0.00000000000E+00  0.00000000000E+00  0.35470688003E+03  0.35470688004E+03  0.25500000000E-02 0.  1.
          2   -1    0    0  501    0  0.00000000000E+00 -0.00000000000E+00 -0.31911334237E+04  0.31911334237E+04  0.25500000000E-02 0. -1.
    8880023    1    1    2    0    0  0.68843975543E+03  0.30768897079E+03 -0.56940206763E+03  0.11518032473E+04  0.65864270000E+03 0.  0.
    8880022    1    1    2    0    0 -0.68843975543E+03 -0.30768897079E+03 -0.22670244761E+04  0.23940370565E+04  0.15294330000E+03 0.  0.
<mgrwt>
<rscale>  0 0.93742611E+03</rscale>
<asrwt>0</asrwt>
<pdfrwt beam="1">  1        2 0.49094358E+00 0.10012153E+04</pdfrwt>
<pdfrwt beam="2">  1       -2 0.54570291E-01 0.10012153E+04</pdfrwt>
<totfact> 0.42683050E+00</totfact>
</mgrwt>
</event>
<event>
 4    5  0.7289609E-008  0.7704175E+03  0.7818608E-02  0.9778848E-01
         -2   -1    0    0    0  501 -0.00000000000E+00  0.00000000000E+00  0.40667459120E+03  0.40667459121E+03  0.25500000000E-02 0.  1.
          2   -1    0    0  501    0  0.00000000000E+00 -0.00000000000E+00 -0.11014677452E+04  0.11014677452E+04  0.25500000000E-02 0. -1.
    8880023    1    1    2    0    0  0.47884924614E+02 -0.39678697350E+03 -0.10216538908E+03  0.77716204316E+03  0.65864270000E+03 0.  0.
    8880022    1    1    2    0    0 -0.47884924614E+02  0.39678697350E+03 -0.59262776492E+03  0.73098029324E+03  0.15294330000E+03 0.  0.
<mgrwt>
<rscale>  0 0.66510146E+03</rscale>
<asrwt>0</asrwt>
<pdfrwt beam="1">  1        2 0.16945658E+00 0.77041747E+03</pdfrwt>
<pdfrwt beam="2">  1       -2 0.62565322E-01 0.77041747E+03</pdfrwt>
<totfact> 0.52264644E+01</totfact>
</mgrwt>
</event>
<event>
 4    5  0.7289609E-008  0.1174211E+04  0.7818608E-02  0.9182608E-01
          2   -1    0    0  501    0  0.00000000000E+00  0.00000000000E+00  0.35892630704E+04  0.35892630704E+04  0.25500000000E-02 0. -1.
         -2   -1    0    0    0  501 -0.00000000000E+00 -0.00000000000E+00 -0.67719641623E+03  0.67719641623E+03  0.25500000000E-02 0.  1.
    8880023    1    1    2    0    0 -0.74603111481E+02 -0.96922415056E+03 -0.19259283186E+02  0.11743688537E+04  0.65864270000E+03 0.  0.
    8880022    1    1    2    0    0  0.74603111481E+02  0.96922415056E+03  0.29313259374E+04  0.30920906329E+04  0.15294330000E+03 0.  0.
<mgrwt>
<rscale>  0 0.11234760E+04</rscale>
<asrwt>0</asrwt>
<pdfrwt beam="1">  1        2 0.55219432E+00 0.11742109E+04</pdfrwt>
<pdfrwt beam="2">  1       -2 0.10418406E+00 0.11742109E+04</pdfrwt>
<totfact> 0.52951385E-01</totfact>
</mgrwt>
</event>
<event>
 4    5  0.7289609E-008  0.6908299E+03  0.7818608E-02  0.1003761E+00
         -2   -1    0    0    0  501 -0.00000000000E+00  0.00000000000E+00  0.60317855879E+03  0.60317855879E+03  0.25500000000E-02 0.  1.
          2   -1    0    0  501    0  0.00000000000E+00 -0.00000000000E+00 -0.53881159144E+03  0.53881159145E+03  0.25500000000E-02 0. -1.
    8880023    1    1    2    0    0  0.18813996856E+03 -0.89661271528E+02  0.33496649949E+03  0.76775552973E+03  0.65864270000E+03 0.  0.
    8880022    1    1    2    0    0 -0.18813996856E+03  0.89661271528E+02 -0.27059953215E+03  0.37423462052E+03  0.15294330000E+03 0.  0.
<mgrwt>
<rscale>  0 0.54031586E+03</rscale>
<asrwt>0</asrwt>
<pdfrwt beam="1">  1        2 0.82894091E-01 0.69082993E+03</pdfrwt>
<pdfrwt beam="2">  1       -2 0.92796701E-01 0.69082993E+03</pdfrwt>
<totfact> 0.56416499E+01</totfact>
</mgrwt>
</event>
<event>
 4    5  0.8237964E-008  0.1885215E+04  0.7818608E-02  0.8676808E-01
          2   -1    0    0  501    0  0.00000000000E+00  0.00000000000E+00  0.31168313077E+04  0.31168313077E+04  0.25500000000E-02 0. -1.
         -2   -1    0    0    0  501 -0.00000000000E+00 -0.00000000000E+00 -0.19573976833E+04  0.19573976833E+04  0.25500000000E-02 0.  1.
    8880023    1    1    2    0    0 -0.16568907710E+04 -0.61232141158E+03 -0.11150781732E+04  0.21903045625E+04  0.65864270000E+03 0.  0.
    8880022    1    1    2    0    0  0.16568907710E+04  0.61232141158E+03  0.22745117976E+04  0.28839244284E+04  0.15294330000E+03 0.  0.
<mgrwt>
<rscale>  0 0.18565186E+04</rscale>
<asrwt>0</asrwt>
<pdfrwt beam="1">  1        2 0.47951250E+00 0.18852148E+04</pdfrwt>
<pdfrwt beam="2">  1       -2 0.30113811E+00 0.18852148E+04</pdfrwt>
<totfact> 0.41130574E-02</totfact>
</mgrwt>
</event>
<event>
 4    5  0.7289609E-008  0.8801368E+03  0.7818608E-02  0.9558702E-01
         -2   -1    0    0    0  501 -0.00000000000E+00  0.00000000000E+00  0.28607609700E+03  0.28607609701E+03  0.25500000000E-02 0.  1.
          2   -1    0    0  501    0  0.00000000000E+00 -0.00000000000E+00 -0.39765012924E+04  0.39765012924E+04  0.25500000000E-02 0. -1.
    8880023    1    1    2    0    0 -0.27532380861E+03 -0.51480814379E+03 -0.49322490422E+03  0.10089160703E+04  0.65864270000E+03 0.  1.
    8880022    1    1    2    0    0  0.27532380861E+03  0.51480814379E+03 -0.31972002911E+04  0.32536613191E+04  0.15294330000E+03 0.  0.
<mgrwt>
<rscale>  0 0.80090952E+03</rscale>
<asrwt>0</asrwt>
<pdfrwt beam="1">  1        2 0.61176939E+00 0.88013683E+03</pdfrwt>
<pdfrwt beam="2">  1       -2 0.44011710E-01 0.88013683E+03</pdfrwt>
<totfact> 0.18856395E+00</totfact>
</mgrwt>
</event>
<event>
 4    5  0.7289609E-008  0.8459379E+03  0.7818608E-02  0.9619084E-01
         -2   -1    0    0    0  501 -0.00000000000E+00  0.00000000000E+00  0.26621082515E+03  0.26621082516E+03  0.25500000000E-02 0.  1.
          2   -1    0    0  501    0  0.00000000000E+00 -0.00000000000E+00 -0.18562905312E+04  0.18562905312E+04  0.25500000000E-02 0. -1.
    8880023    1    1    2    0    0 -0.48683022177E+03 -0.21165310959E+03 -0.10675792479E+04  0.13621073234E+04  0.65864270000E+03 0.  1.
    8880022    1    1    2    0    0  0.48683022177E+03  0.21165310959E+03 -0.52250045823E+03  0.76039403305E+03  0.15294330000E+03 0. -1.
<mgrwt>
<rscale>  0 0.76045858E+03</rscale>
<asrwt>0</asrwt>
<pdfrwt beam="1">  1        2 0.28558315E+00 0.84593789E+03</pdfrwt>
<pdfrwt beam="2">  1       -2 0.40955513E-01 0.84593789E+03</pdfrwt>
<totfact> 0.46105125E+01</totfact>
</mgrwt>
</event>
<event>
 4    5  0.7289609E-008  0.7122824E+03  0.7818608E-02  0.9949621E-01
         -2   -1    0    0    0  501 -0.00000000000E+00  0.00000000000E+00  0.11916847675E+04  0.11916847675E+04  0.25500000000E-02 0.  1.
          2   -1    0    0  501    0  0.00000000000E+00 -0.00000000000E+00 -0.11543007864E+04  0.11543007864E+04  0.25500000000E-02 0. -1.
    8880023    1    1    2    0    0  0.25626368819E+03 -0.88684683207E+02  0.10599678068E+04  0.12770583419E+04  0.65864270000E+03 0.  1.
    8880022    1    1    2    0    0 -0.25626368819E+03  0.88684683207E+02 -0.10225838257E+04  0.10689272120E+04  0.15294330000E+03 0.  0.
<mgrwt>
<rscale>  0 0.57915547E+03</rscale>
<asrwt>0</asrwt>
<pdfrwt beam="1">  1        2 0.17758474E+00 0.71228243E+03</pdfrwt>
<pdfrwt beam="2">  1       -2 0.18333612E+00 0.71228243E+03</pdfrwt>
<totfact> 0.35747819E+00</totfact>
</mgrwt>
</event>
<event>
 4    5  0.7289609E-008  0.1035120E+04  0.7818608E-02  0.9336986E-01
         -2   -1    0    0    0  501 -0.00000000000E+00  0.00000000000E+00  0.13184738816E+04  0.13184738816E+04  0.25500000000E-02 0.  1.
          2   -1    0    0  501    0  0.00000000000E+00 -0.00000000000E+00 -0.11481558797E+04  0.11481558797E+04  0.25500000000E-02 0. -1.
    8880023    1    1    2    0    0  0.79109689880E+03 -0.10876260094E+03  0.90188036110E+03  0.13729027637E+04  0.65864270000E+03 0.  1.
    8880022    1    1    2    0    0 -0.79109689880E+03  0.10876260094E+03 -0.73156235923E+03  0.10937269975E+04  0.15294330000E+03 0.  0.
<mgrwt>
<rscale>  0 0.97447972E+03</rscale>
<asrwt>0</asrwt>
<pdfrwt beam="1">  1        2 0.17663937E+00 0.10351202E+04</pdfrwt>
<pdfrwt beam="2">  1       -2 0.20284214E+00 0.10351202E+04</pdfrwt>
<totfact> 0.25632843E+00</totfact>
</mgrwt>
</event>
<event>
 4    5  0.7289609E-008  0.8400919E+03  0.7818608E-02  0.9630007E-01
          2   -1    0    0  501    0  0.00000000000E+00  0.00000000000E+00  0.10871554661E+04  0.10871554661E+04  0.25500000000E-02 0. -1.
         -2   -1    0    0    0  501 -0.00000000000E+00 -0.00000000000E+00 -0.66110514659E+03  0.66110514659E+03  0.25500000000E-02 0.  1.
    8880023    1    1    2    0    0 -0.40288551810E+02  0.51992410536E+03 -0.25408453425E+03  0.87767499654E+03  0.65864270000E+03 0.  0.
    8880022    1    1    2    0    0  0.40288551810E+02 -0.51992410536E+03  0.68013485376E+03  0.87058561615E+03  0.15294330000E+03 0.  0.
<mgrwt>
<rscale>  0 0.75341565E+03</rscale>
<asrwt>0</asrwt>
<pdfrwt beam="1">  1        2 0.16725469E+00 0.84009193E+03</pdfrwt>
<pdfrwt beam="2">  1       -2 0.10170848E+00 0.84009193E+03</pdfrwt>
<totfact> 0.17747961E+01</totfact>
</mgrwt>
</event>
<event>
 4    5  0.7289609E-008  0.7143285E+03  0.7818608E-02  0.9942265E-01
         -2   -1    0    0    0  501 -0.00000000000E+00  0.00000000000E+00  0.29663747992E+03  0.29663747993E+03  0.25500000000E-02 0.  1.
          2   -1    0    0  501    0  0.00000000000E+00 -0.00000000000E+00 -0.15073037965E+04  0.15073037965E+04  0.25500000000E-02 0. -1.
    8880023    1    1    2    0    0  0.27650150202E+03 -0.13723994581E+01 -0.19530289486E+03  0.74054600877E+03  0.65864270000E+03 0.  1.
    8880022    1    1    2    0    0 -0.27650150202E+03  0.13723994581E+01 -0.10153634217E+04  0.10633952676E+04  0.15294330000E+03 0.  0.
<mgrwt>
<rscale>  0 0.58255930E+03</rscale>
<asrwt>0</asrwt>
<pdfrwt beam="1">  1        2 0.23189289E+00 0.71432848E+03</pdfrwt>
<pdfrwt beam="2">  1       -2 0.45636536E-01 0.71432848E+03</pdfrwt>
<totfact> 0.58677686E+01</totfact>
</mgrwt>
</event>
<event>
 4    5  0.7388830E-008  0.1220126E+04  0.7818608E-02  0.9137802E-01
         -2   -1    0    0    0  501 -0.00000000000E+00  0.00000000000E+00  0.24025227323E+04  0.24025227323E+04  0.25500000000E-02 0.  1.
          2   -1    0    0  501    0  0.00000000000E+00 -0.00000000000E+00 -0.21033739569E+04  0.21033739569E+04  0.25500000000E-02 0. -1.
    8880023    1    1    2    0    0  0.44914186903E+03 -0.92367198603E+03  0.20990663762E+04  0.24279184941E+04  0.65864270000E+03 0. -1.
    8880022    1    1    2    0    0 -0.44914186903E+03  0.92367198603E+03 -0.17999176008E+04  0.20779781950E+04  0.15294330000E+03 0.  0.
<mgrwt>
<rscale>  0 0.11719136E+04</rscale>
<asrwt>0</asrwt>
<pdfrwt beam="1">  1        2 0.32359599E+00 0.12201265E+04</pdfrwt>
<pdfrwt beam="2">  1       -2 0.36961888E+00 0.12201265E+04</pdfrwt>
<totfact> 0.66960563E-02</totfact>
</mgrwt>
</event>
<event>
 4    5  0.7289609E-008  0.1414315E+04  0.7818608E-02  0.8972639E-01
         -2   -1    0    0    0  501 -0.00000000000E+00  0.00000000000E+00  0.10185441780E+04  0.10185441780E+04  0.25500000000E-02 0.  1.
          2   -1    0    0  501    0  0.00000000000E+00 -0.00000000000E+00 -0.20714846689E+04  0.20714846689E+04  0.25500000000E-02 0. -1.
    8880023    1    1    2    0    0 -0.54695836767E+03  0.11257497334E+04  0.49445629032E+02  0.14151787854E+04  0.65864270000E+03 0.  0.
    8880022    1    1    2    0    0  0.54695836767E+03 -0.11257497334E+04 -0.11023861199E+04  0.16748500615E+04  0.15294330000E+03 0.  0.
<mgrwt>
<rscale>  0 0.13742940E+04</rscale>
<asrwt>0</asrwt>
<pdfrwt beam="1">  1        2 0.31868995E+00 0.14143147E+04</pdfrwt>
<pdfrwt beam="2">  1       -2 0.15669910E+00 0.14143147E+04</pdfrwt>
<totfact> 0.15457029E+00</totfact>
</mgrwt>
</event>
<event>
 4    5  0.7289609E-008  0.7008280E+03  0.7818608E-02  0.9993783E-01
          2   -1    0    0  501    0  0.00000000000E+00  0.00000000000E+00  0.38866181534E+03  0.38866181535E+03  0.25500000000E-02 0. -1.
         -2   -1    0    0    0  501 -0.00000000000E+00 -0.00000000000E+00 -0.13594935056E+04  0.13594935056E+04  0.25500000000E-02 0.  1.
    8880023    1    1    2    0    0 -0.19611810040E+03 -0.13743150870E+03 -0.11955932591E+04  0.13858582815E+04  0.65864270000E+03 0.  0.
    8880022    1    1    2    0    0  0.19611810040E+03  0.13743150870E+03  0.22476156891E+03  0.36229703940E+03  0.15294330000E+03 0.  0.
<mgrwt>
<rscale>  0 0.55923665E+03</rscale>
<asrwt>0</asrwt>
<pdfrwt beam="1">  1        2 0.59794126E-01 0.70082804E+03</pdfrwt>
<pdfrwt beam="2">  1       -2 0.20915285E+00 0.70082804E+03</pdfrwt>
<totfact> 0.97668963E+00</totfact>
</mgrwt>
</event>
<event>
 4    5  0.7289609E-008  0.9382079E+03  0.7818608E-02  0.9467287E-01
         -2   -1    0    0    0  501 -0.00000000000E+00  0.00000000000E+00  0.26052785017E+03  0.26052785019E+03  0.25500000000E-02 0.  1.
          2   -1    0    0  501    0  0.00000000000E+00 -0.00000000000E+00 -0.31945216815E+04  0.31945216815E+04  0.25500000000E-02 0. -1.
    8880023    1    1    2    0    0 -0.55263425708E+03  0.37552525955E+03 -0.86735256467E+03  0.12777067427E+04  0.65864270000E+03 0.  0.
    8880022    1    1    2    0    0  0.55263425708E+03 -0.37552525955E+03 -0.20666412666E+04  0.21773427890E+04  0.15294330000E+03 0.  0.
<mgrwt>
<rscale>  0 0.86739163E+03</rscale>
<asrwt>0</asrwt>
<pdfrwt beam="1">  1        2 0.49146485E+00 0.93820789E+03</pdfrwt>
<pdfrwt beam="2">  1       -2 0.40081210E-01 0.93820789E+03</pdfrwt>
<totfact> 0.79894685E+00</totfact>
</mgrwt>
</event>
<event>
 4    5  0.7289609E-008  0.1284397E+04  0.7818608E-02  0.9079152E-01
          2   -1    0    0  501    0  0.00000000000E+00  0.00000000000E+00  0.26847262520E+04  0.26847262520E+04  0.25500000000E-02 0. -1.
         -2   -1    0    0    0  501 -0.00000000000E+00 -0.00000000000E+00 -0.85534706151E+03  0.85534706151E+03  0.25500000000E-02 0.  1.
    8880023    1    1    2    0    0 -0.21784644307E+03  0.10809299390E+04  0.20365501502E+04  0.24077402947E+04  0.65864270000E+03 0.  0.
    8880022    1    1    2    0    0  0.21784644307E+03 -0.10809299390E+04 -0.20717095979E+03  0.11323330188E+04  0.15294330000E+03 0.  0.
<mgrwt>
<rscale>  0 0.12392810E+04</rscale>
<asrwt>0</asrwt>
<pdfrwt beam="1">  1        2 0.41303481E+00 0.12843975E+04</pdfrwt>
<pdfrwt beam="2">  1       -2 0.13159186E+00 0.12843975E+04</pdfrwt>
<totfact> 0.11092593E+00</totfact>
</mgrwt>
</event>
<event>
 4    5  0.7289609E-008  0.7029275E+03  0.7818608E-02  0.9985267E-01
          2   -1    0    0  501    0  0.00000000000E+00  0.00000000000E+00  0.36701190927E+04  0.36701190927E+04  0.25500000000E-02 0. -1.
         -2   -1    0    0    0  501 -0.00000000000E+00 -0.00000000000E+00 -0.33861640524E+03  0.33861640525E+03  0.25500000000E-02 0.  1.
    8880023    1    1    2    0    0 -0.16684670572E+03  0.18016394344E+03  0.39489447359E+02  0.70403586020E+03  0.65864270000E+03 0.  1.
    8880022    1    1    2    0    0  0.16684670572E+03 -0.18016394344E+03  0.32920132401E+04  0.33046996377E+04  0.15294330000E+03 0.  0.
<mgrwt>
<rscale>  0 0.56301004E+03</rscale>
<asrwt>0</asrwt>
<pdfrwt beam="1">  1        2 0.56463371E+00 0.70292750E+03</pdfrwt>
<pdfrwt beam="2">  1       -2 0.52094831E-01 0.70292750E+03</pdfrwt>
<totfact> 0.23629948E+00</totfact>
</mgrwt>
</event>
<event>
 4    5  0.7289609E-008  0.8037969E+03  0.7818608E-02  0.9702646E-01
         -2   -1    0    0    0  501 -0.00000000000E+00  0.00000000000E+00  0.50974229600E+03  0.50974229600E+03  0.25500000000E-02 0.  1.
          2   -1    0    0  501    0  0.00000000000E+00 -0.00000000000E+00 -0.96252866280E+03  0.96252866281E+03  0.25500000000E-02 0. -1.
    8880023    1    1    2    0    0  0.44424775365E+03 -0.12216052411E+03  0.67232145494E+01  0.80382502334E+03  0.65864270000E+03 0.  0.
    8880022    1    1    2    0    0 -0.44424775365E+03  0.12216052411E+03 -0.45950958136E+03  0.66844593547E+03  0.15294330000E+03 0.  0.
<mgrwt>
<rscale>  0 0.70859486E+03</rscale>
<asrwt>0</asrwt>
<pdfrwt beam="1">  1        2 0.14808133E+00 0.80379691E+03</pdfrwt>
<pdfrwt beam="2">  1       -2 0.78421892E-01 0.80379691E+03</pdfrwt>
<totfact> 0.38921815E+01</totfact>
</mgrwt>
</event>
<event>
 4    5  0.7289609E-008  0.1073510E+04  0.7818608E-02  0.9291138E-01
         -2   -1    0    0    0  501 -0.00000000000E+00  0.00000000000E+00  0.47444568271E+03  0.47444568271E+03  0.25500000000E-02 0.  1.
          2   -1    0    0  501    0  0.00000000000E+00 -0.00000000000E+00 -0.42056738321E+04  0.42056738321E+04  0.25500000000E-02 0. -1.
    8880023    1    1    2    0    0  0.40444458101E+03 -0.74500949417E+03 -0.26127797684E+03  0.11048488372E+04  0.65864270000E+03 0.  1.
    8880022    1    1    2    0    0 -0.40444458101E+03  0.74500949417E+03 -0.34699501726E+04  0.35752706777E+04  0.15294330000E+03 0.  0.
<mgrwt>
<rscale>  0 0.10160280E+04</rscale>
<asrwt>0</asrwt>
<pdfrwt beam="1">  1        2 0.64702672E+00 0.10735105E+04</pdfrwt>
<pdfrwt beam="2">  1       -2 0.72991646E-01 0.10735105E+04</pdfrwt>
<totfact> 0.40808493E-01</totfact>
</mgrwt>
</event>
<event>
 4    5  0.7289609E-008  0.6788485E+03  0.7818608E-02  0.1009983E+00
         -2   -1    0    0    0  501 -0.00000000000E+00  0.00000000000E+00  0.19928962090E+03  0.19928962091E+03  0.25500000000E-02 0.  1.
          2   -1    0    0  501    0  0.00000000000E+00 -0.00000000000E+00 -0.28815700803E+04  0.28815700803E+04  0.25500000000E-02 0. -1.
    8880023    1    1    2    0    0  0.16009714390E+02 -0.16361149951E+03 -0.40076027791E+03  0.78831722063E+03  0.65864270000E+03 0.  1.
    8880022    1    1    2    0    0 -0.16009714390E+02  0.16361149951E+03 -0.22815201815E+04  0.22925424806E+04  0.15294330000E+03 0.  0.
<mgrwt>
<rscale>  0 0.51481527E+03</rscale>
<asrwt>0</asrwt>
<pdfrwt beam="1">  1        2 0.44331844E+00 0.67884847E+03</pdfrwt>
<pdfrwt beam="2">  1       -2 0.30659944E-01 0.67884847E+03</pdfrwt>
<totfact> 0.21682849E+01</totfact>
</mgrwt>
</event>
<event>
 4    5  0.7289609E-008  0.6792894E+03  0.7818608E-02  0.1009728E+00
         -2   -1    0    0    0  501 -0.00000000000E+00  0.00000000000E+00  0.12131089420E+04  0.12131089420E+04  0.25500000000E-02 0.  1.
          2   -1    0    0  501    0  0.00000000000E+00 -0.00000000000E+00 -0.62192800618E+03  0.62192800618E+03  0.25500000000E-02 0. -1.
    8880023    1    1    2    0    0 -0.10489938345E+03 -0.12891881507E+03  0.10917738390E+04  0.12858476828E+04  0.65864270000E+03 0.  1.
    8880022    1    1    2    0    0  0.10489938345E+03  0.12891881507E+03 -0.50059290317E+03  0.54918926541E+03  0.15294330000E+03 0.  0.
<mgrwt>
<rscale>  0 0.51582694E+03</rscale>
<asrwt>0</asrwt>
<pdfrwt beam="1">  1        2 0.95681231E-01 0.67928944E+03</pdfrwt>
<pdfrwt beam="2">  1       -2 0.18663215E+00 0.67928944E+03</pdfrwt>
<totfact> 0.79640865E+00</totfact>
</mgrwt>
</event>
<event>
 4    5  0.7289609E-008  0.1841803E+04  0.7818608E-02  0.8699758E-01
          2   -1    0    0  501    0  0.00000000000E+00  0.00000000000E+00  0.20835609800E+04  0.20835609800E+04  0.25500000000E-02 0. -1.
         -2   -1    0    0    0  501 -0.00000000000E+00 -0.00000000000E+00 -0.18763262913E+04  0.18763262913E+04  0.25500000000E-02 0.  1.
    8880023    1    1    2    0    0  0.13589573929E+04  0.10543548884E+04  0.95903497442E+03  0.20765326183E+04  0.65864270000E+03 0.  0.
    8880022    1    1    2    0    0 -0.13589573929E+04 -0.10543548884E+04 -0.75180028579E+03  0.18833546530E+04  0.15294330000E+03 0.  0.
<mgrwt>
<rscale>  0 0.18123524E+04</rscale>
<asrwt>0</asrwt>
<pdfrwt beam="1">  1        2 0.32054784E+00 0.18418034E+04</pdfrwt>
<pdfrwt beam="2">  1       -2 0.28866558E+00 0.18418034E+04</pdfrwt>
<totfact> 0.20221865E-01</totfact>
</mgrwt>
</event>
<event>
 4    5  0.7289609E-008  0.1070286E+04  0.7818608E-02  0.9294883E-01
          2   -1    0    0  501    0  0.00000000000E+00  0.00000000000E+00  0.96767313472E+03  0.96767313472E+03  0.25500000000E-02 0. -1.
         -2   -1    0    0    0  501 -0.00000000000E+00 -0.00000000000E+00 -0.12094304587E+04  0.12094304587E+04  0.25500000000E-02 0.  1.
    8880023    1    1    2    0    0 -0.45287881734E+03  0.71176077114E+03 -0.62342089679E+03  0.12386147260E+04  0.65864270000E+03 0.  0.
    8880022    1    1    2    0    0  0.45287881734E+03 -0.71176077114E+03  0.38166357281E+03  0.93848886747E+03  0.15294330000E+03 0.  0.
<mgrwt>
<rscale>  0 0.10125532E+04</rscale>
<asrwt>0</asrwt>
<pdfrwt beam="1">  1        2 0.14887279E+00 0.10702863E+04</pdfrwt>
<pdfrwt beam="2">  1       -2 0.18606622E+00 0.10702863E+04</pdfrwt>
<totfact> 0.42888650E+00</totfact>
</mgrwt>
</event>
<event>
 4    5  0.7289609E-008  0.1080040E+04  0.7818608E-02  0.9283611E-01
          2   -1    0    0  501    0  0.00000000000E+00  0.00000000000E+00  0.47593950750E+03  0.47593950750E+03  0.25500000000E-02 0. -1.
         -2   -1    0    0    0  501 -0.00000000000E+00 -0.00000000000E+00 -0.22297515931E+04  0.22297515931E+04  0.25500000000E-02 0.  1.
    8880023    1    1    2    0    0  0.45591055173E+03  0.72444640033E+03 -0.13969831288E+04  0.17657998433E+04  0.65864270000E+03 0.  1.
    8880022    1    1    2    0    0 -0.45591055173E+03 -0.72444640033E+03 -0.35682895677E+03  0.93989125729E+03  0.15294330000E+03 0.  0.
<mgrwt>
<rscale>  0 0.10230578E+04</rscale>
<asrwt>0</asrwt>
<pdfrwt beam="1">  1        2 0.73221464E-01 0.10800404E+04</pdfrwt>
<pdfrwt beam="2">  1       -2 0.34303870E+00 0.10800404E+04</pdfrwt>
<totfact> 0.11266308E+00</totfact>
</mgrwt>
</event>
<event>
 4    5  0.7289609E-008  0.1534404E+04  0.7818608E-02  0.8885716E-01
         -2   -1    0    0    0  501 -0.00000000000E+00  0.00000000000E+00  0.62595199352E+03  0.62595199353E+03  0.25500000000E-02 0.  1.
          2   -1    0    0  501    0  0.00000000000E+00 -0.00000000000E+00 -0.38245900422E+04  0.38245900422E+04  0.25500000000E-02 0. -1.
    8880023    1    1    2    0    0 -0.13038008903E+04 -0.46977652576E+03 -0.94988621803E+03  0.18046276012E+04  0.65864270000E+03 0.  0.
    8880022    1    1    2    0    0  0.13038008903E+04  0.46977652576E+03 -0.22487518306E+04  0.26459144345E+04  0.15294330000E+03 0.  0.
<mgrwt>
<rscale>  0 0.14981018E+04</rscale>
<asrwt>0</asrwt>
<pdfrwt beam="1">  1        2 0.58839845E+00 0.15344044E+04</pdfrwt>
<pdfrwt beam="2">  1       -2 0.96300309E-01 0.15344044E+04</pdfrwt>
<totfact> 0.40913605E-01</totfact>
</mgrwt>
</event>
<event>
 4    5  0.7289609E-008  0.1424787E+04  0.7818608E-02  0.8964658E-01
         -2   -1    0    0    0  501 -0.00000000000E+00  0.00000000000E+00  0.20175562489E+04  0.20175562489E+04  0.25500000000E-02 0.  1.
          2   -1    0    0  501    0  0.00000000000E+00 -0.00000000000E+00 -0.17296902662E+04  0.17296902662E+04  0.25500000000E-02 0. -1.
    8880023    1    1    2    0    0  0.10429882629E+04  0.71301097794E+03  0.14434855972E+04  0.20282184416E+04  0.65864270000E+03 0.  1.
    8880022    1    1    2    0    0 -0.10429882629E+04 -0.71301097794E+03 -0.11556196144E+04  0.17190280735E+04  0.15294330000E+03 0.  0.
<mgrwt>
<rscale>  0 0.13851237E+04</rscale>
<asrwt>0</asrwt>
<pdfrwt beam="1">  1        2 0.26610619E+00 0.14247875E+04</pdfrwt>
<pdfrwt beam="2">  1       -2 0.31039327E+00 0.14247875E+04</pdfrwt>
<totfact> 0.24557083E-01</totfact>
</mgrwt>
</event>
<event>
 4    5  0.7289609E-008  0.6724453E+03  0.7818608E-02  0.1013967E+00
         -2   -1    0    0    0  501 -0.00000000000E+00  0.00000000000E+00  0.39484694563E+03  0.39484694564E+03  0.25500000000E-02 0.  1.
          2   -1    0    0  501    0  0.00000000000E+00 -0.00000000000E+00 -0.80511074052E+03  0.80511074053E+03  0.25500000000E-02 0. -1.
    8880023    1    1    2    0    0  0.79662699015E+02 -0.10966482365E+03  0.71894426749E+02  0.67627770481E+03  0.65864270000E+03 0.  1.
    8880022    1    1    2    0    0 -0.79662699015E+02  0.10966482365E+03 -0.48215822164E+03  0.52367998135E+03  0.15294330000E+03 0.  0.
<mgrwt>
<rscale>  0 0.49927891E+03</rscale>
<asrwt>0</asrwt>
<pdfrwt beam="1">  1        2 0.12386319E+00 0.67244533E+03</pdfrwt>
<pdfrwt beam="2">  1       -2 0.60745684E-01 0.67244533E+03</pdfrwt>
<totfact> 0.87759229E+01</totfact>
</mgrwt>
</event>
<event>
 4    5  0.7289609E-008  0.1363065E+04  0.7818608E-02  0.9012927E-01
          2   -1    0    0  501    0  0.00000000000E+00  0.00000000000E+00  0.27433303970E+04  0.27433303970E+04  0.25500000000E-02 0. -1.
         -2   -1    0    0    0  501 -0.00000000000E+00 -0.00000000000E+00 -0.85644095497E+03  0.85644095497E+03  0.25500000000E-02 0.  1.
    8880023    1    1    2    0    0 -0.10579371113E+04  0.55218097507E+03  0.13317009918E+01  0.13630652004E+04  0.65864270000E+03 0.  0.
    8880022    1    1    2    0    0  0.10579371113E+04 -0.55218097507E+03  0.18855577411E+04  0.22367061516E+04  0.15294330000E+03 0.  0.
<mgrwt>
<rscale>  0 0.13211911E+04</rscale>
<asrwt>0</asrwt>
<pdfrwt beam="1">  1        2 0.42205084E+00 0.13630645E+04</pdfrwt>
<pdfrwt beam="2">  1       -2 0.13176014E+00 0.13630645E+04</pdfrwt>
<totfact> 0.10112921E+00</totfact>
</mgrwt>
</event>
<event>
 4    5  0.7289609E-008  0.9790949E+03  0.7818608E-02  0.9409434E-01
         -2   -1    0    0    0  501 -0.00000000000E+00  0.00000000000E+00  0.44396055904E+03  0.44396055905E+03  0.25500000000E-02 0.  1.
          2   -1    0    0  501    0  0.00000000000E+00 -0.00000000000E+00 -0.21286634929E+04  0.21286634929E+04  0.25500000000E-02 0. -1.
    8880023    1    1    2    0    0 -0.41127823824E+03  0.59637812563E+03 -0.33798399730E+03  0.10357895764E+04  0.65864270000E+03 0.  1.
    8880022    1    1    2    0    0  0.41127823824E+03 -0.59637812563E+03 -0.13467189366E+04  0.15368344755E+04  0.15294330000E+03 0.  0.
<mgrwt>
<rscale>  0 0.91303368E+03</rscale>
<asrwt>0</asrwt>
<pdfrwt beam="1">  1        2 0.32748669E+00 0.97909492E+03</pdfrwt>
<pdfrwt beam="2">  1       -2 0.68301626E-01 0.97909492E+03</pdfrwt>
<totfact> 0.11187053E+01</totfact>
</mgrwt>
</event>
<event>
 4    5  0.7792764E-008  0.9285229E+03  0.7818608E-02  0.9481713E-01
          2   -1    0    0  501    0  0.00000000000E+00  0.00000000000E+00  0.28939532668E+04  0.28939532668E+04  0.25500000000E-02 0. -1.
         -2   -1    0    0    0  501 -0.00000000000E+00 -0.00000000000E+00 -0.12660013850E+04  0.12660013850E+04  0.25500000000E-02 0.  1.
    8880023    1    1    2    0    0 -0.52620763143E+03 -0.38916588481E+03 -0.10484207895E+04  0.14004788165E+04  0.65864270000E+03 0.  1.
    8880022    1    1    2    0    0  0.52620763143E+03  0.38916588481E+03  0.26763726713E+04  0.27594758353E+04  0.15294330000E+03 0.  0.
<mgrwt>
<rscale>  0 0.85645604E+03</rscale>
<asrwt>0</asrwt>
<pdfrwt beam="1">  1        2 0.44522358E+00 0.92852289E+03</pdfrwt>
<pdfrwt beam="2">  1       -2 0.19476944E+00 0.92852289E+03</pdfrwt>
<totfact> 0.30029128E-01</totfact>
</mgrwt>
</event>
<event>
 4    5  0.7289609E-008  0.8510512E+03  0.7818608E-02  0.9609684E-01
          2   -1    0    0  501    0  0.00000000000E+00  0.00000000000E+00  0.18400622131E+04  0.18400622131E+04  0.25500000000E-02 0. -1.
         -2   -1    0    0    0  501 -0.00000000000E+00 -0.00000000000E+00 -0.57780249046E+03  0.57780249046E+03  0.25500000000E-02 0.  1.
    8880023    1    1    2    0    0 -0.53459578609E+03  0.68448536387E+02 -0.18064636078E+03  0.87001216691E+03  0.65864270000E+03 0.  0.
    8880022    1    1    2    0    0  0.53459578609E+03 -0.68448536387E+02  0.14429060834E+04  0.15478525367E+04  0.15294330000E+03 0.  0.
<mgrwt>
<rscale>  0 0.76658513E+03</rscale>
<asrwt>0</asrwt>
<pdfrwt beam="1">  1        2 0.28308649E+00 0.85105115E+03</pdfrwt>
<pdfrwt beam="2">  1       -2 0.88892691E-01 0.85105115E+03</pdfrwt>
<totfact> 0.90694485E+00</totfact>
</mgrwt>
</event>
<event>
 4    5  0.7289609E-008  0.7734501E+03  0.7818608E-02  0.9771454E-01
          2   -1    0    0  501    0  0.00000000000E+00  0.00000000000E+00  0.10918699288E+04  0.10918699288E+04  0.25500000000E-02 0. -1.
         -2   -1    0    0    0  501 -0.00000000000E+00 -0.00000000000E+00 -0.92473356855E+03  0.92473356856E+03  0.25500000000E-02 0.  1.
    8880023    1    1    2    0    0 -0.10789412140E+02 -0.40533746808E+03  0.88669053447E+03  0.11766244875E+04  0.65864270000E+03 0. -1.
    8880022    1    1    2    0    0  0.10789412140E+02  0.40533746808E+03 -0.71955417418E+03  0.83997900988E+03  0.15294330000E+03 0.  0.
<mgrwt>
<rscale>  0 0.66917247E+03</rscale>
<asrwt>0</asrwt>
<pdfrwt beam="1">  1        2 0.16797999E+00 0.77345012E+03</pdfrwt>
<pdfrwt beam="2">  1       -2 0.14226670E+00 0.77345012E+03</pdfrwt>
<totfact> 0.77140584E+00</totfact>
</mgrwt>
</event>
<event>
 4    5  0.7289609E-008  0.7789753E+03  0.7818608E-02  0.9758250E-01
         -2   -1    0    0    0  501 -0.00000000000E+00  0.00000000000E+00  0.24674140745E+03  0.24674140747E+03  0.25500000000E-02 0.  1.
          2   -1    0    0  501    0  0.00000000000E+00 -0.00000000000E+00 -0.15168910618E+04  0.15168910618E+04  0.25500000000E-02 0. -1.
    8880023    1    1    2    0    0  0.27586479488E+03  0.31127311938E+03 -0.85030936684E+03  0.11531819308E+04  0.65864270000E+03 0. -1.
    8880022    1    1    2    0    0 -0.27586479488E+03 -0.31127311938E+03 -0.41984028753E+03  0.61045053850E+03  0.15294330000E+03 0.  1.
<mgrwt>
<rscale>  0 0.67652061E+03</rscale>
<asrwt>0</asrwt>
<pdfrwt beam="1">  1        2 0.23336785E+00 0.77897532E+03</pdfrwt>
<pdfrwt beam="2">  1       -2 0.37960217E-01 0.77897532E+03</pdfrwt>
<totfact> 0.82705576E+01</totfact>
</mgrwt>
</event>
<event>
 4    5  0.7495428E-008  0.1035714E+04  0.7818608E-02  0.9336256E-01
          2   -1    0    0  501    0  0.00000000000E+00  0.00000000000E+00  0.33588136795E+04  0.33588136795E+04  0.25500000000E-02 0. -1.
         -2   -1    0    0    0  501 -0.00000000000E+00 -0.00000000000E+00 -0.11407049134E+04  0.11407049134E+04  0.25500000000E-02 0.  1.
    8880023    1    1    2    0    0  0.73479340463E+03  0.31459737331E+03 -0.84090714190E+03  0.13341019010E+04  0.65864270000E+03 0.  1.
    8880022    1    1    2    0    0 -0.73479340463E+03 -0.31459737331E+03  0.30590159080E+04  0.31654166918E+04  0.15294330000E+03 0.  0.
<mgrwt>
<rscale>  0 0.97512523E+03</rscale>
<asrwt>0</asrwt>
<pdfrwt beam="1">  1        2 0.51674056E+00 0.10357138E+04</pdfrwt>
<pdfrwt beam="2">  1       -2 0.17549307E+00 0.10357138E+04</pdfrwt>
<totfact> 0.20201450E-01</totfact>
</mgrwt>
</event>
<event>
 4    5  0.7289609E-008  0.1276083E+04  0.7818608E-02  0.9086494E-01
         -2   -1    0    0    0  501 -0.00000000000E+00  0.00000000000E+00  0.17752912805E+04  0.17752912805E+04  0.25500000000E-02 0.  1.
          2   -1    0    0  501    0  0.00000000000E+00 -0.00000000000E+00 -0.12240284603E+04  0.12240284603E+04  0.25500000000E-02 0. -1.
    8880023    1    1    2    0    0  0.41486422153E+03 -0.10111706132E+04 -0.59512840839E+03  0.14080363490E+04  0.65864270000E+03 0.  0.
    8880022    1    1    2    0    0 -0.41486422153E+03  0.10111706132E+04  0.11463912286E+04  0.15912833919E+04  0.15294330000E+03 0.  0.
<mgrwt>
<rscale>  0 0.12305913E+04</rscale>
<asrwt>0</asrwt>
<pdfrwt beam="1">  1        2 0.18831207E+00 0.12760833E+04</pdfrwt>
<pdfrwt beam="2">  1       -2 0.27312174E+00 0.12760833E+04</pdfrwt>
<totfact> 0.82082586E-01</totfact>
</mgrwt>
</event>
<event>
 4    5  0.7289609E-008  0.7228631E+03  0.7818608E-02  0.9913015E-01
          2   -1    0    0  501    0  0.00000000000E+00  0.00000000000E+00  0.11044416648E+04  0.11044416648E+04  0.25500000000E-02 0. -1.
         -2   -1    0    0    0  501 -0.00000000000E+00 -0.00000000000E+00 -0.45809706851E+03  0.45809706851E+03  0.25500000000E-02 0.  1.
    8880023    1    1    2    0    0 -0.25466745559E+03  0.15448425824E+03 -0.11394103593E+03  0.73178799178E+03  0.65864270000E+03 0.  1.
    8880022    1    1    2    0    0  0.25466745559E+03 -0.15448425824E+03  0.76028563222E+03  0.83075074153E+03  0.15294330000E+03 0.  0.
<mgrwt>
<rscale>  0 0.59634672E+03</rscale>
<asrwt>0</asrwt>
<pdfrwt beam="1">  1        2 0.16991410E+00 0.72286313E+03</pdfrwt>
<pdfrwt beam="2">  1       -2 0.70476474E-01 0.72286313E+03</pdfrwt>
<totfact> 0.40430445E+01</totfact>
</mgrwt>
</event>
<event>
 4    5  0.7289609E-008  0.7744901E+03  0.7818608E-02  0.9768943E-01
          2   -1    0    0  501    0  0.00000000000E+00  0.00000000000E+00  0.14085658570E+04  0.14085658570E+04  0.25500000000E-02 0. -1.
         -2   -1    0    0    0  501 -0.00000000000E+00 -0.00000000000E+00 -0.58841005108E+03  0.58841005108E+03  0.25500000000E-02 0.  1.
    8880023    1    1    2    0    0 -0.10172680028E+03 -0.39455847839E+03 -0.27234298048E+03  0.82097846503E+03  0.65864270000E+03 0.  1.
    8880022    1    1    2    0    0  0.10172680028E+03  0.39455847839E+03  0.10924987864E+04  0.11759974430E+04  0.15294330000E+03 0.  0.
<mgrwt>
<rscale>  0 0.67056225E+03</rscale>
<asrwt>0</asrwt>
<pdfrwt beam="1">  1        2 0.21670244E+00 0.77449012E+03</pdfrwt>
<pdfrwt beam="2">  1       -2 0.90524623E-01 0.77449012E+03</pdfrwt>
<totfact> 0.15211658E+01</totfact>
</mgrwt>
</event>
<event>
 4    5  0.7289609E-008  0.7389041E+03  0.7818608E-02  0.9863151E-01
         -2   -1    0    0    0  501 -0.00000000000E+00  0.00000000000E+00  0.29435427444E+03  0.29435427446E+03  0.25500000000E-02 0.  1.
          2   -1    0    0  501    0  0.00000000000E+00 -0.00000000000E+00 -0.15197249539E+04  0.15197249539E+04  0.25500000000E-02 0. -1.
    8880023    1    1    2    0    0 -0.94903033254E+02 -0.32118921681E+03 -0.26405641245E+03  0.78466877976E+03  0.65864270000E+03 0.  1.
    8880022    1    1    2    0    0  0.94903033254E+02  0.32118921681E+03 -0.96131426697E+03  0.10294104486E+04  0.15294330000E+03 0.  0.
<mgrwt>
<rscale>  0 0.62080873E+03</rscale>
<asrwt>0</asrwt>
<pdfrwt beam="1">  1        2 0.23380384E+00 0.73890412E+03</pdfrwt>
<pdfrwt beam="2">  1       -2 0.45285274E-01 0.73890412E+03</pdfrwt>
<totfact> 0.58500027E+01</totfact>
</mgrwt>
</event>
<event>
 4    5  0.7289609E-008  0.8315835E+03  0.7818608E-02  0.9646259E-01
          2   -1    0    0  501    0  0.00000000000E+00  0.00000000000E+00  0.14669780792E+04  0.14669780792E+04  0.25500000000E-02 0. -1.
         -2   -1    0    0    0  501 -0.00000000000E+00 -0.00000000000E+00 -0.57567377780E+03  0.57567377781E+03  0.25500000000E-02 0.  1.
    8880023    1    1    2    0    0  0.34742847896E+03 -0.37015444757E+03 -0.17682023808E+03  0.85017437383E+03  0.65864270000E+03 0.  0.
    8880022    1    1    2    0    0 -0.34742847896E+03  0.37015444757E+03  0.10681245394E+04  0.11924774832E+04  0.15294330000E+03 0.  0.
<mgrwt>
<rscale>  0 0.74308656E+03</rscale>
<asrwt>0</asrwt>
<pdfrwt beam="1">  1        2 0.22568893E+00 0.83158347E+03</pdfrwt>
<pdfrwt beam="2">  1       -2 0.88565197E-01 0.83158347E+03</pdfrwt>
<totfact> 0.14733194E+01</totfact>
</mgrwt>
</event>
<event>
 4    5  0.7289609E-008  0.1548695E+04  0.7818608E-02  0.8875995E-01
         -2   -1    0    0    0  501 -0.00000000000E+00  0.00000000000E+00  0.13660383400E+04  0.13660383400E+04  0.25500000000E-02 0.  1.
          2   -1    0    0  501    0  0.00000000000E+00 -0.00000000000E+00 -0.21027928211E+04  0.21027928211E+04  0.25500000000E-02 0. -1.
    8880023    1    1    2    0    0  0.13703112818E+04  0.29477687638E+03 -0.12272159422E+04  0.19759847143E+04  0.65864270000E+03 0.  0.
    8880022    1    1    2    0    0 -0.13703112818E+04 -0.29477687638E+03  0.49046146107E+03  0.14928464468E+04  0.15294330000E+03 0.  0.
<mgrwt>
<rscale>  0 0.15127861E+04</rscale>
<asrwt>0</asrwt>
<pdfrwt beam="1">  1        2 0.32350659E+00 0.15486951E+04</pdfrwt>
<pdfrwt beam="2">  1       -2 0.21015975E+00 0.15486951E+04</pdfrwt>
<totfact> 0.62464811E-01</totfact>
</mgrwt>
</event>
<event>
 4    5  0.7289609E-008  0.8101424E+03  0.7818608E-02  0.9689280E-01
         -2   -1    0    0    0  501 -0.00000000000E+00  0.00000000000E+00  0.12452038216E+04  0.12452038216E+04  0.25500000000E-02 0.  1.
          2   -1    0    0  501    0  0.00000000000E+00 -0.00000000000E+00 -0.73727974502E+03  0.73727974503E+03  0.25500000000E-02 0. -1.
    8880023    1    1    2    0    0  0.46459838887E+03 -0.81663073339E+02  0.99790045003E+03  0.12853544394E+04  0.65864270000E+03 0.  1.
    8880022    1    1    2    0    0 -0.46459838887E+03  0.81663073339E+02 -0.48997637343E+03  0.69712912723E+03  0.15294330000E+03 0.  0.
<mgrwt>
<rscale>  0 0.71658635E+03</rscale>
<asrwt>0</asrwt>
<pdfrwt beam="1">  1        2 0.11342766E+00 0.81014241E+03</pdfrwt>
<pdfrwt beam="2">  1       -2 0.19156982E+00 0.81014241E+03</pdfrwt>
<totfact> 0.58738735E+00</totfact>
</mgrwt>
</event>
<event>
 4    5  0.7289609E-008  0.8275637E+03  0.7818608E-02  0.9654091E-01
         -2   -1    0    0    0  501 -0.00000000000E+00  0.00000000000E+00  0.81165753821E+03  0.81165753822E+03  0.25500000000E-02 0.  1.
          2   -1    0    0  501    0  0.00000000000E+00 -0.00000000000E+00 -0.66482025917E+03  0.66482025918E+03  0.25500000000E-02 0. -1.
    8880023    1    1    2    0    0  0.32421016987E+03  0.38201994088E+03  0.37067697627E+03  0.90678723881E+03  0.65864270000E+03 0.  0.
    8880022    1    1    2    0    0 -0.32421016987E+03 -0.38201994088E+03 -0.22383969723E+03  0.56969055859E+03  0.15294330000E+03 0.  0.
<mgrwt>
<rscale>  0 0.73817209E+03</rscale>
<asrwt>0</asrwt>
<pdfrwt beam="1">  1        2 0.10228004E+00 0.82756370E+03</pdfrwt>
<pdfrwt beam="2">  1       -2 0.12487039E+00 0.82756370E+03</pdfrwt>
<totfact> 0.21160897E+01</totfact>
</mgrwt>
</event>
<event>
 4    5  0.7289609E-008  0.1199691E+04  0.7818608E-02  0.9157423E-01
          2   -1    0    0  501    0  0.00000000000E+00  0.00000000000E+00  0.35350865809E+04  0.35350865809E+04  0.25500000000E-02 0. -1.
         -2   -1    0    0    0  501 -0.00000000000E+00 -0.00000000000E+00 -0.41511947281E+03  0.41511947281E+03  0.25500000000E-02 0.  1.
    8880023    1    1    2    0    0 -0.20504539496E+03  0.98153196373E+03  0.24688125353E+04  0.27448668730E+04  0.65864270000E+03 0.  0.
    8880022    1    1    2    0    0  0.20504539496E+03 -0.98153196373E+03  0.65115457274E+03  0.12053391807E+04  0.15294330000E+03 0.  0.
<mgrwt>
<rscale>  0 0.11503913E+04</rscale>
<asrwt>0</asrwt>
<pdfrwt beam="1">  1        2 0.54385949E+00 0.11996911E+04</pdfrwt>
<pdfrwt beam="2">  1       -2 0.63864532E-01 0.11996911E+04</pdfrwt>
<totfact> 0.17533342E+00</totfact>
</mgrwt>
</event>
<event>
 4    5  0.7289609E-008  0.9167255E+03  0.7818608E-02  0.9499698E-01
          2   -1    0    0  501    0  0.00000000000E+00  0.00000000000E+00  0.24650472537E+04  0.24650472537E+04  0.25500000000E-02 0. -1.
         -2   -1    0    0    0  501 -0.00000000000E+00 -0.00000000000E+00 -0.55119912322E+03  0.55119912323E+03  0.25500000000E-02 0.  1.
    8880023    1    1    2    0    0  0.27899558317E+03  0.57335574818E+03 -0.77230833491E+02  0.91997291118E+03  0.65864270000E+03 0.  1.
    8880022    1    1    2    0    0 -0.27899558317E+03 -0.57335574818E+03  0.19910789640E+04  0.20962734657E+04  0.15294330000E+03 0.  0.
<mgrwt>
<rscale>  0 0.84306073E+03</rscale>
<asrwt>0</asrwt>
<pdfrwt beam="1">  1        2 0.37923804E+00 0.91672545E+03</pdfrwt>
<pdfrwt beam="2">  1       -2 0.84799865E-01 0.91672545E+03</pdfrwt>
<totfact> 0.45108047E+00</totfact>
</mgrwt>
</event>
<event>
 4    5  0.7289609E-008  0.6813725E+03  0.7818608E-02  0.1008558E+00
         -2   -1    0    0    0  501 -0.00000000000E+00  0.00000000000E+00  0.47663322075E+03  0.47663322076E+03  0.25500000000E-02 0.  1.
          2   -1    0    0  501    0  0.00000000000E+00 -0.00000000000E+00 -0.94906201509E+03  0.94906201510E+03  0.25500000000E-02 0. -1.
    8880023    1    1    2    0    0 -0.17449465871E+03 -0.31409089223E+01  0.20344271078E+03  0.71109591059E+03  0.65864270000E+03 0.  1.
    8880022    1    1    2    0    0  0.17449465871E+03  0.31409089223E+01 -0.67587150512E+03  0.71459932527E+03  0.15294330000E+03 0.  0.
<mgrwt>
<rscale>  0 0.52051897E+03</rscale>
<asrwt>0</asrwt>
<pdfrwt beam="1">  1        2 0.14600954E+00 0.68137248E+03</pdfrwt>
<pdfrwt beam="2">  1       -2 0.73328188E-01 0.68137248E+03</pdfrwt>
<totfact> 0.46614320E+01</totfact>
</mgrwt>
</event>
<event>
 4    5  0.7289609E-008  0.7838307E+03  0.7818608E-02  0.9746914E-01
         -2   -1    0    0    0  501 -0.00000000000E+00  0.00000000000E+00  0.10675394908E+04  0.10675394908E+04  0.25500000000E-02 0.  1.
          2   -1    0    0  501    0  0.00000000000E+00 -0.00000000000E+00 -0.38502750791E+03  0.38502750792E+03  0.25500000000E-02 0. -1.
    8880023    1    1    2    0    0 -0.70064525585E+02 -0.41913162424E+03  0.61417862072E+03  0.99579412561E+03  0.65864270000E+03 0.  1.
    8880022    1    1    2    0    0  0.70064525585E+02  0.41913162424E+03  0.68333362128E+02  0.45677287308E+03  0.15294330000E+03 0.  0.
<mgrwt>
<rscale>  0 0.68290929E+03</rscale>
<asrwt>0</asrwt>
<pdfrwt beam="1">  1        2 0.59235002E-01 0.78383070E+03</pdfrwt>
<pdfrwt beam="2">  1       -2 0.16423684E+00 0.78383070E+03</pdfrwt>
<totfact> 0.19683139E+01</totfact>
</mgrwt>
</event>
<event>
 4    5  0.7289609E-008  0.6689678E+03  0.7818608E-02  0.1016414E+00
         -2   -1    0    0    0  501 -0.00000000000E+00  0.00000000000E+00  0.18618713336E+03  0.18618713338E+03  0.25500000000E-02 0.  1.
          2   -1    0    0  501    0  0.00000000000E+00 -0.00000000000E+00 -0.27533961600E+04  0.27533961600E+04  0.25500000000E-02 0. -1.
    8880023    1    1    2    0    0 -0.34886072018E+02  0.11176149999E+03 -0.43338213368E+03  0.79708089361E+03  0.65864270000E+03 0.  1.
    8880022    1    1    2    0    0  0.34886072018E+02 -0.11176149999E+03 -0.21338268930E+04  0.21425023998E+04  0.15294330000E+03 0.  0.
<mgrwt>
<rscale>  0 0.49003223E+03</rscale>
<asrwt>0</asrwt>
<pdfrwt beam="1">  1        2 0.42359938E+00 0.66896777E+03</pdfrwt>
<pdfrwt beam="2">  1       -2 0.28644176E-01 0.66896777E+03</pdfrwt>
<totfact> 0.29324504E+01</totfact>
</mgrwt>
</event>
<event>
 4    5  0.7289609E-008  0.8223401E+03  0.7818608E-02  0.9664424E-01
         -2   -1    0    0    0  501 -0.00000000000E+00  0.00000000000E+00  0.10256915701E+04  0.10256915701E+04  0.25500000000E-02 0.  1.
          2   -1    0    0  501    0  0.00000000000E+00 -0.00000000000E+00 -0.15024829474E+04  0.15024829474E+04  0.25500000000E-02 0. -1.
    8880023    1    1    2    0    0 -0.36565971197E+03  0.32973627083E+03  0.80242263759E+03  0.11489670704E+04  0.65864270000E+03 0.  0.
    8880022    1    1    2    0    0  0.36565971197E+03 -0.32973627083E+03 -0.12792140149E+04  0.13792074471E+04  0.15294330000E+03 0. -1.
<mgrwt>
<rscale>  0 0.73175048E+03</rscale>
<asrwt>0</asrwt>
<pdfrwt beam="1">  1        2 0.23115122E+00 0.82234010E+03</pdfrwt>
<pdfrwt beam="2">  1       -2 0.15779870E+00 0.82234010E+03</pdfrwt>
<totfact> 0.33624397E+00</totfact>
</mgrwt>
</event>
<event>
 4    5  0.7289609E-008  0.9564274E+03  0.7818608E-02  0.9440926E-01
          2   -1    0    0  501    0  0.00000000000E+00  0.00000000000E+00  0.83164671635E+03  0.83164671635E+03  0.25500000000E-02 0. -1.
         -2   -1    0    0    0  501 -0.00000000000E+00 -0.00000000000E+00 -0.14045172846E+04  0.14045172847E+04  0.25500000000E-02 0.  1.
    8880023    1    1    2    0    0  0.61746103882E+03  0.31572945486E+03  0.39577250775E+03  0.10350793725E+04  0.65864270000E+03 0.  0.
    8880022    1    1    2    0    0 -0.61746103882E+03 -0.31572945486E+03 -0.96864307605E+03  0.12010846285E+04  0.15294330000E+03 0.  0.
<mgrwt>
<rscale>  0 0.88782811E+03</rscale>
<asrwt>0</asrwt>
<pdfrwt beam="1">  1        2 0.12794565E+00 0.95642743E+03</pdfrwt>
<pdfrwt beam="2">  1       -2 0.21607958E+00 0.95642743E+03</pdfrwt>
<totfact> 0.34176372E+00</totfact>
</mgrwt>
</event>
<event>
 4    5  0.7289609E-008  0.6994124E+03  0.7818608E-02  0.9999647E-01
          2   -1    0    0  501    0  0.00000000000E+00  0.00000000000E+00  0.60013226932E+03  0.60013226933E+03  0.25500000000E-02 0. -1.
         -2   -1    0    0    0  501 -0.00000000000E+00 -0.00000000000E+00 -0.13596914562E+04  0.13596914562E+04  0.25500000000E-02 0.  1.
    8880023    1    1    2    0    0  0.11328552915E+03 -0.20623748024E+03 -0.12283131587E+04  0.14134818468E+04  0.65864270000E+03 0.  1.
    8880022    1    1    2    0    0 -0.11328552915E+03  0.20623748024E+03  0.46875397176E+03  0.54634187870E+03  0.15294330000E+03 0.  0.
<mgrwt>
<rscale>  0 0.55665695E+03</rscale>
<asrwt>0</asrwt>
<pdfrwt beam="1">  1        2 0.92328042E-01 0.69941241E+03</pdfrwt>
<pdfrwt beam="2">  1       -2 0.20918330E+00 0.69941241E+03</pdfrwt>
<totfact> 0.59094378E+00</totfact>
</mgrwt>
</event>
<event>
 4    5  0.7289609E-008  0.6937298E+03  0.7818608E-02  0.1002428E+00
         -2   -1    0    0    0  501 -0.00000000000E+00  0.00000000000E+00  0.87332876667E+03  0.87332876667E+03  0.25500000000E-02 0.  1.
          2   -1    0    0  501    0  0.00000000000E+00 -0.00000000000E+00 -0.68290344883E+03  0.68290344884E+03  0.25500000000E-02 0. -1.
    8880023    1    1    2    0    0 -0.11404750375E+03  0.18559092000E+03  0.69737228209E+03  0.98366108431E+03  0.65864270000E+03 0.  1.
    8880022    1    1    2    0    0  0.11404750375E+03 -0.18559092000E+03 -0.50694696426E+03  0.57257113120E+03  0.15294330000E+03 0.  0.
<mgrwt>
<rscale>  0 0.54598345E+03</rscale>
<asrwt>0</asrwt>
<pdfrwt beam="1">  1        2 0.10506207E+00 0.69372980E+03</pdfrwt>
<pdfrwt beam="2">  1       -2 0.13435827E+00 0.69372980E+03</pdfrwt>
<totfact> 0.17217984E+01</totfact>
</mgrwt>
</event>
<event>
 4    5  0.7289609E-008  0.6759934E+03  0.7818608E-02  0.1011687E+00
         -2   -1    0    0    0  501 -0.00000000000E+00  0.00000000000E+00  0.23203488118E+03  0.23203488119E+03  0.25500000000E-02 0.  1.
          2   -1    0    0  501    0  0.00000000000E+00 -0.00000000000E+00 -0.14818825370E+04  0.14818825370E+04  0.25500000000E-02 0. -1.
    8880023    1    1    2    0    0  0.66644566298E+02 -0.13680396139E+03 -0.29946897531E+03  0.73935694729E+03  0.65864270000E+03 0.  1.
    8880022    1    1    2    0    0 -0.66644566298E+02  0.13680396139E+03 -0.95037868050E+03  0.97456047090E+03  0.15294330000E+03 0.  0.
<mgrwt>
<rscale>  0 0.50809510E+03</rscale>
<asrwt>0</asrwt>
<pdfrwt beam="1">  1        2 0.22798192E+00 0.67599336E+03</pdfrwt>
<pdfrwt beam="2">  1       -2 0.35697675E-01 0.67599336E+03</pdfrwt>
<totfact> 0.98295559E+01</totfact>
</mgrwt>
</event>
<event>
 4    5  0.1015433E-007  0.1072593E+04  0.7818608E-02  0.9292202E-01
          2   -1    0    0  501    0  0.00000000000E+00  0.00000000000E+00  0.21405255635E+04  0.21405255635E+04  0.25500000000E-02 0. -1.
         -2   -1    0    0    0  501 -0.00000000000E+00 -0.00000000000E+00 -0.12635019426E+04  0.12635019426E+04  0.25500000000E-02 0.  1.
    8880023    1    1    2    0    0 -0.59306367749E+03 -0.60408647167E+03 -0.91910378529E+03  0.14125179522E+04  0.65864270000E+03 0.  1.
    8880022    1    1    2    0    0  0.59306367749E+03  0.60408647167E+03  0.17961274062E+04  0.19915095539E+04  0.15294330000E+03 0.  0.
<mgrwt>
<rscale>  0 0.10150392E+04</rscale>
<asrwt>0</asrwt>
<pdfrwt beam="1">  1        2 0.32931162E+00 0.10725927E+04</pdfrwt>
<pdfrwt beam="2">  1       -2 0.19438491E+00 0.10725927E+04</pdfrwt>
<totfact> 0.79937477E-01</totfact>
</mgrwt>
</event>
<event>
 4    5  0.7289609E-008  0.9062304E+03  0.7818608E-02  0.9516103E-01
         -2   -1    0    0    0  501 -0.00000000000E+00  0.00000000000E+00  0.33126022443E+03  0.33126022444E+03  0.25500000000E-02 0.  1.
          2   -1    0    0  501    0  0.00000000000E+00 -0.00000000000E+00 -0.23477684257E+04  0.23477684257E+04  0.25500000000E-02 0. -1.
    8880023    1    1    2    0    0  0.16026846182E+03 -0.60146269715E+03 -0.50547313709E+03  0.10376688559E+04  0.65864270000E+03 0.  0.
    8880022    1    1    2    0    0 -0.16026846182E+03  0.60146269715E+03 -0.15110350642E+04  0.16413597942E+04  0.15294330000E+03 0.  0.
<mgrwt>
<rscale>  0 0.83106962E+03</rscale>
<asrwt>0</asrwt>
<pdfrwt beam="1">  1        2 0.36119513E+00 0.90623041E+03</pdfrwt>
<pdfrwt beam="2">  1       -2 0.50963113E-01 0.90623041E+03</pdfrwt>
<totfact> 0.15818397E+01</totfact>
</mgrwt>
</event>
<event>
 4    5  0.7289609E-008  0.8058499E+03  0.7818608E-02  0.9698287E-01
         -2   -1    0    0    0  501 -0.00000000000E+00  0.00000000000E+00  0.19375820453E+04  0.19375820453E+04  0.25500000000E-02 0.  1.
          2   -1    0    0  501    0  0.00000000000E+00 -0.00000000000E+00 -0.22893053506E+03  0.22893053507E+03  0.25500000000E-02 0. -1.
    8880023    1    1    2    0    0  0.36638681045E+03  0.28520964089E+03  0.80462820162E+03  0.11387803051E+04  0.65864270000E+03 0.  0.
    8880022    1    1    2    0    0 -0.36638681045E+03 -0.28520964089E+03  0.90402330861E+03  0.10277322753E+04  0.15294330000E+03 0.  0.
<mgrwt>
<rscale>  0 0.71118859E+03</rscale>
<asrwt>0</asrwt>
<pdfrwt beam="1">  1        2 0.35220081E-01 0.80584989E+03</pdfrwt>
<pdfrwt beam="2">  1       -2 0.29808956E+00 0.80584989E+03</pdfrwt>
<totfact> 0.50010913E+00</totfact>
</mgrwt>
</event>
<event>
 4    5  0.7289609E-008  0.1728460E+04  0.7818608E-02  0.8763177E-01
          2   -1    0    0  501    0  0.00000000000E+00  0.00000000000E+00  0.31703951173E+04  0.31703951173E+04  0.25500000000E-02 0. -1.
         -2   -1    0    0    0  501 -0.00000000000E+00 -0.00000000000E+00 -0.24692092633E+04  0.24692092633E+04  0.25500000000E-02 0.  1.
    8880023    1    1    2    0    0 -0.10701131831E+04 -0.11868540939E+04  0.26193872266E+04  0.31382741298E+04  0.65864270000E+03 0.  0.
    8880022    1    1    2    0    0  0.10701131831E+04  0.11868540939E+04 -0.19182013726E+04  0.25013302508E+04  0.15294330000E+03 0.  0.
<mgrwt>
<rscale>  0 0.16968254E+04</rscale>
<asrwt>0</asrwt>
<pdfrwt beam="1">  1        2 0.48775309E+00 0.17284603E+04</pdfrwt>
<pdfrwt beam="2">  1       -2 0.37987835E+00 0.17284603E+04</pdfrwt>
<totfact> 0.12405457E-02</totfact>
</mgrwt>
</event>
<event>
 4    5  0.7289609E-008  0.1367613E+04  0.7818608E-02  0.9009266E-01
         -2   -1    0    0    0  501 -0.00000000000E+00  0.00000000000E+00  0.10147972364E+04  0.10147972364E+04  0.25500000000E-02 0.  1.
          2   -1    0    0  501    0  0.00000000000E+00 -0.00000000000E+00 -0.24815253661E+04  0.24815253661E+04  0.25500000000E-02 0. -1.
    8880023    1    1    2    0    0  0.43638945560E+03 -0.11162968854E+04  0.25673472781E+03  0.13915018577E+04  0.65864270000E+03 0.  1.
    8880022    1    1    2    0    0 -0.43638945560E+03  0.11162968854E+04 -0.17234628575E+04  0.21048207448E+04  0.15294330000E+03 0.  0.
<mgrwt>
<rscale>  0 0.13259113E+04</rscale>
<asrwt>0</asrwt>
<pdfrwt beam="1">  1        2 0.38177313E+00 0.13676128E+04</pdfrwt>
<pdfrwt beam="2">  1       -2 0.15612265E+00 0.13676128E+04</pdfrwt>
<totfact> 0.91983060E-01</totfact>
</mgrwt>
</event>
<event>
 4    5  0.7289609E-008  0.6798520E+03  0.7818608E-02  0.1009407E+00
         -2   -1    0    0    0  501 -0.00000000000E+00  0.00000000000E+00  0.19717797181E+03  0.19717797182E+03  0.25500000000E-02 0.  1.
          2   -1    0    0  501    0  0.00000000000E+00 -0.00000000000E+00 -0.12941781826E+04  0.12941781826E+04  0.25500000000E-02 0. -1.
    8880023    1    1    2    0    0  0.15511209088E+03 -0.65793480002E+02 -0.47585455151E+03  0.82984113131E+03  0.65864270000E+03 0.  1.
    8880022    1    1    2    0    0 -0.15511209088E+03  0.65793480002E+02 -0.62114565923E+03  0.66151502307E+03  0.15294330000E+03 0.  0.
<mgrwt>
<rscale>  0 0.51710799E+03</rscale>
<asrwt>0</asrwt>
<pdfrwt beam="1">  1        2 0.19910433E+00 0.67985201E+03</pdfrwt>
<pdfrwt beam="2">  1       -2 0.30335073E-01 0.67985201E+03</pdfrwt>
<totfact> 0.17039709E+02</totfact>
</mgrwt>
</event>
<event>
 4    5  0.7289609E-008  0.8476776E+03  0.7818608E-02  0.9615870E-01
         -2   -1    0    0    0  501 -0.00000000000E+00  0.00000000000E+00  0.10615922660E+04  0.10615922660E+04  0.25500000000E-02 0.  1.
          2   -1    0    0  501    0  0.00000000000E+00 -0.00000000000E+00 -0.79686399932E+03  0.79686399932E+03  0.25500000000E-02 0. -1.
    8880023    1    1    2    0    0  0.13874058458E+02  0.53343655724E+03  0.74187263475E+03  0.11264689355E+04  0.65864270000E+03 0.  1.
    8880022    1    1    2    0    0 -0.13874058458E+02 -0.53343655724E+03 -0.47714436807E+03  0.73198732987E+03  0.15294330000E+03 0.  0.
<mgrwt>
<rscale>  0 0.76254644E+03</rscale>
<asrwt>0</asrwt>
<pdfrwt beam="1">  1        2 0.12259446E+00 0.84767757E+03</pdfrwt>
<pdfrwt beam="2">  1       -2 0.16332189E+00 0.84767757E+03</pdfrwt>
<totfact> 0.82975941E+00</totfact>
</mgrwt>
</event>
<event>
 4    5  0.7289609E-008  0.7304441E+03  0.7818608E-02  0.9888712E-01
         -2   -1    0    0    0  501 -0.00000000000E+00  0.00000000000E+00  0.12337890584E+04  0.12337890584E+04  0.25500000000E-02 0.  1.
          2   -1    0    0  501    0  0.00000000000E+00 -0.00000000000E+00 -0.55547523296E+03  0.55547523297E+03  0.25500000000E-02 0. -1.
    8880023    1    1    2    0    0  0.12016318289E+03  0.29206025415E+03  0.10493712870E+04  0.12785650890E+04  0.65864270000E+03 0.  1.
    8880022    1    1    2    0    0 -0.12016318289E+03 -0.29206025415E+03 -0.37105746152E+03  0.51069920241E+03  0.15294330000E+03 0.  0.
<mgrwt>
<rscale>  0 0.60811504E+03</rscale>
<asrwt>0</asrwt>
<pdfrwt beam="1">  1        2 0.85457729E-01 0.73044410E+03</pdfrwt>
<pdfrwt beam="2">  1       -2 0.18981370E+00 0.73044410E+03</pdfrwt>
<totfact> 0.86309469E+00</totfact>
</mgrwt>
</event>
<event>
 4    5  0.7289609E-008  0.9194447E+03  0.7818608E-02  0.9495511E-01
          2   -1    0    0  501    0  0.00000000000E+00  0.00000000000E+00  0.12143751605E+04  0.12143751605E+04  0.25500000000E-02 0. -1.
         -2   -1    0    0    0  501 -0.00000000000E+00 -0.00000000000E+00 -0.15516428384E+04  0.15516428384E+04  0.25500000000E-02 0.  1.
    8880023    1    1    2    0    0 -0.59850799372E+03 -0.23099024788E+03 -0.13041178130E+04  0.15956508984E+04  0.65864270000E+03 0.  1.
    8880022    1    1    2    0    0  0.59850799372E+03  0.23099024788E+03  0.96685013510E+03  0.11703671005E+04  0.15294330000E+03 0.  0.
<mgrwt>
<rscale>  0 0.84615586E+03</rscale>
<asrwt>0</asrwt>
<pdfrwt beam="1">  1        2 0.18682695E+00 0.91944468E+03</pdfrwt>
<pdfrwt beam="2">  1       -2 0.23871428E+00 0.91944468E+03</pdfrwt>
<totfact> 0.14106060E+00</totfact>
</mgrwt>
</event>
<event>
 4    5  0.7289609E-008  0.1404635E+04  0.7818608E-02  0.8980089E-01
         -2   -1    0    0    0  501 -0.00000000000E+00  0.00000000000E+00  0.80903230626E+03  0.80903230627E+03  0.25500000000E-02 0.  1.
          2   -1    0    0  501    0  0.00000000000E+00 -0.00000000000E+00 -0.24321575469E+04  0.24321575469E+04  0.25500000000E-02 0. -1.
    8880023    1    1    2    0    0 -0.11530053945E+04 -0.45800491157E+03 -0.33047256578E+03  0.14429872701E+04  0.65864270000E+03 0.  0.
    8880022    1    1    2    0    0  0.11530053945E+04  0.45800491157E+03 -0.12926526749E+04  0.17982025830E+04  0.15294330000E+03 0.  0.
<mgrwt>
<rscale>  0 0.13642784E+04</rscale>
<asrwt>0</asrwt>
<pdfrwt beam="1">  1        2 0.37417808E+00 0.14046352E+04</pdfrwt>
<pdfrwt beam="2">  1       -2 0.12446651E+00 0.14046352E+04</pdfrwt>
<totfact> 0.17683607E+00</totfact>
</mgrwt>
</event>
<event>
 4    5  0.7289609E-008  0.8856555E+03  0.7818608E-02  0.9549463E-01
         -2   -1    0    0    0  501 -0.00000000000E+00  0.00000000000E+00  0.41425860266E+03  0.41425860267E+03  0.25500000000E-02 0.  1.
          2   -1    0    0  501    0  0.00000000000E+00 -0.00000000000E+00 -0.15970511993E+04  0.15970511993E+04  0.25500000000E-02 0. -1.
    8880023    1    1    2    0    0  0.22043254388E+03  0.54953153095E+03 -0.29541639739E+03  0.93362544097E+03  0.65864270000E+03 0.  0.
    8880022    1    1    2    0    0 -0.22043254388E+03 -0.54953153095E+03 -0.88737619922E+03  0.10776843610E+04  0.15294330000E+03 0.  0.
<mgrwt>
<rscale>  0 0.80733313E+03</rscale>
<asrwt>0</asrwt>
<pdfrwt beam="1">  1        2 0.24570018E+00 0.88565547E+03</pdfrwt>
<pdfrwt beam="2">  1       -2 0.63732093E-01 0.88565547E+03</pdfrwt>
<totfact> 0.25750468E+01</totfact>
</mgrwt>
</event>
<event>
 4    5  0.7289609E-008  0.1363515E+04  0.7818608E-02  0.9012564E-01
          2   -1    0    0  501    0  0.00000000000E+00  0.00000000000E+00  0.10777138018E+04  0.10777138018E+04  0.25500000000E-02 0. -1.
         -2   -1    0    0    0  501 -0.00000000000E+00 -0.00000000000E+00 -0.16431823795E+04  0.16431823795E+04  0.25500000000E-02 0.  1.
    8880023    1    1    2    0    0  0.68124653275E+03  0.98044140859E+03 -0.65745676257E+03  0.15137442964E+04  0.65864270000E+03 0.  0.
    8880022    1    1    2    0    0 -0.68124653275E+03 -0.98044140859E+03  0.91988184873E+02  0.12071518849E+04  0.15294330000E+03 0.  0.
<mgrwt>
<rscale>  0 0.13216583E+04</rscale>
<asrwt>0</asrwt>
<pdfrwt beam="1">  1        2 0.16580212E+00 0.13635147E+04</pdfrwt>
<pdfrwt beam="2">  1       -2 0.25279729E+00 0.13635147E+04</pdfrwt>
<totfact> 0.13305163E+00</totfact>
</mgrwt>
</event>
<event>
 4    5  0.7289609E-008  0.7710604E+03  0.7818608E-02  0.9777271E-01
          2   -1    0    0  501    0  0.00000000000E+00  0.00000000000E+00  0.15788044131E+04  0.15788044132E+04  0.25500000000E-02 0. -1.
         -2   -1    0    0    0  501 -0.00000000000E+00 -0.00000000000E+00 -0.54264061423E+03  0.54264061424E+03  0.25500000000E-02 0.  1.
    8880023    1    1    2    0    0 -0.25950857640E+03 -0.30558021133E+03 -0.21357783352E+03  0.80009353454E+03  0.65864270000E+03 0.  0.
    8880022    1    1    2    0    0  0.25950857640E+03  0.30558021133E+03  0.12497416324E+04  0.13213514928E+04  0.15294330000E+03 0. -1.
<mgrwt>
<rscale>  0 0.66596689E+03</rscale>
<asrwt>0</asrwt>
<pdfrwt beam="1">  1        2 0.24289298E+00 0.77106042E+03</pdfrwt>
<pdfrwt beam="2">  1       -2 0.83483174E-01 0.77106042E+03</pdfrwt>
<totfact> 0.14718169E+01</totfact>
</mgrwt>
</event>
<event>
 4    5  0.7289609E-008  0.6919203E+03  0.7818608E-02  0.1003253E+00
          2   -1    0    0  501    0  0.00000000000E+00  0.00000000000E+00  0.11774306795E+04  0.11774306795E+04  0.25500000000E-02 0. -1.
         -2   -1    0    0    0  501 -0.00000000000E+00 -0.00000000000E+00 -0.32446711549E+03  0.32446711550E+03  0.25500000000E-02 0.  1.
    8880023    1    1    2    0    0  0.62362060414E+02  0.20261885614E+03  0.92890323652E+02  0.69812767166E+03  0.65864270000E+03 0.  1.
    8880022    1    1    2    0    0 -0.62362060414E+02 -0.20261885614E+03  0.76007324032E+03  0.80377012330E+03  0.15294330000E+03 0.  0.
<mgrwt>
<rscale>  0 0.54246596E+03</rscale>
<asrwt>0</asrwt>
<pdfrwt beam="1">  1        2 0.18114318E+00 0.69192025E+03</pdfrwt>
<pdfrwt beam="2">  1       -2 0.49918017E-01 0.69192025E+03</pdfrwt>
<totfact> 0.75785533E+01</totfact>
</mgrwt>
</event>
<event>
 4    5  0.7289609E-008  0.8280722E+03  0.7818608E-02  0.9653095E-01
          2   -1    0    0  501    0  0.00000000000E+00  0.00000000000E+00  0.65854125415E+03  0.65854125415E+03  0.25500000000E-02 0. -1.
         -2   -1    0    0    0  501 -0.00000000000E+00 -0.00000000000E+00 -0.22364711236E+04  0.22364711236E+04  0.25500000000E-02 0.  1.
    8880023    1    1    2    0    0  0.31285958871E+03  0.39244398960E+03 -0.20363523130E+04  0.21982798631E+04  0.65864270000E+03 0.  1.
    8880022    1    1    2    0    0 -0.31285958871E+03 -0.39244398960E+03  0.45842244360E+03  0.69673251470E+03  0.15294330000E+03 0.  0.
<mgrwt>
<rscale>  0 0.73879508E+03</rscale>
<asrwt>0</asrwt>
<pdfrwt beam="1">  1        2 0.10131404E+00 0.82807223E+03</pdfrwt>
<pdfrwt beam="2">  1       -2 0.34407248E+00 0.82807223E+03</pdfrwt>
<totfact> 0.77950267E-01</totfact>
</mgrwt>
</event>
<event>
 4    5  0.7289609E-008  0.7284711E+03  0.7818608E-02  0.9894900E-01
          2   -1    0    0  501    0  0.00000000000E+00  0.00000000000E+00  0.24840353813E+04  0.24840353813E+04  0.25500000000E-02 0. -1.
         -2   -1    0    0    0  501 -0.00000000000E+00 -0.00000000000E+00 -0.78277645203E+03  0.78277645203E+03  0.25500000000E-02 0.  1.
    8880023    1    1    2    0    0  0.99232945027E+02  0.29497934444E+03 -0.59742509665E+03  0.94211832771E+03  0.65864270000E+03 0.  1.
    8880022    1    1    2    0    0 -0.99232945027E+02 -0.29497934444E+03  0.22986840259E+04  0.23246935056E+04  0.15294330000E+03 0.  0.
<mgrwt>
<rscale>  0 0.60509093E+03</rscale>
<asrwt>0</asrwt>
<pdfrwt beam="1">  1        2 0.38215929E+00 0.72847114E+03</pdfrwt>
<pdfrwt beam="2">  1       -2 0.12042715E+00 0.72847114E+03</pdfrwt>
<totfact> 0.19743279E+00</totfact>
</mgrwt>
</event>
<event>
 4    5  0.7289609E-008  0.1541897E+04  0.7818608E-02  0.8880604E-01
         -2   -1    0    0    0  501 -0.00000000000E+00  0.00000000000E+00  0.89461764825E+03  0.89461764825E+03  0.25500000000E-02 0.  1.
          2   -1    0    0  501    0  0.00000000000E+00 -0.00000000000E+00 -0.35545855650E+04  0.35545855650E+04  0.25500000000E-02 0. -1.
    8880023    1    1    2    0    0 -0.11945755123E+04 -0.71876759040E+03 -0.11851703210E+03  0.15464456010E+04  0.65864270000E+03 0.  1.
    8880022    1    1    2    0    0  0.11945755123E+04  0.71876759040E+03 -0.25414508847E+04  0.29027576123E+04  0.15294330000E+03 0.  0.
<mgrwt>
<rscale>  0 0.15058023E+04</rscale>
<asrwt>0</asrwt>
<pdfrwt beam="1">  1        2 0.54685931E+00 0.15418974E+04</pdfrwt>
<pdfrwt beam="2">  1       -2 0.13763349E+00 0.15418974E+04</pdfrwt>
<totfact> 0.26553932E-01</totfact>
</mgrwt>
</event>
<event>
 4    5  0.7289609E-008  0.1348486E+04  0.7818608E-02  0.9024781E-01
          2   -1    0    0  501    0  0.00000000000E+00  0.00000000000E+00  0.27097973048E+04  0.27097973048E+04  0.25500000000E-02 0. -1.
         -2   -1    0    0    0  501 -0.00000000000E+00 -0.00000000000E+00 -0.15583898800E+04  0.15583898800E+04  0.25500000000E-02 0.  1.
    8880023    1    1    2    0    0 -0.54257330961E+03  0.10441348919E+04 -0.10887683225E+04  0.17331561197E+04  0.65864270000E+03 0.  0.
    8880022    1    1    2    0    0  0.54257330961E+03 -0.10441348919E+04  0.22401757474E+04  0.25350310651E+04  0.15294330000E+03 0.  0.
<mgrwt>
<rscale>  0 0.13060503E+04</rscale>
<asrwt>0</asrwt>
<pdfrwt beam="1">  1        2 0.41689189E+00 0.13484857E+04</pdfrwt>
<pdfrwt beam="2">  1       -2 0.23975229E+00 0.13484857E+04</pdfrwt>
<totfact> 0.18658877E-01</totfact>
</mgrwt>
</event>
<event>
 4    5  0.7289609E-008  0.6604762E+03  0.7818608E-02  0.1023674E+00
          2   -1    0    0  501    0  0.00000000000E+00  0.00000000000E+00  0.12580103493E+04  0.12580103493E+04  0.25500000000E-02 0. -1.
         -2   -1    0    0    0  501 -0.00000000000E+00 -0.00000000000E+00 -0.51054483283E+03  0.51054483284E+03  0.25500000000E-02 0.  1.
    8880023    1    1    2    0    0 -0.35508866213E+02  0.34024539840E+02 -0.28811834282E+03  0.72058374574E+03  0.65864270000E+03 0.  1.
    8880022    1    1    2    0    0  0.35508866213E+02 -0.34024539840E+02  0.10355838593E+04  0.10479714364E+04  0.15294330000E+03 0.  0.
<mgrwt>
<rscale>  0 0.46383849E+03</rscale>
<asrwt>0</asrwt>
<pdfrwt beam="1">  1        2 0.19354005E+00 0.66047616E+03</pdfrwt>
<pdfrwt beam="2">  1       -2 0.78545359E-01 0.66047616E+03</pdfrwt>
<totfact> 0.25968457E+01</totfact>
</mgrwt>
</event>
<event>
 4    5  0.7289609E-008  0.1176224E+04  0.7818608E-02  0.9180588E-01
         -2   -1    0    0    0  501 -0.00000000000E+00  0.00000000000E+00  0.71583888795E+03  0.71583888795E+03  0.25500000000E-02 0.  1.
          2   -1    0    0  501    0  0.00000000000E+00 -0.00000000000E+00 -0.24714261317E+04  0.24714261317E+04  0.25500000000E-02 0. -1.
    8880023    1    1    2    0    0  0.59131423297E+03 -0.77462308038E+03 -0.31081148450E+01  0.11762284240E+04  0.65864270000E+03 0.  1.
    8880022    1    1    2    0    0 -0.59131423297E+03  0.77462308038E+03 -0.17524791289E+04  0.20110365957E+04  0.15294330000E+03 0.  0.
<mgrwt>
<rscale>  0 0.11256062E+04</rscale>
<asrwt>0</asrwt>
<pdfrwt beam="1">  1        2 0.38021940E+00 0.11762243E+04</pdfrwt>
<pdfrwt beam="2">  1       -2 0.11012906E+00 0.11762243E+04</pdfrwt>
<totfact> 0.23324202E+00</totfact>
</mgrwt>
</event>
<event>
 4    5  0.7289609E-008  0.1851906E+04  0.7818608E-02  0.8694354E-01
          2   -1    0    0  501    0  0.00000000000E+00  0.00000000000E+00  0.20911343188E+04  0.20911343188E+04  0.25500000000E-02 0. -1.
         -2   -1    0    0    0  501 -0.00000000000E+00 -0.00000000000E+00 -0.21003921261E+04  0.21003921261E+04  0.25500000000E-02 0.  1.
    8880023    1    1    2    0    0  0.15994658312E+04 -0.66140376177E+03 -0.10865216122E+04  0.21471109197E+04  0.65864270000E+03 0.  0.
    8880022    1    1    2    0    0 -0.15994658312E+04  0.66140376177E+03  0.10772638049E+04  0.20444155252E+04  0.15294330000E+03 0.  0.
<mgrwt>
<rscale>  0 0.18226345E+04</rscale>
<asrwt>0</asrwt>
<pdfrwt beam="1">  1        2 0.32171297E+00 0.18519061E+04</pdfrwt>
<pdfrwt beam="2">  1       -2 0.32313725E+00 0.18519061E+04</pdfrwt>
<totfact> 0.12270088E-01</totfact>
</mgrwt>
</event>
<event>
 4    5  0.7289609E-008  0.8060437E+03  0.7818608E-02  0.9697878E-01
         -2   -1    0    0    0  501 -0.00000000000E+00  0.00000000000E+00  0.75924679556E+03  0.75924679556E+03  0.25500000000E-02 0.  1.
          2   -1    0    0  501    0  0.00000000000E+00 -0.00000000000E+00 -0.20740092807E+04  0.20740092807E+04  0.25500000000E-02 0. -1.
    8880023    1    1    2    0    0 -0.25529707024E+02 -0.46394439142E+03  0.50347567584E+03  0.95036525963E+03  0.65864270000E+03 0.  1.
    8880022    1    1    2    0    0  0.25529707024E+02  0.46394439142E+03 -0.18182381609E+04  0.18828908166E+04  0.15294330000E+03 0.  0.
<mgrwt>
<rscale>  0 0.71143298E+03</rscale>
<asrwt>0</asrwt>
<pdfrwt beam="1">  1        2 0.31907835E+00 0.80604365E+03</pdfrwt>
<pdfrwt beam="2">  1       -2 0.11680720E+00 0.80604365E+03</pdfrwt>
<totfact> 0.35469797E+00</totfact>
</mgrwt>
</event>
<event>
 4    5  0.7289609E-008  0.1577806E+04  0.7818608E-02  0.8856563E-01
         -2   -1    0    0    0  501 -0.00000000000E+00  0.00000000000E+00  0.14791521733E+04  0.14791521733E+04  0.25500000000E-02 0.  1.
          2   -1    0    0  501    0  0.00000000000E+00 -0.00000000000E+00 -0.17605743354E+04  0.17605743354E+04  0.25500000000E-02 0. -1.
    8880023    1    1    2    0    0  0.51519985337E+03  0.13379946508E+04 -0.71757067334E+03  0.17333142970E+04  0.65864270000E+03 0.  0.
    8880022    1    1    2    0    0 -0.51519985337E+03 -0.13379946508E+04  0.43614851124E+03  0.15064122116E+04  0.15294330000E+03 0.  0.
<mgrwt>
<rscale>  0 0.15426710E+04</rscale>
<asrwt>0</asrwt>
<pdfrwt beam="1">  1        2 0.27085759E+00 0.15778057E+04</pdfrwt>
<pdfrwt beam="2">  1       -2 0.22756187E+00 0.15778057E+04</pdfrwt>
<totfact> 0.74902748E-01</totfact>
</mgrwt>
</event>
<event>
 4    5  0.7289609E-008  0.1121254E+04  0.7818608E-02  0.9237753E-01
         -2   -1    0    0    0  501 -0.00000000000E+00  0.00000000000E+00  0.10127251034E+04  0.10127251034E+04  0.25500000000E-02 0.  1.
          2   -1    0    0  501    0  0.00000000000E+00 -0.00000000000E+00 -0.42254143601E+04  0.42254143601E+04  0.25500000000E-02 0. -1.
    8880023    1    1    2    0    0 -0.90717782373E+03  0.20713326465E+02  0.63046595507E+03  0.12863507191E+04  0.65864270000E+03 0.  1.
    8880022    1    1    2    0    0  0.90717782373E+03 -0.20713326465E+02 -0.38431552117E+04  0.39517887444E+04  0.15294330000E+03 0.  0.
<mgrwt>
<rscale>  0 0.10672107E+04</rscale>
<asrwt>0</asrwt>
<pdfrwt beam="1">  1        2 0.65006374E+00 0.11212541E+04</pdfrwt>
<pdfrwt beam="2">  1       -2 0.15580386E+00 0.11212541E+04</pdfrwt>
<totfact> 0.61611458E-02</totfact>
</mgrwt>
</event>
<event>
 4    5  0.7289609E-008  0.1128267E+04  0.7818608E-02  0.9230218E-01
          2   -1    0    0  501    0  0.00000000000E+00  0.00000000000E+00  0.15082908623E+04  0.15082908623E+04  0.25500000000E-02 0. -1.
         -2   -1    0    0    0  501 -0.00000000000E+00 -0.00000000000E+00 -0.14265253541E+04  0.14265253541E+04  0.25500000000E-02 0.  1.
    8880023    1    1    2    0    0  0.91163677354E+03 -0.89969879813E+02 -0.10009955731E+04  0.15083031956E+04  0.65864270000E+03 0.  1.
    8880022    1    1    2    0    0 -0.91163677354E+03  0.89969879813E+02  0.10827610814E+04  0.14265130208E+04  0.15294330000E+03 0.  0.
<mgrwt>
<rscale>  0 0.10746897E+04</rscale>
<asrwt>0</asrwt>
<pdfrwt beam="1">  1        2 0.23204475E+00 0.11282670E+04</pdfrwt>
<pdfrwt beam="2">  1       -2 0.21946544E+00 0.11282670E+04</pdfrwt>
<totfact> 0.12241068E+00</totfact>
</mgrwt>
</event>
<event>
 4    5  0.7289609E-008  0.9554611E+03  0.7818608E-02  0.9442300E-01
          2   -1    0    0  501    0  0.00000000000E+00  0.00000000000E+00  0.17160903080E+04  0.17160903080E+04  0.25500000000E-02 0. -1.
         -2   -1    0    0    0  501 -0.00000000000E+00 -0.00000000000E+00 -0.11632105832E+04  0.11632105832E+04  0.25500000000E-02 0.  1.
    8880023    1    1    2    0    0  0.68771505261E+03 -0.78381254399E+02 -0.86835058696E+03  0.12910997493E+04  0.65864270000E+03 0.  1.
    8880022    1    1    2    0    0 -0.68771505261E+03  0.78381254399E+02  0.14212303118E+04  0.15882011418E+04  0.15294330000E+03 0.  0.
<mgrwt>
<rscale>  0 0.88674832E+03</rscale>
<asrwt>0</asrwt>
<pdfrwt beam="1">  1        2 0.26401389E+00 0.95546105E+03</pdfrwt>
<pdfrwt beam="2">  1       -2 0.17895547E+00 0.95546105E+03</pdfrwt>
<totfact> 0.17723651E+00</totfact>
</mgrwt>
</event>
<event>
 4    5  0.7289609E-008  0.9051258E+03  0.7818608E-02  0.9517853E-01
         -2   -1    0    0    0  501 -0.00000000000E+00  0.00000000000E+00  0.29080969358E+03  0.29080969359E+03  0.25500000000E-02 0.  1.
          2   -1    0    0  501    0  0.00000000000E+00 -0.00000000000E+00 -0.43065991897E+04  0.43065991897E+04  0.25500000000E-02 0. -1.
    8880023    1    1    2    0    0 -0.59080695620E+03 -0.19076052356E+03 -0.52049254731E+03  0.10441097332E+04  0.65864270000E+03 0.  1.
    8880022    1    1    2    0    0  0.59080695620E+03  0.19076052356E+03 -0.34952969488E+04  0.35532991501E+04  0.15294330000E+03 0.  0.
<mgrwt>
<rscale>  0 0.82980316E+03</rscale>
<asrwt>0</asrwt>
<pdfrwt beam="1">  1        2 0.66255368E+00 0.90512576E+03</pdfrwt>
<pdfrwt beam="2">  1       -2 0.44739956E-01 0.90512576E+03</pdfrwt>
<totfact> 0.96446373E-01</totfact>
</mgrwt>
</event>
<event>
 4    5  0.7289609E-008  0.1627992E+04  0.7818608E-02  0.8824173E-01
         -2   -1    0    0    0  501 -0.00000000000E+00  0.00000000000E+00  0.99358879698E+03  0.99358879698E+03  0.25500000000E-02 0.  1.
          2   -1    0    0  501    0  0.00000000000E+00 -0.00000000000E+00 -0.33073000251E+04  0.33073000251E+04  0.25500000000E-02 0. -1.
    8880023    1    1    2    0    0  0.14461220352E+03  0.14817680092E+04 -0.10304896820E+03  0.16312505689E+04  0.65864270000E+03 0.  0.
    8880022    1    1    2    0    0 -0.14461220352E+03 -0.14817680092E+04 -0.22106622599E+04  0.26696382532E+04  0.15294330000E+03 0.  0.
<mgrwt>
<rscale>  0 0.15941121E+04</rscale>
<asrwt>0</asrwt>
<pdfrwt beam="1">  1        2 0.50881538E+00 0.16279924E+04</pdfrwt>
<pdfrwt beam="2">  1       -2 0.15285982E+00 0.16279924E+04</pdfrwt>
<totfact> 0.29383735E-01</totfact>
</mgrwt>
</event>
<event>
 4    5  0.7289609E-008  0.9739799E+03  0.7818608E-02  0.9416421E-01
         -2   -1    0    0    0  501 -0.00000000000E+00  0.00000000000E+00  0.82454647397E+03  0.82454647398E+03  0.25500000000E-02 0.  1.
          2   -1    0    0  501    0  0.00000000000E+00 -0.00000000000E+00 -0.11968232514E+04  0.11968232514E+04  0.25500000000E-02 0. -1.
    8880023    1    1    2    0    0  0.71166422162E+03 -0.91436689438E+02  0.30734103775E+03  0.10213203965E+04  0.65864270000E+03 0.  0.
    8880022    1    1    2    0    0 -0.71166422162E+03  0.91436689438E+02 -0.67961781517E+03  0.10000493289E+04  0.15294330000E+03 0.  0.
<mgrwt>
<rscale>  0 0.90736558E+03</rscale>
<asrwt>0</asrwt>
<pdfrwt beam="1">  1        2 0.18412665E+00 0.97397990E+03</pdfrwt>
<pdfrwt beam="2">  1       -2 0.12685330E+00 0.97397990E+03</pdfrwt>
<totfact> 0.87441926E+00</totfact>
</mgrwt>
</event>
<event>
 4    5  0.7289609E-008  0.7754704E+03  0.7818608E-02  0.9766587E-01
         -2   -1    0    0    0  501 -0.00000000000E+00  0.00000000000E+00  0.56345127846E+03  0.56345127846E+03  0.25500000000E-02 0.  1.
          2   -1    0    0  501    0  0.00000000000E+00 -0.00000000000E+00 -0.12239446935E+04  0.12239446935E+04  0.25500000000E-02 0. -1.
    8880023    1    1    2    0    0  0.25043795838E+03  0.32376671974E+03  0.21860042741E+03  0.80569250520E+03  0.65864270000E+03 0.  0.
    8880022    1    1    2    0    0 -0.25043795838E+03 -0.32376671974E+03 -0.87909384245E+03  0.98170346677E+03  0.15294330000E+03 0.  0.
<mgrwt>
<rscale>  0 0.67186930E+03</rscale>
<asrwt>0</asrwt>
<pdfrwt beam="1">  1        2 0.18829918E+00 0.77547035E+03</pdfrwt>
<pdfrwt beam="2">  1       -2 0.86684812E-01 0.77547035E+03</pdfrwt>
<totfact> 0.21464713E+01</totfact>
</mgrwt>
</event>
<event>
 4    5  0.7289609E-008  0.8751326E+03  0.7818608E-02  0.9567192E-01
          2   -1    0    0  501    0  0.00000000000E+00  0.00000000000E+00  0.27127799086E+04  0.27127799086E+04  0.25500000000E-02 0. -1.
         -2   -1    0    0    0  501 -0.00000000000E+00 -0.00000000000E+00 -0.23264505528E+03  0.23264505529E+03  0.25500000000E-02 0.  1.
    8880023    1    1    2    0    0 -0.54168110024E+03  0.19654116122E+03  0.89441456196E+03  0.12513330721E+04  0.65864270000E+03 0.  0.
    8880022    1    1    2    0    0  0.54168110024E+03 -0.19654116122E+03  0.15857202913E+04  0.16940918918E+04  0.15294330000E+03 0.  0.
<mgrwt>
<rscale>  0 0.79506191E+03</rscale>
<asrwt>0</asrwt>
<pdfrwt beam="1">  1        2 0.41735074E+00 0.87513259E+03</pdfrwt>
<pdfrwt beam="2">  1       -2 0.35791548E-01 0.87513259E+03</pdfrwt>
<totfact> 0.19763972E+01</totfact>
</mgrwt>
</event>
<event>
 4    5  0.7289609E-008  0.7010255E+03  0.7818608E-02  0.9992973E-01
         -2   -1    0    0    0  501 -0.00000000000E+00  0.00000000000E+00  0.27857165410E+03  0.27857165411E+03  0.25500000000E-02 0.  1.
          2   -1    0    0  501    0  0.00000000000E+00 -0.00000000000E+00 -0.20101998936E+04  0.20101998936E+04  0.25500000000E-02 0. -1.
    8880023    1    1    2    0    0 -0.15252488656E+03  0.18537175737E+03 -0.19729461764E+03  0.72825950173E+03  0.65864270000E+03 0.  0.
    8880022    1    1    2    0    0  0.15252488656E+03 -0.18537175737E+03 -0.15343336219E+04  0.15605120460E+04  0.15294330000E+03 0. -1.
<mgrwt>
<rscale>  0 0.55959415E+03</rscale>
<asrwt>0</asrwt>
<pdfrwt beam="1">  1        2 0.30926151E+00 0.70102549E+03</pdfrwt>
<pdfrwt beam="2">  1       -2 0.42857179E-01 0.70102549E+03</pdfrwt>
<totfact> 0.35354870E+01</totfact>
</mgrwt>
</event>
<event>
 4    5  0.7289609E-008  0.7504029E+03  0.7818608E-02  0.9830619E-01
         -2   -1    0    0    0  501 -0.00000000000E+00  0.00000000000E+00  0.91013460020E+03  0.91013460021E+03  0.25500000000E-02 0.  1.
          2   -1    0    0  501    0  0.00000000000E+00 -0.00000000000E+00 -0.37743556995E+03  0.37743556996E+03  0.25500000000E-02 0. -1.
    8880023    1    1    2    0    0 -0.66845701270E+02 -0.35330717008E+03  0.48600694938E+03  0.89403985667E+03  0.65864270000E+03 0.  1.
    8880022    1    1    2    0    0  0.66845701270E+02  0.35330717008E+03  0.46692080866E+02  0.39353031350E+03  0.15294330000E+03 0. -1.
<mgrwt>
<rscale>  0 0.63744947E+03</rscale>
<asrwt>0</asrwt>
<pdfrwt beam="1">  1        2 0.58067012E-01 0.75040290E+03</pdfrwt>
<pdfrwt beam="2">  1       -2 0.14002071E+00 0.75040290E+03</pdfrwt>
<totfact> 0.30845717E+01</totfact>
</mgrwt>
</event>
<event>
 4    5  0.7289609E-008  0.8687642E+03  0.7818608E-02  0.9578160E-01
         -2   -1    0    0    0  501 -0.00000000000E+00  0.00000000000E+00  0.19872387697E+04  0.19872387697E+04  0.25500000000E-02 0.  1.
          2   -1    0    0  501    0  0.00000000000E+00 -0.00000000000E+00 -0.40400927212E+03  0.40400927213E+03  0.25500000000E-02 0. -1.
    8880023    1    1    2    0    0 -0.44258848272E+03  0.35363317017E+03  0.20402095332E+03  0.89239886807E+03  0.65864270000E+03 0.  0.
    8880022    1    1    2    0    0  0.44258848272E+03 -0.35363317017E+03  0.13792085443E+04  0.14988491738E+04  0.15294330000E+03 0.  1.
<mgrwt>
<rscale>  0 0.78758729E+03</rscale>
<asrwt>0</asrwt>
<pdfrwt beam="1">  1        2 0.62155273E-01 0.86876417E+03</pdfrwt>
<pdfrwt beam="2">  1       -2 0.30572904E+00 0.86876417E+03</pdfrwt>
<totfact> 0.23626690E+00</totfact>
</mgrwt>
</event>
<event>
 4    5  0.7289609E-008  0.7029165E+03  0.7818608E-02  0.9985311E-01
         -2   -1    0    0    0  501 -0.00000000000E+00  0.00000000000E+00  0.12845487384E+04  0.12845487384E+04  0.25500000000E-02 0.  1.
          2   -1    0    0  501    0  0.00000000000E+00 -0.00000000000E+00 -0.27944599969E+04  0.27944599969E+04  0.25500000000E-02 0. -1.
    8880023    1    1    2    0    0 -0.10062562064E+03 -0.22395516162E+03  0.11800501329E+04  0.13735392067E+04  0.65864270000E+03 0.  1.
    8880022    1    1    2    0    0  0.10062562064E+03  0.22395516162E+03 -0.26899613914E+04  0.27054695286E+04  0.15294330000E+03 0.  0.
<mgrwt>
<rscale>  0 0.56299046E+03</rscale>
<asrwt>0</asrwt>
<pdfrwt beam="1">  1        2 0.42991692E+00 0.70291652E+03</pdfrwt>
<pdfrwt beam="2">  1       -2 0.19762288E+00 0.70291652E+03</pdfrwt>
<totfact> 0.34730975E-01</totfact>
</mgrwt>
</event>
<event>
 4    5  0.7289609E-008  0.1199712E+04  0.7818608E-02  0.9157402E-01
         -2   -1    0    0    0  501 -0.00000000000E+00  0.00000000000E+00  0.30609230928E+04  0.30609230928E+04  0.25500000000E-02 0.  1.
          2   -1    0    0  501    0  0.00000000000E+00 -0.00000000000E+00 -0.56858135179E+03  0.56858135180E+03  0.25500000000E-02 0. -1.
    8880023    1    1    2    0    0  0.67464296669E+03 -0.74185977726E+03  0.33501392729E+03  0.12456097300E+04  0.65864270000E+03 0. -1.
    8880022    1    1    2    0    0 -0.67464296669E+03  0.74185977726E+03  0.21573278137E+04  0.23838947146E+04  0.15294330000E+03 0.  0.
<mgrwt>
<rscale>  0 0.11504135E+04</rscale>
<asrwt>0</asrwt>
<pdfrwt beam="1">  1        2 0.87474053E-01 0.11997122E+04</pdfrwt>
<pdfrwt beam="2">  1       -2 0.47091125E+00 0.11997122E+04</pdfrwt>
<totfact> 0.13243904E-01</totfact>
</mgrwt>
</event>
<event>
 4    5  0.7289609E-008  0.1346477E+04  0.7818608E-02  0.9026429E-01
          2   -1    0    0  501    0  0.00000000000E+00  0.00000000000E+00  0.10806149495E+04  0.10806149495E+04  0.25500000000E-02 0. -1.
         -2   -1    0    0    0  501 -0.00000000000E+00 -0.00000000000E+00 -0.32843879642E+04  0.32843879642E+04  0.25500000000E-02 0.  1.
    8880023    1    1    2    0    0  0.15098304223E+03 -0.11646428204E+04 -0.27491316386E+04  0.30611637902E+04  0.65864270000E+03 0.  0.
    8880022    1    1    2    0    0 -0.15098304223E+03  0.11646428204E+04  0.54535862395E+03  0.13038391234E+04  0.15294330000E+03 0.  0.
<mgrwt>
<rscale>  0 0.13039624E+04</rscale>
<asrwt>0</asrwt>
<pdfrwt beam="1">  1        2 0.16624846E+00 0.13464765E+04</pdfrwt>
<pdfrwt beam="2">  1       -2 0.50529045E+00 0.13464765E+04</pdfrwt>
<totfact> 0.32765351E-02</totfact>
</mgrwt>
</event>
<event>
 4    5  0.7289609E-008  0.7601439E+03  0.7818608E-02  0.9804735E-01
         -2   -1    0    0    0  501 -0.00000000000E+00  0.00000000000E+00  0.24769210156E+03  0.24769210157E+03  0.25500000000E-02 0.  1.
          2   -1    0    0  501    0  0.00000000000E+00 -0.00000000000E+00 -0.16835332743E+04  0.16835332743E+04  0.25500000000E-02 0. -1.
    8880023    1    1    2    0    0 -0.29394266729E+03  0.24001286731E+03 -0.49997569438E+03  0.90983205558E+03  0.65864270000E+03 0.  1.
    8880022    1    1    2    0    0  0.29394266729E+03 -0.24001286731E+03 -0.93586547838E+03  0.10213933203E+04  0.15294330000E+03 0.  0.
<mgrwt>
<rscale>  0 0.65109043E+03</rscale>
<asrwt>0</asrwt>
<pdfrwt beam="1">  1        2 0.25900511E+00 0.76014385E+03</pdfrwt>
<pdfrwt beam="2">  1       -2 0.38106478E-01 0.76014385E+03</pdfrwt>
<totfact> 0.66548723E+01</totfact>
</mgrwt>
</event>
<event>
 4    5  0.7289609E-008  0.1236888E+04  0.7818608E-02  0.9122073E-01
         -2   -1    0    0    0  501 -0.00000000000E+00  0.00000000000E+00  0.47919296359E+03  0.47919296359E+03  0.25500000000E-02 0.  1.
          2   -1    0    0  501    0  0.00000000000E+00 -0.00000000000E+00 -0.34054111479E+04  0.34054111479E+04  0.25500000000E-02 0. -1.
    8880023    1    1    2    0    0 -0.62842266850E+03 -0.83735634487E+03 -0.24065906359E+04  0.27058398684E+04  0.65864270000E+03 0.  0.
    8880022    1    1    2    0    0  0.62842266850E+03  0.83735634487E+03 -0.51962754839E+03  0.11787642430E+04  0.15294330000E+03 0.  0.
<mgrwt>
<rscale>  0 0.11895271E+04</rscale>
<asrwt>0</asrwt>
<pdfrwt beam="1">  1        2 0.52390939E+00 0.12368876E+04</pdfrwt>
<pdfrwt beam="2">  1       -2 0.73721997E-01 0.12368876E+04</pdfrwt>
<totfact> 0.15638864E+00</totfact>
</mgrwt>
</event>
<event>
 4    5  0.7289609E-008  0.9030366E+03  0.7818608E-02  0.9521174E-01
         -2   -1    0    0    0  501 -0.00000000000E+00  0.00000000000E+00  0.28547979529E+03  0.28547979530E+03  0.25500000000E-02 0.  1.
          2   -1    0    0  501    0  0.00000000000E+00 -0.00000000000E+00 -0.29031118058E+04  0.29031118058E+04  0.25500000000E-02 0. -1.
    8880023    1    1    2    0    0 -0.28903533770E+03  0.54600685768E+03 -0.62875950894E+03  0.11003697749E+04  0.65864270000E+03 0.  0.
    8880022    1    1    2    0    0  0.28903533770E+03 -0.54600685768E+03 -0.19888725016E+04  0.20882218262E+04  0.15294330000E+03 0.  0.
<mgrwt>
<rscale>  0 0.82740564E+03</rscale>
<asrwt>0</asrwt>
<pdfrwt beam="1">  1        2 0.44663257E+00 0.90303661E+03</pdfrwt>
<pdfrwt beam="2">  1       -2 0.43919971E-01 0.90303661E+03</pdfrwt>
<totfact> 0.10172364E+01</totfact>
</mgrwt>
</event>
<event>
 4    5  0.7289609E-008  0.8407539E+03  0.7818608E-02  0.9628760E-01
          2   -1    0    0  501    0  0.00000000000E+00  0.00000000000E+00  0.23613752153E+04  0.23613752153E+04  0.25500000000E-02 0. -1.
         -2   -1    0    0    0  501 -0.00000000000E+00 -0.00000000000E+00 -0.21913515807E+03  0.21913515808E+03  0.25500000000E-02 0.  1.
    8880023    1    1    2    0    0 -0.51220688439E+03 -0.10344599980E+03  0.94249043197E+03  0.12629946112E+04  0.65864270000E+03 0.  1.
    8880022    1    1    2    0    0  0.51220688439E+03  0.10344599980E+03  0.11997496252E+04  0.13175157622E+04  0.15294330000E+03 0.  0.
<mgrwt>
<rscale>  0 0.75421534E+03</rscale>
<asrwt>0</asrwt>
<pdfrwt beam="1">  1        2 0.36328851E+00 0.84075393E+03</pdfrwt>
<pdfrwt beam="2">  1       -2 0.33713099E-01 0.84075393E+03</pdfrwt>
<totfact> 0.35353560E+01</totfact>
</mgrwt>
</event>
<event>
 4    5  0.7289609E-008  0.7510821E+03  0.7818608E-02  0.9828767E-01
         -2   -1    0    0    0  501 -0.00000000000E+00  0.00000000000E+00  0.18537029291E+04  0.18537029291E+04  0.25500000000E-02 0.  1.
          2   -1    0    0  501    0  0.00000000000E+00 -0.00000000000E+00 -0.86310364914E+03  0.86310364915E+03  0.25500000000E-02 0. -1.
    8880023    1    1    2    0    0  0.35890096405E+03 -0.38784782912E+02  0.17266050764E+04  0.18828939050E+04  0.65864270000E+03 0.  0.
    8880022    1    1    2    0    0 -0.35890096405E+03  0.38784782912E+02 -0.73600579638E+03  0.83391267331E+03  0.15294330000E+03 0.  0.
<mgrwt>
<rscale>  0 0.63841320E+03</rscale>
<asrwt>0</asrwt>
<pdfrwt beam="1">  1        2 0.13278518E+00 0.75108213E+03</pdfrwt>
<pdfrwt beam="2">  1       -2 0.28518506E+00 0.75108213E+03</pdfrwt>
<totfact> 0.12664566E+00</totfact>
</mgrwt>
</event>
<event>
 4    5  0.7289609E-008  0.9889500E+03  0.7818608E-02  0.9396159E-01
         -2   -1    0    0    0  501 -0.00000000000E+00  0.00000000000E+00  0.85684846045E+03  0.85684846046E+03  0.25500000000E-02 0.  1.
          2   -1    0    0  501    0  0.00000000000E+00 -0.00000000000E+00 -0.10881611485E+04  0.10881611485E+04  0.25500000000E-02 0. -1.
    8880023    1    1    2    0    0 -0.98567914632E+02  0.73109249350E+03  0.28793207192E+03  0.10300130835E+04  0.65864270000E+03 0.  0.
    8880022    1    1    2    0    0  0.98567914632E+02 -0.73109249350E+03 -0.51924475994E+03  0.91499652545E+03  0.15294330000E+03 0.  0.
<mgrwt>
<rscale>  0 0.92392428E+03</rscale>
<asrwt>0</asrwt>
<pdfrwt beam="1">  1        2 0.16740941E+00 0.98894999E+03</pdfrwt>
<pdfrwt beam="2">  1       -2 0.13182284E+00 0.98894999E+03</pdfrwt>
<totfact> 0.92227949E+00</totfact>
</mgrwt>
</event>
<event>
 4    5  0.7289609E-008  0.6626518E+03  0.7818608E-02  0.1021590E+00
         -2   -1    0    0    0  501 -0.00000000000E+00  0.00000000000E+00  0.46396634140E+03  0.46396634141E+03  0.25500000000E-02 0.  1.
          2   -1    0    0  501    0  0.00000000000E+00 -0.00000000000E+00 -0.16640835492E+04  0.16640835492E+04  0.25500000000E-02 0. -1.
    8880023    1    1    2    0    0  0.67426137719E+02  0.27402200198E+02  0.21973255012E+03  0.69813305642E+03  0.65864270000E+03 0.  1.
    8880022    1    1    2    0    0 -0.67426137719E+02 -0.27402200198E+02 -0.14198497579E+04  0.14299168342E+04  0.15294330000E+03 0.  0.
<mgrwt>
<rscale>  0 0.47117051E+03</rscale>
<asrwt>0</asrwt>
<pdfrwt beam="1">  1        2 0.25601285E+00 0.66265177E+03</pdfrwt>
<pdfrwt beam="2">  1       -2 0.71379438E-01 0.66265177E+03</pdfrwt>
<totfact> 0.19014440E+01</totfact>
</mgrwt>
</event>
<event>
 4    5  0.7289609E-008  0.8096079E+03  0.7818608E-02  0.9690394E-01
         -2   -1    0    0    0  501 -0.00000000000E+00  0.00000000000E+00  0.56078337617E+03  0.56078337617E+03  0.25500000000E-02 0.  1.
          2   -1    0    0  501    0  0.00000000000E+00 -0.00000000000E+00 -0.98078618978E+03  0.98078618979E+03  0.25500000000E-02 0. -1.
    8880023    1    1    2    0    0 -0.39634962929E+03 -0.25408988496E+03  0.10918985499E+03  0.81693777546E+03  0.65864270000E+03 0.  0.
    8880022    1    1    2    0    0  0.39634962929E+03  0.25408988496E+03 -0.52919266860E+03  0.72463179050E+03  0.15294330000E+03 0.  0.
<mgrwt>
<rscale>  0 0.71591600E+03</rscale>
<asrwt>0</asrwt>
<pdfrwt beam="1">  1        2 0.15089018E+00 0.80960787E+03</pdfrwt>
<pdfrwt beam="2">  1       -2 0.86274366E-01 0.80960787E+03</pdfrwt>
<totfact> 0.30499666E+01</totfact>
</mgrwt>
</event>
<event>
 4    5  0.7289609E-008  0.6623525E+03  0.7818608E-02  0.1021866E+00
         -2   -1    0    0    0  501 -0.00000000000E+00  0.00000000000E+00  0.95024635019E+03  0.95024635020E+03  0.25500000000E-02 0.  1.
          2   -1    0    0  501    0  0.00000000000E+00 -0.00000000000E+00 -0.21189386602E+03  0.21189386603E+03  0.25500000000E-02 0. -1.
    8880023    1    1    2    0    0 -0.33114098610E+02 -0.61677103781E+02  0.74105145543E+03  0.99391552685E+03  0.65864270000E+03 0.  1.
    8880022    1    1    2    0    0  0.33114098610E+02  0.61677103781E+02 -0.26989712524E+01  0.16822468938E+03  0.15294330000E+03 0.  1.
<mgrwt>
<rscale>  0 0.47019211E+03</rscale>
<asrwt>0</asrwt>
<pdfrwt beam="1">  1        2 0.32599057E-01 0.66235249E+03</pdfrwt>
<pdfrwt beam="2">  1       -2 0.14619174E+00 0.66235249E+03</pdfrwt>
<totfact> 0.52775986E+01</totfact>
</mgrwt>
</event>
<event>
 4    5  0.7707341E-008  0.9786692E+03  0.7818608E-02  0.9410013E-01
         -2   -1    0    0    0  501 -0.00000000000E+00  0.00000000000E+00  0.10995174837E+04  0.10995174837E+04  0.25500000000E-02 0.  1.
          2   -1    0    0  501    0  0.00000000000E+00 -0.00000000000E+00 -0.20746473404E+04  0.20746473404E+04  0.25500000000E-02 0. -1.
    8880023    1    1    2    0    0 -0.72067837048E+03  0.67866029363E+02  0.79162472369E+03  0.12587545515E+04  0.65864270000E+03 0.  0.
    8880022    1    1    2    0    0  0.72067837048E+03 -0.67866029363E+02 -0.17667545805E+04  0.19154102726E+04  0.15294330000E+03 0.  0.
<mgrwt>
<rscale>  0 0.91256230E+03</rscale>
<asrwt>0</asrwt>
<pdfrwt beam="1">  1        2 0.31917651E+00 0.97866916E+03</pdfrwt>
<pdfrwt beam="2">  1       -2 0.16915654E+00 0.97866916E+03</pdfrwt>
<totfact> 0.13142391E+00</totfact>
</mgrwt>
</event>
<event>
 4    5  0.7289609E-008  0.1917829E+04  0.7818608E-02  0.8660014E-01
         -2   -1    0    0    0  501 -0.00000000000E+00  0.00000000000E+00  0.18742674589E+04  0.18742674589E+04  0.25500000000E-02 0.  1.
          2   -1    0    0  501    0  0.00000000000E+00 -0.00000000000E+00 -0.27023095455E+04  0.27023095455E+04  0.25500000000E-02 0. -1.
    8880023    1    1    2    0    0 -0.15346517531E+04  0.94292138920E+03  0.86134437730E+03  0.21023751074E+04  0.65864270000E+03 0.  1.
    8880022    1    1    2    0    0  0.15346517531E+04 -0.94292138920E+03 -0.16893864639E+04  0.24742018970E+04  0.15294330000E+03 0.  0.
<mgrwt>
<rscale>  0 0.18896735E+04</rscale>
<asrwt>0</asrwt>
<pdfrwt beam="1">  1        2 0.41573993E+00 0.19178287E+04</pdfrwt>
<pdfrwt beam="2">  1       -2 0.28834884E+00 0.19178287E+04</pdfrwt>
<totfact> 0.88585273E-02</totfact>
</mgrwt>
</event>
<event>
 4    5  0.7289609E-008  0.9230807E+03  0.7818608E-02  0.9489951E-01
         -2   -1    0    0    0  501 -0.00000000000E+00  0.00000000000E+00  0.46292184505E+03  0.46292184506E+03  0.25500000000E-02 0.  1.
          2   -1    0    0  501    0  0.00000000000E+00 -0.00000000000E+00 -0.18259719167E+04  0.18259719167E+04  0.25500000000E-02 0. -1.
    8880023    1    1    2    0    0  0.63919447032E+03 -0.98479579084E+02 -0.19264131408E+03  0.94296801671E+03  0.65864270000E+03 0.  0.
    8880022    1    1    2    0    0 -0.63919447032E+03  0.98479579084E+02 -0.11704087575E+04  0.13459257450E+04  0.15294330000E+03 0.  0.
<mgrwt>
<rscale>  0 0.85028731E+03</rscale>
<asrwt>0</asrwt>
<pdfrwt beam="1">  1        2 0.28091875E+00 0.92308071E+03</pdfrwt>
<pdfrwt beam="2">  1       -2 0.71218746E-01 0.92308071E+03</pdfrwt>
<totfact> 0.15075027E+01</totfact>
</mgrwt>
</event>
<event>
 4    5  0.7289609E-008  0.1002034E+04  0.7818608E-02  0.9378902E-01
          2   -1    0    0  501    0  0.00000000000E+00  0.00000000000E+00  0.12852552932E+04  0.12852552932E+04  0.25500000000E-02 0. -1.
         -2   -1    0    0    0  501 -0.00000000000E+00 -0.00000000000E+00 -0.11747239615E+04  0.11747239615E+04  0.25500000000E-02 0.  1.
    8880023    1    1    2    0    0 -0.69386442902E+03  0.29801528136E+03 -0.78914334649E+03  0.12754679068E+04  0.65864270000E+03 0.  0.
    8880022    1    1    2    0    0  0.69386442902E+03 -0.29801528136E+03  0.89967467817E+03  0.11845113479E+04  0.15294330000E+03 0.  0.
<mgrwt>
<rscale>  0 0.93832488E+03</rscale>
<asrwt>0</asrwt>
<pdfrwt beam="1">  1        2 0.19773158E+00 0.10020335E+04</pdfrwt>
<pdfrwt beam="2">  1       -2 0.18072676E+00 0.10020335E+04</pdfrwt>
<totfact> 0.29967724E+00</totfact>
</mgrwt>
</event>
<event>
 4    5  0.7289609E-008  0.9256968E+03  0.7818608E-02  0.9485979E-01
         -2   -1    0    0    0  501 -0.00000000000E+00  0.00000000000E+00  0.50517641783E+03  0.50517641783E+03  0.25500000000E-02 0.  1.
          2   -1    0    0  501    0  0.00000000000E+00 -0.00000000000E+00 -0.12672244308E+04  0.12672244308E+04  0.25500000000E-02 0. -1.
    8880023    1    1    2    0    0  0.25286931133E+03  0.59930083526E+03 -0.51971808292E+03  0.10616126750E+04  0.65864270000E+03 0.  1.
    8880022    1    1    2    0    0 -0.25286931133E+03 -0.59930083526E+03 -0.24232993004E+03  0.71078817362E+03  0.15294330000E+03 0. -1.
<mgrwt>
<rscale>  0 0.85325487E+03</rscale>
<asrwt>0</asrwt>
<pdfrwt beam="1">  1        2 0.19495760E+00 0.92569681E+03</pdfrwt>
<pdfrwt beam="2">  1       -2 0.77719449E-01 0.92569681E+03</pdfrwt>
<totfact> 0.25548288E+01</totfact>
</mgrwt>
</event>
<event>
 4    5  0.7289609E-008  0.7317941E+03  0.7818608E-02  0.9884529E-01
          2   -1    0    0  501    0  0.00000000000E+00  0.00000000000E+00  0.22929974681E+04  0.22929974681E+04  0.25500000000E-02 0. -1.
         -2   -1    0    0    0  501 -0.00000000000E+00 -0.00000000000E+00 -0.10399102359E+04  0.10399102359E+04  0.25500000000E-02 0.  1.
    8880023    1    1    2    0    0  0.12987292351E+03 -0.29128231404E+03 -0.89488860424E+03  0.11560052694E+04  0.65864270000E+03 0.  1.
    8880022    1    1    2    0    0 -0.12987292351E+03  0.29128231404E+03  0.21479758364E+04  0.21769024346E+04  0.15294330000E+03 0.  0.
<mgrwt>
<rscale>  0 0.61016961E+03</rscale>
<asrwt>0</asrwt>
<pdfrwt beam="1">  1        2 0.35276884E+00 0.73179408E+03</pdfrwt>
<pdfrwt beam="2">  1       -2 0.15998619E+00 0.73179408E+03</pdfrwt>
<totfact> 0.12113212E+00</totfact>
</mgrwt>
</event>
<event>
 4    5  0.7289609E-008  0.8522189E+03  0.7818608E-02  0.9607557E-01
          2   -1    0    0  501    0  0.00000000000E+00  0.00000000000E+00  0.14316577158E+04  0.14316577158E+04  0.25500000000E-02 0. -1.
         -2   -1    0    0    0  501 -0.00000000000E+00 -0.00000000000E+00 -0.54756700609E+03  0.54756700610E+03  0.25500000000E-02 0.  1.
    8880023    1    1    2    0    0 -0.52945479679E+03  0.11020156757E+03 -0.87599878557E+02  0.85670923441E+03  0.65864270000E+03 0.  0.
    8880022    1    1    2    0    0  0.52945479679E+03 -0.11020156757E+03  0.97169058827E+03  0.11225154875E+04  0.15294330000E+03 0.  0.
<mgrwt>
<rscale>  0 0.76798000E+03</rscale>
<asrwt>0</asrwt>
<pdfrwt beam="1">  1        2 0.22025503E+00 0.85221885E+03</pdfrwt>
<pdfrwt beam="2">  1       -2 0.84241079E-01 0.85221885E+03</pdfrwt>
<totfact> 0.17256729E+01</totfact>
</mgrwt>
</event>
<event>
 4    5  0.7289609E-008  0.2394392E+04  0.7818608E-02  0.8449961E-01
         -2   -1    0    0    0  501 -0.00000000000E+00  0.00000000000E+00  0.20795280385E+04  0.20795280385E+04  0.25500000000E-02 0.  1.
          2   -1    0    0  501    0  0.00000000000E+00 -0.00000000000E+00 -0.35180152287E+04  0.35180152287E+04  0.25500000000E-02 0. -1.
    8880023    1    1    2    0    0  0.21861963683E+04 -0.72100612747E+03 -0.21134813522E+04  0.31937310514E+04  0.65864270000E+03 0.  0.
    8880022    1    1    2    0    0 -0.21861963683E+04  0.72100612747E+03  0.67499416203E+03  0.24038122158E+04  0.15294330000E+03 0.  0.
<mgrwt>
<rscale>  0 0.23722636E+04</rscale>
<asrwt>0</asrwt>
<pdfrwt beam="1">  1        2 0.54123311E+00 0.23943923E+04</pdfrwt>
<pdfrwt beam="2">  1       -2 0.31992739E+00 0.23943923E+04</pdfrwt>
<totfact> 0.16029869E-02</totfact>
</mgrwt>
</event>
<event>
 4    5  0.7289609E-008  0.7270874E+03  0.7818608E-02  0.9899296E-01
          2   -1    0    0  501    0  0.00000000000E+00  0.00000000000E+00  0.38423682033E+03  0.38423682033E+03  0.25500000000E-02 0. -1.
         -2   -1    0    0    0  501 -0.00000000000E+00 -0.00000000000E+00 -0.14410842831E+04  0.14410842831E+04  0.25500000000E-02 0.  1.
    8880023    1    1    2    0    0  0.30405542879E+03  0.48950029105E+02 -0.12387087214E+04  0.14363339834E+04  0.65864270000E+03 0.  0.
    8880022    1    1    2    0    0 -0.30405542879E+03 -0.48950029105E+02  0.18186125864E+03  0.38898712002E+03  0.15294330000E+03 0.  0.
<mgrwt>
<rscale>  0 0.60295421E+03</rscale>
<asrwt>0</asrwt>
<pdfrwt beam="1">  1        2 0.59113358E-01 0.72708735E+03</pdfrwt>
<pdfrwt beam="2">  1       -2 0.22170527E+00 0.72708735E+03</pdfrwt>
<totfact> 0.82212682E+00</totfact>
</mgrwt>
</event>
<event>
 4    5  0.7289609E-008  0.8172794E+03  0.7818608E-02  0.9674609E-01
         -2   -1    0    0    0  501 -0.00000000000E+00  0.00000000000E+00  0.43150457902E+03  0.43150457903E+03  0.25500000000E-02 0.  1.
          2   -1    0    0  501    0  0.00000000000E+00 -0.00000000000E+00 -0.10338426968E+04  0.10338426968E+04  0.25500000000E-02 0. -1.
    8880023    1    1    2    0    0 -0.43426632893E+03 -0.21342014772E+03 -0.27885285627E+03  0.86354184937E+03  0.65864270000E+03 0.  0.
    8880022    1    1    2    0    0  0.43426632893E+03  0.21342014772E+03 -0.32348526149E+03  0.60180542646E+03  0.15294330000E+03 0.  0.
<mgrwt>
<rscale>  0 0.72548890E+03</rscale>
<asrwt>0</asrwt>
<pdfrwt beam="1">  1        2 0.15905272E+00 0.81727940E+03</pdfrwt>
<pdfrwt beam="2">  1       -2 0.66385320E-01 0.81727940E+03</pdfrwt>
<totfact> 0.50495907E+01</totfact>
</mgrwt>
</event>
<event>
 4    5  0.7289609E-008  0.8199531E+03  0.7818608E-02  0.9669206E-01
         -2   -1    0    0    0  501 -0.00000000000E+00  0.00000000000E+00  0.50310206583E+03  0.50310206584E+03  0.25500000000E-02 0.  1.
          2   -1    0    0  501    0  0.00000000000E+00 -0.00000000000E+00 -0.18257365288E+04  0.18257365288E+04  0.25500000000E-02 0. -1.
    8880023    1    1    2    0    0  0.48509543527E+03  0.56527341925E+02  0.91411873804E+02  0.82503288337E+03  0.65864270000E+03 0.  1.
    8880022    1    1    2    0    0 -0.48509543527E+03 -0.56527341925E+02 -0.14140463368E+04  0.15038057113E+04  0.15294330000E+03 0.  0.
<mgrwt>
<rscale>  0 0.72880217E+03</rscale>
<asrwt>0</asrwt>
<pdfrwt beam="1">  1        2 0.28088254E+00 0.81995313E+03</pdfrwt>
<pdfrwt beam="2">  1       -2 0.77400319E-01 0.81995313E+03</pdfrwt>
<totfact> 0.12694911E+01</totfact>
</mgrwt>
</event>
<event>
 4    5  0.7289609E-008  0.8015326E+03  0.7818608E-02  0.9707492E-01
         -2   -1    0    0    0  501 -0.00000000000E+00  0.00000000000E+00  0.66050618010E+03  0.66050618011E+03  0.25500000000E-02 0.  1.
          2   -1    0    0  501    0  0.00000000000E+00 -0.00000000000E+00 -0.10872033909E+04  0.10872033909E+04  0.25500000000E-02 0. -1.
    8880023    1    1    2    0    0 -0.26598531389E+03 -0.37134370980E+03  0.31674895129E+03  0.86184943141E+03  0.65864270000E+03 0.  0.
    8880022    1    1    2    0    0  0.26598531389E+03  0.37134370980E+03 -0.74344616212E+03  0.88586013964E+03  0.15294330000E+03 0.  0.
<mgrwt>
<rscale>  0 0.70572471E+03</rscale>
<asrwt>0</asrwt>
<pdfrwt beam="1">  1        2 0.16726206E+00 0.80153262E+03</pdfrwt>
<pdfrwt beam="2">  1       -2 0.10161634E+00 0.80153262E+03</pdfrwt>
<totfact> 0.17854312E+01</totfact>
</mgrwt>
</event>
<event>
 4    5  0.7289609E-008  0.9136383E+03  0.7818608E-02  0.9504483E-01
          2   -1    0    0  501    0  0.00000000000E+00  0.00000000000E+00  0.71779150713E+03  0.71779150714E+03  0.25500000000E-02 0. -1.
         -2   -1    0    0    0  501 -0.00000000000E+00 -0.00000000000E+00 -0.26285633511E+04  0.26285633511E+04  0.25500000000E-02 0.  1.
    8880023    1    1    2    0    0 -0.32167016284E+03  0.54539261958E+03 -0.23761833576E+04  0.25457773584E+04  0.65864270000E+03 0.  1.
    8880022    1    1    2    0    0  0.32167016284E+03 -0.54539261958E+03  0.46541151369E+03  0.80057749983E+03  0.15294330000E+03 0.  0.
<mgrwt>
<rscale>  0 0.83954112E+03</rscale>
<asrwt>0</asrwt>
<pdfrwt beam="1">  1        2 0.11042946E+00 0.91363834E+03</pdfrwt>
<pdfrwt beam="2">  1       -2 0.40439436E+00 0.91363834E+03</pdfrwt>
<totfact> 0.28478548E-01</totfact>
</mgrwt>
</event>
<event>
 4    5  0.7289609E-008  0.1026178E+04  0.7818608E-02  0.9348082E-01
         -2   -1    0    0    0  501 -0.00000000000E+00  0.00000000000E+00  0.10173437551E+04  0.10173437551E+04  0.25500000000E-02 0.  1.
          2   -1    0    0  501    0  0.00000000000E+00 -0.00000000000E+00 -0.92558534871E+03  0.92558534872E+03  0.25500000000E-02 0. -1.
    8880023    1    1    2    0    0 -0.16509225184E+03 -0.76939999457E+03  0.37525567538E+03  0.10926384724E+04  0.65864270000E+03 0.  0.
    8880022    1    1    2    0    0  0.16509225184E+03  0.76939999457E+03 -0.28349726900E+03  0.85029063138E+03  0.15294330000E+03 0.  0.
<mgrwt>
<rscale>  0 0.96474316E+03</rscale>
<asrwt>0</asrwt>
<pdfrwt beam="1">  1        2 0.14239775E+00 0.10261784E+04</pdfrwt>
<pdfrwt beam="2">  1       -2 0.15651442E+00 0.10261784E+04</pdfrwt>
<totfact> 0.74532173E+00</totfact>
</mgrwt>
</event>
<event>
 4    5  0.7289609E-008  0.1066115E+04  0.7818608E-02  0.9299755E-01
         -2   -1    0    0    0  501 -0.00000000000E+00  0.00000000000E+00  0.83021569377E+03  0.83021569378E+03  0.25500000000E-02 0.  1.
          2   -1    0    0  501    0  0.00000000000E+00 -0.00000000000E+00 -0.17110213491E+04  0.17110213491E+04  0.25500000000E-02 0. -1.
    8880023    1    1    2    0    0 -0.15384616971E+03 -0.82408856114E+03  0.27900737379E+03  0.11020190204E+04  0.65864270000E+03 0.  0.
    8880022    1    1    2    0    0  0.15384616971E+03  0.82408856114E+03 -0.11598130291E+04  0.14392180224E+04  0.15294330000E+03 0.  0.
<mgrwt>
<rscale>  0 0.10080537E+04</rscale>
<asrwt>0</asrwt>
<pdfrwt beam="1">  1        2 0.26323405E+00 0.10661148E+04</pdfrwt>
<pdfrwt beam="2">  1       -2 0.12772549E+00 0.10661148E+04</pdfrwt>
<totfact> 0.43376484E+00</totfact>
</mgrwt>
</event>
<event>
 4    5  0.7289609E-008  0.7697246E+03  0.7818608E-02  0.9780552E-01
         -2   -1    0    0    0  501 -0.00000000000E+00  0.00000000000E+00  0.16400272023E+04  0.16400272023E+04  0.25500000000E-02 0.  1.
          2   -1    0    0  501    0  0.00000000000E+00 -0.00000000000E+00 -0.10081732832E+04  0.10081732832E+04  0.25500000000E-02 0. -1.
    8880023    1    1    2    0    0 -0.38966175011E+03 -0.82640440468E+02  0.14971467644E+04  0.16834263757E+04  0.65864270000E+03 0.  1.
    8880022    1    1    2    0    0  0.38966175011E+03  0.82640440468E+02 -0.86529284526E+03  0.96477410982E+03  0.15294330000E+03 0.  0.
<mgrwt>
<rscale>  0 0.66416739E+03</rscale>
<asrwt>0</asrwt>
<pdfrwt beam="1">  1        2 0.15510358E+00 0.76972458E+03</pdfrwt>
<pdfrwt beam="2">  1       -2 0.25231188E+00 0.76972458E+03</pdfrwt>
<totfact> 0.15959997E+00</totfact>
</mgrwt>
</event>
<event>
 4    5  0.7289609E-008  0.1216494E+04  0.7818608E-02  0.9141254E-01
         -2   -1    0    0    0  501 -0.00000000000E+00  0.00000000000E+00  0.15024539653E+04  0.15024539653E+04  0.25500000000E-02 0.  1.
          2   -1    0    0  501    0  0.00000000000E+00 -0.00000000000E+00 -0.10066251348E+04  0.10066251348E+04  0.25500000000E-02 0. -1.
    8880023    1    1    2    0    0 -0.51443227747E+03  0.88397185410E+03  0.76937794130E+03  0.14393746662E+04  0.65864270000E+03 0.  0.
    8880022    1    1    2    0    0  0.51443227747E+03 -0.88397185410E+03 -0.27354911078E+03  0.10697044339E+04  0.15294330000E+03 0.  0.
<mgrwt>
<rscale>  0 0.11680916E+04</rscale>
<asrwt>0</asrwt>
<pdfrwt beam="1">  1        2 0.15486541E+00 0.12164937E+04</pdfrwt>
<pdfrwt beam="2">  1       -2 0.23114676E+00 0.12164937E+04</pdfrwt>
<totfact> 0.20380664E+00</totfact>
</mgrwt>
</event>
<event>
 4    5  0.7289609E-008  0.1285719E+04  0.7818608E-02  0.9077992E-01
         -2   -1    0    0    0  501 -0.00000000000E+00  0.00000000000E+00  0.18488687379E+04  0.18488687379E+04  0.25500000000E-02 0.  1.
          2   -1    0    0  501    0  0.00000000000E+00 -0.00000000000E+00 -0.15133206649E+04  0.15133206649E+04  0.25500000000E-02 0. -1.
    8880023    1    1    2    0    0 -0.32074103605E+03 -0.10565927429E+04  0.13433067418E+04  0.18594478335E+04  0.65864270000E+03 0.  0.
    8880022    1    1    2    0    0  0.32074103605E+03  0.10565927429E+04 -0.10077586689E+04  0.15027415693E+04  0.15294330000E+03 0.  0.
<mgrwt>
<rscale>  0 0.12406616E+04</rscale>
<asrwt>0</asrwt>
<pdfrwt beam="1">  1        2 0.23281856E+00 0.12857190E+04</pdfrwt>
<pdfrwt beam="2">  1       -2 0.28444134E+00 0.12857190E+04</pdfrwt>
<totfact> 0.47563190E-01</totfact>
</mgrwt>
</event>
<event>
 4    5  0.7289609E-008  0.1413053E+04  0.7818608E-02  0.8973606E-01
          2   -1    0    0  501    0  0.00000000000E+00  0.00000000000E+00  0.18010983172E+04  0.18010983172E+04  0.25500000000E-02 0. -1.
         -2   -1    0    0    0  501 -0.00000000000E+00 -0.00000000000E+00 -0.16429750080E+04  0.16429750080E+04  0.25500000000E-02 0.  1.
    8880023    1    1    2    0    0 -0.35121061681E+03 -0.11998166303E+04 -0.10015627711E+04  0.17320066496E+04  0.65864270000E+03 0.  1.
    8880022    1    1    2    0    0  0.35121061681E+03  0.11998166303E+04  0.11596860803E+04  0.17120666756E+04  0.15294330000E+03 0.  0.
<mgrwt>
<rscale>  0 0.13729890E+04</rscale>
<asrwt>0</asrwt>
<pdfrwt beam="1">  1        2 0.27709205E+00 0.14130531E+04</pdfrwt>
<pdfrwt beam="2">  1       -2 0.25276539E+00 0.14130531E+04</pdfrwt>
<totfact> 0.50436683E-01</totfact>
</mgrwt>
</event>
<event>
 4    5  0.7289609E-008  0.6727116E+03  0.7818608E-02  0.1013789E+00
         -2   -1    0    0    0  501 -0.00000000000E+00  0.00000000000E+00  0.60063792172E+03  0.60063792173E+03  0.25500000000E-02 0.  1.
          2   -1    0    0  501    0  0.00000000000E+00 -0.00000000000E+00 -0.29397244575E+04  0.29397244575E+04  0.25500000000E-02 0. -1.
    8880023    1    1    2    0    0 -0.39595782340E+02 -0.13100705859E+03  0.40724190663E+03  0.78637577033E+03  0.65864270000E+03 0.  1.
    8880022    1    1    2    0    0  0.39595782340E+02  0.13100705859E+03 -0.27463284424E+04  0.27539866089E+04  0.15294330000E+03 0.  0.
<mgrwt>
<rscale>  0 0.49996054E+03</rscale>
<asrwt>0</asrwt>
<pdfrwt beam="1">  1        2 0.45226529E+00 0.67271159E+03</pdfrwt>
<pdfrwt beam="2">  1       -2 0.92405836E-01 0.67271159E+03</pdfrwt>
<totfact> 0.20456948E+00</totfact>
</mgrwt>
</event>
<event>
 4    5  0.7289609E-008  0.8677683E+03  0.7818608E-02  0.9579892E-01
         -2   -1    0    0    0  501 -0.00000000000E+00  0.00000000000E+00  0.10649316384E+04  0.10649316384E+04  0.25500000000E-02 0.  1.
          2   -1    0    0  501    0  0.00000000000E+00 -0.00000000000E+00 -0.36870505637E+04  0.36870505637E+04  0.25500000000E-02 0. -1.
    8880023    1    1    2    0    0  0.38767551921E+03 -0.41099790340E+03  0.85957531965E+03  0.12214301131E+04  0.65864270000E+03 0.  1.
    8880022    1    1    2    0    0 -0.38767551921E+03  0.41099790340E+03 -0.34816942449E+04  0.35305520890E+04  0.15294330000E+03 0.  0.
<mgrwt>
<rscale>  0 0.78641495E+03</rscale>
<asrwt>0</asrwt>
<pdfrwt beam="1">  1        2 0.56723854E+00 0.86776828E+03</pdfrwt>
<pdfrwt beam="2">  1       -2 0.16383564E+00 0.86776828E+03</pdfrwt>
<totfact> 0.15038522E-01</totfact>
</mgrwt>
</event>
<event>
 4    5  0.7289609E-008  0.6924456E+03  0.7818608E-02  0.1003011E+00
         -2   -1    0    0    0  501 -0.00000000000E+00  0.00000000000E+00  0.31917394483E+03  0.31917394484E+03  0.25500000000E-02 0.  1.
          2   -1    0    0  501    0  0.00000000000E+00 -0.00000000000E+00 -0.42458867354E+04  0.42458867354E+04  0.25500000000E-02 0. -1.
    8880023    1    1    2    0    0  0.20500673737E+03 -0.60357058272E+02 -0.66188234054E+02  0.69560177217E+03  0.65864270000E+03 0.  1.
    8880022    1    1    2    0    0 -0.20500673737E+03  0.60357058272E+02 -0.38605245565E+04  0.38694589081E+04  0.15294330000E+03 0.  0.
<mgrwt>
<rscale>  0 0.54349363E+03</rscale>
<asrwt>0</asrwt>
<pdfrwt beam="1">  1        2 0.65321330E+00 0.69244562E+03</pdfrwt>
<pdfrwt beam="2">  1       -2 0.49103687E-01 0.69244562E+03</pdfrwt>
<totfact> 0.95143018E-01</totfact>
</mgrwt>
</event>
<event>
 4    5  0.7289609E-008  0.1072872E+04  0.7818608E-02  0.9291878E-01
          2   -1    0    0  501    0  0.00000000000E+00  0.00000000000E+00  0.27467316992E+04  0.27467316992E+04  0.25500000000E-02 0. -1.
         -2   -1    0    0    0  501 -0.00000000000E+00 -0.00000000000E+00 -0.68700941479E+03  0.68700941480E+03  0.25500000000E-02 0.  1.
    8880023    1    1    2    0    0 -0.38545909590E+03 -0.75409967926E+03 -0.13024038475E+03  0.10807487242E+04  0.65864270000E+03 0.  0.
    8880022    1    1    2    0    0  0.38545909590E+03  0.75409967926E+03  0.21899626691E+04  0.23529923897E+04  0.15294330000E+03 0.  0.
<mgrwt>
<rscale>  0 0.10153405E+04</rscale>
<asrwt>0</asrwt>
<pdfrwt beam="1">  1        2 0.42257412E+00 0.10728724E+04</pdfrwt>
<pdfrwt beam="2">  1       -2 0.10569375E+00 0.10728724E+04</pdfrwt>
<totfact> 0.18060280E+00</totfact>
</mgrwt>
</event>
<event>
 4    5  0.7289609E-008  0.1083578E+04  0.7818608E-02  0.9279564E-01
         -2   -1    0    0    0  501 -0.00000000000E+00  0.00000000000E+00  0.11038208383E+04  0.11038208383E+04  0.25500000000E-02 0.  1.
          2   -1    0    0  501    0  0.00000000000E+00 -0.00000000000E+00 -0.17749270251E+04  0.17749270251E+04  0.25500000000E-02 0. -1.
    8880023    1    1    2    0    0 -0.54847693738E+03  0.66295080069E+03  0.67296498576E+03  0.12755480365E+04  0.65864270000E+03 0.  0.
    8880022    1    1    2    0    0  0.54847693738E+03 -0.66295080069E+03 -0.13440711726E+04  0.16031998269E+04  0.15294330000E+03 0.  0.
<mgrwt>
<rscale>  0 0.10268619E+04</rscale>
<asrwt>0</asrwt>
<pdfrwt beam="1">  1        2 0.27306570E+00 0.10835778E+04</pdfrwt>
<pdfrwt beam="2">  1       -2 0.16981859E+00 0.10835778E+04</pdfrwt>
<totfact> 0.18748273E+00</totfact>
</mgrwt>
</event>
<event>
 4    5  0.9399193E-008  0.1309140E+04  0.7818608E-02  0.9057707E-01
         -2   -1    0    0    0  501 -0.00000000000E+00  0.00000000000E+00  0.25060266165E+04  0.25060266165E+04  0.25500000000E-02 0.  1.
          2   -1    0    0  501    0  0.00000000000E+00 -0.00000000000E+00 -0.20321250620E+04  0.20321250620E+04  0.25500000000E-02 0. -1.
    8880023    1    1    2    0    0  0.98426314174E+03 -0.55791036648E+03  0.21458056221E+04  0.25136288276E+04  0.65864270000E+03 0.  0.
    8880022    1    1    2    0    0 -0.98426314174E+03  0.55791036648E+03 -0.16719040676E+04  0.20245228508E+04  0.15294330000E+03 0.  0.
<mgrwt>
<rscale>  0 0.12651021E+04</rscale>
<asrwt>0</asrwt>
<pdfrwt beam="1">  1        2 0.31263463E+00 0.13091402E+04</pdfrwt>
<pdfrwt beam="2">  1       -2 0.38554256E+00 0.13091402E+04</pdfrwt>
<totfact> 0.57130705E-02</totfact>
</mgrwt>
</event>
<event>
 4    5  0.7289609E-008  0.7185131E+03  0.7818608E-02  0.9927650E-01
          2   -1    0    0  501    0  0.00000000000E+00  0.00000000000E+00  0.74877356788E+03  0.74877356788E+03  0.25500000000E-02 0. -1.
         -2   -1    0    0    0  501 -0.00000000000E+00 -0.00000000000E+00 -0.10565071996E+04  0.10565071996E+04  0.25500000000E-02 0.  1.
    8880023    1    1    2    0    0 -0.15727745770E+03 -0.24023877916E+03 -0.88663847655E+03  0.11412225305E+04  0.65864270000E+03 0.  1.
    8880022    1    1    2    0    0  0.15727745770E+03  0.24023877916E+03  0.57890484485E+03  0.66405823699E+03  0.15294330000E+03 0.  0.
<mgrwt>
<rscale>  0 0.58939784E+03</rscale>
<asrwt>0</asrwt>
<pdfrwt beam="1">  1        2 0.11519593E+00 0.71851310E+03</pdfrwt>
<pdfrwt beam="2">  1       -2 0.16253957E+00 0.71851310E+03</pdfrwt>
<totfact> 0.92525352E+00</totfact>
</mgrwt>
</event>
<event>
 4    5  0.7289609E-008  0.1362300E+04  0.7818608E-02  0.9013544E-01
         -2   -1    0    0    0  501 -0.00000000000E+00  0.00000000000E+00  0.79704911533E+03  0.79704911534E+03  0.25500000000E-02 0.  1.
          2   -1    0    0  501    0  0.00000000000E+00 -0.00000000000E+00 -0.22718229352E+04  0.22718229352E+04  0.25500000000E-02 0. -1.
    8880023    1    1    2    0    0  0.11546173813E+04 -0.29817736836E+03 -0.31469369456E+03  0.13981750133E+04  0.65864270000E+03 0.  0.
    8880022    1    1    2    0    0 -0.11546173813E+04  0.29817736836E+03 -0.11600801253E+04  0.16706970372E+04  0.15294330000E+03 0.  0.
<mgrwt>
<rscale>  0 0.13203974E+04</rscale>
<asrwt>0</asrwt>
<pdfrwt beam="1">  1        2 0.34951122E+00 0.13623000E+04</pdfrwt>
<pdfrwt beam="2">  1       -2 0.12262294E+00 0.13623000E+04</pdfrwt>
<totfact> 0.22748136E+00</totfact>
</mgrwt>
</event>
<event>
 4    5  0.7289609E-008  0.1417383E+04  0.7818608E-02  0.8970292E-01
         -2   -1    0    0    0  501 -0.00000000000E+00  0.00000000000E+00  0.95493962481E+03  0.95493962481E+03  0.25500000000E-02 0.  1.
          2   -1    0    0  501    0  0.00000000000E+00 -0.00000000000E+00 -0.23818366870E+04  0.23818366870E+04  0.25500000000E-02 0. -1.
    8880023    1    1    2    0    0 -0.12275204486E+04 -0.26145100826E+03  0.17098029729E+02  0.14174856720E+04  0.65864270000E+03 0.  0.
    8880022    1    1    2    0    0  0.12275204486E+04  0.26145100826E+03 -0.14439950920E+04  0.19192906398E+04  0.15294330000E+03 0.  0.
<mgrwt>
<rscale>  0 0.13774671E+04</rscale>
<asrwt>0</asrwt>
<pdfrwt beam="1">  1        2 0.36643641E+00 0.14173825E+04</pdfrwt>
<pdfrwt beam="2">  1       -2 0.14691379E+00 0.14173825E+04</pdfrwt>
<totfact> 0.12283488E+00</totfact>
</mgrwt>
</event>
<event>
 4    5  0.7289609E-008  0.8735318E+03  0.7818608E-02  0.9569932E-01
          2   -1    0    0  501    0  0.00000000000E+00  0.00000000000E+00  0.49197448892E+04  0.49197448892E+04  0.25500000000E-02 0. -1.
         -2   -1    0    0    0  501 -0.00000000000E+00 -0.00000000000E+00 -0.19027074373E+03  0.19027074375E+03  0.25500000000E-02 0.  1.
    8880023    1    1    2    0    0 -0.49717757255E+03 -0.28646489254E+03  0.97585706108E+03  0.13097155734E+04  0.65864270000E+03 0.  1.
    8880022    1    1    2    0    0  0.49717757255E+03  0.28646489254E+03  0.37536170843E+04  0.38003000595E+04  0.15294330000E+03 0.  0.
<mgrwt>
<rscale>  0 0.79318665E+03</rscale>
<asrwt>0</asrwt>
<pdfrwt beam="1">  1        2 0.75688372E+00 0.87353184E+03</pdfrwt>
<pdfrwt beam="2">  1       -2 0.29272426E-01 0.87353184E+03</pdfrwt>
<totfact> 0.52354051E-01</totfact>
</mgrwt>
</event>
<event>
 4    5  0.7289609E-008  0.7546646E+03  0.7818608E-02  0.9819121E-01
         -2   -1    0    0    0  501 -0.00000000000E+00  0.00000000000E+00  0.25677613875E+03  0.25677613876E+03  0.25500000000E-02 0.  1.
          2   -1    0    0  501    0  0.00000000000E+00 -0.00000000000E+00 -0.17439458230E+04  0.17439458230E+04  0.25500000000E-02 0. -1.
    8880023    1    1    2    0    0  0.16407106524E+03 -0.32983198613E+03 -0.14029658752E+04  0.15930574085E+04  0.65864270000E+03 0. -1.
    8880022    1    1    2    0    0 -0.16407106524E+03  0.32983198613E+03 -0.84203809064E+02  0.40766455328E+03  0.15294330000E+03 0.  0.
<mgrwt>
<rscale>  0 0.64346406E+03</rscale>
<asrwt>0</asrwt>
<pdfrwt beam="1">  1        2 0.26829935E+00 0.75466460E+03</pdfrwt>
<pdfrwt beam="2">  1       -2 0.39504022E-01 0.75466460E+03</pdfrwt>
<totfact> 0.57542893E+01</totfact>
</mgrwt>
</event>
<event>
 4    5  0.7289609E-008  0.1822822E+04  0.7818608E-02  0.8710016E-01
          2   -1    0    0  501    0  0.00000000000E+00  0.00000000000E+00  0.15431110572E+04  0.15431110572E+04  0.25500000000E-02 0. -1.
         -2   -1    0    0    0  501 -0.00000000000E+00 -0.00000000000E+00 -0.25984025457E+04  0.25984025457E+04  0.25500000000E-02 0.  1.
    8880023    1    1    2    0    0  0.64009863151E+03 -0.15745296719E+04 -0.15193646161E+04  0.23730042117E+04  0.65864270000E+03 0.  0.
    8880022    1    1    2    0    0 -0.64009863151E+03  0.15745296719E+04  0.46407312764E+03  0.17685093911E+04  0.15294330000E+03 0.  0.
<mgrwt>
<rscale>  0 0.17930277E+04</rscale>
<asrwt>0</asrwt>
<pdfrwt beam="1">  1        2 0.23740170E+00 0.18228220E+04</pdfrwt>
<pdfrwt beam="2">  1       -2 0.39975424E+00 0.18228220E+04</pdfrwt>
<totfact> 0.81236504E-02</totfact>
</mgrwt>
</event>
<event>
 4    5  0.7289609E-008  0.8556277E+03  0.7818608E-02  0.9601389E-01
         -2   -1    0    0    0  501 -0.00000000000E+00  0.00000000000E+00  0.59180333142E+03  0.59180333143E+03  0.25500000000E-02 0.  1.
          2   -1    0    0  501    0  0.00000000000E+00 -0.00000000000E+00 -0.12031603978E+04  0.12031603978E+04  0.25500000000E-02 0. -1.
    8880023    1    1    2    0    0 -0.10654974857E+03  0.53566384403E+03  0.12584293820E+03  0.86483250059E+03  0.65864270000E+03 0.  0.
    8880022    1    1    2    0    0  0.10654974857E+03 -0.53566384403E+03 -0.73720000457E+03  0.93013122863E+03  0.15294330000E+03 0.  0.
<mgrwt>
<rscale>  0 0.77204335E+03</rscale>
<asrwt>0</asrwt>
<pdfrwt beam="1">  1        2 0.18510160E+00 0.85562773E+03</pdfrwt>
<pdfrwt beam="2">  1       -2 0.91046667E-01 0.85562773E+03</pdfrwt>
<totfact> 0.19558009E+01</totfact>
</mgrwt>
</event>
<event>
 4    5  0.7289609E-008  0.1106189E+04  0.7818608E-02  0.9254196E-01
          2   -1    0    0  501    0  0.00000000000E+00  0.00000000000E+00  0.29948514026E+04  0.29948514026E+04  0.25500000000E-02 0. -1.
         -2   -1    0    0    0  501 -0.00000000000E+00 -0.00000000000E+00 -0.13671003560E+04  0.13671003560E+04  0.25500000000E-02 0.  1.
    8880023    1    1    2    0    0  0.12946628664E+03  0.87925139112E+03 -0.10568728200E+04  0.15299133610E+04  0.65864270000E+03 0.  1.
    8880022    1    1    2    0    0 -0.12946628664E+03 -0.87925139112E+03  0.26846238666E+04  0.28320383977E+04  0.15294330000E+03 0.  0.
<mgrwt>
<rscale>  0 0.10511124E+04</rscale>
<asrwt>0</asrwt>
<pdfrwt beam="1">  1        2 0.46074637E+00 0.11061893E+04</pdfrwt>
<pdfrwt beam="2">  1       -2 0.21032313E+00 0.11061893E+04</pdfrwt>
<totfact> 0.19959764E-01</totfact>
</mgrwt>
</event>
<event>
 4    5  0.7289609E-008  0.1023565E+04  0.7818608E-02  0.9351357E-01
         -2   -1    0    0    0  501 -0.00000000000E+00  0.00000000000E+00  0.80575786856E+03  0.80575786857E+03  0.25500000000E-02 0.  1.
          2   -1    0    0  501    0  0.00000000000E+00 -0.00000000000E+00 -0.22279463215E+04  0.22279463215E+04  0.25500000000E-02 0. -1.
    8880023    1    1    2    0    0  0.17088731793E+03  0.76463888462E+03  0.35667517438E+03  0.10839291885E+04  0.65864270000E+03 0.  1.
    8880022    1    1    2    0    0 -0.17088731793E+03 -0.76463888462E+03 -0.17788636273E+04  0.19497750016E+04  0.15294330000E+03 0.  0.
<mgrwt>
<rscale>  0 0.96189292E+03</rscale>
<asrwt>0</asrwt>
<pdfrwt beam="1">  1        2 0.34276097E+00 0.10235650E+04</pdfrwt>
<pdfrwt beam="2">  1       -2 0.12396275E+00 0.10235650E+04</pdfrwt>
<totfact> 0.24355550E+00</totfact>
</mgrwt>
</event>
<event>
 4    5  0.7289609E-008  0.1038624E+04  0.7818608E-02  0.9332683E-01
         -2   -1    0    0    0  501 -0.00000000000E+00  0.00000000000E+00  0.62908035613E+03  0.62908035613E+03  0.25500000000E-02 0.  1.
          2   -1    0    0  501    0  0.00000000000E+00 -0.00000000000E+00 -0.20036316684E+04  0.20036316684E+04  0.25500000000E-02 0. -1.
    8880023    1    1    2    0    0 -0.49767007114E+02 -0.80153165064E+03 -0.60709649587E+01  0.10386418078E+04  0.65864270000E+03 0.  1.
    8880022    1    1    2    0    0  0.49767007114E+02  0.80153165064E+03 -0.13684803473E+04  0.15940702168E+04  0.15294330000E+03 0.  0.
<mgrwt>
<rscale>  0 0.97828852E+03</rscale>
<asrwt>0</asrwt>
<pdfrwt beam="1">  1        2 0.30825102E+00 0.10386241E+04</pdfrwt>
<pdfrwt beam="2">  1       -2 0.96781595E-01 0.10386241E+04</pdfrwt>
<totfact> 0.59117220E+00</totfact>
</mgrwt>
</event>
<event>
 4    5  0.7289609E-008  0.7184565E+03  0.7818608E-02  0.9927843E-01
         -2   -1    0    0    0  501 -0.00000000000E+00  0.00000000000E+00  0.50893971538E+03  0.50893971539E+03  0.25500000000E-02 0.  1.
          2   -1    0    0  501    0  0.00000000000E+00 -0.00000000000E+00 -0.97752256981E+03  0.97752256981E+03  0.25500000000E-02 0. -1.
    8880023    1    1    2    0    0 -0.16443495179E+03  0.23522488475E+03  0.19760341605E+03  0.74513550182E+03  0.65864270000E+03 0.  0.
    8880022    1    1    2    0    0  0.16443495179E+03 -0.23522488475E+03 -0.66618627047E+03  0.74132678338E+03  0.15294330000E+03 0.  0.
<mgrwt>
<rscale>  0 0.58930646E+03</rscale>
<asrwt>0</asrwt>
<pdfrwt beam="1">  1        2 0.15038809E+00 0.71845654E+03</pdfrwt>
<pdfrwt beam="2">  1       -2 0.78298418E-01 0.71845654E+03</pdfrwt>
<totfact> 0.38487473E+01</totfact>
</mgrwt>
</event>
<event>
 4    5  0.7289609E-008  0.6612199E+03  0.7818608E-02  0.1022940E+00
          2   -1    0    0  501    0  0.00000000000E+00  0.00000000000E+00  0.19231878428E+04  0.19231878428E+04  0.25500000000E-02 0. -1.
         -2   -1    0    0    0  501 -0.00000000000E+00 -0.00000000000E+00 -0.25926952934E+03  0.25926952936E+03  0.25500000000E-02 0.  1.
    8880023    1    1    2    0    0 -0.80566873385E+01 -0.57763821846E+02  0.17421133252E+03  0.68378458886E+03  0.65864270000E+03 0.  0.
    8880022    1    1    2    0    0  0.80566873385E+01  0.57763821846E+02  0.14897069809E+04  0.14986727833E+04  0.15294330000E+03 0.  0.
<mgrwt>
<rscale>  0 0.46640432E+03</rscale>
<asrwt>0</asrwt>
<pdfrwt beam="1">  1        2 0.29587506E+00 0.66121991E+03</pdfrwt>
<pdfrwt beam="2">  1       -2 0.39887619E-01 0.66121991E+03</pdfrwt>
<totfact> 0.45628176E+01</totfact>
</mgrwt>
</event>
<event>
 4    5  0.7289609E-008  0.7033618E+03  0.7818608E-02  0.9983531E-01
         -2   -1    0    0    0  501 -0.00000000000E+00  0.00000000000E+00  0.59831313662E+03  0.59831313662E+03  0.25500000000E-02 0.  1.
          2   -1    0    0  501    0  0.00000000000E+00 -0.00000000000E+00 -0.17573803344E+04  0.17573803344E+04  0.25500000000E-02 0. -1.
    8880023    1    1    2    0    0 -0.23343444508E+03 -0.80099478849E+02  0.37314638049E+03  0.79621353555E+03  0.65864270000E+03 0.  1.
    8880022    1    1    2    0    0  0.23343444508E+03  0.80099478849E+02 -0.15322135782E+04  0.15594799354E+04  0.15294330000E+03 0.  0.
<mgrwt>
<rscale>  0 0.56378305E+03</rscale>
<asrwt>0</asrwt>
<pdfrwt beam="1">  1        2 0.27036620E+00 0.70336177E+03</pdfrwt>
<pdfrwt beam="2">  1       -2 0.92048176E-01 0.70336177E+03</pdfrwt>
<totfact> 0.94801448E+00</totfact>
</mgrwt>
</event>
<event>
 4    5  0.7289609E-008  0.6984310E+03  0.7818608E-02  0.1000377E+00
          2   -1    0    0  501    0  0.00000000000E+00  0.00000000000E+00  0.45015799388E+03  0.45015799389E+03  0.25500000000E-02 0. -1.
         -2   -1    0    0    0  501 -0.00000000000E+00 -0.00000000000E+00 -0.83769657778E+03  0.83769657778E+03  0.25500000000E-02 0.  1.
    8880023    1    1    2    0    0 -0.21068540790E+03 -0.98016958744E+02 -0.61337902767E+03  0.92953735974E+03  0.65864270000E+03 0.  1.
    8880022    1    1    2    0    0  0.21068540790E+03  0.98016958744E+02  0.22584044377E+03  0.35831721193E+03  0.15294330000E+03 0.  0.
<mgrwt>
<rscale>  0 0.55485098E+03</rscale>
<asrwt>0</asrwt>
<pdfrwt beam="1">  1        2 0.69255076E-01 0.69843101E+03</pdfrwt>
<pdfrwt beam="2">  1       -2 0.12887640E+00 0.69843101E+03</pdfrwt>
<totfact> 0.31362564E+01</totfact>
</mgrwt>
</event>
<event>
 4    5  0.7289609E-008  0.9369546E+03  0.7818608E-02  0.9469137E-01
          2   -1    0    0  501    0  0.00000000000E+00  0.00000000000E+00  0.12225682010E+04  0.12225682010E+04  0.25500000000E-02 0. -1.
         -2   -1    0    0    0  501 -0.00000000000E+00 -0.00000000000E+00 -0.14825877873E+04  0.14825877873E+04  0.25500000000E-02 0.  1.
    8880023    1    1    2    0    0 -0.62016197874E+03  0.24387060407E+03 -0.12127213796E+04  0.15325068033E+04  0.65864270000E+03 0.  0.
    8880022    1    1    2    0    0  0.62016197874E+03 -0.24387060407E+03  0.95270179325E+03  0.11726491851E+04  0.15294330000E+03 0.  0.
<mgrwt>
<rscale>  0 0.86597948E+03</rscale>
<asrwt>0</asrwt>
<pdfrwt beam="1">  1        2 0.18808742E+00 0.93695462E+03</pdfrwt>
<pdfrwt beam="2">  1       -2 0.22809043E+00 0.93695462E+03</pdfrwt>
<totfact> 0.16186506E+00</totfact>
</mgrwt>
</event>
<event>
 4    5  0.7289609E-008  0.8143261E+03  0.7818608E-02  0.9680635E-01
          2   -1    0    0  501    0  0.00000000000E+00  0.00000000000E+00  0.20993541500E+04  0.20993541500E+04  0.25500000000E-02 0. -1.
         -2   -1    0    0    0  501 -0.00000000000E+00 -0.00000000000E+00 -0.31044173837E+03  0.31044173838E+03  0.25500000000E-02 0.  1.
    8880023    1    1    2    0    0  0.37803346282E+03  0.29395155181E+03  0.35138102244E+03  0.88690227365E+03  0.65864270000E+03 0.  1.
    8880022    1    1    2    0    0 -0.37803346282E+03 -0.29395155181E+03  0.14375313892E+04  0.15228936147E+04  0.15294330000E+03 0.  0.
<mgrwt>
<rscale>  0 0.72181557E+03</rscale>
<asrwt>0</asrwt>
<pdfrwt beam="1">  1        2 0.32297755E+00 0.81432611E+03</pdfrwt>
<pdfrwt beam="2">  1       -2 0.47760269E-01 0.81432611E+03</pdfrwt>
<totfact> 0.25080315E+01</totfact>
</mgrwt>
</event>
<event>
 4    5  0.7289609E-008  0.9274110E+03  0.7818608E-02  0.9483388E-01
         -2   -1    0    0    0  501 -0.00000000000E+00  0.00000000000E+00  0.63196788783E+03  0.63196788784E+03  0.25500000000E-02 0.  1.
          2   -1    0    0  501    0  0.00000000000E+00 -0.00000000000E+00 -0.13257709942E+04  0.13257709942E+04  0.25500000000E-02 0. -1.
    8880023    1    1    2    0    0 -0.41043763114E+03 -0.50776164175E+03  0.83492290206E+02  0.93116169524E+03  0.65864270000E+03 0.  1.
    8880022    1    1    2    0    0  0.41043763114E+03  0.50776164175E+03 -0.77729539653E+03  0.10265771868E+04  0.15294330000E+03 0.  0.
<mgrwt>
<rscale>  0 0.85519712E+03</rscale>
<asrwt>0</asrwt>
<pdfrwt beam="1">  1        2 0.20396477E+00 0.92741099E+03</pdfrwt>
<pdfrwt beam="2">  1       -2 0.97225829E-01 0.92741099E+03</pdfrwt>
<totfact> 0.14120090E+01</totfact>
</mgrwt>
</event>
<event>
 4    5  0.7289609E-008  0.8449022E+03  0.7818608E-02  0.9621005E-01
          2   -1    0    0  501    0  0.00000000000E+00  0.00000000000E+00  0.15613213221E+04  0.15613213221E+04  0.25500000000E-02 0. -1.
         -2   -1    0    0    0  501 -0.00000000000E+00 -0.00000000000E+00 -0.11337213745E+04  0.11337213745E+04  0.25500000000E-02 0.  1.
    8880023    1    1    2    0    0  0.49587770843E+03 -0.18481036406E+03 -0.91403911892E+03  0.12447197635E+04  0.65864270000E+03 0.  1.
    8880022    1    1    2    0    0 -0.49587770843E+03  0.18481036406E+03  0.13416390665E+04  0.14503229331E+04  0.15294330000E+03 0.  0.
<mgrwt>
<rscale>  0 0.75921393E+03</rscale>
<asrwt>0</asrwt>
<pdfrwt beam="1">  1        2 0.24020328E+00 0.84490223E+03</pdfrwt>
<pdfrwt beam="2">  1       -2 0.17441867E+00 0.84490223E+03</pdfrwt>
<totfact> 0.23589036E+00</totfact>
</mgrwt>
</event>
<event>
 4    5  0.7289609E-008  0.8303532E+03  0.7818608E-02  0.9648646E-01
         -2   -1    0    0    0  501 -0.00000000000E+00  0.00000000000E+00  0.61754253702E+03  0.61754253703E+03  0.25500000000E-02 0.  1.
          2   -1    0    0  501    0  0.00000000000E+00 -0.00000000000E+00 -0.22487605399E+04  0.22487605399E+04  0.25500000000E-02 0. -1.
    8880023    1    1    2    0    0 -0.11456035645E+03 -0.49249581808E+03  0.28554257180E+03  0.87807799920E+03  0.65864270000E+03 0.  0.
    8880022    1    1    2    0    0  0.11456035645E+03  0.49249581808E+03 -0.19167605747E+04  0.19882250778E+04  0.15294330000E+03 0.  0.
<mgrwt>
<rscale>  0 0.74158489E+03</rscale>
<asrwt>0</asrwt>
<pdfrwt beam="1">  1        2 0.34596316E+00 0.83035319E+03</pdfrwt>
<pdfrwt beam="2">  1       -2 0.95006545E-01 0.83035319E+03</pdfrwt>
<totfact> 0.46473346E+00</totfact>
</mgrwt>
</event>
<event>
 4    5  0.7289609E-008  0.1204242E+04  0.7818608E-02  0.9153010E-01
         -2   -1    0    0    0  501 -0.00000000000E+00  0.00000000000E+00  0.14290602285E+04  0.14290602285E+04  0.25500000000E-02 0.  1.
          2   -1    0    0  501    0  0.00000000000E+00 -0.00000000000E+00 -0.91786376096E+03  0.91786376097E+03  0.25500000000E-02 0. -1.
    8880023    1    1    2    0    0  0.91165338792E+03 -0.43043683882E+03  0.55566626623E+03  0.13262590160E+04  0.65864270000E+03 0.  0.
    8880022    1    1    2    0    0 -0.91165338792E+03  0.43043683882E+03 -0.44469798723E+02  0.10206649734E+04  0.15294330000E+03 0.  0.
<mgrwt>
<rscale>  0 0.11551886E+04</rscale>
<asrwt>0</asrwt>
<pdfrwt beam="1">  1        2 0.14120981E+00 0.12042417E+04</pdfrwt>
<pdfrwt beam="2">  1       -2 0.21985542E+00 0.12042417E+04</pdfrwt>
<totfact> 0.27494918E+00</totfact>
</mgrwt>
</event>
<event>
 4    5  0.7289609E-008  0.7451124E+03  0.7818608E-02  0.9845298E-01
         -2   -1    0    0    0  501 -0.00000000000E+00  0.00000000000E+00  0.79129327271E+03  0.79129327271E+03  0.25500000000E-02 0.  1.
          2   -1    0    0  501    0  0.00000000000E+00 -0.00000000000E+00 -0.49913527932E+03  0.49913527933E+03  0.25500000000E-02 0. -1.
    8880023    1    1    2    0    0  0.23561054485E+03  0.25665144869E+03  0.45880851232E+03  0.87504157170E+03  0.65864270000E+03 0.  0.
    8880022    1    1    2    0    0 -0.23561054485E+03 -0.25665144869E+03 -0.16665051893E+03  0.41538698034E+03  0.15294330000E+03 0.  0.
<mgrwt>
<rscale>  0 0.62987250E+03</rscale>
<asrwt>0</asrwt>
<pdfrwt beam="1">  1        2 0.76790044E-01 0.74511241E+03</pdfrwt>
<pdfrwt beam="2">  1       -2 0.12173743E+00 0.74511241E+03</pdfrwt>
<totfact> 0.32010086E+01</totfact>
</mgrwt>
</event>
<event>
 4    5  0.7289609E-008  0.8879503E+03  0.7818608E-02  0.9545659E-01
         -2   -1    0    0    0  501 -0.00000000000E+00  0.00000000000E+00  0.14018486520E+04  0.14018486520E+04  0.25500000000E-02 0.  1.
          2   -1    0    0  501    0  0.00000000000E+00 -0.00000000000E+00 -0.57694427639E+03  0.57694427640E+03  0.25500000000E-02 0. -1.
    8880023    1    1    2    0    0  0.52762373313E+03  0.27614967002E+03  0.10021185175E+04  0.13389164176E+04  0.65864270000E+03 0.  0.
    8880022    1    1    2    0    0 -0.52762373313E+03 -0.27614967002E+03 -0.17721414184E+03  0.63987651082E+03  0.15294330000E+03 0.  0.
<mgrwt>
<rscale>  0 0.80999675E+03</rscale>
<asrwt>0</asrwt>
<pdfrwt beam="1">  1        2 0.88760659E-01 0.88795025E+03</pdfrwt>
<pdfrwt beam="2">  1       -2 0.21566902E+00 0.88795025E+03</pdfrwt>
<totfact> 0.55123395E+00</totfact>
</mgrwt>
</event>
<event>
 4    5  0.7289609E-008  0.6792412E+03  0.7818608E-02  0.1009756E+00
          2   -1    0    0  501    0  0.00000000000E+00  0.00000000000E+00  0.74776140974E+03  0.74776140974E+03  0.25500000000E-02 0. -1.
         -2   -1    0    0    0  501 -0.00000000000E+00 -0.00000000000E+00 -0.76313756092E+03  0.76313756092E+03  0.25500000000E-02 0.  1.
    8880023    1    1    2    0    0  0.25105454907E+02  0.16409796465E+03 -0.58610486985E+03  0.89715525445E+03  0.65864270000E+03 0.  1.
    8880022    1    1    2    0    0 -0.25105454907E+02 -0.16409796465E+03  0.57072871867E+03  0.61374371621E+03  0.15294330000E+03 0.  0.
<mgrwt>
<rscale>  0 0.51571662E+03</rscale>
<asrwt>0</asrwt>
<pdfrwt beam="1">  1        2 0.11504022E+00 0.67924122E+03</pdfrwt>
<pdfrwt beam="2">  1       -2 0.11740578E+00 0.67924122E+03</pdfrwt>
<totfact> 0.21547929E+01</totfact>
</mgrwt>
</event>
<event>
 4    5  0.7289609E-008  0.6809160E+03  0.7818608E-02  0.1008810E+00
         -2   -1    0    0    0  501 -0.00000000000E+00  0.00000000000E+00  0.34258082051E+03  0.34258082052E+03  0.25500000000E-02 0.  1.
          2   -1    0    0  501    0  0.00000000000E+00 -0.00000000000E+00 -0.98820783222E+03  0.98820783222E+03  0.25500000000E-02 0. -1.
    8880023    1    1    2    0    0  0.11356184154E+03 -0.13015412754E+03 -0.39297877193E+02  0.68204905849E+03  0.65864270000E+03 0.  0.
    8880022    1    1    2    0    0 -0.11356184154E+03  0.13015412754E+03 -0.60632913452E+03  0.64873959425E+03  0.15294330000E+03 0.  0.
<mgrwt>
<rscale>  0 0.51950259E+03</rscale>
<asrwt>0</asrwt>
<pdfrwt beam="1">  1        2 0.15203197E+00 0.68091600E+03</pdfrwt>
<pdfrwt beam="2">  1       -2 0.52704742E-01 0.68091600E+03</pdfrwt>
<totfact> 0.88751392E+01</totfact>
</mgrwt>
</event>
<event>
 4    5  0.7289609E-008  0.9776290E+03  0.7818608E-02  0.9411429E-01
          2   -1    0    0  501    0  0.00000000000E+00  0.00000000000E+00  0.22069191458E+04  0.22069191458E+04  0.25500000000E-02 0. -1.
         -2   -1    0    0    0  501 -0.00000000000E+00 -0.00000000000E+00 -0.84001087775E+03  0.84001087775E+03  0.25500000000E-02 0.  1.
    8880023    1    1    2    0    0 -0.71107569704E+02 -0.71895198405E+03 -0.45701863766E+03  0.10791776885E+04  0.65864270000E+03 0.  1.
    8880022    1    1    2    0    0  0.71107569704E+02  0.71895198405E+03  0.18239269057E+04  0.19677523351E+04  0.15294330000E+03 0.  0.
<mgrwt>
<rscale>  0 0.91141037E+03</rscale>
<asrwt>0</asrwt>
<pdfrwt beam="1">  1        2 0.33952602E+00 0.97762899E+03</pdfrwt>
<pdfrwt beam="2">  1       -2 0.12923245E+00 0.97762899E+03</pdfrwt>
<totfact> 0.22666929E+00</totfact>
</mgrwt>
</event>
<event>
 4    5  0.7289609E-008  0.8549817E+03  0.7818608E-02  0.9602553E-01
         -2   -1    0    0    0  501 -0.00000000000E+00  0.00000000000E+00  0.12626893854E+04  0.12626893854E+04  0.25500000000E-02 0.  1.
          2   -1    0    0  501    0  0.00000000000E+00 -0.00000000000E+00 -0.13342093183E+04  0.13342093183E+04  0.25500000000E-02 0. -1.
    8880023    1    1    2    0    0  0.49660103215E+03  0.22487974473E+03  0.10418958846E+04  0.13477910541E+04  0.65864270000E+03 0.  1.
    8880022    1    1    2    0    0 -0.49660103215E+03 -0.22487974473E+03 -0.11134158175E+04  0.12491076496E+04  0.15294330000E+03 0.  0.
<mgrwt>
<rscale>  0 0.77127426E+03</rscale>
<asrwt>0</asrwt>
<pdfrwt beam="1">  1        2 0.20526297E+00 0.85498169E+03</pdfrwt>
<pdfrwt beam="2">  1       -2 0.19425991E+00 0.85498169E+03</pdfrwt>
<totfact> 0.23190847E+00</totfact>
</mgrwt>
</event>
<event>
 4    5  0.7289609E-008  0.9399545E+03  0.7818608E-02  0.9464717E-01
         -2   -1    0    0    0  501 -0.00000000000E+00  0.00000000000E+00  0.12495578003E+04  0.12495578003E+04  0.25500000000E-02 0.  1.
          2   -1    0    0  501    0  0.00000000000E+00 -0.00000000000E+00 -0.21227603218E+04  0.21227603218E+04  0.25500000000E-02 0. -1.
    8880023    1    1    2    0    0 -0.40153583706E+03 -0.53709703603E+03 -0.19096270897E+04  0.21284243192E+04  0.65864270000E+03 0. -1.
    8880022    1    1    2    0    0  0.40153583706E+03  0.53709703603E+03  0.10364245681E+04  0.12438938029E+04  0.15294330000E+03 0.  0.
<mgrwt>
<rscale>  0 0.86935823E+03</rscale>
<asrwt>0</asrwt>
<pdfrwt beam="1">  1        2 0.32657851E+00 0.93995450E+03</pdfrwt>
<pdfrwt beam="2">  1       -2 0.19223966E+00 0.93995450E+03</pdfrwt>
<totfact> 0.86260962E-01</totfact>
</mgrwt>
</event>
<event>
 4    5  0.7289609E-008  0.8110694E+03  0.7818608E-02  0.9687354E-01
          2   -1    0    0  501    0  0.00000000000E+00  0.00000000000E+00  0.13840754669E+04  0.13840754669E+04  0.25500000000E-02 0. -1.
         -2   -1    0    0    0  501 -0.00000000000E+00 -0.00000000000E+00 -0.52662165800E+03  0.52662165801E+03  0.25500000000E-02 0.  1.
    8880023    1    1    2    0    0 -0.29074823566E+03 -0.37348194106E+03 -0.11425534255E+03  0.81907739952E+03  0.65864270000E+03 0.  1.
    8880022    1    1    2    0    0  0.29074823566E+03  0.37348194106E+03  0.97170915146E+03  0.10916197254E+04  0.15294330000E+03 0.  0.
<mgrwt>
<rscale>  0 0.71774758E+03</rscale>
<asrwt>0</asrwt>
<pdfrwt beam="1">  1        2 0.21293469E+00 0.81106936E+03</pdfrwt>
<pdfrwt beam="2">  1       -2 0.81018717E-01 0.81106936E+03</pdfrwt>
<totfact> 0.20149479E+01</totfact>
</mgrwt>
</event>
<event>
 4    5  0.7289609E-008  0.1224190E+04  0.7818608E-02  0.9133959E-01
         -2   -1    0    0    0  501 -0.00000000000E+00  0.00000000000E+00  0.19254882749E+04  0.19254882749E+04  0.25500000000E-02 0.  1.
          2   -1    0    0  501    0  0.00000000000E+00 -0.00000000000E+00 -0.11260215626E+04  0.11260215626E+04  0.25500000000E-02 0. -1.
    8880023    1    1    2    0    0  0.10316101796E+04  0.24730235254E+02  0.13904458428E+04  0.18525606590E+04  0.65864270000E+03 0.  0.
    8880022    1    1    2    0    0 -0.10316101796E+04 -0.24730235254E+02 -0.59097913042E+03  0.11989491785E+04  0.15294330000E+03 0.  0.
<mgrwt>
<rscale>  0 0.11761870E+04</rscale>
<asrwt>0</asrwt>
<pdfrwt beam="1">  1        2 0.17323409E+00 0.12241901E+04</pdfrwt>
<pdfrwt beam="2">  1       -2 0.29622896E+00 0.12241901E+04</pdfrwt>
<totfact> 0.68544467E-01</totfact>
</mgrwt>
</event>
<event>
 4    5  0.7289609E-008  0.1132659E+04  0.7818608E-02  0.9225537E-01
          2   -1    0    0  501    0  0.00000000000E+00  0.00000000000E+00  0.26245063385E+04  0.26245063385E+04  0.25500000000E-02 0. -1.
         -2   -1    0    0    0  501 -0.00000000000E+00 -0.00000000000E+00 -0.10196538975E+04  0.10196538975E+04  0.25500000000E-02 0.  1.
    8880023    1    1    2    0    0  0.15405652998E+03 -0.90850061403E+03 -0.57671689360E+03  0.12710308264E+04  0.65864270000E+03 0.  0.
    8880022    1    1    2    0    0 -0.15405652998E+03  0.90850061403E+03  0.21815693346E+04  0.23731294096E+04  0.15294330000E+03 0.  0.
<mgrwt>
<rscale>  0 0.10793692E+04</rscale>
<asrwt>0</asrwt>
<pdfrwt beam="1">  1        2 0.40377020E+00 0.11326593E+04</pdfrwt>
<pdfrwt beam="2">  1       -2 0.15686983E+00 0.11326593E+04</pdfrwt>
<totfact> 0.77299676E-01</totfact>
</mgrwt>
</event>
<event>
 4    5  0.7289609E-008  0.8773215E+03  0.7818608E-02  0.9563465E-01
          2   -1    0    0  501    0  0.00000000000E+00  0.00000000000E+00  0.10004681372E+04  0.10004681372E+04  0.25500000000E-02 0. -1.
         -2   -1    0    0    0  501 -0.00000000000E+00 -0.00000000000E+00 -0.82570752105E+03  0.82570752105E+03  0.25500000000E-02 0.  1.
    8880023    1    1    2    0    0 -0.42892583814E+03  0.38975051829E+03 -0.42797006616E+03  0.97614108864E+03  0.65864270000E+03 0.  1.
    8880022    1    1    2    0    0  0.42892583814E+03 -0.38975051829E+03  0.60273068232E+03  0.85003456963E+03  0.15294330000E+03 0.  0.
<mgrwt>
<rscale>  0 0.79762248E+03</rscale>
<asrwt>0</asrwt>
<pdfrwt beam="1">  1        2 0.15391818E+00 0.87732152E+03</pdfrwt>
<pdfrwt beam="2">  1       -2 0.12703193E+00 0.87732152E+03</pdfrwt>
<totfact> 0.11629144E+01</totfact>
</mgrwt>
</event>
<event>
 4    5  0.7289609E-008  0.9172091E+03  0.7818608E-02  0.9498952E-01
          2   -1    0    0  501    0  0.00000000000E+00  0.00000000000E+00  0.18784743583E+04  0.18784743583E+04  0.25500000000E-02 0. -1.
         -2   -1    0    0    0  501 -0.00000000000E+00 -0.00000000000E+00 -0.55144087396E+03  0.55144087396E+03  0.25500000000E-02 0.  1.
    8880023    1    1    2    0    0  0.26750608295E+03 -0.57957119808E+03 -0.35095656758E+02  0.91788026967E+03  0.65864270000E+03 0.  0.
    8880022    1    1    2    0    0 -0.26750608295E+03  0.57957119808E+03  0.13621291411E+04  0.15120349626E+04  0.15294330000E+03 0.  0.
<mgrwt>
<rscale>  0 0.84361154E+03</rscale>
<asrwt>0</asrwt>
<pdfrwt beam="1">  1        2 0.28899605E+00 0.91720907E+03</pdfrwt>
<pdfrwt beam="2">  1       -2 0.84837058E-01 0.91720907E+03</pdfrwt>
<totfact> 0.95384161E+00</totfact>
</mgrwt>
</event>
<event>
 4    5  0.7289609E-008  0.8354472E+03  0.7818608E-02  0.9638825E-01
          2   -1    0    0  501    0  0.00000000000E+00  0.00000000000E+00  0.12257965606E+04  0.12257965606E+04  0.25500000000E-02 0. -1.
         -2   -1    0    0    0  501 -0.00000000000E+00 -0.00000000000E+00 -0.10180332186E+04  0.10180332186E+04  0.25500000000E-02 0.  1.
    8880023    1    1    2    0    0  0.42107015810E+03 -0.29472316853E+03 -0.76517503640E+03  0.11329010843E+04  0.65864270000E+03 0.  1.
    8880022    1    1    2    0    0 -0.42107015810E+03  0.29472316853E+03  0.97293837840E+03  0.11109286950E+04  0.15294330000E+03 0.  0.
<mgrwt>
<rscale>  0 0.74778902E+03</rscale>
<asrwt>0</asrwt>
<pdfrwt beam="1">  1        2 0.18858409E+00 0.83544720E+03</pdfrwt>
<pdfrwt beam="2">  1       -2 0.15662049E+00 0.83544720E+03</pdfrwt>
<totfact> 0.49309444E+00</totfact>
</mgrwt>
</event>
<event>
 4    5  0.7289609E-008  0.1421490E+04  0.7818608E-02  0.8967162E-01
          2   -1    0    0  501    0  0.00000000000E+00  0.00000000000E+00  0.11752377779E+04  0.11752377779E+04  0.25500000000E-02 0. -1.
         -2   -1    0    0    0  501 -0.00000000000E+00 -0.00000000000E+00 -0.20143405237E+04  0.20143405237E+04  0.25500000000E-02 0.  1.
    8880023    1    1    2    0    0  0.18693674614E+03 -0.12457438969E+04  0.33538781500E+03  0.14605199062E+04  0.65864270000E+03 0.  0.
    8880022    1    1    2    0    0 -0.18693674614E+03  0.12457438969E+04 -0.11744905608E+04  0.17290583953E+04  0.15294330000E+03 0.  0.
<mgrwt>
<rscale>  0 0.13817145E+04</rscale>
<asrwt>0</asrwt>
<pdfrwt beam="1">  1        2 0.18080581E+00 0.14214899E+04</pdfrwt>
<pdfrwt beam="2">  1       -2 0.30989854E+00 0.14214899E+04</pdfrwt>
<totfact> 0.51615437E-01</totfact>
</mgrwt>
</event>
<event>
 4    5  0.7289609E-008  0.1009450E+04  0.7818608E-02  0.9369298E-01
         -2   -1    0    0    0  501 -0.00000000000E+00  0.00000000000E+00  0.93666086513E+03  0.93666086513E+03  0.25500000000E-02 0.  1.
          2   -1    0    0  501    0  0.00000000000E+00 -0.00000000000E+00 -0.12754085145E+04  0.12754085145E+04  0.25500000000E-02 0. -1.
    8880023    1    1    2    0    0  0.50138368693E+03 -0.57774782416E+03  0.44775596691E+03  0.11042978593E+04  0.65864270000E+03 0.  0.
    8880022    1    1    2    0    0 -0.50138368693E+03  0.57774782416E+03 -0.78650361626E+03  0.11077715203E+04  0.15294330000E+03 0.  0.
<mgrwt>
<rscale>  0 0.94645999E+03</rscale>
<asrwt>0</asrwt>
<pdfrwt beam="1">  1        2 0.19621670E+00 0.10094495E+04</pdfrwt>
<pdfrwt beam="2">  1       -2 0.14410167E+00 0.10094495E+04</pdfrwt>
<totfact> 0.56391238E+00</totfact>
</mgrwt>
</event>
<event>
 4    5  0.7289609E-008  0.1359832E+04  0.7818608E-02  0.9015540E-01
         -2   -1    0    0    0  501 -0.00000000000E+00  0.00000000000E+00  0.12849181386E+04  0.12849181386E+04  0.25500000000E-02 0.  1.
          2   -1    0    0  501    0  0.00000000000E+00 -0.00000000000E+00 -0.14274661088E+04  0.14274661088E+04  0.25500000000E-02 0. -1.
    8880023    1    1    2    0    0  0.59310335700E+03  0.10312910813E+04 -0.51857341565E+03  0.14553561351E+04  0.65864270000E+03 0.  0.
    8880022    1    1    2    0    0 -0.59310335700E+03 -0.10312910813E+04  0.37602544536E+03  0.12570281123E+04  0.15294330000E+03 0.  0.
<mgrwt>
<rscale>  0 0.13178353E+04</rscale>
<asrwt>0</asrwt>
<pdfrwt beam="1">  1        2 0.21961017E+00 0.13598320E+04</pdfrwt>
<pdfrwt beam="2">  1       -2 0.19767971E+00 0.13598320E+04</pdfrwt>
<totfact> 0.18361703E+00</totfact>
</mgrwt>
</event>
<event>
 4    5  0.7289609E-008  0.8127575E+03  0.7818608E-02  0.9683861E-01
          2   -1    0    0  501    0  0.00000000000E+00  0.00000000000E+00  0.10297521659E+04  0.10297521659E+04  0.25500000000E-02 0. -1.
         -2   -1    0    0    0  501 -0.00000000000E+00 -0.00000000000E+00 -0.56039180099E+03  0.56039180100E+03  0.25500000000E-02 0.  1.
    8880023    1    1    2    0    0 -0.84172581486E+01  0.47612365756E+03 -0.11512652686E+03  0.82087082478E+03  0.65864270000E+03 0.  1.
    8880022    1    1    2    0    0  0.84172581486E+01 -0.47612365756E+03  0.58448689174E+03  0.76927314209E+03  0.15294330000E+03 0.  0.
<mgrwt>
<rscale>  0 0.71985855E+03</rscale>
<asrwt>0</asrwt>
<pdfrwt beam="1">  1        2 0.15842341E+00 0.81275752E+03</pdfrwt>
<pdfrwt beam="2">  1       -2 0.86214124E-01 0.81275752E+03</pdfrwt>
<totfact> 0.28419059E+01</totfact>
</mgrwt>
</event>
<event>
 4    5  0.7289609E-008  0.7400183E+03  0.7818608E-02  0.9859894E-01
          2   -1    0    0  501    0  0.00000000000E+00  0.00000000000E+00  0.15935568706E+04  0.15935568707E+04  0.25500000000E-02 0. -1.
         -2   -1    0    0    0  501 -0.00000000000E+00 -0.00000000000E+00 -0.78866914041E+03  0.78866914041E+03  0.25500000000E-02 0.  1.
    8880023    1    1    2    0    0 -0.29277954831E+03 -0.16762178438E+03 -0.58531868352E+03  0.94351740527E+03  0.65864270000E+03 0.  0.
    8880022    1    1    2    0    0  0.29277954831E+03  0.16762178438E+03  0.13902064138E+04  0.14387086058E+04  0.15294330000E+03 0.  0.
<mgrwt>
<rscale>  0 0.62245007E+03</rscale>
<asrwt>0</asrwt>
<pdfrwt beam="1">  1        2 0.24516259E+00 0.74001833E+03</pdfrwt>
<pdfrwt beam="2">  1       -2 0.12133371E+00 0.74001833E+03</pdfrwt>
<totfact> 0.59747769E+00</totfact>
</mgrwt>
</event>
<event>
 4    5  0.7289609E-008  0.8713740E+03  0.7818608E-02  0.9573643E-01
         -2   -1    0    0    0  501 -0.00000000000E+00  0.00000000000E+00  0.16072598196E+04  0.16072598196E+04  0.25500000000E-02 0.  1.
          2   -1    0    0  501    0  0.00000000000E+00 -0.00000000000E+00 -0.45261905941E+03  0.45261905942E+03  0.25500000000E-02 0. -1.
    8880023    1    1    2    0    0 -0.24439719142E+03 -0.51551191319E+03  0.11821357630E+04  0.14685835653E+04  0.65864270000E+03 0.  1.
    8880022    1    1    2    0    0  0.24439719142E+03  0.51551191319E+03 -0.27495002837E+02  0.59129531371E+03  0.15294330000E+03 0.  0.
<mgrwt>
<rscale>  0 0.79065508E+03</rscale>
<asrwt>0</asrwt>
<pdfrwt beam="1">  1        2 0.69633702E-01 0.87137404E+03</pdfrwt>
<pdfrwt beam="2">  1       -2 0.24727074E+00 0.87137404E+03</pdfrwt>
<totfact> 0.46771189E+00</totfact>
</mgrwt>
</event>
<event>
 4    5  0.7289609E-008  0.7027857E+03  0.7818608E-02  0.9985836E-01
          2   -1    0    0  501    0  0.00000000000E+00  0.00000000000E+00  0.55290459468E+03  0.55290459469E+03  0.25500000000E-02 0. -1.
         -2   -1    0    0    0  501 -0.00000000000E+00 -0.00000000000E+00 -0.72866341799E+03  0.72866341800E+03  0.25500000000E-02 0.  1.
    8880023    1    1    2    0    0 -0.17399976712E+03  0.17268929963E+03 -0.48841847678E+03  0.85583896142E+03  0.65864270000E+03 0.  1.
    8880022    1    1    2    0    0  0.17399976712E+03 -0.17268929963E+03  0.31265965347E+03  0.42572905126E+03  0.15294330000E+03 0.  0.
<mgrwt>
<rscale>  0 0.56275705E+03</rscale>
<asrwt>0</asrwt>
<pdfrwt beam="1">  1        2 0.85062246E-01 0.70278569E+03</pdfrwt>
<pdfrwt beam="2">  1       -2 0.11210206E+00 0.70278569E+03</pdfrwt>
<totfact> 0.34884045E+01</totfact>
</mgrwt>
</event>
<event>
 4    5  0.7289609E-008  0.7060908E+03  0.7818608E-02  0.9972814E-01
         -2   -1    0    0    0  501 -0.00000000000E+00  0.00000000000E+00  0.14692100815E+04  0.14692100815E+04  0.25500000000E-02 0.  1.
          2   -1    0    0  501    0  0.00000000000E+00 -0.00000000000E+00 -0.10893975831E+04  0.10893975831E+04  0.25500000000E-02 0. -1.
    8880023    1    1    2    0    0 -0.22764346032E+03  0.11372078606E+03  0.13611226664E+04  0.15333685407E+04  0.65864270000E+03 0.  1.
    8880022    1    1    2    0    0  0.22764346032E+03 -0.11372078606E+03 -0.98131016807E+03  0.10252391239E+04  0.15294330000E+03 0.  0.
<mgrwt>
<rscale>  0 0.56858512E+03</rscale>
<asrwt>0</asrwt>
<pdfrwt beam="1">  1        2 0.16759963E+00 0.70609077E+03</pdfrwt>
<pdfrwt beam="2">  1       -2 0.22603232E+00 0.70609077E+03</pdfrwt>
<totfact> 0.20783346E+00</totfact>
</mgrwt>
</event>
<event>
 4    5  0.7289609E-008  0.1998845E+04  0.7818608E-02  0.8619851E-01
         -2   -1    0    0    0  501 -0.00000000000E+00  0.00000000000E+00  0.15429561716E+04  0.15429561716E+04  0.25500000000E-02 0.  1.
          2   -1    0    0  501    0  0.00000000000E+00 -0.00000000000E+00 -0.34941428697E+04  0.34941428697E+04  0.25500000000E-02 0. -1.
    8880023    1    1    2    0    0  0.18311573463E+04 -0.45654541541E+03  0.37919317254E+03  0.20344946821E+04  0.65864270000E+03 0.  0.
    8880022    1    1    2    0    0 -0.18311573463E+04  0.45654541541E+03 -0.23303798707E+04  0.30026043592E+04  0.15294330000E+03 0.  0.
<mgrwt>
<rscale>  0 0.19719455E+04</rscale>
<asrwt>0</asrwt>
<pdfrwt beam="1">  1        2 0.53756044E+00 0.19988450E+04</pdfrwt>
<pdfrwt beam="2">  1       -2 0.23737787E+00 0.19988450E+04</pdfrwt>
<totfact> 0.56146987E-02</totfact>
</mgrwt>
</event>
<event>
 4    5  0.7289609E-008  0.9147647E+03  0.7818608E-02  0.9502733E-01
          2   -1    0    0  501    0  0.00000000000E+00  0.00000000000E+00  0.16940673921E+04  0.16940673921E+04  0.25500000000E-02 0. -1.
         -2   -1    0    0    0  501 -0.00000000000E+00 -0.00000000000E+00 -0.44160267025E+03  0.44160267026E+03  0.25500000000E-02 0.  1.
    8880023    1    1    2    0    0 -0.45876042084E+03 -0.43877446940E+03  0.26597131174E+03  0.95264636862E+03  0.65864270000E+03 0.  0.
    8880022    1    1    2    0    0  0.45876042084E+03  0.43877446940E+03  0.98649341007E+03  0.11830236937E+04  0.15294330000E+03 0.  0.
<mgrwt>
<rscale>  0 0.84082594E+03</rscale>
<asrwt>0</asrwt>
<pdfrwt beam="1">  1        2 0.26062575E+00 0.91476465E+03</pdfrwt>
<pdfrwt beam="2">  1       -2 0.67938874E-01 0.91476465E+03</pdfrwt>
<totfact> 0.19766527E+01</totfact>
</mgrwt>
</event>
<event>
 4    5  0.7289609E-008  0.8269998E+03  0.7818608E-02  0.9655198E-01
         -2   -1    0    0    0  501 -0.00000000000E+00  0.00000000000E+00  0.23323588056E+03  0.23323588057E+03  0.25500000000E-02 0.  1.
          2   -1    0    0  501    0  0.00000000000E+00 -0.00000000000E+00 -0.28991485447E+04  0.28991485447E+04  0.25500000000E-02 0. -1.
    8880023    1    1    2    0    0  0.44594918395E+03 -0.22637970389E+03 -0.65612022185E+03  0.10556620656E+04  0.65864270000E+03 0.  0.
    8880022    1    1    2    0    0 -0.44594918395E+03  0.22637970389E+03 -0.20097924423E+04  0.20767223596E+04  0.15294330000E+03 0.  0.
<mgrwt>
<rscale>  0 0.73748080E+03</rscale>
<asrwt>0</asrwt>
<pdfrwt beam="1">  1        2 0.44602283E+00 0.82699979E+03</pdfrwt>
<pdfrwt beam="2">  1       -2 0.35882445E-01 0.82699979E+03</pdfrwt>
<totfact> 0.15348869E+01</totfact>
</mgrwt>
</event>
<event>
 4    5  0.7289609E-008  0.1070569E+04  0.7818608E-02  0.9294554E-01
          2   -1    0    0  501    0  0.00000000000E+00  0.00000000000E+00  0.20739751549E+04  0.20739751549E+04  0.25500000000E-02 0. -1.
         -2   -1    0    0    0  501 -0.00000000000E+00 -0.00000000000E+00 -0.57757690809E+03  0.57757690809E+03  0.25500000000E-02 0.  1.
    8880023    1    1    2    0    0 -0.13708101943E+03 -0.83277593819E+03  0.18781995858E+03  0.10869192759E+04  0.65864270000E+03 0.  1.
    8880022    1    1    2    0    0  0.13708101943E+03  0.83277593819E+03  0.13085782883E+04  0.15646327871E+04  0.15294330000E+03 0.  0.
<mgrwt>
<rscale>  0 0.10128576E+04</rscale>
<asrwt>0</asrwt>
<pdfrwt beam="1">  1        2 0.31907310E+00 0.10705686E+04</pdfrwt>
<pdfrwt beam="2">  1       -2 0.88857987E-01 0.10705686E+04</pdfrwt>
<totfact> 0.65754306E+00</totfact>
</mgrwt>
</event>
<event>
 4    5  0.7289609E-008  0.7511069E+03  0.7818608E-02  0.9828700E-01
         -2   -1    0    0    0  501 -0.00000000000E+00  0.00000000000E+00  0.45126356035E+03  0.45126356036E+03  0.25500000000E-02 0.  1.
          2   -1    0    0  501    0  0.00000000000E+00 -0.00000000000E+00 -0.14836563054E+04  0.14836563054E+04  0.25500000000E-02 0. -1.
    8880023    1    1    2    0    0  0.97848125897E+01  0.36090941862E+03  0.80085683243E+02  0.75536433192E+03  0.65864270000E+03 0.  1.
    8880022    1    1    2    0    0 -0.97848125897E+01 -0.36090941862E+03 -0.11124784283E+04  0.11795555338E+04  0.15294330000E+03 0.  0.
<mgrwt>
<rscale>  0 0.63844829E+03</rscale>
<asrwt>0</asrwt>
<pdfrwt beam="1">  1        2 0.22825481E+00 0.75110689E+03</pdfrwt>
<pdfrwt beam="2">  1       -2 0.69425164E-01 0.75110689E+03</pdfrwt>
<totfact> 0.25112388E+01</totfact>
</mgrwt>
</event>
<event>
 4    5  0.7289609E-008  0.7412599E+03  0.7818608E-02  0.9856292E-01
          2   -1    0    0  501    0  0.00000000000E+00  0.00000000000E+00  0.11149937091E+04  0.11149937091E+04  0.25500000000E-02 0. -1.
         -2   -1    0    0    0  501 -0.00000000000E+00 -0.00000000000E+00 -0.29783746121E+03  0.29783746123E+03  0.25500000000E-02 0.  1.
    8880023    1    1    2    0    0  0.89114932553E+02 -0.32819894596E+03  0.70613443254E+03  0.10237636751E+04  0.65864270000E+03 0.  0.
    8880022    1    1    2    0    0 -0.89114932553E+02  0.32819894596E+03  0.11102181530E+03  0.38906749520E+03  0.15294330000E+03 0.  0.
<mgrwt>
<rscale>  0 0.62427126E+03</rscale>
<asrwt>0</asrwt>
<pdfrwt beam="1">  1        2 0.17153749E+00 0.74125989E+03</pdfrwt>
<pdfrwt beam="2">  1       -2 0.45821148E-01 0.74125989E+03</pdfrwt>
<totfact> 0.97785875E+01</totfact>
</mgrwt>
</event>
<event>
 4    5  0.7289609E-008  0.1538298E+04  0.7818608E-02  0.8883055E-01
          2   -1    0    0  501    0  0.00000000000E+00  0.00000000000E+00  0.22318159995E+04  0.22318159995E+04  0.25500000000E-02 0. -1.
         -2   -1    0    0    0  501 -0.00000000000E+00 -0.00000000000E+00 -0.11433713756E+04  0.11433713756E+04  0.25500000000E-02 0.  1.
    8880023    1    1    2    0    0 -0.13887195994E+04 -0.63307258543E+02 -0.97663767927E+02  0.15413949373E+04  0.65864270000E+03 0.  0.
    8880022    1    1    2    0    0  0.13887195994E+04  0.63307258543E+02  0.11861083918E+04  0.18337924378E+04  0.15294330000E+03 0.  0.
<mgrwt>
<rscale>  0 0.15021033E+04</rscale>
<asrwt>0</asrwt>
<pdfrwt beam="1">  1        2 0.34335631E+00 0.15382978E+04</pdfrwt>
<pdfrwt beam="2">  1       -2 0.17590329E+00 0.15382978E+04</pdfrwt>
<totfact> 0.89961313E-01</totfact>
</mgrwt>
</event>
<event>
 4    5  0.8257676E-008  0.8717987E+03  0.7818608E-02  0.9572911E-01
          2   -1    0    0  501    0  0.00000000000E+00  0.00000000000E+00  0.18176448735E+04  0.18176448735E+04  0.25500000000E-02 0. -1.
         -2   -1    0    0    0  501 -0.00000000000E+00 -0.00000000000E+00 -0.14069827071E+04  0.14069827071E+04  0.25500000000E-02 0.  1.
    8880023    1    1    2    0    0  0.36093108823E+03 -0.44266418571E+03 -0.12146359363E+04  0.14951165492E+04  0.65864270000E+03 0.  1.
    8880022    1    1    2    0    0 -0.36093108823E+03  0.44266418571E+03  0.16252981027E+04  0.17295110313E+04  0.15294330000E+03 0.  0.
<mgrwt>
<rscale>  0 0.79115368E+03</rscale>
<asrwt>0</asrwt>
<pdfrwt beam="1">  1        2 0.27963767E+00 0.87179874E+03</pdfrwt>
<pdfrwt beam="2">  1       -2 0.21645888E+00 0.87179874E+03</pdfrwt>
<totfact> 0.89437791E-01</totfact>
</mgrwt>
</event>
<event>
 4    5  0.7845405E-008  0.9156362E+03  0.7818608E-02  0.9501383E-01
         -2   -1    0    0    0  501 -0.00000000000E+00  0.00000000000E+00  0.13016631829E+04  0.13016631829E+04  0.25500000000E-02 0.  1.
          2   -1    0    0  501    0  0.00000000000E+00 -0.00000000000E+00 -0.19578693357E+04  0.19578693357E+04  0.25500000000E-02 0. -1.
    8880023    1    1    2    0    0 -0.60557486727E+03  0.19457259936E+03  0.10730834135E+04  0.14106373151E+04  0.65864270000E+03 0.  1.
    8880022    1    1    2    0    0  0.60557486727E+03 -0.19457259936E+03 -0.17292895663E+04  0.18488952035E+04  0.15294330000E+03 0.  0.
<mgrwt>
<rscale>  0 0.84181956E+03</rscale>
<asrwt>0</asrwt>
<pdfrwt beam="1">  1        2 0.30121067E+00 0.91563618E+03</pdfrwt>
<pdfrwt beam="2">  1       -2 0.20025587E+00 0.91563618E+03</pdfrwt>
<totfact> 0.94499440E-01</totfact>
</mgrwt>
</event>
<event>
 4    5  0.7289609E-008  0.6741947E+03  0.7818608E-02  0.1012819E+00
         -2   -1    0    0    0  501 -0.00000000000E+00  0.00000000000E+00  0.22922746346E+03  0.22922746347E+03  0.25500000000E-02 0.  1.
          2   -1    0    0  501    0  0.00000000000E+00 -0.00000000000E+00 -0.55596288130E+04  0.55596288130E+04  0.25500000000E-02 0. -1.
    8880023    1    1    2    0    0  0.75493523264E+02 -0.12259269358E+03 -0.27344155636E+03  0.72753606892E+03  0.65864270000E+03 0.  1.
    8880022    1    1    2    0    0 -0.75493523264E+02  0.12259269358E+03 -0.50569597932E+04  0.50613202075E+04  0.15294330000E+03 0.  0.
<mgrwt>
<rscale>  0 0.50369576E+03</rscale>
<asrwt>0</asrwt>
<pdfrwt beam="1">  1        2 0.85532741E+00 0.67419467E+03</pdfrwt>
<pdfrwt beam="2">  1       -2 0.35265768E-01 0.67419467E+03</pdfrwt>
<totfact> 0.44687365E-02</totfact>
</mgrwt>
</event>
<event>
 4    5  0.7289609E-008  0.9546917E+03  0.7818608E-02  0.9443396E-01
          2   -1    0    0  501    0  0.00000000000E+00  0.00000000000E+00  0.13732712408E+04  0.13732712408E+04  0.25500000000E-02 0. -1.
         -2   -1    0    0    0  501 -0.00000000000E+00 -0.00000000000E+00 -0.89403400023E+03  0.89403400024E+03  0.25500000000E-02 0.  1.
    8880023    1    1    2    0    0  0.47827964009E+03 -0.49887332093E+03 -0.48526534126E+03  0.10709428846E+04  0.65864270000E+03 0. -1.
    8880022    1    1    2    0    0 -0.47827964009E+03  0.49887332093E+03  0.96450258183E+03  0.11963623564E+04  0.15294330000E+03 0.  0.
<mgrwt>
<rscale>  0 0.88588834E+03</rscale>
<asrwt>0</asrwt>
<pdfrwt beam="1">  1        2 0.21127250E+00 0.95469168E+03</pdfrwt>
<pdfrwt beam="2">  1       -2 0.13754369E+00 0.95469168E+03</pdfrwt>
<totfact> 0.56220464E+00</totfact>
</mgrwt>
</event>
<event>
 4    5  0.7289609E-008  0.8057027E+03  0.7818608E-02  0.9698599E-01
         -2   -1    0    0    0  501 -0.00000000000E+00  0.00000000000E+00  0.52378573023E+03  0.52378573024E+03  0.25500000000E-02 0.  1.
          2   -1    0    0  501    0  0.00000000000E+00 -0.00000000000E+00 -0.33775608930E+04  0.33775608930E+04  0.25500000000E-02 0. -1.
    8880023    1    1    2    0    0 -0.43036214733E+03  0.17359466466E+03  0.18241319322E+03  0.82609410165E+03  0.65864270000E+03 0.  1.
    8880022    1    1    2    0    0  0.43036214733E+03 -0.17359466466E+03 -0.30361883560E+04  0.30752525216E+04  0.15294330000E+03 0.  0.
<mgrwt>
<rscale>  0 0.71100294E+03</rscale>
<asrwt>0</asrwt>
<pdfrwt beam="1">  1        2 0.51962474E+00 0.80570273E+03</pdfrwt>
<pdfrwt beam="2">  1       -2 0.80582422E-01 0.80570273E+03</pdfrwt>
<totfact> 0.14365892E+00</totfact>
</mgrwt>
</event>
<event>
 4    5  0.7289609E-008  0.8645627E+03  0.7818608E-02  0.9585498E-01
          2   -1    0    0  501    0  0.00000000000E+00  0.00000000000E+00  0.56037066959E+03  0.56037066959E+03  0.25500000000E-02 0. -1.
         -2   -1    0    0    0  501 -0.00000000000E+00 -0.00000000000E+00 -0.13936046914E+04  0.13936046914E+04  0.25500000000E-02 0.  1.
    8880023    1    1    2    0    0 -0.10107582178E+03  0.55085577737E+03 -0.10265133954E+04  0.13420873170E+04  0.65864270000E+03 0.  1.
    8880022    1    1    2    0    0  0.10107582178E+03 -0.55085577737E+03  0.19327937353E+03  0.61188804406E+03  0.15294330000E+03 0.  0.
<mgrwt>
<rscale>  0 0.78263481E+03</rscale>
<asrwt>0</asrwt>
<pdfrwt beam="1">  1        2 0.86210872E-01 0.86456267E+03</pdfrwt>
<pdfrwt beam="2">  1       -2 0.21440072E+00 0.86456267E+03</pdfrwt>
<totfact> 0.58290062E+00</totfact>
</mgrwt>
</event>
<event>
 4    5  0.7289609E-008  0.7340128E+03  0.7818608E-02  0.9877744E-01
          2   -1    0    0  501    0  0.00000000000E+00  0.00000000000E+00  0.14938527881E+04  0.14938527881E+04  0.25500000000E-02 0. -1.
         -2   -1    0    0    0  501 -0.00000000000E+00 -0.00000000000E+00 -0.13073843622E+04  0.13073843622E+04  0.25500000000E-02 0.  1.
    8880023    1    1    2    0    0 -0.18829517764E+02 -0.32343471034E+03 -0.11794030389E+04  0.13891602848E+04  0.65864270000E+03 0.  0.
    8880022    1    1    2    0    0  0.18829517764E+02  0.32343471034E+03  0.13658714648E+04  0.14120768655E+04  0.15294330000E+03 0.  0.
<mgrwt>
<rscale>  0 0.61352156E+03</rscale>
<asrwt>0</asrwt>
<pdfrwt beam="1">  1        2 0.22982351E+00 0.73401279E+03</pdfrwt>
<pdfrwt beam="2">  1       -2 0.20113606E+00 0.73401279E+03</pdfrwt>
<totfact> 0.17321237E+00</totfact>
</mgrwt>
</event>
<event>
 4    5  0.7289609E-008  0.1996710E+04  0.7818608E-02  0.8620882E-01
          2   -1    0    0  501    0  0.00000000000E+00  0.00000000000E+00  0.27847403305E+04  0.27847403305E+04  0.25500000000E-02 0. -1.
         -2   -1    0    0    0  501 -0.00000000000E+00 -0.00000000000E+00 -0.21262468077E+04  0.21262468077E+04  0.25500000000E-02 0.  1.
    8880023    1    1    2    0    0 -0.18418718560E+04 -0.40068492444E+03 -0.11416598129E+04  0.23000516683E+04  0.65864270000E+03 0.  0.
    8880022    1    1    2    0    0  0.18418718560E+04  0.40068492444E+03  0.18001533358E+04  0.26109354699E+04  0.15294330000E+03 0.  0.
<mgrwt>
<rscale>  0 0.19697789E+04</rscale>
<asrwt>0</asrwt>
<pdfrwt beam="1">  1        2 0.42842159E+00 0.19967099E+04</pdfrwt>
<pdfrwt beam="2">  1       -2 0.32711489E+00 0.19967099E+04</pdfrwt>
<totfact> 0.45179463E-02</totfact>
</mgrwt>
</event>
<event>
 4    5  0.7289609E-008  0.7304247E+03  0.7818608E-02  0.9888772E-01
         -2   -1    0    0    0  501 -0.00000000000E+00  0.00000000000E+00  0.89383434444E+03  0.89383434444E+03  0.25500000000E-02 0.  1.
          2   -1    0    0  501    0  0.00000000000E+00 -0.00000000000E+00 -0.71245486275E+03  0.71245486276E+03  0.25500000000E-02 0. -1.
    8880023    1    1    2    0    0  0.20183453846E+03 -0.24284339212E+03  0.67909208020E+03  0.99733963807E+03  0.65864270000E+03 0.  1.
    8880022    1    1    2    0    0 -0.20183453846E+03  0.24284339212E+03 -0.49771259851E+03  0.60894956913E+03  0.15294330000E+03 0.  0.
<mgrwt>
<rscale>  0 0.60808548E+03</rscale>
<asrwt>0</asrwt>
<pdfrwt beam="1">  1        2 0.10960844E+00 0.73042474E+03</pdfrwt>
<pdfrwt beam="2">  1       -2 0.13751298E+00 0.73042474E+03</pdfrwt>
<totfact> 0.15324260E+01</totfact>
</mgrwt>
</event>
<event>
 4    5  0.7289609E-008  0.7832069E+03  0.7818608E-02  0.9748357E-01
          2   -1    0    0  501    0  0.00000000000E+00  0.00000000000E+00  0.20222829686E+04  0.20222829686E+04  0.25500000000E-02 0. -1.
         -2   -1    0    0    0  501 -0.00000000000E+00 -0.00000000000E+00 -0.24383840080E+03  0.24383840081E+03  0.25500000000E-02 0.  1.
    8880023    1    1    2    0    0 -0.22106198404E+03  0.36157210019E+03  0.54828190129E+03  0.95604708774E+03  0.65864270000E+03 0.  1.
    8880022    1    1    2    0    0  0.22106198404E+03 -0.36157210019E+03  0.12301626665E+04  0.13100742817E+04  0.15294330000E+03 0.  0.
<mgrwt>
<rscale>  0 0.68209188E+03</rscale>
<asrwt>0</asrwt>
<pdfrwt beam="1">  1        2 0.31112045E+00 0.78320686E+03</pdfrwt>
<pdfrwt beam="2">  1       -2 0.37513600E-01 0.78320686E+03</pdfrwt>
<totfact> 0.44686646E+01</totfact>
</mgrwt>
</event>
<event>
 4    5  0.7289609E-008  0.6811515E+03  0.7818608E-02  0.1008680E+00
          2   -1    0    0  501    0  0.00000000000E+00  0.00000000000E+00  0.25979056925E+04  0.25979056925E+04  0.25500000000E-02 0. -1.
         -2   -1    0    0    0  501 -0.00000000000E+00 -0.00000000000E+00 -0.17172644407E+03  0.17172644409E+03  0.25500000000E-02 0.  1.
    8880023    1    1    2    0    0  0.12080468740E+02 -0.17323750244E+03  0.53979249527E+03  0.86910489251E+03  0.65864270000E+03 0.  1.
    8880022    1    1    2    0    0 -0.12080468740E+02  0.17323750244E+03  0.18863867532E+04  0.19005272441E+04  0.15294330000E+03 0.  0.
<mgrwt>
<rscale>  0 0.52002777E+03</rscale>
<asrwt>0</asrwt>
<pdfrwt beam="1">  1        2 0.39967782E+00 0.68115151E+03</pdfrwt>
<pdfrwt beam="2">  1       -2 0.26419452E-01 0.68115151E+03</pdfrwt>
<totfact> 0.41731762E+01</totfact>
</mgrwt>
</event>
<event>
 4    5  0.7289609E-008  0.7117890E+03  0.7818608E-02  0.9951417E-01
         -2   -1    0    0    0  501 -0.00000000000E+00  0.00000000000E+00  0.61326668369E+03  0.61326668370E+03  0.25500000000E-02 0.  1.
          2   -1    0    0  501    0  0.00000000000E+00 -0.00000000000E+00 -0.51642929910E+03  0.51642929911E+03  0.25500000000E-02 0. -1.
    8880023    1    1    2    0    0 -0.16616401958E+03  0.21265668583E+03  0.28518121332E+03  0.76679324340E+03  0.65864270000E+03 0.  0.
    8880022    1    1    2    0    0  0.16616401958E+03 -0.21265668583E+03 -0.18834382873E+03  0.36290273940E+03  0.15294330000E+03 0.  1.
<mgrwt>
<rscale>  0 0.57832829E+03</rscale>
<asrwt>0</asrwt>
<pdfrwt beam="1">  1        2 0.79450661E-01 0.71178898E+03</pdfrwt>
<pdfrwt beam="2">  1       -2 0.94348720E-01 0.71178898E+03</pdfrwt>
<totfact> 0.56962282E+01</totfact>
</mgrwt>
</event>
<event>
 4    5  0.7289609E-008  0.1181920E+04  0.7818608E-02  0.9174901E-01
          2   -1    0    0  501    0  0.00000000000E+00  0.00000000000E+00  0.23322205895E+04  0.23322205895E+04  0.25500000000E-02 0. -1.
         -2   -1    0    0    0  501 -0.00000000000E+00 -0.00000000000E+00 -0.67810045351E+03  0.67810045352E+03  0.25500000000E-02 0.  1.
    8880023    1    1    2    0    0  0.78207856496E+02 -0.97826809691E+03  0.16342890616E+04  0.20168876720E+04  0.65864270000E+03 0. -1.
    8880022    1    1    2    0    0 -0.78207856496E+02  0.97826809691E+03  0.19831074428E+02  0.99343337108E+03  0.15294330000E+03 0.  0.
<mgrwt>
<rscale>  0 0.11316292E+04</rscale>
<asrwt>0</asrwt>
<pdfrwt beam="1">  1        2 0.35880317E+00 0.11819201E+04</pdfrwt>
<pdfrwt beam="2">  1       -2 0.10432315E+00 0.11819201E+04</pdfrwt>
<totfact> 0.31896369E+00</totfact>
</mgrwt>
</event>
<event>
 4    5  0.7289609E-008  0.6668943E+03  0.7818608E-02  0.1017994E+00
         -2   -1    0    0    0  501 -0.00000000000E+00  0.00000000000E+00  0.20815838946E+03  0.20815838948E+03  0.25500000000E-02 0.  1.
          2   -1    0    0  501    0  0.00000000000E+00 -0.00000000000E+00 -0.23927196481E+04  0.23927196481E+04  0.25500000000E-02 0. -1.
    8880023    1    1    2    0    0 -0.10066850060E+03  0.28348862713E+02 -0.34283603526E+03  0.74985635849E+03  0.65864270000E+03 0.  1.
    8880022    1    1    2    0    0  0.10066850060E+03 -0.28348862713E+02 -0.18417252234E+04  0.18510216791E+04  0.15294330000E+03 0.  0.
<mgrwt>
<rscale>  0 0.48417362E+03</rscale>
<asrwt>0</asrwt>
<pdfrwt beam="1">  1        2 0.36811070E+00 0.66689430E+03</pdfrwt>
<pdfrwt beam="2">  1       -2 0.32024369E-01 0.66689430E+03</pdfrwt>
<totfact> 0.38305787E+01</totfact>
</mgrwt>
</event>
<event>
 4    5  0.7289609E-008  0.7046635E+03  0.7818608E-02  0.9978379E-01
         -2   -1    0    0    0  501 -0.00000000000E+00  0.00000000000E+00  0.40924105219E+03  0.40924105219E+03  0.25500000000E-02 0.  1.
          2   -1    0    0  501    0  0.00000000000E+00 -0.00000000000E+00 -0.32427075540E+04  0.32427075540E+04  0.25500000000E-02 0. -1.
    8880023    1    1    2    0    0  0.17716598818E+03 -0.17706668616E+03  0.93025689226E+02  0.71077730959E+03  0.65864270000E+03 0.  1.
    8880022    1    1    2    0    0 -0.17716598818E+03  0.17706668616E+03 -0.29264921910E+04  0.29411712966E+04  0.15294330000E+03 0.  0.
<mgrwt>
<rscale>  0 0.56608535E+03</rscale>
<asrwt>0</asrwt>
<pdfrwt beam="1">  1        2 0.49887807E+00 0.70466347E+03</pdfrwt>
<pdfrwt beam="2">  1       -2 0.62960164E-01 0.70466347E+03</pdfrwt>
<totfact> 0.30882429E+00</totfact>
</mgrwt>
</event>
<event>
 4    5  0.7289609E-008  0.1578561E+04  0.7818608E-02  0.8856065E-01
          2   -1    0    0  501    0  0.00000000000E+00  0.00000000000E+00  0.39050425279E+04  0.39050425279E+04  0.25500000000E-02 0. -1.
         -2   -1    0    0    0  501 -0.00000000000E+00 -0.00000000000E+00 -0.13442172261E+04  0.13442172261E+04  0.25500000000E-02 0.  1.
    8880023    1    1    2    0    0  0.14345811469E+04  0.46519419026E+01 -0.66699340639E+03  0.17136904966E+04  0.65864270000E+03 0.  0.
    8880022    1    1    2    0    0 -0.14345811469E+04 -0.46519419026E+01  0.32278187082E+04  0.35355692574E+04  0.15294330000E+03 0.  0.
<mgrwt>
<rscale>  0 0.15434459E+04</rscale>
<asrwt>0</asrwt>
<pdfrwt beam="1">  1        2 0.60077577E+00 0.15785610E+04</pdfrwt>
<pdfrwt beam="2">  1       -2 0.20680265E+00 0.15785610E+04</pdfrwt>
<totfact> 0.46119289E-02</totfact>
</mgrwt>
</event>
<event>
 4    5  0.7289609E-008  0.6857999E+03  0.7818608E-02  0.1006216E+00
         -2   -1    0    0    0  501 -0.00000000000E+00  0.00000000000E+00  0.70784658758E+03  0.70784658758E+03  0.25500000000E-02 0.  1.
          2   -1    0    0  501    0  0.00000000000E+00 -0.00000000000E+00 -0.40653442880E+03  0.40653442881E+03  0.25500000000E-02 0. -1.
    8880023    1    1    2    0    0 -0.19083707166E+03 -0.96192154800E+01  0.45717511523E+03  0.82421514756E+03  0.65864270000E+03 0.  1.
    8880022    1    1    2    0    0  0.19083707166E+03  0.96192154800E+01 -0.15586295645E+03  0.29016586883E+03  0.15294330000E+03 0.  0.
<mgrwt>
<rscale>  0 0.53006498E+03</rscale>
<asrwt>0</asrwt>
<pdfrwt beam="1">  1        2 0.62543759E-01 0.68579992E+03</pdfrwt>
<pdfrwt beam="2">  1       -2 0.10889947E+00 0.68579992E+03</pdfrwt>
<totfact> 0.53367745E+01</totfact>
</mgrwt>
</event>
<event>
 4    5  0.7289609E-008  0.8538653E+03  0.7818608E-02  0.9604570E-01
         -2   -1    0    0    0  501 -0.00000000000E+00  0.00000000000E+00  0.71355340510E+03  0.71355340510E+03  0.25500000000E-02 0.  1.
          2   -1    0    0  501    0  0.00000000000E+00 -0.00000000000E+00 -0.16453879984E+04  0.16453879984E+04  0.25500000000E-02 0. -1.
    8880023    1    1    2    0    0  0.43888530875E+03 -0.32039882789E+03  0.37712851330E+03  0.93344086313E+03  0.65864270000E+03 0.  1.
    8880022    1    1    2    0    0 -0.43888530875E+03  0.32039882789E+03 -0.13089631066E+04  0.14255005404E+04  0.15294330000E+03 0.  0.
<mgrwt>
<rscale>  0 0.76994414E+03</rscale>
<asrwt>0</asrwt>
<pdfrwt beam="1">  1        2 0.25313661E+00 0.85386529E+03</pdfrwt>
<pdfrwt beam="2">  1       -2 0.10977745E+00 0.85386529E+03</pdfrwt>
<totfact> 0.70370115E+00</totfact>
</mgrwt>
</event>
<event>
 4    5  0.7289609E-008  0.1405524E+04  0.7818608E-02  0.8979402E-01
          2   -1    0    0  501    0  0.00000000000E+00  0.00000000000E+00  0.17040817330E+04  0.17040817330E+04  0.25500000000E-02 0. -1.
         -2   -1    0    0    0  501 -0.00000000000E+00 -0.00000000000E+00 -0.20439613377E+04  0.20439613377E+04  0.25500000000E-02 0.  1.
    8880023    1    1    2    0    0  0.12414120235E+04  0.24148546385E+02  0.11403632969E+04  0.18099518280E+04  0.65864270000E+03 0. -1.
    8880022    1    1    2    0    0 -0.12414120235E+04 -0.24148546385E+02 -0.14802429016E+04  0.19380912427E+04  0.15294330000E+03 0.  0.
<mgrwt>
<rscale>  0 0.13651981E+04</rscale>
<asrwt>0</asrwt>
<pdfrwt beam="1">  1        2 0.26216642E+00 0.14055238E+04</pdfrwt>
<pdfrwt beam="2">  1       -2 0.31445559E+00 0.14055238E+04</pdfrwt>
<totfact> 0.24020186E-01</totfact>
</mgrwt>
</event>
<event>
 4    5  0.7289609E-008  0.1117103E+04  0.7818608E-02  0.9242248E-01
          2   -1    0    0  501    0  0.00000000000E+00  0.00000000000E+00  0.45109133437E+04  0.45109133437E+04  0.25500000000E-02 0. -1.
         -2   -1    0    0    0  501 -0.00000000000E+00 -0.00000000000E+00 -0.43097496958E+03  0.43097496959E+03  0.25500000000E-02 0.  1.
    8880023    1    1    2    0    0 -0.25526008516E+03 -0.86542026772E+03  0.38351941603E+04  0.39945756226E+04  0.65864270000E+03 0. -1.
    8880022    1    1    2    0    0  0.25526008516E+03  0.86542026772E+03  0.24474421386E+03  0.94731269077E+03  0.15294330000E+03 0.  0.
<mgrwt>
<rscale>  0 0.10627797E+04</rscale>
<asrwt>0</asrwt>
<pdfrwt beam="1">  1        2 0.69398666E+00 0.11171035E+04</pdfrwt>
<pdfrwt beam="2">  1       -2 0.66303843E-01 0.11171035E+04</pdfrwt>
<totfact> 0.26402203E-01</totfact>
</mgrwt>
</event>
<event>
 4    5  0.7289609E-008  0.1195200E+04  0.7818608E-02  0.9161803E-01
         -2   -1    0    0    0  501 -0.00000000000E+00  0.00000000000E+00  0.87090004153E+03  0.87090004153E+03  0.25500000000E-02 0.  1.
          2   -1    0    0  501    0  0.00000000000E+00 -0.00000000000E+00 -0.18048719954E+04  0.18048719954E+04  0.25500000000E-02 0. -1.
    8880023    1    1    2    0    0  0.95204857702E+03  0.29714552271E+03  0.13857883577E+03  0.12032066550E+04  0.65864270000E+03 0.  0.
    8880022    1    1    2    0    0 -0.95204857702E+03 -0.29714552271E+03 -0.10725507897E+04  0.14725653820E+04  0.15294330000E+03 0.  0.
<mgrwt>
<rscale>  0 0.11456535E+04</rscale>
<asrwt>0</asrwt>
<pdfrwt beam="1">  1        2 0.27767261E+00 0.11951996E+04</pdfrwt>
<pdfrwt beam="2">  1       -2 0.13398462E+00 0.11951996E+04</pdfrwt>
<totfact> 0.33604667E+00</totfact>
</mgrwt>
</event>
<event>
 4    5  0.7289609E-008  0.1360887E+04  0.7818608E-02  0.9014686E-01
         -2   -1    0    0    0  501 -0.00000000000E+00  0.00000000000E+00  0.13124077045E+04  0.13124077045E+04  0.25500000000E-02 0.  1.
          2   -1    0    0  501    0  0.00000000000E+00 -0.00000000000E+00 -0.16041505478E+04  0.16041505478E+04  0.25500000000E-02 0. -1.
    8880023    1    1    2    0    0 -0.24891397367E+01 -0.11908810090E+04  0.53125614147E+03  0.14609062487E+04  0.65864270000E+03 0.  0.
    8880022    1    1    2    0    0  0.24891397367E+01  0.11908810090E+04 -0.82299898479E+03  0.14556520035E+04  0.15294330000E+03 0.  0.
<mgrwt>
<rscale>  0 0.13189308E+04</rscale>
<asrwt>0</asrwt>
<pdfrwt beam="1">  1        2 0.24679239E+00 0.13608872E+04</pdfrwt>
<pdfrwt beam="2">  1       -2 0.20190888E+00 0.13608872E+04</pdfrwt>
<totfact> 0.13670279E+00</totfact>
</mgrwt>
</event>
<event>
 4    5  0.7289609E-008  0.9475710E+03  0.7818608E-02  0.9453617E-01
         -2   -1    0    0    0  501 -0.00000000000E+00  0.00000000000E+00  0.15336050638E+04  0.15336050638E+04  0.25500000000E-02 0.  1.
          2   -1    0    0  501    0  0.00000000000E+00 -0.00000000000E+00 -0.14472459282E+04  0.14472459282E+04  0.25500000000E-02 0. -1.
    8880023    1    1    2    0    0 -0.57404371554E+03 -0.36681667180E+03  0.12832596830E+04  0.15951947462E+04  0.65864270000E+03 0.  1.
    8880022    1    1    2    0    0  0.57404371554E+03  0.36681667180E+03 -0.11969005474E+04  0.13856562458E+04  0.15294330000E+03 0.  0.
<mgrwt>
<rscale>  0 0.87791522E+03</rscale>
<asrwt>0</asrwt>
<pdfrwt beam="1">  1        2 0.22265322E+00 0.94757103E+03</pdfrwt>
<pdfrwt beam="2">  1       -2 0.23593924E+00 0.94757103E+03</pdfrwt>
<totfact> 0.10718076E+00</totfact>
</mgrwt>
</event>
<event>
 4    5  0.7289609E-008  0.1039361E+04  0.7818608E-02  0.9331782E-01
          2   -1    0    0  501    0  0.00000000000E+00  0.00000000000E+00  0.21538192561E+04  0.21538192561E+04  0.25500000000E-02 0. -1.
         -2   -1    0    0    0  501 -0.00000000000E+00 -0.00000000000E+00 -0.54817068825E+03  0.54817068826E+03  0.25500000000E-02 0.  1.
    8880023    1    1    2    0    0 -0.48771811937E+03  0.63921141646E+03  0.17530438033E+03  0.10540408108E+04  0.65864270000E+03 0.  0.
    8880022    1    1    2    0    0  0.48771811937E+03 -0.63921141646E+03  0.14303441875E+04  0.16479491335E+04  0.15294330000E+03 0.  0.
<mgrwt>
<rscale>  0 0.97908867E+03</rscale>
<asrwt>0</asrwt>
<pdfrwt beam="1">  1        2 0.33135681E+00 0.10393606E+04</pdfrwt>
<pdfrwt beam="2">  1       -2 0.84333951E-01 0.10393606E+04</pdfrwt>
<totfact> 0.67196226E+00</totfact>
</mgrwt>
</event>
<event>
 4    5  0.7289609E-008  0.8900541E+03  0.7818608E-02  0.9542190E-01
          2   -1    0    0  501    0  0.00000000000E+00  0.00000000000E+00  0.17665379842E+04  0.17665379842E+04  0.25500000000E-02 0. -1.
         -2   -1    0    0    0  501 -0.00000000000E+00 -0.00000000000E+00 -0.51385278127E+03  0.51385278128E+03  0.25500000000E-02 0.  1.
    8880023    1    1    2    0    0  0.30556418084E+02 -0.59787324861E+03  0.72227376366E+01  0.89008341760E+03  0.65864270000E+03 0.  0.
    8880022    1    1    2    0    0 -0.30556418084E+02  0.59787324861E+03  0.12454624653E+04  0.13903073479E+04  0.15294330000E+03 0.  0.
<mgrwt>
<rscale>  0 0.81243502E+03</rscale>
<asrwt>0</asrwt>
<pdfrwt beam="1">  1        2 0.27177508E+00 0.89005411E+03</pdfrwt>
<pdfrwt beam="2">  1       -2 0.79054274E-01 0.89005411E+03</pdfrwt>
<totfact> 0.12934181E+01</totfact>
</mgrwt>
</event>
<event>
 4    5  0.7289609E-008  0.7040731E+03  0.7818608E-02  0.9980706E-01
          2   -1    0    0  501    0  0.00000000000E+00  0.00000000000E+00  0.34838520408E+04  0.34838520408E+04  0.25500000000E-02 0. -1.
         -2   -1    0    0    0  501 -0.00000000000E+00 -0.00000000000E+00 -0.19146822779E+03  0.19146822781E+03  0.25500000000E-02 0.  1.
    8880023    1    1    2    0    0  0.22880873882E+03 -0.97751093309E+02  0.49009584133E+03  0.85785363271E+03  0.65864270000E+03 0.  0.
    8880022    1    1    2    0    0 -0.22880873882E+03  0.97751093309E+02  0.28022879717E+04  0.28174666359E+04  0.15294330000E+03 0.  0.
<mgrwt>
<rscale>  0 0.56504388E+03</rscale>
<asrwt>0</asrwt>
<pdfrwt beam="1">  1        2 0.53597721E+00 0.70407309E+03</pdfrwt>
<pdfrwt beam="2">  1       -2 0.29456652E-01 0.70407309E+03</pdfrwt>
<totfact> 0.96407069E+00</totfact>
</mgrwt>
</event>
<event>
 4    5  0.7289609E-008  0.7436644E+03  0.7818608E-02  0.9849399E-01
         -2   -1    0    0    0  501 -0.00000000000E+00  0.00000000000E+00  0.46060962760E+03  0.46060962761E+03  0.25500000000E-02 0.  1.
          2   -1    0    0  501    0  0.00000000000E+00 -0.00000000000E+00 -0.23286416291E+04  0.23286416291E+04  0.25500000000E-02 0. -1.
    8880023    1    1    2    0    0 -0.72250359761E+02 -0.33764842186E+03  0.13078004285E+03  0.75507628564E+03  0.65864270000E+03 0.  0.
    8880022    1    1    2    0    0  0.72250359761E+02  0.33764842186E+03 -0.19988120444E+04  0.20341749711E+04  0.15294330000E+03 0. -1.
<mgrwt>
<rscale>  0 0.62777589E+03</rscale>
<asrwt>0</asrwt>
<pdfrwt beam="1">  1        2 0.35825255E+00 0.74366443E+03</pdfrwt>
<pdfrwt beam="2">  1       -2 0.70863021E-01 0.74366443E+03</pdfrwt>
<totfact> 0.82603805E+00</totfact>
</mgrwt>
</event>
<event>
 4    5  0.7289609E-008  0.8156562E+03  0.7818608E-02  0.9677913E-01
         -2   -1    0    0    0  501 -0.00000000000E+00  0.00000000000E+00  0.46818837275E+03  0.46818837275E+03  0.25500000000E-02 0.  1.
          2   -1    0    0  501    0  0.00000000000E+00 -0.00000000000E+00 -0.11275724167E+04  0.11275724167E+04  0.25500000000E-02 0. -1.
    8880023    1    1    2    0    0  0.12703769413E+03  0.46405417901E+03 -0.68432420815E+02  0.81852187464E+03  0.65864270000E+03 0.  0.
    8880022    1    1    2    0    0 -0.12703769413E+03 -0.46405417901E+03 -0.59095162311E+03  0.77723891479E+03  0.15294330000E+03 0.  0.
<mgrwt>
<rscale>  0 0.72347177E+03</rscale>
<asrwt>0</asrwt>
<pdfrwt beam="1">  1        2 0.17347268E+00 0.81565622E+03</pdfrwt>
<pdfrwt beam="2">  1       -2 0.72028981E-01 0.81565622E+03</pdfrwt>
<totfact> 0.36991904E+01</totfact>
</mgrwt>
</event>
<event>
 4    5  0.7289609E-008  0.7514520E+03  0.7818608E-02  0.9827762E-01
          2   -1    0    0  501    0  0.00000000000E+00  0.00000000000E+00  0.37294550800E+04  0.37294550801E+04  0.25500000000E-02 0. -1.
         -2   -1    0    0    0  501 -0.00000000000E+00 -0.00000000000E+00 -0.20527535470E+03  0.20527535472E+03  0.25500000000E-02 0.  1.
    8880023    1    1    2    0    0  0.30677697514E+03 -0.19172316422E+03  0.54132275550E+03  0.92612656589E+03  0.65864270000E+03 0.  1.
    8880022    1    1    2    0    0 -0.30677697514E+03  0.19172316422E+03  0.29828569699E+04  0.30086038689E+04  0.15294330000E+03 0.  0.
<mgrwt>
<rscale>  0 0.63893714E+03</rscale>
<asrwt>0</asrwt>
<pdfrwt beam="1">  1        2 0.57376234E+00 0.75145199E+03</pdfrwt>
<pdfrwt beam="2">  1       -2 0.31580823E-01 0.75145199E+03</pdfrwt>
<totfact> 0.56414559E+00</totfact>
</mgrwt>
</event>
<event>
 4    5  0.7289609E-008  0.8710521E+03  0.7818608E-02  0.9574198E-01
          2   -1    0    0  501    0  0.00000000000E+00  0.00000000000E+00  0.71612329919E+03  0.71612329920E+03  0.25500000000E-02 0. -1.
         -2   -1    0    0    0  501 -0.00000000000E+00 -0.00000000000E+00 -0.86038539291E+03  0.86038539291E+03  0.25500000000E-02 0.  1.
    8880023    1    1    2    0    0 -0.44272088906E+03 -0.35905404983E+03 -0.36765487144E+03  0.94546385815E+03  0.65864270000E+03 0.  1.
    8880022    1    1    2    0    0  0.44272088906E+03  0.35905404983E+03  0.22339277773E+03  0.63104483396E+03  0.15294330000E+03 0. -1.
<mgrwt>
<rscale>  0 0.79027703E+03</rscale>
<asrwt>0</asrwt>
<pdfrwt beam="1">  1        2 0.11017282E+00 0.87105212E+03</pdfrwt>
<pdfrwt beam="2">  1       -2 0.13236698E+00 0.87105212E+03</pdfrwt>
<totfact> 0.16565169E+01</totfact>
</mgrwt>
</event>
<event>
 4    5  0.7289609E-008  0.1433448E+04  0.7818608E-02  0.8958119E-01
          2   -1    0    0  501    0  0.00000000000E+00  0.00000000000E+00  0.17127611697E+04  0.17127611697E+04  0.25500000000E-02 0. -1.
         -2   -1    0    0    0  501 -0.00000000000E+00 -0.00000000000E+00 -0.15127220865E+04  0.15127220865E+04  0.25500000000E-02 0.  1.
    8880023    1    1    2    0    0  0.12574000557E+04 -0.19977010682E+03 -0.76106822000E+03  0.16229596536E+04  0.65864270000E+03 0.  0.
    8880022    1    1    2    0    0 -0.12574000557E+04  0.19977010682E+03  0.96110730323E+03  0.16025236026E+04  0.15294330000E+03 0.  0.
<mgrwt>
<rscale>  0 0.13940742E+04</rscale>
<asrwt>0</asrwt>
<pdfrwt beam="1">  1        2 0.26350172E+00 0.14334480E+04</pdfrwt>
<pdfrwt beam="2">  1       -2 0.23272648E+00 0.14334480E+04</pdfrwt>
<totfact> 0.74989086E-01</totfact>
</mgrwt>
</event>
<event>
 4    5  0.7289609E-008  0.9920665E+03  0.7818608E-02  0.9392011E-01
         -2   -1    0    0    0  501 -0.00000000000E+00  0.00000000000E+00  0.12582444518E+04  0.12582444518E+04  0.25500000000E-02 0.  1.
          2   -1    0    0  501    0  0.00000000000E+00 -0.00000000000E+00 -0.16339447791E+04  0.16339447791E+04  0.25500000000E-02 0. -1.
    8880023    1    1    2    0    0  0.45633438049E+03  0.58493140795E+03 -0.13391713756E+04  0.16666061318E+04  0.65864270000E+03 0.  0.
    8880022    1    1    2    0    0 -0.45633438049E+03 -0.58493140795E+03  0.96347104841E+03  0.12255830992E+04  0.15294330000E+03 0.  0.
<mgrwt>
<rscale>  0 0.92736038E+03</rscale>
<asrwt>0</asrwt>
<pdfrwt beam="1">  1        2 0.25137612E+00 0.99206654E+03</pdfrwt>
<pdfrwt beam="2">  1       -2 0.19357607E+00 0.99206654E+03</pdfrwt>
<totfact> 0.15586269E+00</totfact>
</mgrwt>
</event>
<event>
 4    5  0.7289609E-008  0.9732139E+03  0.7818608E-02  0.9417473E-01
         -2   -1    0    0    0  501 -0.00000000000E+00  0.00000000000E+00  0.49638714965E+03  0.49638714965E+03  0.25500000000E-02 0.  1.
          2   -1    0    0  501    0  0.00000000000E+00 -0.00000000000E+00 -0.27080932589E+04  0.27080932589E+04  0.25500000000E-02 0. -1.
    8880023    1    1    2    0    0  0.48649477235E+03 -0.52598284318E+03 -0.11079981510E+03  0.97950085254E+03  0.65864270000E+03 0.  1.
    8880022    1    1    2    0    0 -0.48649477235E+03  0.52598284318E+03 -0.21009062941E+04  0.22249795560E+04  0.15294330000E+03 0.  0.
<mgrwt>
<rscale>  0 0.90651582E+03</rscale>
<asrwt>0</asrwt>
<pdfrwt beam="1">  1        2 0.41662972E+00 0.97321391E+03</pdfrwt>
<pdfrwt beam="2">  1       -2 0.76367256E-01 0.97321391E+03</pdfrwt>
<totfact> 0.41034869E+00</totfact>
</mgrwt>
</event>
<event>
 4    5  0.7289609E-008  0.1029252E+04  0.7818608E-02  0.9344250E-01
         -2   -1    0    0    0  501 -0.00000000000E+00  0.00000000000E+00  0.49080440861E+03  0.49080440862E+03  0.25500000000E-02 0.  1.
          2   -1    0    0  501    0  0.00000000000E+00 -0.00000000000E+00 -0.21767467563E+04  0.21767467563E+04  0.25500000000E-02 0. -1.
    8880023    1    1    2    0    0 -0.67175706796E+03  0.41748237130E+03 -0.31311762093E+03  0.10758261660E+04  0.65864270000E+03 0.  0.
    8880022    1    1    2    0    0  0.67175706796E+03 -0.41748237130E+03 -0.13728247267E+04  0.15917249989E+04  0.15294330000E+03 0.  0.
<mgrwt>
<rscale>  0 0.96809251E+03</rscale>
<asrwt>0</asrwt>
<pdfrwt beam="1">  1        2 0.33488411E+00 0.10292518E+04</pdfrwt>
<pdfrwt beam="2">  1       -2 0.75508372E-01 0.10292518E+04</pdfrwt>
<totfact> 0.83847149E+00</totfact>
</mgrwt>
</event>
<event>
 4    5  0.7289609E-008  0.1062391E+04  0.7818608E-02  0.9304132E-01
          2   -1    0    0  501    0  0.00000000000E+00  0.00000000000E+00  0.11352110940E+04  0.11352110940E+04  0.25500000000E-02 0. -1.
         -2   -1    0    0    0  501 -0.00000000000E+00 -0.00000000000E+00 -0.11161331308E+04  0.11161331308E+04  0.25500000000E-02 0.  1.
    8880023    1    1    2    0    0  0.22985543966E+02  0.83326797498E+03 -0.58291369100E+03  0.12118013165E+04  0.65864270000E+03 0.  0.
    8880022    1    1    2    0    0 -0.22985543966E+02 -0.83326797498E+03  0.60199165425E+03  0.10395429083E+04  0.15294330000E+03 0.  0.
<mgrwt>
<rscale>  0 0.10040332E+04</rscale>
<asrwt>0</asrwt>
<pdfrwt beam="1">  1        2 0.17464786E+00 0.10623907E+04</pdfrwt>
<pdfrwt beam="2">  1       -2 0.17171279E+00 0.10623907E+04</pdfrwt>
<totfact> 0.42304177E+00</totfact>
</mgrwt>
</event>
<event>
 4    5  0.7289609E-008  0.2014467E+04  0.7818608E-02  0.8612348E-01
         -2   -1    0    0    0  501 -0.00000000000E+00  0.00000000000E+00  0.12877299435E+04  0.12877299435E+04  0.25500000000E-02 0.  1.
          2   -1    0    0  501    0  0.00000000000E+00 -0.00000000000E+00 -0.44215565235E+04  0.44215565235E+04  0.25500000000E-02 0. -1.
    8880023    1    1    2    0    0  0.16742327497E+04 -0.90620632115E+03  0.28848116388E+02  0.20146730793E+04  0.65864270000E+03 0.  0.
    8880022    1    1    2    0    0 -0.16742327497E+04  0.90620632115E+03 -0.31626746964E+04  0.36946133877E+04  0.15294330000E+03 0.  0.
<mgrwt>
<rscale>  0 0.19877959E+04</rscale>
<asrwt>0</asrwt>
<pdfrwt beam="1">  1        2 0.68023946E+00 0.20144665E+04</pdfrwt>
<pdfrwt beam="2">  1       -2 0.19811230E+00 0.20144665E+04</pdfrwt>
<totfact> 0.18001448E-02</totfact>
</mgrwt>
</event>
<event>
 4    5  0.7289609E-008  0.9206496E+03  0.7818608E-02  0.9493664E-01
          2   -1    0    0  501    0  0.00000000000E+00  0.00000000000E+00  0.15409718979E+04  0.15409718979E+04  0.25500000000E-02 0. -1.
         -2   -1    0    0    0  501 -0.00000000000E+00 -0.00000000000E+00 -0.47122554680E+03  0.47122554681E+03  0.25500000000E-02 0.  1.
    8880023    1    1    2    0    0  0.51903182967E+03  0.37998865022E+03  0.98054383852E+03  0.13450136951E+04  0.65864270000E+03 0. -1.
    8880022    1    1    2    0    0 -0.51903182967E+03 -0.37998865022E+03  0.89202512618E+02  0.66718374964E+03  0.15294330000E+03 0.  1.
<mgrwt>
<rscale>  0 0.84752582E+03</rscale>
<asrwt>0</asrwt>
<pdfrwt beam="1">  1        2 0.23707260E+00 0.92064956E+03</pdfrwt>
<pdfrwt beam="2">  1       -2 0.72496238E-01 0.92064956E+03</pdfrwt>
<totfact> 0.20833233E+01</totfact>
</mgrwt>
</event>
<event>
 4    5  0.7289609E-008  0.1125562E+04  0.7818608E-02  0.9233116E-01
         -2   -1    0    0    0  501 -0.00000000000E+00  0.00000000000E+00  0.90468306341E+03  0.90468306341E+03  0.25500000000E-02 0.  1.
          2   -1    0    0  501    0  0.00000000000E+00 -0.00000000000E+00 -0.19730913882E+04  0.19730913882E+04  0.25500000000E-02 0. -1.
    8880023    1    1    2    0    0 -0.77375099357E+03 -0.48413666905E+03  0.35477677442E+03  0.11801507024E+04  0.65864270000E+03 0.  1.
    8880022    1    1    2    0    0  0.77375099357E+03  0.48413666905E+03 -0.14231850992E+04  0.16976237493E+04  0.15294330000E+03 0.  0.
<mgrwt>
<rscale>  0 0.10718056E+04</rscale>
<asrwt>0</asrwt>
<pdfrwt beam="1">  1        2 0.30355252E+00 0.11255617E+04</pdfrwt>
<pdfrwt beam="2">  1       -2 0.13918201E+00 0.11255617E+04</pdfrwt>
<totfact> 0.24773152E+00</totfact>
</mgrwt>
</event>
<event>
 4    5  0.7289609E-008  0.8139756E+03  0.7818608E-02  0.9681355E-01
         -2   -1    0    0    0  501 -0.00000000000E+00  0.00000000000E+00  0.89211616851E+03  0.89211616852E+03  0.25500000000E-02 0.  1.
          2   -1    0    0  501    0  0.00000000000E+00 -0.00000000000E+00 -0.13503608665E+04  0.13503608665E+04  0.25500000000E-02 0. -1.
    8880023    1    1    2    0    0  0.97411674912E+02 -0.46824889736E+03  0.63963006176E+03  0.10352211776E+04  0.65864270000E+03 0.  0.
    8880022    1    1    2    0    0 -0.97411674912E+02  0.46824889736E+03 -0.10978747598E+04  0.12072558575E+04  0.15294330000E+03 0.  0.
<mgrwt>
<rscale>  0 0.72137862E+03</rscale>
<asrwt>0</asrwt>
<pdfrwt beam="1">  1        2 0.20774783E+00 0.81397560E+03</pdfrwt>
<pdfrwt beam="2">  1       -2 0.13724864E+00 0.81397560E+03</pdfrwt>
<totfact> 0.59264530E+00</totfact>
</mgrwt>
</event>
<event>
 4    5  0.7289609E-008  0.6817329E+03  0.7818608E-02  0.1008360E+00
          2   -1    0    0  501    0  0.00000000000E+00  0.00000000000E+00  0.12139701290E+04  0.12139701290E+04  0.25500000000E-02 0. -1.
         -2   -1    0    0    0  501 -0.00000000000E+00 -0.00000000000E+00 -0.12826261711E+04  0.12826261711E+04  0.25500000000E-02 0.  1.
    8880023    1    1    2    0    0 -0.12025699275E+03  0.12840488930E+03 -0.11790732286E+04  0.13619740983E+04  0.65864270000E+03 0.  1.
    8880022    1    1    2    0    0  0.12025699275E+03 -0.12840488930E+03  0.11104171864E+04  0.11346222018E+04  0.15294330000E+03 0.  0.
<mgrwt>
<rscale>  0 0.52131697E+03</rscale>
<asrwt>0</asrwt>
<pdfrwt beam="1">  1        2 0.18676463E+00 0.68173291E+03</pdfrwt>
<pdfrwt beam="2">  1       -2 0.19732710E+00 0.68173291E+03</pdfrwt>
<totfact> 0.26732550E+00</totfact>
</mgrwt>
</event>
<event>
 4    5  0.7289609E-008  0.8601041E+03  0.7818608E-02  0.9593378E-01
          2   -1    0    0  501    0  0.00000000000E+00  0.00000000000E+00  0.33620653234E+04  0.33620653234E+04  0.25500000000E-02 0. -1.
         -2   -1    0    0    0  501 -0.00000000000E+00 -0.00000000000E+00 -0.20837206933E+03  0.20837206934E+03  0.25500000000E-02 0.  1.
    8880023    1    1    2    0    0 -0.53214703039E+03 -0.15095839999E+03  0.90032806747E+03  0.12451384404E+04  0.65864270000E+03 0.  0.
    8880022    1    1    2    0    0  0.53214703039E+03  0.15095839999E+03  0.22533651866E+04  0.23252989524E+04  0.15294330000E+03 0.  0.
<mgrwt>
<rscale>  0 0.77736006E+03</rscale>
<asrwt>0</asrwt>
<pdfrwt beam="1">  1        2 0.51724077E+00 0.86010413E+03</pdfrwt>
<pdfrwt beam="2">  1       -2 0.32057244E-01 0.86010413E+03</pdfrwt>
<totfact> 0.96563774E+00</totfact>
</mgrwt>
</event>
<event>
 4    5  0.7289609E-008  0.7677136E+03  0.7818608E-02  0.9785532E-01
         -2   -1    0    0    0  501 -0.00000000000E+00  0.00000000000E+00  0.37705825275E+03  0.37705825276E+03  0.25500000000E-02 0.  1.
          2   -1    0    0  501    0  0.00000000000E+00 -0.00000000000E+00 -0.19011375178E+04  0.19011375178E+04  0.25500000000E-02 0. -1.
    8880023    1    1    2    0    0  0.16608886667E+03  0.35775482308E+03 -0.78185001525E+02  0.77168460254E+03  0.65864270000E+03 0.  1.
    8880022    1    1    2    0    0 -0.16608886667E+03 -0.35775482308E+03 -0.14458942635E+04  0.15065111680E+04  0.15294330000E+03 0.  0.
<mgrwt>
<rscale>  0 0.66144793E+03</rscale>
<asrwt>0</asrwt>
<pdfrwt beam="1">  1        2 0.29248269E+00 0.76771364E+03</pdfrwt>
<pdfrwt beam="2">  1       -2 0.58008963E-01 0.76771364E+03</pdfrwt>
<totfact> 0.21704242E+01</totfact>
</mgrwt>
</event>
<event>
 4    5  0.7289609E-008  0.1168680E+04  0.7818608E-02  0.9188186E-01
         -2   -1    0    0    0  501 -0.00000000000E+00  0.00000000000E+00  0.62772067855E+03  0.62772067855E+03  0.25500000000E-02 0.  1.
          2   -1    0    0  501    0  0.00000000000E+00 -0.00000000000E+00 -0.21641363822E+04  0.21641363822E+04  0.25500000000E-02 0. -1.
    8880023    1    1    2    0    0  0.81842362101E+03 -0.51203998505E+03 -0.28314232666E+03  0.12024898973E+04  0.65864270000E+03 0.  1.
    8880022    1    1    2    0    0 -0.81842362101E+03  0.51203998505E+03 -0.12532733770E+04  0.15893671634E+04  0.15294330000E+03 0.  0.
<mgrwt>
<rscale>  0 0.11176207E+04</rscale>
<asrwt>0</asrwt>
<pdfrwt beam="1">  1        2 0.33294405E+00 0.11686798E+04</pdfrwt>
<pdfrwt beam="2">  1       -2 0.96572414E-01 0.11686798E+04</pdfrwt>
<totfact> 0.47724755E+00</totfact>
</mgrwt>
</event>
<event>
 4    5  0.7289609E-008  0.1244129E+04  0.7818608E-02  0.9115376E-01
          2   -1    0    0  501    0  0.00000000000E+00  0.00000000000E+00  0.20107225550E+04  0.20107225550E+04  0.25500000000E-02 0. -1.
         -2   -1    0    0    0  501 -0.00000000000E+00 -0.00000000000E+00 -0.93446228283E+03  0.93446228283E+03  0.25500000000E-02 0.  1.
    8880023    1    1    2    0    0 -0.45261021300E+03 -0.95351434573E+03 -0.22331819171E+03  0.12640121967E+04  0.65864270000E+03 0.  1.
    8880022    1    1    2    0    0  0.45261021300E+03  0.95351434573E+03  0.12995784639E+04  0.16811726411E+04  0.15294330000E+03 0.  0.
<mgrwt>
<rscale>  0 0.11971260E+04</rscale>
<asrwt>0</asrwt>
<pdfrwt beam="1">  1        2 0.30934193E+00 0.12441285E+04</pdfrwt>
<pdfrwt beam="2">  1       -2 0.14376343E+00 0.12441285E+04</pdfrwt>
<totfact> 0.21404810E+00</totfact>
</mgrwt>
</event>
<event>
 4    5  0.7289609E-008  0.8024615E+03  0.7818608E-02  0.9705499E-01
          2   -1    0    0  501    0  0.00000000000E+00  0.00000000000E+00  0.14787955831E+04  0.14787955831E+04  0.25500000000E-02 0. -1.
         -2   -1    0    0    0  501 -0.00000000000E+00 -0.00000000000E+00 -0.63986555186E+03  0.63986555186E+03  0.25500000000E-02 0.  1.
    8880023    1    1    2    0    0 -0.17299403362E+03  0.42450830394E+03 -0.31930681267E+03  0.86365576630E+03  0.65864270000E+03 0.  1.
    8880022    1    1    2    0    0  0.17299403362E+03 -0.42450830394E+03  0.11582368439E+04  0.12550053687E+04  0.15294330000E+03 0.  0.
<mgrwt>
<rscale>  0 0.70690333E+03</rscale>
<asrwt>0</asrwt>
<pdfrwt beam="1">  1        2 0.22750701E+00 0.80246149E+03</pdfrwt>
<pdfrwt beam="2">  1       -2 0.98440854E-01 0.80246149E+03</pdfrwt>
<totfact> 0.11380792E+01</totfact>
</mgrwt>
</event>
<event>
 4    5  0.7289609E-008  0.7192511E+03  0.7818608E-02  0.9925128E-01
         -2   -1    0    0    0  501 -0.00000000000E+00  0.00000000000E+00  0.11677166151E+03  0.11677166153E+03  0.25500000000E-02 0.  1.
          2   -1    0    0  501    0  0.00000000000E+00 -0.00000000000E+00 -0.44128525448E+04  0.44128525448E+04  0.25500000000E-02 0. -1.
    8880023    1    1    2    0    0  0.20068945734E+03  0.20793201625E+03 -0.10838083689E+04  0.13007546919E+04  0.65864270000E+03 0.  1.
    8880022    1    1    2    0    0 -0.20068945734E+03 -0.20793201625E+03 -0.32122725144E+04  0.32288695145E+04  0.15294330000E+03 0.  0.
<mgrwt>
<rscale>  0 0.59058780E+03</rscale>
<asrwt>0</asrwt>
<pdfrwt beam="1">  1        2 0.67890027E+00 0.71925113E+03</pdfrwt>
<pdfrwt beam="2">  1       -2 0.17964874E-01 0.71925113E+03</pdfrwt>
<totfact> 0.43567350E+00</totfact>
</mgrwt>
</event>
<event>
 4    5  0.7289609E-008  0.8198572E+03  0.7818608E-02  0.9669399E-01
         -2   -1    0    0    0  501 -0.00000000000E+00  0.00000000000E+00  0.41013539742E+03  0.41013539743E+03  0.25500000000E-02 0.  1.
          2   -1    0    0  501    0  0.00000000000E+00 -0.00000000000E+00 -0.12453018485E+04  0.12453018485E+04  0.25500000000E-02 0. -1.
    8880023    1    1    2    0    0 -0.35936473519E+03 -0.33047343468E+03 -0.20755969617E+03  0.84572273096E+03  0.65864270000E+03 0.  1.
    8880022    1    1    2    0    0  0.35936473519E+03  0.33047343468E+03 -0.62760675490E+03  0.80971451496E+03  0.15294330000E+03 0.  0.
<mgrwt>
<rscale>  0 0.72868356E+03</rscale>
<asrwt>0</asrwt>
<pdfrwt beam="1">  1        2 0.19158490E+00 0.81985725E+03</pdfrwt>
<pdfrwt beam="2">  1       -2 0.63097754E-01 0.81985725E+03</pdfrwt>
<totfact> 0.41916201E+01</totfact>
</mgrwt>
</event>
<event>
 4    5  0.7289609E-008  0.1453501E+04  0.7818608E-02  0.8943188E-01
         -2   -1    0    0    0  501 -0.00000000000E+00  0.00000000000E+00  0.11353817601E+04  0.11353817601E+04  0.25500000000E-02 0.  1.
          2   -1    0    0  501    0  0.00000000000E+00 -0.00000000000E+00 -0.22587432855E+04  0.22587432855E+04  0.25500000000E-02 0. -1.
    8880023    1    1    2    0    0  0.80172479605E+01 -0.12956812598E+04  0.27754523962E+03  0.14797620652E+04  0.65864270000E+03 0.  1.
    8880022    1    1    2    0    0 -0.80172479605E+01  0.12956812598E+04 -0.14009067650E+04  0.19143629804E+04  0.15294330000E+03 0.  0.
<mgrwt>
<rscale>  0 0.14147810E+04</rscale>
<asrwt>0</asrwt>
<pdfrwt beam="1">  1        2 0.34749897E+00 0.14535007E+04</pdfrwt>
<pdfrwt beam="2">  1       -2 0.17467412E+00 0.14535007E+04</pdfrwt>
<totfact> 0.89385053E-01</totfact>
</mgrwt>
</event>
<event>
 4    5  0.7289609E-008  0.8301970E+03  0.7818608E-02  0.9648949E-01
          2   -1    0    0  501    0  0.00000000000E+00  0.00000000000E+00  0.11338252999E+04  0.11338252999E+04  0.25500000000E-02 0. -1.
         -2   -1    0    0    0  501 -0.00000000000E+00 -0.00000000000E+00 -0.15850715379E+04  0.15850715379E+04  0.25500000000E-02 0.  1.
    8880023    1    1    2    0    0  0.36417607595E+02  0.50407407008E+03 -0.14031484793E+04  0.16303535725E+04  0.65864270000E+03 0.  1.
    8880022    1    1    2    0    0 -0.36417607595E+02 -0.50407407008E+03  0.95190224132E+03  0.10885432653E+04  0.15294330000E+03 0.  0.
<mgrwt>
<rscale>  0 0.74139414E+03</rscale>
<asrwt>0</asrwt>
<pdfrwt beam="1">  1        2 0.17443466E+00 0.83019703E+03</pdfrwt>
<pdfrwt beam="2">  1       -2 0.24385716E+00 0.83019703E+03</pdfrwt>
<totfact> 0.14863549E+00</totfact>
</mgrwt>
</event>
<event>
 4    5  0.7289609E-008  0.1030188E+04  0.7818608E-02  0.9343087E-01
         -2   -1    0    0    0  501 -0.00000000000E+00  0.00000000000E+00  0.17610030009E+04  0.17610030009E+04  0.25500000000E-02 0.  1.
          2   -1    0    0  501    0  0.00000000000E+00 -0.00000000000E+00 -0.80092895209E+03  0.80092895210E+03  0.25500000000E-02 0. -1.
    8880023    1    1    2    0    0  0.27580234829E+03  0.74256940181E+03  0.13234230155E+04  0.16771210260E+04  0.65864270000E+03 0.  0.
    8880022    1    1    2    0    0 -0.27580234829E+03 -0.74256940181E+03 -0.36334896669E+03  0.88481092694E+03  0.15294330000E+03 0.  0.
<mgrwt>
<rscale>  0 0.96911171E+03</rscale>
<asrwt>0</asrwt>
<pdfrwt beam="1">  1        2 0.12321984E+00 0.10301876E+04</pdfrwt>
<pdfrwt beam="2">  1       -2 0.27092354E+00 0.10301876E+04</pdfrwt>
<totfact> 0.16397659E+00</totfact>
</mgrwt>
</event>
<event>
 4    5  0.7289609E-008  0.1118968E+04  0.7818608E-02  0.9240226E-01
         -2   -1    0    0    0  501 -0.00000000000E+00  0.00000000000E+00  0.15271903885E+04  0.15271903885E+04  0.25500000000E-02 0.  1.
          2   -1    0    0  501    0  0.00000000000E+00 -0.00000000000E+00 -0.15401546354E+04  0.15401546354E+04  0.25500000000E-02 0. -1.
    8880023    1    1    2    0    0  0.14729331721E+03  0.89251503171E+03  0.11376691542E+04  0.15957379841E+04  0.65864270000E+03 0.  1.
    8880022    1    1    2    0    0 -0.14729331721E+03 -0.89251503171E+03 -0.11506334010E+04  0.14716070398E+04  0.15294330000E+03 0.  0.
<mgrwt>
<rscale>  0 0.10647702E+04</rscale>
<asrwt>0</asrwt>
<pdfrwt beam="1">  1        2 0.23694687E+00 0.11189677E+04</pdfrwt>
<pdfrwt beam="2">  1       -2 0.23495237E+00 0.11189677E+04</pdfrwt>
<totfact> 0.94083419E-01</totfact>
</mgrwt>
</event>
<event>
 4    5  0.7289609E-008  0.8010121E+03  0.7818608E-02  0.9708612E-01
          2   -1    0    0  501    0  0.00000000000E+00  0.00000000000E+00  0.21323547372E+04  0.21323547372E+04  0.25500000000E-02 0. -1.
         -2   -1    0    0    0  501 -0.00000000000E+00 -0.00000000000E+00 -0.49978121891E+03  0.49978121892E+03  0.25500000000E-02 0.  1.
    8880023    1    1    2    0    0  0.38285808947E+03  0.24744657285E+03 -0.12434674388E+03  0.81060621887E+03  0.65864270000E+03 0.  0.
    8880022    1    1    2    0    0 -0.38285808947E+03 -0.24744657285E+03  0.17569202622E+04  0.18215297373E+04  0.15294330000E+03 0.  0.
<mgrwt>
<rscale>  0 0.70506343E+03</rscale>
<asrwt>0</asrwt>
<pdfrwt beam="1">  1        2 0.32805457E+00 0.80101207E+03</pdfrwt>
<pdfrwt beam="2">  1       -2 0.76889418E-01 0.80101207E+03</pdfrwt>
<totfact> 0.87770001E+00</totfact>
</mgrwt>
</event>
<event>
 4    5  0.7289609E-008  0.1267812E+04  0.7818608E-02  0.9093867E-01
          2   -1    0    0  501    0  0.00000000000E+00  0.00000000000E+00  0.16991777209E+04  0.16991777209E+04  0.25500000000E-02 0. -1.
         -2   -1    0    0    0  501 -0.00000000000E+00 -0.00000000000E+00 -0.12640798550E+04  0.12640798550E+04  0.25500000000E-02 0.  1.
    8880023    1    1    2    0    0  0.10312071584E+04 -0.33188651852E+03 -0.64795847572E+03  0.14237967752E+04  0.65864270000E+03 0.  1.
    8880022    1    1    2    0    0 -0.10312071584E+04  0.33188651852E+03  0.10830563416E+04  0.15394608006E+04  0.15294330000E+03 0.  0.
<mgrwt>
<rscale>  0 0.12219393E+04</rscale>
<asrwt>0</asrwt>
<pdfrwt beam="1">  1        2 0.26141196E+00 0.12678119E+04</pdfrwt>
<pdfrwt beam="2">  1       -2 0.19447382E+00 0.12678119E+04</pdfrwt>
<totfact> 0.13676536E+00</totfact>
</mgrwt>
</event>
<event>
 4    5  0.7289609E-008  0.6773680E+03  0.7818608E-02  0.1010853E+00
          2   -1    0    0  501    0  0.00000000000E+00  0.00000000000E+00  0.10875623504E+04  0.10875623504E+04  0.25500000000E-02 0. -1.
         -2   -1    0    0    0  501 -0.00000000000E+00 -0.00000000000E+00 -0.40074177553E+03  0.40074177553E+03  0.25500000000E-02 0.  1.
    8880023    1    1    2    0    0 -0.12837841919E+03 -0.92391622477E+02 -0.87807445808E+02  0.68303556585E+03  0.65864270000E+03 0.  1.
    8880022    1    1    2    0    0  0.12837841919E+03  0.92391622477E+02  0.77462802066E+03  0.80526856006E+03  0.15294330000E+03 0.  0.
<mgrwt>
<rscale>  0 0.51136871E+03</rscale>
<asrwt>0</asrwt>
<pdfrwt beam="1">  1        2 0.16731728E+00 0.67736802E+03</pdfrwt>
<pdfrwt beam="2">  1       -2 0.61652581E-01 0.67736802E+03</pdfrwt>
<totfact> 0.55465841E+01</totfact>
</mgrwt>
</event>
<event>
 4    5  0.8619710E-008  0.9353152E+03  0.7818608E-02  0.9471565E-01
         -2   -1    0    0    0  501 -0.00000000000E+00  0.00000000000E+00  0.16194553613E+04  0.16194553613E+04  0.25500000000E-02 0.  1.
          2   -1    0    0  501    0  0.00000000000E+00 -0.00000000000E+00 -0.21603357558E+04  0.21603357558E+04  0.25500000000E-02 0. -1.
    8880023    1    1    2    0    0 -0.53340080772E+03  0.39558540836E+03  0.14219736805E+04  0.17020057554E+04  0.65864270000E+03 0.  0.
    8880022    1    1    2    0    0  0.53340080772E+03 -0.39558540836E+03 -0.19628540750E+04  0.20777853618E+04  0.15294330000E+03 0.  0.
<mgrwt>
<rscale>  0 0.86413088E+03</rscale>
<asrwt>0</asrwt>
<pdfrwt beam="1">  1        2 0.33235935E+00 0.93531516E+03</pdfrwt>
<pdfrwt beam="2">  1       -2 0.24914698E+00 0.93531516E+03</pdfrwt>
<totfact> 0.35971547E-01</totfact>
</mgrwt>
</event>
<event>
 4    5  0.7289609E-008  0.7143222E+03  0.7818608E-02  0.9942288E-01
         -2   -1    0    0    0  501 -0.00000000000E+00  0.00000000000E+00  0.10481340558E+04  0.10481340558E+04  0.25500000000E-02 0.  1.
          2   -1    0    0  501    0  0.00000000000E+00 -0.00000000000E+00 -0.82972885603E+03  0.82972885603E+03  0.25500000000E-02 0. -1.
    8880023    1    1    2    0    0 -0.60855484050E+02  0.26970831340E+03  0.88670005736E+03  0.11386365365E+04  0.65864270000E+03 0.  1.
    8880022    1    1    2    0    0  0.60855484050E+02 -0.26970831340E+03 -0.66829485760E+03  0.73922637532E+03  0.15294330000E+03 0.  0.
<mgrwt>
<rscale>  0 0.58254889E+03</rscale>
<asrwt>0</asrwt>
<pdfrwt beam="1">  1        2 0.12765059E+00 0.71432218E+03</pdfrwt>
<pdfrwt beam="2">  1       -2 0.16125139E+00 0.71432218E+03</pdfrwt>
<totfact> 0.82643416E+00</totfact>
</mgrwt>
</event>
<event>
 4    5  0.7289609E-008  0.8886621E+03  0.7818608E-02  0.9544483E-01
         -2   -1    0    0    0  501 -0.00000000000E+00  0.00000000000E+00  0.47116872371E+03  0.47116872372E+03  0.25500000000E-02 0.  1.
          2   -1    0    0  501    0  0.00000000000E+00 -0.00000000000E+00 -0.13931446494E+04  0.13931446494E+04  0.25500000000E-02 0. -1.
    8880023    1    1    2    0    0  0.10373777398E+02  0.59649178230E+03 -0.19186902588E+03  0.90913914830E+03  0.65864270000E+03 0.  0.
    8880022    1    1    2    0    0 -0.10373777398E+02 -0.59649178230E+03 -0.73010689981E+03  0.95517422483E+03  0.15294330000E+03 0.  0.
<mgrwt>
<rscale>  0 0.81082211E+03</rscale>
<asrwt>0</asrwt>
<pdfrwt beam="1">  1        2 0.21432994E+00 0.88866207E+03</pdfrwt>
<pdfrwt beam="2">  1       -2 0.72487497E-01 0.88866207E+03</pdfrwt>
<totfact> 0.25320802E+01</totfact>
</mgrwt>
</event>
<event>
 4    5  0.7289609E-008  0.9800797E+03  0.7818608E-02  0.9408096E-01
         -2   -1    0    0    0  501 -0.00000000000E+00  0.00000000000E+00  0.42539503494E+03  0.42539503495E+03  0.25500000000E-02 0.  1.
          2   -1    0    0  501    0  0.00000000000E+00 -0.00000000000E+00 -0.32881120205E+04  0.32881120205E+04  0.25500000000E-02 0. -1.
    8880023    1    1    2    0    0 -0.21679576145E+03  0.69263676471E+03 -0.26972303848E+03  0.10165170012E+04  0.65864270000E+03 0.  0.
    8880022    1    1    2    0    0  0.21679576145E+03 -0.69263676471E+03 -0.25929939471E+04  0.26969900543E+04  0.15294330000E+03 0.  0.
<mgrwt>
<rscale>  0 0.91412374E+03</rscale>
<asrwt>0</asrwt>
<pdfrwt beam="1">  1        2 0.50586337E+00 0.98007974E+03</pdfrwt>
<pdfrwt beam="2">  1       -2 0.65445392E-01 0.98007974E+03</pdfrwt>
<totfact> 0.25217160E+00</totfact>
</mgrwt>
</event>
<event>
 4    5  0.7289609E-008  0.7007402E+03  0.7818608E-02  0.9994144E-01
          2   -1    0    0  501    0  0.00000000000E+00  0.00000000000E+00  0.54103190900E+03  0.54103190901E+03  0.25500000000E-02 0. -1.
         -2   -1    0    0    0  501 -0.00000000000E+00 -0.00000000000E+00 -0.10052849962E+04  0.10052849962E+04  0.25500000000E-02 0.  1.
    8880023    1    1    2    0    0  0.23118488299E+03 -0.61483207827E+02 -0.82809786503E+03  0.10847962552E+04  0.65864270000E+03 0.  1.
    8880022    1    1    2    0    0 -0.23118488299E+03  0.61483207827E+02  0.36384477786E+03  0.46152064998E+03  0.15294330000E+03 0.  0.
<mgrwt>
<rscale>  0 0.55907745E+03</rscale>
<asrwt>0</asrwt>
<pdfrwt beam="1">  1        2 0.83235678E-01 0.70074021E+03</pdfrwt>
<pdfrwt beam="2">  1       -2 0.15465923E+00 0.70074021E+03</pdfrwt>
<totfact> 0.15798922E+01</totfact>
</mgrwt>
</event>
<event>
 4    5  0.7289609E-008  0.1941184E+04  0.7818608E-02  0.8648213E-01
          2   -1    0    0  501    0  0.00000000000E+00  0.00000000000E+00  0.31950273336E+04  0.31950273336E+04  0.25500000000E-02 0. -1.
         -2   -1    0    0    0  501 -0.00000000000E+00 -0.00000000000E+00 -0.13234463401E+04  0.13234463401E+04  0.25500000000E-02 0.  1.
    8880023    1    1    2    0    0  0.99227931158E+03  0.15328949580E+04  0.60565532142E+02  0.19421286195E+04  0.65864270000E+03 0.  0.
    8880022    1    1    2    0    0 -0.99227931158E+03 -0.15328949580E+04  0.18110154614E+04  0.25763450543E+04  0.15294330000E+03 0.  0.
<mgrwt>
<rscale>  0 0.19134033E+04</rscale>
<asrwt>0</asrwt>
<pdfrwt beam="1">  1        2 0.49154266E+00 0.19411840E+04</pdfrwt>
<pdfrwt beam="2">  1       -2 0.20360713E+00 0.19411840E+04</pdfrwt>
<totfact> 0.14783477E-01</totfact>
</mgrwt>
</event>
<event>
 4    5  0.7289609E-008  0.1291285E+04  0.7818608E-02  0.9073122E-01
         -2   -1    0    0    0  501 -0.00000000000E+00  0.00000000000E+00  0.43307892225E+03  0.43307892225E+03  0.25500000000E-02 0.  1.
          2   -1    0    0  501    0  0.00000000000E+00 -0.00000000000E+00 -0.42772444762E+04  0.42772444762E+04  0.25500000000E-02 0. -1.
    8880023    1    1    2    0    0 -0.15317302166E+02 -0.11105732004E+04 -0.93980439303E+03  0.15970754386E+04  0.65864270000E+03 0.  0.
    8880022    1    1    2    0    0  0.15317302166E+02  0.11105732004E+04 -0.29043611609E+04  0.31132479598E+04  0.15294330000E+03 0.  0.
<mgrwt>
<rscale>  0 0.12464748E+04</rscale>
<asrwt>0</asrwt>
<pdfrwt beam="1">  1        2 0.65803758E+00 0.12912853E+04</pdfrwt>
<pdfrwt beam="2">  1       -2 0.66627529E-01 0.12912853E+04</pdfrwt>
<totfact> 0.41659873E-01</totfact>
</mgrwt>
</event>
<event>
 4    5  0.7289609E-008  0.7905592E+03  0.7818608E-02  0.9731593E-01
         -2   -1    0    0    0  501 -0.00000000000E+00  0.00000000000E+00  0.10615620801E+04  0.10615620801E+04  0.25500000000E-02 0.  1.
          2   -1    0    0  501    0  0.00000000000E+00 -0.00000000000E+00 -0.11403455318E+04  0.11403455318E+04  0.25500000000E-02 0. -1.
    8880023    1    1    2    0    0 -0.43608028146E+03  0.31742670527E+02  0.85197304031E+03  0.11622572334E+04  0.65864270000E+03 0.  1.
    8880022    1    1    2    0    0  0.43608028146E+03 -0.31742670527E+02 -0.93075649205E+03  0.10396503785E+04  0.15294330000E+03 0.  0.
<mgrwt>
<rscale>  0 0.69166487E+03</rscale>
<asrwt>0</asrwt>
<pdfrwt beam="1">  1        2 0.17543777E+00 0.79055918E+03</pdfrwt>
<pdfrwt beam="2">  1       -2 0.16331724E+00 0.79055918E+03</pdfrwt>
<totfact> 0.49784172E+00</totfact>
</mgrwt>
</event>
<event>
 4    5  0.7289609E-008  0.6922644E+03  0.7818608E-02  0.1003094E+00
          2   -1    0    0  501    0  0.00000000000E+00  0.00000000000E+00  0.32702598608E+04  0.32702598608E+04  0.25500000000E-02 0. -1.
         -2   -1    0    0    0  501 -0.00000000000E+00 -0.00000000000E+00 -0.18904741110E+03  0.18904741112E+03  0.25500000000E-02 0.  1.
    8880023    1    1    2    0    0 -0.68420398888E+02 -0.20183757535E+03  0.47413802619E+03  0.83906902693E+03  0.65864270000E+03 0.  0.
    8880022    1    1    2    0    0  0.68420398888E+02  0.20183757535E+03  0.26070744235E+04  0.26202382450E+04  0.15294330000E+03 0. -1.
<mgrwt>
<rscale>  0 0.54313970E+03</rscale>
<asrwt>0</asrwt>
<pdfrwt beam="1">  1        2 0.50311685E+00 0.69226437E+03</pdfrwt>
<pdfrwt beam="2">  1       -2 0.29084220E-01 0.69226437E+03</pdfrwt>
<totfact> 0.13695075E+01</totfact>
</mgrwt>
</event>
<event>
 4    5  0.7289609E-008  0.2115170E+04  0.7818608E-02  0.8565713E-01
          2   -1    0    0  501    0  0.00000000000E+00  0.00000000000E+00  0.14446593854E+04  0.14446593854E+04  0.25500000000E-02 0. -1.
         -2   -1    0    0    0  501 -0.00000000000E+00 -0.00000000000E+00 -0.36846183177E+04  0.36846183177E+04  0.25500000000E-02 0.  1.
    8880023    1    1    2    0    0 -0.21366281757E+03  0.19986203045E+04 -0.22840060120E+04  0.31129774477E+04  0.65864270000E+03 0.  0.
    8880022    1    1    2    0    0  0.21366281757E+03 -0.19986203045E+04  0.44047079697E+02  0.20163002553E+04  0.15294330000E+03 0.  0.
<mgrwt>
<rscale>  0 0.20898826E+04</rscale>
<asrwt>0</asrwt>
<pdfrwt beam="1">  1        2 0.22225529E+00 0.21151702E+04</pdfrwt>
<pdfrwt beam="2">  1       -2 0.56686435E+00 0.21151702E+04</pdfrwt>
<totfact> 0.82988399E-03</totfact>
</mgrwt>
</event>
<event>
 4    5  0.7289609E-008  0.2611940E+04  0.7818608E-02  0.8371005E-01
         -2   -1    0    0    0  501 -0.00000000000E+00  0.00000000000E+00  0.21914637354E+04  0.21914637354E+04  0.25500000000E-02 0.  1.
          2   -1    0    0  501    0  0.00000000000E+00 -0.00000000000E+00 -0.42247910613E+04  0.42247910613E+04  0.25500000000E-02 0. -1.
    8880023    1    1    2    0    0 -0.21837635848E+04  0.12726337125E+04  0.68601470520E+03  0.27005270490E+04  0.65864270000E+03 0.  0.
    8880022    1    1    2    0    0  0.21837635848E+04 -0.12726337125E+04 -0.27193420311E+04  0.37157277477E+04  0.15294330000E+03 0.  0.
<mgrwt>
<rscale>  0 0.25917612E+04</rscale>
<asrwt>0</asrwt>
<pdfrwt beam="1">  1        2 0.64996785E+00 0.26119399E+04</pdfrwt>
<pdfrwt beam="2">  1       -2 0.33714827E+00 0.26119399E+04</pdfrwt>
<totfact> 0.34195966E-03</totfact>
</mgrwt>
</event>
<event>
 4    5  0.7289609E-008  0.8010057E+03  0.7818608E-02  0.9708626E-01
          2   -1    0    0  501    0  0.00000000000E+00  0.00000000000E+00  0.11541778169E+04  0.11541778169E+04  0.25500000000E-02 0. -1.
         -2   -1    0    0    0  501 -0.00000000000E+00 -0.00000000000E+00 -0.22384850693E+04  0.22384850693E+04  0.25500000000E-02 0.  1.
    8880023    1    1    2    0    0 -0.41080908014E+03  0.19757466866E+03 -0.21115959681E+04  0.22584170538E+04  0.65864270000E+03 0.  1.
    8880022    1    1    2    0    0  0.41080908014E+03 -0.19757466866E+03  0.10272887157E+04  0.11342458325E+04  0.15294330000E+03 0.  0.
<mgrwt>
<rscale>  0 0.70505528E+03</rscale>
<asrwt>0</asrwt>
<pdfrwt beam="1">  1        2 0.17756582E+00 0.80100565E+03</pdfrwt>
<pdfrwt beam="2">  1       -2 0.34438232E+00 0.80100565E+03</pdfrwt>
<totfact> 0.35715091E-01</totfact>
</mgrwt>
</event>
<event>
 4    5  0.7289609E-008  0.1024431E+04  0.7818608E-02  0.9350270E-01
         -2   -1    0    0    0  501 -0.00000000000E+00  0.00000000000E+00  0.21261286635E+03  0.21261286636E+03  0.25500000000E-02 0.  1.
          2   -1    0    0  501    0  0.00000000000E+00 -0.00000000000E+00 -0.43988688738E+04  0.43988688738E+04  0.25500000000E-02 0. -1.
    8880023    1    1    2    0    0 -0.78246627364E+03  0.58269808659E+02 -0.30851972642E+04  0.32508308485E+04  0.65864270000E+03 0. -1.
    8880022    1    1    2    0    0  0.78246627364E+03 -0.58269808659E+02 -0.11010587432E+04  0.13606508917E+04  0.15294330000E+03 0.  0.
<mgrwt>
<rscale>  0 0.96283775E+03</rscale>
<asrwt>0</asrwt>
<pdfrwt beam="1">  1        2 0.67674899E+00 0.10244311E+04</pdfrwt>
<pdfrwt beam="2">  1       -2 0.32709675E-01 0.10244311E+04</pdfrwt>
<totfact> 0.14294839E+00</totfact>
</mgrwt>
</event>
<event>
 4    5  0.7289609E-008  0.9051171E+03  0.7818608E-02  0.9517866E-01
          2   -1    0    0  501    0  0.00000000000E+00  0.00000000000E+00  0.11359814734E+04  0.11359814734E+04  0.25500000000E-02 0. -1.
         -2   -1    0    0    0  501 -0.00000000000E+00 -0.00000000000E+00 -0.20588974299E+04  0.20588974299E+04  0.25500000000E-02 0.  1.
    8880023    1    1    2    0    0 -0.57596668575E+03 -0.23170926100E+03 -0.18553071729E+04  0.20643162831E+04  0.65864270000E+03 0.  0.
    8880022    1    1    2    0    0  0.57596668575E+03  0.23170926100E+03  0.93239121642E+03  0.11305626202E+04  0.15294330000E+03 0.  0.
<mgrwt>
<rscale>  0 0.82979325E+03</rscale>
<asrwt>0</asrwt>
<pdfrwt beam="1">  1        2 0.17476638E+00 0.90511713E+03</pdfrwt>
<pdfrwt beam="2">  1       -2 0.31675345E+00 0.90511713E+03</pdfrwt>
<totfact> 0.53067492E-01</totfact>
</mgrwt>
</event>
<event>
 4    5  0.7289609E-008  0.7005940E+03  0.7818608E-02  0.9994746E-01
          2   -1    0    0  501    0  0.00000000000E+00  0.00000000000E+00  0.21571388442E+04  0.21571388442E+04  0.25500000000E-02 0. -1.
         -2   -1    0    0    0  501 -0.00000000000E+00 -0.00000000000E+00 -0.13170491228E+03  0.13170491230E+03  0.25500000000E-02 0.  1.
    8880023    1    1    2    0    0 -0.12902325467E+03 -0.20093483527E+03  0.97370005085E+03  0.11995515010E+04  0.65864270000E+03 0.  0.
    8880022    1    1    2    0    0  0.12902325467E+03  0.20093483527E+03  0.10517338811E+04  0.10892922555E+04  0.15294330000E+03 0.  0.
<mgrwt>
<rscale>  0 0.55881226E+03</rscale>
<asrwt>0</asrwt>
<pdfrwt beam="1">  1        2 0.33186746E+00 0.70059404E+03</pdfrwt>
<pdfrwt beam="2">  1       -2 0.20262298E-01 0.70059404E+03</pdfrwt>
<totfact> 0.11777940E+02</totfact>
</mgrwt>
</event>
<event>
 4    5  0.7289609E-008  0.1044639E+04  0.7818608E-02  0.9325354E-01
          2   -1    0    0  501    0  0.00000000000E+00  0.00000000000E+00  0.44720108356E+04  0.44720108356E+04  0.25500000000E-02 0. -1.
         -2   -1    0    0    0  501 -0.00000000000E+00 -0.00000000000E+00 -0.43028818706E+03  0.43028818706E+03  0.25500000000E-02 0.  1.
    8880023    1    1    2    0    0  0.60129871130E+03  0.54396714988E+03  0.32344419929E+03  0.10935660733E+04  0.65864270000E+03 0.  0.
    8880022    1    1    2    0    0 -0.60129871130E+03 -0.54396714988E+03  0.37182784493E+04  0.38087329494E+04  0.15294330000E+03 0.  0.
<mgrwt>
<rscale>  0 0.98481865E+03</rscale>
<asrwt>0</asrwt>
<pdfrwt beam="1">  1        2 0.68800166E+00 0.10446390E+04</pdfrwt>
<pdfrwt beam="2">  1       -2 0.66198183E-01 0.10446390E+04</pdfrwt>
<totfact> 0.29271563E-01</totfact>
</mgrwt>
</event>
<event>
 4    5  0.7289609E-008  0.9717069E+03  0.7818608E-02  0.9419547E-01
         -2   -1    0    0    0  501 -0.00000000000E+00  0.00000000000E+00  0.80269024067E+03  0.80269024068E+03  0.25500000000E-02 0.  1.
          2   -1    0    0  501    0  0.00000000000E+00 -0.00000000000E+00 -0.41895679767E+04  0.41895679767E+04  0.25500000000E-02 0. -1.
    8880023    1    1    2    0    0  0.71194085906E+03  0.59533493325E+02  0.46108221619E+03  0.10755515050E+04  0.65864270000E+03 0.  0.
    8880022    1    1    2    0    0 -0.71194085906E+03 -0.59533493325E+02 -0.38479599522E+04  0.39167067123E+04  0.15294330000E+03 0.  0.
<mgrwt>
<rscale>  0 0.90484322E+03</rscale>
<asrwt>0</asrwt>
<pdfrwt beam="1">  1        2 0.64454891E+00 0.97170686E+03</pdfrwt>
<pdfrwt beam="2">  1       -2 0.12349081E+00 0.97170686E+03</pdfrwt>
<totfact> 0.12483391E-01</totfact>
</mgrwt>
</event>
<event>
 4    5  0.7289609E-008  0.7145638E+03  0.7818608E-02  0.9941429E-01
         -2   -1    0    0    0  501 -0.00000000000E+00  0.00000000000E+00  0.22834263734E+03  0.22834263735E+03  0.25500000000E-02 0.  1.
          2   -1    0    0  501    0  0.00000000000E+00 -0.00000000000E+00 -0.15404414238E+04  0.15404414238E+04  0.25500000000E-02 0. -1.
    8880023    1    1    2    0    0 -0.12805126952E+03  0.24575202266E+03 -0.43555682260E+03  0.83684594535E+03  0.65864270000E+03 0.  0.
    8880022    1    1    2    0    0  0.12805126952E+03 -0.24575202266E+03 -0.87654196383E+03  0.93193811577E+03  0.15294330000E+03 0.  0.
<mgrwt>
<rscale>  0 0.58294813E+03</rscale>
<asrwt>0</asrwt>
<pdfrwt beam="1">  1        2 0.23699098E+00 0.71456378E+03</pdfrwt>
<pdfrwt beam="2">  1       -2 0.35129637E-01 0.71456378E+03</pdfrwt>
<totfact> 0.93682945E+01</totfact>
</mgrwt>
</event>
<event>
 4    5  0.7289609E-008  0.1080592E+04  0.7818608E-02  0.9282979E-01
          2   -1    0    0  501    0  0.00000000000E+00  0.00000000000E+00  0.12412040742E+04  0.12412040742E+04  0.25500000000E-02 0. -1.
         -2   -1    0    0    0  501 -0.00000000000E+00 -0.00000000000E+00 -0.89044395717E+03  0.89044395717E+03  0.25500000000E-02 0.  1.
    8880023    1    1    2    0    0  0.45502617763E+03  0.72582350728E+03 -0.20395994213E+03  0.10996719740E+04  0.65864270000E+03 0.  1.
    8880022    1    1    2    0    0 -0.45502617763E+03 -0.72582350728E+03  0.55472005919E+03  0.10319760574E+04  0.15294330000E+03 0.  0.
<mgrwt>
<rscale>  0 0.10236510E+04</rscale>
<asrwt>0</asrwt>
<pdfrwt beam="1">  1        2 0.19095447E+00 0.10805919E+04</pdfrwt>
<pdfrwt beam="2">  1       -2 0.13699138E+00 0.10805919E+04</pdfrwt>
<totfact> 0.66942752E+00</totfact>
</mgrwt>
</event>
<event>
 4    5  0.7289609E-008  0.6629203E+03  0.7818608E-02  0.1021346E+00
         -2   -1    0    0    0  501 -0.00000000000E+00  0.00000000000E+00  0.87568551842E+03  0.87568551843E+03  0.25500000000E-02 0.  1.
          2   -1    0    0  501    0  0.00000000000E+00 -0.00000000000E+00 -0.53082595651E+03  0.53082595652E+03  0.25500000000E-02 0. -1.
    8880023    1    1    2    0    0  0.31951549643E+02  0.68060487834E+02  0.72955518366E+03  0.98575560044E+03  0.65864270000E+03 0.  1.
    8880022    1    1    2    0    0 -0.31951549643E+02 -0.68060487834E+02 -0.38469562175E+03  0.42075587451E+03  0.15294330000E+03 0.  0.
<mgrwt>
<rscale>  0 0.47204077E+03</rscale>
<asrwt>0</asrwt>
<pdfrwt beam="1">  1        2 0.81665533E-01 0.66292031E+03</pdfrwt>
<pdfrwt beam="2">  1       -2 0.13472085E+00 0.66292031E+03</pdfrwt>
<totfact> 0.23246105E+01</totfact>
</mgrwt>
</event>
<event>
 4    5  0.7289609E-008  0.1265696E+04  0.7818608E-02  0.9095764E-01
         -2   -1    0    0    0  501 -0.00000000000E+00  0.00000000000E+00  0.12103628879E+04  0.12103628880E+04  0.25500000000E-02 0.  1.
          2   -1    0    0  501    0  0.00000000000E+00 -0.00000000000E+00 -0.18183857279E+04  0.18183857279E+04  0.25500000000E-02 0. -1.
    8880023    1    1    2    0    0 -0.10549616775E+03  0.10756610279E+04  0.59990169064E+03  0.14006671029E+04  0.65864270000E+03 0.  0.
    8880022    1    1    2    0    0  0.10549616775E+03 -0.10756610279E+04 -0.12079245306E+04  0.16280815130E+04  0.15294330000E+03 0.  0.
<mgrwt>
<rscale>  0 0.12197249E+04</rscale>
<asrwt>0</asrwt>
<pdfrwt beam="1">  1        2 0.27975165E+00 0.12656960E+04</pdfrwt>
<pdfrwt beam="2">  1       -2 0.18620968E+00 0.12656960E+04</pdfrwt>
<totfact> 0.13350600E+00</totfact>
</mgrwt>
</event>
<event>
 4    5  0.7289609E-008  0.8579424E+03  0.7818608E-02  0.9597234E-01
         -2   -1    0    0    0  501 -0.00000000000E+00  0.00000000000E+00  0.24498189776E+04  0.24498189776E+04  0.25500000000E-02 0.  1.
          2   -1    0    0  501    0  0.00000000000E+00 -0.00000000000E+00 -0.46241972836E+03  0.46241972837E+03  0.25500000000E-02 0. -1.
    8880023    1    1    2    0    0  0.11007552333E+03 -0.53864488031E+03  0.21533290923E+04  0.23179498084E+04  0.65864270000E+03 0.  1.
    8880022    1    1    2    0    0 -0.11007552333E+03  0.53864488031E+03 -0.16592984313E+03  0.59428889757E+03  0.15294330000E+03 0.  0.
<mgrwt>
<rscale>  0 0.77479518E+03</rscale>
<asrwt>0</asrwt>
<pdfrwt beam="1">  1        2 0.71141495E-01 0.85794238E+03</pdfrwt>
<pdfrwt beam="2">  1       -2 0.37689523E+00 0.85794238E+03</pdfrwt>
<totfact> 0.73503020E-01</totfact>
</mgrwt>
</event>
<event>
 4    5  0.7289609E-008  0.7381554E+03  0.7818608E-02  0.9865353E-01
          2   -1    0    0  501    0  0.00000000000E+00  0.00000000000E+00  0.20806466252E+04  0.20806466252E+04  0.25500000000E-02 0. -1.
         -2   -1    0    0    0  501 -0.00000000000E+00 -0.00000000000E+00 -0.23988828515E+03  0.23988828516E+03  0.25500000000E-02 0.  1.
    8880023    1    1    2    0    0  0.41167226168E+02 -0.33070911133E+03  0.41174386166E+03  0.84522569217E+03  0.65864270000E+03 0.  1.
    8880022    1    1    2    0    0 -0.41167226168E+02  0.33070911133E+03  0.14290144784E+04  0.14753092182E+04  0.15294330000E+03 0.  0.
<mgrwt>
<rscale>  0 0.61970208E+03</rscale>
<asrwt>0</asrwt>
<pdfrwt beam="1">  1        2 0.32009947E+00 0.73815545E+03</pdfrwt>
<pdfrwt beam="2">  1       -2 0.36905891E-01 0.73815545E+03</pdfrwt>
<totfact> 0.43080935E+01</totfact>
</mgrwt>
</event>
<event>
 4    5  0.7289609E-008  0.1018937E+04  0.7818608E-02  0.9357192E-01
         -2   -1    0    0    0  501 -0.00000000000E+00  0.00000000000E+00  0.19159029230E+04  0.19159029230E+04  0.25500000000E-02 0.  1.
          2   -1    0    0  501    0  0.00000000000E+00 -0.00000000000E+00 -0.88440635609E+03  0.88440635609E+03  0.25500000000E-02 0. -1.
    8880023    1    1    2    0    0  0.42856910025E+03 -0.64865243893E+03  0.15488917109E+04  0.18539949295E+04  0.65864270000E+03 0.  1.
    8880022    1    1    2    0    0 -0.42856910025E+03  0.64865243893E+03 -0.51739514399E+03  0.94631434960E+03  0.15294330000E+03 0.  1.
<mgrwt>
<rscale>  0 0.95683962E+03</rscale>
<asrwt>0</asrwt>
<pdfrwt beam="1">  1        2 0.13606252E+00 0.10189365E+04</pdfrwt>
<pdfrwt beam="2">  1       -2 0.29475429E+00 0.10189365E+04</pdfrwt>
<totfact> 0.10290909E+00</totfact>
</mgrwt>
</event>
<event>
 4    5  0.7289609E-008  0.1004381E+04  0.7818608E-02  0.9375848E-01
         -2   -1    0    0    0  501 -0.00000000000E+00  0.00000000000E+00  0.48041798138E+03  0.48041798139E+03  0.25500000000E-02 0.  1.
          2   -1    0    0  501    0  0.00000000000E+00 -0.00000000000E+00 -0.40430022284E+04  0.40430022284E+04  0.25500000000E-02 0. -1.
    8880023    1    1    2    0    0 -0.48061314978E+03  0.58650004807E+03 -0.36112801315E+04  0.37483497303E+04  0.65864270000E+03 0. -1.
    8880022    1    1    2    0    0  0.48061314978E+03 -0.58650004807E+03  0.48695884410E+02  0.77507047957E+03  0.15294330000E+03 0.  0.
<mgrwt>
<rscale>  0 0.94090225E+03</rscale>
<asrwt>0</asrwt>
<pdfrwt beam="1">  1        2 0.62200032E+00 0.10043812E+04</pdfrwt>
<pdfrwt beam="2">  1       -2 0.73910461E-01 0.10043812E+04</pdfrwt>
<totfact> 0.54870412E-01</totfact>
</mgrwt>
</event>
<event>
 4    5  0.9026167E-008  0.9298610E+03  0.7818608E-02  0.9479702E-01
         -2   -1    0    0    0  501 -0.00000000000E+00  0.00000000000E+00  0.13947579873E+04  0.13947579873E+04  0.25500000000E-02 0.  1.
          2   -1    0    0  501    0  0.00000000000E+00 -0.00000000000E+00 -0.21940110910E+04  0.21940110910E+04  0.25500000000E-02 0. -1.
    8880023    1    1    2    0    0  0.65246570396E+03 -0.71552152277E+02  0.11774423053E+04  0.15003372267E+04  0.65864270000E+03 0.  1.
    8880022    1    1    2    0    0 -0.65246570396E+03  0.71552152277E+02 -0.19766954090E+04  0.20884318515E+04  0.15294330000E+03 0.  0.
<mgrwt>
<rscale>  0 0.85797006E+03</rscale>
<asrwt>0</asrwt>
<pdfrwt beam="1">  1        2 0.33754017E+00 0.92986096E+03</pdfrwt>
<pdfrwt beam="2">  1       -2 0.21457815E+00 0.92986096E+03</pdfrwt>
<totfact> 0.56502193E-01</totfact>
</mgrwt>
</event>
<event>
 4    5  0.7289609E-008  0.1470420E+04  0.7818608E-02  0.8930811E-01
          2   -1    0    0  501    0  0.00000000000E+00  0.00000000000E+00  0.12642902209E+04  0.12642902209E+04  0.25500000000E-02 0. -1.
         -2   -1    0    0    0  501 -0.00000000000E+00 -0.00000000000E+00 -0.21864285820E+04  0.21864285820E+04  0.25500000000E-02 0.  1.
    8880023    1    1    2    0    0  0.77562102645E+03  0.10614788049E+04  0.45645281999E+03  0.15396378188E+04  0.65864270000E+03 0.  0.
    8880022    1    1    2    0    0 -0.77562102645E+03 -0.10614788049E+04 -0.13785911811E+04  0.19110809840E+04  0.15294330000E+03 0.  0.
<mgrwt>
<rscale>  0 0.14322343E+04</rscale>
<asrwt>0</asrwt>
<pdfrwt beam="1">  1        2 0.19450619E+00 0.14704202E+04</pdfrwt>
<pdfrwt beam="2">  1       -2 0.33637363E+00 0.14704202E+04</pdfrwt>
<totfact> 0.31144648E-01</totfact>
</mgrwt>
</event>
<event>
 4    5  0.7289609E-008  0.6733218E+03  0.7818608E-02  0.1013386E+00
          2   -1    0    0  501    0  0.00000000000E+00  0.00000000000E+00  0.12463949947E+04  0.12463949947E+04  0.25500000000E-02 0. -1.
         -2   -1    0    0    0  501 -0.00000000000E+00 -0.00000000000E+00 -0.16937251174E+03  0.16937251176E+03  0.25500000000E-02 0.  1.
    8880023    1    1    2    0    0  0.90971358287E+02 -0.10618957366E+03  0.62579159493E+03  0.91922649012E+03  0.65864270000E+03 0.  1.
    8880022    1    1    2    0    0 -0.90971358287E+02  0.10618957366E+03  0.45123088803E+03  0.49654101634E+03  0.15294330000E+03 0. -1.
<mgrwt>
<rscale>  0 0.50150976E+03</rscale>
<asrwt>0</asrwt>
<pdfrwt beam="1">  1        2 0.19175307E+00 0.67332178E+03</pdfrwt>
<pdfrwt beam="2">  1       -2 0.26057311E-01 0.67332178E+03</pdfrwt>
<totfact> 0.24010948E+02</totfact>
</mgrwt>
</event>
<event>
 4    5  0.7289609E-008  0.1558650E+04  0.7818608E-02  0.8869294E-01
          2   -1    0    0  501    0  0.00000000000E+00  0.00000000000E+00  0.19133109679E+04  0.19133109679E+04  0.25500000000E-02 0. -1.
         -2   -1    0    0    0  501 -0.00000000000E+00 -0.00000000000E+00 -0.14424468642E+04  0.14424468642E+04  0.25500000000E-02 0.  1.
    8880023    1    1    2    0    0 -0.12014193401E+04 -0.74308310465E+03  0.98601838858E+03  0.18443490451E+04  0.65864270000E+03 0.  0.
    8880022    1    1    2    0    0  0.12014193401E+04  0.74308310465E+03 -0.51515428488E+03  0.15114087870E+04  0.15294330000E+03 0.  0.
<mgrwt>
<rscale>  0 0.15230103E+04</rscale>
<asrwt>0</asrwt>
<pdfrwt beam="1">  1        2 0.29435553E+00 0.15586504E+04</pdfrwt>
<pdfrwt beam="2">  1       -2 0.22191490E+00 0.15586504E+04</pdfrwt>
<totfact> 0.66946837E-01</totfact>
</mgrwt>
</event>
<event>
 4    5  0.7289609E-008  0.8880298E+03  0.7818608E-02  0.9545527E-01
         -2   -1    0    0    0  501 -0.00000000000E+00  0.00000000000E+00  0.68209008509E+03  0.68209008510E+03  0.25500000000E-02 0.  1.
          2   -1    0    0  501    0  0.00000000000E+00 -0.00000000000E+00 -0.23047513161E+04  0.23047513161E+04  0.25500000000E-02 0. -1.
    8880023    1    1    2    0    0  0.16743824653E+03  0.57162147327E+03  0.32404997231E+03  0.94530696915E+03  0.65864270000E+03 0.  0.
    8880022    1    1    2    0    0 -0.16743824653E+03 -0.57162147327E+03 -0.19467112033E+04  0.20415344321E+04  0.15294330000E+03 0. -1.
<mgrwt>
<rscale>  0 0.81008898E+03</rscale>
<asrwt>0</asrwt>
<pdfrwt beam="1">  1        2 0.35457712E+00 0.88802978E+03</pdfrwt>
<pdfrwt beam="2">  1       -2 0.10493694E+00 0.88802978E+03</pdfrwt>
<totfact> 0.33858476E+00</totfact>
</mgrwt>
</event>
<event>
 4    5  0.7289609E-008  0.8273300E+03  0.7818608E-02  0.9654550E-01
         -2   -1    0    0    0  501 -0.00000000000E+00  0.00000000000E+00  0.13201764265E+04  0.13201764265E+04  0.25500000000E-02 0.  1.
          2   -1    0    0  501    0  0.00000000000E+00 -0.00000000000E+00 -0.42729459987E+03  0.42729459988E+03  0.25500000000E-02 0. -1.
    8880023    1    1    2    0    0 -0.42149657817E+03  0.27019503229E+03  0.15338398398E+03  0.84142829385E+03  0.65864270000E+03 0. -1.
    8880022    1    1    2    0    0  0.42149657817E+03 -0.27019503229E+03  0.73949784264E+03  0.90604273253E+03  0.15294330000E+03 0.  0.
<mgrwt>
<rscale>  0 0.73788566E+03</rscale>
<asrwt>0</asrwt>
<pdfrwt beam="1">  1        2 0.65737631E-01 0.82733000E+03</pdfrwt>
<pdfrwt beam="2">  1       -2 0.20310406E+00 0.82733000E+03</pdfrwt>
<totfact> 0.94715848E+00</totfact>
</mgrwt>
</event>
<event>
 4    5  0.7289609E-008  0.1030933E+04  0.7818608E-02  0.9342162E-01
         -2   -1    0    0    0  501 -0.00000000000E+00  0.00000000000E+00  0.86417500736E+03  0.86417500736E+03  0.25500000000E-02 0.  1.
          2   -1    0    0  501    0  0.00000000000E+00 -0.00000000000E+00 -0.24140181334E+04  0.24140181334E+04  0.25500000000E-02 0. -1.
    8880023    1    1    2    0    0  0.40790752359E+03 -0.68016461861E+03  0.44738333597E+03  0.11238213878E+04  0.65864270000E+03 0.  0.
    8880022    1    1    2    0    0 -0.40790752359E+03  0.68016461861E+03 -0.19972264621E+04  0.21543717530E+04  0.15294330000E+03 0.  0.
<mgrwt>
<rscale>  0 0.96992329E+03</rscale>
<asrwt>0</asrwt>
<pdfrwt beam="1">  1        2 0.37138740E+00 0.10309329E+04</pdfrwt>
<pdfrwt beam="2">  1       -2 0.13295000E+00 0.10309329E+04</pdfrwt>
<totfact> 0.16013724E+00</totfact>
</mgrwt>
</event>
<event>
 4    5  0.7289609E-008  0.1390519E+04  0.7818608E-02  0.8991085E-01
          2   -1    0    0  501    0  0.00000000000E+00  0.00000000000E+00  0.20537490222E+04  0.20537490222E+04  0.25500000000E-02 0. -1.
         -2   -1    0    0    0  501 -0.00000000000E+00 -0.00000000000E+00 -0.14434372111E+04  0.14434372112E+04  0.25500000000E-02 0.  1.
    8880023    1    1    2    0    0 -0.96897827200E+03  0.74887448975E+03 -0.81504172776E+03  0.16117801082E+04  0.65864270000E+03 0.  1.
    8880022    1    1    2    0    0  0.96897827200E+03 -0.74887448975E+03  0.14253535388E+04  0.18854061251E+04  0.15294330000E+03 0.  0.
<mgrwt>
<rscale>  0 0.13496604E+04</rscale>
<asrwt>0</asrwt>
<pdfrwt beam="1">  1        2 0.31596139E+00 0.13905186E+04</pdfrwt>
<pdfrwt beam="2">  1       -2 0.22206726E+00 0.13905186E+04</pdfrwt>
<totfact> 0.56783623E-01</totfact>
</mgrwt>
</event>
<event>
 4    5  0.7289609E-008  0.1486516E+04  0.7818608E-02  0.8919216E-01
          2   -1    0    0  501    0  0.00000000000E+00  0.00000000000E+00  0.19675936858E+04  0.19675936858E+04  0.25500000000E-02 0. -1.
         -2   -1    0    0    0  501 -0.00000000000E+00 -0.00000000000E+00 -0.12830204756E+04  0.12830204756E+04  0.25500000000E-02 0.  1.
    8880023    1    1    2    0    0  0.13201110700E+04 -0.18228361357E+03 -0.38436594042E+03  0.15354048116E+04  0.65864270000E+03 0.  1.
    8880022    1    1    2    0    0 -0.13201110700E+04  0.18228361357E+03  0.10689391506E+04  0.17152093498E+04  0.15294330000E+03 0.  0.
<mgrwt>
<rscale>  0 0.14488238E+04</rscale>
<asrwt>0</asrwt>
<pdfrwt beam="1">  1        2 0.30270672E+00 0.14865163E+04</pdfrwt>
<pdfrwt beam="2">  1       -2 0.19738777E+00 0.14865163E+04</pdfrwt>
<totfact> 0.90680228E-01</totfact>
</mgrwt>
</event>
<event>
 4    5  0.7289609E-008  0.1100153E+04  0.7818608E-02  0.9260885E-01
         -2   -1    0    0    0  501 -0.00000000000E+00  0.00000000000E+00  0.25400597379E+04  0.25400597379E+04  0.25500000000E-02 0.  1.
          2   -1    0    0  501    0  0.00000000000E+00 -0.00000000000E+00 -0.55982860723E+03  0.55982860723E+03  0.25500000000E-02 0. -1.
    8880023    1    1    2    0    0 -0.22273813677E+03 -0.85259319775E+03  0.19081792134E+04  0.22026088066E+04  0.65864270000E+03 0.  0.
    8880022    1    1    2    0    0  0.22273813677E+03  0.85259319775E+03  0.72051917304E+02  0.89727953851E+03  0.15294330000E+03 0.  0.
<mgrwt>
<rscale>  0 0.10446498E+04</rscale>
<asrwt>0</asrwt>
<pdfrwt beam="1">  1        2 0.86127479E-01 0.11001535E+04</pdfrwt>
<pdfrwt beam="2">  1       -2 0.39077842E+00 0.11001535E+04</pdfrwt>
<totfact> 0.46173364E-01</totfact>
</mgrwt>
</event>
<event>
 4    5  0.7289609E-008  0.8512734E+03  0.7818608E-02  0.9609279E-01
         -2   -1    0    0    0  501 -0.00000000000E+00  0.00000000000E+00  0.98370607026E+03  0.98370607026E+03  0.25500000000E-02 0.  1.
          2   -1    0    0  501    0  0.00000000000E+00 -0.00000000000E+00 -0.15655192501E+04  0.15655192501E+04  0.25500000000E-02 0. -1.
    8880023    1    1    2    0    0  0.30583051905E+03 -0.44421157995E+03  0.73079114959E+03  0.11219278697E+04  0.65864270000E+03 0.  1.
    8880022    1    1    2    0    0 -0.30583051905E+03  0.44421157995E+03 -0.13126043295E+04  0.14272974507E+04  0.15294330000E+03 0.  0.
<mgrwt>
<rscale>  0 0.76685076E+03</rscale>
<asrwt>0</asrwt>
<pdfrwt beam="1">  1        2 0.24084912E+00 0.85127342E+03</pdfrwt>
<pdfrwt beam="2">  1       -2 0.15133940E+00 0.85127342E+03</pdfrwt>
<totfact> 0.34543087E+00</totfact>
</mgrwt>
</event>
<event>
 4    5  0.7289609E-008  0.6775587E+03  0.7818608E-02  0.1010740E+00
         -2   -1    0    0    0  501 -0.00000000000E+00  0.00000000000E+00  0.49218103585E+03  0.49218103586E+03  0.25500000000E-02 0.  1.
          2   -1    0    0  501    0  0.00000000000E+00 -0.00000000000E+00 -0.80249026680E+03  0.80249026681E+03  0.25500000000E-02 0. -1.
    8880023    1    1    2    0    0 -0.14128852678E+03  0.72891016766E+02  0.22640749628E+03  0.71438512635E+03  0.65864270000E+03 0.  0.
    8880022    1    1    2    0    0  0.14128852678E+03 -0.72891016766E+02 -0.53671672722E+03  0.58028617631E+03  0.15294330000E+03 0. -1.
<mgrwt>
<rscale>  0 0.51181702E+03</rscale>
<asrwt>0</asrwt>
<pdfrwt beam="1">  1        2 0.12346004E+00 0.67755867E+03</pdfrwt>
<pdfrwt beam="2">  1       -2 0.75720159E-01 0.67755867E+03</pdfrwt>
<totfact> 0.54675596E+01</totfact>
</mgrwt>
</event>
<event>
 4    5  0.7289609E-008  0.1334197E+04  0.7818608E-02  0.9036577E-01
          2   -1    0    0  501    0  0.00000000000E+00  0.00000000000E+00  0.19139956047E+04  0.19139956048E+04  0.25500000000E-02 0. -1.
         -2   -1    0    0    0  501 -0.00000000000E+00 -0.00000000000E+00 -0.10927367692E+04  0.10927367692E+04  0.25500000000E-02 0.  1.
    8880023    1    1    2    0    0  0.12929095433E+03 -0.11530635601E+04 -0.32003223075E+03  0.13720432061E+04  0.65864270000E+03 0.  1.
    8880022    1    1    2    0    0 -0.12929095433E+03  0.11530635601E+04  0.11412910663E+04  0.16346891678E+04  0.15294330000E+03 0.  0.
<mgrwt>
<rscale>  0 0.12911947E+04</rscale>
<asrwt>0</asrwt>
<pdfrwt beam="1">  1        2 0.29446086E+00 0.13341971E+04</pdfrwt>
<pdfrwt beam="2">  1       -2 0.16811335E+00 0.13341971E+04</pdfrwt>
<totfact> 0.15705241E+00</totfact>
</mgrwt>
</event>
<event>
 4    5  0.7289609E-008  0.1101566E+04  0.7818608E-02  0.9259315E-01
          2   -1    0    0  501    0  0.00000000000E+00  0.00000000000E+00  0.21026757609E+04  0.21026757609E+04  0.25500000000E-02 0. -1.
         -2   -1    0    0    0  501 -0.00000000000E+00 -0.00000000000E+00 -0.85104599003E+03  0.85104599004E+03  0.25500000000E-02 0.  1.
    8880023    1    1    2    0    0  0.63664987635E+03  0.61181156105E+03 -0.31778601857E+03  0.11464879464E+04  0.65864270000E+03 0.  0.
    8880022    1    1    2    0    0 -0.63664987635E+03 -0.61181156105E+03  0.15694157895E+04  0.18072338046E+04  0.15294330000E+03 0. -1.
<mgrwt>
<rscale>  0 0.10461624E+04</rscale>
<asrwt>0</asrwt>
<pdfrwt beam="1">  1        2 0.32348858E+00 0.11015655E+04</pdfrwt>
<pdfrwt beam="2">  1       -2 0.13093015E+00 0.11015655E+04</pdfrwt>
<totfact> 0.24649753E+00</totfact>
</mgrwt>
</event>
<event>
 4    5  0.7289609E-008  0.6626809E+03  0.7818608E-02  0.1021564E+00
          2   -1    0    0  501    0  0.00000000000E+00  0.00000000000E+00  0.97409347165E+03  0.97409347166E+03  0.25500000000E-02 0. -1.
         -2   -1    0    0    0  501 -0.00000000000E+00 -0.00000000000E+00 -0.21134430737E+04  0.21134430737E+04  0.25500000000E-02 0.  1.
    8880023    1    1    2    0    0  0.71397779946E+02  0.15433326224E+02 -0.20535143107E+04  0.21577921728E+04  0.65864270000E+03 0.  1.
    8880022    1    1    2    0    0 -0.71397779946E+02 -0.15433326224E+02  0.91416470870E+03  0.92974437250E+03  0.15294330000E+03 0.  0.
<mgrwt>
<rscale>  0 0.47126541E+03</rscale>
<asrwt>0</asrwt>
<pdfrwt beam="1">  1        2 0.14986053E+00 0.66268095E+03</pdfrwt>
<pdfrwt beam="2">  1       -2 0.32514509E+00 0.66268095E+03</pdfrwt>
<totfact> 0.62491632E-01</totfact>
</mgrwt>
</event>
<event>
 4    5  0.7289609E-008  0.1865860E+04  0.7818608E-02  0.8686954E-01
         -2   -1    0    0    0  501 -0.00000000000E+00  0.00000000000E+00  0.19782681108E+04  0.19782681108E+04  0.25500000000E-02 0.  1.
          2   -1    0    0  501    0  0.00000000000E+00 -0.00000000000E+00 -0.25847116469E+04  0.25847116469E+04  0.25500000000E-02 0. -1.
    8880023    1    1    2    0    0 -0.83805638662E+03  0.15314324572E+04  0.10589612057E+04  0.21454213851E+04  0.65864270000E+03 0.  0.
    8880022    1    1    2    0    0  0.83805638662E+03 -0.15314324572E+04 -0.16654047418E+04  0.24175583727E+04  0.15294330000E+03 0.  0.
<mgrwt>
<rscale>  0 0.18368326E+04</rscale>
<asrwt>0</asrwt>
<pdfrwt beam="1">  1        2 0.39764795E+00 0.18658601E+04</pdfrwt>
<pdfrwt beam="2">  1       -2 0.30434894E+00 0.18658601E+04</pdfrwt>
<totfact> 0.83407133E-02</totfact>
</mgrwt>
</event>
<event>
 4    5  0.7289609E-008  0.9951720E+03  0.7818608E-02  0.9387902E-01
         -2   -1    0    0    0  501 -0.00000000000E+00  0.00000000000E+00  0.54082799546E+03  0.54082799547E+03  0.25500000000E-02 0.  1.
          2   -1    0    0  501    0  0.00000000000E+00 -0.00000000000E+00 -0.22889531771E+04  0.22889531771E+04  0.25500000000E-02 0. -1.
    8880023    1    1    2    0    0 -0.63235453357E+03  0.39583444688E+03 -0.82823542834E+02  0.99861259304E+03  0.65864270000E+03 0.  1.
    8880022    1    1    2    0    0  0.63235453357E+03 -0.39583444688E+03 -0.16653016388E+04  0.18311685795E+04  0.15294330000E+03 0.  0.
<mgrwt>
<rscale>  0 0.93078062E+03</rscale>
<asrwt>0</asrwt>
<pdfrwt beam="1">  1        2 0.35214664E+00 0.99517203E+03</pdfrwt>
<pdfrwt beam="2">  1       -2 0.83204308E-01 0.99517203E+03</pdfrwt>
<totfact> 0.58574704E+00</totfact>
</mgrwt>
</event>
<event>
 4    5  0.7289609E-008  0.8389325E+03  0.7818608E-02  0.9632196E-01
          2   -1    0    0  501    0  0.00000000000E+00  0.00000000000E+00  0.82326511184E+03  0.82326511184E+03  0.25500000000E-02 0. -1.
         -2   -1    0    0    0  501 -0.00000000000E+00 -0.00000000000E+00 -0.61676652609E+03  0.61676652610E+03  0.25500000000E-02 0.  1.
    8880023    1    1    2    0    0 -0.47260400703E+03  0.21596986458E+03 -0.50601347175E+02  0.84045715683E+03  0.65864270000E+03 0.  0.
    8880022    1    1    2    0    0  0.47260400703E+03 -0.21596986458E+03  0.25709993292E+03  0.59957448110E+03  0.15294330000E+03 0.  0.
<mgrwt>
<rscale>  0 0.75201374E+03</rscale>
<asrwt>0</asrwt>
<pdfrwt beam="1">  1        2 0.12665617E+00 0.83893250E+03</pdfrwt>
<pdfrwt beam="2">  1       -2 0.94887158E-01 0.83893250E+03</pdfrwt>
<totfact> 0.31188611E+01</totfact>
</mgrwt>
</event>
<event>
 4    5  0.8021118E-008  0.9260688E+03  0.7818608E-02  0.9485416E-01
          2   -1    0    0  501    0  0.00000000000E+00  0.00000000000E+00  0.18199451432E+04  0.18199451432E+04  0.25500000000E-02 0. -1.
         -2   -1    0    0    0  501 -0.00000000000E+00 -0.00000000000E+00 -0.14779223146E+04  0.14779223146E+04  0.25500000000E-02 0.  1.
    8880023    1    1    2    0    0  0.62404313568E+03 -0.18537351594E+03 -0.12589369875E+04  0.15628581895E+04  0.65864270000E+03 0.  1.
    8880022    1    1    2    0    0 -0.62404313568E+03  0.18537351594E+03  0.16009598161E+04  0.17350092684E+04  0.15294330000E+03 0.  0.
<mgrwt>
<rscale>  0 0.85367648E+03</rscale>
<asrwt>0</asrwt>
<pdfrwt beam="1">  1        2 0.27999156E+00 0.92606878E+03</pdfrwt>
<pdfrwt beam="2">  1       -2 0.22737266E+00 0.92606878E+03</pdfrwt>
<totfact> 0.75486018E-01</totfact>
</mgrwt>
</event>
<event>
 4    5  0.7289609E-008  0.8515853E+03  0.7818608E-02  0.9608710E-01
         -2   -1    0    0    0  501 -0.00000000000E+00  0.00000000000E+00  0.24052611679E+03  0.24052611680E+03  0.25500000000E-02 0.  1.
          2   -1    0    0  501    0  0.00000000000E+00 -0.00000000000E+00 -0.30098899280E+04  0.30098899280E+04  0.25500000000E-02 0. -1.
    8880023    1    1    2    0    0  0.47273159853E+03  0.26059963036E+03 -0.68805792050E+03  0.10948156191E+04  0.65864270000E+03 0.  1.
    8880022    1    1    2    0    0 -0.47273159853E+03 -0.26059963036E+03 -0.20813058907E+04  0.21556004257E+04  0.15294330000E+03 0.  0.
<mgrwt>
<rscale>  0 0.76722339E+03</rscale>
<asrwt>0</asrwt>
<pdfrwt beam="1">  1        2 0.46305996E+00 0.85158531E+03</pdfrwt>
<pdfrwt beam="2">  1       -2 0.37004020E-01 0.85158531E+03</pdfrwt>
<totfact> 0.12340593E+01</totfact>
</mgrwt>
</event>
<event>
 4    5  0.7289609E-008  0.8417665E+03  0.7818608E-02  0.9626858E-01
         -2   -1    0    0    0  501 -0.00000000000E+00  0.00000000000E+00  0.22059898148E+03  0.22059898149E+03  0.25500000000E-02 0.  1.
          2   -1    0    0  501    0  0.00000000000E+00 -0.00000000000E+00 -0.30833959073E+04  0.30833959073E+04  0.25500000000E-02 0. -1.
    8880023    1    1    2    0    0 -0.52300572065E+03 -0.35009597184E+02 -0.76891636924E+03  0.11400891390E+04  0.65864270000E+03 0.  0.
    8880022    1    1    2    0    0  0.52300572065E+03  0.35009597184E+02 -0.20938805566E+04  0.21639057498E+04  0.15294330000E+03 0.  0.
<mgrwt>
<rscale>  0 0.75543744E+03</rscale>
<asrwt>0</asrwt>
<pdfrwt beam="1">  1        2 0.47436857E+00 0.84176651E+03</pdfrwt>
<pdfrwt beam="2">  1       -2 0.33938307E-01 0.84176651E+03</pdfrwt>
<totfact> 0.13130952E+01</totfact>
</mgrwt>
</event>
<event>
 4    5  0.7289609E-008  0.7037867E+03  0.7818608E-02  0.9981841E-01
          2   -1    0    0  501    0  0.00000000000E+00  0.00000000000E+00  0.22936100711E+04  0.22936100711E+04  0.25500000000E-02 0. -1.
         -2   -1    0    0    0  501 -0.00000000000E+00 -0.00000000000E+00 -0.12667923351E+03  0.12667923354E+03  0.25500000000E-02 0.  1.
    8880023    1    1    2    0    0 -0.24758608922E+03 -0.14374247386E+02  0.10361063233E+04  0.12525302432E+04  0.65864270000E+03 0.  1.
    8880022    1    1    2    0    0  0.24758608922E+03  0.14374247386E+02  0.11308245143E+04  0.11677590615E+04  0.15294330000E+03 0. -1.
<mgrwt>
<rscale>  0 0.56453701E+03</rscale>
<asrwt>0</asrwt>
<pdfrwt beam="1">  1        2 0.35286310E+00 0.70378668E+03</pdfrwt>
<pdfrwt beam="2">  1       -2 0.19489112E-01 0.70378668E+03</pdfrwt>
<totfact> 0.10597645E+02</totfact>
</mgrwt>
</event>
<event>
 4    5  0.7289609E-008  0.1034498E+04  0.7818608E-02  0.9337753E-01
          2   -1    0    0  501    0  0.00000000000E+00  0.00000000000E+00  0.37713097380E+04  0.37713097380E+04  0.25500000000E-02 0. -1.
         -2   -1    0    0    0  501 -0.00000000000E+00 -0.00000000000E+00 -0.37892097136E+03  0.37892097137E+03  0.25500000000E-02 0.  1.
    8880023    1    1    2    0    0 -0.28186305595E+03  0.74627711026E+03  0.50578522823E+03  0.11515229963E+04  0.65864270000E+03 0.  0.
    8880022    1    1    2    0    0  0.28186305595E+03 -0.74627711026E+03  0.28866035384E+04  0.29987077131E+04  0.15294330000E+03 0.  0.
<mgrwt>
<rscale>  0 0.97380322E+03</rscale>
<asrwt>0</asrwt>
<pdfrwt beam="1">  1        2 0.58020152E+00 0.10344982E+04</pdfrwt>
<pdfrwt beam="2">  1       -2 0.58295532E-01 0.10344982E+04</pdfrwt>
<totfact> 0.14775767E+00</totfact>
</mgrwt>
</event>
<event>
 4    5  0.7289609E-008  0.1840601E+04  0.7818608E-02  0.8700404E-01
         -2   -1    0    0    0  501 -0.00000000000E+00  0.00000000000E+00  0.20859365963E+04  0.20859365963E+04  0.25500000000E-02 0.  1.
          2   -1    0    0  501    0  0.00000000000E+00 -0.00000000000E+00 -0.15683904881E+04  0.15683904881E+04  0.25500000000E-02 0. -1.
    8880023    1    1    2    0    0  0.16876996799E+04  0.32506894145E+03  0.57359208801E+03  0.19279051107E+04  0.65864270000E+03 0.  0.
    8880022    1    1    2    0    0 -0.16876996799E+04 -0.32506894145E+03 -0.56045979745E+02  0.17264219737E+04  0.15294330000E+03 0.  0.
<mgrwt>
<rscale>  0 0.18111280E+04</rscale>
<asrwt>0</asrwt>
<pdfrwt beam="1">  1        2 0.24129084E+00 0.18406005E+04</pdfrwt>
<pdfrwt beam="2">  1       -2 0.32091332E+00 0.18406005E+04</pdfrwt>
<totfact> 0.24952298E-01</totfact>
</mgrwt>
</event>
<event>
 4    5  0.7289609E-008  0.9931543E+03  0.7818608E-02  0.9390569E-01
          2   -1    0    0  501    0  0.00000000000E+00  0.00000000000E+00  0.21087992358E+04  0.21087992358E+04  0.25500000000E-02 0. -1.
         -2   -1    0    0    0  501 -0.00000000000E+00 -0.00000000000E+00 -0.57832086429E+03  0.57832086429E+03  0.25500000000E-02 0.  1.
    8880023    1    1    2    0    0 -0.72097169972E+03 -0.18095608694E+03  0.16167530090E+02  0.99328590672E+03  0.65864270000E+03 0.  0.
    8880022    1    1    2    0    0  0.72097169972E+03  0.18095608694E+03  0.15143108414E+04  0.16938341934E+04  0.15294330000E+03 0.  0.
<mgrwt>
<rscale>  0 0.92855882E+03</rscale>
<asrwt>0</asrwt>
<pdfrwt beam="1">  1        2 0.32443065E+00 0.99315432E+03</pdfrwt>
<pdfrwt beam="2">  1       -2 0.88972441E-01 0.99315432E+03</pdfrwt>
<totfact> 0.63281570E+00</totfact>
</mgrwt>
</event>
<event>
 4    5  0.7289609E-008  0.1308626E+04  0.7818608E-02  0.9058146E-01
         -2   -1    0    0    0  501 -0.00000000000E+00  0.00000000000E+00  0.81031091735E+03  0.81031091735E+03  0.25500000000E-02 0.  1.
          2   -1    0    0  501    0  0.00000000000E+00 -0.00000000000E+00 -0.29192008792E+04  0.29192008792E+04  0.25500000000E-02 0. -1.
    8880023    1    1    2    0    0  0.10383278443E+04 -0.44784717312E+03  0.25908161115E+02  0.13088824400E+04  0.65864270000E+03 0.  0.
    8880022    1    1    2    0    0 -0.10383278443E+04  0.44784717312E+03 -0.21347981229E+04  0.24206293565E+04  0.15294330000E+03 0.  0.
<mgrwt>
<rscale>  0 0.12645660E+04</rscale>
<asrwt>0</asrwt>
<pdfrwt beam="1">  1        2 0.44910782E+00 0.13086260E+04</pdfrwt>
<pdfrwt beam="2">  1       -2 0.12466322E+00 0.13086260E+04</pdfrwt>
<totfact> 0.91759585E-01</totfact>
</mgrwt>
</event>
<event>
 4    5  0.2014525E-007  0.1324702E+04  0.7818608E-02  0.9044516E-01
         -2   -1    0    0    0  501 -0.00000000000E+00  0.00000000000E+00  0.20339951115E+04  0.20339951115E+04  0.25500000000E-02 0.  1.
          2   -1    0    0  501    0  0.00000000000E+00 -0.00000000000E+00 -0.28409637799E+04  0.28409637799E+04  0.25500000000E-02 0. -1.
    8880023    1    1    2    0    0 -0.95328149341E+03  0.64209001879E+03  0.16749914934E+04  0.21355167775E+04  0.65864270000E+03 0.  0.
    8880022    1    1    2    0    0  0.95328149341E+03 -0.64209001879E+03 -0.24819601618E+04  0.27394421139E+04  0.15294330000E+03 0.  0.
<mgrwt>
<rscale>  0 0.12813135E+04</rscale>
<asrwt>0</asrwt>
<pdfrwt beam="1">  1        2 0.43707135E+00 0.13247020E+04</pdfrwt>
<pdfrwt beam="2">  1       -2 0.31292232E+00 0.13247020E+04</pdfrwt>
<totfact> 0.55849489E-02</totfact>
</mgrwt>
</event>
<event>
 4    5  0.7289609E-008  0.7437444E+03  0.7818608E-02  0.9849171E-01
         -2   -1    0    0    0  501 -0.00000000000E+00  0.00000000000E+00  0.34951918604E+03  0.34951918605E+03  0.25500000000E-02 0.  1.
          2   -1    0    0  501    0  0.00000000000E+00 -0.00000000000E+00 -0.12814381670E+04  0.12814381670E+04  0.25500000000E-02 0. -1.
    8880023    1    1    2    0    0 -0.33573582740E+03  0.81406217613E+02 -0.14458289300E+03  0.75766743184E+03  0.65864270000E+03 0.  1.
    8880022    1    1    2    0    0  0.33573582740E+03 -0.81406217613E+02 -0.78733608795E+03  0.87328992120E+03  0.15294330000E+03 0.  0.
<mgrwt>
<rscale>  0 0.62789195E+03</rscale>
<asrwt>0</asrwt>
<pdfrwt beam="1">  1        2 0.19714433E+00 0.74374439E+03</pdfrwt>
<pdfrwt beam="2">  1       -2 0.53772183E-01 0.74374439E+03</pdfrwt>
<totfact> 0.56274441E+01</totfact>
</mgrwt>
</event>
<event>
 4    5  0.7289609E-008  0.7242402E+03  0.7818608E-02  0.9908491E-01
         -2   -1    0    0    0  501 -0.00000000000E+00  0.00000000000E+00  0.30778579649E+03  0.30778579650E+03  0.25500000000E-02 0.  1.
          2   -1    0    0  501    0  0.00000000000E+00 -0.00000000000E+00 -0.39282833210E+04  0.39282833210E+04  0.25500000000E-02 0. -1.
    8880023    1    1    2    0    0  0.11511437971E+03 -0.27832064221E+03 -0.13805360793E+03  0.73728061498E+03  0.65864270000E+03 0.  1.
    8880022    1    1    2    0    0 -0.11511437971E+03  0.27832064221E+03 -0.34824439166E+04  0.34987885026E+04  0.15294330000E+03 0.  0.
<mgrwt>
<rscale>  0 0.59851527E+03</rscale>
<asrwt>0</asrwt>
<pdfrwt beam="1">  1        2 0.60435124E+00 0.72424023E+03</pdfrwt>
<pdfrwt beam="2">  1       -2 0.47351664E-01 0.72424023E+03</pdfrwt>
<totfact> 0.18381049E+00</totfact>
</mgrwt>
</event>
<event>
 4    5  0.8202407E-008  0.7786674E+03  0.7818608E-02  0.9758977E-01
          2   -1    0    0  501    0  0.00000000000E+00  0.00000000000E+00  0.23417017222E+04  0.23417017222E+04  0.25500000000E-02 0. -1.
         -2   -1    0    0    0  501 -0.00000000000E+00 -0.00000000000E+00 -0.15074759896E+04  0.15074759896E+04  0.25500000000E-02 0.  1.
    8880023    1    1    2    0    0 -0.29327470626E+03 -0.29411323957E+03 -0.13835756884E+04  0.15876411883E+04  0.65864270000E+03 0.  0.
    8880022    1    1    2    0    0  0.29327470626E+03  0.29411323957E+03  0.22178014211E+04  0.22615365235E+04  0.15294330000E+03 0.  0.
<mgrwt>
<rscale>  0 0.67611329E+03</rscale>
<asrwt>0</asrwt>
<pdfrwt beam="1">  1        2 0.36026180E+00 0.77866736E+03</pdfrwt>
<pdfrwt beam="2">  1       -2 0.23191939E+00 0.77866736E+03</pdfrwt>
<totfact> 0.37569846E-01</totfact>
</mgrwt>
</event>
<event>
 4    5  0.7289609E-008  0.6965990E+03  0.7818608E-02  0.1001161E+00
          2   -1    0    0  501    0  0.00000000000E+00  0.00000000000E+00  0.30957080482E+04  0.30957080482E+04  0.25500000000E-02 0. -1.
         -2   -1    0    0    0  501 -0.00000000000E+00 -0.00000000000E+00 -0.88884112285E+02  0.88884112321E+02  0.25500000000E-02 0.  1.
    8880023    1    1    2    0    0  0.18028861510E+03 -0.13760826925E+03  0.15094387540E+04  0.16624246085E+04  0.65864270000E+03 0.  0.
    8880022    1    1    2    0    0 -0.18028861510E+03  0.13760826925E+03  0.14973851819E+04  0.15221675521E+04  0.15294330000E+03 0.  0.
<mgrwt>
<rscale>  0 0.55143946E+03</rscale>
<asrwt>0</asrwt>
<pdfrwt beam="1">  1        2 0.47626275E+00 0.69659904E+03</pdfrwt>
<pdfrwt beam="2">  1       -2 0.13674480E-01 0.69659904E+03</pdfrwt>
<totfact> 0.66160413E+01</totfact>
</mgrwt>
</event>
<event>
 4    5  0.7289609E-008  0.1243431E+04  0.7818608E-02  0.9116018E-01
         -2   -1    0    0    0  501 -0.00000000000E+00  0.00000000000E+00  0.51320841839E+03  0.51320841839E+03  0.25500000000E-02 0.  1.
          2   -1    0    0  501    0  0.00000000000E+00 -0.00000000000E+00 -0.32136918154E+04  0.32136918154E+04  0.25500000000E-02 0. -1.
    8880023    1    1    2    0    0 -0.12107194285E+03 -0.10476890600E+04 -0.62017129739E+03  0.13895083397E+04  0.65864270000E+03 0.  1.
    8880022    1    1    2    0    0  0.12107194285E+03  0.10476890600E+04 -0.20803120996E+04  0.23373918941E+04  0.15294330000E+03 0.  0.
<mgrwt>
<rscale>  0 0.11963944E+04</rscale>
<asrwt>0</asrwt>
<pdfrwt beam="1">  1        2 0.49441411E+00 0.12434311E+04</pdfrwt>
<pdfrwt beam="2">  1       -2 0.78955144E-01 0.12434311E+04</pdfrwt>
<totfact> 0.17940038E+00</totfact>
</mgrwt>
</event>
<event>
 4    5  0.7289609E-008  0.8340170E+03  0.7818608E-02  0.9641567E-01
          2   -1    0    0  501    0  0.00000000000E+00  0.00000000000E+00  0.67208402406E+03  0.67208402406E+03  0.25500000000E-02 0. -1.
         -2   -1    0    0    0  501 -0.00000000000E+00 -0.00000000000E+00 -0.90827923850E+03  0.90827923850E+03  0.25500000000E-02 0.  1.
    8880023    1    1    2    0    0 -0.37178586529E+03 -0.35149591913E+03  0.23681643810E+03  0.86698693324E+03  0.65864270000E+03 0. -1.
    8880022    1    1    2    0    0  0.37178586529E+03  0.35149591913E+03 -0.47301165254E+03  0.71337632933E+03  0.15294330000E+03 0.  0.
<mgrwt>
<rscale>  0 0.74605070E+03</rscale>
<asrwt>0</asrwt>
<pdfrwt beam="1">  1        2 0.10339754E+00 0.83401698E+03</pdfrwt>
<pdfrwt beam="2">  1       -2 0.13973527E+00 0.83401698E+03</pdfrwt>
<totfact> 0.15667354E+01</totfact>
</mgrwt>
</event>
<event>
 4    5  0.7289609E-008  0.1071112E+04  0.7818608E-02  0.9293922E-01
          2   -1    0    0  501    0  0.00000000000E+00  0.00000000000E+00  0.16450824626E+04  0.16450824626E+04  0.25500000000E-02 0. -1.
         -2   -1    0    0    0  501 -0.00000000000E+00 -0.00000000000E+00 -0.85813038039E+03  0.85813038039E+03  0.25500000000E-02 0.  1.
    8880023    1    1    2    0    0 -0.65489787288E+03  0.53346052630E+03 -0.30552610271E+03  0.11138347107E+04  0.65864270000E+03 0.  1.
    8880022    1    1    2    0    0  0.65489787288E+03 -0.53346052630E+03  0.10924781849E+04  0.13893781323E+04  0.15294330000E+03 0.  0.
<mgrwt>
<rscale>  0 0.10134436E+04</rscale>
<asrwt>0</asrwt>
<pdfrwt beam="1">  1        2 0.25308961E+00 0.10711123E+04</pdfrwt>
<pdfrwt beam="2">  1       -2 0.13202006E+00 0.10711123E+04</pdfrwt>
<totfact> 0.43356251E+00</totfact>
</mgrwt>
</event>
<event>
 4    5  0.7289609E-008  0.8030743E+03  0.7818608E-02  0.9704188E-01
         -2   -1    0    0    0  501 -0.00000000000E+00  0.00000000000E+00  0.23551481499E+03  0.23551481501E+03  0.25500000000E-02 0.  1.
          2   -1    0    0  501    0  0.00000000000E+00 -0.00000000000E+00 -0.23176405611E+04  0.23176405611E+04  0.25500000000E-02 0. -1.
    8880023    1    1    2    0    0 -0.40505747135E+03 -0.21690220333E+03 -0.62486447541E+03  0.10175381761E+04  0.65864270000E+03 0.  0.
    8880022    1    1    2    0    0  0.40505747135E+03  0.21690220333E+03 -0.14572612707E+04  0.15356172000E+04  0.15294330000E+03 0.  0.
<mgrwt>
<rscale>  0 0.70767999E+03</rscale>
<asrwt>0</asrwt>
<pdfrwt beam="1">  1        2 0.35656007E+00 0.80307430E+03</pdfrwt>
<pdfrwt beam="2">  1       -2 0.36233050E-01 0.80307430E+03</pdfrwt>
<totfact> 0.32752310E+01</totfact>
</mgrwt>
</event>
<event>
 4    5  0.7289609E-008  0.7918397E+03  0.7818608E-02  0.9728726E-01
          2   -1    0    0  501    0  0.00000000000E+00  0.00000000000E+00  0.62766025521E+03  0.62766025521E+03  0.25500000000E-02 0. -1.
         -2   -1    0    0    0  501 -0.00000000000E+00 -0.00000000000E+00 -0.96139333178E+03  0.96139333178E+03  0.25500000000E-02 0.  1.
    8880023    1    1    2    0    0 -0.35438781939E+03 -0.26001753852E+03  0.26111538385E+03  0.83378132434E+03  0.65864270000E+03 0. -1.
    8880022    1    1    2    0    0  0.35438781939E+03  0.26001753852E+03 -0.59484846042E+03  0.75527226266E+03  0.15294330000E+03 0.  0.
<mgrwt>
<rscale>  0 0.69331902E+03</rscale>
<asrwt>0</asrwt>
<pdfrwt beam="1">  1        2 0.96563116E-01 0.79183966E+03</pdfrwt>
<pdfrwt beam="2">  1       -2 0.14790667E+00 0.79183966E+03</pdfrwt>
<totfact> 0.14751352E+01</totfact>
</mgrwt>
</event>
<event>
 4    5  0.7289609E-008  0.9812339E+03  0.7818608E-02  0.9406532E-01
         -2   -1    0    0    0  501 -0.00000000000E+00  0.00000000000E+00  0.11910320898E+04  0.11910320898E+04  0.25500000000E-02 0.  1.
          2   -1    0    0  501    0  0.00000000000E+00 -0.00000000000E+00 -0.10633114387E+04  0.10633114387E+04  0.25500000000E-02 0. -1.
    8880023    1    1    2    0    0 -0.72732875371E+03 -0.16384096362E+01  0.78931568296E+03  0.12593010974E+04  0.65864270000E+03 0.  0.
    8880022    1    1    2    0    0  0.72732875371E+03  0.16384096362E+01 -0.66159503187E+03  0.99504243104E+03  0.15294330000E+03 0.  0.
<mgrwt>
<rscale>  0 0.91540076E+03</rscale>
<asrwt>0</asrwt>
<pdfrwt beam="1">  1        2 0.16358638E+00 0.98123392E+03</pdfrwt>
<pdfrwt beam="2">  1       -2 0.18323571E+00 0.98123392E+03</pdfrwt>
<totfact> 0.39295337E+00</totfact>
</mgrwt>
</event>
<event>
 4    5  0.7289609E-008  0.8640223E+03  0.7818608E-02  0.9586448E-01
         -2   -1    0    0    0  501 -0.00000000000E+00  0.00000000000E+00  0.99026168295E+03  0.99026168296E+03  0.25500000000E-02 0.  1.
          2   -1    0    0  501    0  0.00000000000E+00 -0.00000000000E+00 -0.10435539345E+04  0.10435539345E+04  0.25500000000E-02 0. -1.
    8880023    1    1    2    0    0 -0.49986567939E+03 -0.25071630327E+03 -0.73823383041E+03  0.11364522677E+04  0.65864270000E+03 0. -1.
    8880022    1    1    2    0    0  0.49986567939E+03  0.25071630327E+03  0.68494157882E+03  0.89736334980E+03  0.15294330000E+03 0.  0.
<mgrwt>
<rscale>  0 0.78199661E+03</rscale>
<asrwt>0</asrwt>
<pdfrwt beam="1">  1        2 0.16054676E+00 0.86402232E+03</pdfrwt>
<pdfrwt beam="2">  1       -2 0.15234795E+00 0.86402232E+03</pdfrwt>
<totfact> 0.68288139E+00</totfact>
</mgrwt>
</event>
<event>
 4    5  0.7289609E-008  0.7191282E+03  0.7818608E-02  0.9925547E-01
         -2   -1    0    0    0  501 -0.00000000000E+00  0.00000000000E+00  0.25320611654E+03  0.25320611655E+03  0.25500000000E-02 0.  1.
          2   -1    0    0  501    0  0.00000000000E+00 -0.00000000000E+00 -0.20237706978E+04  0.20237706978E+04  0.25500000000E-02 0. -1.
    8880023    1    1    2    0    0  0.20718708220E+03 -0.20101894974E+03 -0.31481121854E+03  0.78501682451E+03  0.65864270000E+03 0.  1.
    8880022    1    1    2    0    0 -0.20718708220E+03  0.20101894974E+03 -0.14557533627E+04  0.14919599898E+04  0.15294330000E+03 0.  0.
<mgrwt>
<rscale>  0 0.59038986E+03</rscale>
<asrwt>0</asrwt>
<pdfrwt beam="1">  1        2 0.31134933E+00 0.71912816E+03</pdfrwt>
<pdfrwt beam="2">  1       -2 0.38954788E-01 0.71912816E+03</pdfrwt>
<totfact> 0.41793788E+01</totfact>
</mgrwt>
</event>
<event>
 4    5  0.7289609E-008  0.7089119E+03  0.7818608E-02  0.9962064E-01
         -2   -1    0    0    0  501 -0.00000000000E+00  0.00000000000E+00  0.39254666042E+03  0.39254666043E+03  0.25500000000E-02 0.  1.
          2   -1    0    0  501    0  0.00000000000E+00 -0.00000000000E+00 -0.24386849026E+04  0.24386849026E+04  0.25500000000E-02 0. -1.
    8880023    1    1    2    0    0 -0.26053197017E+03 -0.29478924546E+02  0.52407778059E+02  0.71084646439E+03  0.65864270000E+03 0.  1.
    8880022    1    1    2    0    0  0.26053197017E+03  0.29478924546E+02 -0.20985460202E+04  0.21203850986E+04  0.15294330000E+03 0.  0.
<mgrwt>
<rscale>  0 0.57345429E+03</rscale>
<asrwt>0</asrwt>
<pdfrwt beam="1">  1        2 0.37518228E+00 0.70891193E+03</pdfrwt>
<pdfrwt beam="2">  1       -2 0.60391795E-01 0.70891193E+03</pdfrwt>
<totfact> 0.10170356E+01</totfact>
</mgrwt>
</event>
<event>
 4    5  0.7289609E-008  0.1691943E+04  0.7818608E-02  0.8784789E-01
         -2   -1    0    0    0  501 -0.00000000000E+00  0.00000000000E+00  0.23628999372E+04  0.23628999372E+04  0.25500000000E-02 0.  1.
          2   -1    0    0  501    0  0.00000000000E+00 -0.00000000000E+00 -0.13356369489E+04  0.13356369489E+04  0.25500000000E-02 0. -1.
    8880023    1    1    2    0    0 -0.13142418287E+04 -0.83763229736E+03 -0.20709982113E+03  0.17045703247E+04  0.65864270000E+03 0.  0.
    8880022    1    1    2    0    0  0.13142418287E+04  0.83763229736E+03  0.12343628094E+04  0.19939665614E+04  0.15294330000E+03 0.  0.
<mgrwt>
<rscale>  0 0.16595289E+04</rscale>
<asrwt>0</asrwt>
<pdfrwt beam="1">  1        2 0.20548261E+00 0.16919426E+04</pdfrwt>
<pdfrwt beam="2">  1       -2 0.36352307E+00 0.16919426E+04</pdfrwt>
<totfact> 0.18619286E-01</totfact>
</mgrwt>
</event>
<event>
 4    5  0.7289609E-008  0.1499843E+04  0.7818608E-02  0.8909746E-01
         -2   -1    0    0    0  501 -0.00000000000E+00  0.00000000000E+00  0.99088306749E+03  0.99088306750E+03  0.25500000000E-02 0.  1.
          2   -1    0    0  501    0  0.00000000000E+00 -0.00000000000E+00 -0.22428598279E+04  0.22428598279E+04  0.25500000000E-02 0. -1.
    8880023    1    1    2    0    0 -0.12124017932E+04  0.58804934837E+03 -0.19113863653E+03  0.15119736535E+04  0.65864270000E+03 0.  0.
    8880022    1    1    2    0    0  0.12124017932E+04 -0.58804934837E+03 -0.10608381238E+04  0.17217692419E+04  0.15294330000E+03 0.  0.
<mgrwt>
<rscale>  0 0.14625491E+04</rscale>
<asrwt>0</asrwt>
<pdfrwt beam="1">  1        2 0.34505536E+00 0.14998434E+04</pdfrwt>
<pdfrwt beam="2">  1       -2 0.15244355E+00 0.14998434E+04</pdfrwt>
<totfact> 0.13233978E+00</totfact>
</mgrwt>
</event>
<event>
 4    5  0.7289609E-008  0.8776570E+03  0.7818608E-02  0.9562895E-01
         -2   -1    0    0    0  501 -0.00000000000E+00  0.00000000000E+00  0.14683755598E+04  0.14683755598E+04  0.25500000000E-02 0.  1.
          2   -1    0    0  501    0  0.00000000000E+00 -0.00000000000E+00 -0.49376386335E+03  0.49376386335E+03  0.25500000000E-02 0. -1.
    8880023    1    1    2    0    0 -0.57865855159E+03  0.40322466078E+02  0.10375425844E+04  0.13589615305E+04  0.65864270000E+03 0.  0.
    8880022    1    1    2    0    0  0.57865855159E+03 -0.40322466078E+02 -0.62930887911E+02  0.60317789272E+03  0.15294330000E+03 0.  0.
<mgrwt>
<rscale>  0 0.79801455E+03</rscale>
<asrwt>0</asrwt>
<pdfrwt beam="1">  1        2 0.75963672E-01 0.87765701E+03</pdfrwt>
<pdfrwt beam="2">  1       -2 0.22590393E+00 0.87765701E+03</pdfrwt>
<totfact> 0.57210447E+00</totfact>
</mgrwt>
</event>
<event>
 4    5  0.7289609E-008  0.1267407E+04  0.7818608E-02  0.9094230E-01
          2   -1    0    0  501    0  0.00000000000E+00  0.00000000000E+00  0.13887497004E+04  0.13887497004E+04  0.25500000000E-02 0. -1.
         -2   -1    0    0    0  501 -0.00000000000E+00 -0.00000000000E+00 -0.18640331429E+04  0.18640331429E+04  0.25500000000E-02 0.  1.
    8880023    1    1    2    0    0  0.26736491043E+03  0.10492980166E+04 -0.13505223565E+04  0.18520883253E+04  0.65864270000E+03 0.  0.
    8880022    1    1    2    0    0 -0.26736491043E+03 -0.10492980166E+04  0.87523891398E+03  0.14006945180E+04  0.15294330000E+03 0.  0.
<mgrwt>
<rscale>  0 0.12215156E+04</rscale>
<asrwt>0</asrwt>
<pdfrwt beam="1">  1        2 0.21365380E+00 0.12674070E+04</pdfrwt>
<pdfrwt beam="2">  1       -2 0.28677433E+00 0.12674070E+04</pdfrwt>
<totfact> 0.54345033E-01</totfact>
</mgrwt>
</event>
<event>
 4    5  0.7289609E-008  0.1443930E+04  0.7818608E-02  0.8950279E-01
          2   -1    0    0  501    0  0.00000000000E+00  0.00000000000E+00  0.36281928163E+04  0.36281928163E+04  0.25500000000E-02 0. -1.
         -2   -1    0    0    0  501 -0.00000000000E+00 -0.00000000000E+00 -0.53616437724E+03  0.53616437724E+03  0.25500000000E-02 0.  1.
    8880023    1    1    2    0    0 -0.86006715666E+03 -0.95467700740E+03  0.12297831639E+04  0.18966550923E+04  0.65864270000E+03 0.  0.
    8880022    1    1    2    0    0  0.86006715666E+03  0.95467700740E+03  0.18622452751E+04  0.22677021013E+04  0.15294330000E+03 0.  0.
<mgrwt>
<rscale>  0 0.14049011E+04</rscale>
<asrwt>0</asrwt>
<pdfrwt beam="1">  1        2 0.55818350E+00 0.14439300E+04</pdfrwt>
<pdfrwt beam="2">  1       -2 0.82486829E-01 0.14439300E+04</pdfrwt>
<totfact> 0.82778913E-01</totfact>
</mgrwt>
</event>
<event>
 4    5  0.7289609E-008  0.6830622E+03  0.7818608E-02  0.1007642E+00
          2   -1    0    0  501    0  0.00000000000E+00  0.00000000000E+00  0.19803035424E+04  0.19803035424E+04  0.25500000000E-02 0. -1.
         -2   -1    0    0    0  501 -0.00000000000E+00 -0.00000000000E+00 -0.18034965827E+04  0.18034965827E+04  0.25500000000E-02 0.  1.
    8880023    1    1    2    0    0  0.28195845265E+02 -0.17879810663E+03 -0.17312267500E+04  0.18611072067E+04  0.65864270000E+03 0.  1.
    8880022    1    1    2    0    0 -0.28195845265E+02  0.17879810663E+03  0.19080337096E+04  0.19226929185E+04  0.15294330000E+03 0.  0.
<mgrwt>
<rscale>  0 0.52422672E+03</rscale>
<asrwt>0</asrwt>
<pdfrwt beam="1">  1        2 0.30466208E+00 0.68306220E+03</pdfrwt>
<pdfrwt beam="2">  1       -2 0.27746101E+00 0.68306220E+03</pdfrwt>
<totfact> 0.32244521E-01</totfact>
</mgrwt>
</event>
<event>
 4    5  0.7289609E-008  0.6634812E+03  0.7818608E-02  0.1020843E+00
          2   -1    0    0  501    0  0.00000000000E+00  0.00000000000E+00  0.33708419285E+04  0.33708419285E+04  0.25500000000E-02 0. -1.
         -2   -1    0    0    0  501 -0.00000000000E+00 -0.00000000000E+00 -0.28383857546E+03  0.28383857547E+03  0.25500000000E-02 0.  1.
    8880023    1    1    2    0    0  0.55734116033E+02 -0.57365165344E+02  0.10983196857E+03  0.67251046198E+03  0.65864270000E+03 0.  1.
    8880022    1    1    2    0    0 -0.55734116033E+02  0.57365165344E+02  0.29771713844E+04  0.29821700419E+04  0.15294330000E+03 0.  0.
<mgrwt>
<rscale>  0 0.47383584E+03</rscale>
<asrwt>0</asrwt>
<pdfrwt beam="1">  1        2 0.51859105E+00 0.66348117E+03</pdfrwt>
<pdfrwt beam="2">  1       -2 0.43667474E-01 0.66348117E+03</pdfrwt>
<totfact> 0.54547640E+00</totfact>
</mgrwt>
</event>
<event>
 4    5  0.7289609E-008  0.7086004E+03  0.7818608E-02  0.9963235E-01
          2   -1    0    0  501    0  0.00000000000E+00  0.00000000000E+00  0.17191162170E+04  0.17191162170E+04  0.25500000000E-02 0. -1.
         -2   -1    0    0    0  501 -0.00000000000E+00 -0.00000000000E+00 -0.19132619242E+03  0.19132619244E+03  0.25500000000E-02 0.  1.
    8880023    1    1    2    0    0 -0.81330120293E+02 -0.24837430494E+03  0.58078537525E+03  0.91620207498E+03  0.65864270000E+03 0.  1.
    8880022    1    1    2    0    0  0.81330120293E+02  0.24837430494E+03  0.94700464935E+03  0.99424033449E+03  0.15294330000E+03 0.  0.
<mgrwt>
<rscale>  0 0.57292119E+03</rscale>
<asrwt>0</asrwt>
<pdfrwt beam="1">  1        2 0.26447941E+00 0.70860044E+03</pdfrwt>
<pdfrwt beam="2">  1       -2 0.29434800E-01 0.70860044E+03</pdfrwt>
<totfact> 0.10421066E+02</totfact>
</mgrwt>
</event>
<event>
 4    5  0.7289609E-008  0.7719636E+03  0.7818608E-02  0.9775065E-01
          2   -1    0    0  501    0  0.00000000000E+00  0.00000000000E+00  0.42316289926E+04  0.42316289926E+04  0.25500000000E-02 0. -1.
         -2   -1    0    0    0  501 -0.00000000000E+00 -0.00000000000E+00 -0.11586740709E+03  0.11586740712E+03  0.25500000000E-02 0.  1.
    8880023    1    1    2    0    0  0.37582765236E+03  0.14446883149E+03  0.14083928618E+04  0.16060816688E+04  0.65864270000E+03 0.  0.
    8880022    1    1    2    0    0 -0.37582765236E+03 -0.14446883149E+03  0.27073687237E+04  0.27414147309E+04  0.15294330000E+03 0.  0.
<mgrwt>
<rscale>  0 0.66718051E+03</rscale>
<asrwt>0</asrwt>
<pdfrwt beam="1">  1        2 0.65101986E+00 0.77196365E+03</pdfrwt>
<pdfrwt beam="2">  1       -2 0.17825754E-01 0.77196365E+03</pdfrwt>
<totfact> 0.63154100E+00</totfact>
</mgrwt>
</event>
<event>
 4    5  0.7289609E-008  0.6918592E+03  0.7818608E-02  0.1003281E+00
          2   -1    0    0  501    0  0.00000000000E+00  0.00000000000E+00  0.29625452986E+04  0.29625452986E+04  0.25500000000E-02 0. -1.
         -2   -1    0    0    0  501 -0.00000000000E+00 -0.00000000000E+00 -0.31000659929E+03  0.31000659930E+03  0.25500000000E-02 0.  1.
    8880023    1    1    2    0    0  0.79848436590E+02 -0.19617117794E+03  0.91107158711E+02  0.69783208905E+03  0.65864270000E+03 0.  1.
    8880022    1    1    2    0    0 -0.79848436590E+02  0.19617117794E+03  0.25614315406E+04  0.25747198089E+04  0.15294330000E+03 0.  0.
<mgrwt>
<rscale>  0 0.54234614E+03</rscale>
<asrwt>0</asrwt>
<pdfrwt beam="1">  1        2 0.45577622E+00 0.69185917E+03</pdfrwt>
<pdfrwt beam="2">  1       -2 0.47693321E-01 0.69185917E+03</pdfrwt>
<totfact> 0.82285158E+00</totfact>
</mgrwt>
</event>
<event>
 4    5  0.7289609E-008  0.8567125E+03  0.7818608E-02  0.9599438E-01
          2   -1    0    0  501    0  0.00000000000E+00  0.00000000000E+00  0.19501412742E+04  0.19501412742E+04  0.25500000000E-02 0. -1.
         -2   -1    0    0    0  501 -0.00000000000E+00 -0.00000000000E+00 -0.79314838781E+03  0.79314838781E+03  0.25500000000E-02 0.  1.
    8880023    1    1    2    0    0  0.15781517146E+03  0.52463362233E+03 -0.49961457634E+03  0.99175147955E+03  0.65864270000E+03 0.  1.
    8880022    1    1    2    0    0 -0.15781517146E+03 -0.52463362233E+03  0.16566074627E+04  0.17515381825E+04  0.15294330000E+03 0.  0.
<mgrwt>
<rscale>  0 0.77333370E+03</rscale>
<asrwt>0</asrwt>
<pdfrwt beam="1">  1        2 0.30002173E+00 0.85671248E+03</pdfrwt>
<pdfrwt beam="2">  1       -2 0.12202283E+00 0.85671248E+03</pdfrwt>
<totfact> 0.36921544E+00</totfact>
</mgrwt>
</event>
<event>
 4    5  0.7289609E-008  0.6908473E+03  0.7818608E-02  0.1003752E+00
          2   -1    0    0  501    0  0.00000000000E+00  0.00000000000E+00  0.15509844215E+04  0.15509844215E+04  0.25500000000E-02 0. -1.
         -2   -1    0    0    0  501 -0.00000000000E+00 -0.00000000000E+00 -0.91622905421E+03  0.91622905421E+03  0.25500000000E-02 0.  1.
    8880023    1    1    2    0    0  0.20492660691E+03 -0.38273536258E+02 -0.77252918648E+03  0.10363741255E+04  0.65864270000E+03 0.  1.
    8880022    1    1    2    0    0 -0.20492660691E+03  0.38273536258E+02  0.14072845538E+04  0.14308393502E+04  0.15294330000E+03 0.  0.
<mgrwt>
<rscale>  0 0.54035028E+03</rscale>
<asrwt>0</asrwt>
<pdfrwt beam="1">  1        2 0.23861299E+00 0.69084729E+03</pdfrwt>
<pdfrwt beam="2">  1       -2 0.14095832E+00 0.69084729E+03</pdfrwt>
<totfact> 0.43469017E+00</totfact>
</mgrwt>
</event>
<event>
 4    5  0.7289609E-008  0.8487966E+03  0.7818608E-02  0.9613811E-01
         -2   -1    0    0    0  501 -0.00000000000E+00  0.00000000000E+00  0.48106836358E+03  0.48106836358E+03  0.25500000000E-02 0.  1.
          2   -1    0    0  501    0  0.00000000000E+00 -0.00000000000E+00 -0.13345560195E+04  0.13345560195E+04  0.25500000000E-02 0. -1.
    8880023    1    1    2    0    0 -0.41971094772E+03 -0.33239765256E+03 -0.66256636956E+02  0.85137866268E+03  0.65864270000E+03 0.  1.
    8880022    1    1    2    0    0  0.41971094772E+03  0.33239765256E+03 -0.78723101894E+03  0.96424572037E+03  0.15294330000E+03 0.  0.
<mgrwt>
<rscale>  0 0.76388757E+03</rscale>
<asrwt>0</asrwt>
<pdfrwt beam="1">  1        2 0.20531631E+00 0.84879661E+03</pdfrwt>
<pdfrwt beam="2">  1       -2 0.74010518E-01 0.84879661E+03</pdfrwt>
<totfact> 0.26224653E+01</totfact>
</mgrwt>
</event>
<event>
 4    5  0.1367562E-007  0.1177358E+04  0.7818608E-02  0.9179453E-01
          2   -1    0    0  501    0  0.00000000000E+00  0.00000000000E+00  0.28502736201E+04  0.28502736201E+04  0.25500000000E-02 0. -1.
         -2   -1    0    0    0  501 -0.00000000000E+00 -0.00000000000E+00 -0.17041726275E+04  0.17041726275E+04  0.25500000000E-02 0.  1.
    8880023    1    1    2    0    0 -0.93464194579E+03  0.28072323360E+03 -0.13965754114E+04  0.18266346616E+04  0.65864270000E+03 0.  0.
    8880022    1    1    2    0    0  0.93464194579E+03 -0.28072323360E+03  0.25426764040E+04  0.27278115861E+04  0.15294330000E+03 0.  0.
<mgrwt>
<rscale>  0 0.11268051E+04</rscale>
<asrwt>0</asrwt>
<pdfrwt beam="1">  1        2 0.43850363E+00 0.11773578E+04</pdfrwt>
<pdfrwt beam="2">  1       -2 0.26218041E+00 0.11773578E+04</pdfrwt>
<totfact> 0.11506914E-01</totfact>
</mgrwt>
</event>
<event>
 4    5  0.7289609E-008  0.1007952E+04  0.7818608E-02  0.9371228E-01
         -2   -1    0    0    0  501 -0.00000000000E+00  0.00000000000E+00  0.13512010617E+04  0.13512010617E+04  0.25500000000E-02 0.  1.
          2   -1    0    0  501    0  0.00000000000E+00 -0.00000000000E+00 -0.15954096236E+04  0.15954096236E+04  0.25500000000E-02 0. -1.
    8880023    1    1    2    0    0  0.76054280534E+03 -0.61083294134E+02  0.10379232470E+04  0.14468073128E+04  0.65864270000E+03 0.  1.
    8880022    1    1    2    0    0 -0.76054280534E+03  0.61083294134E+02 -0.12821318089E+04  0.14998033724E+04  0.15294330000E+03 0.  0.
<mgrwt>
<rscale>  0 0.94481852E+03</rscale>
<asrwt>0</asrwt>
<pdfrwt beam="1">  1        2 0.24544763E+00 0.10079518E+04</pdfrwt>
<pdfrwt beam="2">  1       -2 0.20787709E+00 0.10079518E+04</pdfrwt>
<totfact> 0.13173807E+00</totfact>
</mgrwt>
</event>
<event>
 4    5  0.7289609E-008  0.1002312E+04  0.7818608E-02  0.9378539E-01
          2   -1    0    0  501    0  0.00000000000E+00  0.00000000000E+00  0.28509587961E+04  0.28509587961E+04  0.25500000000E-02 0. -1.
         -2   -1    0    0    0  501 -0.00000000000E+00 -0.00000000000E+00 -0.35199311503E+03  0.35199311504E+03  0.25500000000E-02 0.  1.
    8880023    1    1    2    0    0 -0.57392836416E+03  0.49135048989E+03  0.21177978862E+04  0.23430102783E+04  0.65864270000E+03 0. -1.
    8880022    1    1    2    0    0  0.57392836416E+03 -0.49135048989E+03  0.38116779493E+03  0.85994163291E+03  0.15294330000E+03 0.  0.
<mgrwt>
<rscale>  0 0.93863068E+03</rscale>
<asrwt>0</asrwt>
<pdfrwt beam="1">  1        2 0.43860903E+00 0.10023120E+04</pdfrwt>
<pdfrwt beam="2">  1       -2 0.54152788E-01 0.10023120E+04</pdfrwt>
<totfact> 0.70458766E+00</totfact>
</mgrwt>
</event>
<event>
 4    5  0.7289609E-008  0.8144823E+03  0.7818608E-02  0.9680315E-01
          2   -1    0    0  501    0  0.00000000000E+00  0.00000000000E+00  0.52295496024E+03  0.52295496025E+03  0.25500000000E-02 0. -1.
         -2   -1    0    0    0  501 -0.00000000000E+00 -0.00000000000E+00 -0.99641040075E+03  0.99641040076E+03  0.25500000000E-02 0.  1.
    8880023    1    1    2    0    0  0.39751594484E+03 -0.26749249886E+03 -0.58673473830E+03  0.10038122448E+04  0.65864270000E+03 0.  0.
    8880022    1    1    2    0    0 -0.39751594484E+03  0.26749249886E+03  0.11327929779E+03  0.51555311624E+03  0.15294330000E+03 0.  0.
<mgrwt>
<rscale>  0 0.72201017E+03</rscale>
<asrwt>0</asrwt>
<pdfrwt beam="1">  1        2 0.80454609E-01 0.81448227E+03</pdfrwt>
<pdfrwt beam="2">  1       -2 0.15329391E+00 0.81448227E+03</pdfrwt>
<totfact> 0.16660316E+01</totfact>
</mgrwt>
</event>
<event>
 4    5  0.7289609E-008  0.6760808E+03  0.7818608E-02  0.1011633E+00
          2   -1    0    0  501    0  0.00000000000E+00  0.00000000000E+00  0.16755897493E+04  0.16755897493E+04  0.25500000000E-02 0. -1.
         -2   -1    0    0    0  501 -0.00000000000E+00 -0.00000000000E+00 -0.40633196303E+03  0.40633196304E+03  0.25500000000E-02 0.  1.
    8880023    1    1    2    0    0 -0.15238915188E+03  0.72547260762E+01 -0.11076414063E+03  0.68509414373E+03  0.65864270000E+03 0.  1.
    8880022    1    1    2    0    0  0.15238915188E+03 -0.72547260762E+01  0.13800219270E+04  0.13968275687E+04  0.15294330000E+03 0.  0.
<mgrwt>
<rscale>  0 0.50830560E+03</rscale>
<asrwt>0</asrwt>
<pdfrwt beam="1">  1        2 0.25778304E+00 0.67608083E+03</pdfrwt>
<pdfrwt beam="2">  1       -2 0.62512609E-01 0.67608083E+03</pdfrwt>
<totfact> 0.24902749E+01</totfact>
</mgrwt>
</event>
<event>
 4    5  0.7289609E-008  0.1153665E+04  0.7818608E-02  0.9203534E-01
          2   -1    0    0  501    0  0.00000000000E+00  0.00000000000E+00  0.18508343061E+04  0.18508343061E+04  0.25500000000E-02 0. -1.
         -2   -1    0    0    0  501 -0.00000000000E+00 -0.00000000000E+00 -0.72738098800E+03  0.72738098800E+03  0.25500000000E-02 0.  1.
    8880023    1    1    2    0    0  0.83164004050E+03 -0.45333027331E+03  0.73626651377E+02  0.11560123631E+04  0.65864270000E+03 0.  0.
    8880022    1    1    2    0    0 -0.83164004050E+03  0.45333027331E+03  0.10498266667E+04  0.14222029310E+04  0.15294330000E+03 0.  0.
<mgrwt>
<rscale>  0 0.11017025E+04</rscale>
<asrwt>0</asrwt>
<pdfrwt beam="1">  1        2 0.28474374E+00 0.11536653E+04</pdfrwt>
<pdfrwt beam="2">  1       -2 0.11190477E+00 0.11536653E+04</pdfrwt>
<totfact> 0.49995975E+00</totfact>
</mgrwt>
</event>
<event>
 4    5  0.7289609E-008  0.1034406E+04  0.7818608E-02  0.9337867E-01
         -2   -1    0    0    0  501 -0.00000000000E+00  0.00000000000E+00  0.66213388888E+03  0.66213388888E+03  0.25500000000E-02 0.  1.
          2   -1    0    0  501    0  0.00000000000E+00 -0.00000000000E+00 -0.13328097938E+04  0.13328097938E+04  0.25500000000E-02 0. -1.
    8880023    1    1    2    0    0  0.78616118455E+03  0.13467021745E+03 -0.19151879319E+03  0.10519862784E+04  0.65864270000E+03 0. -1.
    8880022    1    1    2    0    0 -0.78616118455E+03 -0.13467021745E+03 -0.47915711178E+03  0.94295740431E+03  0.15294330000E+03 0.  0.
<mgrwt>
<rscale>  0 0.97370289E+03</rscale>
<asrwt>0</asrwt>
<pdfrwt beam="1">  1        2 0.20504766E+00 0.10344060E+04</pdfrwt>
<pdfrwt beam="2">  1       -2 0.10186675E+00 0.10344060E+04</pdfrwt>
<totfact> 0.12395491E+01</totfact>
</mgrwt>
</event>
<event>
 4    5  0.7289609E-008  0.1379589E+04  0.7818608E-02  0.8999707E-01
          2   -1    0    0  501    0  0.00000000000E+00  0.00000000000E+00  0.10584413526E+04  0.10584413526E+04  0.25500000000E-02 0. -1.
         -2   -1    0    0    0  501 -0.00000000000E+00 -0.00000000000E+00 -0.20990126625E+04  0.20990126625E+04  0.25500000000E-02 0.  1.
    8880023    1    1    2    0    0 -0.59608136240E+03 -0.10555296609E+04 -0.13142110733E+04  0.19053652687E+04  0.65864270000E+03 0. -1.
    8880022    1    1    2    0    0  0.59608136240E+03  0.10555296609E+04  0.27363976332E+03  0.12520887464E+04  0.15294330000E+03 0.  0.
<mgrwt>
<rscale>  0 0.13383332E+04</rscale>
<asrwt>0</asrwt>
<pdfrwt beam="1">  1        2 0.16283713E+00 0.13795891E+04</pdfrwt>
<pdfrwt beam="2">  1       -2 0.32292502E+00 0.13795891E+04</pdfrwt>
<totfact> 0.50954614E-01</totfact>
</mgrwt>
</event>
<event>
 4    5  0.7289609E-008  0.6629863E+03  0.7818608E-02  0.1021286E+00
         -2   -1    0    0    0  501 -0.00000000000E+00  0.00000000000E+00  0.22416954784E+03  0.22416954786E+03  0.25500000000E-02 0.  1.
          2   -1    0    0  501    0  0.00000000000E+00 -0.00000000000E+00 -0.88890174266E+03  0.88890174266E+03  0.25500000000E-02 0. -1.
    8880023    1    1    2    0    0  0.74715777197E+02 -0.12577461338E+02 -0.33737625522E+03  0.74389084128E+03  0.65864270000E+03 0.  1.
    8880022    1    1    2    0    0 -0.74715777197E+02  0.12577461338E+02 -0.32735593960E+03  0.36918044924E+03  0.15294330000E+03 0.  0.
<mgrwt>
<rscale>  0 0.47225357E+03</rscale>
<asrwt>0</asrwt>
<pdfrwt beam="1">  1        2 0.13675411E+00 0.66298631E+03</pdfrwt>
<pdfrwt beam="2">  1       -2 0.34487623E-01 0.66298631E+03</pdfrwt>
<totfact> 0.23827521E+02</totfact>
</mgrwt>
</event>
<event>
 4    5  0.7289609E-008  0.7353237E+03  0.7818608E-02  0.9873784E-01
         -2   -1    0    0    0  501 -0.00000000000E+00  0.00000000000E+00  0.16381579122E+03  0.16381579124E+03  0.25500000000E-02 0.  1.
          2   -1    0    0  501    0  0.00000000000E+00 -0.00000000000E+00 -0.26283414275E+04  0.26283414275E+04  0.25500000000E-02 0. -1.
    8880023    1    1    2    0    0  0.32085832462E+03  0.62774579325E+02 -0.79035629012E+03  0.10795202564E+04  0.65864270000E+03 0.  1.
    8880022    1    1    2    0    0 -0.32085832462E+03 -0.62774579325E+02 -0.16741693462E+04  0.17126369624E+04  0.15294330000E+03 0.  0.
<mgrwt>
<rscale>  0 0.61548804E+03</rscale>
<asrwt>0</asrwt>
<pdfrwt beam="1">  1        2 0.40436019E+00 0.73532368E+03</pdfrwt>
<pdfrwt beam="2">  1       -2 0.25202431E-01 0.73532368E+03</pdfrwt>
<totfact> 0.43309582E+01</totfact>
</mgrwt>
</event>
<event>
 4    5  0.7289609E-008  0.1149677E+04  0.7818608E-02  0.9207664E-01
         -2   -1    0    0    0  501 -0.00000000000E+00  0.00000000000E+00  0.69011831699E+03  0.69011831700E+03  0.25500000000E-02 0.  1.
          2   -1    0    0  501    0  0.00000000000E+00 -0.00000000000E+00 -0.27694761320E+04  0.27694761320E+04  0.25500000000E-02 0. -1.
    8880023    1    1    2    0    0  0.80237770407E+03 -0.49410158970E+03  0.23793302994E+02  0.11499229054E+04  0.65864270000E+03 0.  0.
    8880022    1    1    2    0    0 -0.80237770407E+03  0.49410158970E+03 -0.21031511180E+04  0.23096715435E+04  0.15294330000E+03 0.  0.
<mgrwt>
<rscale>  0 0.10974677E+04</rscale>
<asrwt>0</asrwt>
<pdfrwt beam="1">  1        2 0.42607324E+00 0.11496767E+04</pdfrwt>
<pdfrwt beam="2">  1       -2 0.10617205E+00 0.11496767E+04</pdfrwt>
<totfact> 0.17138433E+00</totfact>
</mgrwt>
</event>
<event>
 4    5  0.7289609E-008  0.1386789E+04  0.7818608E-02  0.8994017E-01
         -2   -1    0    0    0  501 -0.00000000000E+00  0.00000000000E+00  0.15575139688E+04  0.15575139688E+04  0.25500000000E-02 0.  1.
          2   -1    0    0  501    0  0.00000000000E+00 -0.00000000000E+00 -0.13009888785E+04  0.13009888785E+04  0.25500000000E-02 0. -1.
    8880023    1    1    2    0    0  0.18990234851E+03  0.12055329574E+04 -0.42744893419E+03  0.14511703590E+04  0.65864270000E+03 0.  0.
    8880022    1    1    2    0    0 -0.18990234851E+03 -0.12055329574E+04  0.68397402457E+03  0.14073324883E+04  0.15294330000E+03 0.  0.
<mgrwt>
<rscale>  0 0.13457957E+04</rscale>
<asrwt>0</asrwt>
<pdfrwt beam="1">  1        2 0.20015214E+00 0.13867887E+04</pdfrwt>
<pdfrwt beam="2">  1       -2 0.23961753E+00 0.13867887E+04</pdfrwt>
<totfact> 0.11716707E+00</totfact>
</mgrwt>
</event>
<event>
 4    5  0.7289609E-008  0.1086294E+04  0.7818608E-02  0.9276472E-01
          2   -1    0    0  501    0  0.00000000000E+00  0.00000000000E+00  0.29534093357E+04  0.29534093357E+04  0.25500000000E-02 0. -1.
         -2   -1    0    0    0  501 -0.00000000000E+00 -0.00000000000E+00 -0.71343471927E+03  0.71343471927E+03  0.25500000000E-02 0.  1.
    8880023    1    1    2    0    0 -0.45076601553E+03  0.73690861867E+03 -0.17241597092E+03  0.10998917157E+04  0.65864270000E+03 0.  1.
    8880022    1    1    2    0    0  0.45076601553E+03 -0.73690861867E+03  0.24123905874E+04  0.25669523393E+04  0.15294330000E+03 0.  0.
<mgrwt>
<rscale>  0 0.10297808E+04</rscale>
<asrwt>0</asrwt>
<pdfrwt beam="1">  1        2 0.45437068E+00 0.10862939E+04</pdfrwt>
<pdfrwt beam="2">  1       -2 0.10975918E+00 0.10862939E+04</pdfrwt>
<totfact> 0.12349685E+00</totfact>
</mgrwt>
</event>
<event>
 4    5  0.7289609E-008  0.7082883E+03  0.7818608E-02  0.9964413E-01
          2   -1    0    0  501    0  0.00000000000E+00  0.00000000000E+00  0.88151127033E+03  0.88151127034E+03  0.25500000000E-02 0. -1.
         -2   -1    0    0    0  501 -0.00000000000E+00 -0.00000000000E+00 -0.51162306473E+03  0.51162306473E+03  0.25500000000E-02 0.  1.
    8880023    1    1    2    0    0 -0.68485453554E+02  0.25133999196E+03 -0.21044141496E+03  0.73888960224E+03  0.65864270000E+03 0.  1.
    8880022    1    1    2    0    0  0.68485453554E+02 -0.25133999196E+03  0.58032962057E+03  0.65424473283E+03  0.15294330000E+03 0.  0.
<mgrwt>
<rscale>  0 0.57238579E+03</rscale>
<asrwt>0</asrwt>
<pdfrwt beam="1">  1        2 0.13561712E+00 0.70828826E+03</pdfrwt>
<pdfrwt beam="2">  1       -2 0.78711241E-01 0.70828826E+03</pdfrwt>
<totfact> 0.44062767E+01</totfact>
</mgrwt>
</event>
<event>
 4    5  0.7289609E-008  0.7241688E+03  0.7818608E-02  0.9908725E-01
         -2   -1    0    0    0  501 -0.00000000000E+00  0.00000000000E+00  0.27358956338E+03  0.27358956340E+03  0.25500000000E-02 0.  1.
          2   -1    0    0  501    0  0.00000000000E+00 -0.00000000000E+00 -0.30244264702E+04  0.30244264702E+04  0.25500000000E-02 0. -1.
    8880023    1    1    2    0    0  0.12606869449E+03 -0.27334396263E+03 -0.23752754973E+03  0.76212845425E+03  0.65864270000E+03 0.  1.
    8880022    1    1    2    0    0 -0.12606869449E+03  0.27334396263E+03 -0.25133093571E+04  0.25358875793E+04  0.15294330000E+03 0.  0.
<mgrwt>
<rscale>  0 0.59840314E+03</rscale>
<asrwt>0</asrwt>
<pdfrwt beam="1">  1        2 0.46529636E+00 0.72416880E+03</pdfrwt>
<pdfrwt beam="2">  1       -2 0.42090704E-01 0.72416880E+03</pdfrwt>
<totfact> 0.96131248E+00</totfact>
</mgrwt>
</event>
<event>
 4    5  0.7289609E-008  0.9840946E+03  0.7818608E-02  0.9402669E-01
          2   -1    0    0  501    0  0.00000000000E+00  0.00000000000E+00  0.17785168488E+04  0.17785168488E+04  0.25500000000E-02 0. -1.
         -2   -1    0    0    0  501 -0.00000000000E+00 -0.00000000000E+00 -0.57190690708E+03  0.57190690709E+03  0.25500000000E-02 0.  1.
    8880023    1    1    2    0    0 -0.54337700510E+03 -0.48925804880E+03  0.12631856913E+04  0.16012745876E+04  0.65864270000E+03 0.  0.
    8880022    1    1    2    0    0  0.54337700510E+03  0.48925804880E+03 -0.56575749501E+02  0.74914916835E+03  0.15294330000E+03 0.  0.
<mgrwt>
<rscale>  0 0.91856357E+03</rscale>
<asrwt>0</asrwt>
<pdfrwt beam="1">  1        2 0.27361798E+00 0.98409462E+03</pdfrwt>
<pdfrwt beam="2">  1       -2 0.87985677E-01 0.98409462E+03</pdfrwt>
<totfact> 0.98804189E+00</totfact>
</mgrwt>
</event>
<event>
 4    5  0.7289609E-008  0.8174382E+03  0.7818608E-02  0.9674287E-01
         -2   -1    0    0    0  501 -0.00000000000E+00  0.00000000000E+00  0.70067062710E+03  0.70067062710E+03  0.25500000000E-02 0.  1.
          2   -1    0    0  501    0  0.00000000000E+00 -0.00000000000E+00 -0.12255942769E+04  0.12255942769E+04  0.25500000000E-02 0. -1.
    8880023    1    1    2    0    0 -0.16349619951E+03 -0.45570162144E+03  0.37005385318E+03  0.89729874376E+03  0.65864270000E+03 0.  0.
    8880022    1    1    2    0    0  0.16349619951E+03  0.45570162144E+03 -0.89497750294E+03  0.10289661602E+04  0.15294330000E+03 0.  0.
<mgrwt>
<rscale>  0 0.72568599E+03</rscale>
<asrwt>0</asrwt>
<pdfrwt beam="1">  1        2 0.18855297E+00 0.81743818E+03</pdfrwt>
<pdfrwt beam="2">  1       -2 0.10779548E+00 0.81743818E+03</pdfrwt>
<totfact> 0.12768554E+01</totfact>
</mgrwt>
</event>
<event>
 4    5  0.7289609E-008  0.1411414E+04  0.7818608E-02  0.8974864E-01
         -2   -1    0    0    0  501 -0.00000000000E+00  0.00000000000E+00  0.11908514979E+04  0.11908514979E+04  0.25500000000E-02 0.  1.
          2   -1    0    0  501    0  0.00000000000E+00 -0.00000000000E+00 -0.16080293048E+04  0.16080293048E+04  0.25500000000E-02 0. -1.
    8880023    1    1    2    0    0 -0.49736080597E+03 -0.11449505268E+04  0.14979598088E+03  0.14193408760E+04  0.65864270000E+03 0.  0.
    8880022    1    1    2    0    0  0.49736080597E+03  0.11449505268E+04 -0.56697378787E+03  0.13795399267E+04  0.15294330000E+03 0.  0.
<mgrwt>
<rscale>  0 0.13712933E+04</rscale>
<asrwt>0</asrwt>
<pdfrwt beam="1">  1        2 0.24738912E+00 0.14114141E+04</pdfrwt>
<pdfrwt beam="2">  1       -2 0.18320792E+00 0.14114141E+04</pdfrwt>
<totfact> 0.18073629E+00</totfact>
</mgrwt>
</event>
<event>
 4    5  0.7289609E-008  0.1343105E+04  0.7818608E-02  0.9029202E-01
         -2   -1    0    0    0  501 -0.00000000000E+00  0.00000000000E+00  0.11285471815E+04  0.11285471815E+04  0.25500000000E-02 0.  1.
          2   -1    0    0  501    0  0.00000000000E+00 -0.00000000000E+00 -0.37094576138E+04  0.37094576138E+04  0.25500000000E-02 0. -1.
    8880023    1    1    2    0    0 -0.20287788643E+03 -0.11528057486E+04  0.58065321084E+03  0.14632460108E+04  0.65864270000E+03 0.  0.
    8880022    1    1    2    0    0  0.20287788643E+03  0.11528057486E+04 -0.31615636432E+04  0.33747587845E+04  0.15294330000E+03 0.  0.
<mgrwt>
<rscale>  0 0.13004579E+04</rscale>
<asrwt>0</asrwt>
<pdfrwt beam="1">  1        2 0.57068578E+00 0.13431049E+04</pdfrwt>
<pdfrwt beam="2">  1       -2 0.17362265E+00 0.13431049E+04</pdfrwt>
<totfact> 0.11254381E-01</totfact>
</mgrwt>
</event>
<event>
 4    5  0.7289609E-008  0.6807809E+03  0.7818608E-02  0.1008885E+00
         -2   -1    0    0    0  501 -0.00000000000E+00  0.00000000000E+00  0.13992727807E+04  0.13992727807E+04  0.25500000000E-02 0.  1.
          2   -1    0    0  501    0  0.00000000000E+00 -0.00000000000E+00 -0.86278851900E+03  0.86278851900E+03  0.25500000000E-02 0. -1.
    8880023    1    1    2    0    0  0.46862427555E+02 -0.16569965610E+03  0.12984248328E+04  0.14660728890E+04  0.65864270000E+03 0.  1.
    8880022    1    1    2    0    0 -0.46862427555E+02  0.16569965610E+03 -0.76194057108E+03  0.79598841073E+03  0.15294330000E+03 0.  0.
<mgrwt>
<rscale>  0 0.51920060E+03</rscale>
<asrwt>0</asrwt>
<pdfrwt beam="1">  1        2 0.13273670E+00 0.68078093E+03</pdfrwt>
<pdfrwt beam="2">  1       -2 0.21527273E+00 0.68078093E+03</pdfrwt>
<totfact> 0.34126172E+00</totfact>
</mgrwt>
</event>
<event>
 4    5  0.7289609E-008  0.1615745E+04  0.7818608E-02  0.8831952E-01
         -2   -1    0    0    0  501 -0.00000000000E+00  0.00000000000E+00  0.22194700032E+04  0.22194700032E+04  0.25500000000E-02 0.  1.
          2   -1    0    0  501    0  0.00000000000E+00 -0.00000000000E+00 -0.18149092592E+04  0.18149092592E+04  0.25500000000E-02 0. -1.
    8880023    1    1    2    0    0  0.39619743936E+03  0.14212144017E+04  0.14887744823E+04  0.21970622321E+04  0.65864270000E+03 0.  0.
    8880022    1    1    2    0    0 -0.39619743936E+03 -0.14212144017E+04 -0.10842137383E+04  0.18373170303E+04  0.15294330000E+03 0.  0.
<mgrwt>
<rscale>  0 0.15815678E+04</rscale>
<asrwt>0</asrwt>
<pdfrwt beam="1">  1        2 0.27921681E+00 0.16157453E+04</pdfrwt>
<pdfrwt beam="2">  1       -2 0.34145692E+00 0.16157453E+04</pdfrwt>
<totfact> 0.13817051E-01</totfact>
</mgrwt>
</event>
<event>
 4    5  0.7289609E-008  0.1081229E+04  0.7818608E-02  0.9282248E-01
          2   -1    0    0  501    0  0.00000000000E+00  0.00000000000E+00  0.18933917100E+04  0.18933917100E+04  0.25500000000E-02 0. -1.
         -2   -1    0    0    0  501 -0.00000000000E+00 -0.00000000000E+00 -0.58297895796E+03  0.58297895796E+03  0.25500000000E-02 0.  1.
    8880023    1    1    2    0    0  0.10358728011E+03 -0.85118520516E+03  0.26043519795E+03  0.11121525420E+04  0.65864270000E+03 0.  0.
    8880022    1    1    2    0    0 -0.10358728011E+03  0.85118520516E+03  0.10499775541E+04  0.13642181260E+04  0.15294330000E+03 0.  0.
<mgrwt>
<rscale>  0 0.10243366E+04</rscale>
<asrwt>0</asrwt>
<pdfrwt beam="1">  1        2 0.29129104E+00 0.10812293E+04</pdfrwt>
<pdfrwt beam="2">  1       -2 0.89689069E-01 0.10812293E+04</pdfrwt>
<totfact> 0.80867418E+00</totfact>
</mgrwt>
</event>
<event>
 4    5  0.7289609E-008  0.1213229E+04  0.7818608E-02  0.9144369E-01
         -2   -1    0    0    0  501 -0.00000000000E+00  0.00000000000E+00  0.63599490188E+03  0.63599490189E+03  0.25500000000E-02 0.  1.
          2   -1    0    0  501    0  0.00000000000E+00 -0.00000000000E+00 -0.22568067317E+04  0.22568067317E+04  0.25500000000E-02 0. -1.
    8880023    1    1    2    0    0 -0.62625821990E+03 -0.80368832956E+03 -0.13747379716E+04  0.18335291069E+04  0.65864270000E+03 0.  1.
    8880022    1    1    2    0    0  0.62625821990E+03  0.80368832956E+03 -0.24607385821E+03  0.10592725267E+04  0.15294330000E+03 0.  0.
<mgrwt>
<rscale>  0 0.11646552E+04</rscale>
<asrwt>0</asrwt>
<pdfrwt beam="1">  1        2 0.34720103E+00 0.12132290E+04</pdfrwt>
<pdfrwt beam="2">  1       -2 0.97845370E-01 0.12132290E+04</pdfrwt>
<totfact> 0.40866824E+00</totfact>
</mgrwt>
</event>
<event>
 4    5  0.7289609E-008  0.1035694E+04  0.7818608E-02  0.9336281E-01
          2   -1    0    0  501    0  0.00000000000E+00  0.00000000000E+00  0.60203878482E+03  0.60203878483E+03  0.25500000000E-02 0. -1.
         -2   -1    0    0    0  501 -0.00000000000E+00 -0.00000000000E+00 -0.19343840417E+04  0.19343840417E+04  0.25500000000E-02 0.  1.
    8880023    1    1    2    0    0 -0.78920752590E+03 -0.12650087088E+03 -0.13751209723E+04  0.17215164490E+04  0.65864270000E+03 0.  0.
    8880022    1    1    2    0    0  0.78920752590E+03  0.12650087088E+03  0.42775715483E+02  0.81490637752E+03  0.15294330000E+03 0.  0.
<mgrwt>
<rscale>  0 0.97510326E+03</rscale>
<asrwt>0</asrwt>
<pdfrwt beam="1">  1        2 0.92621353E-01 0.10356936E+04</pdfrwt>
<pdfrwt beam="2">  1       -2 0.29759754E+00 0.10356936E+04</pdfrwt>
<totfact> 0.16261685E+00</totfact>
</mgrwt>
</event>
<event>
 4    5  0.7289609E-008  0.7278397E+03  0.7818608E-02  0.9896900E-01
          2   -1    0    0  501    0  0.00000000000E+00  0.00000000000E+00  0.24035903248E+04  0.24035903248E+04  0.25500000000E-02 0. -1.
         -2   -1    0    0    0  501 -0.00000000000E+00 -0.00000000000E+00 -0.19903511172E+03  0.19903511174E+03  0.25500000000E-02 0.  1.
    8880023    1    1    2    0    0 -0.10773689978E+03 -0.29040181203E+03  0.54969303161E+03  0.91209269664E+03  0.65864270000E+03 0.  1.
    8880022    1    1    2    0    0  0.10773689978E+03  0.29040181203E+03  0.16548621815E+04  0.16905327399E+04  0.15294330000E+03 0.  0.
<mgrwt>
<rscale>  0 0.60411758E+03</rscale>
<asrwt>0</asrwt>
<pdfrwt beam="1">  1        2 0.36978310E+00 0.72783972E+03</pdfrwt>
<pdfrwt beam="2">  1       -2 0.30620788E-01 0.72783972E+03</pdfrwt>
<totfact> 0.40702571E+01</totfact>
</mgrwt>
</event>
<event>
 4    5  0.7289609E-008  0.1203758E+04  0.7818608E-02  0.9153478E-01
         -2   -1    0    0    0  501 -0.00000000000E+00  0.00000000000E+00  0.89038228727E+03  0.89038228727E+03  0.25500000000E-02 0.  1.
          2   -1    0    0  501    0  0.00000000000E+00 -0.00000000000E+00 -0.21841218081E+04  0.21841218081E+04  0.25500000000E-02 0. -1.
    8880023    1    1    2    0    0 -0.37532140271E+03 -0.93507094112E+03  0.24542638080E+03  0.12285227450E+04  0.65864270000E+03 0.  0.
    8880022    1    1    2    0    0  0.37532140271E+03  0.93507094112E+03 -0.15391659016E+04  0.18459813504E+04  0.15294330000E+03 0.  0.
<mgrwt>
<rscale>  0 0.11546791E+04</rscale>
<asrwt>0</asrwt>
<pdfrwt beam="1">  1        2 0.33601874E+00 0.12037583E+04</pdfrwt>
<pdfrwt beam="2">  1       -2 0.13698189E+00 0.12037583E+04</pdfrwt>
<totfact> 0.19538351E+00</totfact>
</mgrwt>
</event>
<event>
 4    5  0.7289609E-008  0.7298851E+03  0.7818608E-02  0.9890455E-01
         -2   -1    0    0    0  501 -0.00000000000E+00  0.00000000000E+00  0.80748724383E+03  0.80748724383E+03  0.25500000000E-02 0.  1.
          2   -1    0    0  501    0  0.00000000000E+00 -0.00000000000E+00 -0.48732563493E+03  0.48732563493E+03  0.25500000000E-02 0. -1.
    8880023    1    1    2    0    0 -0.12335906896E+02 -0.31427685915E+03  0.51611183584E+03  0.89392603282E+03  0.65864270000E+03 0.  1.
    8880022    1    1    2    0    0  0.12335906896E+02  0.31427685915E+03 -0.19595022694E+03  0.40088684594E+03  0.15294330000E+03 0.  0.
<mgrwt>
<rscale>  0 0.60726089E+03</rscale>
<asrwt>0</asrwt>
<pdfrwt beam="1">  1        2 0.74973176E-01 0.72988515E+03</pdfrwt>
<pdfrwt beam="2">  1       -2 0.12422880E+00 0.72988515E+03</pdfrwt>
<totfact> 0.31323295E+01</totfact>
</mgrwt>
</event>
<event>
 4    5  0.7289609E-008  0.9507524E+03  0.7818608E-02  0.9449032E-01
          2   -1    0    0  501    0  0.00000000000E+00  0.00000000000E+00  0.97446067474E+03  0.97446067474E+03  0.25500000000E-02 0. -1.
         -2   -1    0    0    0  501 -0.00000000000E+00 -0.00000000000E+00 -0.10955916023E+04  0.10955916023E+04  0.25500000000E-02 0.  1.
    8880023    1    1    2    0    0 -0.49758393879E+03  0.47173109422E+03 -0.68287006840E+03  0.11705732519E+04  0.65864270000E+03 0.  0.
    8880022    1    1    2    0    0  0.49758393879E+03 -0.47173109422E+03  0.56173914083E+03  0.89947902519E+03  0.15294330000E+03 0.  0.
<mgrwt>
<rscale>  0 0.88148061E+03</rscale>
<asrwt>0</asrwt>
<pdfrwt beam="1">  1        2 0.14991703E+00 0.95075244E+03</pdfrwt>
<pdfrwt beam="2">  1       -2 0.16855255E+00 0.95075244E+03</pdfrwt>
<totfact> 0.56891430E+00</totfact>
</mgrwt>
</event>
<event>
 4    5  0.7289609E-008  0.8909561E+03  0.7818608E-02  0.9540709E-01
         -2   -1    0    0    0  501 -0.00000000000E+00  0.00000000000E+00  0.24511840930E+03  0.24511840931E+03  0.25500000000E-02 0.  1.
          2   -1    0    0  501    0  0.00000000000E+00 -0.00000000000E+00 -0.37858468316E+04  0.37858468316E+04  0.25500000000E-02 0. -1.
    8880023    1    1    2    0    0 -0.19094084502E+03  0.56880067276E+03 -0.72703518909E+03  0.11499491224E+04  0.65864270000E+03 0.  1.
    8880022    1    1    2    0    0  0.19094084502E+03 -0.56880067276E+03 -0.28136932332E+04  0.28810161185E+04  0.15294330000E+03 0.  0.
<mgrwt>
<rscale>  0 0.81347933E+03</rscale>
<asrwt>0</asrwt>
<pdfrwt beam="1">  1        2 0.58243793E+00 0.89095613E+03</pdfrwt>
<pdfrwt beam="2">  1       -2 0.37710527E-01 0.89095613E+03</pdfrwt>
<totfact> 0.35614580E+00</totfact>
</mgrwt>
</event>
<event>
 4    5  0.7897668E-008  0.1022172E+04  0.7818608E-02  0.9353108E-01
          2   -1    0    0  501    0  0.00000000000E+00  0.00000000000E+00  0.19758233584E+04  0.19758233584E+04  0.25500000000E-02 0. -1.
         -2   -1    0    0    0  501 -0.00000000000E+00 -0.00000000000E+00 -0.17927681698E+04  0.17927681698E+04  0.25500000000E-02 0.  1.
    8880023    1    1    2    0    0 -0.22262636151E+03 -0.74930786348E+03 -0.15526175316E+04  0.18588857352E+04  0.65864270000E+03 0.  0.
    8880022    1    1    2    0    0  0.22262636151E+03  0.74930786348E+03  0.17356727202E+04  0.19097057930E+04  0.15294330000E+03 0.  0.
<mgrwt>
<rscale>  0 0.96037244E+03</rscale>
<asrwt>0</asrwt>
<pdfrwt beam="1">  1        2 0.30397282E+00 0.10221717E+04</pdfrwt>
<pdfrwt beam="2">  1       -2 0.27581049E+00 0.10221717E+04</pdfrwt>
<totfact> 0.30858351E-01</totfact>
</mgrwt>
</event>
<event>
 4    5  0.7289609E-008  0.9577219E+03  0.7818608E-02  0.9439090E-01
          2   -1    0    0  501    0  0.00000000000E+00  0.00000000000E+00  0.24803463085E+04  0.24803463085E+04  0.25500000000E-02 0. -1.
         -2   -1    0    0    0  501 -0.00000000000E+00 -0.00000000000E+00 -0.32665901008E+03  0.32665901009E+03  0.25500000000E-02 0.  1.
    8880023    1    1    2    0    0 -0.69374323223E+03  0.46274042541E+02  0.69326312149E+03  0.11823049189E+04  0.65864270000E+03 0.  1.
    8880022    1    1    2    0    0  0.69374323223E+03 -0.46274042541E+02  0.14604241769E+04  0.16247003997E+04  0.15294330000E+03 0.  0.
<mgrwt>
<rscale>  0 0.88927376E+03</rscale>
<asrwt>0</asrwt>
<pdfrwt beam="1">  1        2 0.38159174E+00 0.95772186E+03</pdfrwt>
<pdfrwt beam="2">  1       -2 0.50255232E-01 0.95772186E+03</pdfrwt>
<totfact> 0.13610415E+01</totfact>
</mgrwt>
</event>
<event>
 4    5  0.7289609E-008  0.6699920E+03  0.7818608E-02  0.1015669E+00
          2   -1    0    0  501    0  0.00000000000E+00  0.00000000000E+00  0.30588422088E+04  0.30588422088E+04  0.25500000000E-02 0. -1.
         -2   -1    0    0    0  501 -0.00000000000E+00 -0.00000000000E+00 -0.30013563354E+03  0.30013563355E+03  0.25500000000E-02 0.  1.
    8880023    1    1    2    0    0  0.73228225563E+02  0.98573369552E+02  0.81882004188E+02  0.67497700041E+03  0.65864270000E+03 0.  1.
    8880022    1    1    2    0    0 -0.73228225563E+02 -0.98573369552E+02  0.26768245711E+04  0.26840008419E+04  0.15294330000E+03 0.  0.
<mgrwt>
<rscale>  0 0.49282590E+03</rscale>
<asrwt>0</asrwt>
<pdfrwt beam="1">  1        2 0.47059109E+00 0.66999201E+03</pdfrwt>
<pdfrwt beam="2">  1       -2 0.46174715E-01 0.66999201E+03</pdfrwt>
<totfact> 0.77022659E+00</totfact>
</mgrwt>
</event>
<event>
 4    5  0.7289609E-008  0.1081550E+04  0.7818608E-02  0.9281881E-01
          2   -1    0    0  501    0  0.00000000000E+00  0.00000000000E+00  0.30675733659E+04  0.30675733659E+04  0.25500000000E-02 0. -1.
         -2   -1    0    0    0  501 -0.00000000000E+00 -0.00000000000E+00 -0.48805114947E+03  0.48805114948E+03  0.25500000000E-02 0.  1.
    8880023    1    1    2    0    0 -0.12554886442E+03  0.84863286466E+03  0.31081774266E+03  0.11253257892E+04  0.65864270000E+03 0.  0.
    8880022    1    1    2    0    0  0.12554886442E+03 -0.84863286466E+03  0.22687044737E+04  0.24302987262E+04  0.15294330000E+03 0.  0.
<mgrwt>
<rscale>  0 0.10246815E+04</rscale>
<asrwt>0</asrwt>
<pdfrwt beam="1">  1        2 0.47193436E+00 0.10815500E+04</pdfrwt>
<pdfrwt beam="2">  1       -2 0.75084793E-01 0.10815500E+04</pdfrwt>
<totfact> 0.25419438E+00</totfact>
</mgrwt>
</event>
<event>
 4    5  0.7289609E-008  0.7292348E+03  0.7818608E-02  0.9892494E-01
         -2   -1    0    0    0  501 -0.00000000000E+00  0.00000000000E+00  0.41588846895E+03  0.41588846896E+03  0.25500000000E-02 0.  1.
          2   -1    0    0  501    0  0.00000000000E+00 -0.00000000000E+00 -0.21399938460E+04  0.21399938460E+04  0.25500000000E-02 0. -1.
    8880023    1    1    2    0    0  0.19367552037E+03  0.24589221451E+03  0.65979254504E+02  0.73221353213E+03  0.65864270000E+03 0.  1.
    8880022    1    1    2    0    0 -0.19367552037E+03 -0.24589221451E+03 -0.17900846315E+04  0.18236687828E+04  0.15294330000E+03 0.  0.
<mgrwt>
<rscale>  0 0.60626452E+03</rscale>
<asrwt>0</asrwt>
<pdfrwt beam="1">  1        2 0.32922982E+00 0.72923480E+03</pdfrwt>
<pdfrwt beam="2">  1       -2 0.63982843E-01 0.72923480E+03</pdfrwt>
<totfact> 0.13128194E+01</totfact>
</mgrwt>
</event>
<event>
 4    5  0.7289609E-008  0.8610695E+03  0.7818608E-02  0.9591664E-01
         -2   -1    0    0    0  501 -0.00000000000E+00  0.00000000000E+00  0.73170122556E+03  0.73170122557E+03  0.25500000000E-02 0.  1.
          2   -1    0    0  501    0  0.00000000000E+00 -0.00000000000E+00 -0.16594088326E+04  0.16594088326E+04  0.25500000000E-02 0. -1.
    8880023    1    1    2    0    0  0.46662452074E+03 -0.29981989719E+03  0.39600620623E+03  0.94776660404E+03  0.65864270000E+03 0.  1.
    8880022    1    1    2    0    0 -0.46662452074E+03  0.29981989719E+03 -0.13237138133E+04  0.14433434541E+04  0.15294330000E+03 0.  0.
<mgrwt>
<rscale>  0 0.77850384E+03</rscale>
<asrwt>0</asrwt>
<pdfrwt beam="1">  1        2 0.25529367E+00 0.86106946E+03</pdfrwt>
<pdfrwt beam="2">  1       -2 0.11256942E+00 0.86106946E+03</pdfrwt>
<totfact> 0.64973009E+00</totfact>
</mgrwt>
</event>
<event>
 4    5  0.7289609E-008  0.8318237E+03  0.7818608E-02  0.9645794E-01
          2   -1    0    0  501    0  0.00000000000E+00  0.00000000000E+00  0.26505941287E+04  0.26505941287E+04  0.25500000000E-02 0. -1.
         -2   -1    0    0    0  501 -0.00000000000E+00 -0.00000000000E+00 -0.26532154157E+03  0.26532154158E+03  0.25500000000E-02 0.  1.
    8880023    1    1    2    0    0 -0.50472281268E+03  0.58097184953E+02  0.22031487835E+04  0.23549512032E+04  0.65864270000E+03 0.  0.
    8880022    1    1    2    0    0  0.50472281268E+03 -0.58097184953E+02  0.18212380359E+03  0.56096446714E+03  0.15294330000E+03 0.  0.
<mgrwt>
<rscale>  0 0.74337949E+03</rscale>
<asrwt>0</asrwt>
<pdfrwt beam="1">  1        2 0.40778372E+00 0.83182366E+03</pdfrwt>
<pdfrwt beam="2">  1       -2 0.40818698E-01 0.83182366E+03</pdfrwt>
<totfact> 0.16754056E+01</totfact>
</mgrwt>
</event>
<event>
 4    5  0.7289609E-008  0.1177544E+04  0.7818608E-02  0.9179267E-01
          2   -1    0    0  501    0  0.00000000000E+00  0.00000000000E+00  0.29213785599E+04  0.29213785599E+04  0.25500000000E-02 0. -1.
         -2   -1    0    0    0  501 -0.00000000000E+00 -0.00000000000E+00 -0.29475852692E+04  0.29475852692E+04  0.25500000000E-02 0.  1.
    8880023    1    1    2    0    0 -0.78674006173E+03  0.57778800700E+03  0.27127235140E+04  0.29572754311E+04  0.65864270000E+03 0.  0.
    8880022    1    1    2    0    0  0.78674006173E+03 -0.57778800700E+03 -0.27389302233E+04  0.29116883980E+04  0.15294330000E+03 0.  0.
<mgrwt>
<rscale>  0 0.11270018E+04</rscale>
<asrwt>0</asrwt>
<pdfrwt beam="1">  1        2 0.44944285E+00 0.11775437E+04</pdfrwt>
<pdfrwt beam="2">  1       -2 0.45347466E+00 0.11775437E+04</pdfrwt>
<totfact> 0.64090357E-03</totfact>
</mgrwt>
</event>
<event>
 4    5  0.7289609E-008  0.1187295E+04  0.7818608E-02  0.9169573E-01
         -2   -1    0    0    0  501 -0.00000000000E+00  0.00000000000E+00  0.48459273843E+03  0.48459273844E+03  0.25500000000E-02 0.  1.
          2   -1    0    0  501    0  0.00000000000E+00 -0.00000000000E+00 -0.36258680220E+04  0.36258680220E+04  0.25500000000E-02 0. -1.
    8880023    1    1    2    0    0 -0.36053992813E+03 -0.91971190664E+03 -0.50353305896E+03  0.12896568453E+04  0.65864270000E+03 0.  1.
    8880022    1    1    2    0    0  0.36053992813E+03  0.91971190664E+03 -0.26377422246E+04  0.28208039151E+04  0.15294330000E+03 0.  0.
<mgrwt>
<rscale>  0 0.11373084E+04</rscale>
<asrwt>0</asrwt>
<pdfrwt beam="1">  1        2 0.55782583E+00 0.11872949E+04</pdfrwt>
<pdfrwt beam="2">  1       -2 0.74552731E-01 0.11872949E+04</pdfrwt>
<totfact> 0.10799674E+00</totfact>
</mgrwt>
</event>
<event>
 4    5  0.7289609E-008  0.8072485E+03  0.7818608E-02  0.9695337E-01
          2   -1    0    0  501    0  0.00000000000E+00  0.00000000000E+00  0.20329049052E+04  0.20329049052E+04  0.25500000000E-02 0. -1.
         -2   -1    0    0    0  501 -0.00000000000E+00 -0.00000000000E+00 -0.31534795849E+03  0.31534795850E+03  0.25500000000E-02 0.  1.
    8880023    1    1    2    0    0  0.96336695394E+02 -0.45668281060E+03  0.32254107955E+03  0.86930023734E+03  0.65864270000E+03 0.  1.
    8880022    1    1    2    0    0 -0.96336695394E+02  0.45668281060E+03  0.13950158672E+04  0.14789526264E+04  0.15294330000E+03 0.  0.
<mgrwt>
<rscale>  0 0.71295105E+03</rscale>
<asrwt>0</asrwt>
<pdfrwt beam="1">  1        2 0.31275461E+00 0.80724851E+03</pdfrwt>
<pdfrwt beam="2">  1       -2 0.48515069E-01 0.80724851E+03</pdfrwt>
<totfact> 0.26447970E+01</totfact>
</mgrwt>
</event>
<event>
 4    5  0.7289609E-008  0.9146033E+03  0.7818608E-02  0.9502984E-01
          2   -1    0    0  501    0  0.00000000000E+00  0.00000000000E+00  0.13115566958E+04  0.13115566958E+04  0.25500000000E-02 0. -1.
         -2   -1    0    0    0  501 -0.00000000000E+00 -0.00000000000E+00 -0.82751724800E+03  0.82751724800E+03  0.25500000000E-02 0.  1.
    8880023    1    1    2    0    0  0.38369881555E+02  0.63341678433E+03 -0.43422359421E+03  0.10124472364E+04  0.65864270000E+03 0.  1.
    8880022    1    1    2    0    0 -0.38369881555E+02 -0.63341678433E+03  0.91826304201E+03  0.11266267074E+04  0.15294330000E+03 0.  0.
<mgrwt>
<rscale>  0 0.84064198E+03</rscale>
<asrwt>0</asrwt>
<pdfrwt beam="1">  1        2 0.20177795E+00 0.91460334E+03</pdfrwt>
<pdfrwt beam="2">  1       -2 0.12731035E+00 0.91460334E+03</pdfrwt>
<totfact> 0.74644843E+00</totfact>
</mgrwt>
</event>
<event>
 4    5  0.7289609E-008  0.6922123E+03  0.7818608E-02  0.1003118E+00
          2   -1    0    0  501    0  0.00000000000E+00  0.00000000000E+00  0.11449006478E+04  0.11449006478E+04  0.25500000000E-02 0. -1.
         -2   -1    0    0    0  501 -0.00000000000E+00 -0.00000000000E+00 -0.19515907524E+04  0.19515907524E+04  0.25500000000E-02 0.  1.
    8880023    1    1    2    0    0 -0.42315335033E+02 -0.20870323957E+03 -0.18738396407E+04  0.19976067769E+04  0.65864270000E+03 0.  1.
    8880022    1    1    2    0    0  0.42315335033E+02  0.20870323957E+03  0.10671495361E+04  0.10988846232E+04  0.15294330000E+03 0.  0.
<mgrwt>
<rscale>  0 0.54303785E+03</rscale>
<asrwt>0</asrwt>
<pdfrwt beam="1">  1        2 0.17613856E+00 0.69221228E+03</pdfrwt>
<pdfrwt beam="2">  1       -2 0.30024473E+00 0.69221228E+03</pdfrwt>
<totfact> 0.68749949E-01</totfact>
</mgrwt>
</event>
<event>
 4    5  0.7289609E-008  0.1136545E+04  0.7818608E-02  0.9221418E-01
          2   -1    0    0  501    0  0.00000000000E+00  0.00000000000E+00  0.30382259673E+04  0.30382259673E+04  0.25500000000E-02 0. -1.
         -2   -1    0    0    0  501 -0.00000000000E+00 -0.00000000000E+00 -0.53924068222E+03  0.53924068222E+03  0.25500000000E-02 0.  1.
    8880023    1    1    2    0    0  0.92557684946E+03 -0.35109111156E+02  0.28361960700E+03  0.11713989251E+04  0.65864270000E+03 0.  0.
    8880022    1    1    2    0    0 -0.92557684946E+03  0.35109111156E+02  0.22153656781E+04  0.24060677245E+04  0.15294330000E+03 0.  0.
<mgrwt>
<rscale>  0 0.10835067E+04</rscale>
<asrwt>0</asrwt>
<pdfrwt beam="1">  1        2 0.46741938E+00 0.11365454E+04</pdfrwt>
<pdfrwt beam="2">  1       -2 0.82960104E-01 0.11365454E+04</pdfrwt>
<totfact> 0.21017758E+00</totfact>
</mgrwt>
</event>
<event>
 4    5  0.7289609E-008  0.6660897E+03  0.7818608E-02  0.1018636E+00
         -2   -1    0    0    0  501 -0.00000000000E+00  0.00000000000E+00  0.10550818104E+03  0.10550818107E+03  0.25500000000E-02 0.  1.
          2   -1    0    0  501    0  0.00000000000E+00 -0.00000000000E+00 -0.26086644869E+04  0.26086644869E+04  0.25500000000E-02 0. -1.
    8880023    1    1    2    0    0  0.77978743705E+02  0.61519465730E+02 -0.10096503480E+04  0.12095740410E+04  0.65864270000E+03 0.  1.
    8880022    1    1    2    0    0 -0.77978743705E+02 -0.61519465730E+02 -0.14935059579E+04  0.15045986270E+04  0.15294330000E+03 0.  0.
<mgrwt>
<rscale>  0 0.48182010E+03</rscale>
<asrwt>0</asrwt>
<pdfrwt beam="1">  1        2 0.40133295E+00 0.66608974E+03</pdfrwt>
<pdfrwt beam="2">  1       -2 0.16232030E-01 0.66608974E+03</pdfrwt>
<totfact> 0.97008717E+01</totfact>
</mgrwt>
</event>
<event>
 4    5  0.7289609E-008  0.8404214E+03  0.7818608E-02  0.9629386E-01
         -2   -1    0    0    0  501 -0.00000000000E+00  0.00000000000E+00  0.61451480067E+03  0.61451480067E+03  0.25500000000E-02 0.  1.
          2   -1    0    0  501    0  0.00000000000E+00 -0.00000000000E+00 -0.86681927996E+03  0.86681927996E+03  0.25500000000E-02 0. -1.
    8880023    1    1    2    0    0  0.17575670396E+03 -0.49153593626E+03  0.79487341933E+02  0.84417204373E+03  0.65864270000E+03 0. -1.
    8880022    1    1    2    0    0 -0.17575670396E+03  0.49153593626E+03 -0.33179182123E+03  0.63716203690E+03  0.15294330000E+03 0.  0.
<mgrwt>
<rscale>  0 0.75381377E+03</rscale>
<asrwt>0</asrwt>
<pdfrwt beam="1">  1        2 0.13335681E+00 0.84042144E+03</pdfrwt>
<pdfrwt beam="2">  1       -2 0.94540739E-01 0.84042144E+03</pdfrwt>
<totfact> 0.29322277E+01</totfact>
</mgrwt>
</event>
<event>
 4    5  0.7289609E-008  0.9366981E+03  0.7818608E-02  0.9469517E-01
         -2   -1    0    0    0  501 -0.00000000000E+00  0.00000000000E+00  0.73299188823E+03  0.73299188823E+03  0.25500000000E-02 0.  1.
          2   -1    0    0  501    0  0.00000000000E+00 -0.00000000000E+00 -0.15091613830E+04  0.15091613830E+04  0.25500000000E-02 0. -1.
    8880023    1    1    2    0    0 -0.64022133048E+03 -0.18360233143E+03  0.28578653146E+03  0.97932492868E+03  0.65864270000E+03 0.  1.
    8880022    1    1    2    0    0  0.64022133048E+03  0.18360233143E+03 -0.10619560263E+04  0.12628283426E+04  0.15294330000E+03 0.  0.
<mgrwt>
<rscale>  0 0.86569036E+03</rscale>
<asrwt>0</asrwt>
<pdfrwt beam="1">  1        2 0.23217867E+00 0.93669812E+03</pdfrwt>
<pdfrwt beam="2">  1       -2 0.11276798E+00 0.93669812E+03</pdfrwt>
<totfact> 0.77694199E+00</totfact>
</mgrwt>
</event>
<event>
 4    5  0.7289609E-008  0.6801704E+03  0.7818608E-02  0.1009227E+00
         -2   -1    0    0    0  501 -0.00000000000E+00  0.00000000000E+00  0.10201958937E+04  0.10201958937E+04  0.25500000000E-02 0.  1.
          2   -1    0    0  501    0  0.00000000000E+00 -0.00000000000E+00 -0.87003129617E+03  0.87003129617E+03  0.25500000000E-02 0. -1.
    8880023    1    1    2    0    0 -0.16148207411E+03  0.52393218101E+02  0.88757659118E+03  0.11182235559E+04  0.65864270000E+03 0.  1.
    8880022    1    1    2    0    0  0.16148207411E+03 -0.52393218101E+02 -0.73741199360E+03  0.77200363399E+03  0.15294330000E+03 0.  0.
<mgrwt>
<rscale>  0 0.51782829E+03</rscale>
<asrwt>0</asrwt>
<pdfrwt beam="1">  1        2 0.13385097E+00 0.68017036E+03</pdfrwt>
<pdfrwt beam="2">  1       -2 0.15695321E+00 0.68017036E+03</pdfrwt>
<totfact> 0.83735941E+00</totfact>
</mgrwt>
</event>
<event>
 4    5  0.7289609E-008  0.8804619E+03  0.7818608E-02  0.9558154E-01
          2   -1    0    0  501    0  0.00000000000E+00  0.00000000000E+00  0.29393697854E+04  0.29393697854E+04  0.25500000000E-02 0. -1.
         -2   -1    0    0    0  501 -0.00000000000E+00 -0.00000000000E+00 -0.28273929648E+03  0.28273929649E+03  0.25500000000E-02 0.  1.
    8880023    1    1    2    0    0  0.57213955806E+03  0.11857202524E+03  0.56769960970E+03  0.10476144578E+04  0.65864270000E+03 0.  1.
    8880022    1    1    2    0    0 -0.57213955806E+03 -0.11857202524E+03  0.20889308793E+04  0.21744946241E+04  0.15294330000E+03 0.  0.
<mgrwt>
<rscale>  0 0.80128865E+03</rscale>
<asrwt>0</asrwt>
<pdfrwt beam="1">  1        2 0.45221072E+00 0.88046193E+03</pdfrwt>
<pdfrwt beam="2">  1       -2 0.43498355E-01 0.88046193E+03</pdfrwt>
<totfact> 0.98900992E+00</totfact>
</mgrwt>
</event>
<event>
 4    5  0.7289609E-008  0.6876019E+03  0.7818608E-02  0.1005314E+00
         -2   -1    0    0    0  501 -0.00000000000E+00  0.00000000000E+00  0.58651417300E+03  0.58651417301E+03  0.25500000000E-02 0.  1.
          2   -1    0    0  501    0  0.00000000000E+00 -0.00000000000E+00 -0.25784175034E+04  0.25784175034E+04  0.25500000000E-02 0. -1.
    8880023    1    1    2    0    0 -0.57103097327E+02  0.18901163475E+03  0.37613684002E+03  0.78375716295E+03  0.65864270000E+03 0.  1.
    8880022    1    1    2    0    0  0.57103097327E+02 -0.18901163475E+03 -0.23680401704E+04  0.23811745135E+04  0.15294330000E+03 0.  0.
<mgrwt>
<rscale>  0 0.53380369E+03</rscale>
<asrwt>0</asrwt>
<pdfrwt beam="1">  1        2 0.39667961E+00 0.68760190E+03</pdfrwt>
<pdfrwt beam="2">  1       -2 0.90232951E-01 0.68760190E+03</pdfrwt>
<totfact> 0.35079448E+00</totfact>
</mgrwt>
</event>
<event>
 4    5  0.7289609E-008  0.7051635E+03  0.7818608E-02  0.9976419E-01
          2   -1    0    0  501    0  0.00000000000E+00  0.00000000000E+00  0.14935338287E+04  0.14935338287E+04  0.25500000000E-02 0. -1.
         -2   -1    0    0    0  501 -0.00000000000E+00 -0.00000000000E+00 -0.33397085908E+03  0.33397085909E+03  0.25500000000E-02 0.  1.
    8880023    1    1    2    0    0  0.20830222517E+03  0.14161757593E+03  0.81458811999E+02  0.70985287147E+03  0.65864270000E+03 0.  1.
    8880022    1    1    2    0    0 -0.20830222517E+03 -0.14161757593E+03  0.10781041577E+04  0.11176518163E+04  0.15294330000E+03 0.  0.
<mgrwt>
<rscale>  0 0.56696399E+03</rscale>
<asrwt>0</asrwt>
<pdfrwt beam="1">  1        2 0.22977443E+00 0.70516350E+03</pdfrwt>
<pdfrwt beam="2">  1       -2 0.51380132E-01 0.70516350E+03</pdfrwt>
<totfact> 0.47045253E+01</totfact>
</mgrwt>
</event>
<event>
 4    5  0.7289609E-008  0.7581126E+03  0.7818608E-02  0.9810018E-01
         -2   -1    0    0    0  501 -0.00000000000E+00  0.00000000000E+00  0.12327548503E+04  0.12327548503E+04  0.25500000000E-02 0.  1.
          2   -1    0    0  501    0  0.00000000000E+00 -0.00000000000E+00 -0.12019711379E+04  0.12019711379E+04  0.25500000000E-02 0. -1.
    8880023    1    1    2    0    0  0.32351800280E+03  0.19042223665E+03  0.10745192343E+04  0.13150385232E+04  0.65864270000E+03 0.  1.
    8880022    1    1    2    0    0 -0.32351800280E+03 -0.19042223665E+03 -0.10437355220E+04  0.11196874650E+04  0.15294330000E+03 0.  0.
<mgrwt>
<rscale>  0 0.64827658E+03</rscale>
<asrwt>0</asrwt>
<pdfrwt beam="1">  1        2 0.18491864E+00 0.75811261E+03</pdfrwt>
<pdfrwt beam="2">  1       -2 0.18965459E+00 0.75811261E+03</pdfrwt>
<totfact> 0.30149643E+00</totfact>
</mgrwt>
</event>
<event>
 4    5  0.7289609E-008  0.9201281E+03  0.7818608E-02  0.9494463E-01
          2   -1    0    0  501    0  0.00000000000E+00  0.00000000000E+00  0.19239859141E+04  0.19239859141E+04  0.25500000000E-02 0. -1.
         -2   -1    0    0    0  501 -0.00000000000E+00 -0.00000000000E+00 -0.87159685625E+03  0.87159685626E+03  0.25500000000E-02 0.  1.
    8880023    1    1    2    0    0  0.62522117170E+03 -0.14806774206E+03 -0.54333692838E+03  0.10685741873E+04  0.65864270000E+03 0.  1.
    8880022    1    1    2    0    0 -0.62522117170E+03  0.14806774206E+03  0.15957259862E+04  0.17270085830E+04  0.15294330000E+03 0.  0.
<mgrwt>
<rscale>  0 0.84693305E+03</rscale>
<asrwt>0</asrwt>
<pdfrwt beam="1">  1        2 0.29599783E+00 0.92012813E+03</pdfrwt>
<pdfrwt beam="2">  1       -2 0.13409183E+00 0.92012813E+03</pdfrwt>
<totfact> 0.29795379E+00</totfact>
</mgrwt>
</event>
<event>
 4    5  0.7289609E-008  0.7780312E+03  0.7818608E-02  0.9760482E-01
          2   -1    0    0  501    0  0.00000000000E+00  0.00000000000E+00  0.15381042563E+04  0.15381042563E+04  0.25500000000E-02 0. -1.
         -2   -1    0    0    0  501 -0.00000000000E+00 -0.00000000000E+00 -0.93900558670E+03  0.93900558670E+03  0.25500000000E-02 0.  1.
    8880023    1    1    2    0    0 -0.20021131427E+03 -0.36254353392E+03 -0.73594757200E+03  0.10709581782E+04  0.65864270000E+03 0.  0.
    8880022    1    1    2    0    0  0.20021131427E+03  0.36254353392E+03  0.13350462416E+04  0.14061516649E+04  0.15294330000E+03 0.  0.
<mgrwt>
<rscale>  0 0.67527110E+03</rscale>
<asrwt>0</asrwt>
<pdfrwt beam="1">  1        2 0.23663142E+00 0.77803123E+03</pdfrwt>
<pdfrwt beam="2">  1       -2 0.14446240E+00 0.77803123E+03</pdfrwt>
<totfact> 0.40877406E+00</totfact>
</mgrwt>
</event>
<event>
 4    5  0.7289609E-008  0.7240689E+03  0.7818608E-02  0.9909051E-01
         -2   -1    0    0    0  501 -0.00000000000E+00  0.00000000000E+00  0.48327913882E+03  0.48327913883E+03  0.25500000000E-02 0.  1.
          2   -1    0    0  501    0  0.00000000000E+00 -0.00000000000E+00 -0.14728570244E+04  0.14728570244E+04  0.25500000000E-02 0. -1.
    8880023    1    1    2    0    0  0.22570208963E+03  0.19880663740E+03  0.17394809016E+03  0.74467016636E+03  0.65864270000E+03 0.  1.
    8880022    1    1    2    0    0 -0.22570208963E+03 -0.19880663740E+03 -0.11635259758E+04  0.12114659969E+04  0.15294330000E+03 0.  0.
<mgrwt>
<rscale>  0 0.59824620E+03</rscale>
<asrwt>0</asrwt>
<pdfrwt beam="1">  1        2 0.22659339E+00 0.72406886E+03</pdfrwt>
<pdfrwt beam="2">  1       -2 0.74350637E-01 0.72406886E+03</pdfrwt>
<totfact> 0.21977672E+01</totfact>
</mgrwt>
</event>
<event>
 4    5  0.7289609E-008  0.1625702E+04  0.7818608E-02  0.8825622E-01
          2   -1    0    0  501    0  0.00000000000E+00  0.00000000000E+00  0.25163021938E+04  0.25163021938E+04  0.25500000000E-02 0. -1.
         -2   -1    0    0    0  501 -0.00000000000E+00 -0.00000000000E+00 -0.15592441159E+04  0.15592441159E+04  0.25500000000E-02 0.  1.
    8880023    1    1    2    0    0  0.14278410203E+04 -0.41275415488E+03 -0.76410245466E+03  0.17963181063E+04  0.65864270000E+03 0.  0.
    8880022    1    1    2    0    0 -0.14278410203E+04  0.41275415488E+03  0.17211605325E+04  0.22792282034E+04  0.15294330000E+03 0.  0.
<mgrwt>
<rscale>  0 0.15917662E+04</rscale>
<asrwt>0</asrwt>
<pdfrwt beam="1">  1        2 0.38712342E+00 0.16257017E+04</pdfrwt>
<pdfrwt beam="2">  1       -2 0.23988371E+00 0.16257017E+04</pdfrwt>
<totfact> 0.23365931E-01</totfact>
</mgrwt>
</event>
<event>
 4    5  0.7289609E-008  0.8143657E+03  0.7818608E-02  0.9680554E-01
         -2   -1    0    0    0  501 -0.00000000000E+00  0.00000000000E+00  0.53102138255E+03  0.53102138256E+03  0.25500000000E-02 0.  1.
          2   -1    0    0  501    0  0.00000000000E+00 -0.00000000000E+00 -0.17855220280E+04  0.17855220280E+04  0.25500000000E-02 0. -1.
    8880023    1    1    2    0    0 -0.47816121295E+03  0.27259248547E+02  0.14705818347E+03  0.82753702503E+03  0.65864270000E+03 0.  1.
    8880022    1    1    2    0    0  0.47816121295E+03 -0.27259248547E+02 -0.14015588289E+04  0.14890063855E+04  0.15294330000E+03 0.  0.
<mgrwt>
<rscale>  0 0.72186485E+03</rscale>
<asrwt>0</asrwt>
<pdfrwt beam="1">  1        2 0.27469569E+00 0.81436565E+03</pdfrwt>
<pdfrwt beam="2">  1       -2 0.81695598E-01 0.81436565E+03</pdfrwt>
<totfact> 0.11835846E+01</totfact>
</mgrwt>
</event>
<event>
 4    5  0.7289609E-008  0.1879485E+04  0.7818608E-02  0.8679797E-01
         -2   -1    0    0    0  501 -0.00000000000E+00  0.00000000000E+00  0.16083497309E+04  0.16083497309E+04  0.25500000000E-02 0.  1.
          2   -1    0    0  501    0  0.00000000000E+00 -0.00000000000E+00 -0.31927565871E+04  0.31927565871E+04  0.25500000000E-02 0. -1.
    8880023    1    1    2    0    0 -0.10239559503E+04  0.14318413534E+04  0.61711890044E+03  0.19782066103E+04  0.65864270000E+03 0.  0.
    8880022    1    1    2    0    0  0.10239559503E+04 -0.14318413534E+04 -0.22015257567E+04  0.28228997077E+04  0.15294330000E+03 0.  0.
<mgrwt>
<rscale>  0 0.18506921E+04</rscale>
<asrwt>0</asrwt>
<pdfrwt beam="1">  1        2 0.49119332E+00 0.18794855E+04</pdfrwt>
<pdfrwt beam="2">  1       -2 0.24743842E+00 0.18794855E+04</pdfrwt>
<totfact> 0.78581671E-02</totfact>
</mgrwt>
</event>
<event>
 4    5  0.7289609E-008  0.9005155E+03  0.7818608E-02  0.9525204E-01
         -2   -1    0    0    0  501 -0.00000000000E+00  0.00000000000E+00  0.19281380526E+04  0.19281380526E+04  0.25500000000E-02 0.  1.
          2   -1    0    0  501    0  0.00000000000E+00 -0.00000000000E+00 -0.13426702586E+04  0.13426702586E+04  0.25500000000E-02 0. -1.
    8880023    1    1    2    0    0 -0.20480591589E+03  0.57894091236E+03  0.17371579822E+04  0.19566926444E+04  0.65864270000E+03 0.  1.
    8880022    1    1    2    0    0  0.20480591589E+03 -0.57894091236E+03 -0.11516901882E+04  0.13141156669E+04  0.15294330000E+03 0.  0.
<mgrwt>
<rscale>  0 0.82450832E+03</rscale>
<asrwt>0</asrwt>
<pdfrwt beam="1">  1        2 0.20656466E+00 0.90051555E+03</pdfrwt>
<pdfrwt beam="2">  1       -2 0.29663662E+00 0.90051555E+03</pdfrwt>
<totfact> 0.53110319E-01</totfact>
</mgrwt>
</event>
<event>
 4    5  0.7289609E-008  0.7590420E+03  0.7818608E-02  0.9807594E-01
          2   -1    0    0  501    0  0.00000000000E+00  0.00000000000E+00  0.12701842885E+04  0.12701842885E+04  0.25500000000E-02 0. -1.
         -2   -1    0    0    0  501 -0.00000000000E+00 -0.00000000000E+00 -0.41997692157E+03  0.41997692157E+03  0.25500000000E-02 0.  1.
    8880023    1    1    2    0    0 -0.18418808362E+03  0.32925561731E+03  0.12918788432E+02  0.75915190379E+03  0.65864270000E+03 0.  0.
    8880022    1    1    2    0    0  0.18418808362E+03 -0.32925561731E+03  0.83728857848E+03  0.93100930626E+03  0.15294330000E+03 0.  0.
<mgrwt>
<rscale>  0 0.64956592E+03</rscale>
<asrwt>0</asrwt>
<pdfrwt beam="1">  1        2 0.19541296E+00 0.75904197E+03</pdfrwt>
<pdfrwt beam="2">  1       -2 0.64611835E-01 0.75904197E+03</pdfrwt>
<totfact> 0.38754764E+01</totfact>
</mgrwt>
</event>
<event>
 4    5  0.7289609E-008  0.7366009E+03  0.7818608E-02  0.9869961E-01
          2   -1    0    0  501    0  0.00000000000E+00  0.00000000000E+00  0.13958638470E+04  0.13958638470E+04  0.25500000000E-02 0. -1.
         -2   -1    0    0    0  501 -0.00000000000E+00 -0.00000000000E+00 -0.56043544364E+03  0.56043544365E+03  0.25500000000E-02 0.  1.
    8880023    1    1    2    0    0 -0.32964242550E+03  0.10323461761E+02 -0.27624150182E+03  0.78669579645E+03  0.65864270000E+03 0.  1.
    8880022    1    1    2    0    0  0.32964242550E+03 -0.10323461761E+02  0.11116699051E+04  0.11696034942E+04  0.15294330000E+03 0.  0.
<mgrwt>
<rscale>  0 0.61739437E+03</rscale>
<asrwt>0</asrwt>
<pdfrwt beam="1">  1        2 0.21474828E+00 0.73660092E+03</pdfrwt>
<pdfrwt beam="2">  1       -2 0.86220838E-01 0.73660092E+03</pdfrwt>
<totfact> 0.17376610E+01</totfact>
</mgrwt>
</event>
<event>
 4    5  0.7289609E-008  0.1114651E+04  0.7818608E-02  0.9244917E-01
          2   -1    0    0  501    0  0.00000000000E+00  0.00000000000E+00  0.11065545250E+04  0.11065545250E+04  0.25500000000E-02 0. -1.
         -2   -1    0    0    0  501 -0.00000000000E+00 -0.00000000000E+00 -0.16475611700E+04  0.16475611700E+04  0.25500000000E-02 0.  1.
    8880023    1    1    2    0    0 -0.49141566308E+03  0.75309157020E+03 -0.11931561011E+04  0.16328098343E+04  0.65864270000E+03 0.  1.
    8880022    1    1    2    0    0  0.49141566308E+03 -0.75309157020E+03  0.65214945611E+03  0.11213058607E+04  0.15294330000E+03 0.  0.
<mgrwt>
<rscale>  0 0.10601599E+04</rscale>
<asrwt>0</asrwt>
<pdfrwt beam="1">  1        2 0.17023916E+00 0.11146508E+04</pdfrwt>
<pdfrwt beam="2">  1       -2 0.25347095E+00 0.11146508E+04</pdfrwt>
<totfact> 0.12981052E+00</totfact>
</mgrwt>
</event>
