<LesHouchesEvents version="3.0">
<header>
<!--
#*********************************************************************
#                                                                    *
#                        MadGraph5_aMC@NLO                           *
#                                                                    *
#                           Going Beyond                             *
#                                                                    *
#                   http://madgraph.hep.uiuc.edu                     *
#                   http://madgraph.phys.ucl.ac.be                   *
#                   http://amcatnlo.cern.ch                          *
#                                                                    *
#                     The MadGraph5_aMC@NLO team                     *
#                                                                    *
#....................................................................*
#                                                                    *
# This file contains all the information necessary to reproduce      *
# the events generated:                                              *
#                                                                    *
# 1. software version                                                *
# 2. proc_card          : code generation info including model       *
# 3. param_card         : model primary parameters in the LH format  *
# 4. run_card           : running parameters (collider and cuts)     *
# 5. pythia_card        : present only if pythia has been run        *
# 6. pgs_card           : present only if pgs has been run           *
# 7. delphes_cards      : present only if delphes has been run       *
#                                                                    *
#                                                                    *
#*********************************************************************
-->
<MGVersion>
#2.6.2
</MGVersion>
<MG5ProcCard>
<![CDATA[
#************************************************************
#*                     MadGraph5_aMC@NLO                    *
#*                                                          *
#*                *                       *                 *
#*                  *        * *        *                   *
#*                    * * * * 5 * * * *                     *
#*                  *        * *        *                   *
#*                *                       *                 *
#*                                                          *
#*                                                          *
#*         VERSION 2.6.2                 2018-04-29         *
#*                                                          *
#*    The MadGraph5_aMC@NLO Development Team - Find us at   *
#*    https://server06.fynu.ucl.ac.be/projects/madgraph     *
#*                                                          *
#************************************************************
#*                                                          *
#*               Command File for MadGraph5_aMC@NLO         *
#*                                                          *
#*     run as ./bin/mg5_aMC  filename                       *
#*                                                          *
#************************************************************
set default_unset_couplings 99
set group_subprocesses Auto
set ignore_six_quark_processes False
set loop_optimized_output True
set loop_color_flows False
set gauge unitary
set complex_mass_scheme False
set max_npoint_for_channel 0
import model sm
define p = g u c d s u~ c~ d~ s~
define j = g u c d s u~ c~ d~ s~
define l+ = e+ mu+
define l- = e- mu-
define vl = ve vm vt
define vl~ = ve~ vm~ vt~
generate p p > t t~ @2
add process p p > w+ w- @3
output combottww
]]>
</MG5ProcCard>
<MGProcCard>
<![CDATA[
#*********************************************************************
#                        MadGraph/MadEvent                           *
#                   http://madgraph.hep.uiuc.edu                     *
#                                                                    *
#                          proc_card.dat                             *
#*********************************************************************
#                                                                    *
#            This Files is generated by MADGRAPH 5                   *
#                                                                    *
# WARNING: This Files is generated for MADEVENT (compatibility issue)*
#          This files is NOT a valid MG4 proc_card.dat               *
#          Running this in MG4 will NEVER reproduce the result of MG5*
#                                                                    *
#*********************************************************************
#*********************************************************************
# Process(es) requested : mg2 input                                  *
#*********************************************************************
# Begin PROCESS # This is TAG. Do not modify this line
p p > t t~ @2           #Process
# Be carefull the coupling are here in MG5 convention
          
end_coup           # End the couplings input

done               # this tells MG there are no more procs
# End PROCESS  # This is TAG. Do not modify this line
#*********************************************************************
# Model information                                                  *
#*********************************************************************
# Begin MODEL  # This is TAG. Do not modify this line
sm
# End   MODEL  # This is TAG. Do not modify this line
#*********************************************************************
# Start multiparticle definitions                                    *
#*********************************************************************
# Begin MULTIPARTICLES # This is TAG. Do not modify this line

# End  MULTIPARTICLES # This is TAG. Do not modify this line
]]>
</MGProcCard>
<MGRunCard>
<![CDATA[
#*********************************************************************
#                       MadGraph5_aMC@NLO                            *
#                                                                    *
#                     run_card.dat MadEvent                          *
#                                                                    *
#  This file is used to set the parameters of the run.               *
#                                                                    *
#  Some notation/conventions:                                        *
#                                                                    *
#   Lines starting with a '# ' are info or comments                  *
#                                                                    *
#   mind the format:   value    = variable     ! comment             *
#                                                                    *
#   To display more options, you can type the command:               *
*      update full_run_card                                          *
#*********************************************************************
#
#*******************                                                 
# Running parameters
#*******************                                                 
#                                                                    
#*********************************************************************
# Tag name for the run (one word)                                    *
#*********************************************************************
  tag_1     = run_tag ! name of the run 
#*********************************************************************
# Number of events and rnd seed                                      *
# Warning: Do not generate more than 1M events in a single run       *
# If you want to run Pythia, avoid more than 50k events in a run.    *
#*********************************************************************
  1000 = nevents ! Number of unweighted events requested 
 39 = iseed   ! rnd seed (0=assigned automatically=default))
#*********************************************************************
# Collider type and energy                                           *
# lpp: 0=No PDF, 1=proton, -1=antiproton, 2=photon from proton,      *
#                                         3=photon from electron     *
#*********************************************************************
     1        = lpp1    ! beam 1 type 
     1        = lpp2    ! beam 2 type
     6500.0     = ebeam1  ! beam 1 total energy in GeV
     6500.0     = ebeam2  ! beam 2 total energy in GeV
# To see polarised beam options: type "update beam_pol"
#*********************************************************************
# PDF CHOICE: this automatically fixes also alpha_s and its evol.    *
#*********************************************************************
     nn23lo1    = pdlabel     ! PDF set                                     
     230000    = lhaid     ! if pdlabel=lhapdf, this is the lhapdf number
# To see heavy ion options: type "update ion_pdf"
#*********************************************************************
# Renormalization and factorization scales                           *
#*********************************************************************
 False = fixed_ren_scale  ! if .true. use fixed ren scale
 False        = fixed_fac_scale  ! if .true. use fixed fac scale
 91.188  = scale            ! fixed ren scale
 91.188  = dsqrt_q2fact1    ! fixed fact scale for pdf1
 91.188  = dsqrt_q2fact2    ! fixed fact scale for pdf2
 -1 = dynamical_scale_choice ! Choose one of the preselected dynamical choices
 1.0  = scalefact        ! scale factor for event-by-event scales
#*********************************************************************
# Type and output format
#*********************************************************************
  False     = gridpack  !True = setting up the grid pack
  -1.0 = time_of_flight ! threshold (in mm) below which the invariant livetime is not written (-1 means not written)
  3.0 = lhe_version       ! Change the way clustering information pass to shower.        
  True = clusinfo         ! include clustering tag in output
  average =  event_norm       ! average/sum. Normalization of the weight in the LHEF

#*********************************************************************
# Matching parameter (MLM only)
#*********************************************************************
 0 = ickkw            ! 0 no matching, 1 MLM
 1.0 = alpsfact         ! scale factor for QCD emission vx
 False = chcluster        ! cluster only according to channel diag
 4 = asrwgtflavor     ! highest quark flavor for a_s reweight
 False  = auto_ptj_mjj  ! Automatic setting of ptj and mjj if xqcut >0
                                   ! (turn off for VBF and single top processes) 
 0.0   = xqcut   ! minimum kt jet measure between partons
#*********************************************************************
#
#*********************************************************************
# handling of the helicities:
#  0: sum over all helicities
#  1: importance sampling over helicities
#*********************************************************************
   0  = nhel          ! using helicities importance sampling or not.
#*********************************************************************
# Generation bias, check the wiki page below for more information:   *
#  'cp3.irmp.ucl.ac.be/projects/madgraph/wiki/LOEventGenerationBias' *
#*********************************************************************
 None = bias_module  ! Bias type of bias, [None, ptj_bias, -custom_folder-]
 {} = bias_parameters ! Specifies the parameters of the module.
#
#*******************************                                                 
# Parton level cuts definition *
#*******************************                                     
#                                                                    
#
#*********************************************************************
# BW cutoff (M+/-bwcutoff*Gamma) ! Define on/off-shell for "$" and decay  
#*********************************************************************
  15.0  = bwcutoff      ! (M+/-bwcutoff*Gamma)
#*********************************************************************
# Apply pt/E/eta/dr/mij/kt_durham cuts on decay products or not
# (note that etmiss/ptll/ptheavy/ht/sorted cuts always apply)
#*********************************************************************
   False  = cut_decays    ! Cut decay products 
#*********************************************************************
# Standard Cuts                                                      *
#*********************************************************************
# Minimum and maximum pt's (for max, -1 means no cut)                *
#*********************************************************************
 20.0  = ptj       ! minimum pt for the jets 
 0.0  = ptb       ! minimum pt for the b 
 10.0  = pta       ! minimum pt for the photons 
 10.0  = ptl       ! minimum pt for the charged leptons 
 0.0  = misset    ! minimum missing Et (sum of neutrino's momenta)
 -1.0  = ptjmax    ! maximum pt for the jets
 -1.0  = ptbmax    ! maximum pt for the b
 -1.0  = ptamax    ! maximum pt for the photons
 -1.0  = ptlmax    ! maximum pt for the charged leptons
 -1.0  = missetmax ! maximum missing Et (sum of neutrino's momenta)
 {} = pt_min_pdg ! pt cut for other particles (use pdg code). Applied on particle and anti-particle
 {}	= pt_max_pdg ! pt cut for other particles (syntax e.g. {6: 100, 25: 50}) 
#*********************************************************************
# Minimum and maximum E's (in the center of mass frame)              *
#*********************************************************************
  0.0  = ej     ! minimum E for the jets 
  0.0  = eb     ! minimum E for the b 
  0.0  = ea     ! minimum E for the photons 
  0.0  = el     ! minimum E for the charged leptons 
  -1.0   = ejmax ! maximum E for the jets
 -1.0   = ebmax ! maximum E for the b
 -1.0   = eamax ! maximum E for the photons
 -1.0   = elmax ! maximum E for the charged leptons
 {} = e_min_pdg ! E cut for other particles (use pdg code). Applied on particle and anti-particle
 {} = e_max_pdg ! E cut for other particles (syntax e.g. {6: 100, 25: 50}) 
#*********************************************************************
# Maximum and minimum absolute rapidity (for max, -1 means no cut)   *
#*********************************************************************
  5.0 = etaj    ! max rap for the jets 
  -1.0  = etab    ! max rap for the b
 2.5  = etaa    ! max rap for the photons 
 2.5  = etal    ! max rap for the charged leptons 
 0.0  = etajmin ! min rap for the jets
 0.0  = etabmin ! min rap for the b
 0.0  = etaamin ! min rap for the photons
 0.0  = etalmin ! main rap for the charged leptons
 {} = eta_min_pdg ! rap cut for other particles (use pdg code). Applied on particle and anti-particle
 {} = eta_max_pdg ! rap cut for other particles (syntax e.g. {6: 2.5, 23: 5})
#*********************************************************************
# Minimum and maximum DeltaR distance                                *
#*********************************************************************
 0.4 = drjj    ! min distance between jets 
 0.0   = drbb    ! min distance between b's 
 0.4 = drll    ! min distance between leptons 
 0.4 = draa    ! min distance between gammas 
 0.0   = drbj    ! min distance between b and jet 
 0.4 = draj    ! min distance between gamma and jet 
 0.4 = drjl    ! min distance between jet and lepton 
 0.0   = drab    ! min distance between gamma and b 
 0.0   = drbl    ! min distance between b and lepton 
 0.4 = dral    ! min distance between gamma and lepton 
 -1.0  = drjjmax ! max distance between jets
 -1.0  = drbbmax ! max distance between b's
 -1.0  = drllmax ! max distance between leptons
 -1.0  = draamax ! max distance between gammas
 -1.0  = drbjmax ! max distance between b and jet
 -1.0  = drajmax ! max distance between gamma and jet
 -1.0  = drjlmax ! max distance between jet and lepton
 -1.0  = drabmax ! max distance between gamma and b
 -1.0  = drblmax ! max distance between b and lepton
 -1.0  = dralmax ! maxdistance between gamma and lepton
#*********************************************************************
# Minimum and maximum invariant mass for pairs                       *
# WARNING: for four lepton final state mmll cut require to have      *
#          different lepton masses for each flavor!                  *           
#*********************************************************************
 0.0   = mmjj    ! min invariant mass of a jet pair 
 0.0   = mmbb    ! min invariant mass of a b pair 
 0.0   = mmaa    ! min invariant mass of gamma gamma pair
 0.0   = mmll    ! min invariant mass of l+l- (same flavour) lepton pair
 -1.0  = mmjjmax ! max invariant mass of a jet pair
 -1.0  = mmbbmax ! max invariant mass of a b pair
 -1.0  = mmaamax ! max invariant mass of gamma gamma pair
 -1.0  = mmllmax ! max invariant mass of l+l- (same flavour) lepton pair
 {} = mxx_min_pdg ! min invariant mass of a pair of particles X/X~ (e.g. {6:250})
 {'default': False} = mxx_only_part_antipart ! if True the invariant mass is applied only 
                       ! to pairs of particle/antiparticle and not to pairs of the same pdg codes.  
#*********************************************************************
# Minimum and maximum invariant mass for all letpons                 *
#*********************************************************************
 0.0   = mmnl    ! min invariant mass for all letpons (l+- and vl) 
 -1.0  = mmnlmax ! max invariant mass for all letpons (l+- and vl) 
#*********************************************************************
# Minimum and maximum pt for 4-momenta sum of leptons                *
#*********************************************************************
 0.0   = ptllmin  ! Minimum pt for 4-momenta sum of leptons(l and vl)
 -1.0  = ptllmax  ! Maximum pt for 4-momenta sum of leptons(l and vl)
#*********************************************************************
# Inclusive cuts                                                     *
#*********************************************************************
 0.0  = ptheavy   ! minimum pt for at least one heavy final state
 0.0  = xptj ! minimum pt for at least one jet  
 0.0  = xptb ! minimum pt for at least one b 
 0.0  = xpta ! minimum pt for at least one photon 
 0.0  = xptl ! minimum pt for at least one charged lepton 
#*********************************************************************
# Control the pt's of the jets sorted by pt                          *
#*********************************************************************
 0.0   = ptj1min ! minimum pt for the leading jet in pt
 0.0   = ptj2min ! minimum pt for the second jet in pt
 0.0   = ptj3min ! minimum pt for the third jet in pt
 0.0   = ptj4min ! minimum pt for the fourth jet in pt
 -1.0  = ptj1max ! maximum pt for the leading jet in pt 
 -1.0  = ptj2max ! maximum pt for the second jet in pt
 -1.0  = ptj3max ! maximum pt for the third jet in pt
 -1.0  = ptj4max ! maximum pt for the fourth jet in pt
 0   = cutuse  ! reject event if fails any (0) / all (1) jet pt cuts
#*********************************************************************
# Control the pt's of leptons sorted by pt                           *
#*********************************************************************
 0.0   = ptl1min ! minimum pt for the leading lepton in pt
 0.0   = ptl2min ! minimum pt for the second lepton in pt
 0.0   = ptl3min ! minimum pt for the third lepton in pt
 0.0   = ptl4min ! minimum pt for the fourth lepton in pt
 -1.0  = ptl1max ! maximum pt for the leading lepton in pt 
 -1.0  = ptl2max ! maximum pt for the second lepton in pt
 -1.0  = ptl3max ! maximum pt for the third lepton in pt
 -1.0  = ptl4max ! maximum pt for the fourth lepton in pt
#*********************************************************************
# Control the Ht(k)=Sum of k leading jets                            *
#*********************************************************************
 0.0   = htjmin ! minimum jet HT=Sum(jet pt)
 -1.0  = htjmax ! maximum jet HT=Sum(jet pt)
 0.0   = ihtmin  !inclusive Ht for all partons (including b)
 -1.0  = ihtmax  !inclusive Ht for all partons (including b)
 0.0   = ht2min ! minimum Ht for the two leading jets
 0.0   = ht3min ! minimum Ht for the three leading jets
 0.0   = ht4min ! minimum Ht for the four leading jets
 -1.0  = ht2max ! maximum Ht for the two leading jets
 -1.0  = ht3max ! maximum Ht for the three leading jets
 -1.0  = ht4max ! maximum Ht for the four leading jets
#***********************************************************************
# Photon-isolation cuts, according to hep-ph/9801442                   *
# When ptgmin=0, all the other parameters are ignored                  *
# When ptgmin>0, pta and draj are not going to be used                 *
#***********************************************************************
 0.0 = ptgmin ! Min photon transverse momentum
 0.4 = R0gamma ! Radius of isolation code
 1.0 = xn ! n parameter of eq.(3.4) in hep-ph/9801442
 1.0 = epsgamma ! epsilon_gamma parameter of eq.(3.4) in hep-ph/9801442
 True = isoEM ! isolate photons from EM energy (photons and leptons)
#*********************************************************************
# WBF cuts                                                           *
#*********************************************************************
 0.0   = xetamin ! minimum rapidity for two jets in the WBF case  
 0.0   = deltaeta ! minimum rapidity for two jets in the WBF case 
#***********************************************************************
# Turn on either the ktdurham or ptlund cut to activate                *
# CKKW(L) merging with Pythia8 [arXiv:1410.3012, arXiv:1109.4829]      *
#***********************************************************************
 -1.0  =  ktdurham        
 0.4   =  dparameter
 -1.0  =  ptlund
 1, 2, 3, 4, 5, 6, 21  =  pdgs_for_merging_cut ! PDGs for two cuts above   
#*********************************************************************
# maximal pdg code for quark to be considered as a light jet         *
# (otherwise b cuts are applied)                                     *
#*********************************************************************
 4 = maxjetflavor    ! Maximum jet pdg code
#*********************************************************************
#
#*********************************************************************
# Store info for systematics studies                                 *
# WARNING: Do not use for interference type of computation           *
#*********************************************************************
   True  = use_syst      ! Enable systematics studies
#
systematics = systematics_program ! none, systematics [python], SysCalc [depreceted, C++]
['--mur=0.5,1,2', '--muf=0.5,1,2', '--pdf=errorset'] = systematics_arguments ! see: https://cp3.irmp.ucl.ac.be/projects/madgraph/wiki/Systematics#Systematicspythonmodule
# Syscalc is deprecated but to see the associate options type'update syscalc'
]]>
</MGRunCard>
<slha>
######################################################################
## PARAM_CARD AUTOMATICALY GENERATED BY MG5 FOLLOWING UFO MODEL   ####
######################################################################
##                                                                  ##
##  Width set on Auto will be computed following the information    ##
##        present in the decay.py files of the model.               ##
##        See  arXiv:1402.1178 for more details.                    ##
##                                                                  ##
######################################################################

###################################
## INFORMATION FOR MASS
###################################
Block mass 
    5 4.700000e+00 # MB 
    6 1.730000e+02 # MT 
   15 1.777000e+00 # MTA 
   23 9.118800e+01 # MZ 
   25 1.250000e+02 # MH 
## Dependent parameters, given by model restrictions.
## Those values should be edited following the 
## analytical expression. MG5 ignores those values 
## but they are important for interfacing the output of MG5
## to external program such as Pythia.
  1 0.000000 # d : 0.0 
  2 0.000000 # u : 0.0 
  3 0.000000 # s : 0.0 
  4 0.000000 # c : 0.0 
  11 0.000000 # e- : 0.0 
  12 0.000000 # ve : 0.0 
  13 0.000000 # mu- : 0.0 
  14 0.000000 # vm : 0.0 
  16 0.000000 # vt : 0.0 
  21 0.000000 # g : 0.0 
  22 0.000000 # a : 0.0 
  24 80.419002 # w+ : cmath.sqrt(MZ__exp__2/2. + cmath.sqrt(MZ__exp__4/4. - (aEW*cmath.pi*MZ__exp__2)/(Gf*sqrt__2))) 

###################################
## INFORMATION FOR SMINPUTS
###################################
Block sminputs 
    1 1.325070e+02 # aEWM1 
    2 1.166390e-05 # Gf 
    3 1.180000e-01 # aS 

###################################
## INFORMATION FOR YUKAWA
###################################
Block yukawa 
    5 4.700000e+00 # ymb 
    6 1.730000e+02 # ymt 
   15 1.777000e+00 # ymtau 

###################################
## INFORMATION FOR DECAY
###################################
DECAY   6 1.491500e+00 # WT 
DECAY  23 2.441404e+00 # WZ 
DECAY  24 2.047600e+00 # WW 
DECAY  25 6.382339e-03 # WH 
## Dependent parameters, given by model restrictions.
## Those values should be edited following the 
## analytical expression. MG5 ignores those values 
## but they are important for interfacing the output of MG5
## to external program such as Pythia.
DECAY  1 0.000000 # d : 0.0 
DECAY  2 0.000000 # u : 0.0 
DECAY  3 0.000000 # s : 0.0 
DECAY  4 0.000000 # c : 0.0 
DECAY  5 0.000000 # b : 0.0 
DECAY  11 0.000000 # e- : 0.0 
DECAY  12 0.000000 # ve : 0.0 
DECAY  13 0.000000 # mu- : 0.0 
DECAY  14 0.000000 # vm : 0.0 
DECAY  15 0.000000 # ta- : 0.0 
DECAY  16 0.000000 # vt : 0.0 
DECAY  21 0.000000 # g : 0.0 
DECAY  22 0.000000 # a : 0.0
</slha>
<MGGenerationInfo>
#  Number of Events        :       1000
#  Integrated weight (pb)  :       563.0539
</MGGenerationInfo>
</header>
<init>
2212 2212 6.500000e+03 6.500000e+03 0 0 247000 247000 -4 2
5.755990e+01 5.623246e-01 5.630539e+02 3
5.054940e+02 1.773964e+00 5.630539e+02 2
<generator name='MadGraph5_aMC@NLO' version='2.6.2'>please cite 1405.0301 </generator>
</init>
<event>
 4      2 +5.6305390e+02 1.80776300e+02 7.54677100e-03 1.16705400e-01
       21 -1    0    0  501  502 +0.0000000000e+00 +0.0000000000e+00 +2.6579633790e+02 2.6579633790e+02 0.0000000000e+00 0.0000e+00 1.0000e+00
       21 -1    0    0  502  503 -0.0000000000e+00 -0.0000000000e+00 -1.3424446628e+02 1.3424446628e+02 0.0000000000e+00 0.0000e+00 1.0000e+00
        6  1    1    2  501    0 +1.0993683750e+01 +5.1285489416e+01 +1.2378953647e+02 2.1909795035e+02 1.7300000000e+02 0.0000e+00 1.0000e+00
       -6  1    1    2    0  503 -1.0993683750e+01 -5.1285489416e+01 +7.7623351593e+00 1.8094285384e+02 1.7300000000e+02 0.0000e+00 1.0000e+00
<mgrwt>
<rscale>  2 0.18077628E+03</rscale>
<asrwt>0</asrwt>
<pdfrwt beam="1">  1       21 0.40891744E-01 0.18077628E+03</pdfrwt>
<pdfrwt beam="2">  1       21 0.20652995E-01 0.18077628E+03</pdfrwt>
<totfact> 0.12573204E+05</totfact>
</mgrwt>
</event>
<event>
 4      2 +5.6305390e+02 1.82657700e+02 7.54677100e-03 1.16525500e-01
        2 -1    0    0  502    0 +0.0000000000e+00 +0.0000000000e+00 +3.8765496787e+02 3.8765496787e+02 0.0000000000e+00 0.0000e+00 -1.0000e+00
       -2 -1    0    0    0  501 -0.0000000000e+00 -0.0000000000e+00 -2.1219725307e+02 2.1219725307e+02 0.0000000000e+00 0.0000e+00 1.0000e+00
        6  1    1    2  502    0 -5.6986090318e+01 -1.3690609104e+01 +3.1896517325e+02 3.6756309528e+02 1.7300000000e+02 0.0000e+00 -1.0000e+00
       -6  1    1    2    0  501 +5.6986090318e+01 +1.3690609104e+01 -1.4350745845e+02 2.3228912565e+02 1.7300000000e+02 0.0000e+00 1.0000e+00
<mgrwt>
<rscale>  2 0.18265773E+03</rscale>
<asrwt>0</asrwt>
<pdfrwt beam="1">  1        2 0.59639226E-01 0.18265773E+03</pdfrwt>
<pdfrwt beam="2">  1       -2 0.32645731E-01 0.18265773E+03</pdfrwt>
<totfact> 0.72399797E+02</totfact>
</mgrwt>
</event>
<event>
 4      2 +5.6305390e+02 3.52786800e+02 7.54677100e-03 1.06147700e-01
       21 -1    0    0  501  502 +0.0000000000e+00 +0.0000000000e+00 +7.6903852696e+02 7.6903852696e+02 0.0000000000e+00 0.0000e+00 -1.0000e+00
       21 -1    0    0  502  503 -0.0000000000e+00 -0.0000000000e+00 -1.7356411855e+02 1.7356411855e+02 0.0000000000e+00 0.0000e+00 1.0000e+00
        6  1    1    2  501    0 -3.0740137144e+02 +5.8270835016e+00 +4.2024741554e+02 5.4869522353e+02 1.7300000000e+02 0.0000e+00 -1.0000e+00
       -6  1    1    2    0  503 +3.0740137144e+02 -5.8270835016e+00 +1.7522699287e+02 3.9390742198e+02 1.7300000000e+02 0.0000e+00 1.0000e+00
<mgrwt>
<rscale>  2 0.35278685E+03</rscale>
<asrwt>0</asrwt>
<pdfrwt beam="1">  1       21 0.11831362E+00 0.35278685E+03</pdfrwt>
<pdfrwt beam="2">  1       21 0.26702173E-01 0.35278685E+03</pdfrwt>
<totfact> 0.66649353E+03</totfact>
</mgrwt>
</event>
<event>
 4      2 +5.6305390e+02 1.82493300e+02 7.54677100e-03 1.16541200e-01
       21 -1    0    0  503  502 +0.0000000000e+00 +0.0000000000e+00 +1.9402393673e+02 1.9402393673e+02 0.0000000000e+00 0.0000e+00 -1.0000e+00
       21 -1    0    0  501  503 -0.0000000000e+00 -0.0000000000e+00 -1.7209149198e+02 1.7209149198e+02 0.0000000000e+00 0.0000e+00 -1.0000e+00
        6  1    1    2  501    0 -1.1039451442e+00 -5.8082479777e+01 +2.0260608501e+01 1.8361450217e+02 1.7300000000e+02 0.0000e+00 -1.0000e+00
       -6  1    1    2    0  502 +1.1039451442e+00 +5.8082479777e+01 +1.6718362503e+00 1.8250092654e+02 1.7300000000e+02 0.0000e+00 -1.0000e+00
<mgrwt>
<rscale>  2 0.18249327E+03</rscale>
<asrwt>0</asrwt>
<pdfrwt beam="1">  1       21 0.29849836E-01 0.18249327E+03</pdfrwt>
<pdfrwt beam="2">  1       21 0.26475614E-01 0.18249327E+03</pdfrwt>
<totfact> 0.14652121E+05</totfact>
</mgrwt>
</event>
<event>
 4      2 +5.6305390e+02 2.28202200e+02 7.54677100e-03 1.12791200e-01
       21 -1    0    0  503  502 +0.0000000000e+00 +0.0000000000e+00 +9.6299427725e+01 9.6299427725e+01 0.0000000000e+00 0.0000e+00 1.0000e+00
       21 -1    0    0  501  503 -0.0000000000e+00 -0.0000000000e+00 -8.1474784596e+02 8.1474784596e+02 0.0000000000e+00 0.0000e+00 -1.0000e+00
        6  1    1    2  501    0 +1.1869555767e+02 -8.9769639105e+01 -6.2337619879e+02 6.6383289217e+02 1.7300000000e+02 0.0000e+00 -1.0000e+00
       -6  1    1    2    0  502 -1.1869555767e+02 +8.9769639105e+01 -9.5072219449e+01 2.4721438151e+02 1.7300000000e+02 0.0000e+00 1.0000e+00
<mgrwt>
<rscale>  2 0.22820215E+03</rscale>
<asrwt>0</asrwt>
<pdfrwt beam="1">  1       21 0.14815297E-01 0.22820215E+03</pdfrwt>
<pdfrwt beam="2">  1       21 0.12534582E+00 0.22820215E+03</pdfrwt>
<totfact> 0.18592141E+04</totfact>
</mgrwt>
</event>
<event>
 4      2 +5.6305390e+02 1.77036800e+02 7.54677100e-03 1.17070200e-01
       21 -1    0    0  501  502 +0.0000000000e+00 +0.0000000000e+00 +1.4342413982e+02 1.4342413982e+02 0.0000000000e+00 0.0000e+00 -1.0000e+00
       21 -1    0    0  502  503 -0.0000000000e+00 -0.0000000000e+00 -4.3851667239e+02 4.3851667239e+02 0.0000000000e+00 0.0000e+00 -1.0000e+00
        6  1    1    2  501    0 +2.8917982284e+01 +2.4016315319e+01 +5.8543775549e+01 1.8646556453e+02 1.7300000000e+02 0.0000e+00 -1.0000e+00
       -6  1    1    2    0  503 -2.8917982284e+01 -2.4016315319e+01 -3.5363630812e+02 3.9547524767e+02 1.7300000000e+02 0.0000e+00 -1.0000e+00
<mgrwt>
<rscale>  2 0.17703681E+03</rscale>
<asrwt>0</asrwt>
<pdfrwt beam="1">  1       21 0.22065252E-01 0.17703681E+03</pdfrwt>
<pdfrwt beam="2">  1       21 0.67464103E-01 0.17703681E+03</pdfrwt>
<totfact> 0.38883103E+04</totfact>
</mgrwt>
</event>
<event>
 4      2 +5.6305390e+02 1.77692600e+02 7.54677100e-03 1.17005500e-01
       21 -1    0    0  503  502 +0.0000000000e+00 +0.0000000000e+00 +1.1255517232e+02 1.1255517232e+02 0.0000000000e+00 0.0000e+00 1.0000e+00
       21 -1    0    0  501  503 -0.0000000000e+00 -0.0000000000e+00 -3.1411154858e+02 3.1411154858e+02 0.0000000000e+00 0.0000e+00 1.0000e+00
        6  1    1    2  501    0 +2.6543225915e+01 -3.0677586071e+01 -3.1020389566e+01 1.8037993707e+02 1.7300000000e+02 0.0000e+00 1.0000e+00
       -6  1    1    2    0  502 -2.6543225915e+01 +3.0677586071e+01 -1.7053598670e+02 2.4628678383e+02 1.7300000000e+02 0.0000e+00 1.0000e+00
<mgrwt>
<rscale>  2 0.17769259E+03</rscale>
<asrwt>0</asrwt>
<pdfrwt beam="1">  1       21 0.17316180E-01 0.17769259E+03</pdfrwt>
<pdfrwt beam="2">  1       21 0.48324853E-01 0.17769259E+03</pdfrwt>
<totfact> 0.12399805E+05</totfact>
</mgrwt>
</event>
<event>
 4      2 +5.6305390e+02 2.08538800e+02 7.54677100e-03 1.14272800e-01
       21 -1    0    0  503  502 +0.0000000000e+00 +0.0000000000e+00 +2.3673566603e+02 2.3673566603e+02 0.0000000000e+00 0.0000e+00 -1.0000e+00
       21 -1    0    0  501  503 -0.0000000000e+00 -0.0000000000e+00 -1.1976195262e+03 1.1976195262e+03 0.0000000000e+00 0.0000e+00 -1.0000e+00
        6  1    1    2  501    0 +7.7036488065e+01 -8.7320127467e+01 -1.1403279811e+03 1.1592395480e+03 1.7300000000e+02 0.0000e+00 -1.0000e+00
       -6  1    1    2    0  502 -7.7036488065e+01 +8.7320127467e+01 +1.7944412095e+02 2.7511564422e+02 1.7300000000e+02 0.0000e+00 -1.0000e+00
<mgrwt>
<rscale>  2 0.20853879E+03</rscale>
<asrwt>0</asrwt>
<pdfrwt beam="1">  1       21 0.36420872E-01 0.20853879E+03</pdfrwt>
<pdfrwt beam="2">  1       21 0.18424916E+00 0.20853879E+03</pdfrwt>
<totfact> 0.12178244E+03</totfact>
</mgrwt>
</event>
<event>
 4      2 +5.6305390e+02 2.16392800e+02 7.54677100e-03 1.13660100e-01
       21 -1    0    0  501  502 +0.0000000000e+00 +0.0000000000e+00 +2.5820443472e+02 2.5820443472e+02 0.0000000000e+00 0.0000e+00 1.0000e+00
       21 -1    0    0  502  503 -0.0000000000e+00 -0.0000000000e+00 -2.4179111298e+02 2.4179111298e+02 0.0000000000e+00 0.0000e+00 1.0000e+00
        6  1    1    2  501    0 -3.4753665747e+01 -1.2525585672e+02 +1.3319676318e+02 2.5410081592e+02 1.7300000000e+02 0.0000e+00 1.0000e+00
       -6  1    1    2    0  503 +3.4753665747e+01 +1.2525585672e+02 -1.1678344144e+02 2.4589473179e+02 1.7300000000e+02 0.0000e+00 1.0000e+00
<mgrwt>
<rscale>  2 0.21639281E+03</rscale>
<asrwt>0</asrwt>
<pdfrwt beam="1">  1       21 0.39723759E-01 0.21639281E+03</pdfrwt>
<pdfrwt beam="2">  1       21 0.37198633E-01 0.21639281E+03</pdfrwt>
<totfact> 0.42075477E+04</totfact>
</mgrwt>
</event>
<event>
 4      2 +5.6305390e+02 1.78638800e+02 7.54677100e-03 1.16912700e-01
       21 -1    0    0  501  502 +0.0000000000e+00 +0.0000000000e+00 +8.3102170657e+01 8.3102170657e+01 0.0000000000e+00 0.0000e+00 -1.0000e+00
       21 -1    0    0  502  503 -0.0000000000e+00 -0.0000000000e+00 -3.8414388179e+02 3.8414388179e+02 0.0000000000e+00 0.0000e+00 -1.0000e+00
        6  1    1    2  501    0 -3.5923361955e+00 +4.4383657145e+01 -1.4611056471e+02 2.3078152227e+02 1.7300000000e+02 0.0000e+00 -1.0000e+00
       -6  1    1    2    0  503 +3.5923361955e+00 -4.4383657145e+01 -1.5493114643e+02 2.3646453018e+02 1.7300000000e+02 0.0000e+00 -1.0000e+00
<mgrwt>
<rscale>  2 0.17863878E+03</rscale>
<asrwt>0</asrwt>
<pdfrwt beam="1">  1       21 0.12784950E-01 0.17863878E+03</pdfrwt>
<pdfrwt beam="2">  1       21 0.59099058E-01 0.17863878E+03</pdfrwt>
<totfact> 0.14086809E+05</totfact>
</mgrwt>
</event>
<event>
 4      2 +5.6305390e+02 2.16656400e+02 7.54677100e-03 1.13640100e-01
       21 -1    0    0  501  502 +0.0000000000e+00 +0.0000000000e+00 +4.0554056798e+02 4.0554056798e+02 0.0000000000e+00 0.0000e+00 1.0000e+00
       21 -1    0    0  502  503 -0.0000000000e+00 -0.0000000000e+00 -1.5475167954e+02 1.5475167954e+02 0.0000000000e+00 0.0000e+00 -1.0000e+00
        6  1    1    2  501    0 +1.1729774354e+02 -5.7028545919e+01 +2.6604015857e+02 3.4309966724e+02 1.7300000000e+02 0.0000e+00 1.0000e+00
       -6  1    1    2    0  503 -1.1729774354e+02 +5.7028545919e+01 -1.5251270133e+01 2.1719258028e+02 1.7300000000e+02 0.0000e+00 -1.0000e+00
<mgrwt>
<rscale>  2 0.21665645E+03</rscale>
<asrwt>0</asrwt>
<pdfrwt beam="1">  1       21 0.62390856E-01 0.21665645E+03</pdfrwt>
<pdfrwt beam="2">  1       21 0.23807951E-01 0.21665645E+03</pdfrwt>
<totfact> 0.39116340E+04</totfact>
</mgrwt>
</event>
<event>
 4      2 +5.6305390e+02 2.19449000e+02 7.54677100e-03 1.13429400e-01
       21 -1    0    0  501  502 +0.0000000000e+00 +0.0000000000e+00 +6.7598290414e+02 6.7598290414e+02 0.0000000000e+00 0.0000e+00 1.0000e+00
       21 -1    0    0  502  503 -0.0000000000e+00 -0.0000000000e+00 -7.2471647155e+01 7.2471647155e+01 0.0000000000e+00 0.0000e+00 1.0000e+00
        6  1    1    2  501    0 +9.4713748285e+01 +9.6219457197e+01 +3.5051646666e+02 4.1354524717e+02 1.7300000000e+02 0.0000e+00 1.0000e+00
       -6  1    1    2    0  503 -9.4713748285e+01 -9.6219457197e+01 +2.5299479033e+02 3.3490930413e+02 1.7300000000e+02 0.0000e+00 1.0000e+00
<mgrwt>
<rscale>  2 0.21944903E+03</rscale>
<asrwt>0</asrwt>
<pdfrwt beam="1">  1       21 0.10399737E+00 0.21944903E+03</pdfrwt>
<pdfrwt beam="2">  1       21 0.11149485E-01 0.21944903E+03</pdfrwt>
<totfact> 0.49350615E+04</totfact>
</mgrwt>
</event>
<event>
 4      2 +5.6305390e+02 1.74989500e+02 7.54677100e-03 1.17274200e-01
       21 -1    0    0  501  502 +0.0000000000e+00 +0.0000000000e+00 +5.4948567531e+02 5.4948567531e+02 0.0000000000e+00 0.0000e+00 -1.0000e+00
       21 -1    0    0  502  503 -0.0000000000e+00 -0.0000000000e+00 -1.0306897307e+02 1.0306897307e+02 0.0000000000e+00 0.0000e+00 -1.0000e+00
        6  1    1    2  501    0 -2.5002962870e+01 -8.1966413964e+00 +4.4433693535e+02 4.7755276693e+02 1.7300000000e+02 0.0000e+00 -1.0000e+00
       -6  1    1    2    0  503 +2.5002962870e+01 +8.1966413964e+00 +2.0797668952e+00 1.7500188146e+02 1.7300000000e+02 0.0000e+00 -1.0000e+00
<mgrwt>
<rscale>  2 0.17498952E+03</rscale>
<asrwt>0</asrwt>
<pdfrwt beam="1">  1       21 0.84536256E-01 0.17498952E+03</pdfrwt>
<pdfrwt beam="2">  1       21 0.15856765E-01 0.17498952E+03</pdfrwt>
<totfact> 0.43398606E+04</totfact>
</mgrwt>
</event>
<event>
 4      2 +5.6305390e+02 2.00700800e+02 7.54677100e-03 1.14914900e-01
       21 -1    0    0  503  502 +0.0000000000e+00 +0.0000000000e+00 +1.9964545691e+02 1.9964545691e+02 0.0000000000e+00 0.0000e+00 1.0000e+00
       21 -1    0    0  501  503 -0.0000000000e+00 -0.0000000000e+00 -2.0704292011e+02 2.0704292011e+02 0.0000000000e+00 0.0000e+00 -1.0000e+00
        6  1    1    2  501    0 +9.3695821434e+01 -3.9659773496e+01 -3.6175227119e+01 2.0393492012e+02 1.7300000000e+02 0.0000e+00 -1.0000e+00
       -6  1    1    2    0  502 -9.3695821434e+01 +3.9659773496e+01 +2.8777763912e+01 2.0275345690e+02 1.7300000000e+02 0.0000e+00 1.0000e+00
<mgrwt>
<rscale>  2 0.20070078E+03</rscale>
<asrwt>0</asrwt>
<pdfrwt beam="1">  1       21 0.30714686E-01 0.20070078E+03</pdfrwt>
<pdfrwt beam="2">  1       21 0.31852757E-01 0.20070078E+03</pdfrwt>
<totfact> 0.96145107E+04</totfact>
</mgrwt>
</event>
<event>
 4      2 +5.6305390e+02 2.25702900e+02 7.54677100e-03 1.12970100e-01
       21 -1    0    0  503  502 +0.0000000000e+00 +0.0000000000e+00 +5.8054128730e+01 5.8054128730e+01 0.0000000000e+00 0.0000e+00 -1.0000e+00
       21 -1    0    0  501  503 -0.0000000000e+00 -0.0000000000e+00 -1.1623572608e+03 1.1623572608e+03 0.0000000000e+00 0.0000e+00 -1.0000e+00
        6  1    1    2  501    0 +1.1815414093e+02 -8.3978635101e+01 -8.5423651780e+02 8.8355070059e+02 1.7300000000e+02 0.0000e+00 -1.0000e+00
       -6  1    1    2    0  502 -1.1815414093e+02 +8.3978635101e+01 -2.5006661423e+02 3.3686068890e+02 1.7300000000e+02 0.0000e+00 -1.0000e+00
<mgrwt>
<rscale>  2 0.22570293E+03</rscale>
<asrwt>0</asrwt>
<pdfrwt beam="1">  1       21 0.89314045E-02 0.22570293E+03</pdfrwt>
<pdfrwt beam="2">  1       21 0.17882419E+00 0.22570293E+03</pdfrwt>
<totfact> 0.17930269E+04</totfact>
</mgrwt>
</event>
<event>
 4      2 +5.6305390e+02 1.96257700e+02 7.54677100e-03 1.15293500e-01
       21 -1    0    0  503  502 +0.0000000000e+00 +0.0000000000e+00 +2.6413066726e+01 2.6413066726e+01 0.0000000000e+00 0.0000e+00 1.0000e+00
       21 -1    0    0  501  503 -0.0000000000e+00 -0.0000000000e+00 -1.4596004436e+03 1.4596004436e+03 0.0000000000e+00 0.0000e+00 -1.0000e+00
        6  1    1    2  501    0 -4.6116183812e+01 +8.0382686283e+01 -7.3912286675e+02 7.6473504615e+02 1.7300000000e+02 0.0000e+00 1.0000e+00
       -6  1    1    2    0  502 +4.6116183812e+01 -8.0382686283e+01 -6.9406451009e+02 7.2127846414e+02 1.7300000000e+02 0.0000e+00 -1.0000e+00
<mgrwt>
<rscale>  2 0.19625768E+03</rscale>
<asrwt>0</asrwt>
<pdfrwt beam="1">  1       21 0.40635487E-02 0.19625768E+03</pdfrwt>
<pdfrwt beam="2">  1       21 0.22455392E+00 0.19625768E+03</pdfrwt>
<totfact> 0.35911785E+04</totfact>
</mgrwt>
</event>
<event>
 4      2 +5.6305390e+02 1.79092100e+02 7.54677100e-03 1.16868500e-01
       21 -1    0    0  501  502 +0.0000000000e+00 +0.0000000000e+00 +1.7584752662e+02 1.7584752662e+02 0.0000000000e+00 0.0000e+00 -1.0000e+00
       21 -1    0    0  502  503 -0.0000000000e+00 -0.0000000000e+00 -1.8595715192e+02 1.8595715192e+02 0.0000000000e+00 0.0000e+00 -1.0000e+00
        6  1    1    2  501    0 -4.2052048942e+01 +1.9406073005e+01 -3.0087271200e+01 1.8160180169e+02 1.7300000000e+02 0.0000e+00 1.0000e+00
       -6  1    1    2    0  503 +4.2052048942e+01 -1.9406073005e+01 +1.9977645901e+01 1.8020287685e+02 1.7300000000e+02 0.0000e+00 1.0000e+00
<mgrwt>
<rscale>  2 0.17909207E+03</rscale>
<asrwt>0</asrwt>
<pdfrwt beam="1">  1       21 0.27053466E-01 0.17909207E+03</pdfrwt>
<pdfrwt beam="2">  1       21 0.28608793E-01 0.17909207E+03</pdfrwt>
<totfact> 0.15281218E+05</totfact>
</mgrwt>
</event>
<event>
 4      2 +5.6305390e+02 2.41372100e+02 7.54677100e-03 1.11888200e-01
       21 -1    0    0  503  502 +0.0000000000e+00 +0.0000000000e+00 +7.0690736433e+01 7.0690736433e+01 0.0000000000e+00 0.0000e+00 -1.0000e+00
       21 -1    0    0  501  503 -0.0000000000e+00 -0.0000000000e+00 -1.4548705377e+03 1.4548705377e+03 0.0000000000e+00 0.0000e+00 1.0000e+00
        6  1    1    2  501    0 -2.6805599535e+01 +1.6617138839e+02 -1.1943197980e+03 1.2184663518e+03 1.7300000000e+02 0.0000e+00 1.0000e+00
       -6  1    1    2    0  502 +2.6805599535e+01 -1.6617138839e+02 -1.8986000319e+02 3.0709492229e+02 1.7300000000e+02 0.0000e+00 -1.0000e+00
<mgrwt>
<rscale>  2 0.24137206E+03</rscale>
<asrwt>0</asrwt>
<pdfrwt beam="1">  1       21 0.10875498E-01 0.24137206E+03</pdfrwt>
<pdfrwt beam="2">  1       21 0.22382624E+00 0.24137206E+03</pdfrwt>
<totfact> 0.63917284E+03</totfact>
</mgrwt>
</event>
<event>
 4      2 +5.6305390e+02 1.97268000e+02 7.54677100e-03 1.15206500e-01
       21 -1    0    0  501  502 +0.0000000000e+00 +0.0000000000e+00 +1.2758479817e+03 1.2758479817e+03 0.0000000000e+00 0.0000e+00 -1.0000e+00
       21 -1    0    0  502  503 -0.0000000000e+00 -0.0000000000e+00 -4.3381682394e+01 4.3381682394e+01 0.0000000000e+00 0.0000e+00 -1.0000e+00
        6  1    1    2  501    0 +6.4209838679e+01 -6.9733556675e+01 +9.7565644110e+02 9.9539949938e+02 1.7300000000e+02 0.0000e+00 -1.0000e+00
       -6  1    1    2    0  503 -6.4209838679e+01 +6.9733556675e+01 +2.5680985824e+02 3.2383016475e+02 1.7300000000e+02 0.0000e+00 -1.0000e+00
<mgrwt>
<rscale>  2 0.19726802E+03</rscale>
<asrwt>0</asrwt>
<pdfrwt beam="1">  1       21 0.19628428E+00 0.19726802E+03</pdfrwt>
<pdfrwt beam="2">  1       21 0.66741060E-02 0.19726802E+03</pdfrwt>
<totfact> 0.23223430E+04</totfact>
</mgrwt>
</event>
<event>
 4      2 +5.6305390e+02 2.55595500e+02 7.54677100e-03 1.10981900e-01
       21 -1    0    0  501  502 +0.0000000000e+00 +0.0000000000e+00 +5.8058075194e+02 5.8058075194e+02 0.0000000000e+00 0.0000e+00 -1.0000e+00
       21 -1    0    0  502  503 -0.0000000000e+00 -0.0000000000e+00 -1.8165825381e+02 1.8165825381e+02 0.0000000000e+00 0.0000e+00 -1.0000e+00
        6  1    1    2  501    0 -1.8252957139e+02 -4.5639976471e+01 +4.3457683389e+02 5.0416869839e+02 1.7300000000e+02 0.0000e+00 -1.0000e+00
       -6  1    1    2    0  503 +1.8252957139e+02 +4.5639976471e+01 -3.5654335760e+01 2.5807030736e+02 1.7300000000e+02 0.0000e+00 -1.0000e+00
<mgrwt>
<rscale>  2 0.25559548E+03</rscale>
<asrwt>0</asrwt>
<pdfrwt beam="1">  1       21 0.89320115E-01 0.25559548E+03</pdfrwt>
<pdfrwt beam="2">  1       21 0.27947424E-01 0.25559548E+03</pdfrwt>
<totfact> 0.12589535E+04</totfact>
</mgrwt>
</event>
<event>
 4      2 +5.6305390e+02 3.61153200e+02 7.54677100e-03 1.05812800e-01
       21 -1    0    0  501  502 +0.0000000000e+00 +0.0000000000e+00 +3.5461744791e+02 3.5461744791e+02 0.0000000000e+00 0.0000e+00 -1.0000e+00
       21 -1    0    0  502  503 -0.0000000000e+00 -0.0000000000e+00 -3.6782619357e+02 3.6782619357e+02 0.0000000000e+00 0.0000e+00 1.0000e+00
        6  1    1    2  501    0 +1.7636120864e+02 -2.6343758956e+02 -9.0433318608e+00 3.6126641327e+02 1.7300000000e+02 0.0000e+00 1.0000e+00
       -6  1    1    2    0  503 -1.7636120864e+02 +2.6343758956e+02 -4.1654138052e+00 3.6117722821e+02 1.7300000000e+02 0.0000e+00 -1.0000e+00
<mgrwt>
<rscale>  2 0.36115321E+03</rscale>
<asrwt>0</asrwt>
<pdfrwt beam="1">  1       21 0.54556531E-01 0.36115321E+03</pdfrwt>
<pdfrwt beam="2">  1       21 0.56588645E-01 0.36115321E+03</pdfrwt>
<totfact> 0.85380120E+03</totfact>
</mgrwt>
</event>
<event>
 4      2 +5.6305390e+02 1.79445000e+02 7.54677100e-03 1.16834100e-01
        2 -1    0    0  502    0 +0.0000000000e+00 +0.0000000000e+00 +2.5625460567e+02 2.5625460567e+02 0.0000000000e+00 0.0000e+00 -1.0000e+00
       -2 -1    0    0    0  501 -0.0000000000e+00 -0.0000000000e+00 -1.2742881290e+02 1.2742881290e+02 0.0000000000e+00 0.0000e+00 1.0000e+00
        6  1    1    2  502    0 -4.7097366841e+01 -7.3027398609e+00 +8.7026578177e+01 1.9943449371e+02 1.7300000000e+02 0.0000e+00 -1.0000e+00
       -6  1    1    2    0  501 +4.7097366841e+01 +7.3027398609e+00 +4.1799214594e+01 1.8424892486e+02 1.7300000000e+02 0.0000e+00 -1.0000e+00
<mgrwt>
<rscale>  2 0.17944496E+03</rscale>
<asrwt>0</asrwt>
<pdfrwt beam="1">  1        2 0.39423785E-01 0.17944496E+03</pdfrwt>
<pdfrwt beam="2">  1       -2 0.19604433E-01 0.17944496E+03</pdfrwt>
<totfact> 0.27703780E+03</totfact>
</mgrwt>
</event>
<event>
 4      2 +5.6305390e+02 1.77781700e+02 7.54677100e-03 1.16996700e-01
       21 -1    0    0  503  502 +0.0000000000e+00 +0.0000000000e+00 +3.4336111358e+02 3.4336111358e+02 0.0000000000e+00 0.0000e+00 1.0000e+00
       21 -1    0    0  501  503 -0.0000000000e+00 -0.0000000000e+00 -9.4396716087e+01 9.4396716087e+01 0.0000000000e+00 0.0000e+00 1.0000e+00
        6  1    1    2  501    0 -3.2609237610e+01 +2.4778571169e+01 +1.5899413918e+02 2.3850676355e+02 1.7300000000e+02 0.0000e+00 1.0000e+00
       -6  1    1    2    0  502 +3.2609237610e+01 -2.4778571169e+01 +8.9970258316e+01 1.9925106612e+02 1.7300000000e+02 0.0000e+00 1.0000e+00
<mgrwt>
<rscale>  2 0.17778172E+03</rscale>
<asrwt>0</asrwt>
<pdfrwt beam="1">  1       21 0.52824786E-01 0.17778172E+03</pdfrwt>
<pdfrwt beam="2">  1       21 0.14522572E-01 0.17778172E+03</pdfrwt>
<totfact> 0.14200740E+05</totfact>
</mgrwt>
</event>
<event>
 4      3 +5.6305390e+02 1.19863300e+02 7.54677100e-03 1.24332300e-01
       -1 -1    0    0    0  501 -0.0000000000e+00 +0.0000000000e+00 +5.9195187516e+01 5.9195187516e+01 0.0000000000e+00 0.0000e+00 1.0000e+00
        1 -1    0    0  501    0 +0.0000000000e+00 -0.0000000000e+00 -2.8670244635e+02 2.8670244635e+02 0.0000000000e+00 0.0000e+00 -1.0000e+00
       24  1    1    2    0    0 -8.4520299473e+01 +2.7501343385e+01 -4.6005930880e+01 1.2838912159e+02 8.0419002446e+01 0.0000e+00 1.0000e+00
      -24  1    1    2    0    0 +8.4520299473e+01 -2.7501343385e+01 -1.8150132796e+02 2.1750851228e+02 8.0419002446e+01 0.0000e+00 -1.0000e+00
<mgrwt>
<rscale>  0 0.11986334E+03</rscale>
<asrwt>0</asrwt>
<pdfrwt beam="1">  1        1 0.44108068E-01 0.11986334E+03</pdfrwt>
<pdfrwt beam="2">  1       -1 0.91069520E-02 0.11986334E+03</pdfrwt>
<totfact> 0.61924305E+03</totfact>
</mgrwt>
</event>
<event>
 4      2 +5.6305390e+02 2.01751900e+02 7.54677100e-03 1.14826900e-01
       21 -1    0    0  501  502 +0.0000000000e+00 +0.0000000000e+00 +9.1845118442e+01 9.1845118442e+01 0.0000000000e+00 0.0000e+00 -1.0000e+00
       21 -1    0    0  502  503 -0.0000000000e+00 -0.0000000000e+00 -4.4541011077e+02 4.4541011077e+02 0.0000000000e+00 0.0000e+00 -1.0000e+00
        6  1    1    2  501    0 +9.5169747202e+01 +4.1443122823e+01 -1.9579531837e+02 2.8113985827e+02 1.7300000000e+02 0.0000e+00 -1.0000e+00
       -6  1    1    2    0  503 -9.5169747202e+01 -4.1443122823e+01 -1.5776967395e+02 2.5611537094e+02 1.7300000000e+02 0.0000e+00 -1.0000e+00
<mgrwt>
<rscale>  2 0.20175186E+03</rscale>
<asrwt>0</asrwt>
<pdfrwt beam="1">  1       21 0.14130018E-01 0.20175186E+03</pdfrwt>
<pdfrwt beam="2">  1       21 0.68524632E-01 0.20175186E+03</pdfrwt>
<totfact> 0.84574912E+04</totfact>
</mgrwt>
</event>
<event>
 4      2 +5.6305390e+02 1.91415900e+02 7.54677100e-03 1.15719000e-01
       21 -1    0    0  503  502 +0.0000000000e+00 +0.0000000000e+00 +2.4734917690e+02 2.4734917690e+02 0.0000000000e+00 0.0000e+00 -1.0000e+00
       21 -1    0    0  501  503 -0.0000000000e+00 -0.0000000000e+00 -1.5579786064e+02 1.5579786064e+02 0.0000000000e+00 0.0000e+00 -1.0000e+00
        6  1    1    2  501    0 -7.9061700980e+01 -2.1454739240e+01 +1.0595398695e+00 1.9141886277e+02 1.7300000000e+02 0.0000e+00 -1.0000e+00
       -6  1    1    2    0  502 +7.9061700980e+01 +2.1454739240e+01 +9.0491776399e+01 2.1172817477e+02 1.7300000000e+02 0.0000e+00 -1.0000e+00
<mgrwt>
<rscale>  2 0.19141593E+03</rscale>
<asrwt>0</asrwt>
<pdfrwt beam="1">  1       21 0.38053719E-01 0.19141593E+03</pdfrwt>
<pdfrwt beam="2">  1       21 0.23968902E-01 0.19141593E+03</pdfrwt>
<totfact> 0.10935422E+05</totfact>
</mgrwt>
</event>
<event>
 4      2 +5.6305390e+02 2.03738000e+02 7.54677100e-03 1.14662300e-01
       21 -1    0    0  503  502 +0.0000000000e+00 +0.0000000000e+00 +1.4644243985e+02 1.4644243985e+02 0.0000000000e+00 0.0000e+00 1.0000e+00
       21 -1    0    0  501  503 -0.0000000000e+00 -0.0000000000e+00 -6.3440174774e+02 6.3440174774e+02 0.0000000000e+00 0.0000e+00 1.0000e+00
        6  1    1    2  501    0 -7.0897819685e+01 -8.0954766862e+01 -5.3436562333e+02 5.7188792129e+02 1.7300000000e+02 0.0000e+00 1.0000e+00
       -6  1    1    2    0  502 +7.0897819685e+01 +8.0954766862e+01 +4.6406315448e+01 2.0895626630e+02 1.7300000000e+02 0.0000e+00 1.0000e+00
<mgrwt>
<rscale>  2 0.20373801E+03</rscale>
<asrwt>0</asrwt>
<pdfrwt beam="1">  1       21 0.22529606E-01 0.20373801E+03</pdfrwt>
<pdfrwt beam="2">  1       21 0.97600269E-01 0.20373801E+03</pdfrwt>
<totfact> 0.15931540E+04</totfact>
</mgrwt>
</event>
<event>
 4      2 +5.6305390e+02 1.89915500e+02 7.54677100e-03 1.15853800e-01
       21 -1    0    0  501  502 +0.0000000000e+00 +0.0000000000e+00 +1.1133759126e+02 1.1133759126e+02 0.0000000000e+00 0.0000e+00 1.0000e+00
       21 -1    0    0  502  503 -0.0000000000e+00 -0.0000000000e+00 -4.5630752388e+02 4.5630752388e+02 0.0000000000e+00 0.0000e+00 1.0000e+00
        6  1    1    2  501    0 -6.6663117920e+01 -4.1169334878e+01 -1.9625851799e+01 1.9092684328e+02 1.7300000000e+02 0.0000e+00 1.0000e+00
       -6  1    1    2    0  503 +6.6663117920e+01 +4.1169334878e+01 -3.2534408082e+02 3.7671827186e+02 1.7300000000e+02 0.0000e+00 1.0000e+00
<mgrwt>
<rscale>  2 0.18991547E+03</rscale>
<asrwt>0</asrwt>
<pdfrwt beam="1">  1       21 0.17128860E-01 0.18991547E+03</pdfrwt>
<pdfrwt beam="2">  1       21 0.70201156E-01 0.18991547E+03</pdfrwt>
<totfact> 0.56720447E+04</totfact>
</mgrwt>
</event>
<event>
 4      2 +5.6305390e+02 2.33451400e+02 7.54677100e-03 1.12423400e-01
       21 -1    0    0  503  502 +0.0000000000e+00 +0.0000000000e+00 +5.2500631084e+01 5.2500631084e+01 0.0000000000e+00 0.0000e+00 -1.0000e+00
       21 -1    0    0  501  503 -0.0000000000e+00 -0.0000000000e+00 -1.0742136236e+03 1.0742136236e+03 0.0000000000e+00 0.0000e+00 1.0000e+00
        6  1    1    2  501    0 -1.5445341393e+02 +2.6733513816e+01 -4.0752551867e+02 4.6965581674e+02 1.7300000000e+02 0.0000e+00 -1.0000e+00
       -6  1    1    2    0  502 +1.5445341393e+02 -2.6733513816e+01 -6.1418747386e+02 6.5705843795e+02 1.7300000000e+02 0.0000e+00 1.0000e+00
<mgrwt>
<rscale>  2 0.23345136E+03</rscale>
<asrwt>0</asrwt>
<pdfrwt beam="1">  1       21 0.80770212E-02 0.23345136E+03</pdfrwt>
<pdfrwt beam="2">  1       21 0.16526361E+00 0.23345136E+03</pdfrwt>
<totfact> 0.26521117E+04</totfact>
</mgrwt>
</event>
<event>
 4      2 +5.6305390e+02 1.73034000e+02 7.54677100e-03 1.17472000e-01
       21 -1    0    0  501  502 +0.0000000000e+00 +0.0000000000e+00 +6.6967170069e+01 6.6967170069e+01 0.0000000000e+00 0.0000e+00 1.0000e+00
       21 -1    0    0  502  503 -0.0000000000e+00 -0.0000000000e+00 -5.5611046399e+02 5.5611046399e+02 0.0000000000e+00 0.0000e+00 1.0000e+00
        6  1    1    2  501    0 -2.0702801343e+00 +2.7335199984e+00 -1.0663693691e+02 2.0325401474e+02 1.7300000000e+02 0.0000e+00 1.0000e+00
       -6  1    1    2    0  503 +2.0702801343e+00 -2.7335199984e+00 -3.8250635700e+02 4.1982361932e+02 1.7300000000e+02 0.0000e+00 1.0000e+00
<mgrwt>
<rscale>  2 0.17303398E+03</rscale>
<asrwt>0</asrwt>
<pdfrwt beam="1">  1       21 0.10302641E-01 0.17303398E+03</pdfrwt>
<pdfrwt beam="2">  1       21 0.85555459E-01 0.17303398E+03</pdfrwt>
<totfact> 0.91617110E+04</totfact>
</mgrwt>
</event>
<event>
 4      2 +5.6305390e+02 2.20927400e+02 7.54677100e-03 1.13319400e-01
       21 -1    0    0  501  502 +0.0000000000e+00 +0.0000000000e+00 +6.7232791359e+01 6.7232791359e+01 0.0000000000e+00 0.0000e+00 -1.0000e+00
       21 -1    0    0  502  503 -0.0000000000e+00 -0.0000000000e+00 -7.2693527702e+02 7.2693527702e+02 0.0000000000e+00 0.0000e+00 -1.0000e+00
        6  1    1    2  501    0 +6.4548247758e+01 -1.2129895898e+02 -3.4432942468e+02 4.0911082416e+02 1.7300000000e+02 0.0000e+00 -1.0000e+00
       -6  1    1    2    0  503 -6.4548247758e+01 +1.2129895898e+02 -3.1537306098e+02 3.8505724422e+02 1.7300000000e+02 0.0000e+00 -1.0000e+00
<mgrwt>
<rscale>  2 0.22092739E+03</rscale>
<asrwt>0</asrwt>
<pdfrwt beam="1">  1       21 0.10343506E-01 0.22092739E+03</pdfrwt>
<pdfrwt beam="2">  1       21 0.11183620E+00 0.22092739E+03</pdfrwt>
<totfact> 0.47268180E+04</totfact>
</mgrwt>
</event>
<event>
 4      3 +5.6305390e+02 1.14431900e+02 7.54677100e-03 1.25257600e-01
        2 -1    0    0  501    0 +0.0000000000e+00 +0.0000000000e+00 +1.0417791899e+03 1.0417791899e+03 0.0000000000e+00 0.0000e+00 -1.0000e+00
       -2 -1    0    0    0  501 -0.0000000000e+00 -0.0000000000e+00 -1.3574423464e+01 1.3574423464e+01 0.0000000000e+00 0.0000e+00 1.0000e+00
       24  1    1    2    0    0 -2.4952767140e+01 +7.7490694450e+01 +3.7053046584e+02 3.8779825990e+02 8.0419002446e+01 0.0000e+00 1.0000e+00
      -24  1    1    2    0    0 +2.4952767140e+01 -7.7490694450e+01 +6.5767430056e+02 6.6755535342e+02 8.0419002446e+01 0.0000e+00 -1.0000e+00
<mgrwt>
<rscale>  0 0.11443193E+03</rscale>
<asrwt>0</asrwt>
<pdfrwt beam="1">  1        2 0.16027366E+00 0.11443195E+03</pdfrwt>
<pdfrwt beam="2">  1       -2 0.20883737E-02 0.11443195E+03</pdfrwt>
<totfact> 0.16977229E+04</totfact>
</mgrwt>
</event>
<event>
 4      2 +5.6305390e+02 2.25330200e+02 7.54677100e-03 1.12997000e-01
       21 -1    0    0  503  502 +0.0000000000e+00 +0.0000000000e+00 +1.5264371832e+02 1.5264371832e+02 0.0000000000e+00 0.0000e+00 -1.0000e+00
       21 -1    0    0  501  503 -0.0000000000e+00 -0.0000000000e+00 -3.7885024531e+02 3.7885024531e+02 0.0000000000e+00 0.0000e+00 1.0000e+00
        6  1    1    2  501    0 -1.3132413045e+02 -5.9988977106e+01 -2.0280161803e+01 2.2624099888e+02 1.7300000000e+02 0.0000e+00 -1.0000e+00
       -6  1    1    2    0  502 +1.3132413045e+02 +5.9988977106e+01 -2.0592636518e+02 3.0525296475e+02 1.7300000000e+02 0.0000e+00 -1.0000e+00
<mgrwt>
<rscale>  2 0.22533021E+03</rscale>
<asrwt>0</asrwt>
<pdfrwt beam="1">  1       21 0.23483649E-01 0.22533021E+03</pdfrwt>
<pdfrwt beam="2">  1       21 0.58284653E-01 0.22533021E+03</pdfrwt>
<totfact> 0.46313518E+04</totfact>
</mgrwt>
</event>
<event>
 4      3 +5.6305390e+02 8.90986200e+01 7.54677100e-03 1.30504900e-01
        2 -1    0    0  501    0 +0.0000000000e+00 +0.0000000000e+00 +1.9483853676e+02 1.9483853676e+02 0.0000000000e+00 0.0000e+00 -1.0000e+00
       -2 -1    0    0    0  501 -0.0000000000e+00 -0.0000000000e+00 -4.4486424049e+01 4.4486424049e+01 0.0000000000e+00 0.0000e+00 1.0000e+00
       24  1    1    2    0    0 -2.7118592829e+01 -2.7128029584e+01 +1.0988185823e+02 1.4146585025e+02 8.0419002446e+01 0.0000e+00 -1.0000e+00
      -24  1    1    2    0    0 +2.7118592829e+01 +2.7128029584e+01 +4.0470254480e+01 9.7859110553e+01 8.0419002446e+01 0.0000e+00 1.0000e+00
<mgrwt>
<rscale>  0 0.89098620E+02</rscale>
<asrwt>0</asrwt>
<pdfrwt beam="1">  1        2 0.29975159E-01 0.89098620E+02</pdfrwt>
<pdfrwt beam="2">  1       -2 0.68440653E-02 0.89098620E+02</pdfrwt>
<totfact> 0.18902688E+04</totfact>
</mgrwt>
</event>
<event>
 4      2 +5.6305390e+02 1.85269900e+02 7.54677100e-03 1.16279800e-01
       21 -1    0    0  503  502 +0.0000000000e+00 +0.0000000000e+00 +1.0865407525e+02 1.0865407525e+02 0.0000000000e+00 0.0000e+00 -1.0000e+00
       21 -1    0    0  501  503 -0.0000000000e+00 -0.0000000000e+00 -3.1758749228e+02 3.1758749228e+02 0.0000000000e+00 0.0000e+00 -1.0000e+00
        6  1    1    2  501    0 +4.9485925862e+01 +4.4125866924e+01 -1.1995404096e+02 2.2071230354e+02 1.7300000000e+02 0.0000e+00 1.0000e+00
       -6  1    1    2    0  502 -4.9485925862e+01 -4.4125866924e+01 -8.8979376071e+01 2.0552926399e+02 1.7300000000e+02 0.0000e+00 1.0000e+00
<mgrwt>
<rscale>  2 0.18526994E+03</rscale>
<asrwt>0</asrwt>
<pdfrwt beam="1">  1       21 0.16716012E-01 0.18526994E+03</pdfrwt>
<pdfrwt beam="2">  1       21 0.48859614E-01 0.18526994E+03</pdfrwt>
<totfact> 0.12897225E+05</totfact>
</mgrwt>
</event>
<event>
 4      2 +5.6305390e+02 2.20265400e+02 7.54677100e-03 1.13368500e-01
       21 -1    0    0  503  502 +0.0000000000e+00 +0.0000000000e+00 +1.3765120775e+02 1.3765120775e+02 0.0000000000e+00 0.0000e+00 1.0000e+00
       21 -1    0    0  501  503 -0.0000000000e+00 -0.0000000000e+00 -3.7871057443e+02 3.7871057443e+02 0.0000000000e+00 0.0000e+00 -1.0000e+00
        6  1    1    2  501    0 -7.5398827088e+01 -1.1359068304e+02 -5.2558809234e+01 2.2644923234e+02 1.7300000000e+02 0.0000e+00 1.0000e+00
       -6  1    1    2    0  502 +7.5398827088e+01 +1.1359068304e+02 -1.8850055744e+02 2.8991254984e+02 1.7300000000e+02 0.0000e+00 -1.0000e+00
<mgrwt>
<rscale>  2 0.22026535E+03</rscale>
<asrwt>0</asrwt>
<pdfrwt beam="1">  1       21 0.21177109E-01 0.22026535E+03</pdfrwt>
<pdfrwt beam="2">  1       21 0.58263165E-01 0.22026535E+03</pdfrwt>
<totfact> 0.56501879E+04</totfact>
</mgrwt>
</event>
<event>
 4      2 +5.6305390e+02 2.23356000e+02 7.54677100e-03 1.13140500e-01
       21 -1    0    0  501  502 +0.0000000000e+00 +0.0000000000e+00 +5.5248506345e+02 5.5248506345e+02 0.0000000000e+00 0.0000e+00 -1.0000e+00
       21 -1    0    0  502  503 -0.0000000000e+00 -0.0000000000e+00 -9.0950227694e+01 9.0950227694e+01 0.0000000000e+00 0.0000e+00 1.0000e+00
        6  1    1    2  501    0 -1.3923543218e+02 +2.3925186801e+01 +2.5802574122e+02 3.4126998589e+02 1.7300000000e+02 0.0000e+00 1.0000e+00
       -6  1    1    2    0  503 +1.3923543218e+02 -2.3925186801e+01 +2.0350909454e+02 3.0216530525e+02 1.7300000000e+02 0.0000e+00 -1.0000e+00
<mgrwt>
<rscale>  2 0.22335604E+03</rscale>
<asrwt>0</asrwt>
<pdfrwt beam="1">  1       21 0.84997700E-01 0.22335604E+03</pdfrwt>
<pdfrwt beam="2">  1       21 0.13992343E-01 0.22335604E+03</pdfrwt>
<totfact> 0.52556425E+04</totfact>
</mgrwt>
</event>
<event>
 4      2 +5.6305390e+02 2.37067100e+02 7.54677100e-03 1.12176200e-01
       21 -1    0    0  501  502 +0.0000000000e+00 +0.0000000000e+00 +1.9846368195e+02 1.9846368195e+02 0.0000000000e+00 0.0000e+00 1.0000e+00
       21 -1    0    0  502  503 -0.0000000000e+00 -0.0000000000e+00 -2.9367527915e+02 2.9367527915e+02 0.0000000000e+00 0.0000e+00 -1.0000e+00
        6  1    1    2  501    0 +1.1314534639e+02 -1.1606000191e+02 -9.4125498065e+01 2.5506940788e+02 1.7300000000e+02 0.0000e+00 1.0000e+00
       -6  1    1    2    0  503 -1.1314534639e+02 +1.1606000191e+02 -1.0860991378e+00 2.3706955322e+02 1.7300000000e+02 0.0000e+00 1.0000e+00
<mgrwt>
<rscale>  2 0.23706707E+03</rscale>
<asrwt>0</asrwt>
<pdfrwt beam="1">  1       21 0.30532874E-01 0.23706707E+03</pdfrwt>
<pdfrwt beam="2">  1       21 0.45180812E-01 0.23706707E+03</pdfrwt>
<totfact> 0.47406346E+04</totfact>
</mgrwt>
</event>
<event>
 4      2 +5.6305390e+02 1.75193300e+02 7.54677100e-03 1.17253800e-01
       21 -1    0    0  503  502 +0.0000000000e+00 +0.0000000000e+00 +7.2377099461e+01 7.2377099461e+01 0.0000000000e+00 0.0000e+00 -1.0000e+00
       21 -1    0    0  501  503 -0.0000000000e+00 -0.0000000000e+00 -9.3720952308e+02 9.3720952308e+02 0.0000000000e+00 0.0000e+00 -1.0000e+00
        6  1    1    2  501    0 -2.3894516483e+01 -1.3882678096e+01 -8.0593686025e+02 8.2475869160e+02 1.7300000000e+02 0.0000e+00 -1.0000e+00
       -6  1    1    2    0  502 +2.3894516483e+01 +1.3882678096e+01 -5.8895563367e+01 1.8482793093e+02 1.7300000000e+02 0.0000e+00 -1.0000e+00
<mgrwt>
<rscale>  2 0.17519326E+03</rscale>
<asrwt>0</asrwt>
<pdfrwt beam="1">  1       21 0.11134939E-01 0.17519326E+03</pdfrwt>
<pdfrwt beam="2">  1       21 0.14418607E+00 0.17519326E+03</pdfrwt>
<totfact> 0.22489080E+04</totfact>
</mgrwt>
</event>
<event>
 4      2 +5.6305390e+02 3.30706000e+02 7.54677100e-03 1.07082500e-01
       21 -1    0    0  501  502 +0.0000000000e+00 +0.0000000000e+00 +4.5348168123e+02 4.5348168123e+02 0.0000000000e+00 0.0000e+00 -1.0000e+00
       21 -1    0    0  502  503 -0.0000000000e+00 -0.0000000000e+00 -2.6367330082e+02 2.6367330082e+02 0.0000000000e+00 0.0000e+00 1.0000e+00
        6  1    1    2  501    0 -2.7964280997e+02 -3.5176094700e+01 +1.9965733354e+02 3.8630235521e+02 1.7300000000e+02 0.0000e+00 -1.0000e+00
       -6  1    1    2    0  503 +2.7964280997e+02 +3.5176094700e+01 -9.8489531430e+00 3.3085262684e+02 1.7300000000e+02 0.0000e+00 1.0000e+00
<mgrwt>
<rscale>  2 0.33070600E+03</rscale>
<asrwt>0</asrwt>
<pdfrwt beam="1">  1       21 0.69766413E-01 0.33070600E+03</pdfrwt>
<pdfrwt beam="2">  1       21 0.40565123E-01 0.33070600E+03</pdfrwt>
<totfact> 0.10155658E+04</totfact>
</mgrwt>
</event>
<event>
 4      2 +5.6305390e+02 1.77447900e+02 7.54677100e-03 1.17029600e-01
       21 -1    0    0  501  502 +0.0000000000e+00 +0.0000000000e+00 +3.2276236401e+02 3.2276236401e+02 0.0000000000e+00 0.0000e+00 -1.0000e+00
       21 -1    0    0  502  503 -0.0000000000e+00 -0.0000000000e+00 -3.5280453831e+02 3.5280453831e+02 0.0000000000e+00 0.0000e+00 -1.0000e+00
        6  1    1    2  501    0 +1.9914794708e+01 +3.4090627730e+01 +2.7228971689e+02 3.2500686127e+02 1.7300000000e+02 0.0000e+00 -1.0000e+00
       -6  1    1    2    0  503 -1.9914794708e+01 -3.4090627730e+01 -3.0233189119e+02 3.5056004105e+02 1.7300000000e+02 0.0000e+00 -1.0000e+00
<mgrwt>
<rscale>  2 0.17744794E+03</rscale>
<asrwt>0</asrwt>
<pdfrwt beam="1">  1       21 0.49655748E-01 0.17744794E+03</pdfrwt>
<pdfrwt beam="2">  1       21 0.54277621E-01 0.17744794E+03</pdfrwt>
<totfact> 0.12525512E+04</totfact>
</mgrwt>
</event>
<event>
 4      2 +5.6305390e+02 3.14257500e+02 7.54677100e-03 1.07832300e-01
       21 -1    0    0  503  502 +0.0000000000e+00 +0.0000000000e+00 +1.7782736540e+02 1.7782736540e+02 0.0000000000e+00 0.0000e+00 -1.0000e+00
       21 -1    0    0  501  503 -0.0000000000e+00 -0.0000000000e+00 -1.3840002736e+03 1.3840002736e+03 0.0000000000e+00 0.0000e+00 1.0000e+00
        6  1    1    2  501    0 +2.3164897785e+02 +1.2315660004e+02 -1.2073392117e+03 1.2475679417e+03 1.7300000000e+02 0.0000e+00 1.0000e+00
       -6  1    1    2    0  502 -2.3164897785e+02 -1.2315660004e+02 +1.1663035142e+00 3.1425969728e+02 1.7300000000e+02 0.0000e+00 -1.0000e+00
<mgrwt>
<rscale>  2 0.31425753E+03</rscale>
<asrwt>0</asrwt>
<pdfrwt beam="1">  1       21 0.27358056E-01 0.31425753E+03</pdfrwt>
<pdfrwt beam="2">  1       21 0.21292312E+00 0.31425753E+03</pdfrwt>
<totfact> 0.12750776E+03</totfact>
</mgrwt>
</event>
<event>
 4      2 +5.6305390e+02 2.43634600e+02 7.54677100e-03 1.11739500e-01
        1 -1    0    0  502    0 +0.0000000000e+00 +0.0000000000e+00 +3.9672067940e+02 3.9672067940e+02 0.0000000000e+00 0.0000e+00 -1.0000e+00
       -1 -1    0    0    0  501 -0.0000000000e+00 -0.0000000000e+00 -1.9763930170e+02 1.9763930170e+02 0.0000000000e+00 0.0000e+00 1.0000e+00
        6  1    1    2  502    0 -3.7259738330e+01 +1.6745307856e+02 -4.6941705834e+01 2.4811558872e+02 1.7300000000e+02 0.0000e+00 1.0000e+00
       -6  1    1    2    0  501 +3.7259738330e+01 -1.6745307856e+02 +2.4602308354e+02 3.4624439238e+02 1.7300000000e+02 0.0000e+00 -1.0000e+00
<mgrwt>
<rscale>  2 0.24363461E+03</rscale>
<asrwt>0</asrwt>
<pdfrwt beam="1">  1        1 0.61033951E-01 0.24363461E+03</pdfrwt>
<pdfrwt beam="2">  1       -1 0.30406046E-01 0.24363461E+03</pdfrwt>
<totfact> 0.61437708E+02</totfact>
</mgrwt>
</event>
<event>
 4      2 +5.6305390e+02 1.97965900e+02 7.54677100e-03 1.15146700e-01
        1 -1    0    0  502    0 +0.0000000000e+00 +0.0000000000e+00 +5.0521621152e+02 5.0521621152e+02 0.0000000000e+00 0.0000e+00 1.0000e+00
       -1 -1    0    0    0  501 -0.0000000000e+00 -0.0000000000e+00 -9.7666859670e+01 9.7666859670e+01 0.0000000000e+00 0.0000e+00 -1.0000e+00
        6  1    1    2  502    0 -9.5551127138e+01 -1.1465971351e+01 +3.4050822415e+02 3.9387350394e+02 1.7300000000e+02 0.0000e+00 1.0000e+00
       -6  1    1    2    0  501 +9.5551127138e+01 +1.1465971351e+01 +6.7041127699e+01 2.0900956724e+02 1.7300000000e+02 0.0000e+00 -1.0000e+00
<mgrwt>
<rscale>  2 0.19796587E+03</rscale>
<asrwt>0</asrwt>
<pdfrwt beam="1">  1        1 0.77725570E-01 0.19796587E+03</pdfrwt>
<pdfrwt beam="2">  1       -1 0.15025671E-01 0.19796587E+03</pdfrwt>
<totfact> 0.14217167E+03</totfact>
</mgrwt>
</event>
<event>
 4      2 +5.6305390e+02 2.12872500e+02 7.54677100e-03 1.13931100e-01
       21 -1    0    0  501  502 +0.0000000000e+00 +0.0000000000e+00 +3.0245959318e+01 3.0245959318e+01 0.0000000000e+00 0.0000e+00 1.0000e+00
       21 -1    0    0  502  503 -0.0000000000e+00 -0.0000000000e+00 -1.7701339646e+03 1.7701339646e+03 0.0000000000e+00 0.0000e+00 1.0000e+00
        6  1    1    2  501    0 -1.9091353644e+01 +1.2256108011e+02 -5.1712050967e+02 5.5922117241e+02 1.7300000000e+02 0.0000e+00 1.0000e+00
       -6  1    1    2    0  503 +1.9091353644e+01 -1.2256108011e+02 -1.2227674956e+03 1.2411587515e+03 1.7300000000e+02 0.0000e+00 1.0000e+00
<mgrwt>
<rscale>  2 0.21287249E+03</rscale>
<asrwt>0</asrwt>
<pdfrwt beam="1">  1       21 0.46532238E-02 0.21287249E+03</pdfrwt>
<pdfrwt beam="2">  1       21 0.27232835E+00 0.21287249E+03</pdfrwt>
<totfact> 0.14691478E+04</totfact>
</mgrwt>
</event>
<event>
 4      2 +5.6305390e+02 2.46468700e+02 7.54677100e-03 1.11555700e-01
       21 -1    0    0  503  502 +0.0000000000e+00 +0.0000000000e+00 +2.4357454971e+02 2.4357454971e+02 0.0000000000e+00 0.0000e+00 -1.0000e+00
       21 -1    0    0  501  503 -0.0000000000e+00 -0.0000000000e+00 -3.2434626365e+02 3.2434626365e+02 0.0000000000e+00 0.0000e+00 1.0000e+00
        6  1    1    2  501    0 -1.2605168019e+02 -1.2218345494e+02 +9.6115290492e+01 2.6454672897e+02 1.7300000000e+02 0.0000e+00 -1.0000e+00
       -6  1    1    2    0  502 +1.2605168019e+02 +1.2218345494e+02 -1.7688700443e+02 3.0337408439e+02 1.7300000000e+02 0.0000e+00 1.0000e+00
<mgrwt>
<rscale>  2 0.24646871E+03</rscale>
<asrwt>0</asrwt>
<pdfrwt beam="1">  1       21 0.37473008E-01 0.24646871E+03</pdfrwt>
<pdfrwt beam="2">  1       21 0.49899425E-01 0.24646871E+03</pdfrwt>
<totfact> 0.25552714E+04</totfact>
</mgrwt>
</event>
<event>
 4      3 +5.6305390e+02 1.01551900e+02 7.54677100e-03 1.27706600e-01
       -2 -1    0    0    0  501 -0.0000000000e+00 +0.0000000000e+00 +1.1779246734e+01 1.1779246734e+01 0.0000000000e+00 0.0000e+00 1.0000e+00
        2 -1    0    0  501    0 +0.0000000000e+00 -0.0000000000e+00 -2.7368098735e+03 2.7368098735e+03 0.0000000000e+00 0.0000e+00 -1.0000e+00
       24  1    1    2    0    0 +3.5823033575e+01 +5.0618988664e+01 -2.4958711554e+03 2.4979362707e+03 8.0419002446e+01 0.0000e+00 -1.0000e+00
      -24  1    1    2    0    0 -3.5823033575e+01 -5.0618988664e+01 -2.2915947130e+02 2.5065284955e+02 8.0419002446e+01 0.0000e+00 1.0000e+00
<mgrwt>
<rscale>  0 0.10155190E+03</rscale>
<asrwt>0</asrwt>
<pdfrwt beam="1">  1        2 0.42104761E+00 0.10155190E+03</pdfrwt>
<pdfrwt beam="2">  1       -2 0.18121921E-02 0.10155190E+03</pdfrwt>
<totfact> 0.26946534E+03</totfact>
</mgrwt>
</event>
<event>
 4      2 +5.6305390e+02 2.53440400e+02 7.54677100e-03 1.11115000e-01
       21 -1    0    0  503  502 +0.0000000000e+00 +0.0000000000e+00 +6.2168828965e+02 6.2168828965e+02 0.0000000000e+00 0.0000e+00 -1.0000e+00
       21 -1    0    0  501  503 -0.0000000000e+00 -0.0000000000e+00 -1.2327924708e+02 1.2327924708e+02 0.0000000000e+00 0.0000e+00 -1.0000e+00
        6  1    1    2  501    0 +9.4065055816e+01 +1.5954558138e+02 +9.9322838043e+01 2.7220773946e+02 1.7300000000e+02 0.0000e+00 -1.0000e+00
       -6  1    1    2    0  502 -9.4065055816e+01 -1.5954558138e+02 +3.9908620454e+02 4.7275979727e+02 1.7300000000e+02 0.0000e+00 -1.0000e+00
<mgrwt>
<rscale>  2 0.25344038E+03</rscale>
<asrwt>0</asrwt>
<pdfrwt beam="1">  1       21 0.95644350E-01 0.25344038E+03</pdfrwt>
<pdfrwt beam="2">  1       21 0.18966038E-01 0.25344038E+03</pdfrwt>
<totfact> 0.22478695E+04</totfact>
</mgrwt>
</event>
<event>
 4      2 +5.6305390e+02 1.93740800e+02 7.54677100e-03 1.15513000e-01
        1 -1    0    0  502    0 +0.0000000000e+00 +0.0000000000e+00 +8.8323905818e+02 8.8323905818e+02 0.0000000000e+00 0.0000e+00 -1.0000e+00
       -1 -1    0    0    0  501 -0.0000000000e+00 -0.0000000000e+00 -5.0472635663e+01 5.0472635663e+01 0.0000000000e+00 0.0000e+00 1.0000e+00
        6  1    1    2  502    0 -7.5379487397e+01 -4.3868145445e+01 +6.0195969552e+02 6.3236931957e+02 1.7300000000e+02 0.0000e+00 -1.0000e+00
       -6  1    1    2    0  501 +7.5379487397e+01 +4.3868145445e+01 +2.3080672700e+02 3.0134237427e+02 1.7300000000e+02 0.0000e+00 1.0000e+00
<mgrwt>
<rscale>  2 0.19374076E+03</rscale>
<asrwt>0</asrwt>
<pdfrwt beam="1">  1        1 0.13588292E+00 0.19374076E+03</pdfrwt>
<pdfrwt beam="2">  1       -1 0.77650215E-02 0.19374076E+03</pdfrwt>
<totfact> 0.17695249E+03</totfact>
</mgrwt>
</event>
<event>
 4      2 +5.6305390e+02 1.78960700e+02 7.54677100e-03 1.16881300e-01
       21 -1    0    0  503  502 +0.0000000000e+00 +0.0000000000e+00 +6.1207134842e+02 6.1207134842e+02 0.0000000000e+00 0.0000e+00 -1.0000e+00
       21 -1    0    0  501  503 -0.0000000000e+00 -0.0000000000e+00 -6.1772721301e+01 6.1772721301e+01 0.0000000000e+00 0.0000e+00 -1.0000e+00
        6  1    1    2  501    0 -4.3685718153e+01 +1.3765683116e+01 +1.4338942531e+02 2.2931956587e+02 1.7300000000e+02 0.0000e+00 -1.0000e+00
       -6  1    1    2    0  502 +4.3685718153e+01 -1.3765683116e+01 +4.0690920181e+02 4.4452450385e+02 1.7300000000e+02 0.0000e+00 -1.0000e+00
<mgrwt>
<rscale>  2 0.17896071E+03</rscale>
<asrwt>0</asrwt>
<pdfrwt beam="1">  1       21 0.94164819E-01 0.17896071E+03</pdfrwt>
<pdfrwt beam="2">  1       21 0.95034960E-02 0.17896071E+03</pdfrwt>
<totfact> 0.84441410E+04</totfact>
</mgrwt>
</event>
<event>
 4      2 +5.6305390e+02 2.29333500e+02 7.54677100e-03 1.12711000e-01
       21 -1    0    0  503  502 +0.0000000000e+00 +0.0000000000e+00 +5.7708036652e+02 5.7708036652e+02 0.0000000000e+00 0.0000e+00 -1.0000e+00
       21 -1    0    0  501  503 -0.0000000000e+00 -0.0000000000e+00 -9.1199996346e+01 9.1199996346e+01 0.0000000000e+00 0.0000e+00 -1.0000e+00
        6  1    1    2  501    0 -1.0762701698e+02 +1.0526758581e+02 +2.3421474695e+02 3.2779625851e+02 1.7300000000e+02 0.0000e+00 -1.0000e+00
       -6  1    1    2    0  502 +1.0762701698e+02 -1.0526758581e+02 +2.5166562322e+02 3.4048410435e+02 1.7300000000e+02 0.0000e+00 -1.0000e+00
<mgrwt>
<rscale>  2 0.22933347E+03</rscale>
<asrwt>0</asrwt>
<pdfrwt beam="1">  1       21 0.88781592E-01 0.22933347E+03</pdfrwt>
<pdfrwt beam="2">  1       21 0.14030769E-01 0.22933347E+03</pdfrwt>
<totfact> 0.47165480E+04</totfact>
</mgrwt>
</event>
<event>
 4      2 +5.6305390e+02 1.77443100e+02 7.54677100e-03 1.17030100e-01
       21 -1    0    0  503  502 +0.0000000000e+00 +0.0000000000e+00 +9.9327730795e+01 9.9327730795e+01 0.0000000000e+00 0.0000e+00 1.0000e+00
       21 -1    0    0  501  503 -0.0000000000e+00 -0.0000000000e+00 -6.1270264490e+02 6.1270264490e+02 0.0000000000e+00 0.0000e+00 1.0000e+00
        6  1    1    2  501    0 +5.9208527786e+00 -3.9012745308e+01 -5.0401783539e+02 5.3434074258e+02 1.7300000000e+02 0.0000e+00 1.0000e+00
       -6  1    1    2    0  502 -5.9208527786e+00 +3.9012745308e+01 -9.3570787190e+00 1.7768963311e+02 1.7300000000e+02 0.0000e+00 1.0000e+00
<mgrwt>
<rscale>  2 0.17744309E+03</rscale>
<asrwt>0</asrwt>
<pdfrwt beam="1">  1       21 0.15281190E-01 0.17744309E+03</pdfrwt>
<pdfrwt beam="2">  1       21 0.94261943E-01 0.17744309E+03</pdfrwt>
<totfact> 0.36071532E+04</totfact>
</mgrwt>
</event>
<event>
 4      3 +5.6305390e+02 9.19804100e+01 7.54677100e-03 1.29812500e-01
       -2 -1    0    0    0  501 -0.0000000000e+00 +0.0000000000e+00 +8.8469384963e+00 8.8469384963e+00 0.0000000000e+00 0.0000e+00 1.0000e+00
        2 -1    0    0  501    0 +0.0000000000e+00 -0.0000000000e+00 -3.2398272163e+03 3.2398272163e+03 0.0000000000e+00 0.0000e+00 -1.0000e+00
       24  1    1    2    0    0 -9.0373573011e+00 -4.3720783890e+01 -2.9791861892e+03 2.9806057684e+03 8.0419002446e+01 0.0000e+00 1.0000e+00
      -24  1    1    2    0    0 +9.0373573011e+00 +4.3720783890e+01 -2.5179408855e+02 2.6806838634e+02 8.0419002446e+01 0.0000e+00 1.0000e+00
<mgrwt>
<rscale>  0 0.91980415E+02</rscale>
<asrwt>0</asrwt>
<pdfrwt beam="1">  1        2 0.49843549E+00 0.91980415E+02</pdfrwt>
<pdfrwt beam="2">  1       -2 0.13610660E-02 0.91980415E+02</pdfrwt>
<totfact> 0.20997854E+03</totfact>
</mgrwt>
</event>
<event>
 4      2 +5.6305390e+02 1.87651900e+02 7.54677100e-03 1.16059600e-01
       21 -1    0    0  503  502 +0.0000000000e+00 +0.0000000000e+00 +4.6312059881e+01 4.6312059881e+01 0.0000000000e+00 0.0000e+00 -1.0000e+00
       21 -1    0    0  501  503 -0.0000000000e+00 -0.0000000000e+00 -8.2525370018e+02 8.2525370018e+02 0.0000000000e+00 0.0000e+00 -1.0000e+00
        6  1    1    2  501    0 -6.3670096550e+01 +3.5076424775e+01 -5.1168486540e+02 5.4500884236e+02 1.7300000000e+02 0.0000e+00 -1.0000e+00
       -6  1    1    2    0  502 +6.3670096550e+01 -3.5076424775e+01 -2.6725677490e+02 3.2655691770e+02 1.7300000000e+02 0.0000e+00 -1.0000e+00
<mgrwt>
<rscale>  2 0.18765190E+03</rscale>
<asrwt>0</asrwt>
<pdfrwt beam="1">  1       21 0.71249326E-02 0.18765190E+03</pdfrwt>
<pdfrwt beam="2">  1       21 0.12696210E+00 0.18765190E+03</pdfrwt>
<totfact> 0.67469999E+04</totfact>
</mgrwt>
</event>
<event>
 4      2 +5.6305390e+02 1.92558100e+02 7.54677100e-03 1.15617400e-01
       21 -1    0    0  503  502 +0.0000000000e+00 +0.0000000000e+00 +1.7022550868e+02 1.7022550868e+02 0.0000000000e+00 0.0000e+00 -1.0000e+00
       21 -1    0    0  501  503 -0.0000000000e+00 -0.0000000000e+00 -2.2069283030e+02 2.2069283030e+02 0.0000000000e+00 0.0000e+00 1.0000e+00
        6  1    1    2  501    0 +8.3614427573e+01 +1.2579227375e+01 -2.9350745280e+00 1.9258043546e+02 1.7300000000e+02 0.0000e+00 -1.0000e+00
       -6  1    1    2    0  502 -8.3614427573e+01 -1.2579227375e+01 -4.7532247091e+01 1.9833790352e+02 1.7300000000e+02 0.0000e+00 1.0000e+00
<mgrwt>
<rscale>  2 0.19255807E+03</rscale>
<asrwt>0</asrwt>
<pdfrwt beam="1">  1       21 0.26188540E-01 0.19255807E+03</pdfrwt>
<pdfrwt beam="2">  1       21 0.33952743E-01 0.19255807E+03</pdfrwt>
<totfact> 0.11583455E+05</totfact>
</mgrwt>
</event>
<event>
 4      2 +5.6305390e+02 1.81561800e+02 7.54677100e-03 1.16630000e-01
       21 -1    0    0  501  502 +0.0000000000e+00 +0.0000000000e+00 +9.1756495030e+02 9.1756495030e+02 0.0000000000e+00 0.0000e+00 -1.0000e+00
       21 -1    0    0  502  503 -0.0000000000e+00 -0.0000000000e+00 -4.3360323282e+01 4.3360323282e+01 0.0000000000e+00 0.0000e+00 -1.0000e+00
        6  1    1    2  501    0 -2.7007654895e+01 +4.8023561768e+01 +2.3816029260e+02 2.9947454128e+02 1.7300000000e+02 0.0000e+00 -1.0000e+00
       -6  1    1    2    0  503 +2.7007654895e+01 -4.8023561768e+01 +6.3604433442e+02 6.6145073230e+02 1.7300000000e+02 0.0000e+00 -1.0000e+00
<mgrwt>
<rscale>  2 0.18156177E+03</rscale>
<asrwt>0</asrwt>
<pdfrwt beam="1">  1       21 0.14116382E+00 0.18156177E+03</pdfrwt>
<pdfrwt beam="2">  1       21 0.66708197E-02 0.18156177E+03</pdfrwt>
<totfact> 0.57908406E+04</totfact>
</mgrwt>
</event>
<event>
 4      2 +5.6305390e+02 1.73239800e+02 7.54677100e-03 1.17451100e-01
       21 -1    0    0  501  502 +0.0000000000e+00 +0.0000000000e+00 +7.1503680929e+02 7.1503680929e+02 0.0000000000e+00 0.0000e+00 1.0000e+00
       21 -1    0    0  502  503 -0.0000000000e+00 -0.0000000000e+00 -1.2271095031e+02 1.2271095031e+02 0.0000000000e+00 0.0000e+00 1.0000e+00
        6  1    1    2  501    0 +8.9798521423e+00 -1.5459707000e+00 +6.3592999387e+02 6.5910468431e+02 1.7300000000e+02 0.0000e+00 1.0000e+00
       -6  1    1    2    0  503 -8.9798521423e+00 +1.5459707000e+00 -4.3604134888e+01 1.7864307529e+02 1.7300000000e+02 0.0000e+00 1.0000e+00
<mgrwt>
<rscale>  2 0.17323980E+03</rscale>
<asrwt>0</asrwt>
<pdfrwt beam="1">  1       21 0.11000566E+00 0.17323980E+03</pdfrwt>
<pdfrwt beam="2">  1       21 0.18878608E-01 0.17323980E+03</pdfrwt>
<totfact> 0.17000785E+04</totfact>
</mgrwt>
</event>
<event>
 4      3 +5.6305390e+02 1.10916400e+02 7.54677100e-03 1.25888200e-01
        1 -1    0    0  501    0 +0.0000000000e+00 +0.0000000000e+00 +3.2074339533e+02 3.2074339533e+02 0.0000000000e+00 0.0000e+00 -1.0000e+00
       -1 -1    0    0    0  501 -0.0000000000e+00 -0.0000000000e+00 -4.8345280827e+01 4.8345280827e+01 0.0000000000e+00 0.0000e+00 1.0000e+00
       24  1    1    2    0    0 +6.3439743560e+01 +4.2551507932e+01 +5.2312990365e+01 1.2263399531e+02 8.0419002446e+01 0.0000e+00 1.0000e+00
      -24  1    1    2    0    0 -6.3439743560e+01 -4.2551507932e+01 +2.2008512414e+02 2.4645468085e+02 8.0419002446e+01 0.0000e+00 -1.0000e+00
<mgrwt>
<rscale>  0 0.11091640E+03</rscale>
<asrwt>0</asrwt>
<pdfrwt beam="1">  1        1 0.49345136E-01 0.11091640E+03</pdfrwt>
<pdfrwt beam="2">  1       -1 0.74377357E-02 0.11091640E+03</pdfrwt>
<totfact> 0.72746879E+03</totfact>
</mgrwt>
</event>
<event>
 4      2 +5.6305390e+02 6.70791200e+02 7.54677100e-03 9.76853000e-02
       21 -1    0    0  501  502 +0.0000000000e+00 +0.0000000000e+00 +8.8118024733e+02 8.8118024733e+02 0.0000000000e+00 0.0000e+00 1.0000e+00
       21 -1    0    0  502  503 -0.0000000000e+00 -0.0000000000e+00 -5.2039691497e+02 5.2039691497e+02 0.0000000000e+00 0.0000e+00 -1.0000e+00
        6  1    1    2  501    0 -5.8342977932e+02 -2.8220835778e+02 +2.7637649482e+02 7.2549626566e+02 1.7300000000e+02 0.0000e+00 -1.0000e+00
       -6  1    1    2    0  503 +5.8342977932e+02 +2.8220835778e+02 +8.4406837538e+01 6.7608089665e+02 1.7300000000e+02 0.0000e+00 1.0000e+00
<mgrwt>
<rscale>  2 0.67079122E+03</rscale>
<asrwt>0</asrwt>
<pdfrwt beam="1">  1       21 0.13556619E+00 0.67079122E+03</pdfrwt>
<pdfrwt beam="2">  1       21 0.80061064E-01 0.67079122E+03</pdfrwt>
<totfact> 0.40929438E+02</totfact>
</mgrwt>
</event>
<event>
 4      2 +5.6305390e+02 2.11652400e+02 7.54677100e-03 1.14026400e-01
       21 -1    0    0  501  502 +0.0000000000e+00 +0.0000000000e+00 +3.0526670238e+01 3.0526670238e+01 0.0000000000e+00 0.0000e+00 -1.0000e+00
       21 -1    0    0  502  503 -0.0000000000e+00 -0.0000000000e+00 -2.1262521929e+03 2.1262521929e+03 0.0000000000e+00 0.0000e+00 1.0000e+00
        6  1    1    2  501    0 +1.0580259059e+02 -6.0609794809e+01 -4.4759955375e+02 4.9511826458e+02 1.7300000000e+02 0.0000e+00 -1.0000e+00
       -6  1    1    2    0  503 -1.0580259059e+02 +6.0609794809e+01 -1.6481259689e+03 1.6616605985e+03 1.7300000000e+02 0.0000e+00 -1.0000e+00
<mgrwt>
<rscale>  2 0.21165239E+03</rscale>
<asrwt>0</asrwt>
<pdfrwt beam="1">  1       21 0.46964113E-02 0.21165239E+03</pdfrwt>
<pdfrwt beam="2">  1       21 0.32711569E+00 0.21165239E+03</pdfrwt>
<totfact> 0.69666403E+03</totfact>
</mgrwt>
</event>
<event>
 4      2 +5.6305390e+02 3.25031600e+02 7.54677100e-03 1.07335700e-01
       21 -1    0    0  503  502 +0.0000000000e+00 +0.0000000000e+00 +1.4407692432e+02 1.4407692432e+02 0.0000000000e+00 0.0000e+00 1.0000e+00
       21 -1    0    0  501  503 -0.0000000000e+00 -0.0000000000e+00 -8.0993573085e+02 8.0993573085e+02 0.0000000000e+00 0.0000e+00 -1.0000e+00
        6  1    1    2  501    0 -1.2371176730e+02 -2.4578841650e+02 -4.7969818514e+02 5.7944447179e+02 1.7300000000e+02 0.0000e+00 1.0000e+00
       -6  1    1    2    0  502 +1.2371176730e+02 +2.4578841650e+02 -1.8616062139e+02 3.7456818339e+02 1.7300000000e+02 0.0000e+00 -1.0000e+00
<mgrwt>
<rscale>  2 0.32503161E+03</rscale>
<asrwt>0</asrwt>
<pdfrwt beam="1">  1       21 0.22165681E-01 0.32503161E+03</pdfrwt>
<pdfrwt beam="2">  1       21 0.12460550E+00 0.32503161E+03</pdfrwt>
<totfact> 0.84730599E+03</totfact>
</mgrwt>
</event>
<event>
 4      3 +5.6305390e+02 9.45440800e+01 7.54677100e-03 1.29220600e-01
        3 -1    0    0  501    0 +0.0000000000e+00 +0.0000000000e+00 +9.9627257422e+01 9.9627257422e+01 0.0000000000e+00 0.0000e+00 -1.0000e+00
       -3 -1    0    0    0  501 -0.0000000000e+00 -0.0000000000e+00 -1.1204926976e+02 1.1204926976e+02 0.0000000000e+00 0.0000e+00 1.0000e+00
       24  1    1    2    0    0 -4.3092988683e+01 +2.4786228359e+01 +4.1035900612e+01 1.0306562901e+02 8.0419002446e+01 0.0000e+00 -1.0000e+00
      -24  1    1    2    0    0 +4.3092988683e+01 -2.4786228359e+01 -5.3457912947e+01 1.0861089817e+02 8.0419002446e+01 0.0000e+00 1.0000e+00
<mgrwt>
<rscale>  0 0.94544069E+02</rscale>
<asrwt>0</asrwt>
<pdfrwt beam="1">  1        3 0.15327270E-01 0.94544081E+02</pdfrwt>
<pdfrwt beam="2">  1       -3 0.17238349E-01 0.94544081E+02</pdfrwt>
<totfact> 0.22289490E+03</totfact>
</mgrwt>
</event>
<event>
 4      2 +5.6305390e+02 2.44855000e+02 7.54677100e-03 1.11660000e-01
       21 -1    0    0  503  502 +0.0000000000e+00 +0.0000000000e+00 +4.6793179974e+01 4.6793179974e+01 0.0000000000e+00 0.0000e+00 -1.0000e+00
       21 -1    0    0  501  503 -0.0000000000e+00 -0.0000000000e+00 -1.3946281876e+03 1.3946281876e+03 0.0000000000e+00 0.0000e+00 -1.0000e+00
        6  1    1    2  501    0 +1.4257352400e+02 +9.8477170761e+01 -8.7940635594e+02 9.1285787600e+02 1.7300000000e+02 0.0000e+00 -1.0000e+00
       -6  1    1    2    0  502 -1.4257352400e+02 -9.8477170761e+01 -4.6842865168e+02 5.2856349157e+02 1.7300000000e+02 0.0000e+00 -1.0000e+00
<mgrwt>
<rscale>  2 0.24485498E+03</rscale>
<asrwt>0</asrwt>
<pdfrwt beam="1">  1       21 0.71989519E-02 0.24485498E+03</pdfrwt>
<pdfrwt beam="2">  1       21 0.21455815E+00 0.24485498E+03</pdfrwt>
<totfact> 0.15062024E+04</totfact>
</mgrwt>
</event>
<event>
 4      2 +5.6305390e+02 1.85477000e+02 7.54677100e-03 1.16260500e-01
       21 -1    0    0  501  502 +0.0000000000e+00 +0.0000000000e+00 +2.6794626207e+01 2.6794626207e+01 0.0000000000e+00 0.0000e+00 -1.0000e+00
       21 -1    0    0  502  503 -0.0000000000e+00 -0.0000000000e+00 -1.3249585219e+03 1.3249585219e+03 0.0000000000e+00 0.0000e+00 -1.0000e+00
        6  1    1    2  501    0 -4.5105815168e+01 -4.9377854729e+01 -5.3010828528e+02 5.6161953422e+02 1.7300000000e+02 0.0000e+00 -1.0000e+00
       -6  1    1    2    0  503 +4.5105815168e+01 +4.9377854729e+01 -7.6805561040e+02 7.9013361387e+02 1.7300000000e+02 0.0000e+00 -1.0000e+00
<mgrwt>
<rscale>  2 0.18547697E+03</rscale>
<asrwt>0</asrwt>
<pdfrwt beam="1">  1       21 0.41222487E-02 0.18547697E+03</pdfrwt>
<pdfrwt beam="2">  1       21 0.20383984E+00 0.18547697E+03</pdfrwt>
<totfact> 0.47503492E+04</totfact>
</mgrwt>
</event>
<event>
 4      2 +5.6305390e+02 1.88103300e+02 7.54677100e-03 1.16018300e-01
       21 -1    0    0  501  502 +0.0000000000e+00 +0.0000000000e+00 +3.8268543082e+02 3.8268543082e+02 0.0000000000e+00 0.0000e+00 1.0000e+00
       21 -1    0    0  502  503 -0.0000000000e+00 -0.0000000000e+00 -1.0990850608e+02 1.0990850608e+02 0.0000000000e+00 0.0000e+00 1.0000e+00
        6  1    1    2  501    0 +7.0821246553e+01 -2.0933087609e+01 +2.3452499907e+02 3.0064067973e+02 1.7300000000e+02 0.0000e+00 1.0000e+00
       -6  1    1    2    0  503 -7.0821246553e+01 +2.0933087609e+01 +3.8251925663e+01 1.9195325717e+02 1.7300000000e+02 0.0000e+00 1.0000e+00
<mgrwt>
<rscale>  2 0.18810328E+03</rscale>
<asrwt>0</asrwt>
<pdfrwt beam="1">  1       21 0.58874681E-01 0.18810328E+03</pdfrwt>
<pdfrwt beam="2">  1       21 0.16909001E-01 0.18810328E+03</pdfrwt>
<totfact> 0.85178021E+04</totfact>
</mgrwt>
</event>
<event>
 4      2 +5.6305390e+02 2.02572600e+02 7.54677100e-03 1.14758700e-01
       -1 -1    0    0    0  501 -0.0000000000e+00 +0.0000000000e+00 +2.3778224535e+01 2.3778224535e+01 0.0000000000e+00 0.0000e+00 -1.0000e+00
        1 -1    0    0  502    0 +0.0000000000e+00 -0.0000000000e+00 -1.8266570612e+03 1.8266570612e+03 0.0000000000e+00 0.0000e+00 1.0000e+00
        6  1    1    2  502    0 -1.0532716036e+02 +3.5829424692e+00 -6.8399811848e+02 7.1336461523e+02 1.7300000000e+02 0.0000e+00 1.0000e+00
       -6  1    1    2    0  501 +1.0532716036e+02 -3.5829424692e+00 -1.1188807182e+03 1.1370706705e+03 1.7300000000e+02 0.0000e+00 1.0000e+00
<mgrwt>
<rscale>  2 0.20257258E+03</rscale>
<asrwt>0</asrwt>
<pdfrwt beam="1">  1        1 0.28102411E+00 0.20257258E+03</pdfrwt>
<pdfrwt beam="2">  1       -1 0.36581891E-02 0.20257258E+03</pdfrwt>
<totfact> 0.12340497E+03</totfact>
</mgrwt>
</event>
<event>
 4      2 +5.6305390e+02 3.70586400e+02 7.54677100e-03 1.05446900e-01
       21 -1    0    0  501  502 +0.0000000000e+00 +0.0000000000e+00 +3.4335873294e+02 3.4335873294e+02 0.0000000000e+00 0.0000e+00 1.0000e+00
       21 -1    0    0  502  503 -0.0000000000e+00 -0.0000000000e+00 -4.6611427406e+02 4.6611427406e+02 0.0000000000e+00 0.0000e+00 -1.0000e+00
        6  1    1    2  501    0 +6.0306278348e+01 -3.2213104168e+02 -2.1383995549e+02 4.2785719789e+02 1.7300000000e+02 0.0000e+00 1.0000e+00
       -6  1    1    2    0  503 -6.0306278348e+01 +3.2213104168e+02 +9.1084414367e+01 3.8161580911e+02 1.7300000000e+02 0.0000e+00 -1.0000e+00
<mgrwt>
<rscale>  2 0.37058637E+03</rscale>
<asrwt>0</asrwt>
<pdfrwt beam="1">  1       21 0.52824420E-01 0.37058637E+03</pdfrwt>
<pdfrwt beam="2">  1       21 0.71709889E-01 0.37058637E+03</pdfrwt>
<totfact> 0.54080345E+03</totfact>
</mgrwt>
</event>
<event>
 4      2 +5.6305390e+02 2.03126300e+02 7.54677100e-03 1.14712800e-01
       21 -1    0    0  501  502 +0.0000000000e+00 +0.0000000000e+00 +6.1651141361e+02 6.1651141361e+02 0.0000000000e+00 0.0000e+00 1.0000e+00
       21 -1    0    0  502  503 -0.0000000000e+00 -0.0000000000e+00 -7.0779925596e+01 7.0779925596e+01 0.0000000000e+00 0.0000e+00 -1.0000e+00
        6  1    1    2  501    0 +9.9413032293e+01 +3.8057150807e+01 +3.5305921835e+02 4.0732187442e+02 1.7300000000e+02 0.0000e+00 -1.0000e+00
       -6  1    1    2    0  503 -9.9413032293e+01 -3.8057150807e+01 +1.9267226967e+02 2.7996946479e+02 1.7300000000e+02 0.0000e+00 -1.0000e+00
<mgrwt>
<rscale>  2 0.20312631E+03</rscale>
<asrwt>0</asrwt>
<pdfrwt beam="1">  1       21 0.94847906E-01 0.20312631E+03</pdfrwt>
<pdfrwt beam="2">  1       21 0.10889220E-01 0.20312631E+03</pdfrwt>
<totfact> 0.64555914E+04</totfact>
</mgrwt>
</event>
<event>
 4      2 +5.6305390e+02 2.33438800e+02 7.54677100e-03 1.12424200e-01
        1 -1    0    0  502    0 +0.0000000000e+00 +0.0000000000e+00 +1.1850531798e+03 1.1850531798e+03 0.0000000000e+00 0.0000e+00 -1.0000e+00
       -1 -1    0    0    0  501 -0.0000000000e+00 -0.0000000000e+00 -4.9231024357e+01 4.9231024357e+01 0.0000000000e+00 0.0000e+00 1.0000e+00
        6  1    1    2  502    0 +1.5663687843e+02 -5.4387219764e+00 +7.2639926167e+02 7.6298727298e+02 1.7300000000e+02 0.0000e+00 -1.0000e+00
       -6  1    1    2    0  501 -1.5663687843e+02 +5.4387219764e+00 +4.0942289374e+02 4.7129693114e+02 1.7300000000e+02 0.0000e+00 1.0000e+00
<mgrwt>
<rscale>  2 0.23343884E+03</rscale>
<asrwt>0</asrwt>
<pdfrwt beam="1">  1        1 0.18231585E+00 0.23343884E+03</pdfrwt>
<pdfrwt beam="2">  1       -1 0.75740047E-02 0.23343884E+03</pdfrwt>
<totfact> 0.11012559E+03</totfact>
</mgrwt>
</event>
<event>
 4      2 +5.6305390e+02 2.30726700e+02 7.54677100e-03 1.12612900e-01
       21 -1    0    0  503  502 +0.0000000000e+00 +0.0000000000e+00 +9.2844858969e+02 9.2844858969e+02 0.0000000000e+00 0.0000e+00 1.0000e+00
       21 -1    0    0  501  503 -0.0000000000e+00 -0.0000000000e+00 -5.7374273209e+01 5.7374273209e+01 0.0000000000e+00 0.0000e+00 -1.0000e+00
        6  1    1    2  501    0 +3.1490064695e+01 -1.4937939893e+02 +4.2304146134e+02 4.8187021802e+02 1.7300000000e+02 0.0000e+00 1.0000e+00
       -6  1    1    2    0  502 -3.1490064695e+01 +1.4937939893e+02 +4.4803285514e+02 5.0395264488e+02 1.7300000000e+02 0.0000e+00 1.0000e+00
<mgrwt>
<rscale>  2 0.23072674E+03</rscale>
<asrwt>0</asrwt>
<pdfrwt beam="1">  1       21 0.14283823E+00 0.23072674E+03</pdfrwt>
<pdfrwt beam="2">  1       21 0.88268119E-02 0.23072674E+03</pdfrwt>
<totfact> 0.33589760E+04</totfact>
</mgrwt>
</event>
<event>
 4      2 +5.6305390e+02 1.78343400e+02 7.54677100e-03 1.16941600e-01
       21 -1    0    0  501  502 +0.0000000000e+00 +0.0000000000e+00 +2.8502172115e+02 2.8502172115e+02 0.0000000000e+00 0.0000e+00 1.0000e+00
       21 -1    0    0  502  503 -0.0000000000e+00 -0.0000000000e+00 -1.1471606020e+02 1.1471606020e+02 0.0000000000e+00 0.0000e+00 1.0000e+00
        6  1    1    2  501    0 -4.0051497495e+01 -1.6529885094e+01 +1.1813203617e+02 2.1391946504e+02 1.7300000000e+02 0.0000e+00 -1.0000e+00
       -6  1    1    2    0  503 +4.0051497495e+01 +1.6529885094e+01 +5.2173624783e+01 1.8581831631e+02 1.7300000000e+02 0.0000e+00 -1.0000e+00
<mgrwt>
<rscale>  2 0.17834338E+03</rscale>
<asrwt>0</asrwt>
<pdfrwt beam="1">  1       21 0.43849495E-01 0.17834338E+03</pdfrwt>
<pdfrwt beam="2">  1       21 0.17648625E-01 0.17834338E+03</pdfrwt>
<totfact> 0.14618220E+05</totfact>
</mgrwt>
</event>
<event>
 4      2 +5.6305390e+02 2.46895000e+02 7.54677100e-03 1.11528300e-01
       21 -1    0    0  503  502 +0.0000000000e+00 +0.0000000000e+00 +8.5295637609e+01 8.5295637609e+01 0.0000000000e+00 0.0000e+00 1.0000e+00
       21 -1    0    0  501  503 -0.0000000000e+00 -0.0000000000e+00 -1.1684093969e+03 1.1684093969e+03 0.0000000000e+00 0.0000e+00 -1.0000e+00
        6  1    1    2  501    0 -9.1514234917e+01 +1.5051001166e+02 -9.3219745567e+02 9.6433874503e+02 1.7300000000e+02 0.0000e+00 -1.0000e+00
       -6  1    1    2    0  502 +9.1514234917e+01 -1.5051001166e+02 -1.5091630366e+02 2.8936628952e+02 1.7300000000e+02 0.0000e+00 -1.0000e+00
<mgrwt>
<rscale>  2 0.24689495E+03</rscale>
<asrwt>0</asrwt>
<pdfrwt beam="1">  1       21 0.13122406E-01 0.24689495E+03</pdfrwt>
<pdfrwt beam="2">  1       21 0.17975529E+00 0.24689495E+03</pdfrwt>
<totfact> 0.87687398E+03</totfact>
</mgrwt>
</event>
<event>
 4      3 +5.6305390e+02 8.58875200e+01 7.54677100e-03 1.31312800e-01
       -1 -1    0    0    0  501 -0.0000000000e+00 +0.0000000000e+00 +1.0152346284e+01 1.0152346284e+01 0.0000000000e+00 0.0000e+00 1.0000e+00
        1 -1    0    0  501    0 +0.0000000000e+00 -0.0000000000e+00 -8.2214015214e+02 8.2214015214e+02 0.0000000000e+00 0.0000e+00 -1.0000e+00
       24  1    1    2    0    0 -2.9268232994e+01 -7.2677793163e+00 -2.6412981779e+02 2.7774309475e+02 8.0419002446e+01 0.0000e+00 -1.0000e+00
      -24  1    1    2    0    0 +2.9268232994e+01 +7.2677793163e+00 -5.4785798806e+02 5.5454940367e+02 8.0419002446e+01 0.0000e+00 0.0000e+00
<mgrwt>
<rscale>  0 0.85887520E+02</rscale>
<asrwt>0</asrwt>
<pdfrwt beam="1">  1        1 0.12648314E+00 0.85887520E+02</pdfrwt>
<pdfrwt beam="2">  1       -1 0.15618989E-02 0.85887520E+02</pdfrwt>
<totfact> 0.19825542E+04</totfact>
</mgrwt>
</event>
<event>
 4      2 +5.6305390e+02 1.97139100e+02 7.54677100e-03 1.15217500e-01
       21 -1    0    0  503  502 +0.0000000000e+00 +0.0000000000e+00 +1.1503780697e+02 1.1503780697e+02 0.0000000000e+00 0.0000e+00 -1.0000e+00
       21 -1    0    0  501  503 -0.0000000000e+00 -0.0000000000e+00 -3.4957173876e+02 3.4957173876e+02 0.0000000000e+00 0.0000e+00 -1.0000e+00
        6  1    1    2  501    0 +3.8741785941e+01 -8.6220060957e+01 -7.4701313675e+01 2.1081772021e+02 1.7300000000e+02 0.0000e+00 -1.0000e+00
       -6  1    1    2    0  502 -3.8741785941e+01 +8.6220060957e+01 -1.5983261811e+02 2.5379182552e+02 1.7300000000e+02 0.0000e+00 -1.0000e+00
<mgrwt>
<rscale>  2 0.19713910E+03</rscale>
<asrwt>0</asrwt>
<pdfrwt beam="1">  1       21 0.17698124E-01 0.19713910E+03</pdfrwt>
<pdfrwt beam="2">  1       21 0.53780267E-01 0.19713910E+03</pdfrwt>
<totfact> 0.94561785E+04</totfact>
</mgrwt>
</event>
<event>
 4      2 +5.6305390e+02 1.97312700e+02 7.54677100e-03 1.15202600e-01
       21 -1    0    0  501  502 +0.0000000000e+00 +0.0000000000e+00 +1.1389295918e+03 1.1389295918e+03 0.0000000000e+00 0.0000e+00 -1.0000e+00
       21 -1    0    0  502  503 -0.0000000000e+00 -0.0000000000e+00 -1.3722188167e+02 1.3722188167e+02 0.0000000000e+00 0.0000e+00 -1.0000e+00
        6  1    1    2  501    0 -9.0125165422e+01 +2.9677492723e+01 +1.0537717123e+03 1.0720854073e+03 1.7300000000e+02 0.0000e+00 -1.0000e+00
       -6  1    1    2    0  503 +9.0125165422e+01 -2.9677492723e+01 -5.2064002180e+01 2.0406606612e+02 1.7300000000e+02 0.0000e+00 -1.0000e+00
<mgrwt>
<rscale>  2 0.19731269E+03</rscale>
<asrwt>0</asrwt>
<pdfrwt beam="1">  1       21 0.17521993E+00 0.19731269E+03</pdfrwt>
<pdfrwt beam="2">  1       21 0.21111060E-01 0.19731269E+03</pdfrwt>
<totfact> 0.40763350E+03</totfact>
</mgrwt>
</event>
<event>
 4      2 +5.6305390e+02 2.86864400e+02 7.54677100e-03 1.09199800e-01
       21 -1    0    0  501  502 +0.0000000000e+00 +0.0000000000e+00 +1.6277967515e+02 1.6277967515e+02 0.0000000000e+00 0.0000e+00 1.0000e+00
       21 -1    0    0  502  503 -0.0000000000e+00 -0.0000000000e+00 -5.1387949334e+02 5.1387949334e+02 0.0000000000e+00 0.0000e+00 1.0000e+00
        6  1    1    2  501    0 -3.8876514476e+01 +2.2550119159e+02 -1.3244232110e+02 3.1596224333e+02 1.7300000000e+02 0.0000e+00 1.0000e+00
       -6  1    1    2    0  503 +3.8876514476e+01 -2.2550119159e+02 -2.1865749709e+02 3.6069692517e+02 1.7300000000e+02 0.0000e+00 1.0000e+00
<mgrwt>
<rscale>  2 0.28686438E+03</rscale>
<asrwt>0</asrwt>
<pdfrwt beam="1">  1       21 0.25043027E-01 0.28686438E+03</pdfrwt>
<pdfrwt beam="2">  1       21 0.79058383E-01 0.28686438E+03</pdfrwt>
<totfact> 0.20324509E+04</totfact>
</mgrwt>
</event>
<event>
 4      2 +5.6305390e+02 1.81386500e+02 7.54677100e-03 1.16646800e-01
       21 -1    0    0  503  502 +0.0000000000e+00 +0.0000000000e+00 +1.0996756682e+02 1.0996756682e+02 0.0000000000e+00 0.0000e+00 -1.0000e+00
       21 -1    0    0  501  503 -0.0000000000e+00 -0.0000000000e+00 -5.4838689588e+02 5.4838689588e+02 0.0000000000e+00 0.0000e+00 -1.0000e+00
        6  1    1    2  501    0 -1.9083445497e+01 +5.1067507514e+01 +2.6909899207e+00 1.8140647630e+02 1.7300000000e+02 0.0000e+00 -1.0000e+00
       -6  1    1    2    0  502 +1.9083445497e+01 -5.1067507514e+01 -4.4111031898e+02 4.7694798640e+02 1.7300000000e+02 0.0000e+00 -1.0000e+00
<mgrwt>
<rscale>  2 0.18138652E+03</rscale>
<asrwt>0</asrwt>
<pdfrwt beam="1">  1       21 0.16918087E-01 0.18138652E+03</pdfrwt>
<pdfrwt beam="2">  1       21 0.84367215E-01 0.18138652E+03</pdfrwt>
<totfact> 0.38590531E+04</totfact>
</mgrwt>
</event>
<event>
 4      2 +5.6305390e+02 2.20432800e+02 7.54677100e-03 1.13356100e-01
       -1 -1    0    0    0  501 -0.0000000000e+00 +0.0000000000e+00 +3.5242796346e+02 3.5242796346e+02 0.0000000000e+00 0.0000e+00 1.0000e+00
        1 -1    0    0  502    0 +0.0000000000e+00 -0.0000000000e+00 -4.8868178088e+02 4.8868178088e+02 0.0000000000e+00 0.0000e+00 -1.0000e+00
        6  1    1    2  502    0 +1.9907278066e+01 +1.3514926728e+02 -4.2445023523e+02 4.7827672571e+02 1.7300000000e+02 0.0000e+00 -1.0000e+00
       -6  1    1    2    0  501 -1.9907278066e+01 -1.3514926728e+02 +2.8819641781e+02 3.6283301863e+02 1.7300000000e+02 0.0000e+00 1.0000e+00
<mgrwt>
<rscale>  2 0.22043281E+03</rscale>
<asrwt>0</asrwt>
<pdfrwt beam="1">  1        1 0.75181812E-01 0.22043281E+03</pdfrwt>
<pdfrwt beam="2">  1       -1 0.54219687E-01 0.22043281E+03</pdfrwt>
<totfact> 0.16730678E+02</totfact>
</mgrwt>
</event>
<event>
 4      2 +5.6305390e+02 1.98405500e+02 7.54677100e-03 1.15109100e-01
        1 -1    0    0  502    0 +0.0000000000e+00 +0.0000000000e+00 +1.2854524745e+02 1.2854524745e+02 0.0000000000e+00 0.0000e+00 -1.0000e+00
       -1 -1    0    0    0  501 -0.0000000000e+00 -0.0000000000e+00 -7.4632391413e+02 7.4632391413e+02 0.0000000000e+00 0.0000e+00 1.0000e+00
        6  1    1    2  502    0 -7.6596526269e+01 +5.9738842902e+01 -6.4479767345e+02 6.7463234200e+02 1.7300000000e+02 0.0000e+00 1.0000e+00
       -6  1    1    2    0  501 +7.6596526269e+01 -5.9738842902e+01 +2.7019006770e+01 2.0023681958e+02 1.7300000000e+02 0.0000e+00 -1.0000e+00
<mgrwt>
<rscale>  2 0.19840554E+03</rscale>
<asrwt>0</asrwt>
<pdfrwt beam="1">  1        1 0.19776192E-01 0.19840554E+03</pdfrwt>
<pdfrwt beam="2">  1       -1 0.11481906E+00 0.19840554E+03</pdfrwt>
<totfact> 0.19251796E+02</totfact>
</mgrwt>
</event>
<event>
 4      2 +5.6305390e+02 1.80750800e+02 7.54677100e-03 1.16707800e-01
       21 -1    0    0  501  502 +0.0000000000e+00 +0.0000000000e+00 +2.5881068737e+03 2.5881068737e+03 0.0000000000e+00 0.0000e+00 1.0000e+00
       21 -1    0    0  502  503 -0.0000000000e+00 -0.0000000000e+00 -1.2840589248e+01 1.2840589248e+01 0.0000000000e+00 0.0000e+00 1.0000e+00
        6  1    1    2  501    0 +5.1771523704e+01 -7.8466612633e+00 +1.4567431726e+03 1.4679140069e+03 1.7300000000e+02 0.0000e+00 1.0000e+00
       -6  1    1    2    0  503 -5.1771523704e+01 +7.8466612633e+00 +1.1185231119e+03 1.1330334561e+03 1.7300000000e+02 0.0000e+00 1.0000e+00
<mgrwt>
<rscale>  2 0.18075083E+03</rscale>
<asrwt>0</asrwt>
<pdfrwt beam="1">  1       21 0.39816987E+00 0.18075083E+03</pdfrwt>
<pdfrwt beam="2">  1       21 0.19754773E-02 0.18075083E+03</pdfrwt>
<totfact> 0.11409691E+04</totfact>
</mgrwt>
</event>
<event>
 4      2 +5.6305390e+02 2.55157300e+02 7.54677100e-03 1.11008800e-01
       21 -1    0    0  503  502 +0.0000000000e+00 +0.0000000000e+00 +5.9991697264e+02 5.9991697264e+02 0.0000000000e+00 0.0000e+00 -1.0000e+00
       21 -1    0    0  501  503 -0.0000000000e+00 -0.0000000000e+00 -1.3209858604e+02 1.3209858604e+02 0.0000000000e+00 0.0000e+00 1.0000e+00
        6  1    1    2  501    0 +7.6014371715e+01 +1.7145856288e+02 +7.9289139912e+01 2.6719279781e+02 1.7300000000e+02 0.0000e+00 1.0000e+00
       -6  1    1    2    0  502 -7.6014371715e+01 -1.7145856288e+02 +3.8852924669e+02 4.6482276087e+02 1.7300000000e+02 0.0000e+00 -1.0000e+00
<mgrwt>
<rscale>  2 0.25515725E+03</rscale>
<asrwt>0</asrwt>
<pdfrwt beam="1">  1       21 0.92294918E-01 0.25515725E+03</pdfrwt>
<pdfrwt beam="2">  1       21 0.20322860E-01 0.25515725E+03</pdfrwt>
<totfact> 0.21455708E+04</totfact>
</mgrwt>
</event>
<event>
 4      2 +5.6305390e+02 2.38686400e+02 7.54677100e-03 1.12067100e-01
        2 -1    0    0  502    0 +0.0000000000e+00 +0.0000000000e+00 +2.1000395804e+03 2.1000395804e+03 0.0000000000e+00 0.0000e+00 -1.0000e+00
       -2 -1    0    0    0  501 -0.0000000000e+00 -0.0000000000e+00 -2.7129166050e+01 2.7129166050e+01 0.0000000000e+00 0.0000e+00 1.0000e+00
        6  1    1    2  502    0 -2.1910921776e+01 +1.6297892526e+02 +1.0317734629e+03 1.0590220476e+03 1.7300000000e+02 0.0000e+00 -1.0000e+00
       -6  1    1    2    0  501 +2.1910921776e+01 -1.6297892526e+02 +1.0411369514e+03 1.0681466988e+03 1.7300000000e+02 0.0000e+00 1.0000e+00
<mgrwt>
<rscale>  2 0.23868644E+03</rscale>
<asrwt>0</asrwt>
<pdfrwt beam="1">  1        2 0.32308288E+00 0.23868644E+03</pdfrwt>
<pdfrwt beam="2">  1       -2 0.41737195E-02 0.23868644E+03</pdfrwt>
<totfact> 0.16996805E+03</totfact>
</mgrwt>
</event>
<event>
 4      2 +5.6305390e+02 1.92312000e+02 7.54677100e-03 1.15639200e-01
       21 -1    0    0  501  502 +0.0000000000e+00 +0.0000000000e+00 +3.2495377677e+02 3.2495377677e+02 0.0000000000e+00 0.0000e+00 1.0000e+00
       21 -1    0    0  502  503 -0.0000000000e+00 -0.0000000000e+00 -1.3002166012e+02 1.3002166012e+02 0.0000000000e+00 0.0000e+00 -1.0000e+00
        6  1    1    2  501    0 -3.4522839794e+01 -7.6570754534e+01 +1.7778648759e+02 2.6190063400e+02 1.7300000000e+02 0.0000e+00 1.0000e+00
       -6  1    1    2    0  503 +3.4522839794e+01 +7.6570754534e+01 +1.7145629067e+01 1.9307480290e+02 1.7300000000e+02 0.0000e+00 -1.0000e+00
<mgrwt>
<rscale>  2 0.19231200E+03</rscale>
<asrwt>0</asrwt>
<pdfrwt beam="1">  1       21 0.49992889E-01 0.19231200E+03</pdfrwt>
<pdfrwt beam="2">  1       21 0.20003332E-01 0.19231200E+03</pdfrwt>
<totfact> 0.87971945E+04</totfact>
</mgrwt>
</event>
<event>
 4      3 +5.6305390e+02 1.77265500e+02 7.54677100e-03 1.17047600e-01
        2 -1    0    0  501    0 +0.0000000000e+00 +0.0000000000e+00 +1.4199933017e+02 1.4199933017e+02 0.0000000000e+00 0.0000e+00 -1.0000e+00
       -2 -1    0    0    0  501 -0.0000000000e+00 -0.0000000000e+00 -4.6839860575e+02 4.6839860575e+02 0.0000000000e+00 0.0000e+00 1.0000e+00
       24  1    1    2    0    0 -1.3897017889e+02 -7.5120757609e+01 +5.8476556298e+01 1.8666162551e+02 8.0419002446e+01 0.0000e+00 -1.0000e+00
      -24  1    1    2    0    0 +1.3897017889e+02 +7.5120757609e+01 -3.8487583188e+02 4.2373631042e+02 8.0419002446e+01 0.0000e+00 1.0000e+00
<mgrwt>
<rscale>  0 0.17726549E+03</rscale>
<asrwt>0</asrwt>
<pdfrwt beam="1">  1        2 0.21846051E-01 0.17726549E+03</pdfrwt>
<pdfrwt beam="2">  1       -2 0.72061323E-01 0.17726549E+03</pdfrwt>
<totfact> 0.44898503E+02</totfact>
</mgrwt>
</event>
<event>
 4      2 +5.6305390e+02 1.83090500e+02 7.54677100e-03 1.16484500e-01
       21 -1    0    0  503  502 +0.0000000000e+00 +0.0000000000e+00 +3.9832405909e+02 3.9832405909e+02 0.0000000000e+00 0.0000e+00 -1.0000e+00
       21 -1    0    0  501  503 -0.0000000000e+00 -0.0000000000e+00 -1.4263967145e+02 1.4263967145e+02 0.0000000000e+00 0.0000e+00 -1.0000e+00
        6  1    1    2  501    0 -4.1146437018e+01 +4.3590236470e+01 -4.5349893130e+01 1.8862330397e+02 1.7300000000e+02 0.0000e+00 -1.0000e+00
       -6  1    1    2    0  502 +4.1146437018e+01 -4.3590236470e+01 +3.0103428077e+02 3.5234042657e+02 1.7300000000e+02 0.0000e+00 -1.0000e+00
<mgrwt>
<rscale>  2 0.18309052E+03</rscale>
<asrwt>0</asrwt>
<pdfrwt beam="1">  1       21 0.61280624E-01 0.18309052E+03</pdfrwt>
<pdfrwt beam="2">  1       21 0.21944565E-01 0.18309052E+03</pdfrwt>
<totfact> 0.48244376E+04</totfact>
</mgrwt>
</event>
<event>
 4      2 +5.6305390e+02 1.98770700e+02 7.54677100e-03 1.15078000e-01
       21 -1    0    0  503  502 +0.0000000000e+00 +0.0000000000e+00 +1.9598825453e+02 1.9598825453e+02 0.0000000000e+00 0.0000e+00 -1.0000e+00
       21 -1    0    0  501  503 -0.0000000000e+00 -0.0000000000e+00 -2.3593413598e+02 2.3593413598e+02 0.0000000000e+00 0.0000e+00 -1.0000e+00
        6  1    1    2  501    0 -9.0744466491e+01 +3.6690880117e+01 -1.0236593460e+02 2.2358122338e+02 1.7300000000e+02 0.0000e+00 -1.0000e+00
       -6  1    1    2    0  502 +9.0744466491e+01 -3.6690880117e+01 +6.2420053154e+01 2.0834116712e+02 1.7300000000e+02 0.0000e+00 -1.0000e+00
<mgrwt>
<rscale>  2 0.19877067E+03</rscale>
<asrwt>0</asrwt>
<pdfrwt beam="1">  1       21 0.30152039E-01 0.19877067E+03</pdfrwt>
<pdfrwt beam="2">  1       21 0.36297559E-01 0.19877067E+03</pdfrwt>
<totfact> 0.77030420E+04</totfact>
</mgrwt>
</event>
<event>
 4      2 +5.6305390e+02 2.00915100e+02 7.54677100e-03 1.14896900e-01
       21 -1    0    0  503  502 +0.0000000000e+00 +0.0000000000e+00 +1.9884525416e+03 1.9884525416e+03 0.0000000000e+00 0.0000e+00 1.0000e+00
       21 -1    0    0  501  503 -0.0000000000e+00 -0.0000000000e+00 -2.0369028656e+01 2.0369028656e+01 0.0000000000e+00 0.0000e+00 1.0000e+00
        6  1    1    2  501    0 -3.4739448513e+01 -9.6078441669e+01 +1.0422331957e+03 1.0614221264e+03 1.7300000000e+02 0.0000e+00 1.0000e+00
       -6  1    1    2    0  502 +3.4739448513e+01 +9.6078441669e+01 +9.2585031722e+02 9.4739944381e+02 1.7300000000e+02 0.0000e+00 1.0000e+00
<mgrwt>
<rscale>  2 0.20091515E+03</rscale>
<asrwt>0</asrwt>
<pdfrwt beam="1">  1       21 0.30591562E+00 0.20091515E+03</pdfrwt>
<pdfrwt beam="2">  1       21 0.31336983E-02 0.20091515E+03</pdfrwt>
<totfact> 0.18424289E+04</totfact>
</mgrwt>
</event>
<event>
 4      2 +5.6305390e+02 2.28452600e+02 7.54677100e-03 1.12773400e-01
       21 -1    0    0  501  502 +0.0000000000e+00 +0.0000000000e+00 +3.2924030470e+02 3.2924030470e+02 0.0000000000e+00 0.0000e+00 -1.0000e+00
       21 -1    0    0  502  503 -0.0000000000e+00 -0.0000000000e+00 -1.6783101087e+02 1.6783101087e+02 0.0000000000e+00 0.0000e+00 1.0000e+00
        6  1    1    2  501    0 +9.4181644684e+01 -1.1572117431e+02 +2.2159140671e+01 2.2952472611e+02 1.7300000000e+02 0.0000e+00 1.0000e+00
       -6  1    1    2    0  503 -9.4181644684e+01 +1.1572117431e+02 +1.3925015316e+02 2.6754658947e+02 1.7300000000e+02 0.0000e+00 -1.0000e+00
<mgrwt>
<rscale>  2 0.22845256E+03</rscale>
<asrwt>0</asrwt>
<pdfrwt beam="1">  1       21 0.50652355E-01 0.22845256E+03</pdfrwt>
<pdfrwt beam="2">  1       21 0.25820156E-01 0.22845256E+03</pdfrwt>
<totfact> 0.51946043E+04</totfact>
</mgrwt>
</event>
<event>
 4      2 +5.6305390e+02 2.30985500e+02 7.54677100e-03 1.12594800e-01
       21 -1    0    0  503  502 +0.0000000000e+00 +0.0000000000e+00 +5.8386899352e+02 5.8386899352e+02 0.0000000000e+00 0.0000e+00 -1.0000e+00
       21 -1    0    0  501  503 -0.0000000000e+00 -0.0000000000e+00 -1.0617511867e+02 1.0617511867e+02 0.0000000000e+00 0.0000e+00 1.0000e+00
        6  1    1    2  501    0 +7.0043364506e+01 +1.3608532101e+02 +3.6763813726e+02 4.3417978704e+02 1.7300000000e+02 0.0000e+00 1.0000e+00
       -6  1    1    2    0  502 -7.0043364506e+01 -1.3608532101e+02 +1.1005573759e+02 2.5586432515e+02 1.7300000000e+02 0.0000e+00 -1.0000e+00
<mgrwt>
<rscale>  2 0.23098547E+03</rscale>
<asrwt>0</asrwt>
<pdfrwt beam="1">  1       21 0.89825997E-01 0.23098547E+03</pdfrwt>
<pdfrwt beam="2">  1       21 0.16334634E-01 0.23098547E+03</pdfrwt>
<totfact> 0.34727015E+04</totfact>
</mgrwt>
</event>
<event>
 4      2 +5.6305390e+02 2.15617900e+02 7.54677100e-03 1.13719300e-01
       21 -1    0    0  503  502 +0.0000000000e+00 +0.0000000000e+00 +9.3239431814e+01 9.3239431814e+01 0.0000000000e+00 0.0000e+00 1.0000e+00
       21 -1    0    0  501  503 -0.0000000000e+00 -0.0000000000e+00 -9.3969694100e+02 9.3969694100e+02 0.0000000000e+00 0.0000e+00 1.0000e+00
        6  1    1    2  501    0 +9.9669815514e+01 +8.1412627444e+01 -7.7706850553e+02 8.0642826731e+02 1.7300000000e+02 0.0000e+00 1.0000e+00
       -6  1    1    2    0  502 -9.9669815514e+01 -8.1412627444e+01 -6.9389003661e+01 2.2650810551e+02 1.7300000000e+02 0.0000e+00 1.0000e+00
<mgrwt>
<rscale>  2 0.21561792E+03</rscale>
<asrwt>0</asrwt>
<pdfrwt beam="1">  1       21 0.14344528E-01 0.21561792E+03</pdfrwt>
<pdfrwt beam="2">  1       21 0.14456876E+00 0.21561792E+03</pdfrwt>
<totfact> 0.13785725E+04</totfact>
</mgrwt>
</event>
<event>
 4      2 +5.6305390e+02 2.01963700e+02 7.54677100e-03 1.14809300e-01
       21 -1    0    0  503  502 +0.0000000000e+00 +0.0000000000e+00 +2.9991625887e+02 2.9991625887e+02 0.0000000000e+00 0.0000e+00 1.0000e+00
       21 -1    0    0  501  503 -0.0000000000e+00 -0.0000000000e+00 -1.5463303871e+02 1.5463303871e+02 0.0000000000e+00 0.0000e+00 1.0000e+00
        6  1    1    2  501    0 -3.5387324234e+01 -9.8020751174e+01 -6.2468986692e+00 2.0206027348e+02 1.7300000000e+02 0.0000e+00 1.0000e+00
       -6  1    1    2    0  502 +3.5387324234e+01 +9.8020751174e+01 +1.5153011883e+02 2.5248902410e+02 1.7300000000e+02 0.0000e+00 1.0000e+00
<mgrwt>
<rscale>  2 0.20196369E+03</rscale>
<asrwt>0</asrwt>
<pdfrwt beam="1">  1       21 0.46140963E-01 0.20196369E+03</pdfrwt>
<pdfrwt beam="2">  1       21 0.23789698E-01 0.20196369E+03</pdfrwt>
<totfact> 0.74621477E+04</totfact>
</mgrwt>
</event>
<event>
 4      2 +5.6305390e+02 2.11120400e+02 7.54677100e-03 1.14068200e-01
       21 -1    0    0  503  502 +0.0000000000e+00 +0.0000000000e+00 +2.4418984064e+02 2.4418984064e+02 0.0000000000e+00 0.0000e+00 1.0000e+00
       21 -1    0    0  501  503 -0.0000000000e+00 -0.0000000000e+00 -2.3269295798e+02 2.3269295798e+02 0.0000000000e+00 0.0000e+00 1.0000e+00
        6  1    1    2  501    0 -1.2035116906e+02 +1.2587199057e+01 -1.0496081093e+02 2.3577237604e+02 1.7300000000e+02 0.0000e+00 1.0000e+00
       -6  1    1    2    0  502 +1.2035116906e+02 -1.2587199057e+01 +1.1645769359e+02 2.4111042257e+02 1.7300000000e+02 0.0000e+00 1.0000e+00
<mgrwt>
<rscale>  2 0.21112044E+03</rscale>
<asrwt>0</asrwt>
<pdfrwt beam="1">  1       21 0.37567668E-01 0.21112044E+03</pdfrwt>
<pdfrwt beam="2">  1       21 0.35798917E-01 0.21112044E+03</pdfrwt>
<totfact> 0.50963534E+04</totfact>
</mgrwt>
</event>
<event>
 4      2 +5.6305390e+02 1.77466000e+02 7.54677100e-03 1.17027800e-01
        1 -1    0    0  502    0 +0.0000000000e+00 +0.0000000000e+00 +1.3454260501e+03 1.3454260501e+03 0.0000000000e+00 0.0000e+00 1.0000e+00
       -1 -1    0    0    0  501 -0.0000000000e+00 -0.0000000000e+00 -3.0954074704e+01 3.0954074704e+01 0.0000000000e+00 0.0000e+00 -1.0000e+00
        6  1    1    2  502    0 -3.6487355489e+01 +1.5292685577e+01 +3.1745412920e+02 3.6369123923e+02 1.7300000000e+02 0.0000e+00 -1.0000e+00
       -6  1    1    2    0  501 +3.6487355489e+01 -1.5292685577e+01 +9.9701784618e+02 1.0126888856e+03 1.7300000000e+02 0.0000e+00 1.0000e+00
<mgrwt>
<rscale>  2 0.17746603E+03</rscale>
<asrwt>0</asrwt>
<pdfrwt beam="1">  1        1 0.20698858E+00 0.17746603E+03</pdfrwt>
<pdfrwt beam="2">  1       -1 0.47621664E-02 0.17746603E+03</pdfrwt>
<totfact> 0.17218314E+03</totfact>
</mgrwt>
</event>
<event>
 4      3 +5.6305390e+02 1.02742900e+02 7.54677100e-03 1.27463100e-01
        1 -1    0    0  501    0 +0.0000000000e+00 +0.0000000000e+00 +3.7148560988e+02 3.7148560988e+02 0.0000000000e+00 0.0000e+00 -1.0000e+00
       -1 -1    0    0    0  501 -0.0000000000e+00 -0.0000000000e+00 -4.8090907630e+01 4.8090907630e+01 0.0000000000e+00 0.0000e+00 1.0000e+00
       24  1    1    2    0    0 +2.5587853471e+01 +5.8601701186e+01 +2.7511513485e+01 1.0636257310e+02 8.0419002446e+01 0.0000e+00 1.0000e+00
      -24  1    1    2    0    0 -2.5587853471e+01 -5.8601701186e+01 +2.9588318877e+02 3.1321394442e+02 8.0419002446e+01 0.0000e+00 -1.0000e+00
<mgrwt>
<rscale>  0 0.10274295E+03</rscale>
<asrwt>0</asrwt>
<pdfrwt beam="1">  1        1 0.57151630E-01 0.10274295E+03</pdfrwt>
<pdfrwt beam="2">  1       -1 0.73986014E-02 0.10274295E+03</pdfrwt>
<totfact> 0.60817699E+03</totfact>
</mgrwt>
</event>
<event>
 4      2 +5.6305390e+02 1.82307500e+02 7.54677100e-03 1.16558800e-01
       21 -1    0    0  503  502 +0.0000000000e+00 +0.0000000000e+00 +7.9694710615e+02 7.9694710615e+02 0.0000000000e+00 0.0000e+00 -1.0000e+00
       21 -1    0    0  501  503 -0.0000000000e+00 -0.0000000000e+00 -1.1243610251e+02 1.1243610251e+02 0.0000000000e+00 0.0000e+00 -1.0000e+00
        6  1    1    2  501    0 +4.3041352292e+01 +3.8137602132e+01 -1.8382709084e+01 1.8323198055e+02 1.7300000000e+02 0.0000e+00 -1.0000e+00
       -6  1    1    2    0  502 -4.3041352292e+01 -3.8137602132e+01 +7.0289371272e+02 7.2615122811e+02 1.7300000000e+02 0.0000e+00 -1.0000e+00
<mgrwt>
<rscale>  2 0.18230753E+03</rscale>
<asrwt>0</asrwt>
<pdfrwt beam="1">  1       21 0.12260724E+00 0.18230753E+03</pdfrwt>
<pdfrwt beam="2">  1       21 0.17297862E-01 0.18230753E+03</pdfrwt>
<totfact> 0.15231976E+04</totfact>
</mgrwt>
</event>
<event>
 4      2 +5.6305390e+02 1.79500100e+02 7.54677100e-03 1.16828800e-01
       21 -1    0    0  501  502 +0.0000000000e+00 +0.0000000000e+00 +2.4212205934e+02 2.4212205934e+02 0.0000000000e+00 0.0000e+00 -1.0000e+00
       21 -1    0    0  502  503 -0.0000000000e+00 -0.0000000000e+00 -1.5391286299e+02 1.5391286299e+02 0.0000000000e+00 0.0000e+00 -1.0000e+00
        6  1    1    2  501    0 +4.5563488733e+01 +1.4671988316e+01 +1.1696585818e+02 2.1424591181e+02 1.7300000000e+02 0.0000e+00 -1.0000e+00
       -6  1    1    2    0  503 -4.5563488733e+01 -1.4671988316e+01 -2.8756661829e+01 1.8178901052e+02 1.7300000000e+02 0.0000e+00 -1.0000e+00
<mgrwt>
<rscale>  2 0.17950014E+03</rscale>
<asrwt>0</asrwt>
<pdfrwt beam="1">  1       21 0.37249548E-01 0.17950014E+03</pdfrwt>
<pdfrwt beam="2">  1       21 0.23678902E-01 0.17950014E+03</pdfrwt>
<totfact> 0.11729264E+05</totfact>
</mgrwt>
</event>
<event>
 4      2 +5.6305390e+02 2.89187300e+02 7.54677100e-03 1.09077400e-01
       21 -1    0    0  503  502 +0.0000000000e+00 +0.0000000000e+00 +2.0071872303e+02 2.0071872303e+02 0.0000000000e+00 0.0000e+00 1.0000e+00
       21 -1    0    0  501  503 -0.0000000000e+00 -0.0000000000e+00 -4.3366259158e+02 4.3366259158e+02 0.0000000000e+00 0.0000e+00 -1.0000e+00
        6  1    1    2  501    0 +2.0930451760e+02 +9.9458106507e+01 -1.7929799262e+02 3.4026029183e+02 1.7300000000e+02 0.0000e+00 -1.0000e+00
       -6  1    1    2    0  502 -2.0930451760e+02 -9.9458106507e+01 -5.3645875929e+01 2.9412102278e+02 1.7300000000e+02 0.0000e+00 1.0000e+00
<mgrwt>
<rscale>  2 0.28918730E+03</rscale>
<asrwt>0</asrwt>
<pdfrwt beam="1">  1       21 0.30879804E-01 0.28918730E+03</pdfrwt>
<pdfrwt beam="2">  1       21 0.66717321E-01 0.28918730E+03</pdfrwt>
<totfact> 0.19746151E+04</totfact>
</mgrwt>
</event>
<event>
 4      2 +5.6305390e+02 1.78905700e+02 7.54677100e-03 1.16886600e-01
       21 -1    0    0  501  502 +0.0000000000e+00 +0.0000000000e+00 +3.9758502042e+01 3.9758502042e+01 0.0000000000e+00 0.0000e+00 -1.0000e+00
       21 -1    0    0  502  503 -0.0000000000e+00 -0.0000000000e+00 -1.1031278425e+03 1.1031278425e+03 0.0000000000e+00 0.0000e+00 -1.0000e+00
        6  1    1    2  501    0 +1.9920086576e+01 -4.1005333483e+01 -2.3463360966e+02 2.9505961771e+02 1.7300000000e+02 0.0000e+00 -1.0000e+00
       -6  1    1    2    0  503 -1.9920086576e+01 +4.1005333483e+01 -8.2873573084e+02 8.4782672687e+02 1.7300000000e+02 0.0000e+00 -1.0000e+00
<mgrwt>
<rscale>  2 0.17890569E+03</rscale>
<asrwt>0</asrwt>
<pdfrwt beam="1">  1       21 0.61166928E-02 0.17890569E+03</pdfrwt>
<pdfrwt beam="2">  1       21 0.16971197E+00 0.17890569E+03</pdfrwt>
<totfact> 0.41250403E+04</totfact>
</mgrwt>
</event>
<event>
 4      2 +5.6305390e+02 1.75553700e+02 7.54677100e-03 1.17217700e-01
       21 -1    0    0  503  502 +0.0000000000e+00 +0.0000000000e+00 +8.2737263313e+02 8.2737263313e+02 0.0000000000e+00 0.0000e+00 1.0000e+00
       21 -1    0    0  501  503 -0.0000000000e+00 -0.0000000000e+00 -6.2037402011e+01 6.2037402011e+01 0.0000000000e+00 0.0000e+00 1.0000e+00
        6  1    1    2  501    0 -2.0992649405e+01 -2.1199586945e+01 +1.0156414648e+02 2.0281614745e+02 1.7300000000e+02 0.0000e+00 1.0000e+00
       -6  1    1    2    0  502 +2.0992649405e+01 +2.1199586945e+01 +6.6377108464e+02 6.8659388769e+02 1.7300000000e+02 0.0000e+00 1.0000e+00
<mgrwt>
<rscale>  2 0.17555373E+03</rscale>
<asrwt>0</asrwt>
<pdfrwt beam="1">  1       21 0.12728809E+00 0.17555373E+03</pdfrwt>
<pdfrwt beam="2">  1       21 0.95442163E-02 0.17555373E+03</pdfrwt>
<totfact> 0.40546129E+04</totfact>
</mgrwt>
</event>
<event>
 4      2 +5.6305390e+02 2.24633600e+02 7.54677100e-03 1.13047500e-01
       21 -1    0    0  501  502 +0.0000000000e+00 +0.0000000000e+00 +3.3281226167e+01 3.3281226167e+01 0.0000000000e+00 0.0000e+00 1.0000e+00
       21 -1    0    0  502  503 -0.0000000000e+00 -0.0000000000e+00 -1.5174741101e+03 1.5174741101e+03 0.0000000000e+00 0.0000e+00 1.0000e+00
        6  1    1    2  501    0 -1.4163000589e+02 +2.1730039670e+01 -7.6475971214e+02 7.9706817181e+02 1.7300000000e+02 0.0000e+00 1.0000e+00
       -6  1    1    2    0  503 +1.4163000589e+02 -2.1730039670e+01 -7.1943317175e+02 7.5368716441e+02 1.7300000000e+02 0.0000e+00 1.0000e+00
<mgrwt>
<rscale>  2 0.22463360E+03</rscale>
<asrwt>0</asrwt>
<pdfrwt beam="1">  1       21 0.51201878E-02 0.22463360E+03</pdfrwt>
<pdfrwt beam="2">  1       21 0.23345759E+00 0.22463360E+03</pdfrwt>
<totfact> 0.21001493E+04</totfact>
</mgrwt>
</event>
<event>
 4      2 +5.6305390e+02 1.83088100e+02 7.54677100e-03 1.16484700e-01
       21 -1    0    0  501  502 +0.0000000000e+00 +0.0000000000e+00 +5.7688820588e+01 5.7688820588e+01 0.0000000000e+00 0.0000e+00 -1.0000e+00
       21 -1    0    0  502  503 -0.0000000000e+00 -0.0000000000e+00 -6.4561245745e+02 6.4561245745e+02 0.0000000000e+00 0.0000e+00 -1.0000e+00
        6  1    1    2  501    0 -2.2801294583e+01 -5.5428765053e+01 -1.8277636478e+02 2.5870532765e+02 1.7300000000e+02 0.0000e+00 -1.0000e+00
       -6  1    1    2    0  503 +2.2801294583e+01 +5.5428765053e+01 -4.0514727208e+02 4.4459595040e+02 1.7300000000e+02 0.0000e+00 -1.0000e+00
<mgrwt>
<rscale>  2 0.18308809E+03</rscale>
<asrwt>0</asrwt>
<pdfrwt beam="1">  1       21 0.88752032E-02 0.18308809E+03</pdfrwt>
<pdfrwt beam="2">  1       21 0.99324994E-01 0.18308809E+03</pdfrwt>
<totfact> 0.83854784E+04</totfact>
</mgrwt>
</event>
<event>
 4      2 +5.6305390e+02 2.35390400e+02 7.54677100e-03 1.12290200e-01
       21 -1    0    0  503  502 +0.0000000000e+00 +0.0000000000e+00 +9.2340658246e+01 9.2340658246e+01 0.0000000000e+00 0.0000e+00 1.0000e+00
       21 -1    0    0  501  503 -0.0000000000e+00 -0.0000000000e+00 -1.4102472177e+03 1.4102472177e+03 0.0000000000e+00 0.0000e+00 1.0000e+00
        6  1    1    2  501    0 -5.0822574226e+01 -1.5131655743e+02 -1.2284073846e+03 1.2507571056e+03 1.7300000000e+02 0.0000e+00 1.0000e+00
       -6  1    1    2    0  502 +5.0822574226e+01 +1.5131655743e+02 -8.9499174844e+01 2.5183077036e+02 1.7300000000e+02 0.0000e+00 1.0000e+00
<mgrwt>
<rscale>  2 0.23539039E+03</rscale>
<asrwt>0</asrwt>
<pdfrwt beam="1">  1       21 0.14206256E-01 0.23539039E+03</pdfrwt>
<pdfrwt beam="2">  1       21 0.21696110E+00 0.23539039E+03</pdfrwt>
<totfact> 0.43752625E+03</totfact>
</mgrwt>
</event>
<event>
 4      2 +5.6305390e+02 1.97737500e+02 7.54677100e-03 1.15166200e-01
       -2 -1    0    0    0  501 -0.0000000000e+00 +0.0000000000e+00 +1.3382574176e+02 1.3382574176e+02 0.0000000000e+00 0.0000e+00 -1.0000e+00
        2 -1    0    0  502    0 +0.0000000000e+00 -0.0000000000e+00 -4.0773389930e+02 4.0773389930e+02 0.0000000000e+00 0.0000e+00 1.0000e+00
        6  1    1    2  502    0 +9.5620321034e+01 +5.2782816411e+00 -2.8111104115e+02 3.4369102913e+02 1.7300000000e+02 0.0000e+00 1.0000e+00
       -6  1    1    2    0  501 -9.5620321034e+01 -5.2782816411e+00 +7.2028836156e+00 1.9786861192e+02 1.7300000000e+02 0.0000e+00 -1.0000e+00
<mgrwt>
<rscale>  2 0.19773747E+03</rscale>
<asrwt>0</asrwt>
<pdfrwt beam="1">  1        2 0.62728291E-01 0.19773747E+03</pdfrwt>
<pdfrwt beam="2">  1       -2 0.20588576E-01 0.19773747E+03</pdfrwt>
<totfact> 0.15523325E+03</totfact>
</mgrwt>
</event>
<event>
 4      3 +5.6305390e+02 2.45472500e+02 7.54677100e-03 1.11620000e-01
        2 -1    0    0  501    0 +0.0000000000e+00 +0.0000000000e+00 +6.4993880903e+02 6.4993880903e+02 0.0000000000e+00 0.0000e+00 -1.0000e+00
       -2 -1    0    0    0  501 -0.0000000000e+00 -0.0000000000e+00 -1.6975892579e+02 1.6975892579e+02 0.0000000000e+00 0.0000e+00 1.0000e+00
       24  1    1    2    0    0 -2.2603678224e+02 -5.1931520661e+01 +5.1620292405e+02 5.7159617258e+02 8.0419002446e+01 0.0000e+00 -1.0000e+00
      -24  1    1    2    0    0 +2.2603678224e+02 +5.1931520661e+01 -3.6023040807e+01 2.4810156224e+02 8.0419002446e+01 0.0000e+00 1.0000e+00
<mgrwt>
<rscale>  0 0.24547245E+03</rscale>
<asrwt>0</asrwt>
<pdfrwt beam="1">  1        2 0.99990585E-01 0.24547245E+03</pdfrwt>
<pdfrwt beam="2">  1       -2 0.26116758E-01 0.24547245E+03</pdfrwt>
<totfact> 0.60665307E+02</totfact>
</mgrwt>
</event>
<event>
 4      2 +5.6305390e+02 2.01043600e+02 7.54677100e-03 1.14886100e-01
       21 -1    0    0  503  502 +0.0000000000e+00 +0.0000000000e+00 +3.3254391997e+02 3.3254391997e+02 0.0000000000e+00 0.0000e+00 1.0000e+00
       21 -1    0    0  501  503 -0.0000000000e+00 -0.0000000000e+00 -1.4524203505e+02 1.4524203505e+02 0.0000000000e+00 0.0000e+00 1.0000e+00
        6  1    1    2  501    0 +1.4245308878e+01 +1.0142297128e+02 -2.8470062413e+00 2.0106380423e+02 1.7300000000e+02 0.0000e+00 1.0000e+00
       -6  1    1    2    0  502 -1.4245308878e+01 -1.0142297128e+02 +1.9014889115e+02 2.7672215079e+02 1.7300000000e+02 0.0000e+00 1.0000e+00
<mgrwt>
<rscale>  2 0.20104365E+03</rscale>
<asrwt>0</asrwt>
<pdfrwt beam="1">  1       21 0.51160603E-01 0.20104365E+03</pdfrwt>
<pdfrwt beam="2">  1       21 0.22344929E-01 0.20104365E+03</pdfrwt>
<totfact> 0.67825333E+04</totfact>
</mgrwt>
</event>
<event>
 4      2 +5.6305390e+02 2.03482000e+02 7.54677100e-03 1.14683400e-01
       21 -1    0    0  503  502 +0.0000000000e+00 +0.0000000000e+00 +3.8093899940e+02 3.8093899940e+02 0.0000000000e+00 0.0000e+00 -1.0000e+00
       21 -1    0    0  501  503 -0.0000000000e+00 -0.0000000000e+00 -1.4726547694e+02 1.4726547694e+02 0.0000000000e+00 0.0000e+00 -1.0000e+00
        6  1    1    2  501    0 +2.0816087383e+01 +1.0508384608e+02 -1.8329232702e+01 2.0430586132e+02 1.7300000000e+02 0.0000e+00 -1.0000e+00
       -6  1    1    2    0  502 -2.0816087383e+01 -1.0508384608e+02 +2.5200275516e+02 3.2389861501e+02 1.7300000000e+02 0.0000e+00 -1.0000e+00
<mgrwt>
<rscale>  2 0.20348200E+03</rscale>
<asrwt>0</asrwt>
<pdfrwt beam="1">  1       21 0.58606000E-01 0.20348200E+03</pdfrwt>
<pdfrwt beam="2">  1       21 0.22656227E-01 0.20348200E+03</pdfrwt>
<totfact> 0.49499336E+04</totfact>
</mgrwt>
</event>
<event>
 4      2 +5.6305390e+02 2.39812900e+02 7.54677100e-03 1.11991800e-01
       21 -1    0    0  501  502 +0.0000000000e+00 +0.0000000000e+00 +6.5126125133e+01 6.5126125133e+01 0.0000000000e+00 0.0000e+00 -1.0000e+00
       21 -1    0    0  502  503 -0.0000000000e+00 -0.0000000000e+00 -1.0094321984e+03 1.0094321984e+03 0.0000000000e+00 0.0000e+00 1.0000e+00
        6  1    1    2  501    0 -6.9458930979e+01 -1.5085311303e+02 -2.8204999287e+02 3.7021939885e+02 1.7300000000e+02 0.0000e+00 -1.0000e+00
       -6  1    1    2    0  503 +6.9458930979e+01 +1.5085311303e+02 -6.6225608036e+02 7.0433892465e+02 1.7300000000e+02 0.0000e+00 1.0000e+00
<mgrwt>
<rscale>  2 0.23981285E+03</rscale>
<asrwt>0</asrwt>
<pdfrwt beam="1">  1       21 0.10019404E-01 0.23981285E+03</pdfrwt>
<pdfrwt beam="2">  1       21 0.15529726E+00 0.23981285E+03</pdfrwt>
<totfact> 0.21410048E+04</totfact>
</mgrwt>
</event>
<event>
 4      3 +5.6305390e+02 8.84344400e+01 7.54677100e-03 1.30668800e-01
        1 -1    0    0  501    0 +0.0000000000e+00 +0.0000000000e+00 +1.8753832432e+03 1.8753832432e+03 0.0000000000e+00 0.0000e+00 -1.0000e+00
       -1 -1    0    0    0  501 -0.0000000000e+00 -0.0000000000e+00 -4.4315765495e+00 4.4315765495e+00 0.0000000000e+00 0.0000e+00 1.0000e+00
       24  1    1    2    0    0 +3.5200536451e+01 -1.0693601931e+01 +1.1637585747e+03 1.1671138192e+03 8.0419002446e+01 0.0000e+00 1.0000e+00
      -24  1    1    2    0    0 -3.5200536451e+01 +1.0693601931e+01 +7.0719309195e+02 7.1270100052e+02 8.0419002446e+01 0.0000e+00 0.0000e+00
<mgrwt>
<rscale>  0 0.88434432E+02</rscale>
<asrwt>0</asrwt>
<pdfrwt beam="1">  1        1 0.28851986E+00 0.88434443E+02</pdfrwt>
<pdfrwt beam="2">  1       -1 0.68178251E-03 0.88434443E+02</pdfrwt>
<totfact> 0.12639265E+04</totfact>
</mgrwt>
</event>
<event>
 4      3 +5.6305390e+02 8.82417900e+01 7.54677100e-03 1.30716600e-01
       -2 -1    0    0    0  501 -0.0000000000e+00 +0.0000000000e+00 +6.1767722077e+02 6.1767722077e+02 0.0000000000e+00 0.0000e+00 1.0000e+00
        2 -1    0    0  501    0 +0.0000000000e+00 -0.0000000000e+00 -5.9752850391e+01 5.9752850391e+01 0.0000000000e+00 0.0000e+00 -1.0000e+00
       24  1    1    2    0    0 -3.0936190774e+01 -1.9035501226e+01 -2.1908724196e+01 9.0920879652e+01 8.0419002446e+01 0.0000e+00 -1.0000e+00
      -24  1    1    2    0    0 +3.0936190774e+01 +1.9035501226e+01 +5.7983309457e+02 5.8650919151e+02 8.0419002446e+01 0.0000e+00 1.0000e+00
<mgrwt>
<rscale>  0 0.88241794E+02</rscale>
<asrwt>0</asrwt>
<pdfrwt beam="1">  1        2 0.91927466E-02 0.88241794E+02</pdfrwt>
<pdfrwt beam="2">  1       -2 0.95027260E-01 0.88241794E+02</pdfrwt>
<totfact> 0.66362478E+02</totfact>
</mgrwt>
</event>
<event>
 4      2 +5.6305390e+02 2.14523000e+02 7.54677100e-03 1.13803400e-01
       21 -1    0    0  503  502 +0.0000000000e+00 +0.0000000000e+00 +9.5176886962e+02 9.5176886962e+02 0.0000000000e+00 0.0000e+00 1.0000e+00
       21 -1    0    0  501  503 -0.0000000000e+00 -0.0000000000e+00 -7.1342073461e+01 7.1342073461e+01 0.0000000000e+00 0.0000e+00 -1.0000e+00
        6  1    1    2  501    0 -1.3881263649e+01 +1.2608896400e+02 +1.4981903300e+02 2.6165981536e+02 1.7300000000e+02 0.0000e+00 -1.0000e+00
       -6  1    1    2    0  502 +1.3881263649e+01 -1.2608896400e+02 +7.3060776316e+02 7.6145112772e+02 1.7300000000e+02 0.0000e+00 1.0000e+00
<mgrwt>
<rscale>  2 0.21452300E+03</rscale>
<asrwt>0</asrwt>
<pdfrwt beam="1">  1       21 0.14642597E+00 0.21452300E+03</pdfrwt>
<pdfrwt beam="2">  1       21 0.10975704E-01 0.21452300E+03</pdfrwt>
<totfact> 0.21600914E+04</totfact>
</mgrwt>
</event>
<event>
 4      2 +5.6305390e+02 1.78907600e+02 7.54677100e-03 1.16886400e-01
       21 -1    0    0  503  502 +0.0000000000e+00 +0.0000000000e+00 +1.0659951377e+03 1.0659951377e+03 0.0000000000e+00 0.0000e+00 -1.0000e+00
       21 -1    0    0  501  503 -0.0000000000e+00 -0.0000000000e+00 -3.3118609262e+01 3.3118609262e+01 0.0000000000e+00 0.0000e+00 -1.0000e+00
        6  1    1    2  501    0 +4.9162446849e+00 +4.5329520306e+01 +3.4851336742e+02 3.9175183745e+02 1.7300000000e+02 0.0000e+00 1.0000e+00
       -6  1    1    2    0  502 -4.9162446849e+00 -4.5329520306e+01 +6.8436316100e+02 7.0736190950e+02 1.7300000000e+02 0.0000e+00 1.0000e+00
<mgrwt>
<rscale>  2 0.17890762E+03</rscale>
<asrwt>0</asrwt>
<pdfrwt beam="1">  1       21 0.16399923E+00 0.17890762E+03</pdfrwt>
<pdfrwt beam="2">  1       21 0.50951715E-02 0.17890762E+03</pdfrwt>
<totfact> 0.61806940E+04</totfact>
</mgrwt>
</event>
<event>
 4      3 +5.6305390e+02 9.95932300e+01 7.54677100e-03 1.28115400e-01
        1 -1    0    0  501    0 +0.0000000000e+00 +0.0000000000e+00 +4.2197716488e+02 4.2197716488e+02 0.0000000000e+00 0.0000e+00 -1.0000e+00
       -1 -1    0    0    0  501 -0.0000000000e+00 -0.0000000000e+00 -5.1414058358e+02 5.1414058358e+02 0.0000000000e+00 0.0000e+00 1.0000e+00
       24  1    1    2    0    0 -4.2876910697e+01 +4.0164241595e+01 -5.0331601952e+02 5.1307487488e+02 8.0419002446e+01 0.0000e+00 1.0000e+00
      -24  1    1    2    0    0 +4.2876910697e+01 -4.0164241595e+01 +4.1115260082e+02 4.2304287358e+02 8.0419002446e+01 0.0000e+00 -1.0000e+00
<mgrwt>
<rscale>  0 0.99593231E+02</rscale>
<asrwt>0</asrwt>
<pdfrwt beam="1">  1        1 0.64919564E-01 0.99593231E+02</pdfrwt>
<pdfrwt beam="2">  1       -1 0.79098552E-01 0.99593231E+02</pdfrwt>
<totfact> 0.10003248E+02</totfact>
</mgrwt>
</event>
<event>
 4      3 +5.6305390e+02 8.43634500e+01 7.54677100e-03 1.31710600e-01
        2 -1    0    0  501    0 +0.0000000000e+00 +0.0000000000e+00 +9.3220470705e+02 9.3220470705e+02 0.0000000000e+00 0.0000e+00 -1.0000e+00
       -2 -1    0    0    0  501 -0.0000000000e+00 -0.0000000000e+00 -1.9432266542e+01 1.9432266542e+01 0.0000000000e+00 0.0000e+00 1.0000e+00
       24  1    1    2    0    0 -2.3533743045e+01 +9.8050355876e+00 +8.2713015362e+02 8.3142136295e+02 8.0419002446e+01 0.0000e+00 -1.0000e+00
      -24  1    1    2    0    0 +2.3533743045e+01 -9.8050355876e+00 +8.5642286889e+01 1.2021561064e+02 8.0419002446e+01 0.0000e+00 1.0000e+00
<mgrwt>
<rscale>  0 0.84363450E+02</rscale>
<asrwt>0</asrwt>
<pdfrwt beam="1">  1        2 0.14341607E+00 0.84363450E+02</pdfrwt>
<pdfrwt beam="2">  1       -2 0.29895802E-02 0.84363450E+02</pdfrwt>
<totfact> 0.11466947E+04</totfact>
</mgrwt>
</event>
<event>
 4      2 +5.6305390e+02 1.86366400e+02 7.54677100e-03 1.16178000e-01
       21 -1    0    0  503  502 +0.0000000000e+00 +0.0000000000e+00 +4.0324223823e+02 4.0324223823e+02 0.0000000000e+00 0.0000e+00 1.0000e+00
       21 -1    0    0  501  503 -0.0000000000e+00 -0.0000000000e+00 -1.7560368263e+02 1.7560368263e+02 0.0000000000e+00 0.0000e+00 1.0000e+00
        6  1    1    2  501    0 +3.9755007099e+01 -5.6771357572e+01 -9.2769460840e+01 2.0817929891e+02 1.7300000000e+02 0.0000e+00 1.0000e+00
       -6  1    1    2    0  502 -3.9755007099e+01 +5.6771357572e+01 +3.2040801644e+02 3.7066662195e+02 1.7300000000e+02 0.0000e+00 1.0000e+00
<mgrwt>
<rscale>  2 0.18636643E+03</rscale>
<asrwt>0</asrwt>
<pdfrwt beam="1">  1       21 0.62037267E-01 0.18636643E+03</pdfrwt>
<pdfrwt beam="2">  1       21 0.27015951E-01 0.18636643E+03</pdfrwt>
<totfact> 0.31585529E+04</totfact>
</mgrwt>
</event>
<event>
 4      2 +5.6305390e+02 1.87310500e+02 7.54677100e-03 1.16091000e-01
       21 -1    0    0  501  502 +0.0000000000e+00 +0.0000000000e+00 +4.4593153671e+01 4.4593153671e+01 0.0000000000e+00 0.0000e+00 1.0000e+00
       21 -1    0    0  502  503 -0.0000000000e+00 -0.0000000000e+00 -8.3479696625e+02 8.3479696625e+02 0.0000000000e+00 0.0000e+00 1.0000e+00
        6  1    1    2  501    0 -3.2611896096e+01 -6.3974141352e+01 -5.0054926031e+02 5.3444811585e+02 1.7300000000e+02 0.0000e+00 1.0000e+00
       -6  1    1    2    0  503 +3.2611896096e+01 +6.3974141352e+01 -2.8965455226e+02 3.4494200408e+02 1.7300000000e+02 0.0000e+00 1.0000e+00
<mgrwt>
<rscale>  2 0.18731051E+03</rscale>
<asrwt>0</asrwt>
<pdfrwt beam="1">  1       21 0.68604851E-02 0.18731051E+03</pdfrwt>
<pdfrwt beam="2">  1       21 0.12843030E+00 0.18731051E+03</pdfrwt>
<totfact> 0.69982967E+04</totfact>
</mgrwt>
</event>
<event>
 4      2 +5.6305390e+02 2.10668000e+02 7.54677100e-03 1.14103800e-01
       21 -1    0    0  501  502 +0.0000000000e+00 +0.0000000000e+00 +6.8283906656e+02 6.8283906656e+02 0.0000000000e+00 0.0000e+00 -1.0000e+00
       21 -1    0    0  502  503 -0.0000000000e+00 -0.0000000000e+00 -7.1969982274e+01 7.1969982274e+01 0.0000000000e+00 0.0000e+00 -1.0000e+00
        6  1    1    2  501    0 -4.0865970189e+00 -1.2014693242e+02 +4.2292681847e+02 4.7249135381e+02 1.7300000000e+02 0.0000e+00 -1.0000e+00
       -6  1    1    2    0  503 +4.0865970189e+00 +1.2014693242e+02 +1.8794226582e+02 2.8231769503e+02 1.7300000000e+02 0.0000e+00 -1.0000e+00
<mgrwt>
<rscale>  2 0.21066795E+03</rscale>
<asrwt>0</asrwt>
<pdfrwt beam="1">  1       21 0.10505216E+00 0.21066795E+03</pdfrwt>
<pdfrwt beam="2">  1       21 0.11072305E-01 0.21066795E+03</pdfrwt>
<totfact> 0.48976441E+04</totfact>
</mgrwt>
</event>
<event>
 4      2 +5.6305390e+02 1.99224300e+02 7.54677100e-03 1.15039500e-01
       -1 -1    0    0    0  501 -0.0000000000e+00 +0.0000000000e+00 +7.5654217284e+01 7.5654217284e+01 0.0000000000e+00 0.0000e+00 -1.0000e+00
        1 -1    0    0  502    0 +0.0000000000e+00 -0.0000000000e+00 -7.0806114390e+02 7.0806114390e+02 0.0000000000e+00 0.0000e+00 1.0000e+00
        6  1    1    2  502    0 +6.4563489103e+01 +7.4785417692e+01 -5.1565260282e+02 5.5280006297e+02 1.7300000000e+02 0.0000e+00 -1.0000e+00
       -6  1    1    2    0  501 -6.4563489103e+01 -7.4785417692e+01 -1.1675432380e+02 2.3091529821e+02 1.7300000000e+02 0.0000e+00 1.0000e+00
<mgrwt>
<rscale>  2 0.19922425E+03</rscale>
<asrwt>0</asrwt>
<pdfrwt beam="1">  1        1 0.10893248E+00 0.19922425E+03</pdfrwt>
<pdfrwt beam="2">  1       -1 0.11639110E-01 0.19922425E+03</pdfrwt>
<totfact> 0.13306243E+03</totfact>
</mgrwt>
</event>
<event>
 4      2 +5.6305390e+02 2.08685900e+02 7.54677100e-03 1.14261100e-01
       21 -1    0    0  501  502 +0.0000000000e+00 +0.0000000000e+00 +6.7286080810e+01 6.7286080810e+01 0.0000000000e+00 0.0000e+00 -1.0000e+00
       21 -1    0    0  502  503 -0.0000000000e+00 -0.0000000000e+00 -8.1403646650e+02 8.1403646650e+02 0.0000000000e+00 0.0000e+00 -1.0000e+00
        6  1    1    2  501    0 +5.7384969655e+01 -1.0162571269e+02 -5.7284839385e+02 6.0967622764e+02 1.7300000000e+02 0.0000e+00 -1.0000e+00
       -6  1    1    2    0  503 -5.7384969655e+01 +1.0162571269e+02 -1.7390199185e+02 2.7164631967e+02 1.7300000000e+02 0.0000e+00 -1.0000e+00
<mgrwt>
<rscale>  2 0.20868594E+03</rscale>
<asrwt>0</asrwt>
<pdfrwt beam="1">  1       21 0.10351705E-01 0.20868594E+03</pdfrwt>
<pdfrwt beam="2">  1       21 0.12523638E+00 0.20868594E+03</pdfrwt>
<totfact> 0.35910913E+04</totfact>
</mgrwt>
</event>
<event>
 4      2 +5.6305390e+02 2.27298900e+02 7.54677100e-03 1.12855500e-01
       21 -1    0    0  501  502 +0.0000000000e+00 +0.0000000000e+00 +1.0756934514e+02 1.0756934514e+02 0.0000000000e+00 0.0000e+00 1.0000e+00
       21 -1    0    0  502  503 -0.0000000000e+00 -0.0000000000e+00 -7.5849859708e+02 7.5849859708e+02 0.0000000000e+00 0.0000e+00 -1.0000e+00
        6  1    1    2  501    0 +1.4375288181e+02 +3.2724467505e+01 -6.3207277709e+01 2.3592359305e+02 1.7300000000e+02 0.0000e+00 1.0000e+00
       -6  1    1    2    0  503 -1.4375288181e+02 -3.2724467505e+01 -5.8772197423e+02 6.3014434917e+02 1.7300000000e+02 0.0000e+00 -1.0000e+00
<mgrwt>
<rscale>  2 0.22729888E+03</rscale>
<asrwt>0</asrwt>
<pdfrwt beam="1">  1       21 0.16549131E-01 0.22729888E+03</pdfrwt>
<pdfrwt beam="2">  1       21 0.11669209E+00 0.22729888E+03</pdfrwt>
<totfact> 0.18150102E+04</totfact>
</mgrwt>
</event>
<event>
 4      2 +5.6305390e+02 2.22245900e+02 7.54677100e-03 1.13222000e-01
       21 -1    0    0  501  502 +0.0000000000e+00 +0.0000000000e+00 +2.0675409683e+02 2.0675409683e+02 0.0000000000e+00 0.0000e+00 1.0000e+00
       21 -1    0    0  502  503 -0.0000000000e+00 -0.0000000000e+00 -2.5938380671e+02 2.5938380671e+02 0.0000000000e+00 0.0000e+00 1.0000e+00
        6  1    1    2  501    0 -1.2098111457e+01 -1.3898876945e+02 +3.9184088330e+01 2.2567373598e+02 1.7300000000e+02 0.0000e+00 1.0000e+00
       -6  1    1    2    0  503 +1.2098111457e+01 +1.3898876945e+02 -9.1813798209e+01 2.4046416755e+02 1.7300000000e+02 0.0000e+00 1.0000e+00
<mgrwt>
<rscale>  2 0.22224591E+03</rscale>
<asrwt>0</asrwt>
<pdfrwt beam="1">  1       21 0.31808323E-01 0.22224591E+03</pdfrwt>
<pdfrwt beam="2">  1       21 0.39905201E-01 0.22224591E+03</pdfrwt>
<totfact> 0.56749821E+04</totfact>
</mgrwt>
</event>
<event>
 4      2 +5.6305390e+02 2.07200300e+02 7.54677100e-03 1.14380200e-01
       21 -1    0    0  503  502 +0.0000000000e+00 +0.0000000000e+00 +1.1685994205e+03 1.1685994205e+03 0.0000000000e+00 0.0000e+00 1.0000e+00
       21 -1    0    0  501  503 -0.0000000000e+00 -0.0000000000e+00 -8.9173345926e+01 8.9173345926e+01 0.0000000000e+00 0.0000e+00 -1.0000e+00
        6  1    1    2  501    0 +1.0957618763e+02 -3.1559722784e+01 +5.7468961855e+01 2.1502241412e+02 1.7300000000e+02 0.0000e+00 -1.0000e+00
       -6  1    1    2    0  502 -1.0957618763e+02 +3.1559722784e+01 +1.0219571127e+03 1.0427503523e+03 1.7300000000e+02 0.0000e+00 1.0000e+00
<mgrwt>
<rscale>  2 0.20720028E+03</rscale>
<asrwt>0</asrwt>
<pdfrwt beam="1">  1       21 0.17978452E+00 0.20720028E+03</pdfrwt>
<pdfrwt beam="2">  1       21 0.13718977E-01 0.20720028E+03</pdfrwt>
<totfact> 0.83221489E+03</totfact>
</mgrwt>
</event>
<event>
 4      2 +5.6305390e+02 1.99774800e+02 7.54677100e-03 1.14992900e-01
       21 -1    0    0  501  502 +0.0000000000e+00 +0.0000000000e+00 +3.5045042661e+02 3.5045042661e+02 0.0000000000e+00 0.0000e+00 1.0000e+00
       21 -1    0    0  502  503 -0.0000000000e+00 -0.0000000000e+00 -1.7168556470e+02 1.7168556470e+02 0.0000000000e+00 0.0000e+00 1.0000e+00
        6  1    1    2  501    0 -4.6152124076e+01 +8.8605509796e+01 +2.4086563764e+02 3.1293163841e+02 1.7300000000e+02 0.0000e+00 1.0000e+00
       -6  1    1    2    0  503 +4.6152124076e+01 -8.8605509796e+01 -6.2100775736e+01 2.0920435289e+02 1.7300000000e+02 0.0000e+00 1.0000e+00
<mgrwt>
<rscale>  2 0.19977476E+03</rscale>
<asrwt>0</asrwt>
<pdfrwt beam="1">  1       21 0.53915450E-01 0.19977476E+03</pdfrwt>
<pdfrwt beam="2">  1       21 0.26413164E-01 0.19977476E+03</pdfrwt>
<totfact> 0.44192381E+04</totfact>
</mgrwt>
</event>
<event>
 4      2 +5.6305390e+02 1.93465800e+02 7.54677100e-03 1.15537200e-01
       21 -1    0    0  503  502 +0.0000000000e+00 +0.0000000000e+00 +2.1676704622e+02 2.1676704622e+02 0.0000000000e+00 0.0000e+00 1.0000e+00
       21 -1    0    0  501  503 -0.0000000000e+00 -0.0000000000e+00 -1.9332292236e+02 1.9332292236e+02 0.0000000000e+00 0.0000e+00 -1.0000e+00
        6  1    1    2  501    0 -1.1649410388e+01 -8.5815462256e+01 -5.5298206538e+01 2.0121355315e+02 1.7300000000e+02 0.0000e+00 -1.0000e+00
       -6  1    1    2    0  502 +1.1649410388e+01 +8.5815462256e+01 +7.8742330402e+01 2.0887641543e+02 1.7300000000e+02 0.0000e+00 1.0000e+00
<mgrwt>
<rscale>  2 0.19346577E+03</rscale>
<asrwt>0</asrwt>
<pdfrwt beam="1">  1       21 0.33348776E-01 0.19346577E+03</pdfrwt>
<pdfrwt beam="2">  1       21 0.29741988E-01 0.19346577E+03</pdfrwt>
<totfact> 0.93815704E+04</totfact>
</mgrwt>
</event>
<event>
 4      2 +5.6305390e+02 2.10439500e+02 7.54677100e-03 1.14121800e-01
       21 -1    0    0  503  502 +0.0000000000e+00 +0.0000000000e+00 +4.1300708329e+02 4.1300708329e+02 0.0000000000e+00 0.0000e+00 -1.0000e+00
       21 -1    0    0  501  503 -0.0000000000e+00 -0.0000000000e+00 -1.0788988937e+02 1.0788988937e+02 0.0000000000e+00 0.0000e+00 1.0000e+00
        6  1    1    2  501    0 -7.2333263104e+01 +9.5517913121e+01 +1.3211598320e+02 2.4847415498e+02 1.7300000000e+02 0.0000e+00 -1.0000e+00
       -6  1    1    2    0  502 +7.2333263104e+01 -9.5517913121e+01 +1.7300121073e+02 2.7242281768e+02 1.7300000000e+02 0.0000e+00 1.0000e+00
<mgrwt>
<rscale>  2 0.21043948E+03</rscale>
<asrwt>0</asrwt>
<pdfrwt beam="1">  1       21 0.63539550E-01 0.21043948E+03</pdfrwt>
<pdfrwt beam="2">  1       21 0.16598445E-01 0.21043948E+03</pdfrwt>
<totfact> 0.74058972E+04</totfact>
</mgrwt>
</event>
<event>
 4      2 +5.6305390e+02 1.82729800e+02 7.54677100e-03 1.16518700e-01
       -2 -1    0    0    0  501 -0.0000000000e+00 +0.0000000000e+00 +3.8713788136e+01 3.8713788136e+01 0.0000000000e+00 0.0000e+00 1.0000e+00
        2 -1    0    0  502    0 +0.0000000000e+00 -0.0000000000e+00 -8.8141220324e+02 8.8141220324e+02 0.0000000000e+00 0.0000e+00 -1.0000e+00
        6  1    1    2  502    0 -3.8904748092e+01 +4.4131590747e+01 -3.5393726152e+02 3.9832368975e+02 1.7300000000e+02 0.0000e+00 1.0000e+00
       -6  1    1    2    0  501 +3.8904748092e+01 -4.4131590747e+01 -4.8876115359e+02 5.2180230163e+02 1.7300000000e+02 0.0000e+00 -1.0000e+00
<mgrwt>
<rscale>  2 0.18272979E+03</rscale>
<asrwt>0</asrwt>
<pdfrwt beam="1">  1        2 0.13560189E+00 0.18272979E+03</pdfrwt>
<pdfrwt beam="2">  1       -2 0.59559667E-02 0.18272979E+03</pdfrwt>
<totfact> 0.46094705E+03</totfact>
</mgrwt>
</event>
<event>
 4      2 +5.6305390e+02 1.76405200e+02 7.54677100e-03 1.17132800e-01
       21 -1    0    0  503  502 +0.0000000000e+00 +0.0000000000e+00 +2.2844141727e+02 2.2844141727e+02 0.0000000000e+00 0.0000e+00 -1.0000e+00
       21 -1    0    0  501  503 -0.0000000000e+00 -0.0000000000e+00 -2.3666730982e+02 2.3666730982e+02 0.0000000000e+00 0.0000e+00 -1.0000e+00
        6  1    1    2  501    0 -1.4952642712e+00 -3.4460824279e+01 -1.5561545778e+02 2.3523383032e+02 1.7300000000e+02 0.0000e+00 -1.0000e+00
       -6  1    1    2    0  502 +1.4952642712e+00 +3.4460824279e+01 +1.4738956523e+02 2.2987489677e+02 1.7300000000e+02 0.0000e+00 -1.0000e+00
<mgrwt>
<rscale>  2 0.17640517E+03</rscale>
<asrwt>0</asrwt>
<pdfrwt beam="1">  1       21 0.35144833E-01 0.17640517E+03</pdfrwt>
<pdfrwt beam="2">  1       21 0.36410355E-01 0.17640517E+03</pdfrwt>
<totfact> 0.57199399E+04</totfact>
</mgrwt>
</event>
<event>
 4      2 +5.6305390e+02 2.62214100e+02 7.54677100e-03 1.10582000e-01
       21 -1    0    0  503  502 +0.0000000000e+00 +0.0000000000e+00 +1.5369327133e+02 1.5369327133e+02 0.0000000000e+00 0.0000e+00 1.0000e+00
       21 -1    0    0  501  503 -0.0000000000e+00 -0.0000000000e+00 -1.0600606225e+03 1.0600606225e+03 0.0000000000e+00 0.0000e+00 -1.0000e+00
        6  1    1    2  501    0 -4.1467238638e+01 -1.9263355328e+02 -9.1456441386e+02 9.5141173255e+02 1.7300000000e+02 0.0000e+00 -1.0000e+00
       -6  1    1    2    0  502 +4.1467238638e+01 +1.9263355328e+02 +8.1970627234e+00 2.6234216125e+02 1.7300000000e+02 0.0000e+00 1.0000e+00
<mgrwt>
<rscale>  2 0.26221407E+03</rscale>
<asrwt>0</asrwt>
<pdfrwt beam="1">  1       21 0.23645118E-01 0.26221407E+03</pdfrwt>
<pdfrwt beam="2">  1       21 0.16308625E+00 0.26221407E+03</pdfrwt>
<totfact> 0.38125179E+03</totfact>
</mgrwt>
</event>
<event>
 4      2 +5.6305390e+02 1.90910200e+02 7.54677100e-03 1.15764300e-01
       21 -1    0    0  503  502 +0.0000000000e+00 +0.0000000000e+00 +1.9199527534e+02 1.9199527534e+02 0.0000000000e+00 0.0000e+00 -1.0000e+00
       21 -1    0    0  501  503 -0.0000000000e+00 -0.0000000000e+00 -1.9089864784e+02 1.9089864784e+02 0.0000000000e+00 0.0000e+00 -1.0000e+00
        6  1    1    2  501    0 -5.7121291974e+01 +5.7051437365e+01 -1.3767119648e+01 1.9140596147e+02 1.7300000000e+02 0.0000e+00 -1.0000e+00
       -6  1    1    2    0  502 +5.7121291974e+01 -5.7051437365e+01 +1.4863747143e+01 1.9148796171e+02 1.7300000000e+02 0.0000e+00 -1.0000e+00
<mgrwt>
<rscale>  2 0.19091021E+03</rscale>
<asrwt>0</asrwt>
<pdfrwt beam="1">  1       21 0.29537734E-01 0.19091021E+03</pdfrwt>
<pdfrwt beam="2">  1       21 0.29369023E-01 0.19091021E+03</pdfrwt>
<totfact> 0.12206417E+05</totfact>
</mgrwt>
</event>
<event>
 4      2 +5.6305390e+02 1.74465100e+02 7.54677100e-03 1.17327000e-01
       21 -1    0    0  501  502 +0.0000000000e+00 +0.0000000000e+00 +7.9119208002e+01 7.9119208002e+01 0.0000000000e+00 0.0000e+00 -1.0000e+00
       21 -1    0    0  502  503 -0.0000000000e+00 -0.0000000000e+00 -3.8474997866e+02 3.8474997866e+02 0.0000000000e+00 0.0000e+00 -1.0000e+00
        6  1    1    2  501    0 -4.2710825116e+00 -2.2154392248e+01 -1.5513862782e+02 2.3346531452e+02 1.7300000000e+02 0.0000e+00 1.0000e+00
       -6  1    1    2    0  503 +4.2710825116e+00 +2.2154392248e+01 -1.5049214284e+02 2.3040387214e+02 1.7300000000e+02 0.0000e+00 1.0000e+00
<mgrwt>
<rscale>  2 0.17446507E+03</rscale>
<asrwt>0</asrwt>
<pdfrwt beam="1">  1       21 0.12172186E-01 0.17446507E+03</pdfrwt>
<pdfrwt beam="2">  1       21 0.59192305E-01 0.17446507E+03</pdfrwt>
<totfact> 0.15351911E+05</totfact>
</mgrwt>
</event>
<event>
 4      2 +5.6305390e+02 2.07679100e+02 7.54677100e-03 1.14341700e-01
       21 -1    0    0  501  502 +0.0000000000e+00 +0.0000000000e+00 +2.6877144515e+02 2.6877144515e+02 0.0000000000e+00 0.0000e+00 -1.0000e+00
       21 -1    0    0  502  503 -0.0000000000e+00 -0.0000000000e+00 -3.8149964027e+02 3.8149964027e+02 0.0000000000e+00 0.0000e+00 -1.0000e+00
        6  1    1    2  501    0 +4.6962413902e+01 -1.0486241262e+02 +1.9111559562e+02 2.8223352882e+02 1.7300000000e+02 0.0000e+00 -1.0000e+00
       -6  1    1    2    0  503 -4.6962413902e+01 +1.0486241262e+02 -3.0384379074e+02 3.6803755660e+02 1.7300000000e+02 0.0000e+00 -1.0000e+00
<mgrwt>
<rscale>  2 0.20767906E+03</rscale>
<asrwt>0</asrwt>
<pdfrwt beam="1">  1       21 0.41349453E-01 0.20767906E+03</pdfrwt>
<pdfrwt beam="2">  1       21 0.58692252E-01 0.20767906E+03</pdfrwt>
<totfact> 0.15155102E+04</totfact>
</mgrwt>
</event>
<event>
 4      3 +5.6305390e+02 9.99410000e+01 7.54677100e-03 1.28042000e-01
       -1 -1    0    0    0  501 -0.0000000000e+00 +0.0000000000e+00 +1.4367269049e+02 1.4367269049e+02 0.0000000000e+00 0.0000e+00 1.0000e+00
        1 -1    0    0  501    0 +0.0000000000e+00 -0.0000000000e+00 -1.2004425558e+02 1.2004425558e+02 0.0000000000e+00 0.0000e+00 -1.0000e+00
       24  1    1    2    0    0 -2.0051717283e+01 +5.5847262275e+01 +9.7357312940e+01 1.3952293864e+02 8.0419002446e+01 0.0000e+00 1.0000e+00
      -24  1    1    2    0    0 +2.0051717283e+01 -5.5847262275e+01 -7.3728878030e+01 1.2419400742e+02 8.0419002446e+01 0.0000e+00 -1.0000e+00
<mgrwt>
<rscale>  0 0.99941003E+02</rscale>
<asrwt>0</asrwt>
<pdfrwt beam="1">  1        1 0.18468347E-01 0.99941003E+02</pdfrwt>
<pdfrwt beam="2">  1       -1 0.22103491E-01 0.99941003E+02</pdfrwt>
<totfact> 0.45424010E+03</totfact>
</mgrwt>
</event>
<event>
 4      2 +5.6305390e+02 2.03364300e+02 7.54677100e-03 1.14693100e-01
       21 -1    0    0  501  502 +0.0000000000e+00 +0.0000000000e+00 +4.6204035762e+02 4.6204035762e+02 0.0000000000e+00 0.0000e+00 1.0000e+00
       21 -1    0    0  502  503 -0.0000000000e+00 -0.0000000000e+00 -1.1982829891e+02 1.1982829891e+02 0.0000000000e+00 0.0000e+00 1.0000e+00
        6  1    1    2  501    0 +9.1515161228e+01 +5.5253904022e+01 +2.4763350783e+01 2.0486640082e+02 1.7300000000e+02 0.0000e+00 1.0000e+00
       -6  1    1    2    0  503 -9.1515161228e+01 -5.5253904022e+01 +3.1744870792e+02 3.7700225571e+02 1.7300000000e+02 0.0000e+00 1.0000e+00
<mgrwt>
<rscale>  2 0.20336425E+03</rscale>
<asrwt>0</asrwt>
<pdfrwt beam="1">  1       21 0.71083131E-01 0.20336425E+03</pdfrwt>
<pdfrwt beam="2">  1       21 0.18435123E-01 0.20336425E+03</pdfrwt>
<totfact> 0.47855661E+04</totfact>
</mgrwt>
</event>
<event>
 4      2 +5.6305390e+02 1.84123700e+02 7.54677100e-03 1.16387100e-01
       21 -1    0    0  503  502 +0.0000000000e+00 +0.0000000000e+00 +9.8958720316e+02 9.8958720316e+02 0.0000000000e+00 0.0000e+00 1.0000e+00
       21 -1    0    0  501  503 -0.0000000000e+00 -0.0000000000e+00 -5.9953477349e+01 5.9953477349e+01 0.0000000000e+00 0.0000e+00 1.0000e+00
        6  1    1    2  501    0 -3.9903293854e+01 +4.8788063023e+01 +1.2126830069e+02 2.2047119700e+02 1.7300000000e+02 0.0000e+00 1.0000e+00
       -6  1    1    2    0  502 +3.9903293854e+01 -4.8788063023e+01 +8.0836542513e+02 8.2906948351e+02 1.7300000000e+02 0.0000e+00 1.0000e+00
<mgrwt>
<rscale>  2 0.18412373E+03</rscale>
<asrwt>0</asrwt>
<pdfrwt beam="1">  1       21 0.15224417E+00 0.18412373E+03</pdfrwt>
<pdfrwt beam="2">  1       21 0.92236127E-02 0.18412373E+03</pdfrwt>
<totfact> 0.27038653E+04</totfact>
</mgrwt>
</event>
<event>
 4      2 +5.6305390e+02 2.38382300e+02 7.54677100e-03 1.12087500e-01
       21 -1    0    0  503  502 +0.0000000000e+00 +0.0000000000e+00 +8.2756158435e+02 8.2756158435e+02 0.0000000000e+00 0.0000e+00 1.0000e+00
       21 -1    0    0  501  503 -0.0000000000e+00 -0.0000000000e+00 -8.8743807566e+01 8.8743807566e+01 0.0000000000e+00 0.0000e+00 -1.0000e+00
        6  1    1    2  501    0 -5.4928849563e+01 -1.5453141040e+02 +5.8732483694e+02 6.3385850109e+02 1.7300000000e+02 0.0000e+00 -1.0000e+00
       -6  1    1    2    0  502 +5.4928849563e+01 +1.5453141040e+02 +1.5149293985e+02 2.8244689083e+02 1.7300000000e+02 0.0000e+00 -1.0000e+00
<mgrwt>
<rscale>  2 0.23838233E+03</rscale>
<asrwt>0</asrwt>
<pdfrwt beam="1">  1       21 0.12731716E+00 0.23838233E+03</pdfrwt>
<pdfrwt beam="2">  1       21 0.13652894E-01 0.23838233E+03</pdfrwt>
<totfact> 0.20624785E+04</totfact>
</mgrwt>
</event>
<event>
 4      2 +5.6305390e+02 2.66783200e+02 7.54677100e-03 1.10313500e-01
       21 -1    0    0  501  502 +0.0000000000e+00 +0.0000000000e+00 +3.5537891258e+02 3.5537891258e+02 0.0000000000e+00 0.0000e+00 1.0000e+00
       21 -1    0    0  502  503 -0.0000000000e+00 -0.0000000000e+00 -2.0796150755e+02 2.0796150755e+02 0.0000000000e+00 0.0000e+00 -1.0000e+00
        6  1    1    2  501    0 +1.4794432238e+02 +1.3912858765e+02 +1.2786286913e+02 2.9584151116e+02 1.7300000000e+02 0.0000e+00 1.0000e+00
       -6  1    1    2    0  503 -1.4794432238e+02 -1.3912858765e+02 +1.9554535897e+01 2.6749890896e+02 1.7300000000e+02 0.0000e+00 -1.0000e+00
<mgrwt>
<rscale>  2 0.26678322E+03</rscale>
<asrwt>0</asrwt>
<pdfrwt beam="1">  1       21 0.54673679E-01 0.26678322E+03</pdfrwt>
<pdfrwt beam="2">  1       21 0.31994078E-01 0.26678322E+03</pdfrwt>
<totfact> 0.28621761E+04</totfact>
</mgrwt>
</event>
<event>
 4      2 +5.6305390e+02 1.74024800e+02 7.54677100e-03 1.17371400e-01
       -2 -1    0    0    0  501 -0.0000000000e+00 +0.0000000000e+00 +2.4483501169e+01 2.4483501169e+01 0.0000000000e+00 0.0000e+00 -1.0000e+00
        2 -1    0    0  502    0 +0.0000000000e+00 -0.0000000000e+00 -1.3847096657e+03 1.3847096657e+03 0.0000000000e+00 0.0000e+00 1.0000e+00
        6  1    1    2  502    0 -6.2016772903e+00 +1.7809360118e+01 -4.4994076719e+02 4.8242235446e+02 1.7300000000e+02 0.0000e+00 -1.0000e+00
       -6  1    1    2    0  501 +6.2016772903e+00 -1.7809360118e+01 -9.1028539732e+02 9.2677081238e+02 1.7300000000e+02 0.0000e+00 1.0000e+00
<mgrwt>
<rscale>  2 0.17402481E+03</rscale>
<asrwt>0</asrwt>
<pdfrwt beam="1">  1        2 0.21303233E+00 0.17402481E+03</pdfrwt>
<pdfrwt beam="2">  1       -2 0.37666912E-02 0.17402481E+03</pdfrwt>
<totfact> 0.46997054E+03</totfact>
</mgrwt>
</event>
<event>
 4      2 +5.6305390e+02 2.60963700e+02 7.54677100e-03 1.10656600e-01
       21 -1    0    0  503  502 +0.0000000000e+00 +0.0000000000e+00 +5.5270026835e+02 5.5270026835e+02 0.0000000000e+00 0.0000e+00 -1.0000e+00
       21 -1    0    0  501  503 -0.0000000000e+00 -0.0000000000e+00 -9.7130292121e+02 9.7130292121e+02 0.0000000000e+00 0.0000e+00 -1.0000e+00
        6  1    1    2  501    0 +1.6102377915e+02 +1.1065445885e+02 -9.2133160275e+02 9.5757714516e+02 1.7300000000e+02 0.0000e+00 -1.0000e+00
       -6  1    1    2    0  502 -1.6102377915e+02 -1.1065445885e+02 +5.0272894989e+02 5.6642604439e+02 1.7300000000e+02 0.0000e+00 -1.0000e+00
<mgrwt>
<rscale>  2 0.26096373E+03</rscale>
<asrwt>0</asrwt>
<pdfrwt beam="1">  1       21 0.85030810E-01 0.26096373E+03</pdfrwt>
<pdfrwt beam="2">  1       21 0.14943122E+00 0.26096373E+03</pdfrwt>
<totfact> 0.33679386E+02</totfact>
</mgrwt>
</event>
<event>
 4      2 +5.6305390e+02 1.83638600e+02 7.54677100e-03 1.16432700e-01
       21 -1    0    0  501  502 +0.0000000000e+00 +0.0000000000e+00 +4.4235794505e+01 4.4235794505e+01 0.0000000000e+00 0.0000e+00 1.0000e+00
       21 -1    0    0  502  503 -0.0000000000e+00 -0.0000000000e+00 -2.0626797135e+03 2.0626797135e+03 0.0000000000e+00 0.0000e+00 1.0000e+00
        6  1    1    2  501    0 -1.3553024746e+01 -6.0087167773e+01 -1.7279506170e+02 2.5215329774e+02 1.7300000000e+02 0.0000e+00 1.0000e+00
       -6  1    1    2    0  503 +1.3553024746e+01 +6.0087167773e+01 -1.8456488573e+03 1.8547622103e+03 1.7300000000e+02 0.0000e+00 1.0000e+00
<mgrwt>
<rscale>  2 0.18363865E+03</rscale>
<asrwt>0</asrwt>
<pdfrwt beam="1">  1       21 0.68055094E-02 0.18363865E+03</pdfrwt>
<pdfrwt beam="2">  1       21 0.31733522E+00 0.18363865E+03</pdfrwt>
<totfact> 0.43552418E+03</totfact>
</mgrwt>
</event>
<event>
 4      2 +5.6305390e+02 2.00304000e+02 7.54677100e-03 1.14948300e-01
       21 -1    0    0  501  502 +0.0000000000e+00 +0.0000000000e+00 +1.1525489153e+02 1.1525489153e+02 0.0000000000e+00 0.0000e+00 -1.0000e+00
       21 -1    0    0  502  503 -0.0000000000e+00 -0.0000000000e+00 -4.3239870110e+02 4.3239870110e+02 0.0000000000e+00 0.0000e+00 1.0000e+00
        6  1    1    2  501    0 -1.0061773148e+02 -8.2933603469e+00 -2.7946767788e+02 3.4383701181e+02 1.7300000000e+02 0.0000e+00 1.0000e+00
       -6  1    1    2    0  503 +1.0061773148e+02 +8.2933603469e+00 -3.7676131692e+01 2.0381658081e+02 1.7300000000e+02 0.0000e+00 -1.0000e+00
<mgrwt>
<rscale>  2 0.20030404E+03</rscale>
<asrwt>0</asrwt>
<pdfrwt beam="1">  1       21 0.17731521E-01 0.20030404E+03</pdfrwt>
<pdfrwt beam="2">  1       21 0.66522878E-01 0.20030404E+03</pdfrwt>
<totfact> 0.59599110E+04</totfact>
</mgrwt>
</event>
<event>
 4      3 +5.6305390e+02 1.04610000e+02 7.54677100e-03 1.27089000e-01
       -2 -1    0    0    0  501 -0.0000000000e+00 +0.0000000000e+00 +1.0390500227e+02 1.0390500227e+02 0.0000000000e+00 0.0000e+00 1.0000e+00
        2 -1    0    0  501    0 +0.0000000000e+00 -0.0000000000e+00 -1.0658279416e+02 1.0658279416e+02 0.0000000000e+00 0.0000e+00 -1.0000e+00
       24  1    1    2    0    0 +6.0863869769e+01 +2.7778244670e+01 -1.2795301871e+01 1.0538964477e+02 8.0419002446e+01 0.0000e+00 1.0000e+00
      -24  1    1    2    0    0 -6.0863869769e+01 -2.7778244670e+01 +1.0117509986e+01 1.0509815166e+02 8.0419002446e+01 0.0000e+00 -1.0000e+00
<mgrwt>
<rscale>  0 0.10461003E+03</rscale>
<asrwt>0</asrwt>
<pdfrwt beam="1">  1        2 0.16397353E-01 0.10461003E+03</pdfrwt>
<pdfrwt beam="2">  1       -2 0.15985385E-01 0.10461003E+03</pdfrwt>
<totfact> 0.99103640E+03</totfact>
</mgrwt>
</event>
<event>
 4      2 +5.6305390e+02 1.75826900e+02 7.54677100e-03 1.17190400e-01
       -2 -1    0    0    0  501 -0.0000000000e+00 +0.0000000000e+00 +9.0563376214e+01 9.0563376214e+01 0.0000000000e+00 0.0000e+00 -1.0000e+00
        2 -1    0    0  502    0 +0.0000000000e+00 -0.0000000000e+00 -4.0521831038e+02 4.0521831038e+02 0.0000000000e+00 0.0000e+00 1.0000e+00
        6  1    1    2  502    0 -2.8165757756e+01 +1.3884581440e+01 -2.5573095554e+02 3.1034402384e+02 1.7300000000e+02 0.0000e+00 1.0000e+00
       -6  1    1    2    0  501 +2.8165757756e+01 -1.3884581440e+01 -5.8923978630e+01 1.8543766276e+02 1.7300000000e+02 0.0000e+00 -1.0000e+00
<mgrwt>
<rscale>  2 0.17582688E+03</rscale>
<asrwt>0</asrwt>
<pdfrwt beam="1">  1        2 0.62341279E-01 0.17582688E+03</pdfrwt>
<pdfrwt beam="2">  1       -2 0.13932827E-01 0.17582688E+03</pdfrwt>
<totfact> 0.29893551E+03</totfact>
</mgrwt>
</event>
<event>
 4      2 +5.6305390e+02 1.87881700e+02 7.54677100e-03 1.16038600e-01
       21 -1    0    0  503  502 +0.0000000000e+00 +0.0000000000e+00 +2.0393168127e+01 2.0393168127e+01 0.0000000000e+00 0.0000e+00 -1.0000e+00
       21 -1    0    0  501  503 -0.0000000000e+00 -0.0000000000e+00 -1.8730423068e+03 1.8730423068e+03 0.0000000000e+00 0.0000e+00 -1.0000e+00
        6  1    1    2  501    0 +5.8505421707e+01 -4.4132020604e+01 -6.6556839085e+02 6.9157848616e+02 1.7300000000e+02 0.0000e+00 -1.0000e+00
       -6  1    1    2    0  502 -5.8505421707e+01 +4.4132020604e+01 -1.1870807478e+03 1.2018569888e+03 1.7300000000e+02 0.0000e+00 -1.0000e+00
<mgrwt>
<rscale>  2 0.18788166E+03</rscale>
<asrwt>0</asrwt>
<pdfrwt beam="1">  1       21 0.31374112E-02 0.18788166E+03</pdfrwt>
<pdfrwt beam="2">  1       21 0.28816029E+00 0.18788166E+03</pdfrwt>
<totfact> 0.23569357E+04</totfact>
</mgrwt>
</event>
<event>
 4      2 +5.6305390e+02 1.84057600e+02 7.54677100e-03 1.16393300e-01
       21 -1    0    0  503  502 +0.0000000000e+00 +0.0000000000e+00 +1.4142355689e+03 1.4142355689e+03 0.0000000000e+00 0.0000e+00 1.0000e+00
       21 -1    0    0  501  503 -0.0000000000e+00 -0.0000000000e+00 -2.3954437533e+01 2.3954437533e+01 0.0000000000e+00 0.0000e+00 1.0000e+00
        6  1    1    2  501    0 +6.0105171781e+01 +1.8318204531e+01 +6.9447180817e+02 7.1844852331e+02 1.7300000000e+02 0.0000e+00 1.0000e+00
       -6  1    1    2    0  502 -6.0105171781e+01 -1.8318204531e+01 +6.9580932322e+02 7.1974148315e+02 1.7300000000e+02 0.0000e+00 1.0000e+00
<mgrwt>
<rscale>  2 0.18405757E+03</rscale>
<asrwt>0</asrwt>
<pdfrwt beam="1">  1       21 0.21757464E+00 0.18405757E+03</pdfrwt>
<pdfrwt beam="2">  1       21 0.36852992E-02 0.18405757E+03</pdfrwt>
<totfact> 0.47076595E+04</totfact>
</mgrwt>
</event>
<event>
 4      2 +5.6305390e+02 1.86452500e+02 7.54677100e-03 1.16170000e-01
       21 -1    0    0  503  502 +0.0000000000e+00 +0.0000000000e+00 +5.1161174569e+01 5.1161174569e+01 0.0000000000e+00 0.0000e+00 -1.0000e+00
       21 -1    0    0  501  503 -0.0000000000e+00 -0.0000000000e+00 -1.1634790976e+03 1.1634790976e+03 0.0000000000e+00 0.0000e+00 -1.0000e+00
        6  1    1    2  501    0 -3.4609862008e+01 +6.0313367453e+01 -9.4785309895e+02 9.6601761994e+02 1.7300000000e+02 0.0000e+00 -1.0000e+00
       -6  1    1    2    0  502 +3.4609862008e+01 -6.0313367453e+01 -1.6446482408e+02 2.4862265223e+02 1.7300000000e+02 0.0000e+00 -1.0000e+00
<mgrwt>
<rscale>  2 0.18645253E+03</rscale>
<asrwt>0</asrwt>
<pdfrwt beam="1">  1       21 0.78709507E-02 0.18645253E+03</pdfrwt>
<pdfrwt beam="2">  1       21 0.17899677E+00 0.18645253E+03</pdfrwt>
<totfact> 0.22918684E+04</totfact>
</mgrwt>
</event>
<event>
 4      2 +5.6305390e+02 1.92994000e+02 7.54677100e-03 1.15578800e-01
       21 -1    0    0  503  502 +0.0000000000e+00 +0.0000000000e+00 +8.1759344121e+02 8.1759344121e+02 0.0000000000e+00 0.0000e+00 1.0000e+00
       21 -1    0    0  501  503 -0.0000000000e+00 -0.0000000000e+00 -4.6914971920e+01 4.6914971920e+01 0.0000000000e+00 0.0000e+00 1.0000e+00
        6  1    1    2  501    0 +4.0953026397e+01 -7.5103438388e+01 +4.5889428579e+02 4.9782591571e+02 1.7300000000e+02 0.0000e+00 1.0000e+00
       -6  1    1    2    0  502 -4.0953026397e+01 +7.5103438388e+01 +3.1178418351e+02 3.6668249742e+02 1.7300000000e+02 0.0000e+00 1.0000e+00
<mgrwt>
<rscale>  2 0.19299398E+03</rscale>
<asrwt>0</asrwt>
<pdfrwt beam="1">  1       21 0.12578360E+00 0.19299398E+03</pdfrwt>
<pdfrwt beam="2">  1       21 0.72176886E-02 0.19299398E+03</pdfrwt>
<totfact> 0.67366732E+04</totfact>
</mgrwt>
</event>
<event>
 4      2 +5.6305390e+02 1.88375500e+02 7.54677100e-03 1.15993500e-01
       -2 -1    0    0    0  501 -0.0000000000e+00 +0.0000000000e+00 +6.8521363843e+02 6.8521363843e+02 0.0000000000e+00 0.0000e+00 -1.0000e+00
        2 -1    0    0  502    0 +0.0000000000e+00 -0.0000000000e+00 -5.5143036988e+01 5.5143036988e+01 0.0000000000e+00 0.0000e+00 1.0000e+00
        6  1    1    2  502    0 +7.3630354551e+01 +1.1614863555e+01 +2.2371602477e+02 2.9246229484e+02 1.7300000000e+02 0.0000e+00 1.0000e+00
       -6  1    1    2    0  501 -7.3630354551e+01 -1.1614863555e+01 +4.0635457668e+02 4.4789438058e+02 1.7300000000e+02 0.0000e+00 -1.0000e+00
<mgrwt>
<rscale>  2 0.18837551E+03</rscale>
<asrwt>0</asrwt>
<pdfrwt beam="1">  1        2 0.84835446E-02 0.18837551E+03</pdfrwt>
<pdfrwt beam="2">  1       -2 0.10541748E+00 0.18837551E+03</pdfrwt>
<totfact> 0.59245174E+02</totfact>
</mgrwt>
</event>
<event>
 4      3 +5.6305390e+02 1.08048100e+02 7.54677100e-03 1.26422800e-01
        2 -1    0    0  501    0 +0.0000000000e+00 +0.0000000000e+00 +1.6030438777e+03 1.6030438777e+03 0.0000000000e+00 0.0000e+00 -1.0000e+00
       -2 -1    0    0    0  501 -0.0000000000e+00 -0.0000000000e+00 -8.8776723032e+00 8.8776723032e+00 0.0000000000e+00 0.0000e+00 1.0000e+00
       24  1    1    2    0    0 +4.7066325010e+01 -5.4698502981e+01 +1.1387083585e+03 1.1438230225e+03 8.0419002446e+01 0.0000e+00 -1.0000e+00
      -24  1    1    2    0    0 -4.7066325010e+01 +5.4698502981e+01 +4.5545784699e+02 4.6809852757e+02 8.0419002446e+01 0.0000e+00 1.0000e+00
<mgrwt>
<rscale>  0 0.10804805E+03</rscale>
<asrwt>0</asrwt>
<pdfrwt beam="1">  1        2 0.24662191E+00 0.10804805E+03</pdfrwt>
<pdfrwt beam="2">  1       -2 0.13657970E-02 0.10804805E+03</pdfrwt>
<totfact> 0.15581564E+04</totfact>
</mgrwt>
</event>
<event>
 4      2 +5.6305390e+02 2.95378200e+02 7.54677100e-03 1.08757400e-01
       21 -1    0    0  503  502 +0.0000000000e+00 +0.0000000000e+00 +4.1224308947e+02 4.1224308947e+02 0.0000000000e+00 0.0000e+00 1.0000e+00
       21 -1    0    0  501  503 -0.0000000000e+00 -0.0000000000e+00 -2.5911490227e+02 2.5911490227e+02 0.0000000000e+00 0.0000e+00 -1.0000e+00
        6  1    1    2  501    0 -2.1823677549e+02 +9.8448016031e+01 -6.7116124634e+01 3.0290737235e+02 1.7300000000e+02 0.0000e+00 -1.0000e+00
       -6  1    1    2    0  502 +2.1823677549e+02 -9.8448016031e+01 +2.2024431183e+02 3.6845061939e+02 1.7300000000e+02 0.0000e+00 1.0000e+00
<mgrwt>
<rscale>  2 0.29537824E+03</rscale>
<asrwt>0</asrwt>
<pdfrwt beam="1">  1       21 0.63422014E-01 0.29537824E+03</pdfrwt>
<pdfrwt beam="2">  1       21 0.39863831E-01 0.29537824E+03</pdfrwt>
<totfact> 0.13191334E+04</totfact>
</mgrwt>
</event>
<event>
 4      2 +5.6305390e+02 2.47739200e+02 7.54677100e-03 1.11474200e-01
       21 -1    0    0  503  502 +0.0000000000e+00 +0.0000000000e+00 +6.2306473371e+01 6.2306473371e+01 0.0000000000e+00 0.0000e+00 -1.0000e+00
       21 -1    0    0  501  503 -0.0000000000e+00 -0.0000000000e+00 -9.8697434305e+02 9.8697434305e+02 0.0000000000e+00 0.0000e+00 1.0000e+00
        6  1    1    2  501    0 -1.1827334036e+02 +1.3212543016e+02 -4.8552684402e+02 5.4507891960e+02 1.7300000000e+02 0.0000e+00 -1.0000e+00
       -6  1    1    2    0  502 +1.1827334036e+02 -1.3212543016e+02 -4.3914102566e+02 5.0420189681e+02 1.7300000000e+02 0.0000e+00 -1.0000e+00
<mgrwt>
<rscale>  2 0.24773920E+03</rscale>
<asrwt>0</asrwt>
<pdfrwt beam="1">  1       21 0.95856117E-02 0.24773920E+03</pdfrwt>
<pdfrwt beam="2">  1       21 0.15184220E+00 0.24773920E+03</pdfrwt>
<totfact> 0.24489911E+04</totfact>
</mgrwt>
</event>
<event>
 4      2 +5.6305390e+02 1.93477400e+02 7.54677100e-03 1.15536200e-01
       21 -1    0    0  501  502 +0.0000000000e+00 +0.0000000000e+00 +6.1084513248e+01 6.1084513248e+01 0.0000000000e+00 0.0000e+00 -1.0000e+00
       21 -1    0    0  502  503 -0.0000000000e+00 -0.0000000000e+00 -6.1454889313e+02 6.1454889313e+02 0.0000000000e+00 0.0000e+00 -1.0000e+00
        6  1    1    2  501    0 -9.0213658890e+00 +8.6157462233e+01 -2.9467704627e+02 3.5251674420e+02 1.7300000000e+02 0.0000e+00 -1.0000e+00
       -6  1    1    2    0  503 +9.0213658890e+00 -8.6157462233e+01 -2.5878733361e+02 3.2311666218e+02 1.7300000000e+02 0.0000e+00 -1.0000e+00
<mgrwt>
<rscale>  2 0.19347737E+03</rscale>
<asrwt>0</asrwt>
<pdfrwt beam="1">  1       21 0.93976178E-02 0.19347737E+03</pdfrwt>
<pdfrwt beam="2">  1       21 0.94545979E-01 0.19347737E+03</pdfrwt>
<totfact> 0.84789230E+04</totfact>
</mgrwt>
</event>
<event>
 4      2 +5.6305390e+02 1.87281200e+02 7.54677100e-03 1.16093700e-01
       21 -1    0    0  501  502 +0.0000000000e+00 +0.0000000000e+00 +1.1220402411e+02 1.1220402411e+02 0.0000000000e+00 0.0000e+00 -1.0000e+00
       21 -1    0    0  502  503 -0.0000000000e+00 -0.0000000000e+00 -1.1423750438e+03 1.1423750438e+03 0.0000000000e+00 0.0000e+00 -1.0000e+00
        6  1    1    2  501    0 +2.1341145537e+00 +7.1698739266e+01 +1.9534904872e+01 1.8829730791e+02 1.7300000000e+02 0.0000e+00 -1.0000e+00
       -6  1    1    2    0  503 -2.1341145537e+00 -7.1698739266e+01 -1.0497059246e+03 1.0662817600e+03 1.7300000000e+02 0.0000e+00 -1.0000e+00
<mgrwt>
<rscale>  2 0.18728124E+03</rscale>
<asrwt>0</asrwt>
<pdfrwt beam="1">  1       21 0.17262157E-01 0.18728124E+03</pdfrwt>
<pdfrwt beam="2">  1       21 0.17575001E+00 0.18728124E+03</pdfrwt>
<totfact> 0.59294764E+03</totfact>
</mgrwt>
</event>
<event>
 4      2 +5.6305390e+02 1.78701200e+02 7.54677100e-03 1.16906600e-01
       21 -1    0    0  503  502 +0.0000000000e+00 +0.0000000000e+00 +1.6197860905e+02 1.6197860905e+02 0.0000000000e+00 0.0000e+00 1.0000e+00
       21 -1    0    0  501  503 -0.0000000000e+00 -0.0000000000e+00 -2.6638497205e+02 2.6638497205e+02 0.0000000000e+00 0.0000e+00 1.0000e+00
        6  1    1    2  501    0 -3.9100667980e+01 +2.1823382444e+01 -1.6139489485e+02 2.4079542010e+02 1.7300000000e+02 0.0000e+00 1.0000e+00
       -6  1    1    2    0  502 +3.9100667980e+01 -2.1823382444e+01 +5.6988531853e+01 1.8756816100e+02 1.7300000000e+02 0.0000e+00 1.0000e+00
<mgrwt>
<rscale>  2 0.17870121E+03</rscale>
<asrwt>0</asrwt>
<pdfrwt beam="1">  1       21 0.24919786E-01 0.17870121E+03</pdfrwt>
<pdfrwt beam="2">  1       21 0.40982303E-01 0.17870121E+03</pdfrwt>
<totfact> 0.87881954E+04</totfact>
</mgrwt>
</event>
<event>
 4      2 +5.6305390e+02 1.91904100e+02 7.54677100e-03 1.15675500e-01
       21 -1    0    0  501  502 +0.0000000000e+00 +0.0000000000e+00 +1.6776261233e+01 1.6776261233e+01 0.0000000000e+00 0.0000e+00 1.0000e+00
       21 -1    0    0  502  503 -0.0000000000e+00 -0.0000000000e+00 -2.9687657993e+03 2.9687657993e+03 0.0000000000e+00 0.0000e+00 1.0000e+00
        6  1    1    2  501    0 +7.3084119330e+01 +3.9457546581e+01 -7.1399489451e+02 7.3933476576e+02 1.7300000000e+02 0.0000e+00 -1.0000e+00
       -6  1    1    2    0  503 -7.3084119330e+01 -3.9457546581e+01 -2.2379946435e+03 2.2462072947e+03 1.7300000000e+02 0.0000e+00 -1.0000e+00
<mgrwt>
<rscale>  2 0.19190411E+03</rscale>
<asrwt>0</asrwt>
<pdfrwt beam="1">  1       21 0.25809630E-02 0.19190411E+03</pdfrwt>
<pdfrwt beam="2">  1       21 0.45673324E+00 0.19190411E+03</pdfrwt>
<totfact> 0.30464226E+03</totfact>
</mgrwt>
</event>
<event>
 4      2 +5.6305390e+02 2.02998700e+02 7.54677100e-03 1.14723300e-01
       21 -1    0    0  503  502 +0.0000000000e+00 +0.0000000000e+00 +2.1708393547e+02 2.1708393547e+02 0.0000000000e+00 0.0000e+00 -1.0000e+00
       21 -1    0    0  501  503 -0.0000000000e+00 -0.0000000000e+00 -1.9769287585e+02 1.9769287585e+02 0.0000000000e+00 0.0000e+00 1.0000e+00
        6  1    1    2  501    0 +1.0382268905e+02 -2.2368162460e+01 +5.1062208223e+01 2.0932232218e+02 1.7300000000e+02 0.0000e+00 -1.0000e+00
       -6  1    1    2    0  502 -1.0382268905e+02 +2.2368162460e+01 -3.1671148594e+01 2.0545448914e+02 1.7300000000e+02 0.0000e+00 1.0000e+00
<mgrwt>
<rscale>  2 0.20299873E+03</rscale>
<asrwt>0</asrwt>
<pdfrwt beam="1">  1       21 0.33397529E-01 0.20299873E+03</pdfrwt>
<pdfrwt beam="2">  1       21 0.30414289E-01 0.20299873E+03</pdfrwt>
<totfact> 0.89194541E+04</totfact>
</mgrwt>
</event>
<event>
 4      2 +5.6305390e+02 1.93595500e+02 7.54677100e-03 1.15525800e-01
       21 -1    0    0  501  502 +0.0000000000e+00 +0.0000000000e+00 +2.7211585776e+02 2.7211585776e+02 0.0000000000e+00 0.0000e+00 1.0000e+00
       21 -1    0    0  502  503 -0.0000000000e+00 -0.0000000000e+00 -1.9827851417e+02 1.9827851417e+02 0.0000000000e+00 0.0000e+00 1.0000e+00
        6  1    1    2  501    0 -8.3101375731e+01 -2.5384892005e+01 +1.6688672815e+02 2.5559814441e+02 1.7300000000e+02 0.0000e+00 1.0000e+00
       -6  1    1    2    0  503 +8.3101375731e+01 +2.5384892005e+01 -9.3049384557e+01 2.1479622752e+02 1.7300000000e+02 0.0000e+00 1.0000e+00
<mgrwt>
<rscale>  2 0.19359554E+03</rscale>
<asrwt>0</asrwt>
<pdfrwt beam="1">  1       21 0.41863978E-01 0.19359554E+03</pdfrwt>
<pdfrwt beam="2">  1       21 0.30504387E-01 0.19359554E+03</pdfrwt>
<totfact> 0.56633280E+04</totfact>
</mgrwt>
</event>
<event>
 4      2 +5.6305390e+02 2.12388700e+02 7.54677100e-03 1.13968800e-01
       21 -1    0    0  503  502 +0.0000000000e+00 +0.0000000000e+00 +1.7522181219e+02 1.7522181219e+02 0.0000000000e+00 0.0000e+00 1.0000e+00
       21 -1    0    0  501  503 -0.0000000000e+00 -0.0000000000e+00 -2.6349573340e+02 2.6349573340e+02 0.0000000000e+00 0.0000e+00 1.0000e+00
        6  1    1    2  501    0 -9.8845784965e+01 -7.3548987741e+01 -7.7394065189e+01 2.2605040175e+02 1.7300000000e+02 0.0000e+00 1.0000e+00
       -6  1    1    2    0  502 +9.8845784965e+01 +7.3548987741e+01 -1.0879856014e+01 2.1266714384e+02 1.7300000000e+02 0.0000e+00 1.0000e+00
<mgrwt>
<rscale>  2 0.21238866E+03</rscale>
<asrwt>0</asrwt>
<pdfrwt beam="1">  1       21 0.26957202E-01 0.21238866E+03</pdfrwt>
<pdfrwt beam="2">  1       21 0.40537805E-01 0.21238866E+03</pdfrwt>
<totfact> 0.76209640E+04</totfact>
</mgrwt>
</event>
<event>
 4      2 +5.6305390e+02 2.27561400e+02 7.54677100e-03 1.12836800e-01
       21 -1    0    0  503  502 +0.0000000000e+00 +0.0000000000e+00 +4.7704672185e+02 4.7704672185e+02 0.0000000000e+00 0.0000e+00 -1.0000e+00
       21 -1    0    0  501  503 -0.0000000000e+00 -0.0000000000e+00 -1.6519104596e+02 1.6519104596e+02 0.0000000000e+00 0.0000e+00 1.0000e+00
        6  1    1    2  501    0 -8.6984482001e+01 +1.1953614598e+02 -3.2104284922e+01 2.2981487205e+02 1.7300000000e+02 0.0000e+00 1.0000e+00
       -6  1    1    2    0  502 +8.6984482001e+01 -1.1953614598e+02 +3.4395996082e+02 4.1242289576e+02 1.7300000000e+02 0.0000e+00 -1.0000e+00
<mgrwt>
<rscale>  2 0.22756140E+03</rscale>
<asrwt>0</asrwt>
<pdfrwt beam="1">  1       21 0.73391803E-01 0.22756140E+03</pdfrwt>
<pdfrwt beam="2">  1       21 0.25414007E-01 0.22756140E+03</pdfrwt>
<totfact> 0.24020902E+04</totfact>
</mgrwt>
</event>
<event>
 4      2 +5.6305390e+02 1.74687800e+02 7.54677100e-03 1.17304600e-01
       21 -1    0    0  501  502 +0.0000000000e+00 +0.0000000000e+00 +6.7513032133e+02 6.7513032133e+02 0.0000000000e+00 0.0000e+00 1.0000e+00
       21 -1    0    0  502  503 -0.0000000000e+00 -0.0000000000e+00 -4.5219669951e+01 4.5219669951e+01 0.0000000000e+00 0.0000e+00 1.0000e+00
        6  1    1    2  501    0 +2.4211660663e+01 +7.8837627808e-01 +3.0742518267e+02 3.5359025579e+02 1.7300000000e+02 0.0000e+00 -1.0000e+00
       -6  1    1    2    0  503 -2.4211660663e+01 -7.8837627808e-01 +3.2248546871e+02 3.6675973550e+02 1.7300000000e+02 0.0000e+00 -1.0000e+00
<mgrwt>
<rscale>  2 0.17468780E+03</rscale>
<asrwt>0</asrwt>
<pdfrwt beam="1">  1       21 0.10386620E+00 0.17468780E+03</pdfrwt>
<pdfrwt beam="2">  1       21 0.69568728E-02 0.17468780E+03</pdfrwt>
<totfact> 0.11547897E+05</totfact>
</mgrwt>
</event>
<event>
 4      2 +5.6305390e+02 1.89751800e+02 7.54677100e-03 1.15868500e-01
       21 -1    0    0  503  502 +0.0000000000e+00 +0.0000000000e+00 +7.7020783662e+02 7.7020783662e+02 0.0000000000e+00 0.0000e+00 1.0000e+00
       21 -1    0    0  501  503 -0.0000000000e+00 -0.0000000000e+00 -1.3891044970e+02 1.3891044970e+02 0.0000000000e+00 0.0000e+00 1.0000e+00
        6  1    1    2  501    0 +5.4334044986e-01 +7.7951519077e+01 -5.4605311406e+01 1.9745246157e+02 1.7300000000e+02 0.0000e+00 1.0000e+00
       -6  1    1    2    0  502 -5.4334044986e-01 -7.7951519077e+01 +6.8590269833e+02 7.1166582475e+02 1.7300000000e+02 0.0000e+00 1.0000e+00
<mgrwt>
<rscale>  2 0.18975177E+03</rscale>
<asrwt>0</asrwt>
<pdfrwt beam="1">  1       21 0.11849351E+00 0.18975177E+03</pdfrwt>
<pdfrwt beam="2">  1       21 0.21370839E-01 0.18975177E+03</pdfrwt>
<totfact> 0.11131356E+04</totfact>
</mgrwt>
</event>
<event>
 4      2 +5.6305390e+02 1.94712300e+02 7.54677100e-03 1.15427800e-01
       21 -1    0    0  501  502 +0.0000000000e+00 +0.0000000000e+00 +1.8822205562e+03 1.8822205562e+03 0.0000000000e+00 0.0000e+00 -1.0000e+00
       21 -1    0    0  502  503 -0.0000000000e+00 -0.0000000000e+00 -5.2619098887e+01 5.2619098887e+01 0.0000000000e+00 0.0000e+00 -1.0000e+00
        6  1    1    2  501    0 +7.1138349131e+01 -5.4066871384e+01 +1.6748252678e+03 1.6861057408e+03 1.7300000000e+02 0.0000e+00 -1.0000e+00
       -6  1    1    2    0  503 -7.1138349131e+01 +5.4066871384e+01 +1.5477618947e+02 2.4873391431e+02 1.7300000000e+02 0.0000e+00 -1.0000e+00
<mgrwt>
<rscale>  2 0.19471233E+03</rscale>
<asrwt>0</asrwt>
<pdfrwt beam="1">  1       21 0.28957234E+00 0.19471233E+03</pdfrwt>
<pdfrwt beam="2">  1       21 0.80952474E-02 0.19471233E+03</pdfrwt>
<totfact> 0.45965744E+03</totfact>
</mgrwt>
</event>
<event>
 4      2 +5.6305390e+02 2.11003700e+02 7.54677100e-03 1.14077400e-01
       21 -1    0    0  501  502 +0.0000000000e+00 +0.0000000000e+00 +1.2668077623e+02 1.2668077623e+02 0.0000000000e+00 0.0000e+00 1.0000e+00
       21 -1    0    0  502  503 -0.0000000000e+00 -0.0000000000e+00 -5.1419614023e+02 5.1419614023e+02 0.0000000000e+00 0.0000e+00 1.0000e+00
        6  1    1    2  501    0 -1.1485993650e+02 +3.7426616803e+01 -1.3485266051e+01 2.1143417193e+02 1.7300000000e+02 0.0000e+00 1.0000e+00
       -6  1    1    2    0  503 +1.1485993650e+02 -3.7426616803e+01 -3.7403009796e+02 4.2944274454e+02 1.7300000000e+02 0.0000e+00 1.0000e+00
<mgrwt>
<rscale>  2 0.21100369E+03</rscale>
<asrwt>0</asrwt>
<pdfrwt beam="1">  1       21 0.19489350E-01 0.21100369E+03</pdfrwt>
<pdfrwt beam="2">  1       21 0.79107099E-01 0.21100369E+03</pdfrwt>
<totfact> 0.33835671E+04</totfact>
</mgrwt>
</event>
<event>
 4      2 +5.6305390e+02 2.68310900e+02 7.54677100e-03 1.10225000e-01
       21 -1    0    0  501  502 +0.0000000000e+00 +0.0000000000e+00 +1.3454636890e+03 1.3454636890e+03 0.0000000000e+00 0.0000e+00 -1.0000e+00
       21 -1    0    0  502  503 -0.0000000000e+00 -0.0000000000e+00 -6.6997015403e+01 6.6997015403e+01 0.0000000000e+00 0.0000e+00 -1.0000e+00
        6  1    1    2  501    0 +1.2398152812e+02 -1.6337173936e+02 +9.5614382345e+02 9.9307691326e+02 1.7300000000e+02 0.0000e+00 -1.0000e+00
       -6  1    1    2    0  503 -1.2398152812e+02 +1.6337173936e+02 +3.2232285011e+02 4.1938379111e+02 1.7300000000e+02 0.0000e+00 -1.0000e+00
<mgrwt>
<rscale>  2 0.26831091E+03</rscale>
<asrwt>0</asrwt>
<pdfrwt beam="1">  1       21 0.20699439E+00 0.26831091E+03</pdfrwt>
<pdfrwt beam="2">  1       21 0.10307234E-01 0.26831091E+03</pdfrwt>
<totfact> 0.88064938E+03</totfact>
</mgrwt>
</event>
<event>
 4      2 +5.6305390e+02 2.06211800e+02 7.54677100e-03 1.14460100e-01
       21 -1    0    0  503  502 +0.0000000000e+00 +0.0000000000e+00 +7.4266005553e+01 7.4266005553e+01 0.0000000000e+00 0.0000e+00 -1.0000e+00
       21 -1    0    0  501  503 -0.0000000000e+00 -0.0000000000e+00 -7.0281693696e+02 7.0281693696e+02 0.0000000000e+00 0.0000e+00 -1.0000e+00
        6  1    1    2  501    0 +1.5510285613e+01 -1.1114745925e+02 -4.8153126130e+02 5.2382791284e+02 1.7300000000e+02 0.0000e+00 -1.0000e+00
       -6  1    1    2    0  502 -1.5510285613e+01 +1.1114745925e+02 -1.4701967011e+02 2.5325502967e+02 1.7300000000e+02 0.0000e+00 -1.0000e+00
<mgrwt>
<rscale>  2 0.20621185E+03</rscale>
<asrwt>0</asrwt>
<pdfrwt beam="1">  1       21 0.11425539E-01 0.20621185E+03</pdfrwt>
<pdfrwt beam="2">  1       21 0.10812569E+00 0.20621185E+03</pdfrwt>
<totfact> 0.43293538E+04</totfact>
</mgrwt>
</event>
<event>
 4      2 +5.6305390e+02 1.95516000e+02 7.54677100e-03 1.15357800e-01
       21 -1    0    0  501  502 +0.0000000000e+00 +0.0000000000e+00 +7.1531538725e+01 7.1531538725e+01 0.0000000000e+00 0.0000e+00 -1.0000e+00
       21 -1    0    0  502  503 -0.0000000000e+00 -0.0000000000e+00 -5.6602421526e+02 5.6602421526e+02 0.0000000000e+00 0.0000e+00 -1.0000e+00
        6  1    1    2  501    0 +8.8158583538e+01 -2.2925690057e+01 -1.7189795457e+02 2.6033714660e+02 1.7300000000e+02 0.0000e+00 -1.0000e+00
       -6  1    1    2    0  503 -8.8158583538e+01 +2.2925690057e+01 -3.2259472196e+02 3.7721860738e+02 1.7300000000e+02 0.0000e+00 -1.0000e+00
<mgrwt>
<rscale>  2 0.19551604E+03</rscale>
<asrwt>0</asrwt>
<pdfrwt beam="1">  1       21 0.11004852E-01 0.19551604E+03</pdfrwt>
<pdfrwt beam="2">  1       21 0.87080653E-01 0.19551604E+03</pdfrwt>
<totfact> 0.77531293E+04</totfact>
</mgrwt>
</event>
<event>
 4      2 +5.6305390e+02 1.84452300e+02 7.54677100e-03 1.16356200e-01
       21 -1    0    0  503  502 +0.0000000000e+00 +0.0000000000e+00 +3.6180558814e+01 3.6180558814e+01 0.0000000000e+00 0.0000e+00 -1.0000e+00
       21 -1    0    0  501  503 -0.0000000000e+00 -0.0000000000e+00 -9.9086714884e+02 9.9086714884e+02 0.0000000000e+00 0.0000e+00 -1.0000e+00
        6  1    1    2  501    0 -1.6770089233e+01 -6.1744722507e+01 -5.9328552473e+02 6.2129732054e+02 1.7300000000e+02 0.0000e+00 -1.0000e+00
       -6  1    1    2    0  502 +1.6770089233e+01 +6.1744722507e+01 -3.6140106530e+02 4.0575038712e+02 1.7300000000e+02 0.0000e+00 -1.0000e+00
<mgrwt>
<rscale>  2 0.18445229E+03</rscale>
<asrwt>0</asrwt>
<pdfrwt beam="1">  1       21 0.55662406E-02 0.18445229E+03</pdfrwt>
<pdfrwt beam="2">  1       21 0.15244108E+00 0.18445229E+03</pdfrwt>
<totfact> 0.64484132E+04</totfact>
</mgrwt>
</event>
<event>
 4      2 +5.6305390e+02 1.85231700e+02 7.54677100e-03 1.16283400e-01
       21 -1    0    0  503  502 +0.0000000000e+00 +0.0000000000e+00 +2.9056537277e+02 2.9056537277e+02 0.0000000000e+00 0.0000e+00 1.0000e+00
       21 -1    0    0  501  503 -0.0000000000e+00 -0.0000000000e+00 -1.3141004532e+02 1.3141004532e+02 0.0000000000e+00 0.0000e+00 1.0000e+00
        6  1    1    2  501    0 +6.5485292341e+01 -9.6676774833e+00 +1.4676884024e+02 2.3633002341e+02 1.7300000000e+02 0.0000e+00 1.0000e+00
       -6  1    1    2    0  502 -6.5485292341e+01 +9.6676774833e+00 +1.2386487222e+01 1.8564539468e+02 1.7300000000e+02 0.0000e+00 1.0000e+00
<mgrwt>
<rscale>  2 0.18523171E+03</rscale>
<asrwt>0</asrwt>
<pdfrwt beam="1">  1       21 0.44702365E-01 0.18523171E+03</pdfrwt>
<pdfrwt beam="2">  1       21 0.20216930E-01 0.18523171E+03</pdfrwt>
<totfact> 0.10896388E+05</totfact>
</mgrwt>
</event>
<event>
 4      3 +5.6305390e+02 1.05451500e+02 7.54677100e-03 1.26923300e-01
       -2 -1    0    0    0  501 -0.0000000000e+00 +0.0000000000e+00 +7.2734785931e+00 7.2734785931e+00 0.0000000000e+00 0.0000e+00 1.0000e+00
        2 -1    0    0  501    0 +0.0000000000e+00 -0.0000000000e+00 -1.5546730556e+03 1.5546730556e+03 0.0000000000e+00 0.0000e+00 -1.0000e+00
       24  1    1    2    0    0 -2.4740213156e+01 -6.3566725657e+01 -8.7436072082e+02 8.8069670876e+02 8.0419002446e+01 0.0000e+00 -1.0000e+00
      -24  1    1    2    0    0 +2.4740213156e+01 +6.3566725657e+01 -6.7303885619e+02 6.8124982543e+02 8.0419002446e+01 0.0000e+00 1.0000e+00
<mgrwt>
<rscale>  0 0.10545152E+03</rscale>
<asrwt>0</asrwt>
<pdfrwt beam="1">  1        2 0.23918033E+00 0.10545152E+03</pdfrwt>
<pdfrwt beam="2">  1       -2 0.11189974E-02 0.10545152E+03</pdfrwt>
<totfact> 0.21887057E+04</totfact>
</mgrwt>
</event>
<event>
 4      2 +5.6305390e+02 1.76667500e+02 7.54677100e-03 1.17106800e-01
       21 -1    0    0  503  502 +0.0000000000e+00 +0.0000000000e+00 +2.4121838547e+03 2.4121838547e+03 0.0000000000e+00 0.0000e+00 -1.0000e+00
       21 -1    0    0  501  503 -0.0000000000e+00 -0.0000000000e+00 -1.3476032198e+01 1.3476032198e+01 0.0000000000e+00 0.0000e+00 -1.0000e+00
        6  1    1    2  501    0 -2.9084817593e+01 +2.0892213637e+01 +9.5725574006e+02 9.7342178067e+02 1.7300000000e+02 0.0000e+00 1.0000e+00
       -6  1    1    2    0  502 +2.9084817593e+01 -2.0892213637e+01 +1.4414520825e+03 1.4522381062e+03 1.7300000000e+02 0.0000e+00 1.0000e+00
<mgrwt>
<rscale>  2 0.17666752E+03</rscale>
<asrwt>0</asrwt>
<pdfrwt beam="1">  1       21 0.37110487E+00 0.17666752E+03</pdfrwt>
<pdfrwt beam="2">  1       21 0.20732376E-02 0.17666752E+03</pdfrwt>
<totfact> 0.15500276E+04</totfact>
</mgrwt>
</event>
<event>
 4      2 +5.6305390e+02 1.98103700e+02 7.54677100e-03 1.15134900e-01
       21 -1    0    0  501  502 +0.0000000000e+00 +0.0000000000e+00 +1.2562476756e+02 1.2562476756e+02 0.0000000000e+00 0.0000e+00 -1.0000e+00
       21 -1    0    0  502  503 -0.0000000000e+00 -0.0000000000e+00 -3.1391264280e+02 3.1391264280e+02 0.0000000000e+00 0.0000e+00 1.0000e+00
        6  1    1    2  501    0 +3.5687258812e+01 +8.9679914213e+01 -7.8883913469e+01 2.1323165632e+02 1.7300000000e+02 0.0000e+00 1.0000e+00
       -6  1    1    2    0  503 -3.5687258812e+01 -8.9679914213e+01 -1.0940396177e+02 2.2630575403e+02 1.7300000000e+02 0.0000e+00 1.0000e+00
<mgrwt>
<rscale>  2 0.19810368E+03</rscale>
<asrwt>0</asrwt>
<pdfrwt beam="1">  1       21 0.19326887E-01 0.19810368E+03</pdfrwt>
<pdfrwt beam="2">  1       21 0.48294252E-01 0.19810368E+03</pdfrwt>
<totfact> 0.10055324E+05</totfact>
</mgrwt>
</event>
<event>
 4      2 +5.6305390e+02 1.94049300e+02 7.54677100e-03 1.15485900e-01
       21 -1    0    0  501  502 +0.0000000000e+00 +0.0000000000e+00 +2.1894718171e+02 2.1894718171e+02 0.0000000000e+00 0.0000e+00 1.0000e+00
       21 -1    0    0  502  503 -0.0000000000e+00 -0.0000000000e+00 -2.2142165182e+02 2.2142165182e+02 0.0000000000e+00 0.0000e+00 1.0000e+00
        6  1    1    2  501    0 -7.0989412527e+01 -5.1832607383e+01 +1.0280541266e+02 2.1959979224e+02 1.7300000000e+02 0.0000e+00 1.0000e+00
       -6  1    1    2    0  503 +7.0989412527e+01 +5.1832607383e+01 -1.0527988276e+02 2.2076904129e+02 1.7300000000e+02 0.0000e+00 1.0000e+00
<mgrwt>
<rscale>  2 0.19404926E+03</rscale>
<asrwt>0</asrwt>
<pdfrwt beam="1">  1       21 0.33684182E-01 0.19404926E+03</pdfrwt>
<pdfrwt beam="2">  1       21 0.34064869E-01 0.19404926E+03</pdfrwt>
<totfact> 0.70453284E+04</totfact>
</mgrwt>
</event>
<event>
 4      2 +5.6305390e+02 2.04382200e+02 7.54677100e-03 1.14609400e-01
       21 -1    0    0  503  502 +0.0000000000e+00 +0.0000000000e+00 +2.5198325646e+02 2.5198325646e+02 0.0000000000e+00 0.0000e+00 1.0000e+00
       21 -1    0    0  501  503 -0.0000000000e+00 -0.0000000000e+00 -6.1839976308e+02 6.1839976308e+02 0.0000000000e+00 0.0000e+00 -1.0000e+00
        6  1    1    2  501    0 -4.5140922363e+01 +9.9022171170e+01 -5.5552771049e+02 5.9193169402e+02 1.7300000000e+02 0.0000e+00 -1.0000e+00
       -6  1    1    2    0  502 +4.5140922363e+01 -9.9022171170e+01 +1.8911120387e+02 2.7845132552e+02 1.7300000000e+02 0.0000e+00 1.0000e+00
<mgrwt>
<rscale>  2 0.20438222E+03</rscale>
<asrwt>0</asrwt>
<pdfrwt beam="1">  1       21 0.38766655E-01 0.20438222E+03</pdfrwt>
<pdfrwt beam="2">  1       21 0.95138425E-01 0.20438222E+03</pdfrwt>
<totfact> 0.58702959E+03</totfact>
</mgrwt>
</event>
<event>
 4      2 +5.6305390e+02 2.93357500e+02 7.54677100e-03 1.08860900e-01
       21 -1    0    0  501  502 +0.0000000000e+00 +0.0000000000e+00 +1.4700586099e+02 1.4700586099e+02 0.0000000000e+00 0.0000e+00 1.0000e+00
       21 -1    0    0  502  503 -0.0000000000e+00 -0.0000000000e+00 -7.0731938906e+02 7.0731938906e+02 0.0000000000e+00 0.0000e+00 -1.0000e+00
        6  1    1    2  501    0 -2.2680161443e+02 -6.8488474774e+01 -1.0281756589e+02 3.1085381668e+02 1.7300000000e+02 0.0000e+00 -1.0000e+00
       -6  1    1    2    0  503 +2.2680161443e+02 +6.8488474774e+01 -4.5749596217e+02 5.4347143337e+02 1.7300000000e+02 0.0000e+00 1.0000e+00
<mgrwt>
<rscale>  2 0.29335754E+03</rscale>
<asrwt>0</asrwt>
<pdfrwt beam="1">  1       21 0.22616286E-01 0.29335754E+03</pdfrwt>
<pdfrwt beam="2">  1       21 0.10881837E+00 0.29335754E+03</pdfrwt>
<totfact> 0.11592131E+04</totfact>
</mgrwt>
</event>
<event>
 4      2 +5.6305390e+02 1.90969900e+02 7.54677100e-03 1.15758900e-01
       21 -1    0    0  503  502 +0.0000000000e+00 +0.0000000000e+00 +2.7961053872e+01 2.7961053872e+01 0.0000000000e+00 0.0000e+00 1.0000e+00
       21 -1    0    0  501  503 -0.0000000000e+00 -0.0000000000e+00 -1.3241869580e+03 1.3241869580e+03 0.0000000000e+00 0.0000e+00 -1.0000e+00
        6  1    1    2  501    0 +4.2509287996e+01 +6.8800045789e+01 -7.3097379196e+02 7.5550788904e+02 1.7300000000e+02 0.0000e+00 -1.0000e+00
       -6  1    1    2    0  502 -4.2509287996e+01 -6.8800045789e+01 -5.6525211218e+02 5.9664012285e+02 1.7300000000e+02 0.0000e+00 1.0000e+00
<mgrwt>
<rscale>  2 0.19096986E+03</rscale>
<asrwt>0</asrwt>
<pdfrwt beam="1">  1       21 0.43017005E-02 0.19096986E+03</pdfrwt>
<pdfrwt beam="2">  1       21 0.20372107E+00 0.19096986E+03</pdfrwt>
<totfact> 0.44135668E+04</totfact>
</mgrwt>
</event>
<event>
 4      3 +5.6305390e+02 8.34490400e+01 7.54677100e-03 1.31953900e-01
        2 -1    0    0  501    0 +0.0000000000e+00 +0.0000000000e+00 +9.4203757505e+02 9.4203757505e+02 0.0000000000e+00 0.0000e+00 -1.0000e+00
       -2 -1    0    0    0  501 -0.0000000000e+00 -0.0000000000e+00 -9.2311212632e+00 9.2311212632e+00 0.0000000000e+00 0.0000e+00 1.0000e+00
       24  1    1    2    0    0 +1.0089847764e+01 -1.9867576599e+01 +6.7869155543e+02 6.8380258042e+02 8.0419002446e+01 0.0000e+00 -1.0000e+00
      -24  1    1    2    0    0 -1.0089847764e+01 +1.9867576599e+01 +2.5411489836e+02 2.6746611589e+02 8.0419002446e+01 0.0000e+00 1.0000e+00
<mgrwt>
<rscale>  0 0.83449036E+02</rscale>
<asrwt>0</asrwt>
<pdfrwt beam="1">  1        2 0.14492878E+00 0.83449036E+02</pdfrwt>
<pdfrwt beam="2">  1       -2 0.14201732E-02 0.83449036E+02</pdfrwt>
<totfact> 0.32880443E+04</totfact>
</mgrwt>
</event>
<event>
 4      2 +5.6305390e+02 2.55690200e+02 7.54677100e-03 1.10976100e-01
       21 -1    0    0  503  502 +0.0000000000e+00 +0.0000000000e+00 +1.5491526566e+02 1.5491526566e+02 0.0000000000e+00 0.0000e+00 -1.0000e+00
       21 -1    0    0  501  503 -0.0000000000e+00 -0.0000000000e+00 -4.2210788165e+02 4.2210788165e+02 0.0000000000e+00 0.0000e+00 -1.0000e+00
        6  1    1    2  501    0 -1.8637794472e+02 -2.6678558052e+01 -1.3773728172e+02 2.9042906623e+02 1.7300000000e+02 0.0000e+00 -1.0000e+00
       -6  1    1    2    0  502 +1.8637794472e+02 +2.6678558052e+01 -1.2945533427e+02 2.8659408108e+02 1.7300000000e+02 0.0000e+00 -1.0000e+00
<mgrwt>
<rscale>  2 0.25569021E+03</rscale>
<asrwt>0</asrwt>
<pdfrwt beam="1">  1       21 0.23833118E-01 0.25569021E+03</pdfrwt>
<pdfrwt beam="2">  1       21 0.64939674E-01 0.25569021E+03</pdfrwt>
<totfact> 0.35149976E+04</totfact>
</mgrwt>
</event>
<event>
 4      3 +5.6305390e+02 9.52752600e+01 7.54677100e-03 1.29055700e-01
       -2 -1    0    0    0  501 -0.0000000000e+00 +0.0000000000e+00 +2.2902227180e+01 2.2902227180e+01 0.0000000000e+00 0.0000e+00 1.0000e+00
        2 -1    0    0  501    0 +0.0000000000e+00 -0.0000000000e+00 -5.6400880407e+02 5.6400880407e+02 0.0000000000e+00 0.0000e+00 -1.0000e+00
       24  1    1    2    0    0 -1.4249588453e+01 +4.9062297279e+01 -4.3054891301e+02 4.4096455893e+02 8.0419002446e+01 0.0000e+00 1.0000e+00
      -24  1    1    2    0    0 +1.4249588453e+01 -4.9062297279e+01 -1.1055766388e+02 1.4594647232e+02 8.0419002446e+01 0.0000e+00 0.0000e+00
<mgrwt>
<rscale>  0 0.95275263E+02</rscale>
<asrwt>0</asrwt>
<pdfrwt beam="1">  1        2 0.86770585E-01 0.95275263E+02</pdfrwt>
<pdfrwt beam="2">  1       -2 0.35234196E-02 0.95275263E+02</pdfrwt>
<totfact> 0.16550411E+04</totfact>
</mgrwt>
</event>
<event>
 4      2 +5.6305390e+02 1.85222900e+02 7.54677100e-03 1.16284200e-01
       21 -1    0    0  501  502 +0.0000000000e+00 +0.0000000000e+00 +1.0833969826e+02 1.0833969826e+02 0.0000000000e+00 0.0000e+00 -1.0000e+00
       21 -1    0    0  502  503 -0.0000000000e+00 -0.0000000000e+00 -4.2735704850e+02 4.2735704850e+02 0.0000000000e+00 0.0000e+00 -1.0000e+00
        6  1    1    2  501    0 -2.5778132292e+01 -6.0942617862e+01 -2.3191825534e+01 1.8666916068e+02 1.7300000000e+02 0.0000e+00 -1.0000e+00
       -6  1    1    2    0  503 +2.5778132292e+01 +6.0942617862e+01 -2.9582552471e+02 3.4902758608e+02 1.7300000000e+02 0.0000e+00 -1.0000e+00
<mgrwt>
<rscale>  2 0.18522288E+03</rscale>
<asrwt>0</asrwt>
<pdfrwt beam="1">  1       21 0.16667646E-01 0.18522288E+03</pdfrwt>
<pdfrwt beam="2">  1       21 0.65747237E-01 0.18522288E+03</pdfrwt>
<totfact> 0.68993603E+04</totfact>
</mgrwt>
</event>
<event>
 4      2 +5.6305390e+02 2.21869400e+02 7.54677100e-03 1.13249700e-01
       21 -1    0    0  503  502 +0.0000000000e+00 +0.0000000000e+00 +2.2207492612e+02 2.2207492612e+02 0.0000000000e+00 0.0000e+00 1.0000e+00
       21 -1    0    0  501  503 -0.0000000000e+00 -0.0000000000e+00 -3.0832716790e+02 3.0832716790e+02 0.0000000000e+00 0.0000e+00 -1.0000e+00
        6  1    1    2  501    0 +1.3481669861e+02 -3.3488534135e+01 -1.8372651255e+02 2.8806501967e+02 1.7300000000e+02 0.0000e+00 -1.0000e+00
       -6  1    1    2    0  502 -1.3481669861e+02 +3.3488534135e+01 +9.7474270768e+01 2.4233707435e+02 1.7300000000e+02 0.0000e+00 1.0000e+00
<mgrwt>
<rscale>  2 0.22186939E+03</rscale>
<asrwt>0</asrwt>
<pdfrwt beam="1">  1       21 0.34165373E-01 0.22186939E+03</pdfrwt>
<pdfrwt beam="2">  1       21 0.47434949E-01 0.22186939E+03</pdfrwt>
<totfact> 0.34566622E+04</totfact>
</mgrwt>
</event>
<event>
 4      2 +5.6305390e+02 1.94171400e+02 7.54677100e-03 1.15475200e-01
       21 -1    0    0  501  502 +0.0000000000e+00 +0.0000000000e+00 +9.0053797006e+02 9.0053797006e+02 0.0000000000e+00 0.0000e+00 -1.0000e+00
       21 -1    0    0  502  503 -0.0000000000e+00 -0.0000000000e+00 -6.7052124720e+01 6.7052124720e+01 0.0000000000e+00 0.0000e+00 -1.0000e+00
        6  1    1    2  501    0 +1.7247405860e+01 -8.6464265032e+01 +7.1324646752e+02 7.3920434629e+02 1.7300000000e+02 0.0000e+00 -1.0000e+00
       -6  1    1    2    0  503 -1.7247405860e+01 +8.6464265032e+01 +1.2023937782e+02 2.2838574849e+02 1.7300000000e+02 0.0000e+00 -1.0000e+00
<mgrwt>
<rscale>  2 0.19417142E+03</rscale>
<asrwt>0</asrwt>
<pdfrwt beam="1">  1       21 0.13854429E+00 0.19417142E+03</pdfrwt>
<pdfrwt beam="2">  1       21 0.10315712E-01 0.19417142E+03</pdfrwt>
<totfact> 0.28209148E+04</totfact>
</mgrwt>
</event>
<event>
 4      2 +5.6305390e+02 1.81984400e+02 7.54677100e-03 1.16589600e-01
       21 -1    0    0  501  502 +0.0000000000e+00 +0.0000000000e+00 +9.9425696212e+02 9.9425696212e+02 0.0000000000e+00 0.0000e+00 -1.0000e+00
       21 -1    0    0  502  503 -0.0000000000e+00 -0.0000000000e+00 -7.4760517948e+01 7.4760517948e+01 0.0000000000e+00 0.0000e+00 -1.0000e+00
        6  1    1    2  501    0 +3.9186526304e+00 -5.6337922132e+01 +8.5775058853e+02 8.7684342356e+02 1.7300000000e+02 0.0000e+00 -1.0000e+00
       -6  1    1    2    0  503 -3.9186526304e+00 +5.6337922132e+01 +6.1745855646e+01 1.9217405652e+02 1.7300000000e+02 0.0000e+00 -1.0000e+00
<mgrwt>
<rscale>  2 0.18198439E+03</rscale>
<asrwt>0</asrwt>
<pdfrwt beam="1">  1       21 0.15296260E+00 0.18198439E+03</pdfrwt>
<pdfrwt beam="2">  1       21 0.11501619E-01 0.18198439E+03</pdfrwt>
<totfact> 0.18102281E+04</totfact>
</mgrwt>
</event>
<event>
 4      2 +5.6305390e+02 2.56201300e+02 7.54677100e-03 1.10944700e-01
       21 -1    0    0  501  502 +0.0000000000e+00 +0.0000000000e+00 +5.4555068971e+02 5.4555068971e+02 0.0000000000e+00 0.0000e+00 -1.0000e+00
       21 -1    0    0  502  503 -0.0000000000e+00 -0.0000000000e+00 -1.8175375369e+02 1.8175375369e+02 0.0000000000e+00 0.0000e+00 1.0000e+00
        6  1    1    2  501    0 +9.3408620003e+01 -1.6427089038e+02 -2.9527440319e+01 2.5789719938e+02 1.7300000000e+02 0.0000e+00 1.0000e+00
       -6  1    1    2    0  503 -9.3408620003e+01 +1.6427089038e+02 +3.9332437634e+02 4.6940724402e+02 1.7300000000e+02 0.0000e+00 -1.0000e+00
<mgrwt>
<rscale>  2 0.25620128E+03</rscale>
<asrwt>0</asrwt>
<pdfrwt beam="1">  1       21 0.83930875E-01 0.25620128E+03</pdfrwt>
<pdfrwt beam="2">  1       21 0.27962116E-01 0.25620128E+03</pdfrwt>
<totfact> 0.14520682E+04</totfact>
</mgrwt>
</event>
<event>
 4      2 +5.6305390e+02 2.70002300e+02 7.54677100e-03 1.10127800e-01
       21 -1    0    0  503  502 +0.0000000000e+00 +0.0000000000e+00 +1.1092642244e+02 1.1092642244e+02 0.0000000000e+00 0.0000e+00 1.0000e+00
       21 -1    0    0  501  503 -0.0000000000e+00 -0.0000000000e+00 -1.0005715538e+03 1.0005715538e+03 0.0000000000e+00 0.0000e+00 1.0000e+00
        6  1    1    2  501    0 -1.4117821254e+02 +1.5179251408e+02 -7.7038510179e+02 8.1632987211e+02 1.7300000000e+02 0.0000e+00 1.0000e+00
       -6  1    1    2    0  502 +1.4117821254e+02 -1.5179251408e+02 -1.1926002953e+02 2.9516810409e+02 1.7300000000e+02 0.0000e+00 1.0000e+00
<mgrwt>
<rscale>  2 0.27000232E+03</rscale>
<asrwt>0</asrwt>
<pdfrwt beam="1">  1       21 0.17065603E-01 0.27000232E+03</pdfrwt>
<pdfrwt beam="2">  1       21 0.15393409E+00 0.27000232E+03</pdfrwt>
<totfact> 0.82039602E+03</totfact>
</mgrwt>
</event>
<event>
 4      2 +5.6305390e+02 1.81501500e+02 7.54677100e-03 1.16635800e-01
       21 -1    0    0  503  502 +0.0000000000e+00 +0.0000000000e+00 +1.0875592737e+02 1.0875592737e+02 0.0000000000e+00 0.0000e+00 1.0000e+00
       21 -1    0    0  501  503 -0.0000000000e+00 -0.0000000000e+00 -5.5391959697e+02 5.5391959697e+02 0.0000000000e+00 0.0000e+00 1.0000e+00
        6  1    1    2  501    0 +4.6165163216e+01 +2.9707945663e+01 +4.6522370974e-01 1.8150206821e+02 1.7300000000e+02 0.0000e+00 1.0000e+00
       -6  1    1    2    0  502 -4.6165163216e+01 -2.9707945663e+01 -4.4562889331e+02 4.8117345613e+02 1.7300000000e+02 0.0000e+00 1.0000e+00
<mgrwt>
<rscale>  2 0.18150147E+03</rscale>
<asrwt>0</asrwt>
<pdfrwt beam="1">  1       21 0.16731681E-01 0.18150147E+03</pdfrwt>
<pdfrwt beam="2">  1       21 0.85218400E-01 0.18150147E+03</pdfrwt>
<totfact> 0.38488853E+04</totfact>
</mgrwt>
</event>
<event>
 4      2 +5.6305390e+02 2.30041800e+02 7.54677100e-03 1.12661000e-01
       21 -1    0    0  503  502 +0.0000000000e+00 +0.0000000000e+00 +1.5023884169e+02 1.5023884169e+02 0.0000000000e+00 0.0000e+00 -1.0000e+00
       21 -1    0    0  501  503 -0.0000000000e+00 -0.0000000000e+00 -5.7309139576e+02 5.7309139576e+02 0.0000000000e+00 0.0000e+00 1.0000e+00
        6  1    1    2  501    0 -1.1424021255e+02 -9.9696651095e+01 -4.3594394447e+02 4.9291619077e+02 1.7300000000e+02 0.0000e+00 1.0000e+00
       -6  1    1    2    0  502 +1.1424021255e+02 +9.9696651095e+01 +1.3091390409e+01 2.3041404668e+02 1.7300000000e+02 0.0000e+00 -1.0000e+00
<mgrwt>
<rscale>  2 0.23004184E+03</rscale>
<asrwt>0</asrwt>
<pdfrwt beam="1">  1       21 0.23113668E-01 0.23004184E+03</pdfrwt>
<pdfrwt beam="2">  1       21 0.88167908E-01 0.23004184E+03</pdfrwt>
<totfact> 0.18950013E+04</totfact>
</mgrwt>
</event>
<event>
 4      2 +5.6305390e+02 3.12908700e+02 7.54677100e-03 1.07896000e-01
       21 -1    0    0  503  502 +0.0000000000e+00 +0.0000000000e+00 +6.9232654126e+02 6.9232654126e+02 0.0000000000e+00 0.0000e+00 1.0000e+00
       21 -1    0    0  501  503 -0.0000000000e+00 -0.0000000000e+00 -1.6279210225e+02 1.6279210225e+02 0.0000000000e+00 0.0000e+00 1.0000e+00
        6  1    1    2  501    0 -5.6315630179e+01 -2.5458088549e+02 +1.0986471031e+02 3.3163554096e+02 1.7300000000e+02 0.0000e+00 1.0000e+00
       -6  1    1    2    0  502 +5.6315630179e+01 +2.5458088549e+02 +4.1966972870e+02 5.2348310254e+02 1.7300000000e+02 0.0000e+00 1.0000e+00
<mgrwt>
<rscale>  2 0.31290874E+03</rscale>
<asrwt>0</asrwt>
<pdfrwt beam="1">  1       21 0.10651177E+00 0.31290874E+03</pdfrwt>
<pdfrwt beam="2">  1       21 0.25044939E-01 0.31290874E+03</pdfrwt>
<totfact> 0.99541026E+03</totfact>
</mgrwt>
</event>
<event>
 4      2 +5.6305390e+02 2.00988100e+02 7.54677100e-03 1.14890800e-01
       21 -1    0    0  501  502 +0.0000000000e+00 +0.0000000000e+00 +4.0504678381e+02 4.0504678381e+02 0.0000000000e+00 0.0000e+00 -1.0000e+00
       21 -1    0    0  502  503 -0.0000000000e+00 -0.0000000000e+00 -1.0226259259e+02 1.0226259259e+02 0.0000000000e+00 0.0000e+00 -1.0000e+00
        6  1    1    2  501    0 -8.2224144384e+00 +1.0197845175e+02 +1.9129249149e+02 2.7746897128e+02 1.7300000000e+02 0.0000e+00 -1.0000e+00
       -6  1    1    2    0  503 +8.2224144384e+00 -1.0197845175e+02 +1.1149169972e+02 2.2984040512e+02 1.7300000000e+02 0.0000e+00 -1.0000e+00
<mgrwt>
<rscale>  2 0.20098809E+03</rscale>
<asrwt>0</asrwt>
<pdfrwt beam="1">  1       21 0.62314889E-01 0.20098809E+03</pdfrwt>
<pdfrwt beam="2">  1       21 0.15732707E-01 0.20098809E+03</pdfrwt>
<totfact> 0.85575525E+04</totfact>
</mgrwt>
</event>
<event>
 4      3 +5.6305390e+02 8.70348600e+01 7.54677100e-03 1.31019500e-01
        2 -1    0    0  501    0 +0.0000000000e+00 +0.0000000000e+00 +1.7760238928e+03 1.7760238928e+03 0.0000000000e+00 0.0000e+00 -1.0000e+00
       -2 -1    0    0    0  501 -0.0000000000e+00 -0.0000000000e+00 -6.1697879488e+00 6.1697879488e+00 0.0000000000e+00 0.0000e+00 1.0000e+00
       24  1    1    2    0    0 -2.6078661225e+01 -2.0682235200e+01 +1.3800262350e+03 1.3827680488e+03 8.0419002446e+01 0.0000e+00 -1.0000e+00
      -24  1    1    2    0    0 +2.6078661225e+01 +2.0682235200e+01 +3.8982786986e+02 3.9942563200e+02 8.0419002446e+01 0.0000e+00 1.0000e+00
<mgrwt>
<rscale>  0 0.87034863E+02</rscale>
<asrwt>0</asrwt>
<pdfrwt beam="1">  1        2 0.27323404E+00 0.87034863E+02</pdfrwt>
<pdfrwt beam="2">  1       -2 0.94919956E-03 0.87034863E+02</pdfrwt>
<totfact> 0.21088688E+04</totfact>
</mgrwt>
</event>
<event>
 4      2 +5.6305390e+02 1.90511800e+02 7.54677100e-03 1.15800100e-01
       21 -1    0    0  503  502 +0.0000000000e+00 +0.0000000000e+00 +2.4504863467e+02 2.4504863467e+02 0.0000000000e+00 0.0000e+00 1.0000e+00
       21 -1    0    0  501  503 -0.0000000000e+00 -0.0000000000e+00 -2.7850033058e+02 2.7850033058e+02 0.0000000000e+00 0.0000e+00 1.0000e+00
        6  1    1    2  501    0 +2.1134098986e+01 +7.6935692542e+01 -1.9584131257e+02 2.7321890608e+02 1.7300000000e+02 0.0000e+00 1.0000e+00
       -6  1    1    2    0  502 -2.1134098986e+01 -7.6935692542e+01 +1.6238961666e+02 2.5033005917e+02 1.7300000000e+02 0.0000e+00 1.0000e+00
<mgrwt>
<rscale>  2 0.19051181E+03</rscale>
<asrwt>0</asrwt>
<pdfrwt beam="1">  1       21 0.37699790E-01 0.19051181E+03</pdfrwt>
<pdfrwt beam="2">  1       21 0.42846205E-01 0.19051181E+03</pdfrwt>
<totfact> 0.35590018E+04</totfact>
</mgrwt>
</event>
<event>
 4      2 +5.6305390e+02 1.97942500e+02 7.54677100e-03 1.15148700e-01
       21 -1    0    0  501  502 +0.0000000000e+00 +0.0000000000e+00 +3.5971666158e+02 3.5971666158e+02 0.0000000000e+00 0.0000e+00 1.0000e+00
       21 -1    0    0  502  503 -0.0000000000e+00 -0.0000000000e+00 -2.5627314770e+02 2.5627314770e+02 0.0000000000e+00 0.0000e+00 1.0000e+00
        6  1    1    2  501    0 -9.1769161882e+01 +2.8821265935e+01 +2.8526536135e+02 3.4721401301e+02 1.7300000000e+02 0.0000e+00 1.0000e+00
       -6  1    1    2    0  503 +9.1769161882e+01 -2.8821265935e+01 -1.8182184747e+02 2.6877579627e+02 1.7300000000e+02 0.0000e+00 1.0000e+00
<mgrwt>
<rscale>  2 0.19794253E+03</rscale>
<asrwt>0</asrwt>
<pdfrwt beam="1">  1       21 0.55341025E-01 0.19794253E+03</pdfrwt>
<pdfrwt beam="2">  1       21 0.39426638E-01 0.19794253E+03</pdfrwt>
<totfact> 0.19031417E+04</totfact>
</mgrwt>
</event>
<event>
 4      2 +5.6305390e+02 2.19715300e+02 7.54677100e-03 1.13409500e-01
       21 -1    0    0  501  502 +0.0000000000e+00 +0.0000000000e+00 +6.0092787086e+01 6.0092787086e+01 0.0000000000e+00 0.0000e+00 -1.0000e+00
       21 -1    0    0  502  503 -0.0000000000e+00 -0.0000000000e+00 -1.5696328514e+03 1.5696328514e+03 0.0000000000e+00 0.0000e+00 -1.0000e+00
        6  1    1    2  501    0 -3.7392351763e+01 +1.3018301432e+02 -1.8541458089e+02 2.8749499473e+02 1.7300000000e+02 0.0000e+00 -1.0000e+00
       -6  1    1    2    0  503 +3.7392351763e+01 -1.3018301432e+02 -1.3241254835e+03 1.3422306438e+03 1.7300000000e+02 0.0000e+00 -1.0000e+00
<mgrwt>
<rscale>  2 0.21971528E+03</rscale>
<asrwt>0</asrwt>
<pdfrwt beam="1">  1       21 0.92450457E-02 0.21971528E+03</pdfrwt>
<pdfrwt beam="2">  1       21 0.24148194E+00 0.21971528E+03</pdfrwt>
<totfact> 0.67829039E+03</totfact>
</mgrwt>
</event>
<event>
 4      2 +5.6305390e+02 1.75468300e+02 7.54677100e-03 1.17226200e-01
       21 -1    0    0  503  502 +0.0000000000e+00 +0.0000000000e+00 +6.6570715914e+01 6.6570715914e+01 0.0000000000e+00 0.0000e+00 1.0000e+00
       21 -1    0    0  501  503 -0.0000000000e+00 -0.0000000000e+00 -6.1576138592e+02 6.1576138592e+02 0.0000000000e+00 0.0000e+00 1.0000e+00
        6  1    1    2  501    0 +1.3860514413e+01 -2.5845863912e+01 -4.4480037460e+02 4.7815948781e+02 1.7300000000e+02 0.0000e+00 1.0000e+00
       -6  1    1    2    0  502 -1.3860514413e+01 +2.5845863912e+01 -1.0439029541e+02 2.0417261402e+02 1.7300000000e+02 0.0000e+00 1.0000e+00
<mgrwt>
<rscale>  2 0.17546829E+03</rscale>
<asrwt>0</asrwt>
<pdfrwt beam="1">  1       21 0.10241648E-01 0.17546829E+03</pdfrwt>
<pdfrwt beam="2">  1       21 0.94732525E-01 0.17546829E+03</pdfrwt>
<totfact> 0.73101555E+04</totfact>
</mgrwt>
</event>
<event>
 4      2 +5.6305390e+02 2.66318300e+02 7.54677100e-03 1.10340500e-01
       21 -1    0    0  501  502 +0.0000000000e+00 +0.0000000000e+00 +7.3505989171e+01 7.3505989171e+01 0.0000000000e+00 0.0000e+00 -1.0000e+00
       21 -1    0    0  502  503 -0.0000000000e+00 -0.0000000000e+00 -9.6584754933e+02 9.6584754933e+02 0.0000000000e+00 0.0000e+00 1.0000e+00
        6  1    1    2  501    0 -6.4574499084e+01 -1.9190255818e+02 -4.2983860725e+02 5.0565471031e+02 1.7300000000e+02 0.0000e+00 -1.0000e+00
       -6  1    1    2    0  503 +6.4574499084e+01 +1.9190255818e+02 -4.6250295291e+02 5.3369882820e+02 1.7300000000e+02 0.0000e+00 1.0000e+00
<mgrwt>
<rscale>  2 0.26631834E+03</rscale>
<asrwt>0</asrwt>
<pdfrwt beam="1">  1       21 0.11308614E-01 0.26631834E+03</pdfrwt>
<pdfrwt beam="2">  1       21 0.14859192E+00 0.26631834E+03</pdfrwt>
<totfact> 0.19134727E+04</totfact>
</mgrwt>
</event>
<event>
 4      2 +5.6305390e+02 2.09052000e+02 7.54677100e-03 1.14231900e-01
       21 -1    0    0  503  502 +0.0000000000e+00 +0.0000000000e+00 +5.2534358105e+02 5.2534358105e+02 0.0000000000e+00 0.0000e+00 -1.0000e+00
       21 -1    0    0  501  503 -0.0000000000e+00 -0.0000000000e+00 -8.8893119423e+01 8.8893119423e+01 0.0000000000e+00 0.0000e+00 -1.0000e+00
        6  1    1    2  501    0 +3.5440267181e+01 +1.1188256404e+02 +1.4042654427e+02 2.5183791416e+02 1.7300000000e+02 0.0000e+00 -1.0000e+00
       -6  1    1    2    0  502 -3.5440267181e+01 -1.1188256404e+02 +2.9602391737e+02 3.6239878632e+02 1.7300000000e+02 0.0000e+00 -1.0000e+00
<mgrwt>
<rscale>  2 0.20905196E+03</rscale>
<asrwt>0</asrwt>
<pdfrwt beam="1">  1       21 0.80822088E-01 0.20905196E+03</pdfrwt>
<pdfrwt beam="2">  1       21 0.13675865E-01 0.20905196E+03</pdfrwt>
<totfact> 0.61862734E+04</totfact>
</mgrwt>
</event>
<event>
 4      2 +5.6305390e+02 1.96431000e+02 7.54677100e-03 1.15278600e-01
       21 -1    0    0  503  502 +0.0000000000e+00 +0.0000000000e+00 +8.4256644043e+02 8.4256644043e+02 0.0000000000e+00 0.0000e+00 1.0000e+00
       21 -1    0    0  501  503 -0.0000000000e+00 -0.0000000000e+00 -5.9490204880e+01 5.9490204880e+01 0.0000000000e+00 0.0000e+00 1.0000e+00
        6  1    1    2  501    0 -1.4538183773e+01 +9.1895372706e+01 +1.7513209903e+02 2.6316605105e+02 1.7300000000e+02 0.0000e+00 1.0000e+00
       -6  1    1    2    0  502 +1.4538183773e+01 -9.1895372706e+01 +6.0794413651e+02 6.3889059426e+02 1.7300000000e+02 0.0000e+00 1.0000e+00
<mgrwt>
<rscale>  2 0.19643095E+03</rscale>
<asrwt>0</asrwt>
<pdfrwt beam="1">  1       21 0.12962560E+00 0.19643095E+03</pdfrwt>
<pdfrwt beam="2">  1       21 0.91523398E-02 0.19643095E+03</pdfrwt>
<totfact> 0.41209480E+04</totfact>
</mgrwt>
</event>
<event>
 4      2 +5.6305390e+02 1.77607500e+02 7.54677100e-03 1.17013900e-01
       21 -1    0    0  503  502 +0.0000000000e+00 +0.0000000000e+00 +4.5592794953e+02 4.5592794953e+02 0.0000000000e+00 0.0000e+00 -1.0000e+00
       21 -1    0    0  501  503 -0.0000000000e+00 -0.0000000000e+00 -7.1335612802e+01 7.1335612802e+01 0.0000000000e+00 0.0000e+00 -1.0000e+00
        6  1    1    2  501    0 -2.1410418033e+01 +3.4014798554e+01 +2.3804666675e+02 2.9700274085e+02 1.7300000000e+02 0.0000e+00 -1.0000e+00
       -6  1    1    2    0  502 +2.1410418033e+01 -3.4014798554e+01 +1.4654566998e+02 2.3026082149e+02 1.7300000000e+02 0.0000e+00 -1.0000e+00
<mgrwt>
<rscale>  2 0.17760747E+03</rscale>
<asrwt>0</asrwt>
<pdfrwt beam="1">  1       21 0.70142760E-01 0.17760747E+03</pdfrwt>
<pdfrwt beam="2">  1       21 0.10974710E-01 0.17760747E+03</pdfrwt>
<totfact> 0.12762091E+05</totfact>
</mgrwt>
</event>
<event>
 4      2 +5.6305390e+02 2.80204100e+02 7.54677100e-03 1.09557800e-01
       21 -1    0    0  503  502 +0.0000000000e+00 +0.0000000000e+00 +1.5499659712e+03 1.5499659712e+03 0.0000000000e+00 0.0000e+00 1.0000e+00
       21 -1    0    0  501  503 -0.0000000000e+00 -0.0000000000e+00 -5.9322785073e+01 5.9322785073e+01 0.0000000000e+00 0.0000e+00 1.0000e+00
        6  1    1    2  501    0 +7.9677097301e+00 -2.2027670822e+02 +4.3775825009e+02 5.1975628722e+02 1.7300000000e+02 0.0000e+00 1.0000e+00
       -6  1    1    2    0  502 -7.9677097301e+00 +2.2027670822e+02 +1.0528849360e+03 1.0895324690e+03 1.7300000000e+02 0.0000e+00 1.0000e+00
<mgrwt>
<rscale>  2 0.28020406E+03</rscale>
<asrwt>0</asrwt>
<pdfrwt beam="1">  1       21 0.23845627E+00 0.28020406E+03</pdfrwt>
<pdfrwt beam="2">  1       21 0.91265835E-02 0.28020406E+03</pdfrwt>
<totfact> 0.69072746E+03</totfact>
</mgrwt>
</event>
<event>
 4      2 +5.6305390e+02 2.60729800e+02 7.54677100e-03 1.10670600e-01
       21 -1    0    0  501  502 +0.0000000000e+00 +0.0000000000e+00 +1.3028470866e+03 1.3028470866e+03 0.0000000000e+00 0.0000e+00 1.0000e+00
       21 -1    0    0  502  503 -0.0000000000e+00 -0.0000000000e+00 -6.5983906868e+01 6.5983906868e+01 0.0000000000e+00 0.0000e+00 1.0000e+00
        6  1    1    2  501    0 +7.9619156661e+01 +1.7807816640e+02 +9.3149493867e+02 9.6729667850e+02 1.7300000000e+02 0.0000e+00 1.0000e+00
       -6  1    1    2    0  503 -7.9619156661e+01 -1.7807816640e+02 +3.0536824108e+02 4.0153431499e+02 1.7300000000e+02 0.0000e+00 1.0000e+00
<mgrwt>
<rscale>  2 0.26072983E+03</rscale>
<asrwt>0</asrwt>
<pdfrwt beam="1">  1       21 0.20043799E+00 0.26072983E+03</pdfrwt>
<pdfrwt beam="2">  1       21 0.10151371E-01 0.26072983E+03</pdfrwt>
<totfact> 0.10023694E+04</totfact>
</mgrwt>
</event>
<event>
 4      2 +5.6305390e+02 1.96179200e+02 7.54677100e-03 1.15300300e-01
       21 -1    0    0  501  502 +0.0000000000e+00 +0.0000000000e+00 +5.7640111789e+02 5.7640111789e+02 0.0000000000e+00 0.0000e+00 -1.0000e+00
       21 -1    0    0  502  503 -0.0000000000e+00 -0.0000000000e+00 -6.8166082319e+01 6.8166082319e+01 0.0000000000e+00 0.0000e+00 1.0000e+00
        6  1    1    2  501    0 -7.5804108042e+01 +5.3019082730e+01 +2.0799488794e+02 2.8591635025e+02 1.7300000000e+02 0.0000e+00 -1.0000e+00
       -6  1    1    2    0  503 +7.5804108042e+01 -5.3019082730e+01 +3.0024014764e+02 3.5865084997e+02 1.7300000000e+02 0.0000e+00 1.0000e+00
<mgrwt>
<rscale>  2 0.19617922E+03</rscale>
<asrwt>0</asrwt>
<pdfrwt beam="1">  1       21 0.88677092E-01 0.19617922E+03</pdfrwt>
<pdfrwt beam="2">  1       21 0.10487090E-01 0.19617922E+03</pdfrwt>
<totfact> 0.80971349E+04</totfact>
</mgrwt>
</event>
<event>
 4      2 +5.6305390e+02 2.24498200e+02 7.54677100e-03 1.13057300e-01
       21 -1    0    0  501  502 +0.0000000000e+00 +0.0000000000e+00 +7.1023661026e+02 7.1023661026e+02 0.0000000000e+00 0.0000e+00 1.0000e+00
       21 -1    0    0  502  503 -0.0000000000e+00 -0.0000000000e+00 -2.2932603730e+02 2.2932603730e+02 0.0000000000e+00 0.0000e+00 -1.0000e+00
        6  1    1    2  501    0 +1.3755736578e+02 +3.9349858012e+01 +6.3084472613e+02 6.6960026038e+02 1.7300000000e+02 0.0000e+00 1.0000e+00
       -6  1    1    2    0  503 -1.3755736578e+02 -3.9349858012e+01 -1.4993415317e+02 2.6996238719e+02 1.7300000000e+02 0.0000e+00 -1.0000e+00
<mgrwt>
<rscale>  2 0.22449820E+03</rscale>
<asrwt>0</asrwt>
<pdfrwt beam="1">  1       21 0.10926717E+00 0.22449820E+03</pdfrwt>
<pdfrwt beam="2">  1       21 0.35280929E-01 0.22449820E+03</pdfrwt>
<totfact> 0.50176831E+03</totfact>
</mgrwt>
</event>
<event>
 4      2 +5.6305390e+02 2.20928900e+02 7.54677100e-03 1.13319200e-01
       21 -1    0    0  503  502 +0.0000000000e+00 +0.0000000000e+00 +1.7726039099e+02 1.7726039099e+02 0.0000000000e+00 0.0000e+00 1.0000e+00
       21 -1    0    0  501  503 -0.0000000000e+00 -0.0000000000e+00 -3.7712547654e+02 3.7712547654e+02 0.0000000000e+00 0.0000e+00 -1.0000e+00
        6  1    1    2  501    0 -9.5243752058e+01 +9.9041532721e+01 +4.4063106416e+01 2.2528016969e+02 1.7300000000e+02 0.0000e+00 1.0000e+00
       -6  1    1    2    0  502 +9.5243752058e+01 -9.9041532721e+01 -2.4392819197e+02 3.2910569783e+02 1.7300000000e+02 0.0000e+00 -1.0000e+00
<mgrwt>
<rscale>  2 0.22092894E+03</rscale>
<asrwt>0</asrwt>
<pdfrwt beam="1">  1       21 0.27270830E-01 0.22092894E+03</pdfrwt>
<pdfrwt beam="2">  1       21 0.58019303E-01 0.22092894E+03</pdfrwt>
<totfact> 0.35179024E+04</totfact>
</mgrwt>
</event>
<event>
 4      2 +5.6305390e+02 1.81976700e+02 7.54677100e-03 1.16590400e-01
       21 -1    0    0  503  502 +0.0000000000e+00 +0.0000000000e+00 +2.0137298441e+02 2.0137298441e+02 0.0000000000e+00 0.0000e+00 1.0000e+00
       21 -1    0    0  501  503 -0.0000000000e+00 -0.0000000000e+00 -2.3892809113e+02 2.3892809113e+02 0.0000000000e+00 0.0000e+00 1.0000e+00
        6  1    1    2  501    0 -3.3338941280e+01 -4.5552734308e+01 -1.4169231463e+02 2.3063444806e+02 1.7300000000e+02 0.0000e+00 1.0000e+00
       -6  1    1    2    0  502 +3.3338941280e+01 +4.5552734308e+01 +1.0413720791e+02 2.0966662748e+02 1.7300000000e+02 0.0000e+00 1.0000e+00
<mgrwt>
<rscale>  2 0.18197675E+03</rscale>
<asrwt>0</asrwt>
<pdfrwt beam="1">  1       21 0.30980459E-01 0.18197675E+03</pdfrwt>
<pdfrwt beam="2">  1       21 0.36758168E-01 0.18197675E+03</pdfrwt>
<totfact> 0.71752565E+04</totfact>
</mgrwt>
</event>
<event>
 4      2 +5.6305390e+02 2.11493300e+02 7.54677100e-03 1.14038900e-01
       21 -1    0    0  503  502 +0.0000000000e+00 +0.0000000000e+00 +1.6892254185e+02 1.6892254185e+02 0.0000000000e+00 0.0000e+00 1.0000e+00
       21 -1    0    0  501  503 -0.0000000000e+00 -0.0000000000e+00 -2.8004172487e+02 2.8004172487e+02 0.0000000000e+00 0.0000e+00 1.0000e+00
        6  1    1    2  501    0 +4.8154863082e+01 -1.1172075328e+02 -1.0794311198e+02 2.3744711616e+02 1.7300000000e+02 0.0000e+00 1.0000e+00
       -6  1    1    2    0  502 -4.8154863082e+01 +1.1172075328e+02 -3.1760710331e+00 2.1151715055e+02 1.7300000000e+02 0.0000e+00 1.0000e+00
<mgrwt>
<rscale>  2 0.21149330E+03</rscale>
<asrwt>0</asrwt>
<pdfrwt beam="1">  1       21 0.25988083E-01 0.21149330E+03</pdfrwt>
<pdfrwt beam="2">  1       21 0.43083342E-01 0.21149330E+03</pdfrwt>
<totfact> 0.72258946E+04</totfact>
</mgrwt>
</event>
<event>
 4      2 +5.6305390e+02 3.03432600e+02 7.54677100e-03 1.08353700e-01
       21 -1    0    0  501  502 +0.0000000000e+00 +0.0000000000e+00 +4.6046076004e+02 4.6046076004e+02 0.0000000000e+00 0.0000e+00 1.0000e+00
       21 -1    0    0  502  503 -0.0000000000e+00 -0.0000000000e+00 -2.0173057488e+02 2.0173057488e+02 0.0000000000e+00 0.0000e+00 -1.0000e+00
        6  1    1    2  501    0 +1.3884087818e+02 -2.0703995041e+02 +9.8300626787e+01 3.1895821630e+02 1.7300000000e+02 0.0000e+00 -1.0000e+00
       -6  1    1    2    0  503 -1.3884087818e+02 +2.0703995041e+02 +1.6042955838e+02 3.4323311862e+02 1.7300000000e+02 0.0000e+00 1.0000e+00
<mgrwt>
<rscale>  2 0.30343258E+03</rscale>
<asrwt>0</asrwt>
<pdfrwt beam="1">  1       21 0.70840117E-01 0.30343258E+03</pdfrwt>
<pdfrwt beam="2">  1       21 0.31035473E-01 0.30343258E+03</pdfrwt>
<totfact> 0.17012137E+04</totfact>
</mgrwt>
</event>
<event>
 4      2 +5.6305390e+02 1.90729500e+02 7.54677100e-03 1.15780500e-01
       21 -1    0    0  503  502 +0.0000000000e+00 +0.0000000000e+00 +3.2604509478e+02 3.2604509478e+02 0.0000000000e+00 0.0000e+00 1.0000e+00
       21 -1    0    0  501  503 -0.0000000000e+00 -0.0000000000e+00 -1.1702441764e+02 1.1702441764e+02 0.0000000000e+00 0.0000e+00 -1.0000e+00
        6  1    1    2  501    0 +2.7720122157e+01 -7.5367954732e+01 +5.6694692043e+01 1.9897744063e+02 1.7300000000e+02 0.0000e+00 -1.0000e+00
       -6  1    1    2    0  502 -2.7720122157e+01 +7.5367954732e+01 +1.5232598510e+02 2.4409207179e+02 1.7300000000e+02 0.0000e+00 1.0000e+00
<mgrwt>
<rscale>  2 0.19072948E+03</rscale>
<asrwt>0</asrwt>
<pdfrwt beam="1">  1       21 0.50160784E-01 0.19072948E+03</pdfrwt>
<pdfrwt beam="2">  1       21 0.18003757E-01 0.19072948E+03</pdfrwt>
<totfact> 0.10630475E+05</totfact>
</mgrwt>
</event>
<event>
 4      2 +5.6305390e+02 1.89285300e+02 7.54677100e-03 1.15910800e-01
       21 -1    0    0  503  502 +0.0000000000e+00 +0.0000000000e+00 +6.9379498062e+02 6.9379498062e+02 0.0000000000e+00 0.0000e+00 1.0000e+00
       21 -1    0    0  501  503 -0.0000000000e+00 -0.0000000000e+00 -1.0550982480e+02 1.0550982480e+02 0.0000000000e+00 0.0000e+00 1.0000e+00
        6  1    1    2  501    0 -6.4785088767e+01 -4.1265121400e+01 +8.5802305295e+00 1.8947965148e+02 1.7300000000e+02 0.0000e+00 1.0000e+00
       -6  1    1    2    0  502 +6.4785088767e+01 +4.1265121400e+01 +5.7970492529e+02 6.0982515394e+02 1.7300000000e+02 0.0000e+00 1.0000e+00
<mgrwt>
<rscale>  2 0.18928528E+03</rscale>
<asrwt>0</asrwt>
<pdfrwt beam="1">  1       21 0.10673769E+00 0.18928528E+03</pdfrwt>
<pdfrwt beam="2">  1       21 0.16232281E-01 0.18928528E+03</pdfrwt>
<totfact> 0.23899496E+04</totfact>
</mgrwt>
</event>
<event>
 4      2 +5.6305390e+02 1.99167900e+02 7.54677100e-03 1.15044300e-01
       21 -1    0    0  501  502 +0.0000000000e+00 +0.0000000000e+00 +4.2995342157e+01 4.2995342157e+01 0.0000000000e+00 0.0000e+00 1.0000e+00
       21 -1    0    0  502  503 -0.0000000000e+00 -0.0000000000e+00 -1.3691187458e+03 1.3691187458e+03 0.0000000000e+00 0.0000e+00 1.0000e+00
        6  1    1    2  501    0 +3.8047824716e+01 +9.1056120113e+01 -2.5984816284e+02 3.2739719257e+02 1.7300000000e+02 0.0000e+00 1.0000e+00
       -6  1    1    2    0  503 -3.8047824716e+01 -9.1056120113e+01 -1.0662752408e+03 1.0847168954e+03 1.7300000000e+02 0.0000e+00 1.0000e+00
<mgrwt>
<rscale>  2 0.19916790E+03</rscale>
<asrwt>0</asrwt>
<pdfrwt beam="1">  1       21 0.66146690E-02 0.19916790E+03</pdfrwt>
<pdfrwt beam="2">  1       21 0.21063362E+00 0.19916790E+03</pdfrwt>
<totfact> 0.19079187E+04</totfact>
</mgrwt>
</event>
<event>
 4      2 +5.6305390e+02 1.77508100e+02 7.54677100e-03 1.17023700e-01
       21 -1    0    0  501  502 +0.0000000000e+00 +0.0000000000e+00 +4.4501860033e+02 4.4501860033e+02 0.0000000000e+00 0.0000e+00 -1.0000e+00
       21 -1    0    0  502  503 -0.0000000000e+00 -0.0000000000e+00 -1.1783907185e+02 1.1783907185e+02 0.0000000000e+00 0.0000e+00 -1.0000e+00
        6  1    1    2  501    0 +1.0784496867e+01 +3.8259708772e+01 +3.4139096993e+02 3.8478163292e+02 1.7300000000e+02 0.0000e+00 -1.0000e+00
       -6  1    1    2    0  503 -1.0784496867e+01 -3.8259708772e+01 -1.4211441444e+01 1.7807603925e+02 1.7300000000e+02 0.0000e+00 -1.0000e+00
<mgrwt>
<rscale>  2 0.17750806E+03</rscale>
<asrwt>0</asrwt>
<pdfrwt beam="1">  1       21 0.68464399E-01 0.17750806E+03</pdfrwt>
<pdfrwt beam="2">  1       21 0.18129088E-01 0.17750806E+03</pdfrwt>
<totfact> 0.54291239E+04</totfact>
</mgrwt>
</event>
<event>
 4      2 +5.6305390e+02 2.63812700e+02 7.54677100e-03 1.10487400e-01
       21 -1    0    0  503  502 +0.0000000000e+00 +0.0000000000e+00 +1.3489951331e+02 1.3489951331e+02 0.0000000000e+00 0.0000e+00 1.0000e+00
       21 -1    0    0  501  503 -0.0000000000e+00 -0.0000000000e+00 -1.4822660024e+03 1.4822660024e+03 0.0000000000e+00 0.0000e+00 -1.0000e+00
        6  1    1    2  501    0 -1.9863619003e+02 +1.4553484297e+01 -1.3265553165e+03 1.3525332335e+03 1.7300000000e+02 0.0000e+00 -1.0000e+00
       -6  1    1    2    0  502 +1.9863619003e+02 -1.4553484297e+01 -2.0811172575e+01 2.6463228223e+02 1.7300000000e+02 0.0000e+00 1.0000e+00
<mgrwt>
<rscale>  2 0.26381270E+03</rscale>
<asrwt>0</asrwt>
<pdfrwt beam="1">  1       21 0.20753770E-01 0.26381270E+03</pdfrwt>
<pdfrwt beam="2">  1       21 0.22804094E+00 0.26381270E+03</pdfrwt>
<totfact> 0.18084569E+03</totfact>
</mgrwt>
</event>
<event>
 4      2 +5.6305390e+02 1.91571400e+02 7.54677100e-03 1.15705200e-01
       -1 -1    0    0    0  501 -0.0000000000e+00 +0.0000000000e+00 +8.4994119987e+02 8.4994119987e+02 0.0000000000e+00 0.0000e+00 -1.0000e+00
        1 -1    0    0  502    0 +0.0000000000e+00 -0.0000000000e+00 -4.4254521883e+01 4.4254521883e+01 0.0000000000e+00 0.0000e+00 1.0000e+00
        6  1    1    2  502    0 +4.1969508014e+01 -7.0775538340e+01 +3.3314344501e+02 3.8429698331e+02 1.7300000000e+02 0.0000e+00 1.0000e+00
       -6  1    1    2    0  501 -4.1969508014e+01 +7.0775538340e+01 +4.7254323298e+02 5.0989873844e+02 1.7300000000e+02 0.0000e+00 -1.0000e+00
<mgrwt>
<rscale>  2 0.19157144E+03</rscale>
<asrwt>0</asrwt>
<pdfrwt beam="1">  1        1 0.68083886E-02 0.19157144E+03</pdfrwt>
<pdfrwt beam="2">  1       -1 0.13076017E+00 0.19157144E+03</pdfrwt>
<totfact> 0.58083435E+02</totfact>
</mgrwt>
</event>
<event>
 4      2 +5.6305390e+02 2.16721700e+02 7.54677100e-03 1.13635100e-01
       21 -1    0    0  501  502 +0.0000000000e+00 +0.0000000000e+00 +5.2207291122e+02 5.2207291122e+02 0.0000000000e+00 0.0000e+00 -1.0000e+00
       21 -1    0    0  502  503 -0.0000000000e+00 -0.0000000000e+00 -9.2803771696e+01 9.2803771696e+01 0.0000000000e+00 0.0000e+00 -1.0000e+00
        6  1    1    2  501    0 -8.5313013875e+01 +9.8797695429e+01 +2.6840452097e+02 3.4497721930e+02 1.7300000000e+02 0.0000e+00 -1.0000e+00
       -6  1    1    2    0  503 +8.5313013875e+01 -9.8797695429e+01 +1.6086461856e+02 2.6989946362e+02 1.7300000000e+02 0.0000e+00 -1.0000e+00
<mgrwt>
<rscale>  2 0.21672170E+03</rscale>
<asrwt>0</asrwt>
<pdfrwt beam="1">  1       21 0.80318908E-01 0.21672170E+03</pdfrwt>
<pdfrwt beam="2">  1       21 0.14277504E-01 0.21672170E+03</pdfrwt>
<totfact> 0.57827484E+04</totfact>
</mgrwt>
</event>
<event>
 4      2 +5.6305390e+02 1.81119300e+02 7.54677100e-03 1.16672400e-01
       21 -1    0    0  501  502 +0.0000000000e+00 +0.0000000000e+00 +3.9457299502e+01 3.9457299502e+01 0.0000000000e+00 0.0000e+00 1.0000e+00
       21 -1    0    0  502  503 -0.0000000000e+00 -0.0000000000e+00 -9.0629808981e+02 9.0629808981e+02 0.0000000000e+00 0.0000e+00 1.0000e+00
        6  1    1    2  501    0 -3.6911174511e+01 +3.8894176136e+01 -2.9746599477e+02 3.4826744003e+02 1.7300000000e+02 0.0000e+00 1.0000e+00
       -6  1    1    2    0  503 +3.6911174511e+01 -3.8894176136e+01 -5.6937479555e+02 5.9748794929e+02 1.7300000000e+02 0.0000e+00 1.0000e+00
<mgrwt>
<rscale>  2 0.18111927E+03</rscale>
<asrwt>0</asrwt>
<pdfrwt beam="1">  1       21 0.60703544E-02 0.18111927E+03</pdfrwt>
<pdfrwt beam="2">  1       21 0.13943046E+00 0.18111927E+03</pdfrwt>
<totfact> 0.70300317E+04</totfact>
</mgrwt>
</event>
<event>
 4      2 +5.6305390e+02 2.74890700e+02 7.54677100e-03 1.09851300e-01
       21 -1    0    0  501  502 +0.0000000000e+00 +0.0000000000e+00 +9.2348993712e+02 9.2348993712e+02 0.0000000000e+00 0.0000e+00 -1.0000e+00
       21 -1    0    0  502  503 -0.0000000000e+00 -0.0000000000e+00 -1.1504192797e+02 1.1504192797e+02 0.0000000000e+00 0.0000e+00 -1.0000e+00
        6  1    1    2  501    0 -1.0792206134e+02 -1.8436038041e+02 +6.8324633375e+02 7.3647163813e+02 1.7300000000e+02 0.0000e+00 -1.0000e+00
       -6  1    1    2    0  503 +1.0792206134e+02 +1.8436038041e+02 +1.2520167540e+02 3.0206022696e+02 1.7300000000e+02 0.0000e+00 -1.0000e+00
<mgrwt>
<rscale>  2 0.27489074E+03</rscale>
<asrwt>0</asrwt>
<pdfrwt beam="1">  1       21 0.14207537E+00 0.27489074E+03</pdfrwt>
<pdfrwt beam="2">  1       21 0.17698759E-01 0.27489074E+03</pdfrwt>
<totfact> 0.94609464E+03</totfact>
</mgrwt>
</event>
<event>
 4      2 +5.6305390e+02 2.06814700e+02 7.54677100e-03 1.14411300e-01
       21 -1    0    0  501  502 +0.0000000000e+00 +0.0000000000e+00 +3.2827619040e+01 3.2827619040e+01 0.0000000000e+00 0.0000e+00 1.0000e+00
       21 -1    0    0  502  503 -0.0000000000e+00 -0.0000000000e+00 -1.3306444048e+03 1.3306444048e+03 0.0000000000e+00 0.0000e+00 1.0000e+00
        6  1    1    2  501    0 +9.6317608360e-01 +1.1332433073e+02 -7.4728237416e+02 7.7537299307e+02 1.7300000000e+02 0.0000e+00 1.0000e+00
       -6  1    1    2    0  503 -9.6317608360e-01 -1.1332433073e+02 -5.5053441158e+02 5.8809903076e+02 1.7300000000e+02 0.0000e+00 1.0000e+00
<mgrwt>
<rscale>  2 0.20681473E+03</rscale>
<asrwt>0</asrwt>
<pdfrwt beam="1">  1       21 0.50504035E-02 0.20681473E+03</pdfrwt>
<pdfrwt beam="2">  1       21 0.20471450E+00 0.20681473E+03</pdfrwt>
<totfact> 0.32802795E+04</totfact>
</mgrwt>
</event>
<event>
 4      2 +5.6305390e+02 2.13166400e+02 7.54677100e-03 1.13908300e-01
       21 -1    0    0  503  502 +0.0000000000e+00 +0.0000000000e+00 +6.4373960429e+01 6.4373960429e+01 0.0000000000e+00 0.0000e+00 -1.0000e+00
       21 -1    0    0  501  503 -0.0000000000e+00 -0.0000000000e+00 -1.5901603198e+03 1.5901603198e+03 0.0000000000e+00 0.0000e+00 -1.0000e+00
        6  1    1    2  501    0 +8.9267532529e+01 -8.6846024913e+01 -1.4598334043e+02 2.5836226522e+02 1.7300000000e+02 0.0000e+00 -1.0000e+00
       -6  1    1    2    0  502 -8.9267532529e+01 +8.6846024913e+01 -1.3798030190e+03 1.3961720150e+03 1.7300000000e+02 0.0000e+00 -1.0000e+00
<mgrwt>
<rscale>  2 0.21316642E+03</rscale>
<asrwt>0</asrwt>
<pdfrwt beam="1">  1       21 0.99036859E-02 0.21316642E+03</pdfrwt>
<pdfrwt beam="2">  1       21 0.24464006E+00 0.21316642E+03</pdfrwt>
<totfact> 0.57863538E+03</totfact>
</mgrwt>
</event>
<event>
 4      2 +5.6305390e+02 1.76999100e+02 7.54677100e-03 1.17073900e-01
       21 -1    0    0  501  502 +0.0000000000e+00 +0.0000000000e+00 +2.7431850121e+02 2.7431850121e+02 0.0000000000e+00 0.0000e+00 -1.0000e+00
       21 -1    0    0  502  503 -0.0000000000e+00 -0.0000000000e+00 -1.2940717691e+02 1.2940717691e+02 0.0000000000e+00 0.0000e+00 1.0000e+00
        6  1    1    2  501    0 +3.6408878516e+01 +8.6059543670e+00 +3.2688044930e+00 1.7702924608e+02 1.7300000000e+02 0.0000e+00 1.0000e+00
       -6  1    1    2    0  503 -3.6408878516e+01 -8.6059543670e+00 +1.4164251980e+02 2.2669643205e+02 1.7300000000e+02 0.0000e+00 -1.0000e+00
<mgrwt>
<rscale>  2 0.17699906E+03</rscale>
<asrwt>0</asrwt>
<pdfrwt beam="1">  1       21 0.42202846E-01 0.17699906E+03</pdfrwt>
<pdfrwt beam="2">  1       21 0.19908797E-01 0.17699906E+03</pdfrwt>
<totfact> 0.12647270E+05</totfact>
</mgrwt>
</event>
<event>
 4      2 +5.6305390e+02 2.04496500e+02 7.54677100e-03 1.14600000e-01
       21 -1    0    0  501  502 +0.0000000000e+00 +0.0000000000e+00 +1.8432718516e+02 1.8432718516e+02 0.0000000000e+00 0.0000e+00 -1.0000e+00
       21 -1    0    0  502  503 -0.0000000000e+00 -0.0000000000e+00 -2.3600414358e+02 2.3600414358e+02 0.0000000000e+00 0.0000e+00 1.0000e+00
        6  1    1    2  501    0 +1.0899774318e+02 -3.0542779715e+00 -6.7178219342e+01 2.1524811216e+02 1.7300000000e+02 0.0000e+00 1.0000e+00
       -6  1    1    2    0  503 -1.0899774318e+02 +3.0542779715e+00 +1.5501260922e+01 2.0508321658e+02 1.7300000000e+02 0.0000e+00 -1.0000e+00
<mgrwt>
<rscale>  2 0.20449654E+03</rscale>
<asrwt>0</asrwt>
<pdfrwt beam="1">  1       21 0.28358029E-01 0.20449654E+03</pdfrwt>
<pdfrwt beam="2">  1       21 0.36308329E-01 0.20449654E+03</pdfrwt>
<totfact> 0.86530336E+04</totfact>
</mgrwt>
</event>
<event>
 4      2 +5.6305390e+02 2.13164900e+02 7.54677100e-03 1.13908400e-01
       21 -1    0    0  501  502 +0.0000000000e+00 +0.0000000000e+00 +2.0720269645e+02 2.0720269645e+02 0.0000000000e+00 0.0000e+00 -1.0000e+00
       21 -1    0    0  502  503 -0.0000000000e+00 -0.0000000000e+00 -2.4204880974e+02 2.4204880974e+02 0.0000000000e+00 0.0000e+00 1.0000e+00
        6  1    1    2  501    0 +9.8067822467e+01 +7.6765767034e+01 -8.6288266075e+01 2.2996727083e+02 1.7300000000e+02 0.0000e+00 1.0000e+00
       -6  1    1    2    0  503 -9.8067822467e+01 -7.6765767034e+01 +5.1442152782e+01 2.1928423535e+02 1.7300000000e+02 0.0000e+00 1.0000e+00
<mgrwt>
<rscale>  2 0.21316491E+03</rscale>
<asrwt>0</asrwt>
<pdfrwt beam="1">  1       21 0.31877338E-01 0.21316491E+03</pdfrwt>
<pdfrwt beam="2">  1       21 0.37238279E-01 0.21316491E+03</pdfrwt>
<totfact> 0.65216104E+04</totfact>
</mgrwt>
</event>
<event>
 4      2 +5.6305390e+02 2.40411000e+02 7.54677100e-03 1.11951900e-01
       21 -1    0    0  501  502 +0.0000000000e+00 +0.0000000000e+00 +8.4730123800e+01 8.4730123800e+01 0.0000000000e+00 0.0000e+00 1.0000e+00
       21 -1    0    0  502  503 -0.0000000000e+00 -0.0000000000e+00 -9.3434298912e+02 9.3434298912e+02 0.0000000000e+00 0.0000e+00 -1.0000e+00
        6  1    1    2  501    0 +1.3187693122e+02 -1.0235678262e+02 -1.6007771013e+02 2.8882920423e+02 1.7300000000e+02 0.0000e+00 1.0000e+00
       -6  1    1    2    0  503 -1.3187693122e+02 +1.0235678262e+02 -6.8953515519e+02 7.3024390869e+02 1.7300000000e+02 0.0000e+00 -1.0000e+00
<mgrwt>
<rscale>  2 0.24041097E+03</rscale>
<asrwt>0</asrwt>
<pdfrwt beam="1">  1       21 0.13035404E-01 0.24041097E+03</pdfrwt>
<pdfrwt beam="2">  1       21 0.14374507E+00 0.24041097E+03</pdfrwt>
<totfact> 0.16394841E+04</totfact>
</mgrwt>
</event>
<event>
 4      2 +5.6305390e+02 2.80878600e+02 7.54677100e-03 1.09521000e-01
       21 -1    0    0  503  502 +0.0000000000e+00 +0.0000000000e+00 +2.2298432624e+03 2.2298432624e+03 0.0000000000e+00 0.0000e+00 -1.0000e+00
       21 -1    0    0  501  503 -0.0000000000e+00 -0.0000000000e+00 -5.8773240711e+01 5.8773240711e+01 0.0000000000e+00 0.0000e+00 -1.0000e+00
        6  1    1    2  501    0 -1.9830860140e+02 +9.8170745514e+01 +3.6360601752e+02 4.5945852113e+02 1.7300000000e+02 0.0000e+00 -1.0000e+00
       -6  1    1    2    0  502 +1.9830860140e+02 -9.8170745514e+01 +1.8074640042e+03 1.8291579820e+03 1.7300000000e+02 0.0000e+00 -1.0000e+00
<mgrwt>
<rscale>  2 0.28087862E+03</rscale>
<asrwt>0</asrwt>
<pdfrwt beam="1">  1       21 0.34305274E+00 0.28087862E+03</pdfrwt>
<pdfrwt beam="2">  1       21 0.90420388E-02 0.28087862E+03</pdfrwt>
<totfact> 0.16836279E+03</totfact>
</mgrwt>
</event>
<event>
 4      2 +5.6305390e+02 1.73600000e+02 7.54677100e-03 1.17414500e-01
       21 -1    0    0  501  502 +0.0000000000e+00 +0.0000000000e+00 +3.3419624676e+02 3.3419624676e+02 0.0000000000e+00 0.0000e+00 -1.0000e+00
       21 -1    0    0  502  503 -0.0000000000e+00 -0.0000000000e+00 -1.1636660668e+02 1.1636660668e+02 0.0000000000e+00 0.0000e+00 -1.0000e+00
        6  1    1    2  501    0 +7.3412294663e+00 -1.2411946172e+01 +2.1578888760e+02 2.7695088747e+02 1.7300000000e+02 0.0000e+00 -1.0000e+00
       -6  1    1    2    0  503 -7.3412294663e+00 +1.2411946172e+01 +2.0407524836e+00 1.7361196597e+02 1.7300000000e+02 0.0000e+00 -1.0000e+00
<mgrwt>
<rscale>  2 0.17359997E+03</rscale>
<asrwt>0</asrwt>
<pdfrwt beam="1">  1       21 0.51414807E-01 0.17359997E+03</pdfrwt>
<pdfrwt beam="2">  1       21 0.17902555E-01 0.17359997E+03</pdfrwt>
<totfact> 0.10268148E+05</totfact>
</mgrwt>
</event>
<event>
 4      2 +5.6305390e+02 2.19668800e+02 7.54677100e-03 1.13413000e-01
       21 -1    0    0  501  502 +0.0000000000e+00 +0.0000000000e+00 +1.2866338342e+03 1.2866338342e+03 0.0000000000e+00 0.0000e+00 1.0000e+00
       21 -1    0    0  502  503 -0.0000000000e+00 -0.0000000000e+00 -6.7796275715e+01 6.7796275715e+01 0.0000000000e+00 0.0000e+00 -1.0000e+00
        6  1    1    2  501    0 +1.0145096436e+02 -8.9627382010e+01 +1.0620944215e+03 1.0845731538e+03 1.7300000000e+02 0.0000e+00 1.0000e+00
       -6  1    1    2    0  503 -1.0145096436e+02 +8.9627382010e+01 +1.5674313702e+02 2.6985695614e+02 1.7300000000e+02 0.0000e+00 -1.0000e+00
<mgrwt>
<rscale>  2 0.21966876E+03</rscale>
<asrwt>0</asrwt>
<pdfrwt beam="1">  1       21 0.19794365E+00 0.21966876E+03</pdfrwt>
<pdfrwt beam="2">  1       21 0.10430197E-01 0.21966876E+03</pdfrwt>
<totfact> 0.10201858E+04</totfact>
</mgrwt>
</event>
<event>
 4      2 +5.6305390e+02 1.78133700e+02 7.54677100e-03 1.16962200e-01
       21 -1    0    0  501  502 +0.0000000000e+00 +0.0000000000e+00 +8.2054167871e+01 8.2054167871e+01 0.0000000000e+00 0.0000e+00 1.0000e+00
       21 -1    0    0  502  503 -0.0000000000e+00 -0.0000000000e+00 -5.2007317753e+02 5.2007317753e+02 0.0000000000e+00 0.0000e+00 1.0000e+00
        6  1    1    2  501    0 +4.2435139906e+01 -1.3637218487e+00 -6.6556674786e+01 1.9016148873e+02 1.7300000000e+02 0.0000e+00 1.0000e+00
       -6  1    1    2    0  503 -4.2435139906e+01 +1.3637218487e+00 -3.7146233488e+02 4.1196585668e+02 1.7300000000e+02 0.0000e+00 1.0000e+00
<mgrwt>
<rscale>  2 0.17813366E+03</rscale>
<asrwt>0</asrwt>
<pdfrwt beam="1">  1       21 0.12623718E-01 0.17813366E+03</pdfrwt>
<pdfrwt beam="2">  1       21 0.80011258E-01 0.17813366E+03</pdfrwt>
<totfact> 0.74144146E+04</totfact>
</mgrwt>
</event>
<event>
 4      2 +5.6305390e+02 1.97570300e+02 7.54677100e-03 1.15180500e-01
       21 -1    0    0  501  502 +0.0000000000e+00 +0.0000000000e+00 +4.2587953944e+01 4.2587953944e+01 0.0000000000e+00 0.0000e+00 1.0000e+00
       21 -1    0    0  502  503 -0.0000000000e+00 -0.0000000000e+00 -9.4915503036e+02 9.4915503036e+02 0.0000000000e+00 0.0000e+00 -1.0000e+00
        6  1    1    2  501    0 -9.5405410086e+01 -1.6790028588e+00 -3.6137848157e+02 4.1185970702e+02 1.7300000000e+02 0.0000e+00 1.0000e+00
       -6  1    1    2    0  503 +9.5405410086e+01 +1.6790028588e+00 -5.4518859485e+02 5.7988327729e+02 1.7300000000e+02 0.0000e+00 1.0000e+00
<mgrwt>
<rscale>  2 0.19757027E+03</rscale>
<asrwt>0</asrwt>
<pdfrwt beam="1">  1       21 0.65519930E-02 0.19757027E+03</pdfrwt>
<pdfrwt beam="2">  1       21 0.14602385E+00 0.19757027E+03</pdfrwt>
<totfact> 0.54225675E+04</totfact>
</mgrwt>
</event>
<event>
 4      3 +5.6305390e+02 9.72635900e+01 7.54677100e-03 1.28615800e-01
        1 -1    0    0  501    0 +0.0000000000e+00 +0.0000000000e+00 +2.7388394799e+03 2.7388394799e+03 0.0000000000e+00 0.0000e+00 -1.0000e+00
       -1 -1    0    0    0  501 -0.0000000000e+00 -0.0000000000e+00 -3.6242639705e+00 3.6242639705e+00 0.0000000000e+00 0.0000e+00 1.0000e+00
       24  1    1    2    0    0 -5.2515009048e+01 -1.5335035526e+01 +1.0704792427e+03 1.0748888382e+03 8.0419002446e+01 0.0000e+00 1.0000e+00
      -24  1    1    2    0    0 +5.2515009048e+01 +1.5335035526e+01 +1.6647359732e+03 1.6675749057e+03 8.0419002446e+01 0.0000e+00 -1.0000e+00
<mgrwt>
<rscale>  0 0.97263587E+02</rscale>
<asrwt>0</asrwt>
<pdfrwt beam="1">  1        1 0.42135827E+00 0.97263587E+02</pdfrwt>
<pdfrwt beam="2">  1       -1 0.55758126E-03 0.97263587E+02</pdfrwt>
<totfact> 0.47342436E+03</totfact>
</mgrwt>
</event>
<event>
 4      2 +5.6305390e+02 2.08253800e+02 7.54677100e-03 1.14295600e-01
       21 -1    0    0  501  502 +0.0000000000e+00 +0.0000000000e+00 +4.3694102110e+02 4.3694102110e+02 0.0000000000e+00 0.0000e+00 -1.0000e+00
       21 -1    0    0  502  503 -0.0000000000e+00 -0.0000000000e+00 -2.6125931640e+02 2.6125931640e+02 0.0000000000e+00 0.0000e+00 1.0000e+00
        6  1    1    2  501    0 -5.3006251675e+01 -1.0310657209e+02 +3.6274054049e+02 4.1827063923e+02 1.7300000000e+02 0.0000e+00 -1.0000e+00
       -6  1    1    2    0  503 +5.3006251675e+01 +1.0310657209e+02 -1.8705883579e+02 2.7992969827e+02 1.7300000000e+02 0.0000e+00 1.0000e+00
<mgrwt>
<rscale>  2 0.20825376E+03</rscale>
<asrwt>0</asrwt>
<pdfrwt beam="1">  1       21 0.67221695E-01 0.20825376E+03</pdfrwt>
<pdfrwt beam="2">  1       21 0.40193741E-01 0.20825376E+03</pdfrwt>
<totfact> 0.11956939E+04</totfact>
</mgrwt>
</event>
<event>
 4      2 +5.6305390e+02 2.14626600e+02 7.54677100e-03 1.13795400e-01
       21 -1    0    0  503  502 +0.0000000000e+00 +0.0000000000e+00 +8.1163576432e+02 8.1163576432e+02 0.0000000000e+00 0.0000e+00 -1.0000e+00
       21 -1    0    0  501  503 -0.0000000000e+00 -0.0000000000e+00 -1.0573633493e+02 1.0573633493e+02 0.0000000000e+00 0.0000e+00 -1.0000e+00
        6  1    1    2  501    0 -1.0568667091e+02 +7.0469044520e+01 +4.0760582234e+01 2.1846277419e+02 1.7300000000e+02 0.0000e+00 -1.0000e+00
       -6  1    1    2    0  502 +1.0568667091e+02 -7.0469044520e+01 +6.6513884716e+02 6.9890932505e+02 1.7300000000e+02 0.0000e+00 -1.0000e+00
<mgrwt>
<rscale>  2 0.21462656E+03</rscale>
<asrwt>0</asrwt>
<pdfrwt beam="1">  1       21 0.12486704E+00 0.21462656E+03</pdfrwt>
<pdfrwt beam="2">  1       21 0.16267129E-01 0.21462656E+03</pdfrwt>
<totfact> 0.15947488E+04</totfact>
</mgrwt>
</event>
<event>
 4      2 +5.6305390e+02 1.86957300e+02 7.54677100e-03 1.16123500e-01
       21 -1    0    0  501  502 +0.0000000000e+00 +0.0000000000e+00 +2.3829657097e+02 2.3829657097e+02 0.0000000000e+00 0.0000e+00 -1.0000e+00
       21 -1    0    0  502  503 -0.0000000000e+00 -0.0000000000e+00 -1.5824185029e+02 1.5824185029e+02 0.0000000000e+00 0.0000e+00 1.0000e+00
        6  1    1    2  501    0 +1.5735610394e+01 +6.9111749295e+01 -1.3568560185e+01 1.8744905748e+02 1.7300000000e+02 0.0000e+00 1.0000e+00
       -6  1    1    2    0  503 -1.5735610394e+01 -6.9111749295e+01 +9.3623280860e+01 2.0908936378e+02 1.7300000000e+02 0.0000e+00 -1.0000e+00
<mgrwt>
<rscale>  2 0.18695733E+03</rscale>
<asrwt>0</asrwt>
<pdfrwt beam="1">  1       21 0.36661011E-01 0.18695733E+03</pdfrwt>
<pdfrwt beam="2">  1       21 0.24344900E-01 0.18695733E+03</pdfrwt>
<totfact> 0.11456356E+05</totfact>
</mgrwt>
</event>
<event>
 4      2 +5.6305390e+02 3.69161700e+02 7.54677100e-03 1.05501400e-01
       21 -1    0    0  503  502 +0.0000000000e+00 +0.0000000000e+00 +5.9707282259e+02 5.9707282259e+02 0.0000000000e+00 0.0000e+00 -1.0000e+00
       21 -1    0    0  501  503 -0.0000000000e+00 -0.0000000000e+00 -3.3371887677e+02 3.3371887677e+02 0.0000000000e+00 0.0000e+00 -1.0000e+00
        6  1    1    2  501    0 +2.5170732236e+02 -2.0735186695e+02 -1.2996020039e+02 3.9136942464e+02 1.7300000000e+02 0.0000e+00 -1.0000e+00
       -6  1    1    2    0  502 -2.5170732236e+02 +2.0735186695e+02 +3.9331414621e+02 5.3942227472e+02 1.7300000000e+02 0.0000e+00 -1.0000e+00
<mgrwt>
<rscale>  2 0.36916172E+03</rscale>
<asrwt>0</asrwt>
<pdfrwt beam="1">  1       21 0.91857357E-01 0.36916172E+03</pdfrwt>
<pdfrwt beam="2">  1       21 0.51341366E-01 0.36916172E+03</pdfrwt>
<totfact> 0.32475766E+03</totfact>
</mgrwt>
</event>
<event>
 4      2 +5.6305390e+02 2.05003700e+02 7.54677100e-03 1.14558500e-01
       21 -1    0    0  501  502 +0.0000000000e+00 +0.0000000000e+00 +4.8265172454e+01 4.8265172454e+01 0.0000000000e+00 0.0000e+00 1.0000e+00
       21 -1    0    0  502  503 -0.0000000000e+00 -0.0000000000e+00 -1.6812906916e+03 1.6812906916e+03 0.0000000000e+00 0.0000e+00 -1.0000e+00
        6  1    1    2  501    0 -3.2195318466e+01 +1.0517128053e+02 -2.1606861279e+02 2.9784590347e+02 1.7300000000e+02 0.0000e+00 1.0000e+00
       -6  1    1    2    0  503 +3.2195318466e+01 -1.0517128053e+02 -1.4169569064e+03 1.4317099606e+03 1.7300000000e+02 0.0000e+00 -1.0000e+00
<mgrwt>
<rscale>  2 0.20500375E+03</rscale>
<asrwt>0</asrwt>
<pdfrwt beam="1">  1       21 0.74254102E-02 0.20500375E+03</pdfrwt>
<pdfrwt beam="2">  1       21 0.25866014E+00 0.20500375E+03</pdfrwt>
<totfact> 0.79835274E+03</totfact>
</mgrwt>
</event>
<event>
 4      2 +5.6305390e+02 2.21734800e+02 7.54677100e-03 1.13259600e-01
       21 -1    0    0  503  502 +0.0000000000e+00 +0.0000000000e+00 +9.2324932079e+02 9.2324932079e+02 0.0000000000e+00 0.0000e+00 1.0000e+00
       21 -1    0    0  501  503 -0.0000000000e+00 -0.0000000000e+00 -5.4615279043e+01 5.4615279043e+01 0.0000000000e+00 0.0000e+00 1.0000e+00
        6  1    1    2  501    0 -7.2252228187e+01 -1.1839313045e+02 +3.5711394719e+02 4.2035305291e+02 1.7300000000e+02 0.0000e+00 1.0000e+00
       -6  1    1    2    0  502 +7.2252228187e+01 +1.1839313045e+02 +5.1152009456e+02 5.5751154692e+02 1.7300000000e+02 0.0000e+00 1.0000e+00
<mgrwt>
<rscale>  2 0.22173479E+03</rscale>
<asrwt>0</asrwt>
<pdfrwt beam="1">  1       21 0.14203835E+00 0.22173479E+03</pdfrwt>
<pdfrwt beam="2">  1       21 0.84023513E-02 0.22173479E+03</pdfrwt>
<totfact> 0.37345609E+04</totfact>
</mgrwt>
</event>
<event>
 4      2 +5.6305390e+02 1.93693900e+02 7.54677100e-03 1.15517100e-01
       21 -1    0    0  501  502 +0.0000000000e+00 +0.0000000000e+00 +7.3350305122e+02 7.3350305122e+02 0.0000000000e+00 0.0000e+00 -1.0000e+00
       21 -1    0    0  502  503 -0.0000000000e+00 -0.0000000000e+00 -5.5961636501e+01 5.5961636501e+01 0.0000000000e+00 0.0000e+00 -1.0000e+00
        6  1    1    2  501    0 -7.1052883870e+01 +5.0396442506e+01 +2.2300284161e+02 2.9537701517e+02 1.7300000000e+02 0.0000e+00 -1.0000e+00
       -6  1    1    2    0  503 +7.1052883870e+01 -5.0396442506e+01 +4.5453857311e+02 4.9408767255e+02 1.7300000000e+02 0.0000e+00 -1.0000e+00
<mgrwt>
<rscale>  2 0.19369387E+03</rscale>
<asrwt>0</asrwt>
<pdfrwt beam="1">  1       21 0.11284662E+00 0.19369387E+03</pdfrwt>
<pdfrwt beam="2">  1       21 0.86094831E-02 0.19369387E+03</pdfrwt>
<totfact> 0.64778419E+04</totfact>
</mgrwt>
</event>
<event>
 4      3 +5.6305390e+02 1.17812200e+02 7.54677100e-03 1.24675100e-01
        1 -1    0    0  501    0 +0.0000000000e+00 +0.0000000000e+00 +2.0688831207e+02 2.0688831207e+02 0.0000000000e+00 0.0000e+00 -1.0000e+00
       -1 -1    0    0    0  501 -0.0000000000e+00 -0.0000000000e+00 -1.3199997651e+02 1.3199997651e+02 0.0000000000e+00 0.0000e+00 1.0000e+00
       24  1    1    2    0    0 +6.5167108147e+00 +8.5848866724e+01 -8.1379305675e+01 1.4318625208e+02 8.0419002446e+01 0.0000e+00 1.0000e+00
      -24  1    1    2    0    0 -6.5167108147e+00 -8.5848866724e+01 +1.5626764124e+02 1.9570203650e+02 8.0419002446e+01 0.0000e+00 -1.0000e+00
<mgrwt>
<rscale>  0 0.11781219E+03</rscale>
<asrwt>0</asrwt>
<pdfrwt beam="1">  1        1 0.31828971E-01 0.11781219E+03</pdfrwt>
<pdfrwt beam="2">  1       -1 0.20307689E-01 0.11781219E+03</pdfrwt>
<totfact> 0.26618326E+03</totfact>
</mgrwt>
</event>
<event>
 4      2 +5.6305390e+02 2.00028800e+02 7.54677100e-03 1.14971500e-01
       -2 -1    0    0    0  501 -0.0000000000e+00 +0.0000000000e+00 +1.3029344850e+02 1.3029344850e+02 0.0000000000e+00 0.0000e+00 -1.0000e+00
        2 -1    0    0  502    0 +0.0000000000e+00 -0.0000000000e+00 -3.2273382634e+02 3.2273382634e+02 0.0000000000e+00 0.0000e+00 1.0000e+00
        6  1    1    2  502    0 -2.7086359810e+01 +9.6689372313e+01 -1.4609446130e+02 2.4769961087e+02 1.7300000000e+02 0.0000e+00 1.0000e+00
       -6  1    1    2    0  501 +2.7086359810e+01 -9.6689372313e+01 -4.6345916547e+01 2.0532766396e+02 1.7300000000e+02 0.0000e+00 -1.0000e+00
<mgrwt>
<rscale>  2 0.20002876E+03</rscale>
<asrwt>0</asrwt>
<pdfrwt beam="1">  1        2 0.49651357E-01 0.20002876E+03</pdfrwt>
<pdfrwt beam="2">  1       -2 0.20045146E-01 0.20002876E+03</pdfrwt>
<totfact> 0.20912260E+03</totfact>
</mgrwt>
</event>
<event>
 4      2 +5.6305390e+02 1.86895900e+02 7.54677100e-03 1.16129100e-01
       21 -1    0    0  501  502 +0.0000000000e+00 +0.0000000000e+00 +3.2656109904e+02 3.2656109904e+02 0.0000000000e+00 0.0000e+00 -1.0000e+00
       21 -1    0    0  502  503 -0.0000000000e+00 -0.0000000000e+00 -1.5848841458e+02 1.5848841458e+02 0.0000000000e+00 0.0000e+00 1.0000e+00
        6  1    1    2  501    0 -6.8813351147e+01 +1.6303032006e+01 +2.2231865299e+02 2.9044044074e+02 1.7300000000e+02 0.0000e+00 -1.0000e+00
       -6  1    1    2    0  503 +6.8813351147e+01 -1.6303032006e+01 -5.4245968528e+01 1.9460907289e+02 1.7300000000e+02 0.0000e+00 1.0000e+00
<mgrwt>
<rscale>  2 0.18689587E+03</rscale>
<asrwt>0</asrwt>
<pdfrwt beam="1">  1       21 0.50240169E-01 0.18689587E+03</pdfrwt>
<pdfrwt beam="2">  1       21 0.24382833E-01 0.18689587E+03</pdfrwt>
<totfact> 0.60084486E+04</totfact>
</mgrwt>
</event>
<event>
 4      2 +5.6305390e+02 2.10751500e+02 7.54677100e-03 1.14097200e-01
       21 -1    0    0  503  502 +0.0000000000e+00 +0.0000000000e+00 +2.2675606092e+03 2.2675606092e+03 0.0000000000e+00 0.0000e+00 1.0000e+00
       21 -1    0    0  501  503 -0.0000000000e+00 -0.0000000000e+00 -2.0904619472e+01 2.0904619472e+01 0.0000000000e+00 0.0000e+00 -1.0000e+00
        6  1    1    2  501    0 -1.0397893712e+02 -6.0626608363e+01 +8.3613126918e+02 8.6228284473e+02 1.7300000000e+02 0.0000e+00 1.0000e+00
       -6  1    1    2    0  502 +1.0397893712e+02 +6.0626608363e+01 +1.4105247206e+03 1.4261823840e+03 1.7300000000e+02 0.0000e+00 -1.0000e+00
<mgrwt>
<rscale>  2 0.21075152E+03</rscale>
<asrwt>0</asrwt>
<pdfrwt beam="1">  1       21 0.34885528E+00 0.21075152E+03</pdfrwt>
<pdfrwt beam="2">  1       21 0.32160971E-02 0.21075152E+03</pdfrwt>
<totfact> 0.98090405E+03</totfact>
</mgrwt>
</event>
<event>
 4      2 +5.6305390e+02 1.83566000e+02 7.54677100e-03 1.16439600e-01
       21 -1    0    0  503  502 +0.0000000000e+00 +0.0000000000e+00 +3.2257433997e+01 3.2257433997e+01 0.0000000000e+00 0.0000e+00 -1.0000e+00
       21 -1    0    0  501  503 -0.0000000000e+00 -0.0000000000e+00 -1.3670093968e+03 1.3670093968e+03 0.0000000000e+00 0.0000e+00 -1.0000e+00
        6  1    1    2  501    0 +1.4010740457e+01 +5.9759411933e+01 -1.0071427184e+03 1.0237348013e+03 1.7300000000e+02 0.0000e+00 -1.0000e+00
       -6  1    1    2    0  502 -1.4010740457e+01 -5.9759411933e+01 -3.2760924442e+02 3.7553202951e+02 1.7300000000e+02 0.0000e+00 -1.0000e+00
<mgrwt>
<rscale>  2 0.18356603E+03</rscale>
<asrwt>0</asrwt>
<pdfrwt beam="1">  1       21 0.49626818E-02 0.18356603E+03</pdfrwt>
<pdfrwt beam="2">  1       21 0.21030915E+00 0.18356603E+03</pdfrwt>
<totfact> 0.31682808E+04</totfact>
</mgrwt>
</event>
<event>
 4      2 +5.6305390e+02 1.90001200e+02 7.54677100e-03 1.15846000e-01
       21 -1    0    0  503  502 +0.0000000000e+00 +0.0000000000e+00 +6.7213498702e+01 6.7213498702e+01 0.0000000000e+00 0.0000e+00 -1.0000e+00
       21 -1    0    0  501  503 -0.0000000000e+00 -0.0000000000e+00 -2.2039728565e+03 2.2039728565e+03 0.0000000000e+00 0.0000e+00 -1.0000e+00
        6  1    1    2  501    0 +2.2100935578e+01 -7.5385824911e+01 -2.0559560492e+03 2.0647168693e+03 1.7300000000e+02 0.0000e+00 -1.0000e+00
       -6  1    1    2    0  502 -2.2100935578e+01 +7.5385824911e+01 -8.0803308616e+01 2.0646948596e+02 1.7300000000e+02 0.0000e+00 -1.0000e+00
<mgrwt>
<rscale>  2 0.19000125E+03</rscale>
<asrwt>0</asrwt>
<pdfrwt beam="1">  1       21 0.10340540E-01 0.19000125E+03</pdfrwt>
<pdfrwt beam="2">  1       21 0.33907270E+00 0.19000125E+03</pdfrwt>
<totfact> 0.15562445E+03</totfact>
</mgrwt>
</event>
<event>
 4      2 +5.6305390e+02 1.86198000e+02 7.54677100e-03 1.16193600e-01
       21 -1    0    0  501  502 +0.0000000000e+00 +0.0000000000e+00 +2.4258731386e+02 2.4258731386e+02 0.0000000000e+00 0.0000e+00 1.0000e+00
       21 -1    0    0  502  503 -0.0000000000e+00 -0.0000000000e+00 -1.8346202206e+02 1.8346202206e+02 0.0000000000e+00 0.0000e+00 1.0000e+00
        6  1    1    2  501    0 -3.9049521667e+00 -6.8741796753e+01 -7.0582357494e+01 1.9912697573e+02 1.7300000000e+02 0.0000e+00 1.0000e+00
       -6  1    1    2    0  503 +3.9049521667e+00 +6.8741796753e+01 +1.2970764929e+02 2.2692236019e+02 1.7300000000e+02 0.0000e+00 1.0000e+00
<mgrwt>
<rscale>  2 0.18619797E+03</rscale>
<asrwt>0</asrwt>
<pdfrwt beam="1">  1       21 0.37321125E-01 0.18619797E+03</pdfrwt>
<pdfrwt beam="2">  1       21 0.28224926E-01 0.18619797E+03</pdfrwt>
<totfact> 0.83278939E+04</totfact>
</mgrwt>
</event>
<event>
 4      2 +5.6305390e+02 1.93304400e+02 7.54677100e-03 1.15551400e-01
       21 -1    0    0  503  502 +0.0000000000e+00 +0.0000000000e+00 +3.2156620581e+02 3.2156620581e+02 0.0000000000e+00 0.0000e+00 -1.0000e+00
       21 -1    0    0  501  503 -0.0000000000e+00 -0.0000000000e+00 -1.5476333056e+02 1.5476333056e+02 0.0000000000e+00 0.0000e+00 -1.0000e+00
        6  1    1    2  501    0 +6.6100092388e+01 +5.5392779663e+01 -3.5481747946e+01 1.9653380546e+02 1.7300000000e+02 0.0000e+00 -1.0000e+00
       -6  1    1    2    0  502 -6.6100092388e+01 -5.5392779663e+01 +2.0228462320e+02 2.7979573091e+02 1.7300000000e+02 0.0000e+00 -1.0000e+00
<mgrwt>
<rscale>  2 0.19330438E+03</rscale>
<asrwt>0</asrwt>
<pdfrwt beam="1">  1       21 0.49471724E-01 0.19330438E+03</pdfrwt>
<pdfrwt beam="2">  1       21 0.23809743E-01 0.19330438E+03</pdfrwt>
<totfact> 0.64736965E+04</totfact>
</mgrwt>
</event>
<event>
 4      3 +5.6305390e+02 8.70347100e+01 7.54677100e-03 1.31019600e-01
       -2 -1    0    0    0  501 -0.0000000000e+00 +0.0000000000e+00 +5.4262415259e+00 5.4262415259e+00 0.0000000000e+00 0.0000e+00 1.0000e+00
        2 -1    0    0  501    0 +0.0000000000e+00 -0.0000000000e+00 -1.6754633662e+03 1.6754633662e+03 0.0000000000e+00 0.0000e+00 -1.0000e+00
       24  1    1    2    0    0 +1.2395761923e+01 +3.0889650457e+01 -1.1782625957e+03 1.1814727190e+03 8.0419002446e+01 0.0000e+00 -1.0000e+00
      -24  1    1    2    0    0 -1.2395761923e+01 -3.0889650457e+01 -4.9177452904e+02 4.9941688876e+02 8.0419002446e+01 0.0000e+00 1.0000e+00
<mgrwt>
<rscale>  0 0.87034714E+02</rscale>
<asrwt>0</asrwt>
<pdfrwt beam="1">  1        2 0.25776393E+00 0.87034714E+02</pdfrwt>
<pdfrwt beam="2">  1       -2 0.83480529E-03 0.87034714E+02</pdfrwt>
<totfact> 0.28388903E+04</totfact>
</mgrwt>
</event>
<event>
 4      2 +5.6305390e+02 1.93123700e+02 7.54677100e-03 1.15567400e-01
       21 -1    0    0  501  502 +0.0000000000e+00 +0.0000000000e+00 +3.1055024047e+02 3.1055024047e+02 0.0000000000e+00 0.0000e+00 -1.0000e+00
       21 -1    0    0  502  503 -0.0000000000e+00 -0.0000000000e+00 -1.2145517226e+02 1.2145517226e+02 0.0000000000e+00 0.0000e+00 1.0000e+00
        6  1    1    2  501    0 +8.3765851154e+01 -1.8735725634e+01 +7.1721886963e+01 2.0601158779e+02 1.7300000000e+02 0.0000e+00 1.0000e+00
       -6  1    1    2    0  503 -8.3765851154e+01 +1.8735725634e+01 +1.1737318125e+02 2.2599382494e+02 1.7300000000e+02 0.0000e+00 1.0000e+00
<mgrwt>
<rscale>  2 0.19312365E+03</rscale>
<asrwt>0</asrwt>
<pdfrwt beam="1">  1       21 0.47776960E-01 0.19312365E+03</pdfrwt>
<pdfrwt beam="2">  1       21 0.18685411E-01 0.19312365E+03</pdfrwt>
<totfact> 0.10971049E+05</totfact>
</mgrwt>
</event>
<event>
 4      2 +5.6305390e+02 2.11033100e+02 7.54677100e-03 1.14075100e-01
       21 -1    0    0  503  502 +0.0000000000e+00 +0.0000000000e+00 +2.0630942483e+02 2.0630942483e+02 0.0000000000e+00 0.0000e+00 1.0000e+00
       21 -1    0    0  501  503 -0.0000000000e+00 -0.0000000000e+00 -3.3529912228e+02 3.3529912228e+02 0.0000000000e+00 0.0000e+00 1.0000e+00
        6  1    1    2  501    0 +1.1901631884e+02 +2.1001661243e+01 -2.2611807861e+02 3.0929652342e+02 1.7300000000e+02 0.0000e+00 -1.0000e+00
       -6  1    1    2    0  502 -1.1901631884e+02 -2.1001661243e+01 +9.7128381155e+01 2.3231202369e+02 1.7300000000e+02 0.0000e+00 -1.0000e+00
<mgrwt>
<rscale>  2 0.21103306E+03</rscale>
<asrwt>0</asrwt>
<pdfrwt beam="1">  1       21 0.31739912E-01 0.21103306E+03</pdfrwt>
<pdfrwt beam="2">  1       21 0.51584480E-01 0.21103306E+03</pdfrwt>
<totfact> 0.33740408E+04</totfact>
</mgrwt>
</event>
<event>
 4      2 +5.6305390e+02 2.03053800e+02 7.54677100e-03 1.14718800e-01
       21 -1    0    0  501  502 +0.0000000000e+00 +0.0000000000e+00 +1.0109728157e+02 1.0109728157e+02 0.0000000000e+00 0.0000e+00 1.0000e+00
       21 -1    0    0  502  503 -0.0000000000e+00 -0.0000000000e+00 -6.5186401083e+02 6.5186401083e+02 0.0000000000e+00 0.0000e+00 1.0000e+00
        6  1    1    2  501    0 +7.5163646587e+01 +7.5181605720e+01 -4.5034375535e+01 2.0798784240e+02 1.7300000000e+02 0.0000e+00 1.0000e+00
       -6  1    1    2    0  503 -7.5163646587e+01 -7.5181605720e+01 -5.0573235372e+02 5.4497345000e+02 1.7300000000e+02 0.0000e+00 1.0000e+00
<mgrwt>
<rscale>  2 0.20305380E+03</rscale>
<asrwt>0</asrwt>
<pdfrwt beam="1">  1       21 0.15553427E-01 0.20305380E+03</pdfrwt>
<pdfrwt beam="2">  1       21 0.10028678E+00 0.20305380E+03</pdfrwt>
<totfact> 0.29763287E+04</totfact>
</mgrwt>
</event>
<event>
 4      2 +5.6305390e+02 1.74388300e+02 7.54677100e-03 1.17334700e-01
       21 -1    0    0  501  502 +0.0000000000e+00 +0.0000000000e+00 +3.3160268568e+02 3.3160268568e+02 0.0000000000e+00 0.0000e+00 -1.0000e+00
       21 -1    0    0  502  503 -0.0000000000e+00 -0.0000000000e+00 -1.8961477652e+02 1.8961477652e+02 0.0000000000e+00 0.0000e+00 -1.0000e+00
        6  1    1    2  501    0 -4.3524362614e+00 -2.1524920536e+01 +2.5825822473e+02 3.1162249044e+02 1.7300000000e+02 0.0000e+00 -1.0000e+00
       -6  1    1    2    0  503 +4.3524362614e+00 +2.1524920536e+01 -1.1627031556e+02 2.0959497176e+02 1.7300000000e+02 0.0000e+00 -1.0000e+00
<mgrwt>
<rscale>  2 0.17438826E+03</rscale>
<asrwt>0</asrwt>
<pdfrwt beam="1">  1       21 0.51015798E-01 0.17438826E+03</pdfrwt>
<pdfrwt beam="2">  1       21 0.29171504E-01 0.17438826E+03</pdfrwt>
<totfact> 0.41494510E+04</totfact>
</mgrwt>
</event>
<event>
 4      2 +5.6305390e+02 1.92583000e+02 7.54677100e-03 1.15615200e-01
       21 -1    0    0  503  502 +0.0000000000e+00 +0.0000000000e+00 +2.4816684775e+02 2.4816684775e+02 0.0000000000e+00 0.0000e+00 1.0000e+00
       21 -1    0    0  501  503 -0.0000000000e+00 -0.0000000000e+00 -2.0100093284e+02 2.0100093284e+02 0.0000000000e+00 0.0000e+00 -1.0000e+00
        6  1    1    2  501    0 -8.2898937750e+01 +1.6940756286e+01 +1.3732031365e+02 2.3652714780e+02 1.7300000000e+02 0.0000e+00 1.0000e+00
       -6  1    1    2    0  502 +8.2898937750e+01 -1.6940756286e+01 -9.0154398735e+01 2.1264063279e+02 1.7300000000e+02 0.0000e+00 -1.0000e+00
<mgrwt>
<rscale>  2 0.19258303E+03</rscale>
<asrwt>0</asrwt>
<pdfrwt beam="1">  1       21 0.38179515E-01 0.19258303E+03</pdfrwt>
<pdfrwt beam="2">  1       21 0.30923220E-01 0.19258303E+03</pdfrwt>
<totfact> 0.66454197E+04</totfact>
</mgrwt>
</event>
<event>
 4      3 +5.6305390e+02 9.45275400e+01 7.54677100e-03 1.29224400e-01
        2 -1    0    0  501    0 +0.0000000000e+00 +0.0000000000e+00 +1.0940004009e+03 1.0940004009e+03 0.0000000000e+00 0.0000e+00 -1.0000e+00
       -2 -1    0    0    0  501 -0.0000000000e+00 -0.0000000000e+00 -8.5776295600e+00 8.5776295600e+00 0.0000000000e+00 0.0000e+00 1.0000e+00
       24  1    1    2    0    0 +2.3289681935e+01 +4.3884276370e+01 +6.6323057000e+02 6.6993301451e+02 8.0419002446e+01 0.0000e+00 -1.0000e+00
      -24  1    1    2    0    0 -2.3289681935e+01 -4.3884276370e+01 +4.2219220133e+02 4.3264501593e+02 8.0419002446e+01 0.0000e+00 0.0000e+00
<mgrwt>
<rscale>  0 0.94527535E+02</rscale>
<asrwt>0</asrwt>
<pdfrwt beam="1">  1        2 0.16830764E+00 0.94527535E+02</pdfrwt>
<pdfrwt beam="2">  1       -2 0.13196362E-02 0.94527535E+02</pdfrwt>
<totfact> 0.30148682E+04</totfact>
</mgrwt>
</event>
<event>
 4      2 +5.6305390e+02 1.97173100e+02 7.54677100e-03 1.15214600e-01
       21 -1    0    0  503  502 +0.0000000000e+00 +0.0000000000e+00 +9.1777979420e+01 9.1777979420e+01 0.0000000000e+00 0.0000e+00 -1.0000e+00
       21 -1    0    0  501  503 -0.0000000000e+00 -0.0000000000e+00 -5.5480447959e+02 5.5480447959e+02 0.0000000000e+00 0.0000e+00 -1.0000e+00
        6  1    1    2  501    0 -3.0024838662e+01 +8.9703581088e+01 -3.8872933929e+02 4.3587581101e+02 1.7300000000e+02 0.0000e+00 -1.0000e+00
       -6  1    1    2    0  502 +3.0024838662e+01 -8.9703581088e+01 -7.4297160874e+01 2.1070664800e+02 1.7300000000e+02 0.0000e+00 -1.0000e+00
<mgrwt>
<rscale>  2 0.19717308E+03</rscale>
<asrwt>0</asrwt>
<pdfrwt beam="1">  1       21 0.14119689E-01 0.19717308E+03</pdfrwt>
<pdfrwt beam="2">  1       21 0.85354536E-01 0.19717308E+03</pdfrwt>
<totfact> 0.51850320E+04</totfact>
</mgrwt>
</event>
<event>
 4      2 +5.6305390e+02 1.82894000e+02 7.54677100e-03 1.16503100e-01
       21 -1    0    0  503  502 +0.0000000000e+00 +0.0000000000e+00 +3.9619889027e+01 3.9619889027e+01 0.0000000000e+00 0.0000e+00 -1.0000e+00
       21 -1    0    0  501  503 -0.0000000000e+00 -0.0000000000e+00 -8.4728712305e+02 8.4728712305e+02 0.0000000000e+00 0.0000e+00 -1.0000e+00
        6  1    1    2  501    0 -1.9262362057e+01 -5.6126530498e+01 -4.3025810541e+02 4.6751712620e+02 1.7300000000e+02 0.0000e+00 1.0000e+00
       -6  1    1    2    0  502 +1.9262362057e+01 +5.6126530498e+01 -3.7740912862e+02 4.1938988589e+02 1.7300000000e+02 0.0000e+00 1.0000e+00
<mgrwt>
<rscale>  2 0.18289403E+03</rscale>
<asrwt>0</asrwt>
<pdfrwt beam="1">  1       21 0.60953676E-02 0.18289403E+03</pdfrwt>
<pdfrwt beam="2">  1       21 0.13035186E+00 0.18289403E+03</pdfrwt>
<totfact> 0.82773511E+04</totfact>
</mgrwt>
</event>
<event>
 4      2 +5.6305390e+02 1.74197900e+02 7.54677100e-03 1.17353900e-01
       21 -1    0    0  501  502 +0.0000000000e+00 +0.0000000000e+00 +9.0830223048e+01 9.0830223048e+01 0.0000000000e+00 0.0000e+00 1.0000e+00
       21 -1    0    0  502  503 -0.0000000000e+00 -0.0000000000e+00 -6.6181621374e+02 6.6181621374e+02 0.0000000000e+00 0.0000e+00 1.0000e+00
        6  1    1    2  501    0 +1.6859271671e+01 +1.1474930967e+01 -2.0672258740e+01 1.7542021367e+02 1.7300000000e+02 0.0000e+00 1.0000e+00
       -6  1    1    2    0  503 -1.6859271671e+01 -1.1474930967e+01 -5.5031373195e+02 5.7722622312e+02 1.7300000000e+02 0.0000e+00 1.0000e+00
<mgrwt>
<rscale>  2 0.17419790E+03</rscale>
<asrwt>0</asrwt>
<pdfrwt beam="1">  1       21 0.13973880E-01 0.17419790E+03</pdfrwt>
<pdfrwt beam="2">  1       21 0.10181788E+00 0.17419790E+03</pdfrwt>
<totfact> 0.35448133E+04</totfact>
</mgrwt>
</event>
<event>
 4      2 +5.6305390e+02 2.13448600e+02 7.54677100e-03 1.13886400e-01
       21 -1    0    0  503  502 +0.0000000000e+00 +0.0000000000e+00 +5.4527987383e+02 5.4527987383e+02 0.0000000000e+00 0.0000e+00 -1.0000e+00
       21 -1    0    0  501  503 -0.0000000000e+00 -0.0000000000e+00 -8.7836558523e+01 8.7836558523e+01 0.0000000000e+00 0.0000e+00 1.0000e+00
        6  1    1    2  501    0 +1.1374790603e+02 -5.1891301071e+01 +1.5882288174e+02 2.6605450761e+02 1.7300000000e+02 0.0000e+00 -1.0000e+00
       -6  1    1    2    0  502 -1.1374790603e+02 +5.1891301071e+01 +2.9862043357e+02 3.6706192475e+02 1.7300000000e+02 0.0000e+00 -1.0000e+00
<mgrwt>
<rscale>  2 0.21344857E+03</rscale>
<asrwt>0</asrwt>
<pdfrwt beam="1">  1       21 0.83889209E-01 0.21344857E+03</pdfrwt>
<pdfrwt beam="2">  1       21 0.13513317E-01 0.21344857E+03</pdfrwt>
<totfact> 0.57955334E+04</totfact>
</mgrwt>
</event>
<event>
 4      3 +5.6305390e+02 8.80290700e+01 7.54677100e-03 1.30769600e-01
        1 -1    0    0  501    0 +0.0000000000e+00 +0.0000000000e+00 +6.6609273299e+01 6.6609273299e+01 0.0000000000e+00 0.0000e+00 -1.0000e+00
       -1 -1    0    0    0  501 -0.0000000000e+00 -0.0000000000e+00 -1.1651514637e+02 1.1651514637e+02 0.0000000000e+00 0.0000e+00 1.0000e+00
       24  1    1    2    0    0 -1.5356676877e+01 +3.2343051644e+01 -2.8534177592e+01 9.2538185414e+01 8.0419002446e+01 0.0000e+00 1.0000e+00
      -24  1    1    2    0    0 +1.5356676877e+01 -3.2343051644e+01 -2.1371695477e+01 9.0586234254e+01 8.0419002446e+01 0.0000e+00 0.0000e+00
<mgrwt>
<rscale>  0 0.88029066E+02</rscale>
<asrwt>0</asrwt>
<pdfrwt beam="1">  1        1 0.10247580E-01 0.88029066E+02</pdfrwt>
<pdfrwt beam="2">  1       -1 0.17925407E-01 0.88029066E+02</pdfrwt>
<totfact> 0.13374595E+04</totfact>
</mgrwt>
</event>
<event>
 4      2 +5.6305390e+02 1.80721400e+02 7.54677100e-03 1.16710700e-01
       21 -1    0    0  501  502 +0.0000000000e+00 +0.0000000000e+00 +2.4195433846e+03 2.4195433846e+03 0.0000000000e+00 0.0000e+00 -1.0000e+00
       21 -1    0    0  502  503 -0.0000000000e+00 -0.0000000000e+00 -1.6706190028e+01 1.6706190028e+01 0.0000000000e+00 0.0000e+00 -1.0000e+00
        6  1    1    2  501    0 -4.8131096473e+01 -2.0362151833e+01 +1.7351821276e+03 1.7445679223e+03 1.7300000000e+02 0.0000e+00 -1.0000e+00
       -6  1    1    2    0  503 +4.8131096473e+01 +2.0362151833e+01 +6.6765506700e+02 6.9168165232e+02 1.7300000000e+02 0.0000e+00 -1.0000e+00
<mgrwt>
<rscale>  2 0.18072139E+03</rscale>
<asrwt>0</asrwt>
<pdfrwt beam="1">  1       21 0.37223717E+00 0.18072139E+03</pdfrwt>
<pdfrwt beam="2">  1       21 0.25701850E-02 0.18072139E+03</pdfrwt>
<totfact> 0.10684029E+04</totfact>
</mgrwt>
</event>
<event>
 4      2 +5.6305390e+02 1.76114600e+02 7.54677100e-03 1.17161700e-01
       21 -1    0    0  501  502 +0.0000000000e+00 +0.0000000000e+00 +4.5802408678e+02 4.5802408678e+02 0.0000000000e+00 0.0000e+00 1.0000e+00
       21 -1    0    0  502  503 -0.0000000000e+00 -0.0000000000e+00 -6.8155540303e+01 6.8155540303e+01 0.0000000000e+00 0.0000e+00 1.0000e+00
        6  1    1    2  501    0 -4.5798969384e+00 +3.2655567936e+01 +1.7384869730e+02 2.4746662629e+02 1.7300000000e+02 0.0000e+00 1.0000e+00
       -6  1    1    2    0  503 +4.5798969384e+00 -3.2655567936e+01 +2.1601984918e+02 2.7871300079e+02 1.7300000000e+02 0.0000e+00 1.0000e+00
<mgrwt>
<rscale>  2 0.17611463E+03</rscale>
<asrwt>0</asrwt>
<pdfrwt beam="1">  1       21 0.70465242E-01 0.17611463E+03</pdfrwt>
<pdfrwt beam="2">  1       21 0.10485468E-01 0.17611463E+03</pdfrwt>
<totfact> 0.13704259E+05</totfact>
</mgrwt>
</event>
<event>
 4      2 +5.6305390e+02 1.91362200e+02 7.54677100e-03 1.15723800e-01
       21 -1    0    0  503  502 +0.0000000000e+00 +0.0000000000e+00 +4.8549393765e+01 4.8549393765e+01 0.0000000000e+00 0.0000e+00 1.0000e+00
       21 -1    0    0  501  503 -0.0000000000e+00 -0.0000000000e+00 -8.7579372032e+02 8.7579372032e+02 0.0000000000e+00 0.0000e+00 1.0000e+00
        6  1    1    2  501    0 +3.3195428085e+01 +7.4756610369e+01 -5.8578040707e+02 6.1624522112e+02 1.7300000000e+02 0.0000e+00 1.0000e+00
       -6  1    1    2    0  502 -3.3195428085e+01 -7.4756610369e+01 -2.4146391948e+02 3.0809789297e+02 1.7300000000e+02 0.0000e+00 1.0000e+00
<mgrwt>
<rscale>  2 0.19136219E+03</rscale>
<asrwt>0</asrwt>
<pdfrwt beam="1">  1       21 0.74691369E-02 0.19136219E+03</pdfrwt>
<pdfrwt beam="2">  1       21 0.13473751E+00 0.19136219E+03</pdfrwt>
<totfact> 0.53414843E+04</totfact>
</mgrwt>
</event>
<event>
 4      2 +5.6305390e+02 2.09627400e+02 7.54677100e-03 1.14186100e-01
       21 -1    0    0  501  502 +0.0000000000e+00 +0.0000000000e+00 +3.0350938300e+02 3.0350938300e+02 0.0000000000e+00 0.0000e+00 -1.0000e+00
       21 -1    0    0  502  503 -0.0000000000e+00 -0.0000000000e+00 -1.5912269398e+02 1.5912269398e+02 0.0000000000e+00 0.0000e+00 1.0000e+00
        6  1    1    2  501    0 -1.1744764862e+02 +1.4856440000e+01 +1.4162802569e+02 2.5298648509e+02 1.7300000000e+02 0.0000e+00 -1.0000e+00
       -6  1    1    2    0  503 +1.1744764862e+02 -1.4856440000e+01 +2.7586633369e+00 2.0964559189e+02 1.7300000000e+02 0.0000e+00 1.0000e+00
<mgrwt>
<rscale>  2 0.20962744E+03</rscale>
<asrwt>0</asrwt>
<pdfrwt beam="1">  1       21 0.46693751E-01 0.20962744E+03</pdfrwt>
<pdfrwt beam="2">  1       21 0.24480414E-01 0.20962744E+03</pdfrwt>
<totfact> 0.68713659E+04</totfact>
</mgrwt>
</event>
<event>
 4      2 +5.6305390e+02 1.77848800e+02 7.54677100e-03 1.16990100e-01
       21 -1    0    0  501  502 +0.0000000000e+00 +0.0000000000e+00 +1.4540587193e+03 1.4540587193e+03 0.0000000000e+00 0.0000e+00 -1.0000e+00
       21 -1    0    0  502  503 -0.0000000000e+00 -0.0000000000e+00 -4.0778399122e+01 4.0778399122e+01 0.0000000000e+00 0.0000e+00 -1.0000e+00
        6  1    1    2  501    0 -4.3193561107e+00 -4.1018558910e+01 +1.2171632254e+03 1.2300880034e+03 1.7300000000e+02 0.0000e+00 -1.0000e+00
       -6  1    1    2    0  503 +4.3193561107e+00 +4.1018558910e+01 +1.9611709484e+02 2.6474911501e+02 1.7300000000e+02 0.0000e+00 -1.0000e+00
<mgrwt>
<rscale>  2 0.17784875E+03</rscale>
<asrwt>0</asrwt>
<pdfrwt beam="1">  1       21 0.22370130E+00 0.17784875E+03</pdfrwt>
<pdfrwt beam="2">  1       21 0.62736010E-02 0.17784875E+03</pdfrwt>
<totfact> 0.17663082E+04</totfact>
</mgrwt>
</event>
<event>
 4      2 +5.6305390e+02 2.02001800e+02 7.54677100e-03 1.14806100e-01
       21 -1    0    0  501  502 +0.0000000000e+00 +0.0000000000e+00 +6.4283809109e+02 6.4283809109e+02 0.0000000000e+00 0.0000e+00 -1.0000e+00
       21 -1    0    0  502  503 -0.0000000000e+00 -0.0000000000e+00 -1.1608915672e+02 1.1608915672e+02 0.0000000000e+00 0.0000e+00 1.0000e+00
        6  1    1    2  501    0 -4.6348209552e+01 +9.3421541709e+01 +5.1883382762e+02 5.5677040301e+02 1.7300000000e+02 0.0000e+00 -1.0000e+00
       -6  1    1    2    0  503 +4.6348209552e+01 -9.3421541709e+01 +7.9151067515e+00 2.0215684480e+02 1.7300000000e+02 0.0000e+00 1.0000e+00
<mgrwt>
<rscale>  2 0.20200183E+03</rscale>
<asrwt>0</asrwt>
<pdfrwt beam="1">  1       21 0.98898166E-01 0.20200183E+03</pdfrwt>
<pdfrwt beam="2">  1       21 0.17859871E-01 0.20200183E+03</pdfrwt>
<totfact> 0.23871180E+04</totfact>
</mgrwt>
</event>
<event>
 4      2 +5.6305390e+02 1.80303700e+02 7.54677100e-03 1.16750900e-01
        2 -1    0    0  502    0 +0.0000000000e+00 +0.0000000000e+00 +3.9203804322e+02 3.9203804322e+02 0.0000000000e+00 0.0000e+00 -1.0000e+00
       -2 -1    0    0    0  501 -0.0000000000e+00 -0.0000000000e+00 -1.3685236547e+02 1.3685236547e+02 0.0000000000e+00 0.0000e+00 1.0000e+00
        6  1    1    2  502    0 -3.3059065265e+00 +5.0690237643e+01 -3.8410753667e+01 1.8434970900e+02 1.7300000000e+02 0.0000e+00 1.0000e+00
       -6  1    1    2    0  501 +3.3059065265e+00 -5.0690237643e+01 +2.9359643142e+02 3.4454069970e+02 1.7300000000e+02 0.0000e+00 -1.0000e+00
<mgrwt>
<rscale>  2 0.18030371E+03</rscale>
<asrwt>0</asrwt>
<pdfrwt beam="1">  1        2 0.60313545E-01 0.18030371E+03</pdfrwt>
<pdfrwt beam="2">  1       -2 0.21054210E-01 0.18030371E+03</pdfrwt>
<totfact> 0.15555799E+03</totfact>
</mgrwt>
</event>
<event>
 4      2 +5.6305390e+02 2.13685500e+02 7.54677100e-03 1.13868000e-01
       21 -1    0    0  503  502 +0.0000000000e+00 +0.0000000000e+00 +5.3285384168e+02 5.3285384168e+02 0.0000000000e+00 0.0000e+00 1.0000e+00
       21 -1    0    0  501  503 -0.0000000000e+00 -0.0000000000e+00 -2.0151109898e+02 2.0151109898e+02 0.0000000000e+00 0.0000e+00 1.0000e+00
        6  1    1    2  501    0 -1.0990726955e+02 -6.0439192059e+01 -1.1269826846e+02 2.4158311934e+02 1.7300000000e+02 0.0000e+00 1.0000e+00
       -6  1    1    2    0  502 +1.0990726955e+02 +6.0439192059e+01 +4.4404101116e+02 4.9278182133e+02 1.7300000000e+02 0.0000e+00 1.0000e+00
<mgrwt>
<rscale>  2 0.21368553E+03</rscale>
<asrwt>0</asrwt>
<pdfrwt beam="1">  1       21 0.81977514E-01 0.21368553E+03</pdfrwt>
<pdfrwt beam="2">  1       21 0.31001708E-01 0.21368553E+03</pdfrwt>
<totfact> 0.12828821E+04</totfact>
</mgrwt>
</event>
<event>
 4      2 +5.6305390e+02 2.79757600e+02 7.54677100e-03 1.09582100e-01
       21 -1    0    0  503  502 +0.0000000000e+00 +0.0000000000e+00 +1.2966106539e+03 1.2966106539e+03 0.0000000000e+00 0.0000e+00 -1.0000e+00
       21 -1    0    0  501  503 -0.0000000000e+00 -0.0000000000e+00 -8.2432897360e+01 8.2432897360e+01 0.0000000000e+00 0.0000e+00 -1.0000e+00
        6  1    1    2  501    0 -1.0558650899e+02 -1.9283886616e+02 +2.5029253529e+02 3.7538072993e+02 1.7300000000e+02 0.0000e+00 -1.0000e+00
       -6  1    1    2    0  502 +1.0558650899e+02 +1.9283886616e+02 +9.6388522128e+02 1.0036628214e+03 1.7300000000e+02 0.0000e+00 -1.0000e+00
<mgrwt>
<rscale>  2 0.27975764E+03</rscale>
<asrwt>0</asrwt>
<pdfrwt beam="1">  1       21 0.19947855E+00 0.27975764E+03</pdfrwt>
<pdfrwt beam="2">  1       21 0.12681985E-01 0.27975764E+03</pdfrwt>
<totfact> 0.67367272E+03</totfact>
</mgrwt>
</event>
<event>
 4      2 +5.6305390e+02 1.88923400e+02 7.54677100e-03 1.15943600e-01
       21 -1    0    0  501  502 +0.0000000000e+00 +0.0000000000e+00 +1.0170290791e+03 1.0170290791e+03 0.0000000000e+00 0.0000e+00 1.0000e+00
       21 -1    0    0  502  503 -0.0000000000e+00 -0.0000000000e+00 -5.6006620076e+01 5.6006620076e+01 0.0000000000e+00 0.0000e+00 1.0000e+00
        6  1    1    2  501    0 -2.7357493257e+01 +7.0813849030e+01 +1.5266931423e+02 2.4289905961e+02 1.7300000000e+02 0.0000e+00 1.0000e+00
       -6  1    1    2    0  503 +2.7357493257e+01 -7.0813849030e+01 +8.0835314485e+02 8.3013663962e+02 1.7300000000e+02 0.0000e+00 1.0000e+00
<mgrwt>
<rscale>  2 0.18892335E+03</rscale>
<asrwt>0</asrwt>
<pdfrwt beam="1">  1       21 0.15646600E+00 0.18892335E+03</pdfrwt>
<pdfrwt beam="2">  1       21 0.86164039E-02 0.18892335E+03</pdfrwt>
<totfact> 0.28243967E+04</totfact>
</mgrwt>
</event>
<event>
 4      2 +5.6305390e+02 2.04707900e+02 7.54677100e-03 1.14582700e-01
       21 -1    0    0  501  502 +0.0000000000e+00 +0.0000000000e+00 +3.5711862404e+02 3.5711862404e+02 0.0000000000e+00 0.0000e+00 -1.0000e+00
       21 -1    0    0  502  503 -0.0000000000e+00 -0.0000000000e+00 -2.8286095235e+02 2.8286095235e+02 0.0000000000e+00 0.0000e+00 -1.0000e+00
        6  1    1    2  501    0 +4.7557192467e+01 -9.8562917610e+01 +2.8190679072e+02 3.4839169613e+02 1.7300000000e+02 0.0000e+00 -1.0000e+00
       -6  1    1    2    0  503 -4.7557192467e+01 +9.8562917610e+01 -2.0764911903e+02 2.9158788026e+02 1.7300000000e+02 0.0000e+00 -1.0000e+00
<mgrwt>
<rscale>  2 0.20470793E+03</rscale>
<asrwt>0</asrwt>
<pdfrwt beam="1">  1       21 0.54941327E-01 0.20470793E+03</pdfrwt>
<pdfrwt beam="2">  1       21 0.43517070E-01 0.20470793E+03</pdfrwt>
<totfact> 0.15746875E+04</totfact>
</mgrwt>
</event>
<event>
 4      2 +5.6305390e+02 1.73769300e+02 7.54677100e-03 1.17397300e-01
       21 -1    0    0  501  502 +0.0000000000e+00 +0.0000000000e+00 +5.5890919726e+01 5.5890919726e+01 0.0000000000e+00 0.0000e+00 -1.0000e+00
       21 -1    0    0  502  503 -0.0000000000e+00 -0.0000000000e+00 -6.1575995141e+02 6.1575995141e+02 0.0000000000e+00 0.0000e+00 -1.0000e+00
        6  1    1    2  501    0 +1.1691881292e+01 +1.1405244102e+01 -1.6234369756e+02 2.3780507946e+02 1.7300000000e+02 0.0000e+00 -1.0000e+00
       -6  1    1    2    0  503 -1.1691881292e+01 -1.1405244102e+01 -3.9752533413e+02 4.3384579168e+02 1.7300000000e+02 0.0000e+00 -1.0000e+00
<mgrwt>
<rscale>  2 0.17376933E+03</rscale>
<asrwt>0</asrwt>
<pdfrwt beam="1">  1       21 0.85986033E-02 0.17376933E+03</pdfrwt>
<pdfrwt beam="2">  1       21 0.94732297E-01 0.17376933E+03</pdfrwt>
<totfact> 0.99434507E+04</totfact>
</mgrwt>
</event>
<event>
 4      2 +5.6305390e+02 2.93942000e+02 7.54677100e-03 1.08830900e-01
       21 -1    0    0  501  502 +0.0000000000e+00 +0.0000000000e+00 +4.6319590746e+01 4.6319590746e+01 0.0000000000e+00 0.0000e+00 1.0000e+00
       21 -1    0    0  502  503 -0.0000000000e+00 -0.0000000000e+00 -1.9930737406e+03 1.9930737406e+03 0.0000000000e+00 0.0000e+00 1.0000e+00
        6  1    1    2  501    0 +2.2314951533e+02 -8.1714081102e+01 -1.2315186920e+03 1.2661122327e+03 1.7300000000e+02 0.0000e+00 1.0000e+00
       -6  1    1    2    0  503 -2.2314951533e+02 +8.1714081102e+01 -7.1523545794e+02 7.7328109865e+02 1.7300000000e+02 0.0000e+00 1.0000e+00
<mgrwt>
<rscale>  2 0.29394200E+03</rscale>
<asrwt>0</asrwt>
<pdfrwt beam="1">  1       21 0.71260916E-02 0.29394200E+03</pdfrwt>
<pdfrwt beam="2">  1       21 0.30662670E+00 0.29394200E+03</pdfrwt>
<totfact> 0.41606087E+03</totfact>
</mgrwt>
</event>
<event>
 4      2 +5.6305390e+02 1.85295500e+02 7.54677100e-03 1.16277400e-01
       21 -1    0    0  503  502 +0.0000000000e+00 +0.0000000000e+00 +8.5102759265e+01 8.5102759265e+01 0.0000000000e+00 0.0000e+00 -1.0000e+00
       21 -1    0    0  501  503 -0.0000000000e+00 -0.0000000000e+00 -5.4611623314e+02 5.4611623314e+02 0.0000000000e+00 0.0000e+00 -1.0000e+00
        6  1    1    2  501    0 -3.0843213253e+01 -5.8771879601e+01 -3.9182106955e+02 4.3342610464e+02 1.7300000000e+02 0.0000e+00 -1.0000e+00
       -6  1    1    2    0  502 +3.0843213253e+01 +5.8771879601e+01 -6.9192404321e+01 1.9779288777e+02 1.7300000000e+02 0.0000e+00 -1.0000e+00
<mgrwt>
<rscale>  2 0.18529554E+03</rscale>
<asrwt>0</asrwt>
<pdfrwt beam="1">  1       21 0.13092733E-01 0.18529554E+03</pdfrwt>
<pdfrwt beam="2">  1       21 0.84017878E-01 0.18529554E+03</pdfrwt>
<totfact> 0.61959369E+04</totfact>
</mgrwt>
</event>
<event>
 4      2 +5.6305390e+02 2.33698300e+02 7.54677100e-03 1.12406300e-01
       21 -1    0    0  501  502 +0.0000000000e+00 +0.0000000000e+00 +2.6533279761e+02 2.6533279761e+02 0.0000000000e+00 0.0000e+00 1.0000e+00
       21 -1    0    0  502  503 -0.0000000000e+00 -0.0000000000e+00 -2.4560624741e+02 2.4560624741e+02 0.0000000000e+00 0.0000e+00 1.0000e+00
        6  1    1    2  501    0 -9.6670936478e+01 +1.2385732817e+02 +1.1266521165e+02 2.5943854304e+02 1.7300000000e+02 0.0000e+00 1.0000e+00
       -6  1    1    2    0  503 +9.6670936478e+01 -1.2385732817e+02 -9.2938661453e+01 2.5150050198e+02 1.7300000000e+02 0.0000e+00 1.0000e+00
<mgrwt>
<rscale>  2 0.23369833E+03</rscale>
<asrwt>0</asrwt>
<pdfrwt beam="1">  1       21 0.40820431E-01 0.23369833E+03</pdfrwt>
<pdfrwt beam="2">  1       21 0.37785576E-01 0.23369833E+03</pdfrwt>
<totfact> 0.38272211E+04</totfact>
</mgrwt>
</event>
<event>
 4      2 +5.6305390e+02 2.09533200e+02 7.54677100e-03 1.14193600e-01
        2 -1    0    0  502    0 +0.0000000000e+00 +0.0000000000e+00 +1.5838162813e+03 1.5838162813e+03 0.0000000000e+00 0.0000e+00 1.0000e+00
       -2 -1    0    0    0  501 -0.0000000000e+00 -0.0000000000e+00 -4.8629999887e+01 4.8629999887e+01 0.0000000000e+00 0.0000e+00 -1.0000e+00
        6  1    1    2  502    0 -2.5783740107e+01 -1.1537055119e+02 +1.3028086413e+03 1.3195508786e+03 1.7300000000e+02 0.0000e+00 1.0000e+00
       -6  1    1    2    0  501 +2.5783740107e+01 +1.1537055119e+02 +2.3237764007e+02 3.1289540255e+02 1.7300000000e+02 0.0000e+00 -1.0000e+00
<mgrwt>
<rscale>  2 0.20953321E+03</rscale>
<asrwt>0</asrwt>
<pdfrwt beam="1">  1        2 0.24366400E+00 0.20953321E+03</pdfrwt>
<pdfrwt beam="2">  1       -2 0.74815397E-02 0.20953321E+03</pdfrwt>
<totfact> 0.12994669E+03</totfact>
</mgrwt>
</event>
<event>
 4      2 +5.6305390e+02 2.03845700e+02 7.54677100e-03 1.14653400e-01
       21 -1    0    0  503  502 +0.0000000000e+00 +0.0000000000e+00 +2.6170056334e+02 2.6170056334e+02 0.0000000000e+00 0.0000e+00 1.0000e+00
       21 -1    0    0  501  503 -0.0000000000e+00 -0.0000000000e+00 -1.6763727179e+02 1.6763727179e+02 0.0000000000e+00 0.0000e+00 1.0000e+00
        6  1    1    2  501    0 -9.2206108715e+01 +5.5875860640e+01 -2.3095006158e+00 2.0385880427e+02 1.7300000000e+02 0.0000e+00 1.0000e+00
       -6  1    1    2    0  502 +9.2206108715e+01 -5.5875860640e+01 +9.6372792163e+01 2.2547903086e+02 1.7300000000e+02 0.0000e+00 1.0000e+00
<mgrwt>
<rscale>  2 0.20384572E+03</rscale>
<asrwt>0</asrwt>
<pdfrwt beam="1">  1       21 0.40261625E-01 0.20384572E+03</pdfrwt>
<pdfrwt beam="2">  1       21 0.25790350E-01 0.20384572E+03</pdfrwt>
<totfact> 0.84438519E+04</totfact>
</mgrwt>
</event>
<event>
 4      2 +5.6305390e+02 2.10722800e+02 7.54677100e-03 1.14099500e-01
       21 -1    0    0  501  502 +0.0000000000e+00 +0.0000000000e+00 +1.6576314052e+02 1.6576314052e+02 0.0000000000e+00 0.0000e+00 1.0000e+00
       21 -1    0    0  502  503 -0.0000000000e+00 -0.0000000000e+00 -3.1993954480e+02 3.1993954480e+02 0.0000000000e+00 0.0000e+00 1.0000e+00
        6  1    1    2  501    0 +5.7174032913e+00 +1.2017654501e+02 +2.0876653699e+01 2.1175439863e+02 1.7300000000e+02 0.0000e+00 1.0000e+00
       -6  1    1    2    0  503 -5.7174032913e+00 -1.2017654501e+02 -1.7505305797e+02 2.7394828668e+02 1.7300000000e+02 0.0000e+00 1.0000e+00
<mgrwt>
<rscale>  2 0.21072278E+03</rscale>
<asrwt>0</asrwt>
<pdfrwt beam="1">  1       21 0.25502022E-01 0.21072278E+03</pdfrwt>
<pdfrwt beam="2">  1       21 0.49221468E-01 0.21072278E+03</pdfrwt>
<totfact> 0.56926577E+04</totfact>
</mgrwt>
</event>
<event>
 4      3 +5.6305390e+02 9.86563000e+01 7.54677100e-03 1.28314700e-01
       -2 -1    0    0    0  501 -0.0000000000e+00 +0.0000000000e+00 +1.7424501327e+01 1.7424501327e+01 0.0000000000e+00 0.0000e+00 1.0000e+00
        2 -1    0    0  501    0 +0.0000000000e+00 -0.0000000000e+00 -8.5577948963e+02 8.5577948963e+02 0.0000000000e+00 0.0000e+00 -1.0000e+00
       24  1    1    2    0    0 -5.3265511533e+01 +2.0703501136e+01 -6.7646881262e+02 6.8362498497e+02 8.0419002446e+01 0.0000e+00 -1.0000e+00
      -24  1    1    2    0    0 +5.3265511533e+01 -2.0703501136e+01 -1.6188617568e+02 1.8957900598e+02 8.0419002446e+01 0.0000e+00 1.0000e+00
<mgrwt>
<rscale>  0 0.98656301E+02</rscale>
<asrwt>0</asrwt>
<pdfrwt beam="1">  1        2 0.13165843E+00 0.98656301E+02</pdfrwt>
<pdfrwt beam="2">  1       -2 0.26806916E-02 0.98656301E+02</pdfrwt>
<totfact> 0.15165931E+04</totfact>
</mgrwt>
</event>
<event>
 4      2 +5.6305390e+02 1.91683100e+02 7.54677100e-03 1.15695200e-01
       -3 -1    0    0    0  501 -0.0000000000e+00 +0.0000000000e+00 +3.0999056597e+02 3.0999056597e+02 0.0000000000e+00 0.0000e+00 -1.0000e+00
        3 -1    0    0  502    0 +0.0000000000e+00 -0.0000000000e+00 -1.1854667694e+02 1.1854667694e+02 0.0000000000e+00 0.0000e+00 1.0000e+00
        6  1    1    2  502    0 +4.5747028008e+01 +6.8706637880e+01 +9.2993471371e+01 2.1304970870e+02 1.7300000000e+02 0.0000e+00 1.0000e+00
       -6  1    1    2    0  501 -4.5747028008e+01 -6.8706637880e+01 +9.8450417663e+01 2.1548753421e+02 1.7300000000e+02 0.0000e+00 -1.0000e+00
<mgrwt>
<rscale>  2 0.19168305E+03</rscale>
<asrwt>0</asrwt>
<pdfrwt beam="1">  1        3 0.18237950E-01 0.19168305E+03</pdfrwt>
<pdfrwt beam="2">  1       -3 0.47690856E-01 0.19168305E+03</pdfrwt>
<totfact> 0.28199258E+02</totfact>
</mgrwt>
</event>
<event>
 4      2 +5.6305390e+02 2.96449400e+02 7.54677100e-03 1.08702900e-01
       21 -1    0    0  501  502 +0.0000000000e+00 +0.0000000000e+00 +2.7853141823e+02 2.7853141823e+02 0.0000000000e+00 0.0000e+00 -1.0000e+00
       21 -1    0    0  502  503 -0.0000000000e+00 -0.0000000000e+00 -4.6284770586e+02 4.6284770586e+02 0.0000000000e+00 0.0000e+00 -1.0000e+00
        6  1    1    2  501    0 -1.8270490341e+02 +1.5675502265e+02 +1.1698016311e+02 3.1869511672e+02 1.7300000000e+02 0.0000e+00 -1.0000e+00
       -6  1    1    2    0  503 +1.8270490341e+02 -1.5675502265e+02 -3.0129645074e+02 4.2268400737e+02 1.7300000000e+02 0.0000e+00 -1.0000e+00
<mgrwt>
<rscale>  2 0.29644935E+03</rscale>
<asrwt>0</asrwt>
<pdfrwt beam="1">  1       21 0.42850988E-01 0.29644935E+03</pdfrwt>
<pdfrwt beam="2">  1       21 0.71207339E-01 0.29644935E+03</pdfrwt>
<totfact> 0.87988327E+03</totfact>
</mgrwt>
</event>
<event>
 4      2 +5.6305390e+02 1.95524000e+02 7.54677100e-03 1.15357100e-01
       21 -1    0    0  503  502 +0.0000000000e+00 +0.0000000000e+00 +1.0614552356e+03 1.0614552356e+03 0.0000000000e+00 0.0000e+00 -1.0000e+00
       21 -1    0    0  501  503 -0.0000000000e+00 -0.0000000000e+00 -4.7496753336e+01 4.7496753336e+01 0.0000000000e+00 0.0000e+00 1.0000e+00
        6  1    1    2  501    0 -5.0559710028e+01 -7.5791608663e+01 +2.3437602077e+02 3.0522413295e+02 1.7300000000e+02 0.0000e+00 1.0000e+00
       -6  1    1    2    0  502 +5.0559710028e+01 +7.5791608663e+01 +7.7958246147e+02 8.0372785597e+02 1.7300000000e+02 0.0000e+00 -1.0000e+00
<mgrwt>
<rscale>  2 0.19552405E+03</rscale>
<asrwt>0</asrwt>
<pdfrwt beam="1">  1       21 0.16330079E+00 0.19552405E+03</pdfrwt>
<pdfrwt beam="2">  1       21 0.73071936E-02 0.19552405E+03</pdfrwt>
<totfact> 0.33386777E+04</totfact>
</mgrwt>
</event>
<event>
 4      2 +5.6305390e+02 2.17976600e+02 7.54677100e-03 1.13540100e-01
       21 -1    0    0  503  502 +0.0000000000e+00 +0.0000000000e+00 +2.8508412829e+02 2.8508412829e+02 0.0000000000e+00 0.0000e+00 -1.0000e+00
       21 -1    0    0  501  503 -0.0000000000e+00 -0.0000000000e+00 -7.0096271619e+02 7.0096271619e+02 0.0000000000e+00 0.0000e+00 1.0000e+00
        6  1    1    2  501    0 -8.2508971114e+01 -1.0381274235e+02 -6.3837804962e+02 6.7456678693e+02 1.7300000000e+02 0.0000e+00 1.0000e+00
       -6  1    1    2    0  502 +8.2508971114e+01 +1.0381274235e+02 +2.2249946172e+02 3.1148005755e+02 1.7300000000e+02 0.0000e+00 -1.0000e+00
<mgrwt>
<rscale>  2 0.21797664E+03</rscale>
<asrwt>0</asrwt>
<pdfrwt beam="1">  1       21 0.43859097E-01 0.21797664E+03</pdfrwt>
<pdfrwt beam="2">  1       21 0.10784042E+00 0.21797664E+03</pdfrwt>
<totfact> 0.33518491E+03</totfact>
</mgrwt>
</event>
<event>
 4      2 +5.6305390e+02 1.76451500e+02 7.54677100e-03 1.17128200e-01
        2 -1    0    0  502    0 +0.0000000000e+00 +0.0000000000e+00 +5.6074400393e+02 5.6074400393e+02 0.0000000000e+00 0.0000e+00 -1.0000e+00
       -2 -1    0    0    0  501 -0.0000000000e+00 -0.0000000000e+00 -9.1684435536e+01 9.1684435536e+01 0.0000000000e+00 0.0000e+00 1.0000e+00
        6  1    1    2  502    0 +2.8947505162e+01 -1.9187576051e+01 +2.9664706415e+01 1.7892768354e+02 1.7300000000e+02 0.0000e+00 1.0000e+00
       -6  1    1    2    0  501 -2.8947505162e+01 +1.9187576051e+01 +4.3939486198e+02 4.7350075593e+02 1.7300000000e+02 0.0000e+00 -1.0000e+00
<mgrwt>
<rscale>  2 0.17645147E+03</rscale>
<asrwt>0</asrwt>
<pdfrwt beam="1">  1        2 0.86268306E-01 0.17645147E+03</pdfrwt>
<pdfrwt beam="2">  1       -2 0.14105298E-01 0.17645147E+03</pdfrwt>
<totfact> 0.20483057E+03</totfact>
</mgrwt>
</event>
<event>
 4      3 +5.6305390e+02 1.47113600e+02 7.54677100e-03 1.20406500e-01
        2 -1    0    0  501    0 +0.0000000000e+00 +0.0000000000e+00 +6.0109361978e+02 6.0109361978e+02 0.0000000000e+00 0.0000e+00 -1.0000e+00
       -2 -1    0    0    0  501 -0.0000000000e+00 -0.0000000000e+00 -3.6005037369e+01 3.6005037369e+01 0.0000000000e+00 0.0000e+00 1.0000e+00
       24  1    1    2    0    0 +7.8509273029e+01 -9.4928738834e+01 +2.8231843250e+02 3.1834899825e+02 8.0419002446e+01 0.0000e+00 -1.0000e+00
      -24  1    1    2    0    0 -7.8509273029e+01 +9.4928738834e+01 +2.8277014991e+02 3.1874965889e+02 8.0419002446e+01 0.0000e+00 1.0000e+00
<mgrwt>
<rscale>  0 0.14711354E+03</rscale>
<asrwt>0</asrwt>
<pdfrwt beam="1">  1        2 0.92475934E-01 0.14711356E+03</pdfrwt>
<pdfrwt beam="2">  1       -2 0.55392370E-02 0.14711356E+03</pdfrwt>
<totfact> 0.81173243E+03</totfact>
</mgrwt>
</event>
<event>
 4      2 +5.6305390e+02 1.96363000e+02 7.54677100e-03 1.15284400e-01
       21 -1    0    0  503  502 +0.0000000000e+00 +0.0000000000e+00 +1.4841774474e+02 1.4841774474e+02 0.0000000000e+00 0.0000e+00 -1.0000e+00
       21 -1    0    0  501  503 -0.0000000000e+00 -0.0000000000e+00 -3.9322058693e+02 3.9322058693e+02 0.0000000000e+00 0.0000e+00 -1.0000e+00
        6  1    1    2  501    0 +6.1963475963e+01 -6.9209386503e+01 -2.8015469543e+02 3.4211849541e+02 1.7300000000e+02 0.0000e+00 -1.0000e+00
       -6  1    1    2    0  502 -6.1963475963e+01 +6.9209386503e+01 +3.5351853241e+01 1.9951983626e+02 1.7300000000e+02 0.0000e+00 -1.0000e+00
<mgrwt>
<rscale>  2 0.19636296E+03</rscale>
<asrwt>0</asrwt>
<pdfrwt beam="1">  1       21 0.22833499E-01 0.19636296E+03</pdfrwt>
<pdfrwt beam="2">  1       21 0.60495474E-01 0.19636296E+03</pdfrwt>
<totfact> 0.45725682E+04</totfact>
</mgrwt>
</event>
<event>
 4      2 +5.6305390e+02 2.15439100e+02 7.54677100e-03 1.13733000e-01
       -2 -1    0    0    0  501 -0.0000000000e+00 +0.0000000000e+00 +7.8414541170e+01 7.8414541170e+01 0.0000000000e+00 0.0000e+00 -1.0000e+00
        2 -1    0    0  502    0 +0.0000000000e+00 -0.0000000000e+00 -6.1413290095e+02 6.1413290095e+02 0.0000000000e+00 0.0000e+00 1.0000e+00
        6  1    1    2  502    0 -9.5790592858e+00 +1.2803608960e+02 -3.3373600212e+02 3.9723257385e+02 1.7300000000e+02 0.0000e+00 -1.0000e+00
       -6  1    1    2    0  501 +9.5790592858e+00 -1.2803608960e+02 -2.0198235766e+02 2.9531486827e+02 1.7300000000e+02 0.0000e+00 1.0000e+00
<mgrwt>
<rscale>  2 0.21543908E+03</rscale>
<asrwt>0</asrwt>
<pdfrwt beam="1">  1        2 0.94481986E-01 0.21543908E+03</pdfrwt>
<pdfrwt beam="2">  1       -2 0.12063775E-01 0.21543908E+03</pdfrwt>
<totfact> 0.23894266E+03</totfact>
</mgrwt>
</event>
<event>
 4      3 +5.6305390e+02 8.92203100e+01 7.54677100e-03 1.30475100e-01
        2 -1    0    0  501    0 +0.0000000000e+00 +0.0000000000e+00 +7.0850464725e+02 7.0850464725e+02 0.0000000000e+00 0.0000e+00 -1.0000e+00
       -2 -1    0    0    0  501 -0.0000000000e+00 -0.0000000000e+00 -1.8333179348e+01 1.8333179348e+01 0.0000000000e+00 0.0000e+00 1.0000e+00
       24  1    1    2    0    0 +3.7889480566e+01 -7.5785964255e+00 +5.7121296837e+02 5.7813884063e+02 8.0419002446e+01 0.0000e+00 -1.0000e+00
      -24  1    1    2    0    0 -3.7889480566e+01 +7.5785964255e+00 +1.1895849953e+02 1.4869898596e+02 8.0419002446e+01 0.0000e+00 1.0000e+00
<mgrwt>
<rscale>  0 0.89220311E+02</rscale>
<asrwt>0</asrwt>
<pdfrwt beam="1">  1        2 0.10900069E+00 0.89220311E+02</pdfrwt>
<pdfrwt beam="2">  1       -2 0.28204897E-02 0.89220311E+02</pdfrwt>
<totfact> 0.17562935E+04</totfact>
</mgrwt>
</event>
<event>
 4      2 +5.6305390e+02 2.16770500e+02 7.54677100e-03 1.13631400e-01
       21 -1    0    0  501  502 +0.0000000000e+00 +0.0000000000e+00 +7.2110119873e+02 7.2110119873e+02 0.0000000000e+00 0.0000e+00 1.0000e+00
       21 -1    0    0  502  503 -0.0000000000e+00 -0.0000000000e+00 -7.7637347963e+01 7.7637347963e+01 0.0000000000e+00 0.0000e+00 -1.0000e+00
        6  1    1    2  501    0 -9.2799106499e+01 -9.1917247839e+01 +1.6165081466e+02 2.7040791501e+02 1.7300000000e+02 0.0000e+00 -1.0000e+00
       -6  1    1    2    0  503 +9.2799106499e+01 +9.1917247839e+01 +4.8181303610e+02 5.2833063168e+02 1.7300000000e+02 0.0000e+00 1.0000e+00
<mgrwt>
<rscale>  2 0.21677051E+03</rscale>
<asrwt>0</asrwt>
<pdfrwt beam="1">  1       21 0.11093864E+00 0.21677051E+03</pdfrwt>
<pdfrwt beam="2">  1       21 0.11944208E-01 0.21677051E+03</pdfrwt>
<totfact> 0.37365900E+04</totfact>
</mgrwt>
</event>
<event>
 4      2 +5.6305390e+02 1.79116000e+02 7.54677100e-03 1.16866100e-01
       21 -1    0    0  503  502 +0.0000000000e+00 +0.0000000000e+00 +6.7661387495e+02 6.7661387495e+02 0.0000000000e+00 0.0000e+00 -1.0000e+00
       21 -1    0    0  501  503 -0.0000000000e+00 -0.0000000000e+00 -5.1540747285e+01 5.1540747285e+01 0.0000000000e+00 0.0000e+00 1.0000e+00
        6  1    1    2  501    0 -4.6247000287e+01 +3.8407356534e+00 +2.0954530297e+02 2.7566604848e+02 1.7300000000e+02 0.0000e+00 1.0000e+00
       -6  1    1    2    0  502 +4.6247000287e+01 -3.8407356534e+00 +4.1552782469e+02 4.5248857376e+02 1.7300000000e+02 0.0000e+00 -1.0000e+00
<mgrwt>
<rscale>  2 0.17911599E+03</rscale>
<asrwt>0</asrwt>
<pdfrwt beam="1">  1       21 0.10409444E+00 0.17911599E+03</pdfrwt>
<pdfrwt beam="2">  1       21 0.79293462E-02 0.17911599E+03</pdfrwt>
<totfact> 0.91436243E+04</totfact>
</mgrwt>
</event>
<event>
 4      3 +5.6305390e+02 1.13374600e+02 7.54677100e-03 1.25444500e-01
       -1 -1    0    0    0  501 -0.0000000000e+00 +0.0000000000e+00 +1.6612918182e+02 1.6612918182e+02 0.0000000000e+00 0.0000e+00 1.0000e+00
        1 -1    0    0  501    0 +0.0000000000e+00 -0.0000000000e+00 -4.7021514717e+02 4.7021514717e+02 0.0000000000e+00 0.0000e+00 -1.0000e+00
       24  1    1    2    0    0 +6.7266283063e+01 -4.3148980320e+01 +1.3877635337e+02 1.7920011035e+02 8.0419002446e+01 0.0000e+00 1.0000e+00
      -24  1    1    2    0    0 -6.7266283063e+01 +4.3148980320e+01 -4.4286231872e+02 4.5714421864e+02 8.0419002446e+01 0.0000e+00 -1.0000e+00
<mgrwt>
<rscale>  0 0.11337461E+03</rscale>
<asrwt>0</asrwt>
<pdfrwt beam="1">  1        1 0.72340791E-01 0.11337461E+03</pdfrwt>
<pdfrwt beam="2">  1       -1 0.25558336E-01 0.11337461E+03</pdfrwt>
<totfact> 0.66125786E+02</totfact>
</mgrwt>
</event>
<event>
 4      2 +5.6305390e+02 1.81633200e+02 7.54677100e-03 1.16623200e-01
       21 -1    0    0  501  502 +0.0000000000e+00 +0.0000000000e+00 +4.8349873114e+02 4.8349873114e+02 0.0000000000e+00 0.0000e+00 -1.0000e+00
       21 -1    0    0  502  503 -0.0000000000e+00 -0.0000000000e+00 -6.8275004081e+01 6.8275004081e+01 0.0000000000e+00 0.0000e+00 -1.0000e+00
        6  1    1    2  501    0 +5.0173290447e+01 -2.3329460986e+01 +2.0077796066e+02 2.7074418241e+02 1.7300000000e+02 0.0000e+00 -1.0000e+00
       -6  1    1    2    0  503 -5.0173290447e+01 +2.3329460986e+01 +2.1444576640e+02 2.8102955281e+02 1.7300000000e+02 0.0000e+00 -1.0000e+00
<mgrwt>
<rscale>  2 0.18163321E+03</rscale>
<asrwt>0</asrwt>
<pdfrwt beam="1">  1       21 0.74384418E-01 0.18163321E+03</pdfrwt>
<pdfrwt beam="2">  1       21 0.10503847E-01 0.18163321E+03</pdfrwt>
<totfact> 0.12094702E+05</totfact>
</mgrwt>
</event>
<event>
 4      2 +5.6305390e+02 1.94208200e+02 7.54677100e-03 1.15472000e-01
       21 -1    0    0  503  502 +0.0000000000e+00 +0.0000000000e+00 +3.9987870130e+02 3.9987870130e+02 0.0000000000e+00 0.0000e+00 1.0000e+00
       21 -1    0    0  501  503 -0.0000000000e+00 -0.0000000000e+00 -1.5160631919e+02 1.5160631919e+02 0.0000000000e+00 0.0000e+00 -1.0000e+00
        6  1    1    2  501    0 -2.5987826492e+01 +8.4335432923e+01 -4.5363121792e+01 1.9943581722e+02 1.7300000000e+02 0.0000e+00 -1.0000e+00
       -6  1    1    2    0  502 +2.5987826492e+01 -8.4335432923e+01 +2.9363550390e+02 3.5204920327e+02 1.7300000000e+02 0.0000e+00 1.0000e+00
<mgrwt>
<rscale>  2 0.19420822E+03</rscale>
<asrwt>0</asrwt>
<pdfrwt beam="1">  1       21 0.61519800E-01 0.19420822E+03</pdfrwt>
<pdfrwt beam="2">  1       21 0.23324049E-01 0.19420822E+03</pdfrwt>
<totfact> 0.42408668E+04</totfact>
</mgrwt>
</event>
<event>
 4      3 +5.6305390e+02 8.75715700e+01 7.54677100e-03 1.30884100e-01
       -1 -1    0    0    0  501 -0.0000000000e+00 +0.0000000000e+00 +9.4150952222e+00 9.4150952222e+00 0.0000000000e+00 0.0000e+00 1.0000e+00
        1 -1    0    0  501    0 +0.0000000000e+00 -0.0000000000e+00 -1.0458208396e+03 1.0458208396e+03 0.0000000000e+00 0.0000e+00 -1.0000e+00
       24  1    1    2    0    0 +2.5179406810e+01 -2.3823558702e+01 -2.7007255686e+02 2.8391542121e+02 8.0419002446e+01 0.0000e+00 1.0000e+00
      -24  1    1    2    0    0 -2.5179406810e+01 +2.3823558702e+01 -7.6633318756e+02 7.7132051365e+02 8.0419002446e+01 0.0000e+00 -1.0000e+00
<mgrwt>
<rscale>  0 0.87571573E+02</rscale>
<asrwt>0</asrwt>
<pdfrwt beam="1">  1        1 0.16089558E+00 0.87571573E+02</pdfrwt>
<pdfrwt beam="2">  1       -1 0.14484756E-02 0.87571573E+02</pdfrwt>
<totfact> 0.15069525E+04</totfact>
</mgrwt>
</event>
<event>
 4      2 +5.6305390e+02 2.08465600e+02 7.54677100e-03 1.14278700e-01
       21 -1    0    0  501  502 +0.0000000000e+00 +0.0000000000e+00 +5.9132948431e+02 5.9132948431e+02 0.0000000000e+00 0.0000e+00 1.0000e+00
       21 -1    0    0  502  503 -0.0000000000e+00 -0.0000000000e+00 -8.4847748234e+01 8.4847748234e+01 0.0000000000e+00 0.0000e+00 -1.0000e+00
        6  1    1    2  501    0 -2.1408927870e+01 -1.1432658906e+02 +3.7692691230e+02 4.3073403439e+02 1.7300000000e+02 0.0000e+00 -1.0000e+00
       -6  1    1    2    0  503 +2.1408927870e+01 +1.1432658906e+02 +1.2955482377e+02 2.4544319816e+02 1.7300000000e+02 0.0000e+00 1.0000e+00
<mgrwt>
<rscale>  2 0.20846561E+03</rscale>
<asrwt>0</asrwt>
<pdfrwt beam="1">  1       21 0.90973764E-01 0.20846561E+03</pdfrwt>
<pdfrwt beam="2">  1       21 0.13053500E-01 0.20846561E+03</pdfrwt>
<totfact> 0.51296141E+04</totfact>
</mgrwt>
</event>
<event>
 4      2 +5.6305390e+02 2.37692700e+02 7.54677100e-03 1.12133900e-01
       21 -1    0    0  503  502 +0.0000000000e+00 +0.0000000000e+00 +8.6625543572e+02 8.6625543572e+02 0.0000000000e+00 0.0000e+00 -1.0000e+00
       21 -1    0    0  501  503 -0.0000000000e+00 -0.0000000000e+00 -6.8216926472e+01 6.8216926472e+01 0.0000000000e+00 0.0000e+00 -1.0000e+00
        6  1    1    2  501    0 -1.6071459936e+02 +2.7196687876e+01 +4.9693961265e+02 5.5086007379e+02 1.7300000000e+02 0.0000e+00 1.0000e+00
       -6  1    1    2    0  502 +1.6071459936e+02 -2.7196687876e+01 +3.0109889660e+02 3.8361228840e+02 1.7300000000e+02 0.0000e+00 1.0000e+00
<mgrwt>
<rscale>  2 0.23769275E+03</rscale>
<asrwt>0</asrwt>
<pdfrwt beam="1">  1       21 0.13327006E+00 0.23769275E+03</pdfrwt>
<pdfrwt beam="2">  1       21 0.10494912E-01 0.23769275E+03</pdfrwt>
<totfact> 0.29476889E+04</totfact>
</mgrwt>
</event>
<event>
 4      2 +5.6305390e+02 1.90529400e+02 7.54677100e-03 1.15798500e-01
       21 -1    0    0  501  502 +0.0000000000e+00 +0.0000000000e+00 +7.5335025854e+02 7.5335025854e+02 0.0000000000e+00 0.0000e+00 -1.0000e+00
       21 -1    0    0  502  503 -0.0000000000e+00 -0.0000000000e+00 -2.1217236603e+02 2.1217236603e+02 0.0000000000e+00 0.0000e+00 -1.0000e+00
        6  1    1    2  501    0 -6.8874258565e+01 +4.0358087596e+01 +6.9500425048e+02 7.2064717228e+02 1.7300000000e+02 0.0000e+00 -1.0000e+00
       -6  1    1    2    0  503 +6.8874258565e+01 -4.0358087596e+01 -1.5382635798e+02 2.4487545229e+02 1.7300000000e+02 0.0000e+00 -1.0000e+00
<mgrwt>
<rscale>  2 0.19052936E+03</rscale>
<asrwt>0</asrwt>
<pdfrwt beam="1">  1       21 0.11590004E+00 0.19052936E+03</pdfrwt>
<pdfrwt beam="2">  1       21 0.32641903E-01 0.19052936E+03</pdfrwt>
<totfact> 0.52046979E+03</totfact>
</mgrwt>
</event>
<event>
 4      2 +5.6305390e+02 2.86900700e+02 7.54677100e-03 1.09197800e-01
       -1 -1    0    0    0  501 -0.0000000000e+00 +0.0000000000e+00 +4.6483700560e+01 4.6483700560e+01 0.0000000000e+00 0.0000e+00 1.0000e+00
        1 -1    0    0  502    0 +0.0000000000e+00 -0.0000000000e+00 -1.7746977775e+03 1.7746977775e+03 0.0000000000e+00 0.0000e+00 -1.0000e+00
        6  1    1    2  502    0 +2.1349786180e+02 +8.2472393424e+01 -9.0693497294e+02 9.5123239947e+02 1.7300000000e+02 0.0000e+00 1.0000e+00
       -6  1    1    2    0  501 -2.1349786180e+02 -8.2472393424e+01 -8.2127910404e+02 8.6994907862e+02 1.7300000000e+02 0.0000e+00 1.0000e+00
<mgrwt>
<rscale>  2 0.28690074E+03</rscale>
<asrwt>0</asrwt>
<pdfrwt beam="1">  1        1 0.27303041E+00 0.28690074E+03</pdfrwt>
<pdfrwt beam="2">  1       -1 0.71513390E-02 0.28690074E+03</pdfrwt>
<totfact> 0.48257062E+02</totfact>
</mgrwt>
</event>
<event>
 4      2 +5.6305390e+02 1.86775300e+02 7.54677100e-03 1.16140200e-01
       21 -1    0    0  501  502 +0.0000000000e+00 +0.0000000000e+00 +1.0312874120e+03 1.0312874120e+03 0.0000000000e+00 0.0000e+00 -1.0000e+00
       21 -1    0    0  502  503 -0.0000000000e+00 -0.0000000000e+00 -4.5996520881e+01 4.5996520881e+01 0.0000000000e+00 0.0000e+00 -1.0000e+00
        6  1    1    2  501    0 -4.1826605881e+01 -5.6626361149e+01 +7.6970969010e+02 7.9204672638e+02 1.7300000000e+02 0.0000e+00 -1.0000e+00
       -6  1    1    2    0  503 +4.1826605881e+01 +5.6626361149e+01 +2.1558120100e+02 2.8523720648e+02 1.7300000000e+02 0.0000e+00 -1.0000e+00
<mgrwt>
<rscale>  2 0.18677529E+03</rscale>
<asrwt>0</asrwt>
<pdfrwt beam="1">  1       21 0.15865958E+00 0.18677529E+03</pdfrwt>
<pdfrwt beam="2">  1       21 0.70763886E-02 0.18677529E+03</pdfrwt>
<totfact> 0.38357997E+04</totfact>
</mgrwt>
</event>
<event>
 4      2 +5.6305390e+02 1.87312100e+02 7.54677100e-03 1.16090800e-01
       21 -1    0    0  501  502 +0.0000000000e+00 +0.0000000000e+00 +4.2030772134e+02 4.2030772134e+02 0.0000000000e+00 0.0000e+00 1.0000e+00
       21 -1    0    0  502  503 -0.0000000000e+00 -0.0000000000e+00 -9.6385565022e+01 9.6385565022e+01 0.0000000000e+00 0.0000e+00 1.0000e+00
        6  1    1    2  501    0 -7.1399221099e+01 +7.6802144694e+00 +2.5650716079e+02 3.1761888798e+02 1.7300000000e+02 0.0000e+00 1.0000e+00
       -6  1    1    2    0  503 +7.1399221099e+01 -7.6802144694e+00 +6.7414995529e+01 1.9907439838e+02 1.7300000000e+02 0.0000e+00 1.0000e+00
<mgrwt>
<rscale>  2 0.18731213E+03</rscale>
<asrwt>0</asrwt>
<pdfrwt beam="1">  1       21 0.64662725E-01 0.18731213E+03</pdfrwt>
<pdfrwt beam="2">  1       21 0.14828549E-01 0.18731213E+03</pdfrwt>
<totfact> 0.88488115E+04</totfact>
</mgrwt>
</event>
<event>
 4      2 +5.6305390e+02 1.75670900e+02 7.54677100e-03 1.17206000e-01
       21 -1    0    0  501  502 +0.0000000000e+00 +0.0000000000e+00 +1.5446599644e+02 1.5446599644e+02 0.0000000000e+00 0.0000e+00 1.0000e+00
       21 -1    0    0  502  503 -0.0000000000e+00 -0.0000000000e+00 -4.2889021305e+02 4.2889021305e+02 0.0000000000e+00 0.0000e+00 1.0000e+00
        6  1    1    2  501    0 +5.0815846320e+00 +3.0090458561e+01 +7.5967959370e+01 1.9139328371e+02 1.7300000000e+02 0.0000e+00 1.0000e+00
       -6  1    1    2    0  503 -5.0815846320e+00 -3.0090458561e+01 -3.5039217598e+02 3.9196292578e+02 1.7300000000e+02 0.0000e+00 1.0000e+00
<mgrwt>
<rscale>  2 0.17567088E+03</rscale>
<asrwt>0</asrwt>
<pdfrwt beam="1">  1       21 0.23763999E-01 0.17567088E+03</pdfrwt>
<pdfrwt beam="2">  1       21 0.65983110E-01 0.17567088E+03</pdfrwt>
<totfact> 0.35504778E+04</totfact>
</mgrwt>
</event>
<event>
 4      2 +5.6305390e+02 1.80532000e+02 7.54677100e-03 1.16728900e-01
       21 -1    0    0  503  502 +0.0000000000e+00 +0.0000000000e+00 +4.0125661373e+02 4.0125661373e+02 0.0000000000e+00 0.0000e+00 -1.0000e+00
       21 -1    0    0  501  503 -0.0000000000e+00 -0.0000000000e+00 -9.1312451826e+01 9.1312451826e+01 0.0000000000e+00 0.0000e+00 -1.0000e+00
        6  1    1    2  501    0 -4.8428770016e+01 -1.7816825600e+01 +7.3110886623e+01 1.9477419434e+02 1.7300000000e+02 0.0000e+00 -1.0000e+00
       -6  1    1    2    0  502 +4.8428770016e+01 +1.7816825600e+01 +2.3683327528e+02 2.9779487121e+02 1.7300000000e+02 0.0000e+00 -1.0000e+00
<mgrwt>
<rscale>  2 0.18053195E+03</rscale>
<asrwt>0</asrwt>
<pdfrwt beam="1">  1       21 0.61731786E-01 0.18053195E+03</pdfrwt>
<pdfrwt beam="2">  1       21 0.14048070E-01 0.18053195E+03</pdfrwt>
<totfact> 0.10818839E+05</totfact>
</mgrwt>
</event>
<event>
 4      2 +5.6305390e+02 1.85353000e+02 7.54677100e-03 1.16272100e-01
       21 -1    0    0  503  502 +0.0000000000e+00 +0.0000000000e+00 +3.7580729499e+02 3.7580729499e+02 0.0000000000e+00 0.0000e+00 1.0000e+00
       21 -1    0    0  501  503 -0.0000000000e+00 -0.0000000000e+00 -1.7226266003e+02 1.7226266003e+02 0.0000000000e+00 0.0000e+00 1.0000e+00
        6  1    1    2  501    0 -2.3713078473e+01 +6.2164518325e+01 -8.5958150942e+01 2.0431480892e+02 1.7300000000e+02 0.0000e+00 1.0000e+00
       -6  1    1    2    0  502 +2.3713078473e+01 -6.2164518325e+01 +2.8950278590e+02 3.4375514611e+02 1.7300000000e+02 0.0000e+00 1.0000e+00
<mgrwt>
<rscale>  2 0.18535301E+03</rscale>
<asrwt>0</asrwt>
<pdfrwt beam="1">  1       21 0.57816507E-01 0.18535301E+03</pdfrwt>
<pdfrwt beam="2">  1       21 0.26501948E-01 0.18535301E+03</pdfrwt>
<totfact> 0.38138983E+04</totfact>
</mgrwt>
</event>
<event>
 4      2 +5.6305390e+02 1.80898800e+02 7.54677100e-03 1.16693600e-01
       21 -1    0    0  503  502 +0.0000000000e+00 +0.0000000000e+00 +5.7444658698e+01 5.7444658698e+01 0.0000000000e+00 0.0000e+00 1.0000e+00
       21 -1    0    0  501  503 -0.0000000000e+00 -0.0000000000e+00 -6.3504916669e+02 6.3504916669e+02 0.0000000000e+00 0.0000e+00 1.0000e+00
        6  1    1    2  501    0 +4.5254355361e+01 -2.7338978827e+01 -3.9990095848e+02 4.3891360543e+02 1.7300000000e+02 0.0000e+00 1.0000e+00
       -6  1    1    2    0  502 -4.5254355361e+01 +2.7338978827e+01 -1.7770354951e+02 2.5358021995e+02 1.7300000000e+02 0.0000e+00 1.0000e+00
<mgrwt>
<rscale>  2 0.18089880E+03</rscale>
<asrwt>0</asrwt>
<pdfrwt beam="1">  1       21 0.88376388E-02 0.18089880E+03</pdfrwt>
<pdfrwt beam="2">  1       21 0.97699883E-01 0.18089880E+03</pdfrwt>
<totfact> 0.87910178E+04</totfact>
</mgrwt>
</event>
<event>
 4      2 +5.6305390e+02 1.84281200e+02 7.54677100e-03 1.16372300e-01
       21 -1    0    0  503  502 +0.0000000000e+00 +0.0000000000e+00 +7.0725028793e+01 7.0725028793e+01 0.0000000000e+00 0.0000e+00 1.0000e+00
       21 -1    0    0  501  503 -0.0000000000e+00 -0.0000000000e+00 -6.8315502046e+02 6.8315502046e+02 0.0000000000e+00 0.0000e+00 1.0000e+00
        6  1    1    2  501    0 +3.8222507011e+01 +5.0691080285e+01 -5.1168671289e+02 5.4385920771e+02 1.7300000000e+02 0.0000e+00 1.0000e+00
       -6  1    1    2    0  502 -3.8222507011e+01 -5.0691080285e+01 -1.0074327877e+02 2.1002084154e+02 1.7300000000e+02 0.0000e+00 1.0000e+00
<mgrwt>
<rscale>  2 0.18428116E+03</rscale>
<asrwt>0</asrwt>
<pdfrwt beam="1">  1       21 0.10880774E-01 0.18428116E+03</pdfrwt>
<pdfrwt beam="2">  1       21 0.10510077E+00 0.18428116E+03</pdfrwt>
<totfact> 0.51146118E+04</totfact>
</mgrwt>
</event>
<event>
 4      2 +5.6305390e+02 2.87194000e+02 7.54677100e-03 1.09182300e-01
       21 -1    0    0  501  502 +0.0000000000e+00 +0.0000000000e+00 +1.0353422622e+03 1.0353422622e+03 0.0000000000e+00 0.0000e+00 -1.0000e+00
       21 -1    0    0  502  503 -0.0000000000e+00 -0.0000000000e+00 -1.4861976205e+02 1.4861976205e+02 0.0000000000e+00 0.0000e+00 1.0000e+00
        6  1    1    2  501    0 +1.7133990742e+02 -1.5229590360e+02 +8.4659051060e+02 8.9397757174e+02 1.7300000000e+02 0.0000e+00 -1.0000e+00
       -6  1    1    2    0  503 -1.7133990742e+02 +1.5229590360e+02 +4.0131989582e+01 2.8998445254e+02 1.7300000000e+02 0.0000e+00 1.0000e+00
<mgrwt>
<rscale>  2 0.28719402E+03</rscale>
<asrwt>0</asrwt>
<pdfrwt beam="1">  1       21 0.15928342E+00 0.28719402E+03</pdfrwt>
<pdfrwt beam="2">  1       21 0.22864579E-01 0.28719402E+03</pdfrwt>
<totfact> 0.42687513E+03</totfact>
</mgrwt>
</event>
<event>
 4      2 +5.6305390e+02 1.78722500e+02 7.54677100e-03 1.16904500e-01
        4 -1    0    0  502    0 +0.0000000000e+00 +0.0000000000e+00 +2.9555980061e+02 2.9555980061e+02 0.0000000000e+00 0.0000e+00 -1.0000e+00
       -4 -1    0    0    0  501 -0.0000000000e+00 -0.0000000000e+00 -1.1175061973e+02 1.1175061973e+02 0.0000000000e+00 0.0000e+00 1.0000e+00
        6  1    1    2  502    0 -8.0400988147e+00 -4.4137181708e+01 +5.4954631809e+01 1.8698060208e+02 1.7300000000e+02 0.0000e+00 1.0000e+00
       -6  1    1    2    0  501 +8.0400988147e+00 +4.4137181708e+01 +1.2885454906e+02 2.2032981826e+02 1.7300000000e+02 0.0000e+00 1.0000e+00
<mgrwt>
<rscale>  2 0.17872251E+03</rscale>
<asrwt>0</asrwt>
<pdfrwt beam="1">  1        4 0.45470738E-01 0.17872251E+03</pdfrwt>
<pdfrwt beam="2">  1       -4 0.17192403E-01 0.17872251E+03</pdfrwt>
<totfact> 0.24343859E+02</totfact>
</mgrwt>
</event>
<event>
 4      3 +5.6305390e+02 1.86826500e+02 7.54677100e-03 1.16135500e-01
       -2 -1    0    0    0  501 -0.0000000000e+00 +0.0000000000e+00 +2.9577527592e+01 2.9577527592e+01 0.0000000000e+00 0.0000e+00 1.0000e+00
        2 -1    0    0  501    0 +0.0000000000e+00 -0.0000000000e+00 -1.2101895173e+03 1.2101895173e+03 0.0000000000e+00 0.0000e+00 -1.0000e+00
       24  1    1    2    0    0 -1.6378812657e+02 -4.0129243598e+01 -4.9254434416e+02 5.2678653506e+02 8.0419002446e+01 0.0000e+00 1.0000e+00
      -24  1    1    2    0    0 +1.6378812657e+02 +4.0129243598e+01 -6.8806764552e+02 7.1298050980e+02 8.0419002446e+01 0.0000e+00 0.0000e+00
<mgrwt>
<rscale>  0 0.18682647E+03</rscale>
<asrwt>0</asrwt>
<pdfrwt beam="1">  1        2 0.18618296E+00 0.18682650E+03</pdfrwt>
<pdfrwt beam="2">  1       -2 0.45503898E-02 0.18682650E+03</pdfrwt>
<totfact> 0.44172590E+03</totfact>
</mgrwt>
</event>
<event>
 4      2 +5.6305390e+02 2.02301100e+02 7.54677100e-03 1.14781200e-01
       21 -1    0    0  501  502 +0.0000000000e+00 +0.0000000000e+00 +3.5708956472e+02 3.5708956472e+02 0.0000000000e+00 0.0000e+00 1.0000e+00
       21 -1    0    0  502  503 -0.0000000000e+00 -0.0000000000e+00 -1.2521062747e+02 1.2521062747e+02 0.0000000000e+00 0.0000e+00 1.0000e+00
        6  1    1    2  501    0 +1.0409270048e+02 +1.2706801377e+01 +1.8610903637e+02 2.7488602459e+02 1.7300000000e+02 0.0000e+00 1.0000e+00
       -6  1    1    2    0  503 -1.0409270048e+02 -1.2706801377e+01 +4.5769900879e+01 2.0741416760e+02 1.7300000000e+02 0.0000e+00 1.0000e+00
<mgrwt>
<rscale>  2 0.20230114E+03</rscale>
<asrwt>0</asrwt>
<pdfrwt beam="1">  1       21 0.54936856E-01 0.20230114E+03</pdfrwt>
<pdfrwt beam="2">  1       21 0.19263174E-01 0.20230114E+03</pdfrwt>
<totfact> 0.77081723E+04</totfact>
</mgrwt>
</event>
<event>
 4      2 +5.6305390e+02 1.81819100e+02 7.54677100e-03 1.16605400e-01
       21 -1    0    0  501  502 +0.0000000000e+00 +0.0000000000e+00 +1.4956767814e+03 1.4956767814e+03 0.0000000000e+00 0.0000e+00 1.0000e+00
       21 -1    0    0  502  503 -0.0000000000e+00 -0.0000000000e+00 -2.5809491673e+01 2.5809491673e+01 0.0000000000e+00 0.0000e+00 1.0000e+00
        6  1    1    2  501    0 +3.5057818120e+01 -4.3590350589e+01 +1.0232439539e+03 1.0392720329e+03 1.7300000000e+02 0.0000e+00 1.0000e+00
       -6  1    1    2    0  503 -3.5057818120e+01 +4.3590350589e+01 +4.4662333587e+02 4.8221424017e+02 1.7300000000e+02 0.0000e+00 1.0000e+00
<mgrwt>
<rscale>  2 0.18181906E+03</rscale>
<asrwt>0</asrwt>
<pdfrwt beam="1">  1       21 0.23010405E+00 0.18181906E+03</pdfrwt>
<pdfrwt beam="2">  1       21 0.39706922E-02 0.18181906E+03</pdfrwt>
<totfact> 0.34935518E+04</totfact>
</mgrwt>
</event>
<event>
 4      2 +5.6305390e+02 1.91751900e+02 7.54677100e-03 1.15689100e-01
       21 -1    0    0  501  502 +0.0000000000e+00 +0.0000000000e+00 +3.4959274559e+02 3.4959274559e+02 0.0000000000e+00 0.0000e+00 1.0000e+00
       21 -1    0    0  502  503 -0.0000000000e+00 -0.0000000000e+00 -1.0711955795e+02 1.0711955795e+02 0.0000000000e+00 0.0000e+00 1.0000e+00
        6  1    1    2  501    0 +7.6158299096e+01 +3.2244271443e+01 +9.0477542470e+01 2.1202585987e+02 1.7300000000e+02 0.0000e+00 1.0000e+00
       -6  1    1    2    0  503 -7.6158299096e+01 -3.2244271443e+01 +1.5199564518e+02 2.4468644367e+02 1.7300000000e+02 0.0000e+00 1.0000e+00
<mgrwt>
<rscale>  2 0.19175187E+03</rscale>
<asrwt>0</asrwt>
<pdfrwt beam="1">  1       21 0.53783498E-01 0.19175187E+03</pdfrwt>
<pdfrwt beam="2">  1       21 0.16479932E-01 0.19175187E+03</pdfrwt>
<totfact> 0.10805029E+05</totfact>
</mgrwt>
</event>
<event>
 4      2 +5.6305390e+02 1.81584200e+02 7.54677100e-03 1.16627900e-01
       21 -1    0    0  503  502 +0.0000000000e+00 +0.0000000000e+00 +1.3282500101e+03 1.3282500101e+03 0.0000000000e+00 0.0000e+00 -1.0000e+00
       21 -1    0    0  501  503 -0.0000000000e+00 -0.0000000000e+00 -3.0029358492e+01 3.0029358492e+01 0.0000000000e+00 0.0000e+00 -1.0000e+00
        6  1    1    2  501    0 -4.1665897856e+01 -3.6163365041e+01 +3.6636191873e+02 4.0889349654e+02 1.7300000000e+02 0.0000e+00 -1.0000e+00
       -6  1    1    2    0  502 +4.1665897856e+01 +3.6163365041e+01 +9.3185873287e+02 9.4938587205e+02 1.7300000000e+02 0.0000e+00 -1.0000e+00
<mgrwt>
<rscale>  2 0.18158424E+03</rscale>
<asrwt>0</asrwt>
<pdfrwt beam="1">  1       21 0.20434611E+00 0.18158424E+03</pdfrwt>
<pdfrwt beam="2">  1       21 0.46199023E-02 0.18158424E+03</pdfrwt>
<totfact> 0.39032700E+04</totfact>
</mgrwt>
</event>
<event>
 4      3 +5.6305390e+02 9.62862400e+01 7.54677100e-03 1.28830500e-01
        2 -1    0    0  501    0 +0.0000000000e+00 +0.0000000000e+00 +1.2284579340e+03 1.2284579340e+03 0.0000000000e+00 0.0000e+00 -1.0000e+00
       -2 -1    0    0    0  501 -0.0000000000e+00 -0.0000000000e+00 -7.6063427788e+00 7.6063427788e+00 0.0000000000e+00 0.0000e+00 1.0000e+00
       24  1    1    2    0    0 -4.1922999594e+01 -3.2346334820e+01 +6.6506473628e+02 6.7199861806e+02 8.0419002446e+01 0.0000e+00 -1.0000e+00
      -24  1    1    2    0    0 +4.1922999594e+01 +3.2346334820e+01 +5.5578685496e+02 5.6406565874e+02 8.0419002446e+01 0.0000e+00 0.0000e+00
<mgrwt>
<rscale>  0 0.96286236E+02</rscale>
<asrwt>0</asrwt>
<pdfrwt beam="1">  1        2 0.18899337E+00 0.96286236E+02</pdfrwt>
<pdfrwt beam="2">  1       -2 0.11702076E-02 0.96286236E+02</pdfrwt>
<totfact> 0.30208476E+04</totfact>
</mgrwt>
</event>
<event>
 4      3 +5.6305390e+02 8.42862800e+01 7.54677100e-03 1.31731000e-01
       -1 -1    0    0    0  501 -0.0000000000e+00 +0.0000000000e+00 +4.3216489141e+01 4.3216489141e+01 0.0000000000e+00 0.0000e+00 1.0000e+00
        1 -1    0    0  501    0 +0.0000000000e+00 -0.0000000000e+00 -2.4201122653e+02 2.4201122653e+02 0.0000000000e+00 0.0000e+00 -1.0000e+00
       24  1    1    2    0    0 +2.1968935914e+01 +1.2422864502e+01 -1.8628139598e+01 8.6320248186e+01 8.0419002446e+01 0.0000e+00 1.0000e+00
      -24  1    1    2    0    0 -2.1968935914e+01 -1.2422864502e+01 -1.8016659779e+02 1.9890746749e+02 8.0419002446e+01 0.0000e+00 1.0000e+00
<mgrwt>
<rscale>  0 0.84286284E+02</rscale>
<asrwt>0</asrwt>
<pdfrwt beam="1">  1        1 0.37232497E-01 0.84286284E+02</pdfrwt>
<pdfrwt beam="2">  1       -1 0.66486906E-02 0.84286284E+02</pdfrwt>
<totfact> 0.11851650E+04</totfact>
</mgrwt>
</event>
<event>
 4      3 +5.6305390e+02 8.71546500e+01 7.54677100e-03 1.30989200e-01
       -2 -1    0    0    0  501 -0.0000000000e+00 +0.0000000000e+00 +1.5022849315e+01 1.5022849315e+01 0.0000000000e+00 0.0000e+00 1.0000e+00
        2 -1    0    0  501    0 +0.0000000000e+00 -0.0000000000e+00 -1.6617799277e+03 1.6617799277e+03 0.0000000000e+00 0.0000e+00 -1.0000e+00
       24  1    1    2    0    0 +1.8800149035e+01 +2.7843700358e+01 -1.5226940949e+03 1.5251862968e+03 8.0419002446e+01 0.0000e+00 -1.0000e+00
      -24  1    1    2    0    0 -1.8800149035e+01 -2.7843700358e+01 -1.2406298343e+02 1.5161648019e+02 8.0419002446e+01 0.0000e+00 1.0000e+00
<mgrwt>
<rscale>  0 0.87154651E+02</rscale>
<asrwt>0</asrwt>
<pdfrwt beam="1">  1        2 0.25565840E+00 0.87154651E+02</pdfrwt>
<pdfrwt beam="2">  1       -2 0.23112081E-02 0.87154651E+02</pdfrwt>
<totfact> 0.67699993E+03</totfact>
</mgrwt>
</event>
<event>
 4      2 +5.6305390e+02 2.51830800e+02 7.54677100e-03 1.11215300e-01
       21 -1    0    0  503  502 +0.0000000000e+00 +0.0000000000e+00 +1.5748959663e+02 1.5748959663e+02 0.0000000000e+00 0.0000e+00 -1.0000e+00
       21 -1    0    0  501  503 -0.0000000000e+00 -0.0000000000e+00 -9.1615113960e+02 9.1615113960e+02 0.0000000000e+00 0.0000e+00 1.0000e+00
        6  1    1    2  501    0 +1.8231293224e+02 -1.5867162540e+01 -7.8121515326e+02 8.2080197843e+02 1.7300000000e+02 0.0000e+00 1.0000e+00
       -6  1    1    2    0  502 -1.8231293224e+02 +1.5867162540e+01 +2.2553610290e+01 2.5283875780e+02 1.7300000000e+02 0.0000e+00 -1.0000e+00
<mgrwt>
<rscale>  2 0.25183084E+03</rscale>
<asrwt>0</asrwt>
<pdfrwt beam="1">  1       21 0.24229169E-01 0.25183084E+03</pdfrwt>
<pdfrwt beam="2">  1       21 0.14094633E+00 0.25183084E+03</pdfrwt>
<totfact> 0.54132561E+03</totfact>
</mgrwt>
</event>
<event>
 4      2 +5.6305390e+02 1.92667700e+02 7.54677100e-03 1.15607700e-01
       21 -1    0    0  501  502 +0.0000000000e+00 +0.0000000000e+00 +3.7600001423e+02 3.7600001423e+02 0.0000000000e+00 0.0000e+00 1.0000e+00
       21 -1    0    0  502  503 -0.0000000000e+00 -0.0000000000e+00 -1.6237861846e+02 1.6237861846e+02 0.0000000000e+00 0.0000e+00 1.0000e+00
        6  1    1    2  501    0 +8.4541725657e+00 +8.4382310409e+01 +2.7535059149e+02 3.3606367786e+02 1.7300000000e+02 0.0000e+00 1.0000e+00
       -6  1    1    2    0  503 -8.4541725657e+00 -8.4382310409e+01 -6.1729195721e+01 2.0231495483e+02 1.7300000000e+02 0.0000e+00 1.0000e+00
<mgrwt>
<rscale>  2 0.19266771E+03</rscale>
<asrwt>0</asrwt>
<pdfrwt beam="1">  1       21 0.57846156E-01 0.19266771E+03</pdfrwt>
<pdfrwt beam="2">  1       21 0.24981326E-01 0.19266771E+03</pdfrwt>
<totfact> 0.42506379E+04</totfact>
</mgrwt>
</event>
<event>
 4      2 +5.6305390e+02 1.99160400e+02 7.54677100e-03 1.15044900e-01
       -2 -1    0    0    0  501 -0.0000000000e+00 +0.0000000000e+00 +5.1928564772e+02 5.1928564772e+02 0.0000000000e+00 0.0000e+00 -1.0000e+00
        2 -1    0    0  502    0 +0.0000000000e+00 -0.0000000000e+00 -1.7001843729e+02 1.7001843729e+02 0.0000000000e+00 0.0000e+00 1.0000e+00
        6  1    1    2  502    0 +5.6232903110e+01 +8.1078414674e+01 +4.3040492108e+02 4.7425019221e+02 1.7300000000e+02 0.0000e+00 -1.0000e+00
       -6  1    1    2    0  501 -5.6232903110e+01 -8.1078414674e+01 -8.1137710652e+01 2.1505389280e+02 1.7300000000e+02 0.0000e+00 1.0000e+00
<mgrwt>
<rscale>  2 0.19916036E+03</rscale>
<asrwt>0</asrwt>
<pdfrwt beam="1">  1        2 0.26156683E-01 0.19916036E+03</pdfrwt>
<pdfrwt beam="2">  1       -2 0.79890099E-01 0.19916036E+03</pdfrwt>
<totfact> 0.29349306E+02</totfact>
</mgrwt>
</event>
<event>
 4      2 +5.6305390e+02 2.96484200e+02 7.54677100e-03 1.08701100e-01
       21 -1    0    0  503  502 +0.0000000000e+00 +0.0000000000e+00 +1.0515098844e+03 1.0515098844e+03 0.0000000000e+00 0.0000e+00 1.0000e+00
       21 -1    0    0  501  503 -0.0000000000e+00 -0.0000000000e+00 -2.1669197159e+02 2.1669197159e+02 0.0000000000e+00 0.0000e+00 -1.0000e+00
        6  1    1    2  501    0 -1.8422742355e+02 -1.5502941753e+02 -7.9547256831e+01 3.0697007991e+02 1.7300000000e+02 0.0000e+00 -1.0000e+00
       -6  1    1    2    0  502 +1.8422742355e+02 +1.5502941753e+02 +9.1436516962e+02 9.6123177606e+02 1.7300000000e+02 0.0000e+00 1.0000e+00
<mgrwt>
<rscale>  2 0.29648417E+03</rscale>
<asrwt>0</asrwt>
<pdfrwt beam="1">  1       21 0.16177075E+00 0.29648417E+03</pdfrwt>
<pdfrwt beam="2">  1       21 0.33337227E-01 0.29648417E+03</pdfrwt>
<totfact> 0.19499539E+03</totfact>
</mgrwt>
</event>
<event>
 4      2 +5.6305390e+02 2.52551700e+02 7.54677100e-03 1.11170300e-01
       21 -1    0    0  501  502 +0.0000000000e+00 +0.0000000000e+00 +4.2262433731e+02 4.2262433731e+02 0.0000000000e+00 0.0000e+00 -1.0000e+00
       21 -1    0    0  502  503 -0.0000000000e+00 -0.0000000000e+00 -1.5129382855e+02 1.5129382855e+02 0.0000000000e+00 0.0000e+00 1.0000e+00
        6  1    1    2  501    0 -8.1282145564e+01 -1.6506539590e+02 +1.2139692210e+02 2.8021346293e+02 1.7300000000e+02 0.0000e+00 1.0000e+00
       -6  1    1    2    0  503 +8.1282145564e+01 +1.6506539590e+02 +1.4993358666e+02 2.9370470293e+02 1.7300000000e+02 0.0000e+00 -1.0000e+00
<mgrwt>
<rscale>  2 0.25255172E+03</rscale>
<asrwt>0</asrwt>
<pdfrwt beam="1">  1       21 0.65019128E-01 0.25255172E+03</pdfrwt>
<pdfrwt beam="2">  1       21 0.23275974E-01 0.25255172E+03</pdfrwt>
<totfact> 0.36724557E+04</totfact>
</mgrwt>
</event>
<event>
 4      3 +5.6305390e+02 8.78585100e+01 7.54677100e-03 1.30812200e-01
        2 -1    0    0  501    0 +0.0000000000e+00 +0.0000000000e+00 +8.0959511462e+02 8.0959511462e+02 0.0000000000e+00 0.0000e+00 -1.0000e+00
       -2 -1    0    0    0  501 -0.0000000000e+00 -0.0000000000e+00 -2.0835093055e+01 2.0835093055e+01 0.0000000000e+00 0.0000e+00 1.0000e+00
       24  1    1    2    0    0 -1.2514992439e+00 +3.5360075168e+01 +7.0017141081e+02 7.0566218663e+02 8.0419002446e+01 0.0000e+00 -1.0000e+00
      -24  1    1    2    0    0 +1.2514992439e+00 -3.5360075168e+01 +8.8588610758e+01 1.2476802105e+02 8.0419002446e+01 0.0000e+00 1.0000e+00
<mgrwt>
<rscale>  0 0.87858506E+02</rscale>
<asrwt>0</asrwt>
<pdfrwt beam="1">  1        2 0.12455307E+00 0.87858506E+02</pdfrwt>
<pdfrwt beam="2">  1       -2 0.32053995E-02 0.87858506E+02</pdfrwt>
<totfact> 0.12416299E+04</totfact>
</mgrwt>
</event>
<event>
 4      2 +5.6305390e+02 1.92951400e+02 7.54677100e-03 1.15582600e-01
       21 -1    0    0  503  502 +0.0000000000e+00 +0.0000000000e+00 +4.1802216047e+02 4.1802216047e+02 0.0000000000e+00 0.0000e+00 1.0000e+00
       21 -1    0    0  501  503 -0.0000000000e+00 -0.0000000000e+00 -1.7136830448e+02 1.7136830448e+02 0.0000000000e+00 0.0000e+00 1.0000e+00
        6  1    1    2  501    0 -7.2614617223e+01 +4.5037208753e+01 -8.0904345557e+01 2.0922654214e+02 1.7300000000e+02 0.0000e+00 1.0000e+00
       -6  1    1    2    0  502 +7.2614617223e+01 -4.5037208753e+01 +3.2755820155e+02 3.8016392281e+02 1.7300000000e+02 0.0000e+00 1.0000e+00
<mgrwt>
<rscale>  2 0.19295137E+03</rscale>
<asrwt>0</asrwt>
<pdfrwt beam="1">  1       21 0.64311101E-01 0.19295137E+03</pdfrwt>
<pdfrwt beam="2">  1       21 0.26364355E-01 0.19295137E+03</pdfrwt>
<totfact> 0.30515344E+04</totfact>
</mgrwt>
</event>
<event>
 4      2 +5.6305390e+02 1.93684500e+02 7.54677100e-03 1.15517900e-01
       21 -1    0    0  501  502 +0.0000000000e+00 +0.0000000000e+00 +6.6661867185e+02 6.6661867185e+02 0.0000000000e+00 0.0000e+00 -1.0000e+00
       21 -1    0    0  502  503 -0.0000000000e+00 -0.0000000000e+00 -1.7080870215e+02 1.7080870215e+02 0.0000000000e+00 0.0000e+00 -1.0000e+00
        6  1    1    2  501    0 +7.7309715533e+01 +4.0098716847e+01 +5.9077504892e+02 6.2171445024e+02 1.7300000000e+02 0.0000e+00 -1.0000e+00
       -6  1    1    2    0  503 -7.7309715533e+01 -4.0098716847e+01 -9.4965079222e+01 2.1571292377e+02 1.7300000000e+02 0.0000e+00 -1.0000e+00
<mgrwt>
<rscale>  2 0.19368454E+03</rscale>
<asrwt>0</asrwt>
<pdfrwt beam="1">  1       21 0.10255672E+00 0.19368454E+03</pdfrwt>
<pdfrwt beam="2">  1       21 0.26278262E-01 0.19368454E+03</pdfrwt>
<totfact> 0.10635604E+04</totfact>
</mgrwt>
</event>
<event>
 4      2 +5.6305390e+02 2.14756500e+02 7.54677100e-03 1.13785400e-01
       21 -1    0    0  501  502 +0.0000000000e+00 +0.0000000000e+00 +9.3276391062e+02 9.3276391062e+02 0.0000000000e+00 0.0000e+00 1.0000e+00
       21 -1    0    0  502  503 -0.0000000000e+00 -0.0000000000e+00 -5.5607449258e+01 5.5607449258e+01 0.0000000000e+00 0.0000e+00 1.0000e+00
        6  1    1    2  501    0 -1.0870174323e+02 +6.6145815427e+01 +6.0309376365e+02 6.4018936701e+02 1.7300000000e+02 0.0000e+00 1.0000e+00
       -6  1    1    2    0  503 +1.0870174323e+02 -6.6145815427e+01 +2.7406269772e+02 3.4818199287e+02 1.7300000000e+02 0.0000e+00 1.0000e+00
<mgrwt>
<rscale>  2 0.21475646E+03</rscale>
<asrwt>0</asrwt>
<pdfrwt beam="1">  1       21 0.14350213E+00 0.21475646E+03</pdfrwt>
<pdfrwt beam="2">  1       21 0.85549929E-02 0.21475646E+03</pdfrwt>
<totfact> 0.35366644E+04</totfact>
</mgrwt>
</event>
<event>
 4      3 +5.6305390e+02 9.49177500e+01 7.54677100e-03 1.29136100e-01
       -4 -1    0    0    0  501 -0.0000000000e+00 +0.0000000000e+00 +1.8767810470e+03 1.8767810470e+03 0.0000000000e+00 0.0000e+00 1.0000e+00
        4 -1    0    0  501    0 +0.0000000000e+00 -0.0000000000e+00 -8.1558396750e+00 8.1558396750e+00 0.0000000000e+00 0.0000e+00 -1.0000e+00
       24  1    1    2    0    0 +1.2688374627e+01 +4.8797210677e+01 +3.2980122929e+02 3.4318832937e+02 8.0419002446e+01 0.0000e+00 -1.0000e+00
      -24  1    1    2    0    0 -1.2688374627e+01 -4.8797210677e+01 +1.5388239780e+03 1.5417485573e+03 8.0419002446e+01 0.0000e+00 1.0000e+00
<mgrwt>
<rscale>  0 0.94917746E+02</rscale>
<asrwt>0</asrwt>
<pdfrwt beam="1">  1        4 0.12547461E-02 0.94917746E+02</pdfrwt>
<pdfrwt beam="2">  1       -4 0.28873520E+00 0.94917746E+02</pdfrwt>
<totfact> 0.14578303E+02</totfact>
</mgrwt>
</event>
<event>
 4      2 +5.6305390e+02 2.23328100e+02 7.54677100e-03 1.13142600e-01
       21 -1    0    0  503  502 +0.0000000000e+00 +0.0000000000e+00 +2.0957812933e+03 2.0957812933e+03 0.0000000000e+00 0.0000e+00 -1.0000e+00
       21 -1    0    0  501  503 -0.0000000000e+00 -0.0000000000e+00 -3.6920816356e+01 3.6920816356e+01 0.0000000000e+00 0.0000e+00 -1.0000e+00
        6  1    1    2  501    0 -1.1235859919e+02 +8.5568656341e+01 +3.9369290869e+02 4.5262518281e+02 1.7300000000e+02 0.0000e+00 -1.0000e+00
       -6  1    1    2    0  502 +1.1235859919e+02 -8.5568656341e+01 +1.6651675683e+03 1.6800769269e+03 1.7300000000e+02 0.0000e+00 -1.0000e+00
<mgrwt>
<rscale>  2 0.22332812E+03</rscale>
<asrwt>0</asrwt>
<pdfrwt beam="1">  1       21 0.32242780E+00 0.22332812E+03</pdfrwt>
<pdfrwt beam="2">  1       21 0.56801272E-02 0.22332812E+03</pdfrwt>
<totfact> 0.52997978E+03</totfact>
</mgrwt>
</event>
<event>
 4      2 +5.6305390e+02 1.96788800e+02 7.54677100e-03 1.15247700e-01
       21 -1    0    0  503  502 +0.0000000000e+00 +0.0000000000e+00 +1.1001655005e+02 1.1001655005e+02 0.0000000000e+00 0.0000e+00 1.0000e+00
       21 -1    0    0  501  503 -0.0000000000e+00 -0.0000000000e+00 -1.3099682147e+03 1.3099682147e+03 0.0000000000e+00 0.0000e+00 1.0000e+00
        6  1    1    2  501    0 -9.2558584764e+01 +1.5156671477e+01 -1.2071298582e+03 1.2230651294e+03 1.7300000000e+02 0.0000e+00 1.0000e+00
       -6  1    1    2    0  502 +9.2558584764e+01 -1.5156671477e+01 +7.1781935586e+00 1.9691963530e+02 1.7300000000e+02 0.0000e+00 1.0000e+00
<mgrwt>
<rscale>  2 0.19678876E+03</rscale>
<asrwt>0</asrwt>
<pdfrwt beam="1">  1       21 0.16925622E-01 0.19678876E+03</pdfrwt>
<pdfrwt beam="2">  1       21 0.20153358E+00 0.19678876E+03</pdfrwt>
<totfact> 0.41120636E+03</totfact>
</mgrwt>
</event>
<event>
 4      2 +5.6305390e+02 2.11731200e+02 7.54677100e-03 1.14020200e-01
       21 -1    0    0  501  502 +0.0000000000e+00 +0.0000000000e+00 +1.2317379008e+02 1.2317379008e+02 0.0000000000e+00 0.0000e+00 1.0000e+00
       21 -1    0    0  502  503 -0.0000000000e+00 -0.0000000000e+00 -7.9685250464e+02 7.9685250464e+02 0.0000000000e+00 0.0000e+00 -1.0000e+00
        6  1    1    2  501    0 +5.6744814709e+01 +1.0807924485e+02 -6.7589600612e+02 7.0828349426e+02 1.7300000000e+02 0.0000e+00 -1.0000e+00
       -6  1    1    2    0  503 -5.6744814709e+01 -1.0807924485e+02 +2.2172915560e+00 2.1174280046e+02 1.7300000000e+02 0.0000e+00 1.0000e+00
<mgrwt>
<rscale>  2 0.21173119E+03</rscale>
<asrwt>0</asrwt>
<pdfrwt beam="1">  1       21 0.18949814E-01 0.21173119E+03</pdfrwt>
<pdfrwt beam="2">  1       21 0.12259269E+00 0.21173119E+03</pdfrwt>
<totfact> 0.12615324E+04</totfact>
</mgrwt>
</event>
<event>
 4      2 +5.6305390e+02 1.83266700e+02 7.54677100e-03 1.16467800e-01
       21 -1    0    0  503  502 +0.0000000000e+00 +0.0000000000e+00 +9.4270143231e+01 9.4270143231e+01 0.0000000000e+00 0.0000e+00 1.0000e+00
       21 -1    0    0  501  503 -0.0000000000e+00 -0.0000000000e+00 -4.2410537993e+02 4.2410537993e+02 0.0000000000e+00 0.0000e+00 1.0000e+00
        6  1    1    2  501    0 -6.6239545909e+00 +6.0114835856e+01 -2.6856783117e+02 3.2513897061e+02 1.7300000000e+02 0.0000e+00 1.0000e+00
       -6  1    1    2    0  502 +6.6239545909e+00 -6.0114835856e+01 -6.1267405525e+01 1.9323655256e+02 1.7300000000e+02 0.0000e+00 1.0000e+00
<mgrwt>
<rscale>  2 0.18326666E+03</rscale>
<asrwt>0</asrwt>
<pdfrwt beam="1">  1       21 0.14503099E-01 0.18326666E+03</pdfrwt>
<pdfrwt beam="2">  1       21 0.65246981E-01 0.18326666E+03</pdfrwt>
<totfact> 0.90487939E+04</totfact>
</mgrwt>
</event>
<event>
 4      2 +5.6305390e+02 2.04769100e+02 7.54677100e-03 1.14577700e-01
        2 -1    0    0  502    0 +0.0000000000e+00 +0.0000000000e+00 +2.1023742453e+03 2.1023742453e+03 0.0000000000e+00 0.0000e+00 1.0000e+00
       -2 -1    0    0    0  501 -0.0000000000e+00 -0.0000000000e+00 -2.4621738716e+01 2.4621738716e+01 0.0000000000e+00 0.0000e+00 -1.0000e+00
        6  1    1    2  502    0 +8.3800327837e+01 +7.0561130660e+01 +5.7534215235e+02 6.1069547270e+02 1.7300000000e+02 0.0000e+00 -1.0000e+00
       -6  1    1    2    0  501 -8.3800327837e+01 -7.0561130660e+01 +1.5024103542e+03 1.5163005113e+03 1.7300000000e+02 0.0000e+00 1.0000e+00
<mgrwt>
<rscale>  2 0.20476906E+03</rscale>
<asrwt>0</asrwt>
<pdfrwt beam="1">  1        2 0.32344205E+00 0.20476906E+03</pdfrwt>
<pdfrwt beam="2">  1       -2 0.37879614E-02 0.20476906E+03</pdfrwt>
<totfact> 0.19667318E+03</totfact>
</mgrwt>
</event>
<event>
 4      2 +5.6305390e+02 2.04666800e+02 7.54677100e-03 1.14586000e-01
       21 -1    0    0  503  502 +0.0000000000e+00 +0.0000000000e+00 +2.6986422298e+02 2.6986422298e+02 0.0000000000e+00 0.0000e+00 1.0000e+00
       21 -1    0    0  501  503 -0.0000000000e+00 -0.0000000000e+00 -1.6410018845e+02 1.6410018845e+02 0.0000000000e+00 0.0000e+00 1.0000e+00
        6  1    1    2  501    0 -6.4300222764e+01 +8.8458872958e+01 +2.4082624163e+00 2.0468094826e+02 1.7300000000e+02 0.0000e+00 1.0000e+00
       -6  1    1    2    0  502 +6.4300222764e+01 -8.8458872958e+01 +1.0335577211e+02 2.2928346317e+02 1.7300000000e+02 0.0000e+00 1.0000e+00
<mgrwt>
<rscale>  2 0.20466678E+03</rscale>
<asrwt>0</asrwt>
<pdfrwt beam="1">  1       21 0.41517573E-01 0.20466678E+03</pdfrwt>
<pdfrwt beam="2">  1       21 0.25246183E-01 0.20466678E+03</pdfrwt>
<totfact> 0.82614974E+04</totfact>
</mgrwt>
</event>
<event>
 4      2 +5.6305390e+02 2.05085600e+02 7.54677100e-03 1.14551800e-01
       21 -1    0    0  501  502 +0.0000000000e+00 +0.0000000000e+00 +1.4896280468e+03 1.4896280468e+03 0.0000000000e+00 0.0000e+00 -1.0000e+00
       21 -1    0    0  502  503 -0.0000000000e+00 -0.0000000000e+00 -3.8080723706e+01 3.8080723706e+01 0.0000000000e+00 0.0000e+00 -1.0000e+00
        6  1    1    2  501    0 -5.5937288682e+01 +9.4879612122e+01 +1.1141697041e+03 1.1328875719e+03 1.7300000000e+02 0.0000e+00 -1.0000e+00
       -6  1    1    2    0  503 +5.5937288682e+01 -9.4879612122e+01 +3.3737761901e+02 3.9482119861e+02 1.7300000000e+02 0.0000e+00 -1.0000e+00
<mgrwt>
<rscale>  2 0.20508564E+03</rscale>
<asrwt>0</asrwt>
<pdfrwt beam="1">  1       21 0.22917350E+00 0.20508564E+03</pdfrwt>
<pdfrwt beam="2">  1       21 0.58585740E-02 0.20508564E+03</pdfrwt>
<totfact> 0.17984441E+04</totfact>
</mgrwt>
</event>
<event>
 4      2 +5.6305390e+02 2.81261200e+02 7.54677100e-03 1.09500200e-01
       21 -1    0    0  503  502 +0.0000000000e+00 +0.0000000000e+00 +4.5929178552e+02 4.5929178552e+02 0.0000000000e+00 0.0000e+00 1.0000e+00
       21 -1    0    0  501  503 -0.0000000000e+00 -0.0000000000e+00 -2.4042352965e+02 2.4042352965e+02 0.0000000000e+00 0.0000e+00 1.0000e+00
        6  1    1    2  501    0 +1.7047747114e+02 -1.4183193653e+02 -7.6880287566e+01 2.9157922594e+02 1.7300000000e+02 0.0000e+00 1.0000e+00
       -6  1    1    2    0  502 -1.7047747114e+02 +1.4183193653e+02 +2.9574854343e+02 4.0813608923e+02 1.7300000000e+02 0.0000e+00 1.0000e+00
<mgrwt>
<rscale>  2 0.28126121E+03</rscale>
<asrwt>0</asrwt>
<pdfrwt beam="1">  1       21 0.70660275E-01 0.28126121E+03</pdfrwt>
<pdfrwt beam="2">  1       21 0.36988235E-01 0.28126121E+03</pdfrwt>
<totfact> 0.12168592E+04</totfact>
</mgrwt>
</event>
<event>
 4      2 +5.6305390e+02 3.43168800e+02 7.54677100e-03 1.06545400e-01
        2 -1    0    0  502    0 +0.0000000000e+00 +0.0000000000e+00 +1.5750228613e+03 1.5750228613e+03 0.0000000000e+00 0.0000e+00 1.0000e+00
       -2 -1    0    0    0  501 -0.0000000000e+00 -0.0000000000e+00 -7.4835536537e+01 7.4835536537e+01 0.0000000000e+00 0.0000e+00 -1.0000e+00
        6  1    1    2  502    0 -2.5017104995e+02 -1.5890326157e+02 +7.7446531720e+02 8.4708991750e+02 1.7300000000e+02 0.0000e+00 -1.0000e+00
       -6  1    1    2    0  501 +2.5017104995e+02 +1.5890326157e+02 +7.2572200753e+02 8.0276848031e+02 1.7300000000e+02 0.0000e+00 1.0000e+00
<mgrwt>
<rscale>  2 0.34316876E+03</rscale>
<asrwt>0</asrwt>
<pdfrwt beam="1">  1        2 0.24231118E+00 0.34316876E+03</pdfrwt>
<pdfrwt beam="2">  1       -2 0.11513161E-01 0.34316876E+03</pdfrwt>
<totfact> 0.65455334E+02</totfact>
</mgrwt>
</event>
<event>
 4      2 +5.6305390e+02 2.78509900e+02 7.54677100e-03 1.09650600e-01
       21 -1    0    0  503  502 +0.0000000000e+00 +0.0000000000e+00 +9.9497316626e+02 9.9497316626e+02 0.0000000000e+00 0.0000e+00 -1.0000e+00
       21 -1    0    0  501  503 -0.0000000000e+00 -0.0000000000e+00 -1.7226425772e+02 1.7226425772e+02 0.0000000000e+00 0.0000e+00 1.0000e+00
        6  1    1    2  501    0 -2.1826025419e+02 +1.1082687386e+00 -2.0460878855e+01 2.7926047766e+02 1.7300000000e+02 0.0000e+00 1.0000e+00
       -6  1    1    2    0  502 +2.1826025419e+02 -1.1082687386e+00 +8.4316978740e+02 8.8797694632e+02 1.7300000000e+02 0.0000e+00 -1.0000e+00
<mgrwt>
<rscale>  2 0.27850990E+03</rscale>
<asrwt>0</asrwt>
<pdfrwt beam="1">  1       21 0.15307279E+00 0.27850990E+03</pdfrwt>
<pdfrwt beam="2">  1       21 0.26502194E-01 0.27850990E+03</pdfrwt>
<totfact> 0.35984103E+03</totfact>
</mgrwt>
</event>
<event>
 4      2 +5.6305390e+02 2.23249600e+02 7.54677100e-03 1.13148300e-01
       21 -1    0    0  503  502 +0.0000000000e+00 +0.0000000000e+00 +7.6553594039e+02 7.6553594039e+02 0.0000000000e+00 0.0000e+00 1.0000e+00
       21 -1    0    0  501  503 -0.0000000000e+00 -0.0000000000e+00 -6.9646608851e+01 6.9646608851e+01 0.0000000000e+00 0.0000e+00 1.0000e+00
        6  1    1    2  501    0 +8.4025027342e+01 -1.1336297883e+02 +4.5457892320e+02 5.0644088263e+02 1.7300000000e+02 0.0000e+00 1.0000e+00
       -6  1    1    2    0  502 -8.4025027342e+01 +1.1336297883e+02 +2.4131040834e+02 3.2874166660e+02 1.7300000000e+02 0.0000e+00 1.0000e+00
<mgrwt>
<rscale>  2 0.22324957E+03</rscale>
<asrwt>0</asrwt>
<pdfrwt beam="1">  1       21 0.11777475E+00 0.22324957E+03</pdfrwt>
<pdfrwt beam="2">  1       21 0.10714863E-01 0.22324957E+03</pdfrwt>
<totfact> 0.39066787E+04</totfact>
</mgrwt>
</event>
<event>
 4      2 +5.6305390e+02 1.80336000e+02 7.54677100e-03 1.16747800e-01
       21 -1    0    0  501  502 +0.0000000000e+00 +0.0000000000e+00 +1.0288103565e+02 1.0288103565e+02 0.0000000000e+00 0.0000e+00 1.0000e+00
       21 -1    0    0  502  503 -0.0000000000e+00 -0.0000000000e+00 -3.2580774800e+02 3.2580774800e+02 0.0000000000e+00 0.0000e+00 1.0000e+00
        6  1    1    2  501    0 -4.8566489456e+01 +1.5276646826e+01 -7.4471420173e+01 1.9510784776e+02 1.7300000000e+02 0.0000e+00 1.0000e+00
       -6  1    1    2    0  503 +4.8566489456e+01 -1.5276646826e+01 -1.4845529217e+02 2.3358093589e+02 1.7300000000e+02 0.0000e+00 1.0000e+00
<mgrwt>
<rscale>  2 0.18033602E+03</rscale>
<asrwt>0</asrwt>
<pdfrwt beam="1">  1       21 0.15827852E-01 0.18033602E+03</pdfrwt>
<pdfrwt beam="2">  1       21 0.50124268E-01 0.18033602E+03</pdfrwt>
<totfact> 0.13538253E+05</totfact>
</mgrwt>
</event>
<event>
 4      3 +5.6305390e+02 1.02057100e+02 7.54677100e-03 1.27602900e-01
        2 -1    0    0  501    0 +0.0000000000e+00 +0.0000000000e+00 +8.1419717530e+00 8.1419717530e+00 0.0000000000e+00 0.0000e+00 -1.0000e+00
       -2 -1    0    0    0  501 -0.0000000000e+00 -0.0000000000e+00 -1.4503629170e+03 1.4503629170e+03 0.0000000000e+00 0.0000e+00 1.0000e+00
       24  1    1    2    0    0 +5.8029263111e+00 +6.2568095883e+01 -4.7062944127e+02 4.8156798847e+02 8.0419002446e+01 0.0000e+00 -1.0000e+00
      -24  1    1    2    0    0 -5.8029263111e+00 -6.2568095883e+01 -9.7159150396e+02 9.7693690026e+02 8.0419002446e+01 0.0000e+00 1.0000e+00
<mgrwt>
<rscale>  0 0.10205712E+03</rscale>
<asrwt>0</asrwt>
<pdfrwt beam="1">  1        2 0.12526112E-02 0.10205712E+03</pdfrwt>
<pdfrwt beam="2">  1       -2 0.22313273E+00 0.10205712E+03</pdfrwt>
<totfact> 0.10375271E+03</totfact>
</mgrwt>
</event>
<event>
 4      2 +5.6305390e+02 1.76823400e+02 7.54677100e-03 1.17091300e-01
       21 -1    0    0  503  502 +0.0000000000e+00 +0.0000000000e+00 +1.7861801242e+02 1.7861801242e+02 0.0000000000e+00 0.0000e+00 -1.0000e+00
       21 -1    0    0  501  503 -0.0000000000e+00 -0.0000000000e+00 -1.8461084506e+02 1.8461084506e+02 0.0000000000e+00 0.0000e+00 -1.0000e+00
        6  1    1    2  501    0 -1.5513144527e+01 -3.3118750671e+01 -4.4333785165e+01 1.8229644485e+02 1.7300000000e+02 0.0000e+00 -1.0000e+00
       -6  1    1    2    0  502 +1.5513144527e+01 +3.3118750671e+01 +3.8340952525e+01 1.8093241263e+02 1.7300000000e+02 0.0000e+00 -1.0000e+00
<mgrwt>
<rscale>  2 0.17682338E+03</rscale>
<asrwt>0</asrwt>
<pdfrwt beam="1">  1       21 0.27479694E-01 0.17682338E+03</pdfrwt>
<pdfrwt beam="2">  1       21 0.28401669E-01 0.17682338E+03</pdfrwt>
<totfact> 0.15049511E+05</totfact>
</mgrwt>
</event>
<event>
 4      2 +5.6305390e+02 2.70396400e+02 7.54677100e-03 1.10105300e-01
       21 -1    0    0  501  502 +0.0000000000e+00 +0.0000000000e+00 +3.1800889837e+02 3.1800889837e+02 0.0000000000e+00 0.0000e+00 1.0000e+00
       21 -1    0    0  502  503 -0.0000000000e+00 -0.0000000000e+00 -2.9958292643e+02 2.9958292643e+02 0.0000000000e+00 0.0000e+00 -1.0000e+00
        6  1    1    2  501    0 -1.4912742561e+02 +1.4472819107e+02 -1.3970154439e+02 3.0435301849e+02 1.7300000000e+02 0.0000e+00 -1.0000e+00
       -6  1    1    2    0  503 +1.4912742561e+02 -1.4472819107e+02 +1.5812751633e+02 3.1323880631e+02 1.7300000000e+02 0.0000e+00 1.0000e+00
<mgrwt>
<rscale>  2 0.27039645E+03</rscale>
<asrwt>0</asrwt>
<pdfrwt beam="1">  1       21 0.48924446E-01 0.27039645E+03</pdfrwt>
<pdfrwt beam="2">  1       21 0.46089681E-01 0.27039645E+03</pdfrwt>
<totfact> 0.17248593E+04</totfact>
</mgrwt>
</event>
<event>
 4      2 +5.6305390e+02 2.29355900e+02 7.54677100e-03 1.12709400e-01
       21 -1    0    0  503  502 +0.0000000000e+00 +0.0000000000e+00 +1.1976875316e+03 1.1976875316e+03 0.0000000000e+00 0.0000e+00 -1.0000e+00
       21 -1    0    0  501  503 -0.0000000000e+00 -0.0000000000e+00 -9.8828686589e+01 9.8828686589e+01 0.0000000000e+00 0.0000e+00 1.0000e+00
        6  1    1    2  501    0 -1.1646395767e+02 -9.5452930284e+01 +6.6235536785e+01 2.3872842660e+02 1.7300000000e+02 0.0000e+00 1.0000e+00
       -6  1    1    2    0  502 +1.1646395767e+02 +9.5452930284e+01 +1.0326233082e+03 1.0577877916e+03 1.7300000000e+02 0.0000e+00 -1.0000e+00
<mgrwt>
<rscale>  2 0.22935587E+03</rscale>
<asrwt>0</asrwt>
<pdfrwt beam="1">  1       21 0.18425961E+00 0.22935587E+03</pdfrwt>
<pdfrwt beam="2">  1       21 0.15204414E-01 0.22935587E+03</pdfrwt>
<totfact> 0.63247347E+03</totfact>
</mgrwt>
</event>
<event>
 4      2 +5.6305390e+02 1.86244900e+02 7.54677100e-03 1.16189200e-01
       -2 -1    0    0    0  501 -0.0000000000e+00 +0.0000000000e+00 +4.7665709943e+01 4.7665709943e+01 0.0000000000e+00 0.0000e+00 -1.0000e+00
        2 -1    0    0  502    0 +0.0000000000e+00 -0.0000000000e+00 -8.3437771791e+02 8.3437771791e+02 0.0000000000e+00 0.0000e+00 1.0000e+00
        6  1    1    2  502    0 +3.0260027617e+01 -6.1987710064e+01 -2.3567442532e+02 3.0038238999e+02 1.7300000000e+02 0.0000e+00 -1.0000e+00
       -6  1    1    2    0  501 -3.0260027617e+01 +6.1987710064e+01 -5.5103758266e+02 5.8166103786e+02 1.7300000000e+02 0.0000e+00 1.0000e+00
<mgrwt>
<rscale>  2 0.18624485E+03</rscale>
<asrwt>0</asrwt>
<pdfrwt beam="1">  1        2 0.12836581E+00 0.18624485E+03</pdfrwt>
<pdfrwt beam="2">  1       -2 0.73331857E-02 0.18624485E+03</pdfrwt>
<totfact> 0.35971476E+03</totfact>
</mgrwt>
</event>
<event>
 4      2 +5.6305390e+02 2.27450600e+02 7.54677100e-03 1.12844700e-01
       21 -1    0    0  501  502 +0.0000000000e+00 +0.0000000000e+00 +6.2591600632e+02 6.2591600632e+02 0.0000000000e+00 0.0000e+00 -1.0000e+00
       21 -1    0    0  502  503 -0.0000000000e+00 -0.0000000000e+00 -1.8108948953e+02 1.8108948953e+02 0.0000000000e+00 0.0000e+00 1.0000e+00
        6  1    1    2  501    0 -1.4350801472e+02 +3.4788012043e+01 +5.1990726015e+02 5.6748331714e+02 1.7300000000e+02 0.0000e+00 -1.0000e+00
       -6  1    1    2    0  503 +1.4350801472e+02 -3.4788012043e+01 -7.5080743358e+01 2.3952217871e+02 1.7300000000e+02 0.0000e+00 1.0000e+00
<mgrwt>
<rscale>  2 0.22745056E+03</rscale>
<asrwt>0</asrwt>
<pdfrwt beam="1">  1       21 0.96294769E-01 0.22745056E+03</pdfrwt>
<pdfrwt beam="2">  1       21 0.27859922E-01 0.22745056E+03</pdfrwt>
<totfact> 0.10789160E+04</totfact>
</mgrwt>
</event>
<event>
 4      2 +5.6305390e+02 4.20506800e+02 7.54677100e-03 1.03690200e-01
       21 -1    0    0  501  502 +0.0000000000e+00 +0.0000000000e+00 +2.1348243392e+02 2.1348243392e+02 0.0000000000e+00 0.0000e+00 1.0000e+00
       21 -1    0    0  502  503 -0.0000000000e+00 -0.0000000000e+00 -1.1233640042e+03 1.1233640042e+03 0.0000000000e+00 0.0000e+00 -1.0000e+00
        6  1    1    2  501    0 -3.1329075389e+02 +2.2078458016e+02 -1.1236645825e+02 4.3526101164e+02 1.7300000000e+02 0.0000e+00 1.0000e+00
       -6  1    1    2    0  503 +3.1329075389e+02 -2.2078458016e+02 -7.9751511202e+02 9.0158542646e+02 1.7300000000e+02 0.0000e+00 -1.0000e+00
<mgrwt>
<rscale>  2 0.42050675E+03</rscale>
<asrwt>0</asrwt>
<pdfrwt beam="1">  1       21 0.32843452E-01 0.42050675E+03</pdfrwt>
<pdfrwt beam="2">  1       21 0.17282523E+00 0.42050675E+03</pdfrwt>
<totfact> 0.15619477E+03</totfact>
</mgrwt>
</event>
<event>
 4      2 +5.6305390e+02 2.42980800e+02 7.54677100e-03 1.11782300e-01
       -1 -1    0    0    0  501 -0.0000000000e+00 +0.0000000000e+00 +1.0900432926e+02 1.0900432926e+02 0.0000000000e+00 0.0000e+00 -1.0000e+00
        1 -1    0    0  502    0 +0.0000000000e+00 -0.0000000000e+00 -5.4163300927e+02 5.4163300927e+02 0.0000000000e+00 0.0000e+00 1.0000e+00
        6  1    1    2  502    0 -8.2458698418e+01 +1.4936946296e+02 -2.1740980926e+02 3.2604708030e+02 1.7300000000e+02 0.0000e+00 1.0000e+00
       -6  1    1    2    0  501 +8.2458698418e+01 -1.4936946296e+02 -2.1521887075e+02 3.2459025823e+02 1.7300000000e+02 0.0000e+00 -1.0000e+00
<mgrwt>
<rscale>  2 0.24298081E+03</rscale>
<asrwt>0</asrwt>
<pdfrwt beam="1">  1        1 0.83328154E-01 0.24298081E+03</pdfrwt>
<pdfrwt beam="2">  1       -1 0.16769897E-01 0.24298081E+03</pdfrwt>
<totfact> 0.10894623E+03</totfact>
</mgrwt>
</event>
<event>
 4      2 +5.6305390e+02 2.92712100e+02 7.54677100e-03 1.08894200e-01
       21 -1    0    0  503  502 +0.0000000000e+00 +0.0000000000e+00 +9.5814084140e+01 9.5814084140e+01 0.0000000000e+00 0.0000e+00 1.0000e+00
       21 -1    0    0  501  503 -0.0000000000e+00 -0.0000000000e+00 -1.3160262060e+03 1.3160262060e+03 0.0000000000e+00 0.0000e+00 -1.0000e+00
        6  1    1    2  501    0 -2.1478354128e+02 -9.8078685557e+01 -1.0097484812e+03 1.0513193584e+03 1.7300000000e+02 0.0000e+00 -1.0000e+00
       -6  1    1    2    0  502 +2.1478354128e+02 +9.8078685557e+01 -2.1046364072e+02 3.6052093175e+02 1.7300000000e+02 0.0000e+00 1.0000e+00
<mgrwt>
<rscale>  2 0.29271214E+03</rscale>
<asrwt>0</asrwt>
<pdfrwt beam="1">  1       21 0.14740627E-01 0.29271214E+03</pdfrwt>
<pdfrwt beam="2">  1       21 0.20246559E+00 0.29271214E+03</pdfrwt>
<totfact> 0.48568831E+03</totfact>
</mgrwt>
</event>
<event>
 4      2 +5.6305390e+02 2.08952100e+02 7.54677100e-03 1.14239800e-01
       -2 -1    0    0    0  501 -0.0000000000e+00 +0.0000000000e+00 +4.8903414021e+01 4.8903414021e+01 0.0000000000e+00 0.0000e+00 -1.0000e+00
        2 -1    0    0  502    0 +0.0000000000e+00 -0.0000000000e+00 -1.0015225056e+03 1.0015225056e+03 0.0000000000e+00 0.0000e+00 1.0000e+00
        6  1    1    2  502    0 +1.0812813263e+02 +4.5169738973e+01 -6.4935634248e+02 6.8214709404e+02 1.7300000000e+02 0.0000e+00 1.0000e+00
       -6  1    1    2    0  501 -1.0812813263e+02 -4.5169738973e+01 -3.0326274914e+02 3.6827882562e+02 1.7300000000e+02 0.0000e+00 -1.0000e+00
<mgrwt>
<rscale>  2 0.20895214E+03</rscale>
<asrwt>0</asrwt>
<pdfrwt beam="1">  1        2 0.15408038E+00 0.20895214E+03</pdfrwt>
<pdfrwt beam="2">  1       -2 0.75236026E-02 0.20895214E+03</pdfrwt>
<totfact> 0.27140896E+03</totfact>
</mgrwt>
</event>
<event>
 4      3 +5.6305390e+02 8.36834700e+01 7.54677100e-03 1.31891200e-01
       -2 -1    0    0    0  501 -0.0000000000e+00 +0.0000000000e+00 +3.7969660404e+01 3.7969660404e+01 0.0000000000e+00 0.0000e+00 1.0000e+00
        2 -1    0    0  501    0 +0.0000000000e+00 -0.0000000000e+00 -2.7480317995e+02 2.7480317995e+02 0.0000000000e+00 0.0000e+00 -1.0000e+00
       24  1    1    2    0    0 +3.1308592983e+00 +2.2932613450e+01 -2.0809697579e+02 2.2429283164e+02 8.0419002446e+01 0.0000e+00 0.0000e+00
      -24  1    1    2    0    0 -3.1308592983e+00 -2.2932613450e+01 -2.8736543754e+01 8.8480008708e+01 8.0419002446e+01 0.0000e+00 -1.0000e+00
<mgrwt>
<rscale>  0 0.83683469E+02</rscale>
<asrwt>0</asrwt>
<pdfrwt beam="1">  1        2 0.42277412E-01 0.83683469E+02</pdfrwt>
<pdfrwt beam="2">  1       -2 0.58414862E-02 0.83683469E+02</pdfrwt>
<totfact> 0.16577071E+04</totfact>
</mgrwt>
</event>
<event>
 4      2 +5.6305390e+02 1.78662400e+02 7.54677100e-03 1.16910400e-01
       21 -1    0    0  503  502 +0.0000000000e+00 +0.0000000000e+00 +1.4894668651e+02 1.4894668651e+02 0.0000000000e+00 0.0000e+00 1.0000e+00
       21 -1    0    0  501  503 -0.0000000000e+00 -0.0000000000e+00 -2.2014468789e+02 2.2014468789e+02 0.0000000000e+00 0.0000e+00 1.0000e+00
        6  1    1    2  501    0 +2.8289098168e+00 -4.4533633855e+01 -5.5460042710e+00 1.7874844178e+02 1.7300000000e+02 0.0000e+00 1.0000e+00
       -6  1    1    2    0  502 -2.8289098168e+00 +4.4533633855e+01 -6.5651997109e+01 1.9034293262e+02 1.7300000000e+02 0.0000e+00 1.0000e+00
<mgrwt>
<rscale>  2 0.17866238E+03</rscale>
<asrwt>0</asrwt>
<pdfrwt beam="1">  1       21 0.22914875E-01 0.17866238E+03</pdfrwt>
<pdfrwt beam="2">  1       21 0.33868414E-01 0.17866238E+03</pdfrwt>
<totfact> 0.15079036E+05</totfact>
</mgrwt>
</event>
<event>
 4      2 +5.6305390e+02 2.02652200e+02 7.54677100e-03 1.14752000e-01
       21 -1    0    0  503  502 +0.0000000000e+00 +0.0000000000e+00 +2.9343588007e+02 2.9343588007e+02 0.0000000000e+00 0.0000e+00 -1.0000e+00
       21 -1    0    0  501  503 -0.0000000000e+00 -0.0000000000e+00 -1.4274682226e+02 1.4274682226e+02 0.0000000000e+00 0.0000e+00 -1.0000e+00
        6  1    1    2  501    0 -8.9140307113e+01 -5.6505868059e+01 +4.4846235323e+01 2.0755503439e+02 1.7300000000e+02 0.0000e+00 -1.0000e+00
       -6  1    1    2    0  502 +8.9140307113e+01 +5.6505868059e+01 +1.0584282249e+02 2.2862766795e+02 1.7300000000e+02 0.0000e+00 -1.0000e+00
<mgrwt>
<rscale>  2 0.20265218E+03</rscale>
<asrwt>0</asrwt>
<pdfrwt beam="1">  1       21 0.45143981E-01 0.20265218E+03</pdfrwt>
<pdfrwt beam="2">  1       21 0.21961050E-01 0.20265218E+03</pdfrwt>
<totfact> 0.90798081E+04</totfact>
</mgrwt>
</event>
<event>
 4      2 +5.6305390e+02 2.30295700e+02 7.54677100e-03 1.12643200e-01
       -2 -1    0    0    0  501 -0.0000000000e+00 +0.0000000000e+00 +9.6633632356e+01 9.6633632356e+01 0.0000000000e+00 0.0000e+00 1.0000e+00
        2 -1    0    0  502    0 +0.0000000000e+00 -0.0000000000e+00 -5.8825023029e+02 5.8825023029e+02 0.0000000000e+00 0.0000e+00 -1.0000e+00
        6  1    1    2  502    0 +1.4359620862e+02 +4.9871998846e+01 -1.5716858355e+02 2.7881544264e+02 1.7300000000e+02 0.0000e+00 1.0000e+00
       -6  1    1    2    0  501 -1.4359620862e+02 -4.9871998846e+01 -3.3444801438e+02 4.0606842000e+02 1.7300000000e+02 0.0000e+00 1.0000e+00
<mgrwt>
<rscale>  2 0.23029565E+03</rscale>
<asrwt>0</asrwt>
<pdfrwt beam="1">  1        2 0.90500036E-01 0.23029565E+03</pdfrwt>
<pdfrwt beam="2">  1       -2 0.14866713E-01 0.23029565E+03</pdfrwt>
<totfact> 0.17881747E+03</totfact>
</mgrwt>
</event>
<event>
 4      2 +5.6305390e+02 2.47587500e+02 7.54677100e-03 1.11483900e-01
        1 -1    0    0  502    0 +0.0000000000e+00 +0.0000000000e+00 +1.0423584091e+03 1.0423584091e+03 0.0000000000e+00 0.0000e+00 -1.0000e+00
       -1 -1    0    0    0  501 -0.0000000000e+00 -0.0000000000e+00 -8.1918244128e+01 8.1918244128e+01 0.0000000000e+00 0.0000e+00 1.0000e+00
        6  1    1    2  502    0 +5.6585686635e+01 -1.6783519066e+02 +1.8164749154e+02 3.0707556454e+02 1.7300000000e+02 0.0000e+00 1.0000e+00
       -6  1    1    2    0  501 -5.6585686635e+01 +1.6783519066e+02 +7.7879267342e+02 8.1720108867e+02 1.7300000000e+02 0.0000e+00 -1.0000e+00
<mgrwt>
<rscale>  2 0.24758754E+03</rscale>
<asrwt>0</asrwt>
<pdfrwt beam="1">  1        1 0.16036282E+00 0.24758754E+03</pdfrwt>
<pdfrwt beam="2">  1       -1 0.12602808E-01 0.24758754E+03</pdfrwt>
<totfact> 0.63369346E+02</totfact>
</mgrwt>
</event>
<event>
 4      2 +5.6305390e+02 1.92714500e+02 7.54677100e-03 1.15603600e-01
       21 -1    0    0  503  502 +0.0000000000e+00 +0.0000000000e+00 +2.0038403825e+02 2.0038403825e+02 0.0000000000e+00 0.0000e+00 -1.0000e+00
       21 -1    0    0  501  503 -0.0000000000e+00 -0.0000000000e+00 -2.9856951558e+02 2.9856951558e+02 0.0000000000e+00 0.0000e+00 1.0000e+00
        6  1    1    2  501    0 -8.0413058708e+01 -2.7269259893e+01 -2.0272772901e+02 2.7970950048e+02 1.7300000000e+02 0.0000e+00 1.0000e+00
       -6  1    1    2    0  502 +8.0413058708e+01 +2.7269259893e+01 +1.0454225168e+02 2.1924405335e+02 1.7300000000e+02 0.0000e+00 -1.0000e+00
<mgrwt>
<rscale>  2 0.19271448E+03</rscale>
<asrwt>0</asrwt>
<pdfrwt beam="1">  1       21 0.30828314E-01 0.19271448E+03</pdfrwt>
<pdfrwt beam="2">  1       21 0.45933771E-01 0.19271448E+03</pdfrwt>
<totfact> 0.45902822E+04</totfact>
</mgrwt>
</event>
<event>
 4      2 +5.6305390e+02 3.48041900e+02 7.54677100e-03 1.06342200e-01
       21 -1    0    0  501  502 +0.0000000000e+00 +0.0000000000e+00 +8.9797511913e+01 8.9797511913e+01 0.0000000000e+00 0.0000e+00 -1.0000e+00
       21 -1    0    0  502  503 -0.0000000000e+00 -0.0000000000e+00 -1.8954057277e+03 1.8954057277e+03 0.0000000000e+00 0.0000e+00 -1.0000e+00
        6  1    1    2  501    0 +2.8189414336e+02 +1.0835046990e+02 -3.6984003955e+02 5.0785311582e+02 1.7300000000e+02 0.0000e+00 -1.0000e+00
       -6  1    1    2    0  503 -2.8189414336e+02 -1.0835046990e+02 -1.4357681763e+03 1.4773501238e+03 1.7300000000e+02 0.0000e+00 -1.0000e+00
<mgrwt>
<rscale>  2 0.34804185E+03</rscale>
<asrwt>0</asrwt>
<pdfrwt beam="1">  1       21 0.13815003E-01 0.34804185E+03</pdfrwt>
<pdfrwt beam="2">  1       21 0.29160086E+00 0.34804185E+03</pdfrwt>
<totfact> 0.15043600E+03</totfact>
</mgrwt>
</event>
<event>
 4      2 +5.6305390e+02 3.44751600e+02 7.54677100e-03 1.06479000e-01
       21 -1    0    0  503  502 +0.0000000000e+00 +0.0000000000e+00 +1.0031291104e+02 1.0031291104e+02 0.0000000000e+00 0.0000e+00 1.0000e+00
       21 -1    0    0  501  503 -0.0000000000e+00 -0.0000000000e+00 -1.9629870055e+03 1.9629870055e+03 0.0000000000e+00 0.0000e+00 1.0000e+00
        6  1    1    2  501    0 -2.9445830997e+02 +4.7105766301e+01 -1.5808794954e+03 1.6180338774e+03 1.7300000000e+02 0.0000e+00 1.0000e+00
       -6  1    1    2    0  502 +2.9445830997e+02 -4.7105766301e+01 -2.8179459908e+02 4.4526603913e+02 1.7300000000e+02 0.0000e+00 1.0000e+00
<mgrwt>
<rscale>  2 0.34475158E+03</rscale>
<asrwt>0</asrwt>
<pdfrwt beam="1">  1       21 0.15432756E-01 0.34475158E+03</pdfrwt>
<pdfrwt beam="2">  1       21 0.30199800E+00 0.34475158E+03</pdfrwt>
<totfact> 0.10667346E+03</totfact>
</mgrwt>
</event>
<event>
 4      2 +5.6305390e+02 2.16328500e+02 7.54677100e-03 1.13665000e-01
       21 -1    0    0  501  502 +0.0000000000e+00 +0.0000000000e+00 +3.5311820331e+02 3.5311820331e+02 0.0000000000e+00 0.0000e+00 -1.0000e+00
       21 -1    0    0  502  503 -0.0000000000e+00 -0.0000000000e+00 -4.9956400238e+02 4.9956400238e+02 0.0000000000e+00 0.0000e+00 -1.0000e+00
        6  1    1    2  501    0 +5.6890864997e+01 +1.1675814414e+02 +2.9221702574e+02 3.6357781130e+02 1.7300000000e+02 0.0000e+00 -1.0000e+00
       -6  1    1    2    0  503 -5.6890864997e+01 -1.1675814414e+02 -4.3866282480e+02 4.8910439438e+02 1.7300000000e+02 0.0000e+00 -1.0000e+00
<mgrwt>
<rscale>  2 0.21632853E+03</rscale>
<asrwt>0</asrwt>
<pdfrwt beam="1">  1       21 0.54325878E-01 0.21632853E+03</pdfrwt>
<pdfrwt beam="2">  1       21 0.76856000E-01 0.21632853E+03</pdfrwt>
<totfact> 0.47326132E+03</totfact>
</mgrwt>
</event>
<event>
 4      2 +5.6305390e+02 2.18061300e+02 7.54677100e-03 1.13533700e-01
       21 -1    0    0  503  502 +0.0000000000e+00 +0.0000000000e+00 +1.5259126226e+02 1.5259126226e+02 0.0000000000e+00 0.0000e+00 1.0000e+00
       21 -1    0    0  501  503 -0.0000000000e+00 -0.0000000000e+00 -5.9821847862e+02 5.9821847862e+02 0.0000000000e+00 0.0000e+00 1.0000e+00
        6  1    1    2  501    0 -9.6527451788e+01 +9.1127391877e+01 -4.8265338432e+02 5.2962726506e+02 1.7300000000e+02 0.0000e+00 1.0000e+00
       -6  1    1    2    0  502 +9.6527451788e+01 -9.1127391877e+01 +3.7026167962e+01 2.2118247583e+02 1.7300000000e+02 0.0000e+00 1.0000e+00
<mgrwt>
<rscale>  2 0.21806135E+03</rscale>
<asrwt>0</asrwt>
<pdfrwt beam="1">  1       21 0.23475579E-01 0.21806135E+03</pdfrwt>
<pdfrwt beam="2">  1       21 0.92033612E-01 0.21806135E+03</pdfrwt>
<totfact> 0.16764667E+04</totfact>
</mgrwt>
</event>
<event>
 4      2 +5.6305390e+02 2.63545300e+02 7.54677100e-03 1.10503200e-01
       21 -1    0    0  503  502 +0.0000000000e+00 +0.0000000000e+00 +4.8844938076e+02 4.8844938076e+02 0.0000000000e+00 0.0000e+00 1.0000e+00
       21 -1    0    0  501  503 -0.0000000000e+00 -0.0000000000e+00 -2.2097976491e+02 2.2097976491e+02 0.0000000000e+00 0.0000e+00 -1.0000e+00
        6  1    1    2  501    0 -1.0038634024e+02 -1.7160914336e+02 -7.8061283933e+01 2.7486301941e+02 1.7300000000e+02 0.0000e+00 -1.0000e+00
       -6  1    1    2    0  502 +1.0038634024e+02 +1.7160914336e+02 +3.4553089978e+02 4.3456612626e+02 1.7300000000e+02 0.0000e+00 1.0000e+00
<mgrwt>
<rscale>  2 0.26354528E+03</rscale>
<asrwt>0</asrwt>
<pdfrwt beam="1">  1       21 0.75146058E-01 0.26354528E+03</pdfrwt>
<pdfrwt beam="2">  1       21 0.33996887E-01 0.26354528E+03</pdfrwt>
<totfact> 0.12661930E+04</totfact>
</mgrwt>
</event>
<event>
 4      2 +5.6305390e+02 2.10138700e+02 7.54677100e-03 1.14145600e-01
       21 -1    0    0  501  502 +0.0000000000e+00 +0.0000000000e+00 +8.5263220900e+02 8.5263220900e+02 0.0000000000e+00 0.0000e+00 1.0000e+00
       21 -1    0    0  502  503 -0.0000000000e+00 -0.0000000000e+00 -7.9752226467e+01 7.9752226467e+01 0.0000000000e+00 0.0000e+00 1.0000e+00
        6  1    1    2  501    0 -1.1690838780e+02 +2.3699913338e+01 +6.6248221950e+02 6.9501147342e+02 1.7300000000e+02 0.0000e+00 1.0000e+00
       -6  1    1    2    0  503 +1.1690838780e+02 -2.3699913338e+01 +1.1039776304e+02 2.3737296205e+02 1.7300000000e+02 0.0000e+00 1.0000e+00
<mgrwt>
<rscale>  2 0.21013866E+03</rscale>
<asrwt>0</asrwt>
<pdfrwt beam="1">  1       21 0.13117418E+00 0.21013866E+03</pdfrwt>
<pdfrwt beam="2">  1       21 0.12269574E-01 0.21013866E+03</pdfrwt>
<totfact> 0.23570560E+04</totfact>
</mgrwt>
</event>
<event>
 4      2 +5.6305390e+02 2.59196400e+02 7.54677100e-03 1.10762700e-01
       21 -1    0    0  501  502 +0.0000000000e+00 +0.0000000000e+00 +2.3875980714e+02 2.3875980714e+02 0.0000000000e+00 0.0000e+00 1.0000e+00
       21 -1    0    0  502  503 -0.0000000000e+00 -0.0000000000e+00 -2.8151289023e+02 2.8151289023e+02 0.0000000000e+00 0.0000e+00 -1.0000e+00
        6  1    1    2  501    0 -1.9298580598e+02 -3.2015063686e+00 -2.6980512322e+01 2.6059685147e+02 1.7300000000e+02 0.0000e+00 -1.0000e+00
       -6  1    1    2    0  503 +1.9298580598e+02 +3.2015063686e+00 -1.5772570761e+01 2.5967584589e+02 1.7300000000e+02 0.0000e+00 1.0000e+00
<mgrwt>
<rscale>  2 0.25919639E+03</rscale>
<asrwt>0</asrwt>
<pdfrwt beam="1">  1       21 0.36732278E-01 0.25919639E+03</pdfrwt>
<pdfrwt beam="2">  1       21 0.43309675E-01 0.25919639E+03</pdfrwt>
<totfact> 0.35501077E+04</totfact>
</mgrwt>
</event>
<event>
 4      2 +5.6305390e+02 1.78315900e+02 7.54677100e-03 1.16944300e-01
       21 -1    0    0  503  502 +0.0000000000e+00 +0.0000000000e+00 +2.1957894464e+02 2.1957894464e+02 0.0000000000e+00 0.0000e+00 1.0000e+00
       21 -1    0    0  501  503 -0.0000000000e+00 -0.0000000000e+00 -1.8613676884e+02 1.8613676884e+02 0.0000000000e+00 0.0000e+00 1.0000e+00
        6  1    1    2  501    0 -1.0928367924e+01 -4.1810688139e+01 -7.8867790096e+01 1.9497869418e+02 1.7300000000e+02 0.0000e+00 1.0000e+00
       -6  1    1    2    0  502 +1.0928367924e+01 +4.1810688139e+01 +1.1230996589e+02 2.1073701931e+02 1.7300000000e+02 0.0000e+00 1.0000e+00
<mgrwt>
<rscale>  2 0.17831591E+03</rscale>
<asrwt>0</asrwt>
<pdfrwt beam="1">  1       21 0.33781376E-01 0.17831591E+03</pdfrwt>
<pdfrwt beam="2">  1       21 0.28636426E-01 0.17831591E+03</pdfrwt>
<totfact> 0.99003137E+04</totfact>
</mgrwt>
</event>
<event>
 4      2 +5.6305390e+02 2.37250400e+02 7.54677100e-03 1.12163800e-01
       21 -1    0    0  501  502 +0.0000000000e+00 +0.0000000000e+00 +1.5592654069e+02 1.5592654069e+02 0.0000000000e+00 0.0000e+00 -1.0000e+00
       21 -1    0    0  502  503 -0.0000000000e+00 -0.0000000000e+00 -4.4696691042e+02 4.4696691042e+02 0.0000000000e+00 0.0000e+00 -1.0000e+00
        6  1    1    2  501    0 -4.4117863914e+01 -1.5624458731e+02 -1.3309524855e+01 2.3762344251e+02 1.7300000000e+02 0.0000e+00 -1.0000e+00
       -6  1    1    2    0  503 +4.4117863914e+01 +1.5624458731e+02 -2.7773084488e+02 3.6527000859e+02 1.7300000000e+02 0.0000e+00 -1.0000e+00
<mgrwt>
<rscale>  2 0.23725041E+03</rscale>
<asrwt>0</asrwt>
<pdfrwt beam="1">  1       21 0.23988699E-01 0.23725041E+03</pdfrwt>
<pdfrwt beam="2">  1       21 0.68764138E-01 0.23725041E+03</pdfrwt>
<totfact> 0.30858158E+04</totfact>
</mgrwt>
</event>
<event>
 4      2 +5.6305390e+02 3.50378300e+02 7.54677100e-03 1.06246000e-01
       21 -1    0    0  501  502 +0.0000000000e+00 +0.0000000000e+00 +9.9921951008e+02 9.9921951008e+02 0.0000000000e+00 0.0000e+00 -1.0000e+00
       21 -1    0    0  502  503 -0.0000000000e+00 -0.0000000000e+00 -1.3758885227e+02 1.3758885227e+02 0.0000000000e+00 0.0000e+00 1.0000e+00
        6  1    1    2  501    0 +2.6067518944e+02 -1.5774784686e+02 +6.1678317785e+02 7.0935634631e+02 1.7300000000e+02 0.0000e+00 1.0000e+00
       -6  1    1    2    0  503 -2.6067518944e+02 +1.5774784686e+02 +2.4484747996e+02 4.2745201605e+02 1.7300000000e+02 0.0000e+00 -1.0000e+00
<mgrwt>
<rscale>  2 0.35037828E+03</rscale>
<asrwt>0</asrwt>
<pdfrwt beam="1">  1       21 0.15372607E+00 0.35037828E+03</pdfrwt>
<pdfrwt beam="2">  1       21 0.21167516E-01 0.35037828E+03</pdfrwt>
<totfact> 0.52707562E+03</totfact>
</mgrwt>
</event>
<event>
 4      2 +5.6305390e+02 1.90013700e+02 7.54677100e-03 1.15844900e-01
       21 -1    0    0  501  502 +0.0000000000e+00 +0.0000000000e+00 +1.1785942081e+03 1.1785942081e+03 0.0000000000e+00 0.0000e+00 1.0000e+00
       21 -1    0    0  502  503 -0.0000000000e+00 -0.0000000000e+00 -3.6907836303e+01 3.6907836303e+01 0.0000000000e+00 0.0000e+00 1.0000e+00
        6  1    1    2  501    0 -5.2300056210e+01 +5.8659352788e+01 +8.2141272889e+02 8.4310384102e+02 1.7300000000e+02 0.0000e+00 1.0000e+00
       -6  1    1    2    0  503 +5.2300056210e+01 -5.8659352788e+01 +3.2027364293e+02 3.7239820341e+02 1.7300000000e+02 0.0000e+00 1.0000e+00
<mgrwt>
<rscale>  2 0.19001372E+03</rscale>
<asrwt>0</asrwt>
<pdfrwt beam="1">  1       21 0.18132216E+00 0.19001372E+03</pdfrwt>
<pdfrwt beam="2">  1       21 0.56781296E-02 0.19001372E+03</pdfrwt>
<totfact> 0.38683461E+04</totfact>
</mgrwt>
</event>
<event>
 4      2 +5.6305390e+02 1.94206300e+02 7.54677100e-03 1.15472100e-01
        1 -1    0    0  502    0 +0.0000000000e+00 +0.0000000000e+00 +1.1453731949e+02 1.1453731949e+02 0.0000000000e+00 0.0000e+00 1.0000e+00
       -1 -1    0    0    0  501 -0.0000000000e+00 -0.0000000000e+00 -3.8930539385e+02 3.8930539385e+02 0.0000000000e+00 0.0000e+00 -1.0000e+00
        6  1    1    2  502    0 -7.9310197434e+01 +3.8690736216e+01 -2.3629589795e+02 3.0586243946e+02 1.7300000000e+02 0.0000e+00 -1.0000e+00
       -6  1    1    2    0  501 +7.9310197434e+01 -3.8690736216e+01 -3.8472176410e+01 1.9798027388e+02 1.7300000000e+02 0.0000e+00 1.0000e+00
<mgrwt>
<rscale>  2 0.19420628E+03</rscale>
<asrwt>0</asrwt>
<pdfrwt beam="1">  1        1 0.17621126E-01 0.19420628E+03</pdfrwt>
<pdfrwt beam="2">  1       -1 0.59893139E-01 0.19420628E+03</pdfrwt>
<totfact> 0.87586290E+02</totfact>
</mgrwt>
</event>
<event>
 4      2 +5.6305390e+02 2.08968300e+02 7.54677100e-03 1.14238600e-01
       21 -1    0    0  503  502 +0.0000000000e+00 +0.0000000000e+00 +1.0336845603e+02 1.0336845603e+02 0.0000000000e+00 0.0000e+00 -1.0000e+00
       21 -1    0    0  501  503 -0.0000000000e+00 -0.0000000000e+00 -4.3611331704e+02 4.3611331704e+02 0.0000000000e+00 0.0000e+00 -1.0000e+00
        6  1    1    2  501    0 +1.2163674432e+01 +1.1657962945e+02 -1.1862368528e+02 2.4029012399e+02 1.7300000000e+02 0.0000e+00 -1.0000e+00
       -6  1    1    2    0  502 -1.2163674432e+01 -1.1657962945e+02 -2.1412117574e+02 2.9919164908e+02 1.7300000000e+02 0.0000e+00 -1.0000e+00
<mgrwt>
<rscale>  2 0.20896833E+03</rscale>
<asrwt>0</asrwt>
<pdfrwt beam="1">  1       21 0.15902839E-01 0.20896833E+03</pdfrwt>
<pdfrwt beam="2">  1       21 0.67094358E-01 0.20896833E+03</pdfrwt>
<totfact> 0.71185272E+04</totfact>
</mgrwt>
</event>
<event>
 4      2 +5.6305390e+02 7.14166200e+02 7.54677100e-03 9.69330800e-02
       21 -1    0    0  503  502 +0.0000000000e+00 +0.0000000000e+00 +2.0297029956e+03 2.0297029956e+03 0.0000000000e+00 0.0000e+00 -1.0000e+00
       21 -1    0    0  501  503 -0.0000000000e+00 -0.0000000000e+00 -2.5450519246e+02 2.5450519246e+02 0.0000000000e+00 0.0000e+00 1.0000e+00
        6  1    1    2  501    0 -1.1015534265e+02 +6.8408347434e+02 +7.5912483122e+02 1.0422590411e+03 1.7300000000e+02 0.0000e+00 -1.0000e+00
       -6  1    1    2    0  502 +1.1015534265e+02 -6.8408347434e+02 +1.0160729719e+03 1.2419491470e+03 1.7300000000e+02 0.0000e+00 1.0000e+00
<mgrwt>
<rscale>  2 0.71416623E+03</rscale>
<asrwt>0</asrwt>
<pdfrwt beam="1">  1       21 0.31226199E+00 0.71416623E+03</pdfrwt>
<pdfrwt beam="2">  1       21 0.39154646E-01 0.71416623E+03</pdfrwt>
<totfact> 0.12420088E+02</totfact>
</mgrwt>
</event>
<event>
 4      2 +5.6305390e+02 3.15359500e+02 7.54677100e-03 1.07780500e-01
       21 -1    0    0  501  502 +0.0000000000e+00 +0.0000000000e+00 +2.7114848184e+02 2.7114848184e+02 0.0000000000e+00 0.0000e+00 1.0000e+00
       21 -1    0    0  502  503 -0.0000000000e+00 -0.0000000000e+00 -5.6347434164e+02 5.6347434164e+02 0.0000000000e+00 0.0000e+00 -1.0000e+00
        6  1    1    2  501    0 -2.5400494203e+02 +7.0739701837e+01 +1.0039560158e+02 3.3095451773e+02 1.7300000000e+02 0.0000e+00 1.0000e+00
       -6  1    1    2    0  503 +2.5400494203e+02 -7.0739701837e+01 -3.9272146138e+02 5.0366830575e+02 1.7300000000e+02 0.0000e+00 -1.0000e+00
<mgrwt>
<rscale>  2 0.31535950E+03</rscale>
<asrwt>0</asrwt>
<pdfrwt beam="1">  1       21 0.41715151E-01 0.31535950E+03</pdfrwt>
<pdfrwt beam="2">  1       21 0.86688360E-01 0.31535950E+03</pdfrwt>
<totfact> 0.58846597E+03</totfact>
</mgrwt>
</event>
<event>
 4      2 +5.6305390e+02 2.22730000e+02 7.54677100e-03 1.13186400e-01
       21 -1    0    0  501  502 +0.0000000000e+00 +0.0000000000e+00 +2.2702433008e+02 2.2702433008e+02 0.0000000000e+00 0.0000e+00 -1.0000e+00
       21 -1    0    0  502  503 -0.0000000000e+00 -0.0000000000e+00 -2.5412627454e+02 2.5412627454e+02 0.0000000000e+00 0.0000e+00 1.0000e+00
        6  1    1    2  501    0 -1.0172341361e+02 +9.6602221685e+01 -1.0360615586e+02 2.4564787327e+02 1.7300000000e+02 0.0000e+00 1.0000e+00
       -6  1    1    2    0  503 +1.0172341361e+02 -9.6602221685e+01 +7.6504211402e+01 2.3550273135e+02 1.7300000000e+02 0.0000e+00 -1.0000e+00
<mgrwt>
<rscale>  2 0.22272998E+03</rscale>
<asrwt>0</asrwt>
<pdfrwt beam="1">  1       21 0.34926820E-01 0.22272998E+03</pdfrwt>
<pdfrwt beam="2">  1       21 0.39096350E-01 0.22272998E+03</pdfrwt>
<totfact> 0.49140773E+04</totfact>
</mgrwt>
</event>
<event>
 4      3 +5.6305390e+02 8.45980200e+01 7.54677100e-03 1.31648700e-01
       -4 -1    0    0    0  501 -0.0000000000e+00 +0.0000000000e+00 +8.2216116462e+01 8.2216116462e+01 0.0000000000e+00 0.0000e+00 1.0000e+00
        4 -1    0    0  501    0 +0.0000000000e+00 -0.0000000000e+00 -1.1458043333e+02 1.1458043333e+02 0.0000000000e+00 0.0000e+00 -1.0000e+00
       24  1    1    2    0    0 +2.3993523383e+01 -1.0673337561e+01 -6.4415482169e+01 1.0633052053e+02 8.0419002446e+01 0.0000e+00 -1.0000e+00
      -24  1    1    2    0    0 -2.3993523383e+01 +1.0673337561e+01 +3.2051165300e+01 9.0466029262e+01 8.0419002446e+01 0.0000e+00 1.0000e+00
<mgrwt>
<rscale>  0 0.84598022E+02</rscale>
<asrwt>0</asrwt>
<pdfrwt beam="1">  1        4 0.17627759E-01 0.84598022E+02</pdfrwt>
<pdfrwt beam="2">  1       -4 0.12648633E-01 0.84598022E+02</pdfrwt>
<totfact> 0.20961600E+03</totfact>
</mgrwt>
</event>
<event>
 4      2 +5.6305390e+02 2.43832500e+02 7.54677100e-03 1.11726600e-01
       21 -1    0    0  501  502 +0.0000000000e+00 +0.0000000000e+00 +8.5250770973e+02 8.5250770973e+02 0.0000000000e+00 0.0000e+00 -1.0000e+00
       21 -1    0    0  502  503 -0.0000000000e+00 -0.0000000000e+00 -2.4772357138e+02 2.4772357138e+02 0.0000000000e+00 0.0000e+00 -1.0000e+00
        6  1    1    2  501    0 +1.1344523061e+02 -1.2905610523e+02 +7.6868592914e+02 8.0643186711e+02 1.7300000000e+02 0.0000e+00 -1.0000e+00
       -6  1    1    2    0  503 -1.1344523061e+02 +1.2905610523e+02 -1.6390179078e+02 2.9379941400e+02 1.7300000000e+02 0.0000e+00 -1.0000e+00
<mgrwt>
<rscale>  2 0.24383252E+03</rscale>
<asrwt>0</asrwt>
<pdfrwt beam="1">  1       21 0.13115503E+00 0.24383252E+03</pdfrwt>
<pdfrwt beam="2">  1       21 0.38111319E-01 0.24383252E+03</pdfrwt>
<totfact> 0.26917648E+03</totfact>
</mgrwt>
</event>
<event>
 4      2 +5.6305390e+02 1.80429700e+02 7.54677100e-03 1.16738800e-01
       21 -1    0    0  503  502 +0.0000000000e+00 +0.0000000000e+00 +1.7580889985e+02 1.7580889985e+02 0.0000000000e+00 0.0000e+00 1.0000e+00
       21 -1    0    0  501  503 -0.0000000000e+00 -0.0000000000e+00 -5.1617874915e+02 5.1617874915e+02 0.0000000000e+00 0.0000e+00 1.0000e+00
        6  1    1    2  501    0 -4.7752183546e+01 +1.8590470262e+01 -4.4725316398e+02 4.8227613387e+02 1.7300000000e+02 0.0000e+00 1.0000e+00
       -6  1    1    2    0  502 +4.7752183546e+01 -1.8590470262e+01 +1.0688331468e+02 2.0971151512e+02 1.7300000000e+02 0.0000e+00 1.0000e+00
<mgrwt>
<rscale>  2 0.18042970E+03</rscale>
<asrwt>0</asrwt>
<pdfrwt beam="1">  1       21 0.27047523E-01 0.18042970E+03</pdfrwt>
<pdfrwt beam="2">  1       21 0.79412115E-01 0.18042970E+03</pdfrwt>
<totfact> 0.18352773E+04</totfact>
</mgrwt>
</event>
<event>
 4      2 +5.6305390e+02 1.83013200e+02 7.54677100e-03 1.16491800e-01
        1 -1    0    0  502    0 +0.0000000000e+00 +0.0000000000e+00 +5.5201485853e+01 5.5201485853e+01 0.0000000000e+00 0.0000e+00 1.0000e+00
       -1 -1    0    0    0  501 -0.0000000000e+00 -0.0000000000e+00 -6.6417362179e+02 6.6417362179e+02 0.0000000000e+00 0.0000e+00 -1.0000e+00
        6  1    1    2  502    0 +1.8370914193e+01 +5.6809691879e+01 -1.9872951693e+02 2.7016153035e+02 1.7300000000e+02 0.0000e+00 1.0000e+00
       -6  1    1    2    0  501 -1.8370914193e+01 -5.6809691879e+01 -4.1024261900e+02 4.4921357730e+02 1.7300000000e+02 0.0000e+00 -1.0000e+00
<mgrwt>
<rscale>  2 0.18301320E+03</rscale>
<asrwt>0</asrwt>
<pdfrwt beam="1">  1        1 0.84925365E-02 0.18301320E+03</pdfrwt>
<pdfrwt beam="2">  1       -1 0.10218055E+00 0.18301320E+03</pdfrwt>
<totfact> 0.76543309E+02</totfact>
</mgrwt>
</event>
<event>
 4      2 +5.6305390e+02 2.23628900e+02 7.54677100e-03 1.13120600e-01
       21 -1    0    0  503  502 +0.0000000000e+00 +0.0000000000e+00 +7.9117240995e+01 7.9117240995e+01 0.0000000000e+00 0.0000e+00 -1.0000e+00
       21 -1    0    0  501  503 -0.0000000000e+00 -0.0000000000e+00 -6.7838367961e+02 6.7838367961e+02 0.0000000000e+00 0.0000e+00 -1.0000e+00
        6  1    1    2  501    0 -1.2361032963e+02 -6.9291956875e+01 -2.0070128993e+02 3.0048443663e+02 1.7300000000e+02 0.0000e+00 -1.0000e+00
       -6  1    1    2    0  502 +1.2361032963e+02 +6.9291956875e+01 -3.9856514868e+02 4.5701648397e+02 1.7300000000e+02 0.0000e+00 -1.0000e+00
<mgrwt>
<rscale>  2 0.22362891E+03</rscale>
<asrwt>0</asrwt>
<pdfrwt beam="1">  1       21 0.12171883E-01 0.22362891E+03</pdfrwt>
<pdfrwt beam="2">  1       21 0.10436672E+00 0.22362891E+03</pdfrwt>
<totfact> 0.41731500E+04</totfact>
</mgrwt>
</event>
<event>
 4      2 +5.6305390e+02 2.04740400e+02 7.54677100e-03 1.14580000e-01
       21 -1    0    0  501  502 +0.0000000000e+00 +0.0000000000e+00 +1.6772998141e+02 1.6772998141e+02 0.0000000000e+00 0.0000e+00 1.0000e+00
       21 -1    0    0  502  503 -0.0000000000e+00 -0.0000000000e+00 -3.0491211679e+02 3.0491211679e+02 0.0000000000e+00 0.0000e+00 1.0000e+00
        6  1    1    2  501    0 +4.3077062281e+01 +1.0066780781e+02 +3.1772374990e+01 2.0719103416e+02 1.7300000000e+02 0.0000e+00 1.0000e+00
       -6  1    1    2    0  503 -4.3077062281e+01 -1.0066780781e+02 -1.6895451038e+02 2.6545106404e+02 1.7300000000e+02 0.0000e+00 1.0000e+00
<mgrwt>
<rscale>  2 0.20474042E+03</rscale>
<asrwt>0</asrwt>
<pdfrwt beam="1">  1       21 0.25804613E-01 0.20474042E+03</pdfrwt>
<pdfrwt beam="2">  1       21 0.46909556E-01 0.20474042E+03</pdfrwt>
<totfact> 0.61668854E+04</totfact>
</mgrwt>
</event>
<event>
 4      2 +5.6305390e+02 1.90912300e+02 7.54677100e-03 1.15764100e-01
       21 -1    0    0  503  502 +0.0000000000e+00 +0.0000000000e+00 +6.4373787507e+01 6.4373787507e+01 0.0000000000e+00 0.0000e+00 -1.0000e+00
       21 -1    0    0  501  503 -0.0000000000e+00 -0.0000000000e+00 -7.7683229955e+02 7.7683229955e+02 0.0000000000e+00 0.0000e+00 -1.0000e+00
        6  1    1    2  501    0 -7.4392929925e+01 -3.1371950388e+01 -5.7525046431e+02 6.0610279985e+02 1.7300000000e+02 0.0000e+00 -1.0000e+00
       -6  1    1    2    0  502 +7.4392929925e+01 +3.1371950388e+01 -1.3720804773e+02 2.3510328721e+02 1.7300000000e+02 0.0000e+00 -1.0000e+00
<mgrwt>
<rscale>  2 0.19091230E+03</rscale>
<asrwt>0</asrwt>
<pdfrwt beam="1">  1       21 0.99036595E-02 0.19091230E+03</pdfrwt>
<pdfrwt beam="2">  1       21 0.11951266E+00 0.19091230E+03</pdfrwt>
<totfact> 0.44075584E+04</totfact>
</mgrwt>
</event>
<event>
 4      2 +5.6305390e+02 1.91886300e+02 7.54677100e-03 1.15677100e-01
       21 -1    0    0  503  502 +0.0000000000e+00 +0.0000000000e+00 +5.5250812629e+02 5.5250812629e+02 0.0000000000e+00 0.0000e+00 1.0000e+00
       21 -1    0    0  501  503 -0.0000000000e+00 -0.0000000000e+00 -1.1498812809e+02 1.1498812809e+02 0.0000000000e+00 0.0000e+00 1.0000e+00
        6  1    1    2  501    0 +5.0244493999e+01 -6.6082176368e+01 +2.3525349023e+00 1.9190074943e+02 1.7300000000e+02 0.0000e+00 1.0000e+00
       -6  1    1    2    0  502 -5.0244493999e+01 +6.6082176368e+01 +4.3516746330e+02 4.7559550495e+02 1.7300000000e+02 0.0000e+00 1.0000e+00
<mgrwt>
<rscale>  2 0.19188633E+03</rscale>
<asrwt>0</asrwt>
<pdfrwt beam="1">  1       21 0.85001249E-01 0.19188633E+03</pdfrwt>
<pdfrwt beam="2">  1       21 0.17690482E-01 0.19188633E+03</pdfrwt>
<totfact> 0.34751971E+04</totfact>
</mgrwt>
</event>
<event>
 4      3 +5.6305390e+02 8.51010000e+01 7.54677100e-03 1.31516900e-01
        1 -1    0    0  501    0 +0.0000000000e+00 +0.0000000000e+00 +1.8135193299e+02 1.8135193299e+02 0.0000000000e+00 0.0000e+00 -1.0000e+00
       -1 -1    0    0    0  501 -0.0000000000e+00 -0.0000000000e+00 -4.0027122019e+01 4.0027122019e+01 0.0000000000e+00 0.0000e+00 1.0000e+00
       24  1    1    2    0    0 +2.4027359111e+01 +1.4058678180e+01 +7.5990547586e+01 1.1409092731e+02 8.0419002446e+01 0.0000e+00 0.0000e+00
      -24  1    1    2    0    0 -2.4027359111e+01 -1.4058678180e+01 +6.5334263380e+01 1.0728812769e+02 8.0419002446e+01 0.0000e+00 1.0000e+00
<mgrwt>
<rscale>  0 0.85100988E+02</rscale>
<asrwt>0</asrwt>
<pdfrwt beam="1">  1        1 0.27900297E-01 0.85100999E+02</pdfrwt>
<pdfrwt beam="2">  1       -1 0.61580188E-02 0.85100999E+02</pdfrwt>
<totfact> 0.18902086E+04</totfact>
</mgrwt>
</event>
<event>
 4      2 +5.6305390e+02 2.28335700e+02 7.54677100e-03 1.12781700e-01
       21 -1    0    0  503  502 +0.0000000000e+00 +0.0000000000e+00 +5.8399195302e+02 5.8399195302e+02 0.0000000000e+00 0.0000e+00 -1.0000e+00
       21 -1    0    0  501  503 -0.0000000000e+00 -0.0000000000e+00 -9.2661064650e+01 9.2661064650e+01 0.0000000000e+00 0.0000e+00 -1.0000e+00
        6  1    1    2  501    0 -9.2671505717e+01 +1.1670560798e+02 +1.8101233368e+02 2.9138063053e+02 1.7300000000e+02 0.0000e+00 -1.0000e+00
       -6  1    1    2    0  502 +9.2671505717e+01 -1.1670560798e+02 +3.1031855469e+02 3.8527238713e+02 1.7300000000e+02 0.0000e+00 -1.0000e+00
<mgrwt>
<rscale>  2 0.22833573E+03</rscale>
<asrwt>0</asrwt>
<pdfrwt beam="1">  1       21 0.89844913E-01 0.22833573E+03</pdfrwt>
<pdfrwt beam="2">  1       21 0.14255549E-01 0.22833573E+03</pdfrwt>
<totfact> 0.44591786E+04</totfact>
</mgrwt>
</event>
<event>
 4      2 +5.6305390e+02 2.24499100e+02 7.54677100e-03 1.13057300e-01
       21 -1    0    0  501  502 +0.0000000000e+00 +0.0000000000e+00 +4.8479820804e+02 4.8479820804e+02 0.0000000000e+00 0.0000e+00 -1.0000e+00
       21 -1    0    0  502  503 -0.0000000000e+00 -0.0000000000e+00 -1.0431458327e+02 1.0431458327e+02 0.0000000000e+00 0.0000e+00 -1.0000e+00
        6  1    1    2  501    0 -1.4272474696e+02 -1.0024469210e+01 +1.7307953684e+02 2.8347199059e+02 1.7300000000e+02 0.0000e+00 -1.0000e+00
       -6  1    1    2    0  503 +1.4272474696e+02 +1.0024469210e+01 +2.0740408793e+02 3.0564080072e+02 1.7300000000e+02 0.0000e+00 -1.0000e+00
<mgrwt>
<rscale>  2 0.22449909E+03</rscale>
<asrwt>0</asrwt>
<pdfrwt beam="1">  1       21 0.74584338E-01 0.22449909E+03</pdfrwt>
<pdfrwt beam="2">  1       21 0.16048398E-01 0.22449909E+03</pdfrwt>
<totfact> 0.54995066E+04</totfact>
</mgrwt>
</event>
<event>
 4      2 +5.6305390e+02 2.66794100e+02 7.54677100e-03 1.10312900e-01
       21 -1    0    0  501  502 +0.0000000000e+00 +0.0000000000e+00 +6.8458889936e+02 6.8458889936e+02 0.0000000000e+00 0.0000e+00 -1.0000e+00
       21 -1    0    0  502  503 -0.0000000000e+00 -0.0000000000e+00 -1.0737477015e+02 1.0737477015e+02 0.0000000000e+00 0.0000e+00 -1.0000e+00
        6  1    1    2  501    0 +1.9717824615e+02 +4.8691022915e+01 +2.1813008806e+02 3.4461545494e+02 1.7300000000e+02 0.0000e+00 -1.0000e+00
       -6  1    1    2    0  503 -1.9717824615e+02 -4.8691022915e+01 +3.5908404115e+02 4.4734821457e+02 1.7300000000e+02 0.0000e+00 -1.0000e+00
<mgrwt>
<rscale>  2 0.26679407E+03</rscale>
<asrwt>0</asrwt>
<pdfrwt beam="1">  1       21 0.10532137E+00 0.26679407E+03</pdfrwt>
<pdfrwt beam="2">  1       21 0.16519196E-01 0.26679407E+03</pdfrwt>
<totfact> 0.22924816E+04</totfact>
</mgrwt>
</event>
<event>
 4      2 +5.6305390e+02 1.84605800e+02 7.54677100e-03 1.16341900e-01
       -1 -1    0    0    0  501 -0.0000000000e+00 +0.0000000000e+00 +1.4129348832e+03 1.4129348832e+03 0.0000000000e+00 0.0000e+00 1.0000e+00
        1 -1    0    0  502    0 +0.0000000000e+00 -0.0000000000e+00 -8.5233454811e+01 8.5233454811e+01 0.0000000000e+00 0.0000e+00 -1.0000e+00
        6  1    1    2  502    0 -6.0452473787e+01 -2.2266281852e+01 +1.2981522341e+03 1.3112126112e+03 1.7300000000e+02 0.0000e+00 1.0000e+00
       -6  1    1    2    0  501 +6.0452473787e+01 +2.2266281852e+01 +2.9549194268e+01 1.8695572678e+02 1.7300000000e+02 0.0000e+00 -1.0000e+00
<mgrwt>
<rscale>  2 0.18460577E+03</rscale>
<asrwt>0</asrwt>
<pdfrwt beam="1">  1        1 0.13112840E-01 0.18460577E+03</pdfrwt>
<pdfrwt beam="2">  1       -1 0.21737458E+00 0.18460577E+03</pdfrwt>
<totfact> 0.58402092E+01</totfact>
</mgrwt>
</event>
<event>
 4      2 +5.6305390e+02 2.82953900e+02 7.54677100e-03 1.09408600e-01
       21 -1    0    0  501  502 +0.0000000000e+00 +0.0000000000e+00 +5.5121093672e+02 5.5121093672e+02 0.0000000000e+00 0.0000e+00 -1.0000e+00
       21 -1    0    0  502  503 -0.0000000000e+00 -0.0000000000e+00 -1.4942389683e+02 1.4942389683e+02 0.0000000000e+00 0.0000e+00 -1.0000e+00
        6  1    1    2  501    0 -4.5891079967e+01 -2.1915268887e+02 +1.4233779080e+02 3.1673796575e+02 1.7300000000e+02 0.0000e+00 -1.0000e+00
       -6  1    1    2    0  503 +4.5891079967e+01 +2.1915268887e+02 +2.5944924909e+02 3.8389686780e+02 1.7300000000e+02 0.0000e+00 -1.0000e+00
<mgrwt>
<rscale>  2 0.28295387E+03</rscale>
<asrwt>0</asrwt>
<pdfrwt beam="1">  1       21 0.84801682E-01 0.28295387E+03</pdfrwt>
<pdfrwt beam="2">  1       21 0.22988292E-01 0.28295387E+03</pdfrwt>
<totfact> 0.20425835E+04</totfact>
</mgrwt>
</event>
<event>
 4      2 +5.6305390e+02 1.77728800e+02 7.54677100e-03 1.17001900e-01
       21 -1    0    0  503  502 +0.0000000000e+00 +0.0000000000e+00 +2.7235154351e+02 2.7235154351e+02 0.0000000000e+00 0.0000e+00 -1.0000e+00
       21 -1    0    0  501  503 -0.0000000000e+00 -0.0000000000e+00 -1.3157981031e+02 1.3157981031e+02 0.0000000000e+00 0.0000e+00 1.0000e+00
        6  1    1    2  501    0 +7.6667946126e+00 -3.9996816495e+01 +8.4617935051e-01 1.7773081075e+02 1.7300000000e+02 0.0000e+00 1.0000e+00
       -6  1    1    2    0  502 -7.6667946126e+00 +3.9996816495e+01 +1.3992555384e+02 2.2620054308e+02 1.7300000000e+02 0.0000e+00 -1.0000e+00
<mgrwt>
<rscale>  2 0.17772880E+03</rscale>
<asrwt>0</asrwt>
<pdfrwt beam="1">  1       21 0.41900237E-01 0.17772880E+03</pdfrwt>
<pdfrwt beam="2">  1       21 0.20243048E-01 0.17772880E+03</pdfrwt>
<totfact> 0.12437817E+05</totfact>
</mgrwt>
</event>
<event>
 4      3 +5.6305390e+02 1.11495900e+02 7.54677100e-03 1.25782500e-01
       -1 -1    0    0    0  501 -0.0000000000e+00 +0.0000000000e+00 +3.1935445587e+01 3.1935445587e+01 0.0000000000e+00 0.0000e+00 1.0000e+00
        1 -1    0    0  501    0 +0.0000000000e+00 -0.0000000000e+00 -4.3743558614e+02 4.3743558614e+02 0.0000000000e+00 0.0000e+00 -1.0000e+00
       24  1    1    2    0    0 -7.0600299625e+01 +3.1300386716e+01 -1.2487062587e+02 1.6740372061e+02 8.0419002446e+01 0.0000e+00 1.0000e+00
      -24  1    1    2    0    0 +7.0600299625e+01 -3.1300386716e+01 -2.8062951468e+02 3.0196731111e+02 8.0419002446e+01 0.0000e+00 -1.0000e+00
<mgrwt>
<rscale>  0 0.11149589E+03</rscale>
<asrwt>0</asrwt>
<pdfrwt beam="1">  1        1 0.67297784E-01 0.11149589E+03</pdfrwt>
<pdfrwt beam="2">  1       -1 0.49131453E-02 0.11149589E+03</pdfrwt>
<totfact> 0.91412099E+03</totfact>
</mgrwt>
</event>
<event>
 4      2 +5.6305390e+02 1.75557700e+02 7.54677100e-03 1.17217300e-01
       21 -1    0    0  501  502 +0.0000000000e+00 +0.0000000000e+00 +1.3052117919e+03 1.3052117919e+03 0.0000000000e+00 0.0000e+00 -1.0000e+00
       21 -1    0    0  502  503 -0.0000000000e+00 -0.0000000000e+00 -3.8338051590e+02 3.8338051590e+02 0.0000000000e+00 0.0000e+00 -1.0000e+00
        6  1    1    2  501    0 +2.9182378226e+01 +6.3150710960e+00 +1.2787973983e+03 1.2907917249e+03 1.7300000000e+02 0.0000e+00 -1.0000e+00
       -6  1    1    2    0  503 -2.9182378226e+01 -6.3150710960e+00 -3.5696612225e+02 3.9780058290e+02 1.7300000000e+02 0.0000e+00 -1.0000e+00
<mgrwt>
<rscale>  2 0.17555766E+03</rscale>
<asrwt>0</asrwt>
<pdfrwt beam="1">  1       21 0.20080181E+00 0.17555766E+03</pdfrwt>
<pdfrwt beam="2">  1       21 0.58981619E-01 0.17555766E+03</pdfrwt>
<totfact> 0.36482546E+02</totfact>
</mgrwt>
</event>
<event>
 4      3 +5.6305390e+02 8.39141100e+01 7.54677100e-03 1.31829700e-01
        2 -1    0    0  501    0 +0.0000000000e+00 +0.0000000000e+00 +2.5484884654e+03 2.5484884654e+03 0.0000000000e+00 0.0000e+00 -1.0000e+00
       -2 -1    0    0    0  501 -0.0000000000e+00 -0.0000000000e+00 -3.1732181046e+00 3.1732181046e+00 0.0000000000e+00 0.0000e+00 1.0000e+00
       24  1    1    2    0    0 +1.8166559542e+01 +1.5631186692e+01 +8.1395657649e+02 8.1827066564e+02 8.0419002446e+01 0.0000e+00 0.0000e+00
      -24  1    1    2    0    0 -1.8166559542e+01 -1.5631186692e+01 +1.7313586708e+03 1.7333910179e+03 8.0419002446e+01 0.0000e+00 -1.0000e+00
<mgrwt>
<rscale>  0 0.83914097E+02</rscale>
<asrwt>0</asrwt>
<pdfrwt beam="1">  1        2 0.39207351E+00 0.83914107E+02</pdfrwt>
<pdfrwt beam="2">  1       -2 0.48818944E-03 0.83914107E+02</pdfrwt>
<totfact> 0.21683144E+04</totfact>
</mgrwt>
</event>
<event>
 4      2 +5.6305390e+02 1.75808500e+02 7.54677100e-03 1.17192200e-01
       21 -1    0    0  503  502 +0.0000000000e+00 +0.0000000000e+00 +1.1995205211e+02 1.1995205211e+02 0.0000000000e+00 0.0000e+00 -1.0000e+00
       21 -1    0    0  501  503 -0.0000000000e+00 -0.0000000000e+00 -2.6772219269e+02 2.6772219269e+02 0.0000000000e+00 0.0000e+00 -1.0000e+00
        6  1    1    2  501    0 +5.2303546184e+00 -3.0859084247e+01 -1.1143577525e+02 2.0815035838e+02 1.7300000000e+02 0.0000e+00 -1.0000e+00
       -6  1    1    2    0  502 -5.2303546184e+00 +3.0859084247e+01 -3.6334365327e+01 1.7952388642e+02 1.7300000000e+02 0.0000e+00 -1.0000e+00
<mgrwt>
<rscale>  2 0.17580853E+03</rscale>
<asrwt>0</asrwt>
<pdfrwt beam="1">  1       21 0.18454162E-01 0.17580853E+03</pdfrwt>
<pdfrwt beam="2">  1       21 0.41188029E-01 0.17580853E+03</pdfrwt>
<totfact> 0.15302882E+05</totfact>
</mgrwt>
</event>
<event>
 4      3 +5.6305390e+02 1.02044100e+02 7.54677100e-03 1.27605500e-01
        2 -1    0    0  501    0 +0.0000000000e+00 +0.0000000000e+00 +3.8006223668e+01 3.8006223668e+01 0.0000000000e+00 0.0000e+00 -1.0000e+00
       -2 -1    0    0    0  501 -0.0000000000e+00 -0.0000000000e+00 -3.1255835125e+02 3.1255835125e+02 0.0000000000e+00 0.0000e+00 1.0000e+00
       24  1    1    2    0    0 +2.6806894570e+00 +6.2758215518e+01 -7.5696468531e+01 1.2705491338e+02 8.0419002446e+01 0.0000e+00 -1.0000e+00
      -24  1    1    2    0    0 -2.6806894570e+00 -6.2758215518e+01 -1.9885565906e+02 2.2350966154e+02 8.0419002446e+01 0.0000e+00 1.0000e+00
<mgrwt>
<rscale>  0 0.10204409E+03</rscale>
<asrwt>0</asrwt>
<pdfrwt beam="1">  1        2 0.58471112E-02 0.10204409E+03</pdfrwt>
<pdfrwt beam="2">  1       -2 0.48085901E-01 0.10204409E+03</pdfrwt>
<totfact> 0.49213874E+03</totfact>
</mgrwt>
</event>
<event>
 4      2 +5.6305390e+02 1.87722000e+02 7.54677100e-03 1.16053200e-01
       21 -1    0    0  501  502 +0.0000000000e+00 +0.0000000000e+00 +1.4357170982e+02 1.4357170982e+02 0.0000000000e+00 0.0000e+00 -1.0000e+00
       21 -1    0    0  502  503 -0.0000000000e+00 -0.0000000000e+00 -2.6988920969e+02 2.6988920969e+02 0.0000000000e+00 0.0000e+00 -1.0000e+00
        6  1    1    2  501    0 +7.2568755780e+01 +6.6568561684e+00 -9.4822920334e-01 1.8772436493e+02 1.7300000000e+02 0.0000e+00 1.0000e+00
       -6  1    1    2    0  503 -7.2568755780e+01 -6.6568561684e+00 -1.2536927067e+02 2.2573655459e+02 1.7300000000e+02 0.0000e+00 1.0000e+00
<mgrwt>
<rscale>  2 0.18772197E+03</rscale>
<asrwt>0</asrwt>
<pdfrwt beam="1">  1       21 0.22087956E-01 0.18772197E+03</pdfrwt>
<pdfrwt beam="2">  1       21 0.41521417E-01 0.18772197E+03</pdfrwt>
<totfact> 0.10719063E+05</totfact>
</mgrwt>
</event>
<event>
 4      2 +5.6305390e+02 1.75624800e+02 7.54677100e-03 1.17210600e-01
       21 -1    0    0  501  502 +0.0000000000e+00 +0.0000000000e+00 +2.2252126549e+02 2.2252126549e+02 0.0000000000e+00 0.0000e+00 -1.0000e+00
       21 -1    0    0  502  503 -0.0000000000e+00 -0.0000000000e+00 -2.8189102540e+02 2.8189102540e+02 0.0000000000e+00 0.0000e+00 -1.0000e+00
        6  1    1    2  501    0 -2.4373682131e+01 +1.7916463947e+01 +1.5012213560e+02 2.3104270527e+02 1.7300000000e+02 0.0000e+00 -1.0000e+00
       -6  1    1    2    0  503 +2.4373682131e+01 -1.7916463947e+01 -2.0949189551e+02 2.7336958563e+02 1.7300000000e+02 0.0000e+00 -1.0000e+00
<mgrwt>
<rscale>  2 0.17562482E+03</rscale>
<asrwt>0</asrwt>
<pdfrwt beam="1">  1       21 0.34234041E-01 0.17562482E+03</pdfrwt>
<pdfrwt beam="2">  1       21 0.43367850E-01 0.17562482E+03</pdfrwt>
<totfact> 0.42382409E+04</totfact>
</mgrwt>
</event>
<event>
 4      2 +5.6305390e+02 2.02930100e+02 7.54677100e-03 1.14729000e-01
        2 -1    0    0  502    0 +0.0000000000e+00 +0.0000000000e+00 +1.5868739990e+03 1.5868739990e+03 0.0000000000e+00 0.0000e+00 -1.0000e+00
       -2 -1    0    0    0  501 -0.0000000000e+00 -0.0000000000e+00 -2.6245170435e+01 2.6245170435e+01 0.0000000000e+00 0.0000e+00 1.0000e+00
        6  1    1    2  502    0 +1.0044317798e+02 -3.4099553530e+01 +6.9489106039e+02 7.2391587727e+02 1.7300000000e+02 0.0000e+00 1.0000e+00
       -6  1    1    2    0  501 -1.0044317798e+02 +3.4099553530e+01 +8.6573776820e+02 8.8920329219e+02 1.7300000000e+02 0.0000e+00 -1.0000e+00
<mgrwt>
<rscale>  2 0.20293007E+03</rscale>
<asrwt>0</asrwt>
<pdfrwt beam="1">  1        2 0.24413439E+00 0.20293007E+03</pdfrwt>
<pdfrwt beam="2">  1       -2 0.40377198E-02 0.20293007E+03</pdfrwt>
<totfact> 0.33171673E+03</totfact>
</mgrwt>
</event>
<event>
 4      2 +5.6305390e+02 4.42811800e+02 7.54677100e-03 1.02988800e-01
       21 -1    0    0  501  502 +0.0000000000e+00 +0.0000000000e+00 +1.2889672259e+03 1.2889672259e+03 0.0000000000e+00 0.0000e+00 -1.0000e+00
       21 -1    0    0  502  503 -0.0000000000e+00 -0.0000000000e+00 -3.7281487249e+02 3.7281487249e+02 0.0000000000e+00 0.0000e+00 1.0000e+00
        6  1    1    2  501    0 -3.2191303958e+02 -2.5005061526e+02 +1.0973546202e+03 1.1833298262e+03 1.7300000000e+02 0.0000e+00 -1.0000e+00
       -6  1    1    2    0  503 +3.2191303958e+02 +2.5005061526e+02 -1.8120226677e+02 4.7845227215e+02 1.7300000000e+02 0.0000e+00 1.0000e+00
<mgrwt>
<rscale>  2 0.44281183E+03</rscale>
<asrwt>0</asrwt>
<pdfrwt beam="1">  1       21 0.19830265E+00 0.44281183E+03</pdfrwt>
<pdfrwt beam="2">  1       21 0.57356135E-01 0.44281183E+03</pdfrwt>
<totfact> 0.32198867E+02</totfact>
</mgrwt>
</event>
<event>
 4      2 +5.6305390e+02 2.30894400e+02 7.54677100e-03 1.12601200e-01
       21 -1    0    0  501  502 +0.0000000000e+00 +0.0000000000e+00 +7.3114573330e+01 7.3114573330e+01 0.0000000000e+00 0.0000e+00 -1.0000e+00
       21 -1    0    0  502  503 -0.0000000000e+00 -0.0000000000e+00 -9.0884613638e+02 9.0884613638e+02 0.0000000000e+00 0.0000e+00 1.0000e+00
        6  1    1    2  501    0 -2.7514018418e+01 -1.5042003333e+02 -6.3617720442e+02 6.7678182826e+02 1.7300000000e+02 0.0000e+00 1.0000e+00
       -6  1    1    2    0  503 +2.7514018418e+01 +1.5042003333e+02 -1.9955435863e+02 3.0517888145e+02 1.7300000000e+02 0.0000e+00 -1.0000e+00
<mgrwt>
<rscale>  2 0.23089436E+03</rscale>
<asrwt>0</asrwt>
<pdfrwt beam="1">  1       21 0.11248396E-01 0.23089436E+03</pdfrwt>
<pdfrwt beam="2">  1       21 0.13982248E+00 0.23089436E+03</pdfrwt>
<totfact> 0.23099613E+04</totfact>
</mgrwt>
</event>
<event>
 4      2 +5.6305390e+02 1.82671400e+02 7.54677100e-03 1.16524200e-01
       21 -1    0    0  503  502 +0.0000000000e+00 +0.0000000000e+00 +1.3546882287e+02 1.3546882287e+02 0.0000000000e+00 0.0000e+00 1.0000e+00
       21 -1    0    0  501  503 -0.0000000000e+00 -0.0000000000e+00 -2.9074990583e+02 2.9074990583e+02 0.0000000000e+00 0.0000e+00 1.0000e+00
        6  1    1    2  501    0 +5.8272655764e+01 -6.6435331329e+00 -1.6094624196e+02 2.4345950740e+02 1.7300000000e+02 0.0000e+00 1.0000e+00
       -6  1    1    2    0  502 -5.8272655764e+01 +6.6435331329e+00 +5.6651589985e+00 1.8275922130e+02 1.7300000000e+02 0.0000e+00 1.0000e+00
<mgrwt>
<rscale>  2 0.18267140E+03</rscale>
<asrwt>0</asrwt>
<pdfrwt beam="1">  1       21 0.20841357E-01 0.18267140E+03</pdfrwt>
<pdfrwt beam="2">  1       21 0.44730755E-01 0.18267140E+03</pdfrwt>
<totfact> 0.10290093E+05</totfact>
</mgrwt>
</event>
<event>
 4      2 +5.6305390e+02 1.79679200e+02 7.54677100e-03 1.16811400e-01
       21 -1    0    0  501  502 +0.0000000000e+00 +0.0000000000e+00 +4.0287888958e+02 4.0287888958e+02 0.0000000000e+00 0.0000e+00 -1.0000e+00
       21 -1    0    0  502  503 -0.0000000000e+00 -0.0000000000e+00 -1.1722559679e+02 1.1722559679e+02 0.0000000000e+00 0.0000e+00 -1.0000e+00
        6  1    1    2  501    0 -4.1188782357e+01 +2.5672794845e+01 +2.8910586112e+02 3.4039213728e+02 1.7300000000e+02 0.0000e+00 1.0000e+00
       -6  1    1    2    0  503 +4.1188782357e+01 -2.5672794845e+01 -3.4525683367e+00 1.7971234909e+02 1.7300000000e+02 0.0000e+00 1.0000e+00
<mgrwt>
<rscale>  2 0.17967918E+03</rscale>
<asrwt>0</asrwt>
<pdfrwt beam="1">  1       21 0.61981367E-01 0.17967918E+03</pdfrwt>
<pdfrwt beam="2">  1       21 0.18034707E-01 0.17967918E+03</pdfrwt>
<totfact> 0.67975750E+04</totfact>
</mgrwt>
</event>
<event>
 4      2 +5.6305390e+02 2.45548100e+02 7.54677100e-03 1.11615100e-01
       21 -1    0    0  503  502 +0.0000000000e+00 +0.0000000000e+00 +6.1099453278e+02 6.1099453278e+02 0.0000000000e+00 0.0000e+00 1.0000e+00
       21 -1    0    0  501  503 -0.0000000000e+00 -0.0000000000e+00 -1.1662985551e+02 1.1662985551e+02 0.0000000000e+00 0.0000e+00 -1.0000e+00
        6  1    1    2  501    0 +1.4545513010e+02 -9.5956679592e+01 +1.0446252370e+02 2.6684508257e+02 1.7300000000e+02 0.0000e+00 -1.0000e+00
       -6  1    1    2    0  502 -1.4545513010e+02 +9.5956679592e+01 +3.8990215356e+02 4.6077930573e+02 1.7300000000e+02 0.0000e+00 -1.0000e+00
<mgrwt>
<rscale>  2 0.24554812E+03</rscale>
<asrwt>0</asrwt>
<pdfrwt beam="1">  1       21 0.93999157E-01 0.24554812E+03</pdfrwt>
<pdfrwt beam="2">  1       21 0.17943055E-01 0.24554812E+03</pdfrwt>
<totfact> 0.26065559E+04</totfact>
</mgrwt>
</event>
<event>
 4      2 +5.6305390e+02 1.75006400e+02 7.54677100e-03 1.17272500e-01
       21 -1    0    0  501  502 +0.0000000000e+00 +0.0000000000e+00 +2.4068641633e+01 2.4068641633e+01 0.0000000000e+00 0.0000e+00 -1.0000e+00
       21 -1    0    0  502  503 -0.0000000000e+00 -0.0000000000e+00 -1.9825015878e+03 1.9825015878e+03 0.0000000000e+00 0.0000e+00 -1.0000e+00
        6  1    1    2  501    0 -4.7311435972e+00 -2.5997417868e+01 -3.7880568111e+02 4.1727807695e+02 1.7300000000e+02 0.0000e+00 -1.0000e+00
       -6  1    1    2    0  503 +4.7311435972e+00 +2.5997417868e+01 -1.5796272651e+03 1.5892921525e+03 1.7300000000e+02 0.0000e+00 -1.0000e+00
<mgrwt>
<rscale>  2 0.17500643E+03</rscale>
<asrwt>0</asrwt>
<pdfrwt beam="1">  1       21 0.37028669E-02 0.17500643E+03</pdfrwt>
<pdfrwt beam="2">  1       21 0.30500033E+00 0.17500643E+03</pdfrwt>
<totfact> 0.14521490E+04</totfact>
</mgrwt>
</event>
<event>
 4      2 +5.6305390e+02 1.82242800e+02 7.54677100e-03 1.16565000e-01
       21 -1    0    0  501  502 +0.0000000000e+00 +0.0000000000e+00 +2.6607353894e+01 2.6607353894e+01 0.0000000000e+00 0.0000e+00 1.0000e+00
       21 -1    0    0  502  503 -0.0000000000e+00 -0.0000000000e+00 -1.2485353279e+03 1.2485353279e+03 0.0000000000e+00 0.0000e+00 1.0000e+00
        6  1    1    2  501    0 +3.6926468817e+01 -4.3816543572e+01 -6.0121466216e+02 6.2822887835e+02 1.7300000000e+02 0.0000e+00 1.0000e+00
       -6  1    1    2    0  503 -3.6926468817e+01 +4.3816543572e+01 -6.2071331182e+02 6.4691380343e+02 1.7300000000e+02 0.0000e+00 1.0000e+00
<mgrwt>
<rscale>  2 0.18224284E+03</rscale>
<asrwt>0</asrwt>
<pdfrwt beam="1">  1       21 0.40934380E-02 0.18224284E+03</pdfrwt>
<pdfrwt beam="2">  1       21 0.19208241E+00 0.18224284E+03</pdfrwt>
<totfact> 0.57343127E+04</totfact>
</mgrwt>
</event>
<event>
 4      2 +5.6305390e+02 2.22043000e+02 7.54677100e-03 1.13236900e-01
       21 -1    0    0  503  502 +0.0000000000e+00 +0.0000000000e+00 +2.9477926932e+02 2.9477926932e+02 0.0000000000e+00 0.0000e+00 1.0000e+00
       21 -1    0    0  501  503 -0.0000000000e+00 -0.0000000000e+00 -7.6888336993e+02 7.6888336993e+02 0.0000000000e+00 0.0000e+00 -1.0000e+00
        6  1    1    2  501    0 -8.4512306101e+01 +1.1059731406e+02 -7.0749621662e+02 7.4152140380e+02 1.7300000000e+02 0.0000e+00 -1.0000e+00
       -6  1    1    2    0  502 +8.4512306101e+01 -1.1059731406e+02 +2.3339211601e+02 3.2214123545e+02 1.7300000000e+02 0.0000e+00 1.0000e+00
<mgrwt>
<rscale>  2 0.22204300E+03</rscale>
<asrwt>0</asrwt>
<pdfrwt beam="1">  1       21 0.45350658E-01 0.22204300E+03</pdfrwt>
<pdfrwt beam="2">  1       21 0.11828975E+00 0.22204300E+03</pdfrwt>
<totfact> 0.24885698E+03</totfact>
</mgrwt>
</event>
<event>
 4      2 +5.6305390e+02 1.94004900e+02 7.54677100e-03 1.15489800e-01
       21 -1    0    0  503  502 +0.0000000000e+00 +0.0000000000e+00 +1.9690918147e+02 1.9690918147e+02 0.0000000000e+00 0.0000e+00 -1.0000e+00
       21 -1    0    0  501  503 -0.0000000000e+00 -0.0000000000e+00 -4.4168525923e+02 4.4168525923e+02 0.0000000000e+00 0.0000e+00 -1.0000e+00
        6  1    1    2  501    0 +3.4248924872e+01 +8.0845059519e+01 -3.6286791302e+02 4.1147422131e+02 1.7300000000e+02 0.0000e+00 -1.0000e+00
       -6  1    1    2    0  502 -3.4248924872e+01 -8.0845059519e+01 +1.1809183526e+02 2.2712021940e+02 1.7300000000e+02 0.0000e+00 -1.0000e+00
<mgrwt>
<rscale>  2 0.19400493E+03</rscale>
<asrwt>0</asrwt>
<pdfrwt beam="1">  1       21 0.30293720E-01 0.19400493E+03</pdfrwt>
<pdfrwt beam="2">  1       21 0.67951578E-01 0.19400493E+03</pdfrwt>
<totfact> 0.20665295E+04</totfact>
</mgrwt>
</event>
<event>
 4      2 +5.6305390e+02 1.83523200e+02 7.54677100e-03 1.16443600e-01
       21 -1    0    0  501  502 +0.0000000000e+00 +0.0000000000e+00 +6.3546068262e+01 6.3546068262e+01 0.0000000000e+00 0.0000e+00 -1.0000e+00
       21 -1    0    0  502  503 -0.0000000000e+00 -0.0000000000e+00 -6.8569294950e+02 6.8569294950e+02 0.0000000000e+00 0.0000e+00 1.0000e+00
        6  1    1    2  501    0 +5.7074280959e+01 -2.2232315592e+01 -1.3257650792e+02 2.2640070639e+02 1.7300000000e+02 0.0000e+00 -1.0000e+00
       -6  1    1    2    0  503 -5.7074280959e+01 +2.2232315592e+01 -4.8957037332e+02 5.2283831137e+02 1.7300000000e+02 0.0000e+00 1.0000e+00
<mgrwt>
<rscale>  2 0.18352316E+03</rscale>
<asrwt>0</asrwt>
<pdfrwt beam="1">  1       21 0.97763179E-02 0.18352316E+03</pdfrwt>
<pdfrwt beam="2">  1       21 0.10549123E+00 0.18352316E+03</pdfrwt>
<totfact> 0.61279000E+04</totfact>
</mgrwt>
</event>
<event>
 4      2 +5.6305390e+02 1.76312400e+02 7.54677100e-03 1.17142000e-01
       21 -1    0    0  501  502 +0.0000000000e+00 +0.0000000000e+00 +2.0883734722e+02 2.0883734722e+02 0.0000000000e+00 0.0000e+00 -1.0000e+00
       21 -1    0    0  502  503 -0.0000000000e+00 -0.0000000000e+00 -4.0781020802e+02 4.0781020802e+02 0.0000000000e+00 0.0000e+00 -1.0000e+00
        6  1    1    2  501    0 +3.2882019803e+01 +8.7092325229e+00 +1.4620608389e+02 2.2904649511e+02 1.7300000000e+02 0.0000e+00 -1.0000e+00
       -6  1    1    2    0  503 -3.2882019803e+01 -8.7092325229e+00 -3.4517894469e+02 3.8760106013e+02 1.7300000000e+02 0.0000e+00 -1.0000e+00
<mgrwt>
<rscale>  2 0.17631244E+03</rscale>
<asrwt>0</asrwt>
<pdfrwt beam="1">  1       21 0.32128823E-01 0.17631244E+03</pdfrwt>
<pdfrwt beam="2">  1       21 0.62740032E-01 0.17631244E+03</pdfrwt>
<totfact> 0.22142701E+04</totfact>
</mgrwt>
</event>
<event>
 4      2 +5.6305390e+02 2.18886500e+02 7.54677100e-03 1.13471600e-01
       21 -1    0    0  501  502 +0.0000000000e+00 +0.0000000000e+00 +2.1916673963e+02 2.1916673963e+02 0.0000000000e+00 0.0000e+00 1.0000e+00
       21 -1    0    0  502  503 -0.0000000000e+00 -0.0000000000e+00 -2.3092297297e+02 2.3092297297e+02 0.0000000000e+00 0.0000e+00 1.0000e+00
        6  1    1    2  501    0 -3.5050506961e+01 -1.2943632159e+02 +4.6094747055e+01 2.2368733780e+02 1.7300000000e+02 0.0000e+00 1.0000e+00
       -6  1    1    2    0  503 +3.5050506961e+01 +1.2943632159e+02 -5.7850980397e+01 2.2640237481e+02 1.7300000000e+02 0.0000e+00 1.0000e+00
<mgrwt>
<rscale>  2 0.21888650E+03</rscale>
<asrwt>0</asrwt>
<pdfrwt beam="1">  1       21 0.33717960E-01 0.21888650E+03</pdfrwt>
<pdfrwt beam="2">  1       21 0.35526611E-01 0.21888650E+03</pdfrwt>
<totfact> 0.63976802E+04</totfact>
</mgrwt>
</event>
<event>
 4      2 +5.6305390e+02 1.78919300e+02 7.54677100e-03 1.16885300e-01
       21 -1    0    0  501  502 +0.0000000000e+00 +0.0000000000e+00 +1.9719490332e+01 1.9719490332e+01 0.0000000000e+00 0.0000e+00 -1.0000e+00
       21 -1    0    0  502  503 -0.0000000000e+00 -0.0000000000e+00 -1.7012449098e+03 1.7012449098e+03 0.0000000000e+00 0.0000e+00 -1.0000e+00
        6  1    1    2  501    0 -1.8743545327e+01 -4.1614757909e+01 -6.5666601066e+02 6.8060440648e+02 1.7300000000e+02 0.0000e+00 -1.0000e+00
       -6  1    1    2    0  503 +1.8743545327e+01 +4.1614757909e+01 -1.0248594088e+03 1.0403599937e+03 1.7300000000e+02 0.0000e+00 -1.0000e+00
<mgrwt>
<rscale>  2 0.17891928E+03</rscale>
<asrwt>0</asrwt>
<pdfrwt beam="1">  1       21 0.30337675E-02 0.17891928E+03</pdfrwt>
<pdfrwt beam="2">  1       21 0.26173001E+00 0.17891928E+03</pdfrwt>
<totfact> 0.35683774E+04</totfact>
</mgrwt>
</event>
<event>
 4      2 +5.6305390e+02 3.46428400e+02 7.54677100e-03 1.06409100e-01
       21 -1    0    0  501  502 +0.0000000000e+00 +0.0000000000e+00 +3.1690392642e+02 3.1690392642e+02 0.0000000000e+00 0.0000e+00 -1.0000e+00
       21 -1    0    0  502  503 -0.0000000000e+00 -0.0000000000e+00 -3.8358449466e+02 3.8358449466e+02 0.0000000000e+00 0.0000e+00 1.0000e+00
        6  1    1    2  501    0 -2.2479591309e+02 -1.9887289307e+02 +6.1685343824e+00 3.4648330545e+02 1.7300000000e+02 0.0000e+00 1.0000e+00
       -6  1    1    2    0  503 +2.2479591309e+02 +1.9887289307e+02 -7.2849102614e+01 3.5400511563e+02 1.7300000000e+02 0.0000e+00 -1.0000e+00
<mgrwt>
<rscale>  2 0.34642839E+03</rscale>
<asrwt>0</asrwt>
<pdfrwt beam="1">  1       21 0.48754450E-01 0.34642839E+03</pdfrwt>
<pdfrwt beam="2">  1       21 0.59012999E-01 0.34642839E+03</pdfrwt>
<totfact> 0.99576257E+03</totfact>
</mgrwt>
</event>
<event>
 4      2 +5.6305390e+02 1.82851500e+02 7.54677100e-03 1.16507200e-01
       21 -1    0    0  503  502 +0.0000000000e+00 +0.0000000000e+00 +2.0557560142e+02 2.0557560142e+02 0.0000000000e+00 0.0000e+00 1.0000e+00
       21 -1    0    0  501  503 -0.0000000000e+00 -0.0000000000e+00 -2.2588486261e+02 2.2588486261e+02 0.0000000000e+00 0.0000e+00 1.0000e+00
        6  1    1    2  501    0 -2.5106995663e+01 -5.3622050406e+01 -1.2430629529e+02 2.2110346123e+02 1.7300000000e+02 0.0000e+00 1.0000e+00
       -6  1    1    2    0  502 +2.5106995663e+01 +5.3622050406e+01 +1.0399703411e+02 2.1035700279e+02 1.7300000000e+02 0.0000e+00 1.0000e+00
<mgrwt>
<rscale>  2 0.18285154E+03</rscale>
<asrwt>0</asrwt>
<pdfrwt beam="1">  1       21 0.31627016E-01 0.18285154E+03</pdfrwt>
<pdfrwt beam="2">  1       21 0.34751517E-01 0.18285154E+03</pdfrwt>
<totfact> 0.77016488E+04</totfact>
</mgrwt>
</event>
<event>
 4      2 +5.6305390e+02 2.20530300e+02 7.54677100e-03 1.13348800e-01
       -2 -1    0    0    0  501 -0.0000000000e+00 +0.0000000000e+00 +2.6246555473e+02 2.6246555473e+02 0.0000000000e+00 0.0000e+00 1.0000e+00
        2 -1    0    0  502    0 +0.0000000000e+00 -0.0000000000e+00 -3.5854814794e+02 3.5854814794e+02 0.0000000000e+00 0.0000e+00 -1.0000e+00
        6  1    1    2  502    0 +8.3744900335e+01 -1.0812680150e+02 +1.6780158630e+02 2.7711186532e+02 1.7300000000e+02 0.0000e+00 1.0000e+00
       -6  1    1    2    0  501 -8.3744900335e+01 +1.0812680150e+02 -2.6388417951e+02 3.4390183735e+02 1.7300000000e+02 0.0000e+00 -1.0000e+00
<mgrwt>
<rscale>  2 0.22053030E+03</rscale>
<asrwt>0</asrwt>
<pdfrwt beam="1">  1        2 0.55161253E-01 0.22053030E+03</pdfrwt>
<pdfrwt beam="2">  1       -2 0.40379316E-01 0.22053030E+03</pdfrwt>
<totfact> 0.52913676E+02</totfact>
</mgrwt>
</event>
<event>
 4      2 +5.6305390e+02 2.72720400e+02 7.54677100e-03 1.09973300e-01
       21 -1    0    0  501  502 +0.0000000000e+00 +0.0000000000e+00 +2.7567448266e+02 2.7567448266e+02 0.0000000000e+00 0.0000e+00 1.0000e+00
       21 -1    0    0  502  503 -0.0000000000e+00 -0.0000000000e+00 -3.6122277377e+02 3.6122277377e+02 0.0000000000e+00 0.0000e+00 -1.0000e+00
        6  1    1    2  501    0 -1.9002150674e+02 +9.1319588587e+01 +1.1743364399e+02 2.9692945463e+02 1.7300000000e+02 0.0000e+00 1.0000e+00
       -6  1    1    2    0  503 +1.9002150674e+02 -9.1319588587e+01 -2.0298193511e+02 3.3996780180e+02 1.7300000000e+02 0.0000e+00 -1.0000e+00
<mgrwt>
<rscale>  2 0.27272044E+03</rscale>
<asrwt>0</asrwt>
<pdfrwt beam="1">  1       21 0.42411459E-01 0.27272044E+03</pdfrwt>
<pdfrwt beam="2">  1       21 0.55572734E-01 0.27272044E+03</pdfrwt>
<totfact> 0.15624267E+04</totfact>
</mgrwt>
</event>
<event>
 4      2 +5.6305390e+02 3.05914500e+02 7.54677100e-03 1.08232100e-01
       -1 -1    0    0    0  501 -0.0000000000e+00 +0.0000000000e+00 +5.6499829645e+02 5.6499829645e+02 0.0000000000e+00 0.0000e+00 1.0000e+00
        1 -1    0    0  502    0 +0.0000000000e+00 -0.0000000000e+00 -1.6669674872e+02 1.6669674872e+02 0.0000000000e+00 0.0000e+00 -1.0000e+00
        6  1    1    2  502    0 -1.8553598632e+02 +1.7097104858e+02 +2.2834330949e+02 3.8173861301e+02 1.7300000000e+02 0.0000e+00 1.0000e+00
       -6  1    1    2    0  501 +1.8553598632e+02 -1.7097104858e+02 +1.6995823824e+02 3.4995643217e+02 1.7300000000e+02 0.0000e+00 -1.0000e+00
<mgrwt>
<rscale>  2 0.30591453E+03</rscale>
<asrwt>0</asrwt>
<pdfrwt beam="1">  1        1 0.25645654E-01 0.30591453E+03</pdfrwt>
<pdfrwt beam="2">  1       -1 0.86922814E-01 0.30591453E+03</pdfrwt>
<totfact> 0.25421693E+02</totfact>
</mgrwt>
</event>
<event>
 4      2 +5.6305390e+02 2.29076000e+02 7.54677100e-03 1.12729200e-01
       -1 -1    0    0    0  501 -0.0000000000e+00 +0.0000000000e+00 +3.3823110234e+01 3.3823110234e+01 0.0000000000e+00 0.0000e+00 -1.0000e+00
        1 -1    0    0  502    0 +0.0000000000e+00 -0.0000000000e+00 -1.6542960877e+03 1.6542960877e+03 0.0000000000e+00 0.0000e+00 1.0000e+00
        6  1    1    2  502    0 -8.6266273675e+01 +1.2290219277e+02 -1.0206631586e+03 1.0460540628e+03 1.7300000000e+02 0.0000e+00 1.0000e+00
       -6  1    1    2    0  501 +8.6266273675e+01 -1.2290219277e+02 -5.9980981895e+02 6.4206513522e+02 1.7300000000e+02 0.0000e+00 1.0000e+00
<mgrwt>
<rscale>  2 0.22907601E+03</rscale>
<asrwt>0</asrwt>
<pdfrwt beam="1">  1        1 0.25450706E+00 0.22907601E+03</pdfrwt>
<pdfrwt beam="2">  1       -1 0.52035560E-02 0.22907601E+03</pdfrwt>
<totfact> 0.94194624E+02</totfact>
</mgrwt>
</event>
<event>
 4      3 +5.6305390e+02 8.15266700e+01 7.54677100e-03 1.32477400e-01
        2 -1    0    0  501    0 +0.0000000000e+00 +0.0000000000e+00 +2.1654587448e+03 2.1654587448e+03 0.0000000000e+00 0.0000e+00 -1.0000e+00
       -2 -1    0    0    0  501 -0.0000000000e+00 -0.0000000000e+00 -6.4278433310e+00 6.4278433310e+00 0.0000000000e+00 0.0000e+00 1.0000e+00
       24  1    1    2    0    0 -7.3974245549e+00 -1.1165099637e+01 +1.8644715406e+03 1.8662531240e+03 8.0419002446e+01 0.0000e+00 -1.0000e+00
      -24  1    1    2    0    0 +7.3974245549e+00 +1.1165099637e+01 +2.9455936086e+02 3.0563346407e+02 8.0419002446e+01 0.0000e+00 1.0000e+00
<mgrwt>
<rscale>  0 0.81526666E+02</rscale>
<asrwt>0</asrwt>
<pdfrwt beam="1">  1        2 0.33314692E+00 0.81526666E+02</pdfrwt>
<pdfrwt beam="2">  1       -2 0.98890070E-03 0.81526666E+02</pdfrwt>
<totfact> 0.12652347E+04</totfact>
</mgrwt>
</event>
<event>
 4      2 +5.6305390e+02 2.03132000e+02 7.54677100e-03 1.14712300e-01
       21 -1    0    0  501  502 +0.0000000000e+00 +0.0000000000e+00 +6.7472265363e+02 6.7472265363e+02 0.0000000000e+00 0.0000e+00 1.0000e+00
       21 -1    0    0  502  503 -0.0000000000e+00 -0.0000000000e+00 -1.7816059650e+02 1.7816059650e+02 0.0000000000e+00 0.0000e+00 1.0000e+00
        6  1    1    2  501    0 -5.7932532980e+00 +1.0630170508e+02 +5.9386788323e+02 6.2764773322e+02 1.7300000000e+02 0.0000e+00 1.0000e+00
       -6  1    1    2    0  503 +5.7932532980e+00 -1.0630170508e+02 -9.7305826103e+01 2.2523551691e+02 1.7300000000e+02 0.0000e+00 1.0000e+00
<mgrwt>
<rscale>  2 0.20313201E+03</rscale>
<asrwt>0</asrwt>
<pdfrwt beam="1">  1       21 0.10380348E+00 0.20313201E+03</pdfrwt>
<pdfrwt beam="2">  1       21 0.27409323E-01 0.20313201E+03</pdfrwt>
<totfact> 0.94630968E+03</totfact>
</mgrwt>
</event>
<event>
 4      2 +5.6305390e+02 1.84033000e+02 7.54677100e-03 1.16395600e-01
       21 -1    0    0  501  502 +0.0000000000e+00 +0.0000000000e+00 +6.8008338837e+02 6.8008338837e+02 0.0000000000e+00 0.0000e+00 -1.0000e+00
       21 -1    0    0  502  503 -0.0000000000e+00 -0.0000000000e+00 -7.0658459477e+01 7.0658459477e+01 0.0000000000e+00 0.0000e+00 -1.0000e+00
        6  1    1    2  501    0 +5.8171944497e+01 -2.3561962030e+01 +5.0866064674e+02 5.4092864107e+02 1.7300000000e+02 0.0000e+00 -1.0000e+00
       -6  1    1    2    0  503 -5.8171944497e+01 +2.3561962030e+01 +1.0076428214e+02 2.0981320678e+02 1.7300000000e+02 0.0000e+00 -1.0000e+00
<mgrwt>
<rscale>  2 0.18403299E+03</rscale>
<asrwt>0</asrwt>
<pdfrwt beam="1">  1       21 0.10462821E+00 0.18403299E+03</pdfrwt>
<pdfrwt beam="2">  1       21 0.10870533E-01 0.18403299E+03</pdfrwt>
<totfact> 0.51794505E+04</totfact>
</mgrwt>
</event>
<event>
 4      2 +5.6305390e+02 2.11595300e+02 7.54677100e-03 1.14030900e-01
       21 -1    0    0  501  502 +0.0000000000e+00 +0.0000000000e+00 +1.6674585575e+02 1.6674585575e+02 0.0000000000e+00 0.0000e+00 -1.0000e+00
       21 -1    0    0  502  503 -0.0000000000e+00 -0.0000000000e+00 -3.1401672405e+02 3.1401672405e+02 0.0000000000e+00 0.0000e+00 -1.0000e+00
        6  1    1    2  501    0 -1.1565400459e+02 -3.8310970524e+01 -1.6514617850e+02 2.6841356060e+02 1.7300000000e+02 0.0000e+00 -1.0000e+00
       -6  1    1    2    0  503 +1.1565400459e+02 +3.8310970524e+01 +1.7875310207e+01 2.1234901920e+02 1.7300000000e+02 0.0000e+00 -1.0000e+00
<mgrwt>
<rscale>  2 0.21159532E+03</rscale>
<asrwt>0</asrwt>
<pdfrwt beam="1">  1       21 0.25653209E-01 0.21159532E+03</pdfrwt>
<pdfrwt beam="2">  1       21 0.48310265E-01 0.21159532E+03</pdfrwt>
<totfact> 0.58494947E+04</totfact>
</mgrwt>
</event>
<event>
 4      2 +5.6305390e+02 1.74158400e+02 7.54677100e-03 1.17357900e-01
       21 -1    0    0  503  502 +0.0000000000e+00 +0.0000000000e+00 +4.3600425516e+02 4.3600425516e+02 0.0000000000e+00 0.0000e+00 1.0000e+00
       21 -1    0    0  501  503 -0.0000000000e+00 -0.0000000000e+00 -7.8133902065e+01 7.8133902065e+01 0.0000000000e+00 0.0000e+00 1.0000e+00
        6  1    1    2  501    0 +1.4312580607e+01 +1.4046584086e+01 +9.3809138567e+01 1.9781635667e+02 1.7300000000e+02 0.0000e+00 1.0000e+00
       -6  1    1    2    0  502 -1.4312580607e+01 -1.4046584086e+01 +2.6406121453e+02 3.1632180056e+02 1.7300000000e+02 0.0000e+00 1.0000e+00
<mgrwt>
<rscale>  2 0.17415842E+03</rscale>
<asrwt>0</asrwt>
<pdfrwt beam="1">  1       21 0.67077576E-01 0.17415842E+03</pdfrwt>
<pdfrwt beam="2">  1       21 0.12020601E-01 0.17415842E+03</pdfrwt>
<totfact> 0.11985495E+05</totfact>
</mgrwt>
</event>
<event>
 4      2 +5.6305390e+02 2.09995300e+02 7.54677100e-03 1.14157000e-01
       21 -1    0    0  503  502 +0.0000000000e+00 +0.0000000000e+00 +2.0887246646e+02 2.0887246646e+02 0.0000000000e+00 0.0000e+00 1.0000e+00
       21 -1    0    0  501  503 -0.0000000000e+00 -0.0000000000e+00 -5.5919363502e+02 5.5919363502e+02 0.0000000000e+00 0.0000e+00 -1.0000e+00
        6  1    1    2  501    0 -9.1317706787e+01 +7.6355235274e+01 -4.7814507448e+02 5.2222673024e+02 1.7300000000e+02 0.0000e+00 -1.0000e+00
       -6  1    1    2    0  502 +9.1317706787e+01 -7.6355235274e+01 +1.2782390592e+02 2.4583937124e+02 1.7300000000e+02 0.0000e+00 1.0000e+00
<mgrwt>
<rscale>  2 0.20999535E+03</rscale>
<asrwt>0</asrwt>
<pdfrwt beam="1">  1       21 0.32134225E-01 0.20999535E+03</pdfrwt>
<pdfrwt beam="2">  1       21 0.86029792E-01 0.20999535E+03</pdfrwt>
<totfact> 0.10731262E+04</totfact>
</mgrwt>
</event>
<event>
 4      2 +5.6305390e+02 2.12364700e+02 7.54677100e-03 1.13970700e-01
       21 -1    0    0  501  502 +0.0000000000e+00 +0.0000000000e+00 +1.6292610761e+02 1.6292610761e+02 0.0000000000e+00 0.0000e+00 1.0000e+00
       21 -1    0    0  502  503 -0.0000000000e+00 -0.0000000000e+00 -3.7383385413e+02 3.7383385413e+02 0.0000000000e+00 0.0000e+00 -1.0000e+00
        6  1    1    2  501    0 -1.2285663596e+02 +8.7187792127e+00 +3.1275282622e+01 2.1465533632e+02 1.7300000000e+02 0.0000e+00 -1.0000e+00
       -6  1    1    2    0  503 +1.2285663596e+02 -8.7187792127e+00 -2.4218302914e+02 3.2210462541e+02 1.7300000000e+02 0.0000e+00 -1.0000e+00
<mgrwt>
<rscale>  2 0.21236471E+03</rscale>
<asrwt>0</asrwt>
<pdfrwt beam="1">  1       21 0.25065556E-01 0.21236471E+03</pdfrwt>
<pdfrwt beam="2">  1       21 0.57512899E-01 0.21236471E+03</pdfrwt>
<totfact> 0.42333474E+04</totfact>
</mgrwt>
</event>
<event>
 4      2 +5.6305390e+02 1.76899500e+02 7.54677100e-03 1.17083800e-01
       -2 -1    0    0    0  501 -0.0000000000e+00 +0.0000000000e+00 +3.3311748343e+01 3.3311748343e+01 0.0000000000e+00 0.0000e+00 -1.0000e+00
        2 -1    0    0  502    0 +0.0000000000e+00 -0.0000000000e+00 -9.3941158016e+02 9.3941158016e+02 0.0000000000e+00 0.0000e+00 1.0000e+00
        6  1    1    2  502    0 -7.0210673583e+00 +3.6264763075e+01 -4.5272786442e+02 4.8606167062e+02 1.7300000000e+02 0.0000e+00 1.0000e+00
       -6  1    1    2    0  501 +7.0210673583e+00 -3.6264763075e+01 -4.5337196740e+02 4.8666165788e+02 1.7300000000e+02 0.0000e+00 1.0000e+00
<mgrwt>
<rscale>  2 0.17689949E+03</rscale>
<asrwt>0</asrwt>
<pdfrwt beam="1">  1        2 0.14452487E+00 0.17689949E+03</pdfrwt>
<pdfrwt beam="2">  1       -2 0.51248840E-02 0.17689949E+03</pdfrwt>
<totfact> 0.53157197E+03</totfact>
</mgrwt>
</event>
<event>
 4      2 +5.6305390e+02 1.77478700e+02 7.54677100e-03 1.17026600e-01
       21 -1    0    0  503  502 +0.0000000000e+00 +0.0000000000e+00 +3.9457224728e+01 3.9457224728e+01 0.0000000000e+00 0.0000e+00 1.0000e+00
       21 -1    0    0  501  503 -0.0000000000e+00 -0.0000000000e+00 -8.9502281143e+02 8.9502281143e+02 0.0000000000e+00 0.0000e+00 -1.0000e+00
        6  1    1    2  501    0 -3.4333249758e+01 +1.9771537948e+01 -5.8138179350e+02 6.0786797544e+02 1.7300000000e+02 0.0000e+00 -1.0000e+00
       -6  1    1    2    0  502 +3.4333249758e+01 -1.9771537948e+01 -2.7418379320e+02 3.2661206072e+02 1.7300000000e+02 0.0000e+00 1.0000e+00
<mgrwt>
<rscale>  2 0.17747869E+03</rscale>
<asrwt>0</asrwt>
<pdfrwt beam="1">  1       21 0.60703430E-02 0.17747869E+03</pdfrwt>
<pdfrwt beam="2">  1       21 0.13769580E+00 0.17747869E+03</pdfrwt>
<totfact> 0.72734820E+04</totfact>
</mgrwt>
</event>
<event>
 4      2 +5.6305390e+02 1.85855100e+02 7.54677100e-03 1.16225400e-01
       21 -1    0    0  503  502 +0.0000000000e+00 +0.0000000000e+00 +2.1645581143e+01 2.1645581143e+01 0.0000000000e+00 0.0000e+00 -1.0000e+00
       21 -1    0    0  501  503 -0.0000000000e+00 -0.0000000000e+00 -1.9160795962e+03 1.9160795962e+03 0.0000000000e+00 0.0000e+00 -1.0000e+00
        6  1    1    2  501    0 -6.0186633996e+01 +3.1475337522e+01 -5.5110626285e+02 5.8160144492e+02 1.7300000000e+02 0.0000e+00 -1.0000e+00
       -6  1    1    2    0  502 +6.0186633996e+01 -3.1475337522e+01 -1.3433277522e+03 1.3561237324e+03 1.7300000000e+02 0.0000e+00 -1.0000e+00
<mgrwt>
<rscale>  2 0.18585513E+03</rscale>
<asrwt>0</asrwt>
<pdfrwt beam="1">  1       21 0.33300884E-02 0.18585513E+03</pdfrwt>
<pdfrwt beam="2">  1       21 0.29478157E+00 0.18585513E+03</pdfrwt>
<totfact> 0.19598637E+04</totfact>
</mgrwt>
</event>
<event>
 4      3 +5.6305390e+02 8.63858800e+01 7.54677100e-03 1.31184800e-01
        2 -1    0    0  501    0 +0.0000000000e+00 +0.0000000000e+00 +7.5510657609e+02 7.5510657609e+02 0.0000000000e+00 0.0000e+00 -1.0000e+00
       -2 -1    0    0    0  501 -0.0000000000e+00 -0.0000000000e+00 -1.1848855486e+01 1.1848855486e+01 0.0000000000e+00 0.0000e+00 1.0000e+00
       24  1    1    2    0    0 +1.9479467374e+01 +2.4816434207e+01 +5.2783805082e+02 5.3486028915e+02 8.0419002446e+01 0.0000e+00 -1.0000e+00
      -24  1    1    2    0    0 -1.9479467374e+01 -2.4816434207e+01 +2.1541966978e+02 2.3209514243e+02 8.0419002446e+01 0.0000e+00 1.0000e+00
<mgrwt>
<rscale>  0 0.86385884E+02</rscale>
<asrwt>0</asrwt>
<pdfrwt beam="1">  1        2 0.11617021E+00 0.86385884E+02</pdfrwt>
<pdfrwt beam="2">  1       -2 0.18229014E-02 0.86385884E+02</pdfrwt>
<totfact> 0.30444968E+04</totfact>
</mgrwt>
</event>
<event>
 4      2 +5.6305390e+02 2.22297600e+02 7.54677100e-03 1.13218200e-01
       21 -1    0    0  503  502 +0.0000000000e+00 +0.0000000000e+00 +6.5509584066e+01 6.5509584066e+01 0.0000000000e+00 0.0000e+00 -1.0000e+00
       21 -1    0    0  501  503 -0.0000000000e+00 -0.0000000000e+00 -9.0977488037e+02 9.0977488037e+02 0.0000000000e+00 0.0000e+00 -1.0000e+00
        6  1    1    2  501    0 -1.2587085639e+02 +6.0363336248e+01 -6.2369752989e+02 6.6212900075e+02 1.7300000000e+02 0.0000e+00 -1.0000e+00
       -6  1    1    2    0  502 +1.2587085639e+02 -6.0363336248e+01 -2.2056776642e+02 3.1315546368e+02 1.7300000000e+02 0.0000e+00 -1.0000e+00
<mgrwt>
<rscale>  2 0.22229756E+03</rscale>
<asrwt>0</asrwt>
<pdfrwt beam="1">  1       21 0.10078399E-01 0.22229756E+03</pdfrwt>
<pdfrwt beam="2">  1       21 0.13996535E+00 0.22229756E+03</pdfrwt>
<totfact> 0.28151895E+04</totfact>
</mgrwt>
</event>
<event>
 4      2 +5.6305390e+02 2.28718600e+02 7.54677100e-03 1.12754500e-01
       21 -1    0    0  503  502 +0.0000000000e+00 +0.0000000000e+00 +9.5430064186e+01 9.5430064186e+01 0.0000000000e+00 0.0000e+00 1.0000e+00
       21 -1    0    0  501  503 -0.0000000000e+00 -0.0000000000e+00 -5.7076477448e+02 5.7076477448e+02 0.0000000000e+00 0.0000e+00 1.0000e+00
        6  1    1    2  501    0 +1.2620754494e+02 -8.0342041370e+01 -3.0393743790e+02 3.8038159020e+02 1.7300000000e+02 0.0000e+00 1.0000e+00
       -6  1    1    2    0  502 -1.2620754494e+02 +8.0342041370e+01 -1.7139727239e+02 2.8581324846e+02 1.7300000000e+02 0.0000e+00 1.0000e+00
<mgrwt>
<rscale>  2 0.22871858E+03</rscale>
<asrwt>0</asrwt>
<pdfrwt beam="1">  1       21 0.14681548E-01 0.22871858E+03</pdfrwt>
<pdfrwt beam="2">  1       21 0.87809966E-01 0.22871858E+03</pdfrwt>
<totfact> 0.44560002E+04</totfact>
</mgrwt>
</event>
<event>
 4      2 +5.6305390e+02 2.30879100e+02 7.54677100e-03 1.12602300e-01
       21 -1    0    0  503  502 +0.0000000000e+00 +0.0000000000e+00 +1.4264155542e+02 1.4264155542e+02 0.0000000000e+00 0.0000e+00 1.0000e+00
       21 -1    0    0  501  503 -0.0000000000e+00 -0.0000000000e+00 -4.9838089990e+02 4.9838089990e+02 0.0000000000e+00 0.0000e+00 -1.0000e+00
        6  1    1    2  501    0 -1.5289260323e+02 -1.3688331077e-01 -3.3818029526e+02 4.0947659147e+02 1.7300000000e+02 0.0000e+00 -1.0000e+00
       -6  1    1    2    0  502 +1.5289260323e+02 +1.3688331077e-01 -1.7559049217e+01 2.3154586386e+02 1.7300000000e+02 0.0000e+00 1.0000e+00
<mgrwt>
<rscale>  2 0.23087912E+03</rscale>
<asrwt>0</asrwt>
<pdfrwt beam="1">  1       21 0.21944855E-01 0.23087912E+03</pdfrwt>
<pdfrwt beam="2">  1       21 0.76673984E-01 0.23087912E+03</pdfrwt>
<totfact> 0.28756187E+04</totfact>
</mgrwt>
</event>
<event>
 4      2 +5.6305390e+02 3.27132200e+02 7.54677100e-03 1.07241300e-01
       21 -1    0    0  501  502 +0.0000000000e+00 +0.0000000000e+00 +8.9606151378e+02 8.9606151378e+02 0.0000000000e+00 0.0000e+00 1.0000e+00
       21 -1    0    0  502  503 -0.0000000000e+00 -0.0000000000e+00 -1.8457552852e+02 1.8457552852e+02 0.0000000000e+00 0.0000e+00 -1.0000e+00
        6  1    1    2  501    0 -2.6771615981e+02 -7.3583388009e+01 +3.4739727341e+01 3.2897158824e+02 1.7300000000e+02 0.0000e+00 -1.0000e+00
       -6  1    1    2    0  503 +2.6771615981e+02 +7.3583388009e+01 +6.7674625792e+02 7.5166545406e+02 1.7300000000e+02 0.0000e+00 1.0000e+00
<mgrwt>
<rscale>  2 0.32713217E+03</rscale>
<asrwt>0</asrwt>
<pdfrwt beam="1">  1       21 0.13785562E+00 0.32713217E+03</pdfrwt>
<pdfrwt beam="2">  1       21 0.28396236E-01 0.32713217E+03</pdfrwt>
<totfact> 0.40416021E+03</totfact>
</mgrwt>
</event>
<event>
 4      2 +5.6305390e+02 2.08778800e+02 7.54677100e-03 1.14253700e-01
       21 -1    0    0  503  502 +0.0000000000e+00 +0.0000000000e+00 +1.9552165535e+03 1.9552165535e+03 0.0000000000e+00 0.0000e+00 1.0000e+00
       21 -1    0    0  501  503 -0.0000000000e+00 -0.0000000000e+00 -2.3257200196e+01 2.3257200196e+01 0.0000000000e+00 0.0000e+00 1.0000e+00
        6  1    1    2  501    0 +1.1493669254e+02 -2.1192978340e+01 +1.1673504993e+03 1.1858734224e+03 1.7300000000e+02 0.0000e+00 1.0000e+00
       -6  1    1    2    0  502 -1.1493669254e+02 +2.1192978340e+01 +7.6460885394e+02 7.9260033128e+02 1.7300000000e+02 0.0000e+00 1.0000e+00
<mgrwt>
<rscale>  2 0.20877880E+03</rscale>
<asrwt>0</asrwt>
<pdfrwt beam="1">  1       21 0.30080242E+00 0.20877880E+03</pdfrwt>
<pdfrwt beam="2">  1       21 0.35780324E-02 0.20877880E+03</pdfrwt>
<totfact> 0.15692926E+04</totfact>
</mgrwt>
</event>
<event>
 4      2 +5.6305390e+02 1.97735200e+02 7.54677100e-03 1.15166400e-01
       21 -1    0    0  501  502 +0.0000000000e+00 +0.0000000000e+00 +6.6435842453e+02 6.6435842453e+02 0.0000000000e+00 0.0000e+00 1.0000e+00
       21 -1    0    0  502  503 -0.0000000000e+00 -0.0000000000e+00 -8.3039862269e+01 8.3039862269e+01 0.0000000000e+00 0.0000e+00 1.0000e+00
        6  1    1    2  501    0 +8.3785093548e+01 +4.6370800600e+01 +4.9234378061e+02 5.3056723547e+02 1.7300000000e+02 0.0000e+00 1.0000e+00
       -6  1    1    2    0  503 -8.3785093548e+01 -4.6370800600e+01 +8.8974781644e+01 2.1683105132e+02 1.7300000000e+02 0.0000e+00 1.0000e+00
<mgrwt>
<rscale>  2 0.19773516E+03</rscale>
<asrwt>0</asrwt>
<pdfrwt beam="1">  1       21 0.10220898E+00 0.19773516E+03</pdfrwt>
<pdfrwt beam="2">  1       21 0.12775364E-01 0.19773516E+03</pdfrwt>
<totfact> 0.40763160E+04</totfact>
</mgrwt>
</event>
<event>
 4      2 +5.6305390e+02 1.94652600e+02 7.54677100e-03 1.15433100e-01
       21 -1    0    0  501  502 +0.0000000000e+00 +0.0000000000e+00 +5.1552410134e+02 5.1552410134e+02 0.0000000000e+00 0.0000e+00 1.0000e+00
       21 -1    0    0  502  503 -0.0000000000e+00 -0.0000000000e+00 -7.4282875811e+01 7.4282875811e+01 0.0000000000e+00 0.0000e+00 -1.0000e+00
        6  1    1    2  501    0 +8.9086346658e+01 +4.9267603275e+00 +1.9029437303e+02 2.7221608794e+02 1.7300000000e+02 0.0000e+00 -1.0000e+00
       -6  1    1    2    0  503 -8.9086346658e+01 -4.9267603275e+00 +2.5094685250e+02 3.1759088921e+02 1.7300000000e+02 0.0000e+00 -1.0000e+00
<mgrwt>
<rscale>  2 0.19465264E+03</rscale>
<asrwt>0</asrwt>
<pdfrwt beam="1">  1       21 0.79311398E-01 0.19465264E+03</pdfrwt>
<pdfrwt beam="2">  1       21 0.11428135E-01 0.19465264E+03</pdfrwt>
<totfact> 0.89725795E+04</totfact>
</mgrwt>
</event>
<event>
 4      2 +5.6305390e+02 4.73880100e+02 7.54677100e-03 1.02083100e-01
       21 -1    0    0  501  502 +0.0000000000e+00 +0.0000000000e+00 +3.6102447882e+02 3.6102447882e+02 0.0000000000e+00 0.0000e+00 -1.0000e+00
       21 -1    0    0  502  503 -0.0000000000e+00 -0.0000000000e+00 -6.8369471213e+02 6.8369471213e+02 0.0000000000e+00 0.0000e+00 -1.0000e+00
        6  1    1    2  501    0 +3.7000452812e+01 +4.3961842434e+02 -3.1823118484e+02 5.7081825438e+02 1.7300000000e+02 0.0000e+00 -1.0000e+00
       -6  1    1    2    0  503 -3.7000452812e+01 -4.3961842434e+02 -4.4390484663e+00 4.7390093657e+02 1.7300000000e+02 0.0000e+00 -1.0000e+00
<mgrwt>
<rscale>  2 0.47388015E+03</rscale>
<asrwt>0</asrwt>
<pdfrwt beam="1">  1       21 0.55542228E-01 0.47388015E+03</pdfrwt>
<pdfrwt beam="2">  1       21 0.10518380E+00 0.47388015E+03</pdfrwt>
<totfact> 0.18974623E+03</totfact>
</mgrwt>
</event>
<event>
 4      2 +5.6305390e+02 2.68712400e+02 7.54677100e-03 1.10201900e-01
       21 -1    0    0  501  502 +0.0000000000e+00 +0.0000000000e+00 +2.1326855024e+02 2.1326855024e+02 0.0000000000e+00 0.0000e+00 -1.0000e+00
       21 -1    0    0  502  503 -0.0000000000e+00 -0.0000000000e+00 -3.6145883145e+02 3.6145883145e+02 0.0000000000e+00 0.0000e+00 -1.0000e+00
        6  1    1    2  501    0 -1.8428366638e+02 +9.1196975442e+01 -1.4640760669e+02 3.0600906085e+02 1.7300000000e+02 0.0000e+00 -1.0000e+00
       -6  1    1    2    0  503 +1.8428366638e+02 -9.1196975442e+01 -1.7826745171e+00 2.6871832084e+02 1.7300000000e+02 0.0000e+00 -1.0000e+00
<mgrwt>
<rscale>  2 0.26871241E+03</rscale>
<asrwt>0</asrwt>
<pdfrwt beam="1">  1       21 0.32810546E-01 0.26871241E+03</pdfrwt>
<pdfrwt beam="2">  1       21 0.55609051E-01 0.26871241E+03</pdfrwt>
<totfact> 0.26238063E+04</totfact>
</mgrwt>
</event>
<event>
 4      2 +5.6305390e+02 1.90428800e+02 7.54677100e-03 1.15807500e-01
       21 -1    0    0  503  502 +0.0000000000e+00 +0.0000000000e+00 +2.6918549082e+02 2.6918549082e+02 0.0000000000e+00 0.0000e+00 1.0000e+00
       21 -1    0    0  501  503 -0.0000000000e+00 -0.0000000000e+00 -3.6627242633e+02 3.6627242633e+02 0.0000000000e+00 0.0000e+00 1.0000e+00
        6  1    1    2  501    0 +6.5593847439e+01 +4.5073157737e+01 -3.0117332354e+02 3.5632641382e+02 1.7300000000e+02 0.0000e+00 1.0000e+00
       -6  1    1    2    0  502 -6.5593847439e+01 -4.5073157737e+01 +2.0408638803e+02 2.7913150333e+02 1.7300000000e+02 0.0000e+00 1.0000e+00
<mgrwt>
<rscale>  2 0.19042884E+03</rscale>
<asrwt>0</asrwt>
<pdfrwt beam="1">  1       21 0.41413152E-01 0.19042884E+03</pdfrwt>
<pdfrwt beam="2">  1       21 0.56349604E-01 0.19042884E+03</pdfrwt>
<totfact> 0.16658789E+04</totfact>
</mgrwt>
</event>
<event>
 4      2 +5.6305390e+02 1.79588100e+02 7.54677100e-03 1.16820200e-01
       -1 -1    0    0    0  501 -0.0000000000e+00 +0.0000000000e+00 +3.5142060157e+02 3.5142060157e+02 0.0000000000e+00 0.0000e+00 1.0000e+00
        1 -1    0    0  502    0 +0.0000000000e+00 -0.0000000000e+00 -1.7917691079e+02 1.7917691079e+02 0.0000000000e+00 0.0000e+00 -1.0000e+00
        6  1    1    2  502    0 +1.3626826933e+01 -4.6229775640e+01 -9.9168520650e+01 2.0514940423e+02 1.7300000000e+02 0.0000e+00 -1.0000e+00
       -6  1    1    2    0  501 -1.3626826933e+01 +4.6229775640e+01 +2.7141221144e+02 3.2544810813e+02 1.7300000000e+02 0.0000e+00 1.0000e+00
<mgrwt>
<rscale>  2 0.17958809E+03</rscale>
<asrwt>0</asrwt>
<pdfrwt beam="1">  1        1 0.27565679E-01 0.17958809E+03</pdfrwt>
<pdfrwt beam="2">  1       -1 0.54064708E-01 0.17958809E+03</pdfrwt>
<totfact> 0.60014349E+02</totfact>
</mgrwt>
</event>
<event>
 4      3 +5.6305390e+02 8.26283200e+01 7.54677100e-03 1.32175400e-01
       -2 -1    0    0    0  501 -0.0000000000e+00 +0.0000000000e+00 +4.3039016182e+01 4.3039016182e+01 0.0000000000e+00 0.0000e+00 1.0000e+00
        2 -1    0    0  501    0 +0.0000000000e+00 -0.0000000000e+00 -1.1748984425e+03 1.1748984425e+03 0.0000000000e+00 0.0000e+00 -1.0000e+00
       24  1    1    2    0    0 +9.3142220898e+00 +1.6536869809e+01 -1.1322971237e+03 1.1353079825e+03 8.0419002446e+01 0.0000e+00 -1.0000e+00
      -24  1    1    2    0    0 -9.3142220898e+00 -1.6536869809e+01 +4.3769742586e-01 8.2629476155e+01 8.0419002446e+01 0.0000e+00 1.0000e+00
<mgrwt>
<rscale>  0 0.82628317E+02</rscale>
<asrwt>0</asrwt>
<pdfrwt beam="1">  1        2 0.18075361E+00 0.82628317E+02</pdfrwt>
<pdfrwt beam="2">  1       -2 0.66213871E-02 0.82628317E+02</pdfrwt>
<totfact> 0.25755531E+03</totfact>
</mgrwt>
</event>
<event>
 4      3 +5.6305390e+02 8.34343700e+01 7.54677100e-03 1.31957800e-01
        2 -1    0    0  501    0 +0.0000000000e+00 +0.0000000000e+00 +5.7895489224e+01 5.7895489224e+01 0.0000000000e+00 0.0000e+00 -1.0000e+00
       -2 -1    0    0    0  501 -0.0000000000e+00 -0.0000000000e+00 -1.3413041907e+02 1.3413041907e+02 0.0000000000e+00 0.0000e+00 1.0000e+00
       24  1    1    2    0    0 -1.3986327503e+00 -2.2183832546e+01 -7.2187928505e+00 8.3746077667e+01 8.0419002446e+01 0.0000e+00 -1.0000e+00
      -24  1    1    2    0    0 +1.3986327503e+00 +2.2183832546e+01 -6.9016136992e+01 1.0827983062e+02 8.0419002446e+01 0.0000e+00 -1.0000e+00
<mgrwt>
<rscale>  0 0.83434373E+02</rscale>
<asrwt>0</asrwt>
<pdfrwt beam="1">  1        2 0.89069985E-02 0.83434373E+02</pdfrwt>
<pdfrwt beam="2">  1       -2 0.20635449E-01 0.83434373E+02</pdfrwt>
<totfact> 0.13101222E+04</totfact>
</mgrwt>
</event>
<event>
 4      2 +5.6305390e+02 1.88161800e+02 7.54677100e-03 1.16013000e-01
       -2 -1    0    0    0  501 -0.0000000000e+00 +0.0000000000e+00 +1.5887339482e+02 1.5887339482e+02 0.0000000000e+00 0.0000e+00 -1.0000e+00
        2 -1    0    0  502    0 +0.0000000000e+00 -0.0000000000e+00 -2.7179831652e+02 2.7179831652e+02 0.0000000000e+00 0.0000e+00 1.0000e+00
        6  1    1    2  502    0 -7.1902571796e+01 +1.7489027977e+01 +3.4920318989e+01 1.9137469689e+02 1.7300000000e+02 0.0000e+00 -1.0000e+00
       -6  1    1    2    0  501 +7.1902571796e+01 -1.7489027977e+01 -1.4784524069e+02 2.3929701445e+02 1.7300000000e+02 0.0000e+00 1.0000e+00
<mgrwt>
<rscale>  2 0.18816175E+03</rscale>
<asrwt>0</asrwt>
<pdfrwt beam="1">  1        2 0.41815126E-01 0.18816175E+03</pdfrwt>
<pdfrwt beam="2">  1       -2 0.24442061E-01 0.18816175E+03</pdfrwt>
<totfact> 0.17808804E+03</totfact>
</mgrwt>
</event>
<event>
 4      3 +5.6305390e+02 9.18985600e+01 7.54677100e-03 1.29831800e-01
        2 -1    0    0  501    0 +0.0000000000e+00 +0.0000000000e+00 +7.1404928231e+02 7.1404928231e+02 0.0000000000e+00 0.0000e+00 -1.0000e+00
       -2 -1    0    0    0  501 -0.0000000000e+00 -0.0000000000e+00 -1.2799433578e+01 1.2799433578e+01 0.0000000000e+00 0.0000e+00 1.0000e+00
       24  1    1    2    0    0 +3.2616740434e+01 -3.0237015026e+01 +4.5077696897e+02 4.6004915014e+02 8.0419002446e+01 0.0000e+00 0.0000e+00
      -24  1    1    2    0    0 -3.2616740434e+01 +3.0237015026e+01 +2.5047287977e+02 2.6679956576e+02 8.0419002446e+01 0.0000e+00 -1.0000e+00
<mgrwt>
<rscale>  0 0.91898557E+02</rscale>
<asrwt>0</asrwt>
<pdfrwt beam="1">  1        2 0.10985371E+00 0.91898557E+02</pdfrwt>
<pdfrwt beam="2">  1       -2 0.19691442E-02 0.91898557E+02</pdfrwt>
<totfact> 0.29311179E+04</totfact>
</mgrwt>
</event>
<event>
 4      3 +5.6305390e+02 9.18272300e+01 7.54677100e-03 1.29848600e-01
       -2 -1    0    0    0  501 -0.0000000000e+00 +0.0000000000e+00 +9.3897953151e+01 9.3897953151e+01 0.0000000000e+00 0.0000e+00 1.0000e+00
        2 -1    0    0  501    0 +0.0000000000e+00 -0.0000000000e+00 -2.5631347262e+02 2.5631347262e+02 0.0000000000e+00 0.0000e+00 -1.0000e+00
       24  1    1    2    0    0 +4.3929806796e+01 -5.9326846688e+00 -2.2234331876e+02 2.4055933161e+02 8.0419002446e+01 0.0000e+00 -1.0000e+00
      -24  1    1    2    0    0 -4.3929806796e+01 +5.9326846688e+00 +5.9927799289e+01 1.0965209416e+02 8.0419002446e+01 0.0000e+00 1.0000e+00
<mgrwt>
<rscale>  0 0.91827232E+02</rscale>
<asrwt>0</asrwt>
<pdfrwt beam="1">  1        2 0.39432841E-01 0.91827232E+02</pdfrwt>
<pdfrwt beam="2">  1       -2 0.14445839E-01 0.91827232E+02</pdfrwt>
<totfact> 0.44318238E+03</totfact>
</mgrwt>
</event>
<event>
 4      2 +5.6305390e+02 2.16461200e+02 7.54677100e-03 1.13654900e-01
       21 -1    0    0  501  502 +0.0000000000e+00 +0.0000000000e+00 +6.2199628638e+01 6.2199628638e+01 0.0000000000e+00 0.0000e+00 -1.0000e+00
       21 -1    0    0  502  503 -0.0000000000e+00 -0.0000000000e+00 -9.0393236443e+02 9.0393236443e+02 0.0000000000e+00 0.0000e+00 1.0000e+00
        6  1    1    2  501    0 -1.1403180064e+02 +6.2635520720e+01 -6.1805711262e+02 6.5486644018e+02 1.7300000000e+02 0.0000e+00 1.0000e+00
       -6  1    1    2    0  503 +1.1403180064e+02 -6.2635520720e+01 -2.2367562318e+02 3.1126555289e+02 1.7300000000e+02 0.0000e+00 -1.0000e+00
<mgrwt>
<rscale>  2 0.21646122E+03</rscale>
<asrwt>0</asrwt>
<pdfrwt beam="1">  1       21 0.95691738E-02 0.21646122E+03</pdfrwt>
<pdfrwt beam="2">  1       21 0.13906652E+00 0.21646122E+03</pdfrwt>
<totfact> 0.31481263E+04</totfact>
</mgrwt>
</event>
<event>
 4      2 +5.6305390e+02 3.53338400e+02 7.54677100e-03 1.06125300e-01
        2 -1    0    0  502    0 +0.0000000000e+00 +0.0000000000e+00 +1.7086110183e+03 1.7086110183e+03 0.0000000000e+00 0.0000e+00 1.0000e+00
       -2 -1    0    0    0  501 -0.0000000000e+00 -0.0000000000e+00 -7.6197634182e+01 7.6197634182e+01 0.0000000000e+00 0.0000e+00 -1.0000e+00
        6  1    1    2  502    0 +3.8884413356e+01 -3.0562568135e+02 +9.9700946702e+02 1.0577693189e+03 1.7300000000e+02 0.0000e+00 1.0000e+00
       -6  1    1    2    0  501 -3.8884413356e+01 +3.0562568135e+02 +6.3540391712e+02 7.2703933360e+02 1.7300000000e+02 0.0000e+00 -1.0000e+00
<mgrwt>
<rscale>  2 0.35333844E+03</rscale>
<asrwt>0</asrwt>
<pdfrwt beam="1">  1        2 0.26286320E+00 0.35333844E+03</pdfrwt>
<pdfrwt beam="2">  1       -2 0.11722714E-01 0.35333844E+03</pdfrwt>
<totfact> 0.53867819E+02</totfact>
</mgrwt>
</event>
<event>
 4      3 +5.6305390e+02 8.39983800e+01 7.54677100e-03 1.31807300e-01
       -2 -1    0    0    0  501 -0.0000000000e+00 +0.0000000000e+00 +3.0490513917e+01 3.0490513917e+01 0.0000000000e+00 0.0000e+00 1.0000e+00
        2 -1    0    0  501    0 +0.0000000000e+00 -0.0000000000e+00 -2.3428872136e+02 2.3428872136e+02 0.0000000000e+00 0.0000e+00 -1.0000e+00
       24  1    1    2    0    0 -6.9115526311e+00 -2.3253853197e+01 -1.1658100704e+02 1.4369014721e+02 8.0419002446e+01 0.0000e+00 -1.0000e+00
      -24  1    1    2    0    0 +6.9115526311e+00 +2.3253853197e+01 -8.7217200399e+01 1.2108908806e+02 8.0419002446e+01 0.0000e+00 1.0000e+00
<mgrwt>
<rscale>  0 0.83998376E+02</rscale>
<asrwt>0</asrwt>
<pdfrwt beam="1">  1        2 0.36044420E-01 0.83998376E+02</pdfrwt>
<pdfrwt beam="2">  1       -2 0.46908481E-02 0.83998376E+02</pdfrwt>
<totfact> 0.27151867E+04</totfact>
</mgrwt>
</event>
<event>
 4      2 +5.6305390e+02 2.10303300e+02 7.54677100e-03 1.14132600e-01
       21 -1    0    0  503  502 +0.0000000000e+00 +0.0000000000e+00 +2.3239924093e+03 2.3239924093e+03 0.0000000000e+00 0.0000e+00 -1.0000e+00
       21 -1    0    0  501  503 -0.0000000000e+00 -0.0000000000e+00 -3.8836964743e+01 3.8836964743e+01 0.0000000000e+00 0.0000e+00 -1.0000e+00
        6  1    1    2  501    0 +5.0433900324e+01 -1.0842009942e+02 +2.9889408071e+02 3.6546568614e+02 1.7300000000e+02 0.0000e+00 -1.0000e+00
       -6  1    1    2    0  502 -5.0433900324e+01 +1.0842009942e+02 +1.9862613639e+03 1.9973636879e+03 1.7300000000e+02 0.0000e+00 -1.0000e+00
<mgrwt>
<rscale>  2 0.21030334E+03</rscale>
<asrwt>0</asrwt>
<pdfrwt beam="1">  1       21 0.35753719E+00 0.21030334E+03</pdfrwt>
<pdfrwt beam="2">  1       21 0.59749195E-02 0.21030334E+03</pdfrwt>
<totfact> 0.30633101E+03</totfact>
</mgrwt>
</event>
<event>
 4      2 +5.6305390e+02 2.01792300e+02 7.54677100e-03 1.14823600e-01
       21 -1    0    0  501  502 +0.0000000000e+00 +0.0000000000e+00 +3.1684360250e+02 3.1684360250e+02 0.0000000000e+00 0.0000e+00 -1.0000e+00
       21 -1    0    0  502  503 -0.0000000000e+00 -0.0000000000e+00 -1.6730080992e+02 1.6730080992e+02 0.0000000000e+00 0.0000e+00 -1.0000e+00
        6  1    1    2  501    0 +8.0988256093e+01 +6.5054006928e+01 +1.9132219966e+02 2.7807248250e+02 1.7300000000e+02 0.0000e+00 -1.0000e+00
       -6  1    1    2    0  503 -8.0988256093e+01 -6.5054006928e+01 -4.1779407079e+01 2.0607192991e+02 1.7300000000e+02 0.0000e+00 -1.0000e+00
<mgrwt>
<rscale>  2 0.20179227E+03</rscale>
<asrwt>0</asrwt>
<pdfrwt beam="1">  1       21 0.48745169E-01 0.20179227E+03</pdfrwt>
<pdfrwt beam="2">  1       21 0.25738586E-01 0.20179227E+03</pdfrwt>
<totfact> 0.57307892E+04</totfact>
</mgrwt>
</event>
<event>
 4      2 +5.6305390e+02 2.92216500e+02 7.54677100e-03 1.08919800e-01
       21 -1    0    0  501  502 +0.0000000000e+00 +0.0000000000e+00 +1.7836530381e+02 1.7836530381e+02 0.0000000000e+00 0.0000e+00 1.0000e+00
       21 -1    0    0  502  503 -0.0000000000e+00 -0.0000000000e+00 -5.0622195297e+02 5.0622195297e+02 0.0000000000e+00 0.0000e+00 -1.0000e+00
        6  1    1    2  501    0 +2.3540201861e+02 -6.8818785168e+00 -2.4368335787e+02 3.8048922392e+02 1.7300000000e+02 0.0000e+00 -1.0000e+00
       -6  1    1    2    0  503 -2.3540201861e+02 +6.8818785168e+00 -8.4173291291e+01 3.0409803285e+02 1.7300000000e+02 0.0000e+00 -1.0000e+00
<mgrwt>
<rscale>  2 0.29221648E+03</rscale>
<asrwt>0</asrwt>
<pdfrwt beam="1">  1       21 0.27440816E-01 0.29221648E+03</pdfrwt>
<pdfrwt beam="2">  1       21 0.77880300E-01 0.29221648E+03</pdfrwt>
<totfact> 0.17577595E+04</totfact>
</mgrwt>
</event>
<event>
 4      2 +5.6305390e+02 2.03349300e+02 7.54677100e-03 1.14694400e-01
       21 -1    0    0  503  502 +0.0000000000e+00 +0.0000000000e+00 +5.6857613419e+02 5.6857613419e+02 0.0000000000e+00 0.0000e+00 -1.0000e+00
       21 -1    0    0  501  503 -0.0000000000e+00 -0.0000000000e+00 -8.6869074288e+01 8.6869074288e+01 0.0000000000e+00 0.0000e+00 -1.0000e+00
        6  1    1    2  501    0 +6.0729500662e+01 +8.7942302625e+01 +3.7308294608e+02 4.2490211284e+02 1.7300000000e+02 0.0000e+00 -1.0000e+00
       -6  1    1    2    0  502 -6.0729500662e+01 -8.7942302625e+01 +1.0862411382e+02 2.3054309563e+02 1.7300000000e+02 0.0000e+00 -1.0000e+00
<mgrwt>
<rscale>  2 0.20334926E+03</rscale>
<asrwt>0</asrwt>
<pdfrwt beam="1">  1       21 0.87473249E-01 0.20334926E+03</pdfrwt>
<pdfrwt beam="2">  1       21 0.13364473E-01 0.20334926E+03</pdfrwt>
<totfact> 0.53970047E+04</totfact>
</mgrwt>
</event>
<event>
 4      2 +5.6305390e+02 1.84958400e+02 7.54677100e-03 1.16308900e-01
       21 -1    0    0  501  502 +0.0000000000e+00 +0.0000000000e+00 +3.2398786104e+02 3.2398786104e+02 0.0000000000e+00 0.0000e+00 1.0000e+00
       21 -1    0    0  502  503 -0.0000000000e+00 -0.0000000000e+00 -1.4252235421e+02 1.4252235421e+02 0.0000000000e+00 0.0000e+00 1.0000e+00
        6  1    1    2  501    0 -4.5001321406e+01 +4.7492044836e+01 +2.0947300743e+02 2.7944329316e+02 1.7300000000e+02 0.0000e+00 -1.0000e+00
       -6  1    1    2    0  503 +4.5001321406e+01 -4.7492044836e+01 -2.8007500599e+01 1.8706692209e+02 1.7300000000e+02 0.0000e+00 -1.0000e+00
<mgrwt>
<rscale>  2 0.18495841E+03</rscale>
<asrwt>0</asrwt>
<pdfrwt beam="1">  1       21 0.49844286E-01 0.18495841E+03</pdfrwt>
<pdfrwt beam="2">  1       21 0.21926516E-01 0.18495841E+03</pdfrwt>
<totfact> 0.74739606E+04</totfact>
</mgrwt>
</event>
<event>
 4      2 +5.6305390e+02 2.08219400e+02 7.54677100e-03 1.14298400e-01
       21 -1    0    0  501  502 +0.0000000000e+00 +0.0000000000e+00 +6.3606379426e+02 6.3606379426e+02 0.0000000000e+00 0.0000e+00 1.0000e+00
       21 -1    0    0  502  503 -0.0000000000e+00 -0.0000000000e+00 -6.8208341882e+01 6.8208341882e+01 0.0000000000e+00 0.0000e+00 1.0000e+00
        6  1    1    2  501    0 +3.2594075668e+01 -1.1119336218e+02 +2.7474242200e+02 3.4472994649e+02 1.7300000000e+02 0.0000e+00 1.0000e+00
       -6  1    1    2    0  503 -3.2594075668e+01 +1.1119336218e+02 +2.9311303038e+02 3.5954218965e+02 1.7300000000e+02 0.0000e+00 1.0000e+00
<mgrwt>
<rscale>  2 0.20821945E+03</rscale>
<asrwt>0</asrwt>
<pdfrwt beam="1">  1       21 0.97855964E-01 0.20821945E+03</pdfrwt>
<pdfrwt beam="2">  1       21 0.10493592E-01 0.20821945E+03</pdfrwt>
<totfact> 0.63907834E+04</totfact>
</mgrwt>
</event>
<event>
 4      2 +5.6305390e+02 2.43940200e+02 7.54677100e-03 1.11719500e-01
       21 -1    0    0  501  502 +0.0000000000e+00 +0.0000000000e+00 +5.4406947580e+01 5.4406947580e+01 0.0000000000e+00 0.0000e+00 1.0000e+00
       21 -1    0    0  502  503 -0.0000000000e+00 -0.0000000000e+00 -1.1555795363e+03 1.1555795363e+03 0.0000000000e+00 0.0000e+00 -1.0000e+00
        6  1    1    2  501    0 -7.2246966786e+01 +1.5607117039e+02 -4.1062822622e+02 4.7762158097e+02 1.7300000000e+02 0.0000e+00 -1.0000e+00
       -6  1    1    2    0  503 +7.2246966786e+01 -1.5607117039e+02 -6.9054436246e+02 7.3236490288e+02 1.7300000000e+02 0.0000e+00 -1.0000e+00
<mgrwt>
<rscale>  2 0.24394023E+03</rscale>
<asrwt>0</asrwt>
<pdfrwt beam="1">  1       21 0.83703003E-02 0.24394023E+03</pdfrwt>
<pdfrwt beam="2">  1       21 0.17778145E+00 0.24394023E+03</pdfrwt>
<totfact> 0.20202853E+04</totfact>
</mgrwt>
</event>
<event>
 4      2 +5.6305390e+02 2.09236100e+02 7.54677100e-03 1.14217200e-01
       21 -1    0    0  501  502 +0.0000000000e+00 +0.0000000000e+00 +3.3123316497e+02 3.3123316497e+02 0.0000000000e+00 0.0000e+00 -1.0000e+00
       21 -1    0    0  502  503 -0.0000000000e+00 -0.0000000000e+00 -1.9561825622e+02 1.9561825622e+02 0.0000000000e+00 0.0000e+00 -1.0000e+00
        6  1    1    2  501    0 +1.1139188846e+02 +3.7981732839e+01 +2.1782992537e+02 3.0204244939e+02 1.7300000000e+02 0.0000e+00 -1.0000e+00
       -6  1    1    2    0  503 -1.1139188846e+02 -3.7981732839e+01 -8.2215016622e+01 2.2480897180e+02 1.7300000000e+02 0.0000e+00 -1.0000e+00
<mgrwt>
<rscale>  2 0.20923615E+03</rscale>
<asrwt>0</asrwt>
<pdfrwt beam="1">  1       21 0.50958949E-01 0.20923615E+03</pdfrwt>
<pdfrwt beam="2">  1       21 0.30095116E-01 0.20923615E+03</pdfrwt>
<totfact> 0.38454778E+04</totfact>
</mgrwt>
</event>
<event>
 4      2 +5.6305390e+02 2.41050800e+02 7.54677100e-03 1.11909500e-01
       21 -1    0    0  503  502 +0.0000000000e+00 +0.0000000000e+00 +3.6595125233e+02 3.6595125233e+02 0.0000000000e+00 0.0000e+00 -1.0000e+00
       21 -1    0    0  501  503 -0.0000000000e+00 -0.0000000000e+00 -1.7512641308e+02 1.7512641308e+02 0.0000000000e+00 0.0000e+00 1.0000e+00
        6  1    1    2  501    0 -9.8515787583e+01 -1.3590845887e+02 +1.2756334815e+01 2.4138805620e+02 1.7300000000e+02 0.0000e+00 1.0000e+00
       -6  1    1    2    0  502 +9.8515787583e+01 +1.3590845887e+02 +1.7806850444e+02 2.9968960921e+02 1.7300000000e+02 0.0000e+00 -1.0000e+00
<mgrwt>
<rscale>  2 0.24105076E+03</rscale>
<asrwt>0</asrwt>
<pdfrwt beam="1">  1       21 0.56300192E-01 0.24105076E+03</pdfrwt>
<pdfrwt beam="2">  1       21 0.26942525E-01 0.24105076E+03</pdfrwt>
<totfact> 0.38051597E+04</totfact>
</mgrwt>
</event>
<event>
 4      2 +5.6305390e+02 1.73121200e+02 7.54677100e-03 1.17463100e-01
       21 -1    0    0  501  502 +0.0000000000e+00 +0.0000000000e+00 +2.5466109987e+02 2.5466109987e+02 0.0000000000e+00 0.0000e+00 -1.0000e+00
       21 -1    0    0  502  503 -0.0000000000e+00 -0.0000000000e+00 -1.1792394780e+02 1.1792394780e+02 0.0000000000e+00 0.0000e+00 -1.0000e+00
        6  1    1    2  501    0 -6.2067078143e-01 +6.4468132190e+00 +7.6674430668e+01 1.8934073770e+02 1.7300000000e+02 0.0000e+00 1.0000e+00
       -6  1    1    2    0  503 +6.2067078143e-01 -6.4468132190e+00 +6.0062721401e+01 1.8324430997e+02 1.7300000000e+02 0.0000e+00 1.0000e+00
<mgrwt>
<rscale>  2 0.17312119E+03</rscale>
<asrwt>0</asrwt>
<pdfrwt beam="1">  1       21 0.39178631E-01 0.17312119E+03</pdfrwt>
<pdfrwt beam="2">  1       21 0.18142146E-01 0.17312119E+03</pdfrwt>
<totfact> 0.17483720E+05</totfact>
</mgrwt>
</event>
<event>
 4      2 +5.6305390e+02 1.74430100e+02 7.54677100e-03 1.17330500e-01
       21 -1    0    0  501  502 +0.0000000000e+00 +0.0000000000e+00 +2.4742274812e+01 2.4742274812e+01 0.0000000000e+00 0.0000e+00 -1.0000e+00
       21 -1    0    0  502  503 -0.0000000000e+00 -0.0000000000e+00 -1.2628160503e+03 1.2628160503e+03 0.0000000000e+00 0.0000e+00 -1.0000e+00
        6  1    1    2  501    0 +7.7304525433e+00 +2.0907095586e+01 -5.1480299745e+02 5.4355127883e+02 1.7300000000e+02 0.0000e+00 -1.0000e+00
       -6  1    1    2    0  503 -7.7304525433e+00 -2.0907095586e+01 -7.2327077808e+02 7.4400704632e+02 1.7300000000e+02 0.0000e+00 -1.0000e+00
<mgrwt>
<rscale>  2 0.17443012E+03</rscale>
<asrwt>0</asrwt>
<pdfrwt beam="1">  1       21 0.38065042E-02 0.17443012E+03</pdfrwt>
<pdfrwt beam="2">  1       21 0.19427937E+00 0.17443012E+03</pdfrwt>
<totfact> 0.62968587E+04</totfact>
</mgrwt>
</event>
<event>
 4      2 +5.6305390e+02 2.11716500e+02 7.54677100e-03 1.14021400e-01
       21 -1    0    0  503  502 +0.0000000000e+00 +0.0000000000e+00 +1.6021638364e+02 1.6021638364e+02 0.0000000000e+00 0.0000e+00 -1.0000e+00
       21 -1    0    0  501  503 -0.0000000000e+00 -0.0000000000e+00 -7.8151848154e+02 7.8151848154e+02 0.0000000000e+00 0.0000e+00 1.0000e+00
        6  1    1    2  501    0 -1.2204388409e+02 +3.8848516882e-01 -6.8793795118e+02 7.1977946987e+02 1.7300000000e+02 0.0000e+00 1.0000e+00
       -6  1    1    2    0  502 +1.2204388409e+02 -3.8848516882e-01 +6.6635853291e+01 2.2195539531e+02 1.7300000000e+02 0.0000e+00 1.0000e+00
<mgrwt>
<rscale>  2 0.21171646E+03</rscale>
<asrwt>0</asrwt>
<pdfrwt beam="1">  1       21 0.24648674E-01 0.21171646E+03</pdfrwt>
<pdfrwt beam="2">  1       21 0.12023361E+00 0.21171646E+03</pdfrwt>
<totfact> 0.80645054E+03</totfact>
</mgrwt>
</event>
<event>
 4      2 +5.6305390e+02 2.73551700e+02 7.54677100e-03 1.09926400e-01
       21 -1    0    0  503  502 +0.0000000000e+00 +0.0000000000e+00 +8.8764876036e+01 8.8764876036e+01 0.0000000000e+00 0.0000e+00 -1.0000e+00
       21 -1    0    0  501  503 -0.0000000000e+00 -0.0000000000e+00 -8.4306397468e+02 8.4306397468e+02 0.0000000000e+00 0.0000e+00 -1.0000e+00
        6  1    1    2  501    0 +1.1934216416e+02 -1.7509711365e+02 -3.8052070721e+02 4.6864331850e+02 1.7300000000e+02 0.0000e+00 -1.0000e+00
       -6  1    1    2    0  502 -1.1934216416e+02 +1.7509711365e+02 -3.7377839144e+02 4.6318553222e+02 1.7300000000e+02 0.0000e+00 -1.0000e+00
<mgrwt>
<rscale>  2 0.27355173E+03</rscale>
<asrwt>0</asrwt>
<pdfrwt beam="1">  1       21 0.13656135E-01 0.27355173E+03</pdfrwt>
<pdfrwt beam="2">  1       21 0.12970215E+00 0.27355173E+03</pdfrwt>
<totfact> 0.19318900E+04</totfact>
</mgrwt>
</event>
<event>
 4      2 +5.6305390e+02 3.07539400e+02 7.54677100e-03 1.08153100e-01
       21 -1    0    0  501  502 +0.0000000000e+00 +0.0000000000e+00 +1.0838958904e+02 1.0838958904e+02 0.0000000000e+00 0.0000e+00 1.0000e+00
       21 -1    0    0  502  503 -0.0000000000e+00 -0.0000000000e+00 -9.2962845552e+02 9.2962845552e+02 0.0000000000e+00 0.0000e+00 1.0000e+00
        6  1    1    2  501    0 +1.6806232495e+02 -1.9080491967e+02 -2.8206818457e+02 4.1730435319e+02 1.7300000000e+02 0.0000e+00 1.0000e+00
       -6  1    1    2    0  503 -1.6806232495e+02 +1.9080491967e+02 -5.3917068190e+02 6.2071369138e+02 1.7300000000e+02 0.0000e+00 1.0000e+00
<mgrwt>
<rscale>  2 0.30753937E+03</rscale>
<asrwt>0</asrwt>
<pdfrwt beam="1">  1       21 0.16675320E-01 0.30753937E+03</pdfrwt>
<pdfrwt beam="2">  1       21 0.14301977E+00 0.30753937E+03</pdfrwt>
<totfact> 0.10215722E+04</totfact>
</mgrwt>
</event>
<event>
 4      2 +5.6305390e+02 1.81344000e+02 7.54677100e-03 1.16650900e-01
       -1 -1    0    0    0  501 -0.0000000000e+00 +0.0000000000e+00 +7.0033744888e+01 7.0033744888e+01 0.0000000000e+00 0.0000e+00 1.0000e+00
        1 -1    0    0  502    0 +0.0000000000e+00 -0.0000000000e+00 -4.7038799714e+02 4.7038799714e+02 0.0000000000e+00 0.0000e+00 -1.0000e+00
        6  1    1    2  502    0 +5.0063072336e+01 +2.1221270484e+01 -2.1145427324e+02 2.7856518663e+02 1.7300000000e+02 0.0000e+00 -1.0000e+00
       -6  1    1    2    0  501 -5.0063072336e+01 -2.1221270484e+01 -1.8889997901e+02 2.6185655540e+02 1.7300000000e+02 0.0000e+00 1.0000e+00
<mgrwt>
<rscale>  2 0.18134402E+03</rscale>
<asrwt>0</asrwt>
<pdfrwt beam="1">  1        1 0.72367383E-01 0.18134402E+03</pdfrwt>
<pdfrwt beam="2">  1       -1 0.10774423E-01 0.18134402E+03</pdfrwt>
<totfact> 0.26200170E+03</totfact>
</mgrwt>
</event>
<event>
 4      2 +5.6305390e+02 2.34738400e+02 7.54677100e-03 1.12334800e-01
       21 -1    0    0  503  502 +0.0000000000e+00 +0.0000000000e+00 +5.1510576917e+01 5.1510576917e+01 0.0000000000e+00 0.0000e+00 1.0000e+00
       21 -1    0    0  501  503 -0.0000000000e+00 -0.0000000000e+00 -1.1314026818e+03 1.1314026818e+03 0.0000000000e+00 0.0000e+00 -1.0000e+00
        6  1    1    2  501    0 +1.2715593187e+02 -9.4892020572e+01 -4.0185038504e+02 4.6538785818e+02 1.7300000000e+02 0.0000e+00 1.0000e+00
       -6  1    1    2    0  502 -1.2715593187e+02 +9.4892020572e+01 -6.7804171985e+02 7.1752540055e+02 1.7300000000e+02 0.0000e+00 1.0000e+00
<mgrwt>
<rscale>  2 0.23473842E+03</rscale>
<asrwt>0</asrwt>
<pdfrwt beam="1">  1       21 0.79247040E-02 0.23473842E+03</pdfrwt>
<pdfrwt beam="2">  1       21 0.17406195E+00 0.23473842E+03</pdfrwt>
<totfact> 0.23727808E+04</totfact>
</mgrwt>
</event>
<event>
 4      3 +5.6305390e+02 8.53050100e+01 7.54677100e-03 1.31463700e-01
        2 -1    0    0  501    0 +0.0000000000e+00 +0.0000000000e+00 +5.4163275402e+02 5.4163275402e+02 0.0000000000e+00 0.0000e+00 -1.0000e+00
       -2 -1    0    0    0  501 -0.0000000000e+00 -0.0000000000e+00 -3.4926507609e+01 3.4926507609e+01 0.0000000000e+00 0.0000e+00 1.0000e+00
       24  1    1    2    0    0 +1.8834588305e+01 +2.1330432532e+01 +4.7948812276e+02 4.8701725318e+02 8.0419002446e+01 0.0000e+00 -1.0000e+00
      -24  1    1    2    0    0 -1.8834588305e+01 -2.1330432532e+01 +2.7218123651e+01 8.9542008454e+01 8.0419002446e+01 0.0000e+00 1.0000e+00
<mgrwt>
<rscale>  0 0.85305012E+02</rscale>
<asrwt>0</asrwt>
<pdfrwt beam="1">  1        2 0.83328110E-01 0.85305012E+02</pdfrwt>
<pdfrwt beam="2">  1       -2 0.53733093E-02 0.85305012E+02</pdfrwt>
<totfact> 0.91956857E+03</totfact>
</mgrwt>
</event>
<event>
 4      2 +5.6305390e+02 2.29259300e+02 7.54677100e-03 1.12716200e-01
       21 -1    0    0  501  502 +0.0000000000e+00 +0.0000000000e+00 +6.1114183702e+01 6.1114183702e+01 0.0000000000e+00 0.0000e+00 1.0000e+00
       21 -1    0    0  502  503 -0.0000000000e+00 -0.0000000000e+00 -8.6755725649e+02 8.6755725649e+02 0.0000000000e+00 0.0000e+00 -1.0000e+00
        6  1    1    2  501    0 -5.1233975650e+01 +1.4144220979e+02 -4.4648304236e+02 5.0190330352e+02 1.7300000000e+02 0.0000e+00 -1.0000e+00
       -6  1    1    2    0  503 +5.1233975650e+01 -1.4144220979e+02 -3.5996003043e+02 4.2676813667e+02 1.7300000000e+02 0.0000e+00 -1.0000e+00
<mgrwt>
<rscale>  2 0.22925928E+03</rscale>
<asrwt>0</asrwt>
<pdfrwt beam="1">  1       21 0.94021817E-02 0.22925928E+03</pdfrwt>
<pdfrwt beam="2">  1       21 0.13347035E+00 0.22925928E+03</pdfrwt>
<totfact> 0.35841535E+04</totfact>
</mgrwt>
</event>
<event>
 4      2 +5.6305390e+02 4.30774100e+02 7.54677100e-03 1.03361600e-01
       21 -1    0    0  501  502 +0.0000000000e+00 +0.0000000000e+00 +7.1443433506e+02 7.1443433506e+02 0.0000000000e+00 0.0000e+00 1.0000e+00
       21 -1    0    0  502  503 -0.0000000000e+00 -0.0000000000e+00 -1.1818753492e+03 1.1818753492e+03 0.0000000000e+00 0.0000e+00 -1.0000e+00
        6  1    1    2  501    0 -3.5658261645e+02 -1.6877833694e+02 +6.0379152878e+02 7.4170782631e+02 1.7300000000e+02 0.0000e+00 1.0000e+00
       -6  1    1    2    0  503 +3.5658261645e+02 +1.6877833694e+02 -1.0712325429e+03 1.1546018580e+03 1.7300000000e+02 0.0000e+00 -1.0000e+00
<mgrwt>
<rscale>  2 0.43077406E+03</rscale>
<asrwt>0</asrwt>
<pdfrwt beam="1">  1       21 0.10991298E+00 0.43077406E+03</pdfrwt>
<pdfrwt beam="2">  1       21 0.18182697E+00 0.43077406E+03</pdfrwt>
<totfact> 0.93304174E+01</totfact>
</mgrwt>
</event>
<event>
 4      3 +5.6305390e+02 8.93750200e+01 7.54677100e-03 1.30437200e-01
        2 -1    0    0  501    0 +0.0000000000e+00 +0.0000000000e+00 +2.8244781316e+03 2.8244781316e+03 0.0000000000e+00 0.0000e+00 -1.0000e+00
       -2 -1    0    0    0  501 -0.0000000000e+00 -0.0000000000e+00 -1.2783548000e+01 1.2783548000e+01 0.0000000000e+00 0.0000e+00 1.0000e+00
       24  1    1    2    0    0 -2.3424290577e+01 -3.1176617355e+01 +2.6577604058e+03 2.6592627304e+03 8.0419002446e+01 0.0000e+00 -1.0000e+00
      -24  1    1    2    0    0 +2.3424290577e+01 +3.1176617355e+01 +1.5393417784e+02 1.7799894921e+02 8.0419002446e+01 0.0000e+00 1.0000e+00
<mgrwt>
<rscale>  0 0.89375023E+02</rscale>
<asrwt>0</asrwt>
<pdfrwt beam="1">  1        2 0.43453460E+00 0.89375023E+02</pdfrwt>
<pdfrwt beam="2">  1       -2 0.19667019E-02 0.89375023E+02</pdfrwt>
<totfact> 0.21490468E+03</totfact>
</mgrwt>
</event>
<event>
 4      2 +5.6305390e+02 2.13865000e+02 7.54677100e-03 1.13854100e-01
       21 -1    0    0  501  502 +0.0000000000e+00 +0.0000000000e+00 +2.3292201284e+03 2.3292201284e+03 0.0000000000e+00 0.0000e+00 1.0000e+00
       21 -1    0    0  502  503 -0.0000000000e+00 -0.0000000000e+00 -2.9236820467e+01 2.9236820467e+01 0.0000000000e+00 0.0000e+00 -1.0000e+00
        6  1    1    2  501    0 -1.1514409015e+02 -5.0507981109e+01 +1.8257182719e+03 1.8382016826e+03 1.7300000000e+02 0.0000e+00 1.0000e+00
       -6  1    1    2    0  503 +1.1514409015e+02 +5.0507981109e+01 +4.7426503606e+02 5.2025526627e+02 1.7300000000e+02 0.0000e+00 -1.0000e+00
<mgrwt>
<rscale>  2 0.21386495E+03</rscale>
<asrwt>0</asrwt>
<pdfrwt beam="1">  1       21 0.35834141E+00 0.21386495E+03</pdfrwt>
<pdfrwt beam="2">  1       21 0.44979742E-02 0.21386495E+03</pdfrwt>
<totfact> 0.48912626E+03</totfact>
</mgrwt>
</event>
<event>
 4      2 +5.6305390e+02 3.21651000e+02 7.54677100e-03 1.07489200e-01
       21 -1    0    0  501  502 +0.0000000000e+00 +0.0000000000e+00 +8.0011054012e+02 8.0011054012e+02 0.0000000000e+00 0.0000e+00 -1.0000e+00
       21 -1    0    0  502  503 -0.0000000000e+00 -0.0000000000e+00 -1.4316887333e+02 1.4316887333e+02 0.0000000000e+00 0.0000e+00 1.0000e+00
        6  1    1    2  501    0 +2.4442228315e+02 +1.1742291799e+02 +4.7523052756e+02 5.7384967413e+02 1.7300000000e+02 0.0000e+00 -1.0000e+00
       -6  1    1    2    0  503 -2.4442228315e+02 -1.1742291799e+02 +1.8171113923e+02 3.6942973932e+02 1.7300000000e+02 0.0000e+00 1.0000e+00
<mgrwt>
<rscale>  2 0.32165104E+03</rscale>
<asrwt>0</asrwt>
<pdfrwt beam="1">  1       21 0.12309393E+00 0.32165104E+03</pdfrwt>
<pdfrwt beam="2">  1       21 0.22025981E-01 0.32165104E+03</pdfrwt>
<totfact> 0.88595322E+03</totfact>
</mgrwt>
</event>
<event>
 4      2 +5.6305390e+02 3.00619400e+02 7.54677100e-03 1.08493100e-01
       21 -1    0    0  503  502 +0.0000000000e+00 +0.0000000000e+00 +4.8421052343e+01 4.8421052343e+01 0.0000000000e+00 0.0000e+00 -1.0000e+00
       21 -1    0    0  501  503 -0.0000000000e+00 -0.0000000000e+00 -1.9116767069e+03 1.9116767069e+03 0.0000000000e+00 0.0000e+00 1.0000e+00
        6  1    1    2  501    0 -2.4481707206e+02 -2.2530940564e+01 -1.0824891625e+03 1.1234566432e+03 1.7300000000e+02 0.0000e+00 -1.0000e+00
       -6  1    1    2    0  502 +2.4481707206e+02 +2.2530940564e+01 -7.8076649199e+02 8.3664111605e+02 1.7300000000e+02 0.0000e+00 1.0000e+00
<mgrwt>
<rscale>  2 0.30061943E+03</rscale>
<asrwt>0</asrwt>
<pdfrwt beam="1">  1       21 0.74493933E-02 0.30061943E+03</pdfrwt>
<pdfrwt beam="2">  1       21 0.29410408E+00 0.30061943E+03</pdfrwt>
<totfact> 0.45408346E+03</totfact>
</mgrwt>
</event>
<event>
 4      2 +5.6305390e+02 2.46333900e+02 7.54677100e-03 1.11564400e-01
        2 -1    0    0  502    0 +0.0000000000e+00 +0.0000000000e+00 +2.7352170615e+03 2.7352170615e+03 0.0000000000e+00 0.0000e+00 -1.0000e+00
       -2 -1    0    0    0  501 -0.0000000000e+00 -0.0000000000e+00 -2.4618718199e+01 2.4618718199e+01 0.0000000000e+00 0.0000e+00 1.0000e+00
        6  1    1    2  502    0 -8.8941206671e+01 +1.5113192466e+02 +1.7891780521e+03 1.8060560620e+03 1.7300000000e+02 0.0000e+00 1.0000e+00
       -6  1    1    2    0  501 +8.8941206671e+01 -1.5113192466e+02 +9.2142029124e+02 9.5377971775e+02 1.7300000000e+02 0.0000e+00 1.0000e+00
<mgrwt>
<rscale>  2 0.24633391E+03</rscale>
<asrwt>0</asrwt>
<pdfrwt beam="1">  1        2 0.42080238E+00 0.24633391E+03</pdfrwt>
<pdfrwt beam="2">  1       -2 0.37874973E-02 0.24633391E+03</pdfrwt>
<totfact> 0.88917376E+02</totfact>
</mgrwt>
</event>
<event>
 4      2 +5.6305390e+02 2.44361400e+02 7.54677100e-03 1.11692100e-01
       21 -1    0    0  503  502 +0.0000000000e+00 +0.0000000000e+00 +4.8875537839e+02 4.8875537839e+02 0.0000000000e+00 0.0000e+00 1.0000e+00
       21 -1    0    0  501  503 -0.0000000000e+00 -0.0000000000e+00 -1.6418355753e+02 1.6418355753e+02 0.0000000000e+00 0.0000e+00 1.0000e+00
        6  1    1    2  501    0 +1.5127544591e+02 -8.3061561864e+01 -2.8567841199e+00 2.4437807760e+02 1.7300000000e+02 0.0000e+00 1.0000e+00
       -6  1    1    2    0  502 -1.5127544591e+02 +8.3061561864e+01 +3.2742860498e+02 4.0856085832e+02 1.7300000000e+02 0.0000e+00 1.0000e+00
<mgrwt>
<rscale>  2 0.24436138E+03</rscale>
<asrwt>0</asrwt>
<pdfrwt beam="1">  1       21 0.75193134E-01 0.24436138E+03</pdfrwt>
<pdfrwt beam="2">  1       21 0.25259009E-01 0.24436138E+03</pdfrwt>
<totfact> 0.22827250E+04</totfact>
</mgrwt>
</event>
<event>
 4      2 +5.6305390e+02 1.80133200e+02 7.54677100e-03 1.16767400e-01
       21 -1    0    0  503  502 +0.0000000000e+00 +0.0000000000e+00 +2.8587228560e+03 2.8587228560e+03 0.0000000000e+00 0.0000e+00 1.0000e+00
       21 -1    0    0  501  503 -0.0000000000e+00 -0.0000000000e+00 -1.1394971291e+01 1.1394971291e+01 0.0000000000e+00 0.0000e+00 -1.0000e+00
        6  1    1    2  501    0 +1.3471548819e+01 -4.8347389992e+01 +1.3340200765e+03 1.3461268578e+03 1.7300000000e+02 0.0000e+00 -1.0000e+00
       -6  1    1    2    0  502 -1.3471548819e+01 +4.8347389992e+01 +1.5133078083e+03 1.5239909696e+03 1.7300000000e+02 0.0000e+00 1.0000e+00
<mgrwt>
<rscale>  2 0.18013315E+03</rscale>
<asrwt>0</asrwt>
<pdfrwt beam="1">  1       21 0.43980295E+00 0.18013315E+03</pdfrwt>
<pdfrwt beam="2">  1       21 0.17530748E-02 0.18013315E+03</pdfrwt>
<totfact> 0.75373133E+03</totfact>
</mgrwt>
</event>
<event>
 4      2 +5.6305390e+02 2.24669600e+02 7.54677100e-03 1.13044900e-01
       21 -1    0    0  503  502 +0.0000000000e+00 +0.0000000000e+00 +6.0964181289e+02 6.0964181289e+02 0.0000000000e+00 0.0000e+00 -1.0000e+00
       21 -1    0    0  501  503 -0.0000000000e+00 -0.0000000000e+00 -8.7076953334e+01 8.7076953334e+01 0.0000000000e+00 0.0000e+00 1.0000e+00
        6  1    1    2  501    0 +3.8486354899e-01 +1.4334326952e+02 +1.8404969363e+02 2.9043197269e+02 1.7300000000e+02 0.0000e+00 1.0000e+00
       -6  1    1    2    0  502 -3.8486354899e-01 -1.4334326952e+02 +3.3851516592e+02 4.0628679353e+02 1.7300000000e+02 0.0000e+00 -1.0000e+00
<mgrwt>
<rscale>  2 0.22466963E+03</rscale>
<asrwt>0</asrwt>
<pdfrwt beam="1">  1       21 0.93791046E-01 0.22466963E+03</pdfrwt>
<pdfrwt beam="2">  1       21 0.13396455E-01 0.22466963E+03</pdfrwt>
<totfact> 0.45230127E+04</totfact>
</mgrwt>
</event>
<event>
 4      2 +5.6305390e+02 2.44733000e+02 7.54677100e-03 1.11667900e-01
       21 -1    0    0  503  502 +0.0000000000e+00 +0.0000000000e+00 +1.7590480969e+02 1.7590480969e+02 0.0000000000e+00 0.0000e+00 -1.0000e+00
       21 -1    0    0  501  503 -0.0000000000e+00 -0.0000000000e+00 -3.4976762977e+02 3.4976762977e+02 0.0000000000e+00 0.0000e+00 -1.0000e+00
        6  1    1    2  501    0 +1.4727690960e+02 -9.0965629776e+01 -1.2973300923e+02 2.7699257677e+02 1.7300000000e+02 0.0000e+00 -1.0000e+00
       -6  1    1    2    0  502 -1.4727690960e+02 +9.0965629776e+01 -4.4129810845e+01 2.4867986269e+02 1.7300000000e+02 0.0000e+00 -1.0000e+00
<mgrwt>
<rscale>  2 0.24473298E+03</rscale>
<asrwt>0</asrwt>
<pdfrwt beam="1">  1       21 0.27062279E-01 0.24473298E+03</pdfrwt>
<pdfrwt beam="2">  1       21 0.53810404E-01 0.24473298E+03</pdfrwt>
<totfact> 0.41473112E+04</totfact>
</mgrwt>
</event>
<event>
 4      2 +5.6305390e+02 2.09044100e+02 7.54677100e-03 1.14232500e-01
       21 -1    0    0  503  502 +0.0000000000e+00 +0.0000000000e+00 +4.5041425483e+02 4.5041425483e+02 0.0000000000e+00 0.0000e+00 -1.0000e+00
       21 -1    0    0  501  503 -0.0000000000e+00 -0.0000000000e+00 -1.2536670520e+02 1.2536670520e+02 0.0000000000e+00 0.0000e+00 1.0000e+00
        6  1    1    2  501    0 +3.3005494564e+01 +1.1261027999e+02 +2.5630127931e+01 2.1060945204e+02 1.7300000000e+02 0.0000e+00 1.0000e+00
       -6  1    1    2    0  502 -3.3005494564e+01 -1.1261027999e+02 +2.9941742171e+02 3.6517150799e+02 1.7300000000e+02 0.0000e+00 -1.0000e+00
<mgrwt>
<rscale>  2 0.20904410E+03</rscale>
<asrwt>0</asrwt>
<pdfrwt beam="1">  1       21 0.69294500E-01 0.20904410E+03</pdfrwt>
<pdfrwt beam="2">  1       21 0.19287186E-01 0.20904410E+03</pdfrwt>
<totfact> 0.46416770E+04</totfact>
</mgrwt>
</event>
<event>
 4      2 +5.6305390e+02 1.75140500e+02 7.54677100e-03 1.17259100e-01
        2 -1    0    0  502    0 +0.0000000000e+00 +0.0000000000e+00 +9.5152938706e+01 9.5152938706e+01 0.0000000000e+00 0.0000e+00 1.0000e+00
       -2 -1    0    0    0  501 -0.0000000000e+00 -0.0000000000e+00 -4.6335816419e+02 4.6335816419e+02 0.0000000000e+00 0.0000e+00 -1.0000e+00
        6  1    1    2  502    0 -2.4087260933e+01 +1.2844632694e+01 -3.3814460900e+02 3.8080960771e+02 1.7300000000e+02 0.0000e+00 -1.0000e+00
       -6  1    1    2    0  501 +2.4087260933e+01 -1.2844632694e+01 -3.0060616486e+01 1.7770149519e+02 1.7300000000e+02 0.0000e+00 1.0000e+00
<mgrwt>
<rscale>  2 0.17514046E+03</rscale>
<asrwt>0</asrwt>
<pdfrwt beam="1">  1        2 0.14638914E-01 0.17514046E+03</pdfrwt>
<pdfrwt beam="2">  1       -2 0.71285872E-01 0.17514046E+03</pdfrwt>
<totfact> 0.72944742E+02</totfact>
</mgrwt>
</event>
<event>
 4      2 +5.6305390e+02 1.98723200e+02 7.54677100e-03 1.15082100e-01
       21 -1    0    0  501  502 +0.0000000000e+00 +0.0000000000e+00 +5.1562823315e+02 5.1562823315e+02 0.0000000000e+00 0.0000e+00 1.0000e+00
       21 -1    0    0  502  503 -0.0000000000e+00 -0.0000000000e+00 -1.5217953176e+02 1.5217953176e+02 0.0000000000e+00 0.0000e+00 1.0000e+00
        6  1    1    2  501    0 -4.9140567387e+01 +8.4540697007e+01 +4.1705580431e+02 4.6198102637e+02 1.7300000000e+02 0.0000e+00 1.0000e+00
       -6  1    1    2    0  503 +4.9140567387e+01 -8.4540697007e+01 -5.3607102924e+01 2.0582673854e+02 1.7300000000e+02 0.0000e+00 1.0000e+00
<mgrwt>
<rscale>  2 0.19872324E+03</rscale>
<asrwt>0</asrwt>
<pdfrwt beam="1">  1       21 0.79327419E-01 0.19872324E+03</pdfrwt>
<pdfrwt beam="2">  1       21 0.23412236E-01 0.19872324E+03</pdfrwt>
<totfact> 0.23971108E+04</totfact>
</mgrwt>
</event>
<event>
 4      2 +5.6305390e+02 1.87160700e+02 7.54677100e-03 1.16104700e-01
       21 -1    0    0  501  502 +0.0000000000e+00 +0.0000000000e+00 +1.0819504051e+02 1.0819504051e+02 0.0000000000e+00 0.0000e+00 -1.0000e+00
       21 -1    0    0  502  503 -0.0000000000e+00 -0.0000000000e+00 -4.4937178297e+02 4.4937178297e+02 0.0000000000e+00 0.0000e+00 -1.0000e+00
        6  1    1    2  501    0 +1.1778559033e+01 +7.0437108849e+01 -2.3193997537e+01 1.8859237068e+02 1.7300000000e+02 0.0000e+00 -1.0000e+00
       -6  1    1    2    0  503 -1.1778559033e+01 -7.0437108849e+01 -3.1798274492e+02 3.6897445281e+02 1.7300000000e+02 0.0000e+00 -1.0000e+00
<mgrwt>
<rscale>  2 0.18716068E+03</rscale>
<asrwt>0</asrwt>
<pdfrwt beam="1">  1       21 0.16645391E-01 0.18716068E+03</pdfrwt>
<pdfrwt beam="2">  1       21 0.69134121E-01 0.18716068E+03</pdfrwt>
<totfact> 0.61911219E+04</totfact>
</mgrwt>
</event>
<event>
 4      2 +5.6305390e+02 1.82224500e+02 7.54677100e-03 1.16566700e-01
       21 -1    0    0  503  502 +0.0000000000e+00 +0.0000000000e+00 +2.6159559675e+01 2.6159559675e+01 0.0000000000e+00 0.0000e+00 1.0000e+00
       21 -1    0    0  501  503 -0.0000000000e+00 -0.0000000000e+00 -1.4836230294e+03 1.4836230294e+03 0.0000000000e+00 0.0000e+00 -1.0000e+00
        6  1    1    2  501    0 +4.6222674431e+01 -3.3767361026e+01 -1.0156123660e+03 1.0318305327e+03 1.7300000000e+02 0.0000e+00 -1.0000e+00
       -6  1    1    2    0  502 -4.6222674431e+01 +3.3767361026e+01 -4.4185110374e+02 4.7795205636e+02 1.7300000000e+02 0.0000e+00 1.0000e+00
<mgrwt>
<rscale>  2 0.18222451E+03</rscale>
<asrwt>0</asrwt>
<pdfrwt beam="1">  1       21 0.40245487E-02 0.18222451E+03</pdfrwt>
<pdfrwt beam="2">  1       21 0.22824963E+00 0.18222451E+03</pdfrwt>
<totfact> 0.35035035E+04</totfact>
</mgrwt>
</event>
<event>
 4      2 +5.6305390e+02 2.40111000e+02 7.54677100e-03 1.11971900e-01
       21 -1    0    0  503  502 +0.0000000000e+00 +0.0000000000e+00 +2.4350824773e+02 2.4350824773e+02 0.0000000000e+00 0.0000e+00 1.0000e+00
       21 -1    0    0  501  503 -0.0000000000e+00 -0.0000000000e+00 -2.6563511133e+02 2.6563511133e+02 0.0000000000e+00 0.0000e+00 1.0000e+00
        6  1    1    2  501    0 +1.0504041432e+02 -1.2919287566e+02 -9.4994101448e+01 2.5821922289e+02 1.7300000000e+02 0.0000e+00 1.0000e+00
       -6  1    1    2    0  502 -1.0504041432e+02 +1.2919287566e+02 +7.2867237840e+01 2.5092413617e+02 1.7300000000e+02 0.0000e+00 1.0000e+00
<mgrwt>
<rscale>  2 0.24011099E+03</rscale>
<asrwt>0</asrwt>
<pdfrwt beam="1">  1       21 0.37462807E-01 0.24011099E+03</pdfrwt>
<pdfrwt beam="2">  1       21 0.40866940E-01 0.24011099E+03</pdfrwt>
<totfact> 0.38739326E+04</totfact>
</mgrwt>
</event>
<event>
 4      2 +5.6305390e+02 1.99625400e+02 7.54677100e-03 1.15005500e-01
       21 -1    0    0  501  502 +0.0000000000e+00 +0.0000000000e+00 +9.3752224875e+02 9.3752224875e+02 0.0000000000e+00 0.0000e+00 1.0000e+00
       21 -1    0    0  502  503 -0.0000000000e+00 -0.0000000000e+00 -6.5253422396e+01 6.5253422396e+01 0.0000000000e+00 0.0000e+00 1.0000e+00
        6  1    1    2  501    0 -9.8944711194e+01 -1.1455765165e+01 +1.4010248750e+02 2.4388316348e+02 1.7300000000e+02 0.0000e+00 1.0000e+00
       -6  1    1    2    0  503 +9.8944711194e+01 +1.1455765165e+01 +7.3216633886e+02 7.5889250766e+02 1.7300000000e+02 0.0000e+00 1.0000e+00
<mgrwt>
<rscale>  2 0.19962538E+03</rscale>
<asrwt>0</asrwt>
<pdfrwt beam="1">  1       21 0.14423418E+00 0.19962538E+03</pdfrwt>
<pdfrwt beam="2">  1       21 0.10038989E-01 0.19962538E+03</pdfrwt>
<totfact> 0.26573818E+04</totfact>
</mgrwt>
</event>
<event>
 4      2 +5.6305390e+02 1.76066800e+02 7.54677100e-03 1.17166500e-01
       21 -1    0    0  501  502 +0.0000000000e+00 +0.0000000000e+00 +4.5061939279e+01 4.5061939279e+01 0.0000000000e+00 0.0000e+00 -1.0000e+00
       21 -1    0    0  502  503 -0.0000000000e+00 -0.0000000000e+00 -9.5760583622e+02 9.5760583622e+02 0.0000000000e+00 0.0000e+00 -1.0000e+00
        6  1    1    2  501    0 -2.7205464931e+01 -1.8176777854e+01 -1.9022799809e+02 2.5920305522e+02 1.7300000000e+02 0.0000e+00 -1.0000e+00
       -6  1    1    2    0  503 +2.7205464931e+01 +1.8176777854e+01 -7.2231589885e+02 7.4346472028e+02 1.7300000000e+02 0.0000e+00 -1.0000e+00
<mgrwt>
<rscale>  2 0.17606684E+03</rscale>
<asrwt>0</asrwt>
<pdfrwt beam="1">  1       21 0.69326060E-02 0.17606684E+03</pdfrwt>
<pdfrwt beam="2">  1       21 0.14732398E+00 0.17606684E+03</pdfrwt>
<totfact> 0.48654875E+04</totfact>
</mgrwt>
</event>
<event>
 4      2 +5.6305390e+02 1.90844700e+02 7.54677100e-03 1.15770200e-01
       21 -1    0    0  501  502 +0.0000000000e+00 +0.0000000000e+00 +1.1852614112e+02 1.1852614112e+02 0.0000000000e+00 0.0000e+00 1.0000e+00
       21 -1    0    0  502  503 -0.0000000000e+00 -0.0000000000e+00 -3.0906636441e+02 3.0906636441e+02 0.0000000000e+00 0.0000e+00 1.0000e+00
        6  1    1    2  501    0 +7.8596978143e+01 -1.7753999931e+01 -7.9053687415e+01 2.0657002440e+02 1.7300000000e+02 0.0000e+00 1.0000e+00
       -6  1    1    2    0  503 -7.8596978143e+01 +1.7753999931e+01 -1.1148653587e+02 2.2102248114e+02 1.7300000000e+02 0.0000e+00 1.0000e+00
<mgrwt>
<rscale>  2 0.19084467E+03</rscale>
<asrwt>0</asrwt>
<pdfrwt beam="1">  1       21 0.18234791E-01 0.19084467E+03</pdfrwt>
<pdfrwt beam="2">  1       21 0.47548671E-01 0.19084467E+03</pdfrwt>
<totfact> 0.11602266E+05</totfact>
</mgrwt>
</event>
<event>
 4      2 +5.6305390e+02 1.93300600e+02 7.54677100e-03 1.15551800e-01
       21 -1    0    0  501  502 +0.0000000000e+00 +0.0000000000e+00 +5.6517735123e+01 5.6517735123e+01 0.0000000000e+00 0.0000e+00 1.0000e+00
       21 -1    0    0  502  503 -0.0000000000e+00 -0.0000000000e+00 -1.2305111448e+03 1.2305111448e+03 0.0000000000e+00 0.0000e+00 1.0000e+00
        6  1    1    2  501    0 +8.3836134003e+01 +2.0189545799e+01 -1.4925277508e+02 2.4421610510e+02 1.7300000000e+02 0.0000e+00 1.0000e+00
       -6  1    1    2    0  503 -8.3836134003e+01 -2.0189545799e+01 -1.0247406346e+03 1.0428127748e+03 1.7300000000e+02 0.0000e+00 1.0000e+00
<mgrwt>
<rscale>  2 0.19330058E+03</rscale>
<asrwt>0</asrwt>
<pdfrwt beam="1">  1       21 0.86950361E-02 0.19330058E+03</pdfrwt>
<pdfrwt beam="2">  1       21 0.18930941E+00 0.19330058E+03</pdfrwt>
<totfact> 0.16347067E+04</totfact>
</mgrwt>
</event>
<event>
 4      2 +5.6305390e+02 3.04857200e+02 7.54677100e-03 1.08283700e-01
       21 -1    0    0  503  502 +0.0000000000e+00 +0.0000000000e+00 +1.6553259659e+02 1.6553259659e+02 0.0000000000e+00 0.0000e+00 1.0000e+00
       21 -1    0    0  501  503 -0.0000000000e+00 -0.0000000000e+00 -2.3079794665e+03 2.3079794665e+03 0.0000000000e+00 0.0000e+00 -1.0000e+00
        6  1    1    2  501    0 +2.3233156734e+02 +9.5031234380e+01 -2.1470848037e+03 2.1686196179e+03 1.7300000000e+02 0.0000e+00 -1.0000e+00
       -6  1    1    2    0  502 -2.3233156734e+02 -9.5031234380e+01 +4.6379338530e+00 3.0489244517e+02 1.7300000000e+02 0.0000e+00 1.0000e+00
<mgrwt>
<rscale>  2 0.30485717E+03</rscale>
<asrwt>0</asrwt>
<pdfrwt beam="1">  1       21 0.25466553E-01 0.30485717E+03</pdfrwt>
<pdfrwt beam="2">  1       21 0.35507376E+00 0.30485717E+03</pdfrwt>
<totfact> 0.20642935E+02</totfact>
</mgrwt>
</event>
<event>
 4      2 +5.6305390e+02 1.80185400e+02 7.54677100e-03 1.16762400e-01
       21 -1    0    0  501  502 +0.0000000000e+00 +0.0000000000e+00 +1.6626860608e+02 1.6626860608e+02 0.0000000000e+00 0.0000e+00 1.0000e+00
       21 -1    0    0  502  503 -0.0000000000e+00 -0.0000000000e+00 -2.0144893558e+02 2.0144893558e+02 0.0000000000e+00 0.0000e+00 1.0000e+00
        6  1    1    2  501    0 +4.9766774407e+01 +7.8126541820e+00 +1.4617899972e+01 1.8077735588e+02 1.7300000000e+02 0.0000e+00 1.0000e+00
       -6  1    1    2    0  503 -4.9766774407e+01 -7.8126541820e+00 -4.9798229476e+01 1.8694018578e+02 1.7300000000e+02 0.0000e+00 1.0000e+00
<mgrwt>
<rscale>  2 0.18018538E+03</rscale>
<asrwt>0</asrwt>
<pdfrwt beam="1">  1       21 0.25579786E-01 0.18018538E+03</pdfrwt>
<pdfrwt beam="2">  1       21 0.30992144E-01 0.18018538E+03</pdfrwt>
<totfact> 0.14556476E+05</totfact>
</mgrwt>
</event>
<event>
 4      2 +5.6305390e+02 2.03658600e+02 7.54677100e-03 1.14668800e-01
       21 -1    0    0  503  502 +0.0000000000e+00 +0.0000000000e+00 +1.6294820036e+03 1.6294820036e+03 0.0000000000e+00 0.0000e+00 -1.0000e+00
       21 -1    0    0  501  503 -0.0000000000e+00 -0.0000000000e+00 -2.9640357788e+01 2.9640357788e+01 0.0000000000e+00 0.0000e+00 -1.0000e+00
        6  1    1    2  501    0 +9.0245519381e+01 +5.8340030456e+01 +4.8815710513e+02 5.2893683197e+02 1.7300000000e+02 0.0000e+00 1.0000e+00
       -6  1    1    2    0  502 -9.0245519381e+01 -5.8340030456e+01 +1.1116845407e+03 1.1301855295e+03 1.7300000000e+02 0.0000e+00 1.0000e+00
<mgrwt>
<rscale>  2 0.20365857E+03</rscale>
<asrwt>0</asrwt>
<pdfrwt beam="1">  1       21 0.25068947E+00 0.20365857E+03</pdfrwt>
<pdfrwt beam="2">  1       21 0.45600563E-02 0.20365857E+03</pdfrwt>
<totfact> 0.20511892E+04</totfact>
</mgrwt>
</event>
<event>
 4      2 +5.6305390e+02 2.73249800e+02 7.54677100e-03 1.09943400e-01
       21 -1    0    0  503  502 +0.0000000000e+00 +0.0000000000e+00 +4.9702167238e+02 4.9702167238e+02 0.0000000000e+00 0.0000e+00 -1.0000e+00
       21 -1    0    0  501  503 -0.0000000000e+00 -0.0000000000e+00 -1.9434103744e+02 1.9434103744e+02 0.0000000000e+00 0.0000e+00 1.0000e+00
        6  1    1    2  501    0 +1.9189577506e+02 +8.8951965491e+01 +3.1603833858e+02 4.1778663466e+02 1.7300000000e+02 0.0000e+00 -1.0000e+00
       -6  1    1    2    0  502 -1.9189577506e+02 -8.8951965491e+01 -1.3357703645e+01 2.7357607516e+02 1.7300000000e+02 0.0000e+00 1.0000e+00
<mgrwt>
<rscale>  2 0.27324978E+03</rscale>
<asrwt>0</asrwt>
<pdfrwt beam="1">  1       21 0.76464872E-01 0.27324978E+03</pdfrwt>
<pdfrwt beam="2">  1       21 0.29898621E-01 0.27324978E+03</pdfrwt>
<totfact> 0.15623621E+04</totfact>
</mgrwt>
</event>
<event>
 4      2 +5.6305390e+02 3.24353700e+02 7.54677100e-03 1.07366300e-01
       21 -1    0    0  503  502 +0.0000000000e+00 +0.0000000000e+00 +2.5731507970e+02 2.5731507970e+02 0.0000000000e+00 0.0000e+00 1.0000e+00
       21 -1    0    0  501  503 -0.0000000000e+00 -0.0000000000e+00 -4.1341451254e+02 4.1341451254e+02 0.0000000000e+00 0.0000e+00 -1.0000e+00
        6  1    1    2  501    0 +2.7390960729e+02 +1.5807372502e+01 -1.1325742204e+02 3.4355871352e+02 1.7300000000e+02 0.0000e+00 -1.0000e+00
       -6  1    1    2    0  502 -2.7390960729e+02 -1.5807372502e+01 -4.2842010800e+01 3.2717087872e+02 1.7300000000e+02 0.0000e+00 1.0000e+00
<mgrwt>
<rscale>  2 0.32435374E+03</rscale>
<asrwt>0</asrwt>
<pdfrwt beam="1">  1       21 0.39586935E-01 0.32435374E+03</pdfrwt>
<pdfrwt beam="2">  1       21 0.63602233E-01 0.32435374E+03</pdfrwt>
<totfact> 0.13137804E+04</totfact>
</mgrwt>
</event>
<event>
 4      2 +5.6305390e+02 2.24666100e+02 7.54677100e-03 1.13045100e-01
       21 -1    0    0  503  502 +0.0000000000e+00 +0.0000000000e+00 +1.8139960209e+02 1.8139960209e+02 0.0000000000e+00 0.0000e+00 1.0000e+00
       21 -1    0    0  501  503 -0.0000000000e+00 -0.0000000000e+00 -3.5988467561e+02 3.5988467561e+02 0.0000000000e+00 0.0000e+00 -1.0000e+00
        6  1    1    2  501    0 +9.2762509472e+01 -1.0927473950e+02 -2.1814019447e+02 3.1314532777e+02 1.7300000000e+02 0.0000e+00 -1.0000e+00
       -6  1    1    2    0  502 -9.2762509472e+01 +1.0927473950e+02 +3.9655120956e+01 2.2813894993e+02 1.7300000000e+02 0.0000e+00 1.0000e+00
<mgrwt>
<rscale>  2 0.22466609E+03</rscale>
<asrwt>0</asrwt>
<pdfrwt beam="1">  1       21 0.27907631E-01 0.22466609E+03</pdfrwt>
<pdfrwt beam="2">  1       21 0.55366873E-01 0.22466609E+03</pdfrwt>
<totfact> 0.37106601E+04</totfact>
</mgrwt>
</event>
<event>
 4      2 +5.6305390e+02 2.63711600e+02 7.54677100e-03 1.10493400e-01
       21 -1    0    0  503  502 +0.0000000000e+00 +0.0000000000e+00 +2.5444761399e+02 2.5444761399e+02 0.0000000000e+00 0.0000e+00 -1.0000e+00
       21 -1    0    0  501  503 -0.0000000000e+00 -0.0000000000e+00 -3.4786543310e+02 3.4786543310e+02 0.0000000000e+00 0.0000e+00 -1.0000e+00
        6  1    1    2  501    0 +5.1574245312e+01 +1.9223660503e+02 -1.8612658636e+02 3.2277998891e+02 1.7300000000e+02 0.0000e+00 -1.0000e+00
       -6  1    1    2    0  502 -5.1574245312e+01 -1.9223660503e+02 +9.2708767248e+01 2.7953305818e+02 1.7300000000e+02 0.0000e+00 -1.0000e+00
<mgrwt>
<rscale>  2 0.26371161E+03</rscale>
<asrwt>0</asrwt>
<pdfrwt beam="1">  1       21 0.39145787E-01 0.26371161E+03</pdfrwt>
<pdfrwt beam="2">  1       21 0.53517759E-01 0.26371161E+03</pdfrwt>
<totfact> 0.20022204E+04</totfact>
</mgrwt>
</event>
<event>
 4      2 +5.6305390e+02 2.26148000e+02 7.54677100e-03 1.12938100e-01
       21 -1    0    0  501  502 +0.0000000000e+00 +0.0000000000e+00 +2.3679296122e+02 2.3679296122e+02 0.0000000000e+00 0.0000e+00 -1.0000e+00
       21 -1    0    0  502  503 -0.0000000000e+00 -0.0000000000e+00 -2.5929363729e+02 2.5929363729e+02 0.0000000000e+00 0.0000e+00 -1.0000e+00
        6  1    1    2  501    0 +1.0034958914e+02 +1.0556467054e+02 +9.0125746646e+01 2.4344525034e+02 1.7300000000e+02 0.0000e+00 -1.0000e+00
       -6  1    1    2    0  503 -1.0034958914e+02 -1.0556467054e+02 -1.1262642272e+02 2.5264134816e+02 1.7300000000e+02 0.0000e+00 -1.0000e+00
<mgrwt>
<rscale>  2 0.22614805E+03</rscale>
<asrwt>0</asrwt>
<pdfrwt beam="1">  1       21 0.36429686E-01 0.22614805E+03</pdfrwt>
<pdfrwt beam="2">  1       21 0.39891329E-01 0.22614805E+03</pdfrwt>
<totfact> 0.43305751E+04</totfact>
</mgrwt>
</event>
<event>
 4      2 +5.6305390e+02 2.31527200e+02 7.54677100e-03 1.12556900e-01
       21 -1    0    0  503  502 +0.0000000000e+00 +0.0000000000e+00 +8.4414453147e+02 8.4414453147e+02 0.0000000000e+00 0.0000e+00 -1.0000e+00
       21 -1    0    0  501  503 -0.0000000000e+00 -0.0000000000e+00 -9.8718761818e+01 9.8718761818e+01 0.0000000000e+00 0.0000e+00 1.0000e+00
        6  1    1    2  501    0 +1.5374240077e+02 +6.2536042729e+00 +9.1138054049e+01 2.4881916778e+02 1.7300000000e+02 0.0000e+00 1.0000e+00
       -6  1    1    2    0  502 -1.5374240077e+02 -6.2536042729e+00 +6.5428771561e+02 6.9404412551e+02 1.7300000000e+02 0.0000e+00 -1.0000e+00
<mgrwt>
<rscale>  2 0.23152718E+03</rscale>
<asrwt>0</asrwt>
<pdfrwt beam="1">  1       21 0.12986838E+00 0.23152718E+03</pdfrwt>
<pdfrwt beam="2">  1       21 0.15187502E-01 0.23152718E+03</pdfrwt>
<totfact> 0.16212736E+04</totfact>
</mgrwt>
</event>
<event>
 4      2 +5.6305390e+02 2.90708600e+02 7.54677100e-03 1.08998000e-01
       21 -1    0    0  501  502 +0.0000000000e+00 +0.0000000000e+00 +3.0486477815e+02 3.0486477815e+02 0.0000000000e+00 0.0000e+00 -1.0000e+00
       21 -1    0    0  502  503 -0.0000000000e+00 -0.0000000000e+00 -2.7721691093e+02 2.7721691093e+02 0.0000000000e+00 0.0000e+00 -1.0000e+00
        6  1    1    2  501    0 -1.9621388597e+02 -1.2681725090e+02 +1.2349898679e+01 2.9097083045e+02 1.7300000000e+02 0.0000e+00 -1.0000e+00
       -6  1    1    2    0  503 +1.9621388597e+02 +1.2681725090e+02 +1.5297968533e+01 2.9111085863e+02 1.7300000000e+02 0.0000e+00 -1.0000e+00
<mgrwt>
<rscale>  2 0.29070862E+03</rscale>
<asrwt>0</asrwt>
<pdfrwt beam="1">  1       21 0.46902274E-01 0.29070862E+03</pdfrwt>
<pdfrwt beam="2">  1       21 0.42648755E-01 0.29070862E+03</pdfrwt>
<totfact> 0.21928080E+04</totfact>
</mgrwt>
</event>
<event>
 4      3 +5.6305390e+02 8.44078900e+01 7.54677100e-03 1.31698800e-01
        2 -1    0    0  501    0 +0.0000000000e+00 +0.0000000000e+00 +1.2422662938e+03 1.2422662938e+03 0.0000000000e+00 0.0000e+00 -1.0000e+00
       -2 -1    0    0    0  501 -0.0000000000e+00 -0.0000000000e+00 -4.8795118076e+01 4.8795118076e+01 0.0000000000e+00 0.0000e+00 1.0000e+00
       24  1    1    2    0    0 -1.8950915264e+01 +1.7272479175e+01 +1.2031438800e+03 1.2061011100e+03 8.0419002446e+01 0.0000e+00 -1.0000e+00
      -24  1    1    2    0    0 +1.8950915264e+01 -1.7272479175e+01 -9.6727042646e+00 8.4960301838e+01 8.0419002446e+01 0.0000e+00 1.0000e+00
<mgrwt>
<rscale>  0 0.84407889E+02</rscale>
<asrwt>0</asrwt>
<pdfrwt beam="1">  1        2 0.19111787E+00 0.84407889E+02</pdfrwt>
<pdfrwt beam="2">  1       -2 0.75069422E-02 0.84407889E+02</pdfrwt>
<totfact> 0.19602054E+03</totfact>
</mgrwt>
</event>
<event>
 4      2 +5.6305390e+02 2.21979800e+02 7.54677100e-03 1.13241600e-01
       21 -1    0    0  503  502 +0.0000000000e+00 +0.0000000000e+00 +1.2901476015e+02 1.2901476015e+02 0.0000000000e+00 0.0000e+00 1.0000e+00
       21 -1    0    0  501  503 -0.0000000000e+00 -0.0000000000e+00 -1.4240803222e+03 1.4240803222e+03 0.0000000000e+00 0.0000e+00 1.0000e+00
        6  1    1    2  501    0 +1.3899822820e+02 -5.0514343191e+00 -1.3118344080e+03 1.3304828216e+03 1.7300000000e+02 0.0000e+00 1.0000e+00
       -6  1    1    2    0  502 -1.3899822820e+02 +5.0514343191e+00 +1.6768846007e+01 2.2261226073e+02 1.7300000000e+02 0.0000e+00 1.0000e+00
<mgrwt>
<rscale>  2 0.22197978E+03</rscale>
<asrwt>0</asrwt>
<pdfrwt beam="1">  1       21 0.19848425E-01 0.22197978E+03</pdfrwt>
<pdfrwt beam="2">  1       21 0.21908928E+00 0.22197978E+03</pdfrwt>
<totfact> 0.23164472E+03</totfact>
</mgrwt>
</event>
<event>
 4      2 +5.6305390e+02 2.09347800e+02 7.54677100e-03 1.14208400e-01
       21 -1    0    0  501  502 +0.0000000000e+00 +0.0000000000e+00 +4.1223237873e+02 4.1223237873e+02 0.0000000000e+00 0.0000e+00 -1.0000e+00
       21 -1    0    0  502  503 -0.0000000000e+00 -0.0000000000e+00 -2.3005659293e+02 2.3005659293e+02 0.0000000000e+00 0.0000e+00 1.0000e+00
        6  1    1    2  501    0 -2.0126835388e+01 -1.1615677358e+02 +3.2661504342e+02 3.8794828539e+02 1.7300000000e+02 0.0000e+00 -1.0000e+00
       -6  1    1    2    0  503 +2.0126835388e+01 +1.1615677358e+02 -1.4443925762e+02 2.5434068627e+02 1.7300000000e+02 0.0000e+00 1.0000e+00
<mgrwt>
<rscale>  2 0.20934776E+03</rscale>
<asrwt>0</asrwt>
<pdfrwt beam="1">  1       21 0.63420366E-01 0.20934776E+03</pdfrwt>
<pdfrwt beam="2">  1       21 0.35393322E-01 0.20934776E+03</pdfrwt>
<totfact> 0.17515195E+04</totfact>
</mgrwt>
</event>
<event>
 4      2 +5.6305390e+02 2.22293300e+02 7.54677100e-03 1.13218500e-01
       21 -1    0    0  501  502 +0.0000000000e+00 +0.0000000000e+00 +1.4912917917e+02 1.4912917917e+02 0.0000000000e+00 0.0000e+00 -1.0000e+00
       21 -1    0    0  502  503 -0.0000000000e+00 -0.0000000000e+00 -3.3199483298e+02 3.3199483298e+02 0.0000000000e+00 0.0000e+00 1.0000e+00
        6  1    1    2  501    0 +2.3834699770e+01 +1.3753983984e+02 -1.0201561634e+02 2.4458431355e+02 1.7300000000e+02 0.0000e+00 -1.0000e+00
       -6  1    1    2    0  503 -2.3834699770e+01 -1.3753983984e+02 -8.0850037471e+01 2.3653969861e+02 1.7300000000e+02 0.0000e+00 -1.0000e+00
<mgrwt>
<rscale>  2 0.22229328E+03</rscale>
<asrwt>0</asrwt>
<pdfrwt beam="1">  1       21 0.22942951E-01 0.22229328E+03</pdfrwt>
<pdfrwt beam="2">  1       21 0.51076128E-01 0.22229328E+03</pdfrwt>
<totfact> 0.64142997E+04</totfact>
</mgrwt>
</event>
<event>
 4      2 +5.6305390e+02 1.81771800e+02 7.54677100e-03 1.16609900e-01
       21 -1    0    0  503  502 +0.0000000000e+00 +0.0000000000e+00 +1.4785752906e+02 1.4785752906e+02 0.0000000000e+00 0.0000e+00 -1.0000e+00
       21 -1    0    0  501  503 -0.0000000000e+00 -0.0000000000e+00 -2.2915671810e+02 2.2915671810e+02 0.0000000000e+00 0.0000e+00 1.0000e+00
        6  1    1    2  501    0 -6.7294111448e+00 +5.5377791784e+01 -7.0358224706e+01 1.9491347973e+02 1.7300000000e+02 0.0000e+00 1.0000e+00
       -6  1    1    2    0  502 +6.7294111448e+00 -5.5377791784e+01 -1.0940964328e+01 1.8210076743e+02 1.7300000000e+02 0.0000e+00 -1.0000e+00
<mgrwt>
<rscale>  2 0.18177179E+03</rscale>
<asrwt>0</asrwt>
<pdfrwt beam="1">  1       21 0.22747312E-01 0.18177179E+03</pdfrwt>
<pdfrwt beam="2">  1       21 0.35254879E-01 0.18177179E+03</pdfrwt>
<totfact> 0.14108301E+05</totfact>
</mgrwt>
</event>
<event>
 4      2 +5.6305390e+02 1.84056000e+02 7.54677100e-03 1.16393400e-01
       21 -1    0    0  501  502 +0.0000000000e+00 +0.0000000000e+00 +1.0821068639e+03 1.0821068639e+03 0.0000000000e+00 0.0000e+00 -1.0000e+00
       21 -1    0    0  502  503 -0.0000000000e+00 -0.0000000000e+00 -7.7939130247e+01 7.7939130247e+01 0.0000000000e+00 0.0000e+00 -1.0000e+00
        6  1    1    2  501    0 -6.2795038285e+01 +2.0996838577e+00 +9.5074031166e+02 9.6839236146e+02 1.7300000000e+02 0.0000e+00 -1.0000e+00
       -6  1    1    2    0  503 +6.2795038285e+01 -2.0996838577e+00 +5.3427421997e+01 1.9165363270e+02 1.7300000000e+02 0.0000e+00 -1.0000e+00
<mgrwt>
<rscale>  2 0.18405604E+03</rscale>
<asrwt>0</asrwt>
<pdfrwt beam="1">  1       21 0.16647797E+00 0.18405604E+03</pdfrwt>
<pdfrwt beam="2">  1       21 0.11990636E-01 0.18405604E+03</pdfrwt>
<totfact> 0.13365961E+04</totfact>
</mgrwt>
</event>
<event>
 4      3 +5.6305390e+02 1.20579300e+02 7.54677100e-03 1.24214400e-01
       -2 -1    0    0    0  501 -0.0000000000e+00 +0.0000000000e+00 +3.0841103396e+01 3.0841103396e+01 0.0000000000e+00 0.0000e+00 1.0000e+00
        2 -1    0    0  501    0 +0.0000000000e+00 -0.0000000000e+00 -5.9752849299e+02 5.9752849299e+02 0.0000000000e+00 0.0000e+00 -1.0000e+00
       24  1    1    2    0    0 -5.5602644230e+01 +7.0572651817e+01 -1.3901133228e+02 1.8402043280e+02 8.0419002446e+01 0.0000e+00 0.0000e+00
      -24  1    1    2    0    0 +5.5602644230e+01 -7.0572651817e+01 -4.2767605731e+02 4.4434916358e+02 8.0419002446e+01 0.0000e+00 0.0000e+00
<mgrwt>
<rscale>  0 0.12057932E+03</rscale>
<asrwt>0</asrwt>
<pdfrwt beam="1">  1        2 0.91927456E-01 0.12057934E+03</pdfrwt>
<pdfrwt beam="2">  1       -2 0.47447854E-02 0.12057934E+03</pdfrwt>
<totfact> 0.10182144E+04</totfact>
</mgrwt>
</event>
<event>
 4      2 +5.6305390e+02 1.90227100e+02 7.54677100e-03 1.15825700e-01
        2 -1    0    0  502    0 +0.0000000000e+00 +0.0000000000e+00 +1.2685375762e+03 1.2685375762e+03 0.0000000000e+00 0.0000e+00 -1.0000e+00
       -2 -1    0    0    0  501 -0.0000000000e+00 -0.0000000000e+00 -3.6045085334e+01 3.6045085334e+01 0.0000000000e+00 0.0000e+00 1.0000e+00
        6  1    1    2  502    0 +4.7131382372e+01 -6.3529335893e+01 +3.1832590539e+02 3.7083382500e+02 1.7300000000e+02 0.0000e+00 1.0000e+00
       -6  1    1    2    0  501 -4.7131382372e+01 +6.3529335893e+01 +9.1416658544e+02 9.3374883650e+02 1.7300000000e+02 0.0000e+00 -1.0000e+00
<mgrwt>
<rscale>  2 0.19022708E+03</rscale>
<asrwt>0</asrwt>
<pdfrwt beam="1">  1        2 0.19515959E+00 0.19022708E+03</pdfrwt>
<pdfrwt beam="2">  1       -2 0.55453987E-02 0.19022708E+03</pdfrwt>
<totfact> 0.30398984E+03</totfact>
</mgrwt>
</event>
<event>
 4      2 +5.6305390e+02 2.47498300e+02 7.54677100e-03 1.11489600e-01
       21 -1    0    0  503  502 +0.0000000000e+00 +0.0000000000e+00 +1.8662124725e+02 1.8662124725e+02 0.0000000000e+00 0.0000e+00 -1.0000e+00
       21 -1    0    0  501  503 -0.0000000000e+00 -0.0000000000e+00 -9.7652814902e+02 9.7652814902e+02 0.0000000000e+00 0.0000e+00 -1.0000e+00
        6  1    1    2  501    0 +1.7083015411e+02 -4.6297820999e+01 -8.6881250943e+02 9.0337733330e+02 1.7300000000e+02 0.0000e+00 -1.0000e+00
       -6  1    1    2    0  502 -1.7083015411e+02 +4.6297820999e+01 +7.8905607660e+01 2.5977206297e+02 1.7300000000e+02 0.0000e+00 -1.0000e+00
<mgrwt>
<rscale>  2 0.24749834E+03</rscale>
<asrwt>0</asrwt>
<pdfrwt beam="1">  1       21 0.28710961E-01 0.24749834E+03</pdfrwt>
<pdfrwt beam="2">  1       21 0.15023510E+00 0.24749834E+03</pdfrwt>
<totfact> 0.33053261E+03</totfact>
</mgrwt>
</event>
<event>
 4      2 +5.6305390e+02 1.73042700e+02 7.54677100e-03 1.17471100e-01
       21 -1    0    0  503  502 +0.0000000000e+00 +0.0000000000e+00 +5.8415802352e+02 5.8415802352e+02 0.0000000000e+00 0.0000e+00 -1.0000e+00
       21 -1    0    0  501  503 -0.0000000000e+00 -0.0000000000e+00 -1.4379379718e+02 1.4379379718e+02 0.0000000000e+00 0.0000e+00 -1.0000e+00
        6  1    1    2  501    0 +2.9655640570e+00 +2.4485933109e+00 -7.1798058662e+01 1.8734660767e+02 1.7300000000e+02 0.0000e+00 -1.0000e+00
       -6  1    1    2    0  502 -2.9655640570e+00 -2.4485933109e+00 +5.1216228500e+02 5.4060521303e+02 1.7300000000e+02 0.0000e+00 -1.0000e+00
<mgrwt>
<rscale>  2 0.17304274E+03</rscale>
<asrwt>0</asrwt>
<pdfrwt beam="1">  1       21 0.89870464E-01 0.17304274E+03</pdfrwt>
<pdfrwt beam="2">  1       21 0.22122123E-01 0.17304274E+03</pdfrwt>
<totfact> 0.20381863E+04</totfact>
</mgrwt>
</event>
<event>
 4      2 +5.6305390e+02 1.98341400e+02 7.54677100e-03 1.15114600e-01
       21 -1    0    0  503  502 +0.0000000000e+00 +0.0000000000e+00 +1.0681645680e+02 1.0681645680e+02 0.0000000000e+00 0.0000e+00 -1.0000e+00
       21 -1    0    0  501  503 -0.0000000000e+00 -0.0000000000e+00 -3.8009617772e+02 3.8009617772e+02 0.0000000000e+00 0.0000e+00 -1.0000e+00
        6  1    1    2  501    0 -7.9112983885e+01 +5.6137884340e+01 -1.7954875338e+02 2.6753893384e+02 1.7300000000e+02 0.0000e+00 -1.0000e+00
       -6  1    1    2    0  502 +7.9112983885e+01 -5.6137884340e+01 -9.3730967537e+01 2.1937370069e+02 1.7300000000e+02 0.0000e+00 -1.0000e+00
<mgrwt>
<rscale>  2 0.19834144E+03</rscale>
<asrwt>0</asrwt>
<pdfrwt beam="1">  1       21 0.16433301E-01 0.19834144E+03</pdfrwt>
<pdfrwt beam="2">  1       21 0.58476336E-01 0.19834144E+03</pdfrwt>
<totfact> 0.90691896E+04</totfact>
</mgrwt>
</event>
<event>
 4      2 +5.6305390e+02 2.61874000e+02 7.54677100e-03 1.10602300e-01
       21 -1    0    0  501  502 +0.0000000000e+00 +0.0000000000e+00 +2.8487185823e+02 2.8487185823e+02 0.0000000000e+00 0.0000e+00 1.0000e+00
       21 -1    0    0  502  503 -0.0000000000e+00 -0.0000000000e+00 -3.0275262651e+02 3.0275262651e+02 0.0000000000e+00 0.0000e+00 1.0000e+00
        6  1    1    2  501    0 +1.9658807099e+02 +1.4534411983e+00 -1.4192194368e+02 2.9785872531e+02 1.7300000000e+02 0.0000e+00 1.0000e+00
       -6  1    1    2    0  503 -1.9658807099e+02 -1.4534411983e+00 +1.2404117541e+02 2.8976575944e+02 1.7300000000e+02 0.0000e+00 1.0000e+00
<mgrwt>
<rscale>  2 0.26187398E+03</rscale>
<asrwt>0</asrwt>
<pdfrwt beam="1">  1       21 0.43826440E-01 0.26187398E+03</pdfrwt>
<pdfrwt beam="2">  1       21 0.46577327E-01 0.26187398E+03</pdfrwt>
<totfact> 0.21294510E+04</totfact>
</mgrwt>
</event>
<event>
 4      2 +5.6305390e+02 2.90865000e+02 7.54677100e-03 1.08989800e-01
       -3 -1    0    0    0  501 -0.0000000000e+00 +0.0000000000e+00 +5.8592908147e+02 5.8592908147e+02 0.0000000000e+00 0.0000e+00 -1.0000e+00
        3 -1    0    0  502    0 +0.0000000000e+00 -0.0000000000e+00 -1.5322462922e+02 1.5322462922e+02 0.0000000000e+00 0.0000e+00 1.0000e+00
        6  1    1    2  502    0 +1.2432829415e+02 +1.9803004716e+02 +1.2761018197e+02 3.1762679806e+02 1.7300000000e+02 0.0000e+00 -1.0000e+00
       -6  1    1    2    0  501 -1.2432829415e+02 -1.9803004716e+02 +3.0509427029e+02 4.2152691263e+02 1.7300000000e+02 0.0000e+00 -1.0000e+00
<mgrwt>
<rscale>  2 0.29086496E+03</rscale>
<asrwt>0</asrwt>
<pdfrwt beam="1">  1        3 0.23573020E-01 0.29086496E+03</pdfrwt>
<pdfrwt beam="2">  1       -3 0.90142935E-01 0.29086496E+03</pdfrwt>
<totfact> 0.47912746E+01</totfact>
</mgrwt>
</event>
<event>
 4      2 +5.6305390e+02 3.38678500e+02 7.54677100e-03 1.06736000e-01
       21 -1    0    0  503  502 +0.0000000000e+00 +0.0000000000e+00 +2.4693375080e+02 2.4693375080e+02 0.0000000000e+00 0.0000e+00 1.0000e+00
       21 -1    0    0  501  503 -0.0000000000e+00 -0.0000000000e+00 -4.6980670626e+02 4.6980670626e+02 0.0000000000e+00 0.0000e+00 -1.0000e+00
        6  1    1    2  501    0 -2.9106750854e+02 -7.3390177525e+00 -7.3384078214e+01 3.4653770162e+02 1.7300000000e+02 0.0000e+00 1.0000e+00
       -6  1    1    2    0  502 +2.9106750854e+02 +7.3390177525e+00 -1.4948887725e+02 3.7020275544e+02 1.7300000000e+02 0.0000e+00 -1.0000e+00
<mgrwt>
<rscale>  2 0.33867854E+03</rscale>
<asrwt>0</asrwt>
<pdfrwt beam="1">  1       21 0.37989808E-01 0.33867854E+03</pdfrwt>
<pdfrwt beam="2">  1       21 0.72277954E-01 0.33867854E+03</pdfrwt>
<totfact> 0.10691022E+04</totfact>
</mgrwt>
</event>
<event>
 4      3 +5.6305390e+02 8.37882000e+01 7.54677100e-03 1.31863200e-01
       -2 -1    0    0    0  501 -0.0000000000e+00 +0.0000000000e+00 +3.3347440114e+01 3.3347440114e+01 0.0000000000e+00 0.0000e+00 1.0000e+00
        2 -1    0    0  501    0 +0.0000000000e+00 -0.0000000000e+00 -5.3319315574e+02 5.3319315574e+02 0.0000000000e+00 0.0000e+00 -1.0000e+00
       24  1    1    2    0    0 -2.2587762828e+01 -6.5603899530e+00 -4.7028499400e+02 4.7769073393e+02 8.0419002446e+01 0.0000e+00 -1.0000e+00
      -24  1    1    2    0    0 +2.2587762828e+01 +6.5603899530e+00 -2.9560721620e+01 8.8849861919e+01 8.0419002446e+01 0.0000e+00 1.0000e+00
<mgrwt>
<rscale>  0 0.83788195E+02</rscale>
<asrwt>0</asrwt>
<pdfrwt beam="1">  1        2 0.82029711E-01 0.83788195E+02</pdfrwt>
<pdfrwt beam="2">  1       -2 0.51303757E-02 0.83788195E+02</pdfrwt>
<totfact> 0.10005999E+04</totfact>
</mgrwt>
</event>
<event>
 4      2 +5.6305390e+02 1.97320400e+02 7.54677100e-03 1.15202000e-01
       21 -1    0    0  503  502 +0.0000000000e+00 +0.0000000000e+00 +2.7957710199e+02 2.7957710199e+02 0.0000000000e+00 0.0000e+00 -1.0000e+00
       21 -1    0    0  501  503 -0.0000000000e+00 -0.0000000000e+00 -1.9514126402e+02 1.9514126402e+02 0.0000000000e+00 0.0000e+00 -1.0000e+00
        6  1    1    2  501    0 -9.0326308196e+01 +2.9112016152e+01 -8.4794011774e+01 2.1476819101e+02 1.7300000000e+02 0.0000e+00 -1.0000e+00
       -6  1    1    2    0  502 +9.0326308196e+01 -2.9112016152e+01 +1.6922984974e+02 2.5995017500e+02 1.7300000000e+02 0.0000e+00 -1.0000e+00
<mgrwt>
<rscale>  2 0.19732043E+03</rscale>
<asrwt>0</asrwt>
<pdfrwt beam="1">  1       21 0.43011862E-01 0.19732043E+03</pdfrwt>
<pdfrwt beam="2">  1       21 0.30021733E-01 0.19732043E+03</pdfrwt>
<totfact> 0.55190092E+04</totfact>
</mgrwt>
</event>
<event>
 4      2 +5.6305390e+02 2.34042000e+02 7.54677100e-03 1.12382700e-01
       21 -1    0    0  501  502 +0.0000000000e+00 +0.0000000000e+00 +3.7384343555e+02 3.7384343555e+02 0.0000000000e+00 0.0000e+00 -1.0000e+00
       21 -1    0    0  502  503 -0.0000000000e+00 -0.0000000000e+00 -1.7803981921e+02 1.7803981921e+02 0.0000000000e+00 0.0000e+00 -1.0000e+00
        6  1    1    2  501    0 +4.6731785036e+01 -1.5054171896e+02 +2.1400606318e+02 3.1713445722e+02 1.7300000000e+02 0.0000e+00 -1.0000e+00
       -6  1    1    2    0  503 -4.6731785036e+01 +1.5054171896e+02 -1.8202446836e+01 2.3474879755e+02 1.7300000000e+02 0.0000e+00 -1.0000e+00
<mgrwt>
<rscale>  2 0.23404202E+03</rscale>
<asrwt>0</asrwt>
<pdfrwt beam="1">  1       21 0.57514375E-01 0.23404202E+03</pdfrwt>
<pdfrwt beam="2">  1       21 0.27390741E-01 0.23404202E+03</pdfrwt>
<totfact> 0.35321132E+04</totfact>
</mgrwt>
</event>
<event>
 4      2 +5.6305390e+02 2.64074600e+02 7.54677100e-03 1.10472000e-01
       21 -1    0    0  503  502 +0.0000000000e+00 +0.0000000000e+00 +1.3710668909e+03 1.3710668909e+03 0.0000000000e+00 0.0000e+00 1.0000e+00
       21 -1    0    0  501  503 -0.0000000000e+00 -0.0000000000e+00 -8.2393708883e+01 8.2393708883e+01 0.0000000000e+00 0.0000e+00 -1.0000e+00
        6  1    1    2  501    0 +1.2826580599e+02 +1.5282108972e+02 +1.9476485504e+02 3.2812916848e+02 1.7300000000e+02 0.0000e+00 -1.0000e+00
       -6  1    1    2    0  502 -1.2826580599e+02 -1.5282108972e+02 +1.0939083270e+03 1.1253314314e+03 1.7300000000e+02 0.0000e+00 1.0000e+00
<mgrwt>
<rscale>  2 0.26407462E+03</rscale>
<asrwt>0</asrwt>
<pdfrwt beam="1">  1       21 0.21093335E+00 0.26407462E+03</pdfrwt>
<pdfrwt beam="2">  1       21 0.12675956E-01 0.26407462E+03</pdfrwt>
<totfact> 0.57485215E+03</totfact>
</mgrwt>
</event>
<event>
 4      2 +5.6305390e+02 1.84291000e+02 7.54677100e-03 1.16371400e-01
       21 -1    0    0  503  502 +0.0000000000e+00 +0.0000000000e+00 +4.1043489613e+02 4.1043489613e+02 0.0000000000e+00 0.0000e+00 -1.0000e+00
       21 -1    0    0  501  503 -0.0000000000e+00 -0.0000000000e+00 -1.0488237516e+02 1.0488237516e+02 0.0000000000e+00 0.0000e+00 -1.0000e+00
        6  1    1    2  501    0 -6.1697830631e+01 +1.5085248657e+01 +3.4413620379e+01 1.8747662334e+02 1.7300000000e+02 0.0000e+00 1.0000e+00
       -6  1    1    2    0  502 +6.1697830631e+01 -1.5085248657e+01 +2.7113890059e+02 3.2784064795e+02 1.7300000000e+02 0.0000e+00 1.0000e+00
<mgrwt>
<rscale>  2 0.18429104E+03</rscale>
<asrwt>0</asrwt>
<pdfrwt beam="1">  1       21 0.63143829E-01 0.18429104E+03</pdfrwt>
<pdfrwt beam="2">  1       21 0.16135750E-01 0.18429104E+03</pdfrwt>
<totfact> 0.79960747E+04</totfact>
</mgrwt>
</event>
<event>
 4      2 +5.6305390e+02 1.79389200e+02 7.54677100e-03 1.16839500e-01
       21 -1    0    0  501  502 +0.0000000000e+00 +0.0000000000e+00 +6.1049147240e+02 6.1049147240e+02 0.0000000000e+00 0.0000e+00 1.0000e+00
       21 -1    0    0  502  503 -0.0000000000e+00 -0.0000000000e+00 -5.5889940065e+01 5.5889940065e+01 0.0000000000e+00 0.0000e+00 1.0000e+00
        6  1    1    2  501    0 -1.0432978722e+01 +4.6288707568e+01 +1.9785527655e+02 2.6707152965e+02 1.7300000000e+02 0.0000e+00 1.0000e+00
       -6  1    1    2    0  503 +1.0432978722e+01 -4.6288707568e+01 +3.5674625578e+02 3.9930988281e+02 1.7300000000e+02 0.0000e+00 1.0000e+00
<mgrwt>
<rscale>  2 0.17938922E+03</rscale>
<asrwt>0</asrwt>
<pdfrwt beam="1">  1       21 0.93921760E-01 0.17938922E+03</pdfrwt>
<pdfrwt beam="2">  1       21 0.85984527E-02 0.17938922E+03</pdfrwt>
<totfact> 0.10121036E+05</totfact>
</mgrwt>
</event>
<event>
 4      2 +5.6305390e+02 2.16064900e+02 7.54677100e-03 1.13685100e-01
       21 -1    0    0  503  502 +0.0000000000e+00 +0.0000000000e+00 +3.4970299472e+01 3.4970299472e+01 0.0000000000e+00 0.0000e+00 -1.0000e+00
       21 -1    0    0  501  503 -0.0000000000e+00 -0.0000000000e+00 -1.5672037513e+03 1.5672037513e+03 0.0000000000e+00 0.0000e+00 -1.0000e+00
        6  1    1    2  501    0 +1.2565084287e+02 -3.1094883252e+01 -4.5773617662e+02 5.0616838449e+02 1.7300000000e+02 0.0000e+00 1.0000e+00
       -6  1    1    2    0  502 -1.2565084287e+02 +3.1094883252e+01 -1.0744972752e+03 1.0960056663e+03 1.7300000000e+02 0.0000e+00 1.0000e+00
<mgrwt>
<rscale>  2 0.21606487E+03</rscale>
<asrwt>0</asrwt>
<pdfrwt beam="1">  1       21 0.53800459E-02 0.21606487E+03</pdfrwt>
<pdfrwt beam="2">  1       21 0.24110828E+00 0.21606487E+03</pdfrwt>
<totfact> 0.17477501E+04</totfact>
</mgrwt>
</event>
<event>
 4      2 +5.6305390e+02 2.07278000e+02 7.54677100e-03 1.14374000e-01
       21 -1    0    0  501  502 +0.0000000000e+00 +0.0000000000e+00 +1.4478268006e+02 1.4478268006e+02 0.0000000000e+00 0.0000e+00 1.0000e+00
       21 -1    0    0  502  503 -0.0000000000e+00 -0.0000000000e+00 -3.7638816723e+02 3.7638816723e+02 0.0000000000e+00 0.0000e+00 -1.0000e+00
        6  1    1    2  501    0 +1.0778920581e+02 +3.7638240714e+01 -2.3566842064e+02 3.1385307795e+02 1.7300000000e+02 0.0000e+00 -1.0000e+00
       -6  1    1    2    0  503 -1.0778920581e+02 -3.7638240714e+01 +4.0629334717e+00 2.0731776933e+02 1.7300000000e+02 0.0000e+00 -1.0000e+00
<mgrwt>
<rscale>  2 0.20727795E+03</rscale>
<asrwt>0</asrwt>
<pdfrwt beam="1">  1       21 0.22274259E-01 0.20727795E+03</pdfrwt>
<pdfrwt beam="2">  1       21 0.57905871E-01 0.20727795E+03</pdfrwt>
<totfact> 0.52353770E+04</totfact>
</mgrwt>
</event>
<event>
 4      2 +5.6305390e+02 1.91884500e+02 7.54677100e-03 1.15677300e-01
       21 -1    0    0  503  502 +0.0000000000e+00 +0.0000000000e+00 +3.3434331631e+02 3.3434331631e+02 0.0000000000e+00 0.0000e+00 -1.0000e+00
       21 -1    0    0  501  503 -0.0000000000e+00 -0.0000000000e+00 -1.7481931611e+02 1.7481931611e+02 0.0000000000e+00 0.0000e+00 -1.0000e+00
        6  1    1    2  501    0 -3.4880219306e+00 +8.2936625801e+01 -7.5106807178e+01 2.0605990071e+02 1.7300000000e+02 0.0000e+00 -1.0000e+00
       -6  1    1    2    0  502 +3.4880219306e+00 -8.2936625801e+01 +2.3463080738e+02 3.0310273171e+02 1.7300000000e+02 0.0000e+00 -1.0000e+00
<mgrwt>
<rscale>  2 0.19188447E+03</rscale>
<asrwt>0</asrwt>
<pdfrwt beam="1">  1       21 0.51437433E-01 0.19188447E+03</pdfrwt>
<pdfrwt beam="2">  1       21 0.26895279E-01 0.19188447E+03</pdfrwt>
<totfact> 0.47307815E+04</totfact>
</mgrwt>
</event>
<event>
 4      3 +5.6305390e+02 8.45709700e+01 7.54677100e-03 1.31655800e-01
        2 -1    0    0  501    0 +0.0000000000e+00 +0.0000000000e+00 +9.2051602850e+02 9.2051602850e+02 0.0000000000e+00 0.0000e+00 -1.0000e+00
       -2 -1    0    0    0  501 -0.0000000000e+00 -0.0000000000e+00 -7.8590604022e+00 7.8590604022e+00 0.0000000000e+00 0.0000e+00 1.0000e+00
       24  1    1    2    0    0 +2.7165237474e-01 -2.6171642137e+01 +4.0686474543e+02 4.1556126586e+02 8.0419002446e+01 0.0000e+00 0.0000e+00
      -24  1    1    2    0    0 -2.7165237474e-01 +2.6171642137e+01 +5.0579222266e+02 5.1281382304e+02 8.0419002446e+01 0.0000e+00 1.0000e+00
<mgrwt>
<rscale>  0 0.84570955E+02</rscale>
<asrwt>0</asrwt>
<pdfrwt beam="1">  1        2 0.14161777E+00 0.84570965E+02</pdfrwt>
<pdfrwt beam="2">  1       -2 0.12090869E-02 0.84570965E+02</pdfrwt>
<totfact> 0.42636498E+04</totfact>
</mgrwt>
</event>
<event>
 4      2 +5.6305390e+02 1.86523900e+02 7.54677100e-03 1.16163400e-01
       21 -1    0    0  503  502 +0.0000000000e+00 +0.0000000000e+00 +3.5952497041e+02 3.5952497041e+02 0.0000000000e+00 0.0000e+00 -1.0000e+00
       21 -1    0    0  501  503 -0.0000000000e+00 -0.0000000000e+00 -1.1201605901e+02 1.1201605901e+02 0.0000000000e+00 0.0000e+00 -1.0000e+00
        6  1    1    2  501    0 +2.8443861043e+01 +6.3664081812e+01 +2.1073670515e+02 2.8142694868e+02 1.7300000000e+02 0.0000e+00 -1.0000e+00
       -6  1    1    2    0  502 -2.8443861043e+01 -6.3664081812e+01 +3.6772206251e+01 1.9011408074e+02 1.7300000000e+02 0.0000e+00 -1.0000e+00
<mgrwt>
<rscale>  2 0.18652391E+03</rscale>
<asrwt>0</asrwt>
<pdfrwt beam="1">  1       21 0.55311533E-01 0.18652391E+03</pdfrwt>
<pdfrwt beam="2">  1       21 0.17233240E-01 0.18652391E+03</pdfrwt>
<totfact> 0.93993714E+04</totfact>
</mgrwt>
</event>
<event>
 4      2 +5.6305390e+02 2.48264800e+02 7.54677100e-03 1.11440600e-01
       21 -1    0    0  501  502 +0.0000000000e+00 +0.0000000000e+00 +4.6965140097e+01 4.6965140097e+01 0.0000000000e+00 0.0000e+00 1.0000e+00
       21 -1    0    0  502  503 -0.0000000000e+00 -0.0000000000e+00 -1.8355466323e+03 1.8355466323e+03 0.0000000000e+00 0.0000e+00 -1.0000e+00
        6  1    1    2  501    0 +1.7774466242e+02 +1.0640667172e+01 -3.9177301436e+02 4.6381190541e+02 1.7300000000e+02 0.0000e+00 1.0000e+00
       -6  1    1    2    0  503 -1.7774466242e+02 -1.0640667172e+01 -1.3968084778e+03 1.4186998670e+03 1.7300000000e+02 0.0000e+00 -1.0000e+00
<mgrwt>
<rscale>  2 0.24826476E+03</rscale>
<asrwt>0</asrwt>
<pdfrwt beam="1">  1       21 0.72254049E-02 0.24826476E+03</pdfrwt>
<pdfrwt beam="2">  1       21 0.28239184E+00 0.24826476E+03</pdfrwt>
<totfact> 0.58477632E+03</totfact>
</mgrwt>
</event>
<event>
 4      2 +5.6305390e+02 2.12989300e+02 7.54677100e-03 1.13922000e-01
       21 -1    0    0  501  502 +0.0000000000e+00 +0.0000000000e+00 +1.7088534196e+02 1.7088534196e+02 0.0000000000e+00 0.0000e+00 -1.0000e+00
       21 -1    0    0  502  503 -0.0000000000e+00 -0.0000000000e+00 -2.7603312087e+02 2.7603312087e+02 0.0000000000e+00 0.0000e+00 -1.0000e+00
        6  1    1    2  501    0 -1.2396594677e+02 +8.2392274466e+00 -8.8546222709e+00 2.1317327498e+02 1.7300000000e+02 0.0000e+00 -1.0000e+00
       -6  1    1    2    0  503 +1.2396594677e+02 -8.2392274466e+00 -9.6293156636e+01 2.3374518785e+02 1.7300000000e+02 0.0000e+00 -1.0000e+00
<mgrwt>
<rscale>  2 0.21298930E+03</rscale>
<asrwt>0</asrwt>
<pdfrwt beam="1">  1       21 0.26290053E-01 0.21298930E+03</pdfrwt>
<pdfrwt beam="2">  1       21 0.42466633E-01 0.21298930E+03</pdfrwt>
<totfact> 0.72739640E+04</totfact>
</mgrwt>
</event>
<event>
 4      2 +5.6305390e+02 2.28982600e+02 7.54677100e-03 1.12735800e-01
       21 -1    0    0  503  502 +0.0000000000e+00 +0.0000000000e+00 +3.1693782617e+01 3.1693782617e+01 0.0000000000e+00 0.0000e+00 -1.0000e+00
       21 -1    0    0  501  503 -0.0000000000e+00 -0.0000000000e+00 -1.6638194282e+03 1.6638194282e+03 0.0000000000e+00 0.0000e+00 1.0000e+00
        6  1    1    2  501    0 -1.5841381732e+01 -1.4917472859e+02 -8.7997175410e+02 9.0927627102e+02 1.7300000000e+02 0.0000e+00 1.0000e+00
       -6  1    1    2    0  502 +1.5841381732e+01 +1.4917472859e+02 -7.5215389146e+02 7.8623693977e+02 1.7300000000e+02 0.0000e+00 -1.0000e+00
<mgrwt>
<rscale>  2 0.22898264E+03</rscale>
<asrwt>0</asrwt>
<pdfrwt beam="1">  1       21 0.48759672E-02 0.22898264E+03</pdfrwt>
<pdfrwt beam="2">  1       21 0.25597219E+00 0.22898264E+03</pdfrwt>
<totfact> 0.16690830E+04</totfact>
</mgrwt>
</event>
<event>
 4      2 +5.6305390e+02 1.88585900e+02 7.54677100e-03 1.15974300e-01
       21 -1    0    0  501  502 +0.0000000000e+00 +0.0000000000e+00 +5.5097719154e+01 5.5097719154e+01 0.0000000000e+00 0.0000e+00 1.0000e+00
       21 -1    0    0  502  503 -0.0000000000e+00 -0.0000000000e+00 -8.9975778700e+02 8.9975778700e+02 0.0000000000e+00 0.0000e+00 1.0000e+00
        6  1    1    2  501    0 +6.8076584652e+01 +3.1642320361e+01 -1.6852733040e+02 2.5291524056e+02 1.7300000000e+02 0.0000e+00 1.0000e+00
       -6  1    1    2    0  503 -6.8076584652e+01 -3.1642320361e+01 -6.7613273744e+02 7.0194026559e+02 1.7300000000e+02 0.0000e+00 1.0000e+00
<mgrwt>
<rscale>  2 0.18858594E+03</rscale>
<asrwt>0</asrwt>
<pdfrwt beam="1">  1       21 0.84765722E-02 0.18858594E+03</pdfrwt>
<pdfrwt beam="2">  1       21 0.13842427E+00 0.18858594E+03</pdfrwt>
<totfact> 0.40061954E+04</totfact>
</mgrwt>
</event>
<event>
 4      2 +5.6305390e+02 1.80178700e+02 7.54677100e-03 1.16763000e-01
       21 -1    0    0  501  502 +0.0000000000e+00 +0.0000000000e+00 +5.6276893716e+02 5.6276893716e+02 0.0000000000e+00 0.0000e+00 1.0000e+00
       21 -1    0    0  502  503 -0.0000000000e+00 -0.0000000000e+00 -1.2546914072e+02 1.2546914072e+02 0.0000000000e+00 0.0000e+00 1.0000e+00
        6  1    1    2  501    0 +3.4574453724e+01 -3.6605611184e+01 +4.7157875504e+02 5.0482758029e+02 1.7300000000e+02 0.0000e+00 1.0000e+00
       -6  1    1    2    0  503 -3.4574453724e+01 +3.6605611184e+01 -3.4278958602e+01 1.8341049758e+02 1.7300000000e+02 0.0000e+00 1.0000e+00
<mgrwt>
<rscale>  2 0.18017870E+03</rscale>
<asrwt>0</asrwt>
<pdfrwt beam="1">  1       21 0.86579835E-01 0.18017870E+03</pdfrwt>
<pdfrwt beam="2">  1       21 0.19302945E-01 0.18017870E+03</pdfrwt>
<totfact> 0.28529035E+04</totfact>
</mgrwt>
</event>
<event>
 4      2 +5.6305390e+02 2.30049200e+02 7.54677100e-03 1.12660500e-01
       21 -1    0    0  503  502 +0.0000000000e+00 +0.0000000000e+00 +5.0770071031e+02 5.0770071031e+02 0.0000000000e+00 0.0000e+00 -1.0000e+00
       21 -1    0    0  501  503 -0.0000000000e+00 -0.0000000000e+00 -1.3175399154e+02 1.3175399154e+02 0.0000000000e+00 0.0000e+00 1.0000e+00
        6  1    1    2  501    0 +5.8182271484e+01 +1.4003024117e+02 +3.3408199782e+02 4.0562720129e+02 1.7300000000e+02 0.0000e+00 -1.0000e+00
       -6  1    1    2    0  502 -5.8182271484e+01 -1.4003024117e+02 +4.1864720947e+01 2.3382750056e+02 1.7300000000e+02 0.0000e+00 1.0000e+00
<mgrwt>
<rscale>  2 0.23004922E+03</rscale>
<asrwt>0</asrwt>
<pdfrwt beam="1">  1       21 0.78107801E-01 0.23004922E+03</pdfrwt>
<pdfrwt beam="2">  1       21 0.20269845E-01 0.23004922E+03</pdfrwt>
<totfact> 0.32044892E+04</totfact>
</mgrwt>
</event>
<event>
 4      2 +5.6305390e+02 3.10402200e+02 7.54677100e-03 1.08015300e-01
       21 -1    0    0  503  502 +0.0000000000e+00 +0.0000000000e+00 +8.4086286173e+01 8.4086286173e+01 0.0000000000e+00 0.0000e+00 -1.0000e+00
       21 -1    0    0  501  503 -0.0000000000e+00 -0.0000000000e+00 -1.2434946087e+03 1.2434946087e+03 0.0000000000e+00 0.0000e+00 1.0000e+00
        6  1    1    2  501    0 +2.0541951030e+02 -1.5563855761e+02 -7.6572115544e+02 8.2624356198e+02 1.7300000000e+02 0.0000e+00 -1.0000e+00
       -6  1    1    2    0  502 -2.0541951030e+02 +1.5563855761e+02 -3.9368716710e+02 5.0133733290e+02 1.7300000000e+02 0.0000e+00 -1.0000e+00
<mgrwt>
<rscale>  2 0.31040222E+03</rscale>
<asrwt>0</asrwt>
<pdfrwt beam="1">  1       21 0.12936352E-01 0.31040222E+03</pdfrwt>
<pdfrwt beam="2">  1       21 0.19130685E+00 0.31040222E+03</pdfrwt>
<totfact> 0.72332814E+03</totfact>
</mgrwt>
</event>
<event>
 4      2 +5.6305390e+02 2.15633100e+02 7.54677100e-03 1.13718100e-01
       21 -1    0    0  501  502 +0.0000000000e+00 +0.0000000000e+00 +9.6244883570e+01 9.6244883570e+01 0.0000000000e+00 0.0000e+00 -1.0000e+00
       21 -1    0    0  502  503 -0.0000000000e+00 -0.0000000000e+00 -4.9237603234e+02 4.9237603234e+02 0.0000000000e+00 0.0000e+00 -1.0000e+00
        6  1    1    2  501    0 +1.1268901065e+02 -6.2207968584e+01 -2.3842216234e+02 3.2146970615e+02 1.7300000000e+02 0.0000e+00 -1.0000e+00
       -6  1    1    2    0  503 -1.1268901065e+02 +6.2207968584e+01 -1.5770898642e+02 2.6715120976e+02 1.7300000000e+02 0.0000e+00 -1.0000e+00
<mgrwt>
<rscale>  2 0.21563312E+03</rscale>
<asrwt>0</asrwt>
<pdfrwt beam="1">  1       21 0.14806905E-01 0.21563312E+03</pdfrwt>
<pdfrwt beam="2">  1       21 0.75750159E-01 0.21563312E+03</pdfrwt>
<totfact> 0.61792313E+04</totfact>
</mgrwt>
</event>
<event>
 4      2 +5.6305390e+02 2.03568900e+02 7.54677100e-03 1.14676200e-01
       21 -1    0    0  503  502 +0.0000000000e+00 +0.0000000000e+00 +2.1726706374e+02 2.1726706374e+02 0.0000000000e+00 0.0000e+00 -1.0000e+00
       21 -1    0    0  501  503 -0.0000000000e+00 -0.0000000000e+00 -4.1243007580e+02 4.1243007580e+02 0.0000000000e+00 0.0000e+00 1.0000e+00
        6  1    1    2  501    0 -4.7501765975e+01 +9.6202350529e+01 -3.2841835667e+02 3.8639219326e+02 1.7300000000e+02 0.0000e+00 1.0000e+00
       -6  1    1    2    0  502 +4.7501765975e+01 -9.6202350529e+01 +1.3325534460e+02 2.4330494628e+02 1.7300000000e+02 0.0000e+00 -1.0000e+00
<mgrwt>
<rscale>  2 0.20356893E+03</rscale>
<asrwt>0</asrwt>
<pdfrwt beam="1">  1       21 0.33425702E-01 0.20356893E+03</pdfrwt>
<pdfrwt beam="2">  1       21 0.63450781E-01 0.20356893E+03</pdfrwt>
<totfact> 0.19667241E+04</totfact>
</mgrwt>
</event>
<event>
 4      2 +5.6305390e+02 2.55233500e+02 7.54677100e-03 1.11004100e-01
       21 -1    0    0  501  502 +0.0000000000e+00 +0.0000000000e+00 +2.7994376316e+02 2.7994376316e+02 0.0000000000e+00 0.0000e+00 1.0000e+00
       21 -1    0    0  502  503 -0.0000000000e+00 -0.0000000000e+00 -2.3270903546e+02 2.3270903546e+02 0.0000000000e+00 0.0000e+00 -1.0000e+00
        6  1    1    2  501    0 -1.6673584207e+02 +8.6106366506e+01 +2.4760524614e+01 2.5643172768e+02 1.7300000000e+02 0.0000e+00 -1.0000e+00
       -6  1    1    2    0  503 +1.6673584207e+02 -8.6106366506e+01 +2.2474203087e+01 2.5622107093e+02 1.7300000000e+02 0.0000e+00 1.0000e+00
<mgrwt>
<rscale>  2 0.25523352E+03</rscale>
<asrwt>0</asrwt>
<pdfrwt beam="1">  1       21 0.43068271E-01 0.25523352E+03</pdfrwt>
<pdfrwt beam="2">  1       21 0.35801390E-01 0.25523352E+03</pdfrwt>
<totfact> 0.37872119E+04</totfact>
</mgrwt>
</event>
<event>
 4      2 +5.6305390e+02 2.68182600e+02 7.54677100e-03 1.10232400e-01
       21 -1    0    0  501  502 +0.0000000000e+00 +0.0000000000e+00 +3.7535322332e+02 3.7535322332e+02 0.0000000000e+00 0.0000e+00 1.0000e+00
       21 -1    0    0  502  503 -0.0000000000e+00 -0.0000000000e+00 -2.9985869374e+02 2.9985869374e+02 0.0000000000e+00 0.0000e+00 -1.0000e+00
        6  1    1    2  501    0 -1.8201533908e+02 +9.4145349155e+01 +2.4059046064e+02 3.6028558142e+02 1.7300000000e+02 0.0000e+00 1.0000e+00
       -6  1    1    2    0  503 +1.8201533908e+02 -9.4145349155e+01 -1.6509593106e+02 3.1492633564e+02 1.7300000000e+02 0.0000e+00 -1.0000e+00
<mgrwt>
<rscale>  2 0.26818264E+03</rscale>
<asrwt>0</asrwt>
<pdfrwt beam="1">  1       21 0.57746650E-01 0.26818264E+03</pdfrwt>
<pdfrwt beam="2">  1       21 0.46132107E-01 0.26818264E+03</pdfrwt>
<totfact> 0.12121891E+04</totfact>
</mgrwt>
</event>
<event>
 4      2 +5.6305390e+02 1.73227800e+02 7.54677100e-03 1.17452300e-01
        2 -1    0    0  502    0 +0.0000000000e+00 +0.0000000000e+00 +2.1153922138e+03 2.1153922138e+03 0.0000000000e+00 0.0000e+00 1.0000e+00
       -2 -1    0    0    0  501 -0.0000000000e+00 -0.0000000000e+00 -2.3508718686e+01 2.3508718686e+01 0.0000000000e+00 0.0000e+00 -1.0000e+00
        6  1    1    2  502    0 +8.6648019432e+00 -1.9496192926e+00 +3.7245460169e+02 4.1076795168e+02 1.7300000000e+02 0.0000e+00 -1.0000e+00
       -6  1    1    2    0  501 -8.6648019432e+00 +1.9496192926e+00 +1.7194288935e+03 1.7281329808e+03 1.7300000000e+02 0.0000e+00 1.0000e+00
<mgrwt>
<rscale>  2 0.17322783E+03</rscale>
<asrwt>0</asrwt>
<pdfrwt beam="1">  1        2 0.32544481E+00 0.17322783E+03</pdfrwt>
<pdfrwt beam="2">  1       -2 0.36167276E-02 0.17322783E+03</pdfrwt>
<totfact> 0.20800500E+03</totfact>
</mgrwt>
</event>
<event>
 4      2 +5.6305390e+02 1.96362100e+02 7.54677100e-03 1.15284500e-01
        2 -1    0    0  502    0 +0.0000000000e+00 +0.0000000000e+00 +8.6931170577e+02 8.6931170577e+02 0.0000000000e+00 0.0000e+00 1.0000e+00
       -2 -1    0    0    0  501 -0.0000000000e+00 -0.0000000000e+00 -4.7171640448e+01 4.7171640448e+01 0.0000000000e+00 0.0000e+00 -1.0000e+00
        6  1    1    2  502    0 -1.4025602730e+00 -9.2882179044e+01 +2.9908954519e+02 3.5778851630e+02 1.7300000000e+02 0.0000e+00 -1.0000e+00
       -6  1    1    2    0  501 +1.4025602730e+00 +9.2882179044e+01 +5.2305052014e+02 5.5869482992e+02 1.7300000000e+02 0.0000e+00 1.0000e+00
<mgrwt>
<rscale>  2 0.19636208E+03</rscale>
<asrwt>0</asrwt>
<pdfrwt beam="1">  1        2 0.13374025E+00 0.19636208E+03</pdfrwt>
<pdfrwt beam="2">  1       -2 0.72571761E-02 0.19636208E+03</pdfrwt>
<totfact> 0.34716022E+03</totfact>
</mgrwt>
</event>
<event>
 4      2 +5.6305390e+02 1.85314600e+02 7.54677100e-03 1.16275600e-01
       21 -1    0    0  501  502 +0.0000000000e+00 +0.0000000000e+00 +8.5367649342e+02 8.5367649342e+02 0.0000000000e+00 0.0000e+00 -1.0000e+00
       21 -1    0    0  502  503 -0.0000000000e+00 -0.0000000000e+00 -1.0919571341e+02 1.0919571341e+02 0.0000000000e+00 0.0000e+00 -1.0000e+00
        6  1    1    2  501    0 -5.2984717633e+01 -4.0064143491e+01 -1.0372366578e+01 1.8560469252e+02 1.7300000000e+02 0.0000e+00 -1.0000e+00
       -6  1    1    2    0  503 +5.2984717633e+01 +4.0064143491e+01 +7.5485314658e+02 7.7726751431e+02 1.7300000000e+02 0.0000e+00 -1.0000e+00
<mgrwt>
<rscale>  2 0.18531464E+03</rscale>
<asrwt>0</asrwt>
<pdfrwt beam="1">  1       21 0.13133484E+00 0.18531464E+03</pdfrwt>
<pdfrwt beam="2">  1       21 0.16799341E-01 0.18531464E+03</pdfrwt>
<totfact> 0.13500394E+04</totfact>
</mgrwt>
</event>
<event>
 4      2 +5.6305390e+02 1.73855300e+02 7.54677100e-03 1.17388600e-01
       -2 -1    0    0    0  501 -0.0000000000e+00 +0.0000000000e+00 +2.6805102264e+01 2.6805102264e+01 0.0000000000e+00 0.0000e+00 -1.0000e+00
        2 -1    0    0  502    0 +0.0000000000e+00 -0.0000000000e+00 -1.1880118273e+03 1.1880118273e+03 0.0000000000e+00 0.0000e+00 1.0000e+00
        6  1    1    2  502    0 -1.6234010442e+01 -5.7551381975e+00 -4.4364126068e+02 4.7649053809e+02 1.7300000000e+02 0.0000e+00 -1.0000e+00
       -6  1    1    2    0  501 +1.6234010442e+01 +5.7551381975e+00 -7.1756546435e+02 7.3832639147e+02 1.7300000000e+02 0.0000e+00 1.0000e+00
<mgrwt>
<rscale>  2 0.17385530E+03</rscale>
<asrwt>0</asrwt>
<pdfrwt beam="1">  1        2 0.18277103E+00 0.17385530E+03</pdfrwt>
<pdfrwt beam="2">  1       -2 0.41238625E-02 0.17385530E+03</pdfrwt>
<totfact> 0.52596089E+03</totfact>
</mgrwt>
</event>
<event>
 4      2 +5.6305390e+02 2.07299200e+02 7.54677100e-03 1.14372300e-01
       21 -1    0    0  501  502 +0.0000000000e+00 +0.0000000000e+00 +9.0852587997e+02 9.0852587997e+02 0.0000000000e+00 0.0000e+00 -1.0000e+00
       21 -1    0    0  502  503 -0.0000000000e+00 -0.0000000000e+00 -3.2619829178e+02 3.2619829178e+02 0.0000000000e+00 0.0000e+00 1.0000e+00
        6  1    1    2  501    0 -5.6594633698e+00 +1.1406981092e+02 +8.6201420392e+02 8.8658978059e+02 1.7300000000e+02 0.0000e+00 -1.0000e+00
       -6  1    1    2    0  503 +5.6594633698e+00 -1.1406981092e+02 -2.7968661574e+02 3.4813439116e+02 1.7300000000e+02 0.0000e+00 1.0000e+00
<mgrwt>
<rscale>  2 0.20729918E+03</rscale>
<asrwt>0</asrwt>
<pdfrwt beam="1">  1       21 0.13977321E+00 0.20729918E+03</pdfrwt>
<pdfrwt beam="2">  1       21 0.50184353E-01 0.20729918E+03</pdfrwt>
<totfact> 0.13393834E+03</totfact>
</mgrwt>
</event>
<event>
 4      2 +5.6305390e+02 2.15463300e+02 7.54677100e-03 1.13731100e-01
       21 -1    0    0  503  502 +0.0000000000e+00 +0.0000000000e+00 +3.1465249967e+02 3.1465249967e+02 0.0000000000e+00 0.0000e+00 -1.0000e+00
       21 -1    0    0  501  503 -0.0000000000e+00 -0.0000000000e+00 -2.1388761891e+02 2.1388761891e+02 0.0000000000e+00 0.0000e+00 -1.0000e+00
        6  1    1    2  501    0 -1.4306540050e+01 -1.2763520879e+02 -9.6801909329e+01 2.3620972304e+02 1.7300000000e+02 0.0000e+00 -1.0000e+00
       -6  1    1    2    0  502 +1.4306540050e+01 +1.2763520879e+02 +1.9756679009e+02 2.9233039554e+02 1.7300000000e+02 0.0000e+00 -1.0000e+00
<mgrwt>
<rscale>  2 0.21546328E+03</rscale>
<asrwt>0</asrwt>
<pdfrwt beam="1">  1       21 0.48408077E-01 0.21546328E+03</pdfrwt>
<pdfrwt beam="2">  1       21 0.32905788E-01 0.21546328E+03</pdfrwt>
<totfact> 0.35809622E+04</totfact>
</mgrwt>
</event>
<event>
 4      2 +5.6305390e+02 3.73033800e+02 7.54677100e-03 1.05353900e-01
       21 -1    0    0  501  502 +0.0000000000e+00 +0.0000000000e+00 +8.1099126486e+02 8.1099126486e+02 0.0000000000e+00 0.0000e+00 -1.0000e+00
       21 -1    0    0  502  503 -0.0000000000e+00 -0.0000000000e+00 -1.7165637974e+02 1.7165637974e+02 0.0000000000e+00 0.0000e+00 1.0000e+00
        6  1    1    2  501    0 -2.3209055002e+02 +2.3528535246e+02 +3.2966183090e+02 4.9782641878e+02 1.7300000000e+02 0.0000e+00 1.0000e+00
       -6  1    1    2    0  503 +2.3209055002e+02 -2.3528535246e+02 +3.0967305423e+02 4.8482122582e+02 1.7300000000e+02 0.0000e+00 -1.0000e+00
<mgrwt>
<rscale>  2 0.37303381E+03</rscale>
<asrwt>0</asrwt>
<pdfrwt beam="1">  1       21 0.12476788E+00 0.37303381E+03</pdfrwt>
<pdfrwt beam="2">  1       21 0.26408674E-01 0.37303381E+03</pdfrwt>
<totfact> 0.59014633E+03</totfact>
</mgrwt>
</event>
<event>
 4      2 +5.6305390e+02 1.73499200e+02 7.54677100e-03 1.17424700e-01
       21 -1    0    0  501  502 +0.0000000000e+00 +0.0000000000e+00 +1.3376195370e+02 1.3376195370e+02 0.0000000000e+00 0.0000e+00 1.0000e+00
       21 -1    0    0  502  503 -0.0000000000e+00 -0.0000000000e+00 -2.4966171643e+02 2.4966171643e+02 0.0000000000e+00 0.0000e+00 1.0000e+00
        6  1    1    2  501    0 -1.1875273543e+01 +5.6536597041e+00 +2.2532654397e+00 1.7351387032e+02 1.7300000000e+02 0.0000e+00 1.0000e+00
       -6  1    1    2    0  503 +1.1875273543e+01 -5.6536597041e+00 -1.1815302817e+02 2.0990979981e+02 1.7300000000e+02 0.0000e+00 1.0000e+00
<mgrwt>
<rscale>  2 0.17349924E+03</rscale>
<asrwt>0</asrwt>
<pdfrwt beam="1">  1       21 0.20578762E-01 0.17349924E+03</pdfrwt>
<pdfrwt beam="2">  1       21 0.38409495E-01 0.17349924E+03</pdfrwt>
<totfact> 0.14395332E+05</totfact>
</mgrwt>
</event>
<event>
 4      2 +5.6305390e+02 2.19662300e+02 7.54677100e-03 1.13413500e-01
       21 -1    0    0  501  502 +0.0000000000e+00 +0.0000000000e+00 +7.7948705574e+01 7.7948705574e+01 0.0000000000e+00 0.0000e+00 -1.0000e+00
       21 -1    0    0  502  503 -0.0000000000e+00 -0.0000000000e+00 -6.2951402285e+02 6.2951402285e+02 0.0000000000e+00 0.0000e+00 1.0000e+00
        6  1    1    2  501    0 -1.3081155392e+02 +3.4797632098e+01 -3.2146133391e+02 3.8934422692e+02 1.7300000000e+02 0.0000e+00 -1.0000e+00
       -6  1    1    2    0  503 +1.3081155392e+02 -3.4797632098e+01 -2.3010398337e+02 3.1811850151e+02 1.7300000000e+02 0.0000e+00 -1.0000e+00
<mgrwt>
<rscale>  2 0.21966233E+03</rscale>
<asrwt>0</asrwt>
<pdfrwt beam="1">  1       21 0.11992109E-01 0.21966233E+03</pdfrwt>
<pdfrwt beam="2">  1       21 0.96848310E-01 0.21966233E+03</pdfrwt>
<totfact> 0.51329565E+04</totfact>
</mgrwt>
</event>
<event>
 4      2 +5.6305390e+02 2.06501200e+02 7.54677100e-03 1.14436700e-01
       21 -1    0    0  501  502 +0.0000000000e+00 +0.0000000000e+00 +2.3143394149e+02 2.3143394149e+02 0.0000000000e+00 0.0000e+00 1.0000e+00
       21 -1    0    0  502  503 -0.0000000000e+00 -0.0000000000e+00 -1.9313888167e+02 1.9313888167e+02 0.0000000000e+00 0.0000e+00 1.0000e+00
        6  1    1    2  501    0 -1.0774830192e+02 -3.3227306178e+01 +6.4677816793e+01 2.1639309238e+02 1.7300000000e+02 0.0000e+00 1.0000e+00
       -6  1    1    2    0  503 +1.0774830192e+02 +3.3227306178e+01 -2.6382756971e+01 2.0817973078e+02 1.7300000000e+02 0.0000e+00 1.0000e+00
<mgrwt>
<rscale>  2 0.20650121E+03</rscale>
<asrwt>0</asrwt>
<pdfrwt beam="1">  1       21 0.35605222E-01 0.20650121E+03</pdfrwt>
<pdfrwt beam="2">  1       21 0.29713674E-01 0.20650121E+03</pdfrwt>
<totfact> 0.82092790E+04</totfact>
</mgrwt>
</event>
<event>
 4      2 +5.6305390e+02 2.17546200e+02 7.54677100e-03 1.13572600e-01
        1 -1    0    0  502    0 +0.0000000000e+00 +0.0000000000e+00 +1.7129236121e+02 1.7129236121e+02 0.0000000000e+00 0.0000e+00 1.0000e+00
       -1 -1    0    0    0  501 -0.0000000000e+00 -0.0000000000e+00 -2.8332327966e+02 2.8332327966e+02 0.0000000000e+00 0.0000e+00 -1.0000e+00
        6  1    1    2  502    0 +1.1400587037e+02 +6.6332436630e+01 -9.1829939445e+01 2.3613358170e+02 1.7300000000e+02 0.0000e+00 -1.0000e+00
       -6  1    1    2    0  501 -1.1400587037e+02 -6.6332436630e+01 -2.0200979006e+01 2.1848205917e+02 1.7300000000e+02 0.0000e+00 -1.0000e+00
<mgrwt>
<rscale>  2 0.21754616E+03</rscale>
<asrwt>0</asrwt>
<pdfrwt beam="1">  1        1 0.26352671E-01 0.21754616E+03</pdfrwt>
<pdfrwt beam="2">  1       -1 0.43588197E-01 0.21754616E+03</pdfrwt>
<totfact> 0.94405020E+02</totfact>
</mgrwt>
</event>
<event>
 4      3 +5.6305390e+02 1.06957700e+02 7.54677100e-03 1.26631000e-01
        1 -1    0    0  501    0 +0.0000000000e+00 +0.0000000000e+00 +7.5996976481e+01 7.5996976481e+01 0.0000000000e+00 0.0000e+00 -1.0000e+00
       -1 -1    0    0    0  501 -0.0000000000e+00 -0.0000000000e+00 -1.6024998154e+02 1.6024998154e+02 0.0000000000e+00 0.0000e+00 1.0000e+00
       24  1    1    2    0    0 -7.0357038981e+01 +4.7557842759e+00 -1.3037137918e+01 1.0774930783e+02 8.0419002446e+01 0.0000e+00 0.0000e+00
      -24  1    1    2    0    0 +7.0357038981e+01 -4.7557842759e+00 -7.1215867146e+01 1.2849765020e+02 8.0419002446e+01 0.0000e+00 0.0000e+00
<mgrwt>
<rscale>  0 0.10695770E+03</rscale>
<asrwt>0</asrwt>
<pdfrwt beam="1">  1        1 0.11691843E-01 0.10695771E+03</pdfrwt>
<pdfrwt beam="2">  1       -1 0.24653843E-01 0.10695771E+03</pdfrwt>
<totfact> 0.68854500E+03</totfact>
</mgrwt>
</event>
<event>
 4      2 +5.6305390e+02 2.66694000e+02 7.54677100e-03 1.10318700e-01
       21 -1    0    0  503  502 +0.0000000000e+00 +0.0000000000e+00 +8.7797618798e+02 8.7797618798e+02 0.0000000000e+00 0.0000e+00 1.0000e+00
       21 -1    0    0  501  503 -0.0000000000e+00 -0.0000000000e+00 -1.7112469782e+02 1.7112469782e+02 0.0000000000e+00 0.0000e+00 -1.0000e+00
        6  1    1    2  501    0 -1.6597981485e+02 -1.1682212761e+02 -2.7224727182e+01 2.6808001456e+02 1.7300000000e+02 0.0000e+00 -1.0000e+00
       -6  1    1    2    0  502 +1.6597981485e+02 +1.1682212761e+02 +7.3407621734e+02 7.8102087124e+02 1.7300000000e+02 0.0000e+00 1.0000e+00
<mgrwt>
<rscale>  2 0.26669404E+03</rscale>
<asrwt>0</asrwt>
<pdfrwt beam="1">  1       21 0.13507326E+00 0.26669404E+03</pdfrwt>
<pdfrwt beam="2">  1       21 0.26326877E-01 0.26669404E+03</pdfrwt>
<totfact> 0.51054344E+03</totfact>
</mgrwt>
</event>
<event>
 4      2 +5.6305390e+02 1.94362800e+02 7.54677100e-03 1.15458400e-01
       21 -1    0    0  503  502 +0.0000000000e+00 +0.0000000000e+00 +1.6190738558e+02 1.6190738558e+02 0.0000000000e+00 0.0000e+00 -1.0000e+00
       21 -1    0    0  501  503 -0.0000000000e+00 -0.0000000000e+00 -2.3333614952e+02 2.3333614952e+02 0.0000000000e+00 0.0000e+00 -1.0000e+00
        6  1    1    2  501    0 -3.7943502262e+01 -8.0051156272e+01 -3.4294963474e+01 1.9736524898e+02 1.7300000000e+02 0.0000e+00 -1.0000e+00
       -6  1    1    2    0  502 +3.7943502262e+01 +8.0051156272e+01 -3.7133800467e+01 1.9787828613e+02 1.7300000000e+02 0.0000e+00 -1.0000e+00
<mgrwt>
<rscale>  2 0.19436280E+03</rscale>
<asrwt>0</asrwt>
<pdfrwt beam="1">  1       21 0.24908829E-01 0.19436280E+03</pdfrwt>
<pdfrwt beam="2">  1       21 0.35897869E-01 0.19436280E+03</pdfrwt>
<totfact> 0.11406695E+05</totfact>
</mgrwt>
</event>
<event>
 4      2 +5.6305390e+02 4.07034900e+02 7.54677100e-03 1.04137100e-01
       21 -1    0    0  501  502 +0.0000000000e+00 +0.0000000000e+00 +5.1195890963e+02 5.1195890963e+02 0.0000000000e+00 0.0000e+00 -1.0000e+00
       21 -1    0    0  502  503 -0.0000000000e+00 -0.0000000000e+00 -4.2779707187e+02 4.2779707187e+02 0.0000000000e+00 0.0000e+00 -1.0000e+00
        6  1    1    2  501    0 -3.1073872848e+02 +1.9796426905e+02 +2.7396097664e+02 4.9064450055e+02 1.7300000000e+02 0.0000e+00 -1.0000e+00
       -6  1    1    2    0  503 +3.1073872848e+02 -1.9796426905e+02 -1.8979913888e+02 4.4911148094e+02 1.7300000000e+02 0.0000e+00 -1.0000e+00
<mgrwt>
<rscale>  2 0.40703490E+03</rscale>
<asrwt>0</asrwt>
<pdfrwt beam="1">  1       21 0.78762909E-01 0.40703490E+03</pdfrwt>
<pdfrwt beam="2">  1       21 0.65814934E-01 0.40703490E+03</pdfrwt>
<totfact> 0.26670312E+03</totfact>
</mgrwt>
</event>
<event>
 4      2 +5.6305390e+02 2.13737300e+02 7.54677100e-03 1.13864000e-01
       21 -1    0    0  501  502 +0.0000000000e+00 +0.0000000000e+00 +5.0258942185e+02 5.0258942185e+02 0.0000000000e+00 0.0000e+00 -1.0000e+00
       21 -1    0    0  502  503 -0.0000000000e+00 -0.0000000000e+00 -9.1012402573e+01 9.1012402573e+01 0.0000000000e+00 0.0000e+00 1.0000e+00
        6  1    1    2  501    0 +7.9486128247e+01 -9.7142196600e+01 +2.1637723780e+02 3.0414266387e+02 1.7300000000e+02 0.0000e+00 1.0000e+00
       -6  1    1    2    0  503 -7.9486128247e+01 +9.7142196600e+01 +1.9519978148e+02 2.8945916056e+02 1.7300000000e+02 0.0000e+00 -1.0000e+00
<mgrwt>
<rscale>  2 0.21373734E+03</rscale>
<asrwt>0</asrwt>
<pdfrwt beam="1">  1       21 0.77321448E-01 0.21373734E+03</pdfrwt>
<pdfrwt beam="2">  1       21 0.14001908E-01 0.21373734E+03</pdfrwt>
<totfact> 0.65377989E+04</totfact>
</mgrwt>
</event>
<event>
 4      2 +5.6305390e+02 2.29446400e+02 7.54677100e-03 1.12703000e-01
       21 -1    0    0  501  502 +0.0000000000e+00 +0.0000000000e+00 +9.5177450827e+01 9.5177450827e+01 0.0000000000e+00 0.0000e+00 -1.0000e+00
       21 -1    0    0  502  503 -0.0000000000e+00 -0.0000000000e+00 -6.2569528803e+02 6.2569528803e+02 0.0000000000e+00 0.0000e+00 1.0000e+00
        6  1    1    2  501    0 -7.3032879617e+01 +1.3184408099e+02 -1.4251312981e+02 2.7010304583e+02 1.7300000000e+02 0.0000e+00 -1.0000e+00
       -6  1    1    2    0  503 +7.3032879617e+01 -1.3184408099e+02 -3.8800470739e+02 4.5076969303e+02 1.7300000000e+02 0.0000e+00 -1.0000e+00
<mgrwt>
<rscale>  2 0.22944643E+03</rscale>
<asrwt>0</asrwt>
<pdfrwt beam="1">  1       21 0.14642684E-01 0.22944643E+03</pdfrwt>
<pdfrwt beam="2">  1       21 0.96260817E-01 0.22944643E+03</pdfrwt>
<totfact> 0.36111902E+04</totfact>
</mgrwt>
</event>
<event>
 4      3 +5.6305390e+02 8.80688000e+01 7.54677100e-03 1.30759700e-01
       -2 -1    0    0    0  501 -0.0000000000e+00 +0.0000000000e+00 +1.0762269675e+02 1.0762269675e+02 0.0000000000e+00 0.0000e+00 1.0000e+00
        2 -1    0    0  501    0 +0.0000000000e+00 -0.0000000000e+00 -7.5206473974e+01 7.5206473974e+01 0.0000000000e+00 0.0000e+00 -1.0000e+00
       24  1    1    2    0    0 -1.6728305054e+00 +3.5862215705e+01 -2.4674064314e+00 8.8103353659e+01 8.0419002446e+01 0.0000e+00 -1.0000e+00
      -24  1    1    2    0    0 +1.6728305054e+00 -3.5862215705e+01 +3.4883629204e+01 9.4725817062e+01 8.0419002446e+01 0.0000e+00 1.0000e+00
<mgrwt>
<rscale>  0 0.88068796E+02</rscale>
<asrwt>0</asrwt>
<pdfrwt beam="1">  1        2 0.11570227E-01 0.88068796E+02</pdfrwt>
<pdfrwt beam="2">  1       -2 0.16557338E-01 0.88068796E+02</pdfrwt>
<totfact> 0.13837807E+04</totfact>
</mgrwt>
</event>
<event>
 4      2 +5.6305390e+02 2.18557500e+02 7.54677100e-03 1.13496300e-01
       21 -1    0    0  503  502 +0.0000000000e+00 +0.0000000000e+00 +1.3199069816e+03 1.3199069816e+03 0.0000000000e+00 0.0000e+00 1.0000e+00
       21 -1    0    0  501  503 -0.0000000000e+00 -0.0000000000e+00 -3.8609438618e+01 3.8609438618e+01 0.0000000000e+00 0.0000e+00 1.0000e+00
        6  1    1    2  501    0 -6.0661283453e+01 +1.1898991905e+02 +4.7060987407e+02 5.1888442424e+02 1.7300000000e+02 0.0000e+00 1.0000e+00
       -6  1    1    2    0  502 +6.0661283453e+01 -1.1898991905e+02 +8.1068766892e+02 8.3963199599e+02 1.7300000000e+02 0.0000e+00 1.0000e+00
<mgrwt>
<rscale>  2 0.21855753E+03</rscale>
<asrwt>0</asrwt>
<pdfrwt beam="1">  1       21 0.20306258E+00 0.21855753E+03</pdfrwt>
<pdfrwt beam="2">  1       21 0.59399146E-02 0.21855753E+03</pdfrwt>
<totfact> 0.25274720E+04</totfact>
</mgrwt>
</event>
<event>
 4      2 +5.6305390e+02 2.40179800e+02 7.54677100e-03 1.11967300e-01
       21 -1    0    0  501  502 +0.0000000000e+00 +0.0000000000e+00 +8.5899123758e+02 8.5899123758e+02 0.0000000000e+00 0.0000e+00 1.0000e+00
       21 -1    0    0  502  503 -0.0000000000e+00 -0.0000000000e+00 -6.8594117171e+01 6.8594117171e+01 0.0000000000e+00 0.0000e+00 -1.0000e+00
        6  1    1    2  501    0 +1.4760788629e+02 +7.7260817052e+01 +3.2804113439e+02 4.0656771613e+02 1.7300000000e+02 0.0000e+00 -1.0000e+00
       -6  1    1    2    0  503 -1.4760788629e+02 -7.7260817052e+01 +4.6235598601e+02 5.2101763862e+02 1.7300000000e+02 0.0000e+00 1.0000e+00
<mgrwt>
<rscale>  2 0.24017977E+03</rscale>
<asrwt>0</asrwt>
<pdfrwt beam="1">  1       21 0.13215249E+00 0.24017977E+03</pdfrwt>
<pdfrwt beam="2">  1       21 0.10552942E-01 0.24017977E+03</pdfrwt>
<totfact> 0.29785779E+04</totfact>
</mgrwt>
</event>
<event>
 4      2 +5.6305390e+02 2.51277800e+02 7.54677100e-03 1.11250000e-01
       -1 -1    0    0    0  501 -0.0000000000e+00 +0.0000000000e+00 +3.8133066524e+01 3.8133066524e+01 0.0000000000e+00 0.0000e+00 1.0000e+00
        1 -1    0    0  502    0 +0.0000000000e+00 -0.0000000000e+00 -1.9948311519e+03 1.9948311519e+03 0.0000000000e+00 0.0000e+00 -1.0000e+00
        6  1    1    2  502    0 +1.1605495013e+02 +1.4050892021e+02 -5.5929481745e+02 6.1314859613e+02 1.7300000000e+02 0.0000e+00 1.0000e+00
       -6  1    1    2    0  501 -1.1605495013e+02 -1.4050892021e+02 -1.3974032680e+03 1.4198156223e+03 1.7300000000e+02 0.0000e+00 -1.0000e+00
<mgrwt>
<rscale>  2 0.25127775E+03</rscale>
<asrwt>0</asrwt>
<pdfrwt beam="1">  1        1 0.30689714E+00 0.25127775E+03</pdfrwt>
<pdfrwt beam="2">  1       -1 0.58666249E-02 0.25127775E+03</pdfrwt>
<totfact> 0.47152041E+02</totfact>
</mgrwt>
</event>
<event>
 4      2 +5.6305390e+02 2.35429600e+02 7.54677100e-03 1.12287500e-01
       21 -1    0    0  501  502 +0.0000000000e+00 +0.0000000000e+00 +5.9994537428e+02 5.9994537428e+02 0.0000000000e+00 0.0000e+00 1.0000e+00
       21 -1    0    0  502  503 -0.0000000000e+00 -0.0000000000e+00 -1.1677461943e+02 1.1677461943e+02 0.0000000000e+00 0.0000e+00 -1.0000e+00
        6  1    1    2  501    0 -4.2357635442e+01 +1.5396080742e+02 +7.7816716947e+01 2.4795673199e+02 1.7300000000e+02 0.0000e+00 -1.0000e+00
       -6  1    1    2    0  503 +4.2357635442e+01 -1.5396080742e+02 +4.0535403790e+02 4.6876326172e+02 1.7300000000e+02 0.0000e+00 -1.0000e+00
<mgrwt>
<rscale>  2 0.23542961E+03</rscale>
<asrwt>0</asrwt>
<pdfrwt beam="1">  1       21 0.92299286E-01 0.23542961E+03</pdfrwt>
<pdfrwt beam="2">  1       21 0.17965326E-01 0.23542961E+03</pdfrwt>
<totfact> 0.27276345E+04</totfact>
</mgrwt>
</event>
<event>
 4      3 +5.6305390e+02 8.53113000e+01 7.54677100e-03 1.31462000e-01
        1 -1    0    0  501    0 +0.0000000000e+00 +0.0000000000e+00 +9.5740756835e+01 9.5740756835e+01 0.0000000000e+00 0.0000e+00 -1.0000e+00
       -1 -1    0    0    0  501 -0.0000000000e+00 -0.0000000000e+00 -8.2809083590e+01 8.2809083590e+01 0.0000000000e+00 0.0000e+00 1.0000e+00
       24  1    1    2    0    0 -1.1840795681e+01 +2.5895895562e+01 -1.9100060557e+01 8.7423281321e+01 8.0419002446e+01 0.0000e+00 1.0000e+00
      -24  1    1    2    0    0 +1.1840795681e+01 -2.5895895562e+01 +3.2031733802e+01 9.1126559103e+01 8.0419002446e+01 0.0000e+00 -1.0000e+00
<mgrwt>
<rscale>  0 0.85311299E+02</rscale>
<asrwt>0</asrwt>
<pdfrwt beam="1">  1        1 0.14729347E-01 0.85311299E+02</pdfrwt>
<pdfrwt beam="2">  1       -1 0.12739859E-01 0.85311299E+02</pdfrwt>
<totfact> 0.14158241E+04</totfact>
</mgrwt>
</event>
<event>
 4      2 +5.6305390e+02 2.55324700e+02 7.54677100e-03 1.10998500e-01
       21 -1    0    0  503  502 +0.0000000000e+00 +0.0000000000e+00 +1.2428102282e+02 1.2428102282e+02 0.0000000000e+00 0.0000e+00 1.0000e+00
       21 -1    0    0  501  503 -0.0000000000e+00 -0.0000000000e+00 -5.3867090157e+02 5.3867090157e+02 0.0000000000e+00 0.0000e+00 1.0000e+00
        6  1    1    2  501    0 +9.1628983597e+01 +1.6390795863e+02 -1.5351210701e+02 2.9792055407e+02 1.7300000000e+02 0.0000e+00 1.0000e+00
       -6  1    1    2    0  502 -9.1628983597e+01 -1.6390795863e+02 -2.6087777174e+02 3.6503137033e+02 1.7300000000e+02 0.0000e+00 1.0000e+00
<mgrwt>
<rscale>  2 0.25532467E+03</rscale>
<asrwt>0</asrwt>
<pdfrwt beam="1">  1       21 0.19120157E-01 0.25532467E+03</pdfrwt>
<pdfrwt beam="2">  1       21 0.82872447E-01 0.25532467E+03</pdfrwt>
<totfact> 0.30883466E+04</totfact>
</mgrwt>
</event>
<event>
 4      2 +5.6305390e+02 1.74214900e+02 7.54677100e-03 1.17352200e-01
       21 -1    0    0  503  502 +0.0000000000e+00 +0.0000000000e+00 +2.8380938800e+02 2.8380938800e+02 0.0000000000e+00 0.0000e+00 1.0000e+00
       21 -1    0    0  501  503 -0.0000000000e+00 -0.0000000000e+00 -1.3238731146e+02 1.3238731146e+02 0.0000000000e+00 0.0000e+00 1.0000e+00
        6  1    1    2  501    0 -1.0854966370e+01 +1.7435771995e+01 +1.6694542886e+02 2.4129155115e+02 1.7300000000e+02 0.0000e+00 1.0000e+00
       -6  1    1    2    0  502 +1.0854966370e+01 -1.7435771995e+01 -1.5523352317e+01 1.7490514832e+02 1.7300000000e+02 0.0000e+00 1.0000e+00
<mgrwt>
<rscale>  2 0.17421491E+03</rscale>
<asrwt>0</asrwt>
<pdfrwt beam="1">  1       21 0.43662983E-01 0.17421491E+03</pdfrwt>
<pdfrwt beam="2">  1       21 0.20367279E-01 0.17421491E+03</pdfrwt>
<totfact> 0.11322390E+05</totfact>
</mgrwt>
</event>
<event>
 4      2 +5.6305390e+02 2.54197900e+02 7.54677100e-03 1.11068000e-01
       21 -1    0    0  501  502 +0.0000000000e+00 +0.0000000000e+00 +2.8156862274e+02 2.8156862274e+02 0.0000000000e+00 0.0000e+00 1.0000e+00
       21 -1    0    0  502  503 -0.0000000000e+00 -0.0000000000e+00 -2.5361850909e+02 2.5361850909e+02 0.0000000000e+00 0.0000e+00 -1.0000e+00
        6  1    1    2  501    0 -1.7852618151e+02 -5.3065644160e+01 +9.6516176317e+01 2.7190427059e+02 1.7300000000e+02 0.0000e+00 1.0000e+00
       -6  1    1    2    0  503 +1.7852618151e+02 +5.3065644160e+01 -6.8566062663e+01 2.6328286124e+02 1.7300000000e+02 0.0000e+00 -1.0000e+00
<mgrwt>
<rscale>  2 0.25419788E+03</rscale>
<asrwt>0</asrwt>
<pdfrwt beam="1">  1       21 0.43318250E-01 0.25419788E+03</pdfrwt>
<pdfrwt beam="2">  1       21 0.39018232E-01 0.25419788E+03</pdfrwt>
<totfact> 0.31481291E+04</totfact>
</mgrwt>
</event>
<event>
 4      3 +5.6305390e+02 8.86025800e+01 7.54677100e-03 1.30627100e-01
        1 -1    0    0  501    0 +0.0000000000e+00 +0.0000000000e+00 +1.4173779295e+02 1.4173779295e+02 0.0000000000e+00 0.0000e+00 -1.0000e+00
       -1 -1    0    0    0  501 -0.0000000000e+00 -0.0000000000e+00 -5.7398644565e+01 5.7398644565e+01 0.0000000000e+00 0.0000e+00 1.0000e+00
       24  1    1    2    0    0 -3.5158925641e+01 +1.2126436873e+01 +2.3529110636e+01 9.1673526850e+01 8.0419002446e+01 0.0000e+00 -1.0000e+00
      -24  1    1    2    0    0 +3.5158925641e+01 -1.2126436873e+01 +6.0810037753e+01 1.0746291067e+02 8.0419002446e+01 0.0000e+00 1.0000e+00
<mgrwt>
<rscale>  0 0.88602576E+02</rscale>
<asrwt>0</asrwt>
<pdfrwt beam="1">  1        1 0.21805814E-01 0.88602576E+02</pdfrwt>
<pdfrwt beam="2">  1       -1 0.88305608E-02 0.88602576E+02</pdfrwt>
<totfact> 0.15084576E+04</totfact>
</mgrwt>
</event>
<event>
 4      2 +5.6305390e+02 3.23594100e+02 7.54677100e-03 1.07400700e-01
       21 -1    0    0  501  502 +0.0000000000e+00 +0.0000000000e+00 +1.1207819241e+02 1.1207819241e+02 0.0000000000e+00 0.0000e+00 -1.0000e+00
       21 -1    0    0  502  503 -0.0000000000e+00 -0.0000000000e+00 -9.3590324489e+02 9.3590324489e+02 0.0000000000e+00 0.0000e+00 -1.0000e+00
        6  1    1    2  501    0 -1.5388311230e+02 +2.2606219551e+02 -3.9013316238e+02 5.0686981847e+02 1.7300000000e+02 0.0000e+00 -1.0000e+00
       -6  1    1    2    0  503 +1.5388311230e+02 -2.2606219551e+02 -4.3369189009e+02 5.4111161882e+02 1.7300000000e+02 0.0000e+00 -1.0000e+00
<mgrwt>
<rscale>  2 0.32359408E+03</rscale>
<asrwt>0</asrwt>
<pdfrwt beam="1">  1       21 0.17242798E-01 0.32359408E+03</pdfrwt>
<pdfrwt beam="2">  1       21 0.14398512E+00 0.32359408E+03</pdfrwt>
<totfact> 0.93590646E+03</totfact>
</mgrwt>
</event>
<event>
 4      2 +5.6305390e+02 2.06412700e+02 7.54677100e-03 1.14443900e-01
       21 -1    0    0  503  502 +0.0000000000e+00 +0.0000000000e+00 +4.9072176204e+01 4.9072176204e+01 0.0000000000e+00 0.0000e+00 1.0000e+00
       21 -1    0    0  501  503 -0.0000000000e+00 -0.0000000000e+00 -9.1889541061e+02 9.1889541061e+02 0.0000000000e+00 0.0000e+00 1.0000e+00
        6  1    1    2  501    0 +2.7443731629e+01 -1.0919718395e+02 -5.4855179746e+02 5.8610174705e+02 1.7300000000e+02 0.0000e+00 1.0000e+00
       -6  1    1    2    0  502 -2.7443731629e+01 +1.0919718395e+02 -3.2127143694e+02 3.8186583977e+02 1.7300000000e+02 0.0000e+00 1.0000e+00
<mgrwt>
<rscale>  2 0.20641265E+03</rscale>
<asrwt>0</asrwt>
<pdfrwt beam="1">  1       21 0.75495648E-02 0.20641265E+03</pdfrwt>
<pdfrwt beam="2">  1       21 0.14136854E+00 0.20641265E+03</pdfrwt>
<totfact> 0.45951614E+04</totfact>
</mgrwt>
</event>
<event>
 4      2 +5.6305390e+02 2.43015400e+02 7.54677100e-03 1.11780000e-01
       -2 -1    0    0    0  501 -0.0000000000e+00 +0.0000000000e+00 +2.0794750783e+02 2.0794750783e+02 0.0000000000e+00 0.0000e+00 -1.0000e+00
        2 -1    0    0  502    0 +0.0000000000e+00 -0.0000000000e+00 -3.0443132337e+02 3.0443132337e+02 0.0000000000e+00 0.0000e+00 1.0000e+00
        6  1    1    2  502    0 -7.2356209903e+00 -1.7051438156e+02 -1.1461538867e+02 2.6868791534e+02 1.7300000000e+02 0.0000e+00 1.0000e+00
       -6  1    1    2    0  501 +7.2356209903e+00 +1.7051438156e+02 +1.8131573128e+01 2.4369091586e+02 1.7300000000e+02 0.0000e+00 -1.0000e+00
<mgrwt>
<rscale>  2 0.24301545E+03</rscale>
<asrwt>0</asrwt>
<pdfrwt beam="1">  1        2 0.46835588E-01 0.24301545E+03</pdfrwt>
<pdfrwt beam="2">  1       -2 0.31991924E-01 0.24301545E+03</pdfrwt>
<totfact> 0.97754591E+02</totfact>
</mgrwt>
</event>
<event>
 4      2 +5.6305390e+02 1.75977200e+02 7.54677100e-03 1.17175400e-01
       -2 -1    0    0    0  501 -0.0000000000e+00 +0.0000000000e+00 +1.4683163493e+02 1.4683163493e+02 0.0000000000e+00 0.0000e+00 1.0000e+00
        2 -1    0    0  502    0 +0.0000000000e+00 -0.0000000000e+00 -2.1103508016e+02 2.1103508016e+02 0.0000000000e+00 0.0000e+00 -1.0000e+00
        6  1    1    2  502    0 +3.2206295105e+01 -1.3142959976e+00 -3.6491867573e+01 1.7972097601e+02 1.7300000000e+02 0.0000e+00 -1.0000e+00
       -6  1    1    2    0  501 -3.2206295105e+01 +1.3142959976e+00 -2.7711577653e+01 1.7814573909e+02 1.7300000000e+02 0.0000e+00 -1.0000e+00
<mgrwt>
<rscale>  2 0.17597719E+03</rscale>
<asrwt>0</asrwt>
<pdfrwt beam="1">  1        2 0.32466935E-01 0.17597719E+03</pdfrwt>
<pdfrwt beam="2">  1       -2 0.22589482E-01 0.17597719E+03</pdfrwt>
<totfact> 0.26770227E+03</totfact>
</mgrwt>
</event>
<event>
 4      2 +5.6305390e+02 2.30826900e+02 7.54677100e-03 1.12605900e-01
       21 -1    0    0  501  502 +0.0000000000e+00 +0.0000000000e+00 +8.0010027521e+02 8.0010027521e+02 0.0000000000e+00 0.0000e+00 1.0000e+00
       21 -1    0    0  502  503 -0.0000000000e+00 -0.0000000000e+00 -2.1356631285e+02 2.1356631285e+02 0.0000000000e+00 0.0000e+00 -1.0000e+00
        6  1    1    2  501    0 +2.3634764225e+01 -1.5097496242e+02 +7.1372057594e+02 7.5011872518e+02 1.7300000000e+02 0.0000e+00 1.0000e+00
       -6  1    1    2    0  503 -2.3634764225e+01 +1.5097496242e+02 -1.2718661357e+02 2.6354786288e+02 1.7300000000e+02 0.0000e+00 -1.0000e+00
<mgrwt>
<rscale>  2 0.23082686E+03</rscale>
<asrwt>0</asrwt>
<pdfrwt beam="1">  1       21 0.12309235E+00 0.23082686E+03</pdfrwt>
<pdfrwt beam="2">  1       21 0.32856356E-01 0.23082686E+03</pdfrwt>
<totfact> 0.42903019E+03</totfact>
</mgrwt>
</event>
<event>
 4      2 +5.6305390e+02 1.90681200e+02 7.54677100e-03 1.15784800e-01
       21 -1    0    0  501  502 +0.0000000000e+00 +0.0000000000e+00 +1.2293516417e+03 1.2293516417e+03 0.0000000000e+00 0.0000e+00 -1.0000e+00
       21 -1    0    0  502  503 -0.0000000000e+00 -0.0000000000e+00 -3.3919680225e+01 3.3919680225e+01 0.0000000000e+00 0.0000e+00 -1.0000e+00
        6  1    1    2  501    0 +4.9020874232e+01 -6.3460820998e+01 +8.2374748093e+02 8.4552896713e+02 1.7300000000e+02 0.0000e+00 -1.0000e+00
       -6  1    1    2    0  503 -4.9020874232e+01 +6.3460820998e+01 +3.7168448052e+02 4.1774235477e+02 1.7300000000e+02 0.0000e+00 -1.0000e+00
<mgrwt>
<rscale>  2 0.19068120E+03</rscale>
<asrwt>0</asrwt>
<pdfrwt beam="1">  1       21 0.18913099E+00 0.19068120E+03</pdfrwt>
<pdfrwt beam="2">  1       21 0.52184133E-02 0.19068120E+03</pdfrwt>
<totfact> 0.39587700E+04</totfact>
</mgrwt>
</event>
<event>
 4      3 +5.6305390e+02 8.05713600e+01 7.54677100e-03 1.32743800e-01
       -2 -1    0    0    0  501 -0.0000000000e+00 +0.0000000000e+00 +1.3280375224e+02 1.3280375224e+02 0.0000000000e+00 0.0000e+00 1.0000e+00
        2 -1    0    0  501    0 +0.0000000000e+00 -0.0000000000e+00 -3.8781474660e+02 3.8781474660e+02 0.0000000000e+00 0.0000e+00 -1.0000e+00
       24  1    1    2    0    0 -3.1478784274e+00 +3.8234160426e+00 -3.7085701444e+02 3.7950845677e+02 8.0419002446e+01 0.0000e+00 -1.0000e+00
      -24  1    1    2    0    0 +3.1478784274e+00 -3.8234160426e+00 +1.1584602009e+02 1.4111004207e+02 8.0419002446e+01 0.0000e+00 1.0000e+00
<mgrwt>
<rscale>  0 0.80571357E+02</rscale>
<asrwt>0</asrwt>
<pdfrwt beam="1">  1        2 0.59663807E-01 0.80571357E+02</pdfrwt>
<pdfrwt beam="2">  1       -2 0.20431346E-01 0.80571357E+02</pdfrwt>
<totfact> 0.16164517E+03</totfact>
</mgrwt>
</event>
<event>
 4      2 +5.6305390e+02 1.92971900e+02 7.54677100e-03 1.15580800e-01
       21 -1    0    0  501  502 +0.0000000000e+00 +0.0000000000e+00 +8.3724961854e+01 8.3724961854e+01 0.0000000000e+00 0.0000e+00 1.0000e+00
       21 -1    0    0  502  503 -0.0000000000e+00 -0.0000000000e+00 -5.1877775788e+02 5.1877775788e+02 0.0000000000e+00 0.0000e+00 1.0000e+00
        6  1    1    2  501    0 +8.0255639838e+01 +2.9465305282e+01 -1.0374185999e+02 2.1909026782e+02 1.7300000000e+02 0.0000e+00 1.0000e+00
       -6  1    1    2    0  503 -8.0255639838e+01 -2.9465305282e+01 -3.3131093604e+02 3.8341245191e+02 1.7300000000e+02 0.0000e+00 1.0000e+00
<mgrwt>
<rscale>  2 0.19297195E+03</rscale>
<asrwt>0</asrwt>
<pdfrwt beam="1">  1       21 0.12880763E-01 0.19297195E+03</pdfrwt>
<pdfrwt beam="2">  1       21 0.79811963E-01 0.19297195E+03</pdfrwt>
<totfact> 0.71453287E+04</totfact>
</mgrwt>
</event>
<event>
 4      2 +5.6305390e+02 3.57569000e+02 7.54677100e-03 1.05955100e-01
       21 -1    0    0  501  502 +0.0000000000e+00 +0.0000000000e+00 +3.3615231946e+02 3.3615231946e+02 0.0000000000e+00 0.0000e+00 1.0000e+00
       21 -1    0    0  502  503 -0.0000000000e+00 -0.0000000000e+00 -3.8798471362e+02 3.8798471362e+02 0.0000000000e+00 0.0000e+00 -1.0000e+00
        6  1    1    2  501    0 -1.7447471984e+02 +2.5977903371e+02 +2.4873601161e+01 3.5843307639e+02 1.7300000000e+02 0.0000e+00 -1.0000e+00
       -6  1    1    2    0  503 +1.7447471984e+02 -2.5977903371e+02 -7.6705995317e+01 3.6570395668e+02 1.7300000000e+02 0.0000e+00 1.0000e+00
<mgrwt>
<rscale>  2 0.35756898E+03</rscale>
<asrwt>0</asrwt>
<pdfrwt beam="1">  1       21 0.51715742E-01 0.35756898E+03</pdfrwt>
<pdfrwt beam="2">  1       21 0.59689956E-01 0.35756898E+03</pdfrwt>
<totfact> 0.85370691E+03</totfact>
</mgrwt>
</event>
<event>
 4      2 +5.6305390e+02 3.05830200e+02 7.54677100e-03 1.08236200e-01
       21 -1    0    0  501  502 +0.0000000000e+00 +0.0000000000e+00 +4.1873891560e+01 4.1873891560e+01 0.0000000000e+00 0.0000e+00 1.0000e+00
       21 -1    0    0  502  503 -0.0000000000e+00 -0.0000000000e+00 -2.2337260552e+03 2.2337260552e+03 0.0000000000e+00 0.0000e+00 -1.0000e+00
        6  1    1    2  501    0 +2.0269005966e+02 +1.5006620397e+02 -1.0898393655e+03 1.1319372634e+03 1.7300000000e+02 0.0000e+00 -1.0000e+00
       -6  1    1    2    0  503 -2.0269005966e+02 -1.5006620397e+02 -1.1020127982e+03 1.1436626833e+03 1.7300000000e+02 0.0000e+00 1.0000e+00
<mgrwt>
<rscale>  2 0.30583022E+03</rscale>
<asrwt>0</asrwt>
<pdfrwt beam="1">  1       21 0.64421350E-02 0.30583022E+03</pdfrwt>
<pdfrwt beam="2">  1       21 0.34365028E+00 0.30583022E+03</pdfrwt>
<totfact> 0.29611204E+03</totfact>
</mgrwt>
</event>
<event>
 4      2 +5.6305390e+02 2.09638400e+02 7.54677100e-03 1.14185300e-01
       21 -1    0    0  501  502 +0.0000000000e+00 +0.0000000000e+00 +2.1157383910e+03 2.1157383910e+03 0.0000000000e+00 0.0000e+00 1.0000e+00
       21 -1    0    0  502  503 -0.0000000000e+00 -0.0000000000e+00 -2.4666400545e+01 2.4666400545e+01 0.0000000000e+00 0.0000e+00 1.0000e+00
        6  1    1    2  501    0 +2.6650363247e+01 -1.1536462333e+02 +1.4707721347e+03 1.4856375434e+03 1.7300000000e+02 0.0000e+00 1.0000e+00
       -6  1    1    2    0  503 -2.6650363247e+01 +1.1536462333e+02 +6.2029985571e+02 6.5476724809e+02 1.7300000000e+02 0.0000e+00 1.0000e+00
<mgrwt>
<rscale>  2 0.20963835E+03</rscale>
<asrwt>0</asrwt>
<pdfrwt beam="1">  1       21 0.32549807E+00 0.20963835E+03</pdfrwt>
<pdfrwt beam="2">  1       21 0.37948325E-02 0.20963835E+03</pdfrwt>
<totfact> 0.10217217E+04</totfact>
</mgrwt>
</event>
<event>
 4      2 +5.6305390e+02 1.92258100e+02 7.54677100e-03 1.15644000e-01
       21 -1    0    0  503  502 +0.0000000000e+00 +0.0000000000e+00 +9.4853037978e+02 9.4853037978e+02 0.0000000000e+00 0.0000e+00 1.0000e+00
       21 -1    0    0  501  503 -0.0000000000e+00 -0.0000000000e+00 -4.2817238441e+01 4.2817238441e+01 0.0000000000e+00 0.0000e+00 1.0000e+00
        6  1    1    2  501    0 +1.4969824106e+01 -8.2523103133e+01 +3.0425448649e+02 3.5990825322e+02 1.7300000000e+02 0.0000e+00 1.0000e+00
       -6  1    1    2    0  502 -1.4969824106e+01 +8.2523103133e+01 +6.0145865485e+02 6.3143936501e+02 1.7300000000e+02 0.0000e+00 1.0000e+00
<mgrwt>
<rscale>  2 0.19225805E+03</rscale>
<asrwt>0</asrwt>
<pdfrwt beam="1">  1       21 0.14592773E+00 0.19225805E+03</pdfrwt>
<pdfrwt beam="2">  1       21 0.65872682E-02 0.19225805E+03</pdfrwt>
<totfact> 0.53979789E+04</totfact>
</mgrwt>
</event>
<event>
 4      2 +5.6305390e+02 1.89737300e+02 7.54677100e-03 1.15869800e-01
       21 -1    0    0  503  502 +0.0000000000e+00 +0.0000000000e+00 +4.1274094557e+02 4.1274094557e+02 0.0000000000e+00 0.0000e+00 -1.0000e+00
       21 -1    0    0  501  503 -0.0000000000e+00 -0.0000000000e+00 -1.2996781926e+02 1.2996781926e+02 0.0000000000e+00 0.0000e+00 1.0000e+00
        6  1    1    2  501    0 -6.3537551839e+01 +4.5102321197e+01 -1.4232899417e+01 1.9027037420e+02 1.7300000000e+02 0.0000e+00 1.0000e+00
       -6  1    1    2    0  502 +6.3537551839e+01 -4.5102321197e+01 +2.9700602573e+02 3.5243839063e+02 1.7300000000e+02 0.0000e+00 -1.0000e+00
<mgrwt>
<rscale>  2 0.18973729E+03</rscale>
<asrwt>0</asrwt>
<pdfrwt beam="1">  1       21 0.63498606E-01 0.18973729E+03</pdfrwt>
<pdfrwt beam="2">  1       21 0.19995049E-01 0.18973729E+03</pdfrwt>
<totfact> 0.53026544E+04</totfact>
</mgrwt>
</event>
<event>
 4      2 +5.6305390e+02 3.42955800e+02 7.54677100e-03 1.06554400e-01
       -1 -1    0    0    0  501 -0.0000000000e+00 +0.0000000000e+00 +1.8480390537e+02 1.8480390537e+02 0.0000000000e+00 0.0000e+00 -1.0000e+00
        1 -1    0    0  502    0 +0.0000000000e+00 -0.0000000000e+00 -6.3676419855e+02 6.3676419855e+02 0.0000000000e+00 0.0000e+00 1.0000e+00
        6  1    1    2  502    0 +1.1801377108e+02 -2.7159242755e+02 -2.3508524254e+02 4.1579293901e+02 1.7300000000e+02 0.0000e+00 1.0000e+00
       -6  1    1    2    0  501 -1.1801377108e+02 +2.7159242755e+02 -2.1687505065e+02 4.0577516491e+02 1.7300000000e+02 0.0000e+00 -1.0000e+00
<mgrwt>
<rscale>  2 0.34295582E+03</rscale>
<asrwt>0</asrwt>
<pdfrwt beam="1">  1        1 0.97963721E-01 0.34295582E+03</pdfrwt>
<pdfrwt beam="2">  1       -1 0.28431370E-01 0.34295582E+03</pdfrwt>
<totfact> 0.36271310E+02</totfact>
</mgrwt>
</event>
<event>
 4      3 +5.6305390e+02 1.11983900e+02 7.54677100e-03 1.25693900e-01
       -2 -1    0    0    0  501 -0.0000000000e+00 +0.0000000000e+00 +6.3281092134e+00 6.3281092134e+00 0.0000000000e+00 0.0000e+00 1.0000e+00
        2 -1    0    0  501    0 +0.0000000000e+00 -0.0000000000e+00 -2.8950950923e+03 2.8950950923e+03 0.0000000000e+00 0.0000e+00 -1.0000e+00
       24  1    1    2    0    0 -4.2782883347e+01 +6.5136819723e+01 -2.2592372417e+03 2.2620108997e+03 8.0419002446e+01 0.0000e+00 -1.0000e+00
      -24  1    1    2    0    0 +4.2782883347e+01 -6.5136819723e+01 -6.2952974145e+02 6.3941230182e+02 8.0419002446e+01 0.0000e+00 1.0000e+00
<mgrwt>
<rscale>  0 0.11198391E+03</rscale>
<asrwt>0</asrwt>
<pdfrwt beam="1">  1        2 0.44540029E+00 0.11198391E+03</pdfrwt>
<pdfrwt beam="2">  1       -2 0.97355297E-03 0.11198391E+03</pdfrwt>
<totfact> 0.53484933E+03</totfact>
</mgrwt>
</event>
<event>
 4      2 +5.6305390e+02 2.25823000e+02 7.54677100e-03 1.12961500e-01
       21 -1    0    0  503  502 +0.0000000000e+00 +0.0000000000e+00 +1.9439202364e+03 1.9439202364e+03 0.0000000000e+00 0.0000e+00 1.0000e+00
       21 -1    0    0  501  503 -0.0000000000e+00 -0.0000000000e+00 -2.7989934337e+01 2.7989934337e+01 0.0000000000e+00 0.0000e+00 -1.0000e+00
        6  1    1    2  501    0 -9.5308857983e+00 +1.4483164112e+02 +7.1098687148e+02 7.4598818588e+02 1.7300000000e+02 0.0000e+00 -1.0000e+00
       -6  1    1    2    0  502 +9.5308857983e+00 -1.4483164112e+02 +1.2049434306e+03 1.2259219849e+03 1.7300000000e+02 0.0000e+00 1.0000e+00
<mgrwt>
<rscale>  2 0.22582303E+03</rscale>
<asrwt>0</asrwt>
<pdfrwt beam="1">  1       21 0.29906454E+00 0.22582303E+03</pdfrwt>
<pdfrwt beam="2">  1       21 0.43061453E-02 0.22582303E+03</pdfrwt>
<totfact> 0.11577399E+04</totfact>
</mgrwt>
</event>
<event>
 4      2 +5.6305390e+02 1.88338600e+02 7.54677100e-03 1.15996800e-01
       21 -1    0    0  501  502 +0.0000000000e+00 +0.0000000000e+00 +3.1984966648e+02 3.1984966648e+02 0.0000000000e+00 0.0000e+00 1.0000e+00
       21 -1    0    0  502  503 -0.0000000000e+00 -0.0000000000e+00 -1.5588859966e+02 1.5588859966e+02 0.0000000000e+00 0.0000e+00 1.0000e+00
        6  1    1    2  501    0 -1.9358603371e+01 -7.1886423268e+01 +2.0976582295e+02 2.8190976190e+02 1.7300000000e+02 0.0000e+00 1.0000e+00
       -6  1    1    2    0  503 +1.9358603371e+01 +7.1886423268e+01 -4.5804756129e+01 1.9382850425e+02 1.7300000000e+02 0.0000e+00 1.0000e+00
<mgrwt>
<rscale>  2 0.18833856E+03</rscale>
<asrwt>0</asrwt>
<pdfrwt beam="1">  1       21 0.49207641E-01 0.18833856E+03</pdfrwt>
<pdfrwt beam="2">  1       21 0.23982862E-01 0.18833856E+03</pdfrwt>
<totfact> 0.64703120E+04</totfact>
</mgrwt>
</event>
<event>
 4      2 +5.6305390e+02 2.67402200e+02 7.54677100e-03 1.10277600e-01
       21 -1    0    0  501  502 +0.0000000000e+00 +0.0000000000e+00 +8.5718358160e+02 8.5718358160e+02 0.0000000000e+00 0.0000e+00 1.0000e+00
       21 -1    0    0  502  503 -0.0000000000e+00 -0.0000000000e+00 -1.1514907622e+02 1.1514907622e+02 0.0000000000e+00 0.0000e+00 -1.0000e+00
        6  1    1    2  501    0 +4.6993174102e+01 -1.9841012941e+02 +6.2622970243e+02 6.8093140482e+02 1.7300000000e+02 0.0000e+00 1.0000e+00
       -6  1    1    2    0  503 -4.6993174102e+01 +1.9841012941e+02 +1.1580480294e+02 2.9140125300e+02 1.7300000000e+02 0.0000e+00 -1.0000e+00
<mgrwt>
<rscale>  2 0.26740220E+03</rscale>
<asrwt>0</asrwt>
<pdfrwt beam="1">  1       21 0.13187439E+00 0.26740220E+03</pdfrwt>
<pdfrwt beam="2">  1       21 0.17715243E-01 0.26740220E+03</pdfrwt>
<totfact> 0.11504214E+04</totfact>
</mgrwt>
</event>
<event>
 4      2 +5.6305390e+02 2.43073800e+02 7.54677100e-03 1.11776200e-01
       21 -1    0    0  503  502 +0.0000000000e+00 +0.0000000000e+00 +6.1784009161e+02 6.1784009161e+02 0.0000000000e+00 0.0000e+00 -1.0000e+00
       21 -1    0    0  501  503 -0.0000000000e+00 -0.0000000000e+00 -9.5658537190e+01 9.5658537190e+01 0.0000000000e+00 0.0000e+00 1.0000e+00
        6  1    1    2  501    0 -6.4217596013e+01 +1.5821501307e+02 +2.5507792407e+02 3.5234874393e+02 1.7300000000e+02 0.0000e+00 -1.0000e+00
       -6  1    1    2    0  502 +6.4217596013e+01 -1.5821501307e+02 +2.6710363035e+02 3.6114988487e+02 1.7300000000e+02 0.0000e+00 1.0000e+00
<mgrwt>
<rscale>  2 0.24307384E+03</rscale>
<asrwt>0</asrwt>
<pdfrwt beam="1">  1       21 0.95052319E-01 0.24307384E+03</pdfrwt>
<pdfrwt beam="2">  1       21 0.14716698E-01 0.24307384E+03</pdfrwt>
<totfact> 0.36630060E+04</totfact>
</mgrwt>
</event>
<event>
 4      2 +5.6305390e+02 1.99266000e+02 7.54677100e-03 1.15036000e-01
       -3 -1    0    0    0  501 -0.0000000000e+00 +0.0000000000e+00 +2.9783090907e+02 2.9783090907e+02 0.0000000000e+00 0.0000e+00 -1.0000e+00
        3 -1    0    0  502    0 +0.0000000000e+00 -0.0000000000e+00 -1.3394174823e+02 1.3394174823e+02 0.0000000000e+00 0.0000e+00 1.0000e+00
        6  1    1    2  502    0 -9.6420009172e+01 +2.1934625552e+01 +6.7241006293e+01 2.1030525170e+02 1.7300000000e+02 0.0000e+00 1.0000e+00
       -6  1    1    2    0  501 +9.6420009172e+01 -2.1934625552e+01 +9.6648154548e+01 2.2146740560e+02 1.7300000000e+02 0.0000e+00 -1.0000e+00
<mgrwt>
<rscale>  2 0.19926602E+03</rscale>
<asrwt>0</asrwt>
<pdfrwt beam="1">  1        3 0.20606423E-01 0.19926602E+03</pdfrwt>
<pdfrwt beam="2">  1       -3 0.45820140E-01 0.19926602E+03</pdfrwt>
<totfact> 0.24708298E+02</totfact>
</mgrwt>
</event>
<event>
 4      2 +5.6305390e+02 2.31981400e+02 7.54677100e-03 1.12525300e-01
       21 -1    0    0  501  502 +0.0000000000e+00 +0.0000000000e+00 +3.1397960714e+02 3.1397960714e+02 0.0000000000e+00 0.0000e+00 1.0000e+00
       21 -1    0    0  502  503 -0.0000000000e+00 -0.0000000000e+00 -1.7591244255e+02 1.7591244255e+02 0.0000000000e+00 0.0000e+00 1.0000e+00
        6  1    1    2  501    0 +3.3669759975e+01 -1.5084011446e+02 +2.9792857104e+01 2.3388674012e+02 1.7300000000e+02 0.0000e+00 1.0000e+00
       -6  1    1    2    0  503 -3.3669759975e+01 +1.5084011446e+02 +1.0827430748e+02 2.5600530957e+02 1.7300000000e+02 0.0000e+00 1.0000e+00
<mgrwt>
<rscale>  2 0.23198145E+03</rscale>
<asrwt>0</asrwt>
<pdfrwt beam="1">  1       21 0.48304555E-01 0.23198145E+03</pdfrwt>
<pdfrwt beam="2">  1       21 0.27063453E-01 0.23198145E+03</pdfrwt>
<totfact> 0.52313365E+04</totfact>
</mgrwt>
</event>
<event>
 4      2 +5.6305390e+02 2.01001600e+02 7.54677100e-03 1.14889700e-01
       21 -1    0    0  501  502 +0.0000000000e+00 +0.0000000000e+00 +1.8331107517e+02 1.8331107517e+02 0.0000000000e+00 0.0000e+00 1.0000e+00
       21 -1    0    0  502  503 -0.0000000000e+00 -0.0000000000e+00 -3.0231062435e+02 3.0231062435e+02 0.0000000000e+00 0.0000e+00 -1.0000e+00
        6  1    1    2  501    0 -1.0017265082e+02 -2.0930758130e+01 +6.6890311919e+01 2.1183949216e+02 1.7300000000e+02 0.0000e+00 1.0000e+00
       -6  1    1    2    0  503 +1.0017265082e+02 +2.0930758130e+01 -1.8588986110e+02 2.7378220736e+02 1.7300000000e+02 0.0000e+00 -1.0000e+00
<mgrwt>
<rscale>  2 0.20100163E+03</rscale>
<asrwt>0</asrwt>
<pdfrwt beam="1">  1       21 0.28201704E-01 0.20100163E+03</pdfrwt>
<pdfrwt beam="2">  1       21 0.46509327E-01 0.20100163E+03</pdfrwt>
<totfact> 0.52985667E+04</totfact>
</mgrwt>
</event>
<event>
 4      2 +5.6305390e+02 2.05387000e+02 7.54677100e-03 1.14527200e-01
       21 -1    0    0  501  502 +0.0000000000e+00 +0.0000000000e+00 +2.4201458052e+02 2.4201458052e+02 0.0000000000e+00 0.0000e+00 1.0000e+00
       21 -1    0    0  502  503 -0.0000000000e+00 -0.0000000000e+00 -1.7812287833e+02 1.7812287833e+02 0.0000000000e+00 0.0000e+00 1.0000e+00
        6  1    1    2  501    0 +1.1069817803e+02 -8.6428972065e-01 +6.2709246221e+01 2.1474702135e+02 1.7300000000e+02 0.0000e+00 1.0000e+00
       -6  1    1    2    0  503 -1.1069817803e+02 +8.6428972065e-01 +1.1824559678e+00 2.0539043750e+02 1.7300000000e+02 0.0000e+00 1.0000e+00
<mgrwt>
<rscale>  2 0.20538703E+03</rscale>
<asrwt>0</asrwt>
<pdfrwt beam="1">  1       21 0.37233012E-01 0.20538703E+03</pdfrwt>
<pdfrwt beam="2">  1       21 0.27403520E-01 0.20538703E+03</pdfrwt>
<totfact> 0.87891860E+04</totfact>
</mgrwt>
</event>
<event>
 4      2 +5.6305390e+02 1.90807100e+02 7.54677100e-03 1.15773500e-01
       21 -1    0    0  503  502 +0.0000000000e+00 +0.0000000000e+00 +4.6956836937e+02 4.6956836937e+02 0.0000000000e+00 0.0000e+00 1.0000e+00
       21 -1    0    0  501  503 -0.0000000000e+00 -0.0000000000e+00 -7.7559509084e+01 7.7559509084e+01 0.0000000000e+00 0.0000e+00 1.0000e+00
        6  1    1    2  501    0 +5.6007413769e+01 -5.7805774125e+01 +1.9100688510e+02 2.6998327369e+02 1.7300000000e+02 0.0000e+00 1.0000e+00
       -6  1    1    2    0  502 -5.6007413769e+01 +5.7805774125e+01 +2.0100197519e+02 2.7714460476e+02 1.7300000000e+02 0.0000e+00 1.0000e+00
<mgrwt>
<rscale>  2 0.19080707E+03</rscale>
<asrwt>0</asrwt>
<pdfrwt beam="1">  1       21 0.72241285E-01 0.19080707E+03</pdfrwt>
<pdfrwt beam="2">  1       21 0.11932233E-01 0.19080707E+03</pdfrwt>
<totfact> 0.10252207E+05</totfact>
</mgrwt>
</event>
<event>
 4      2 +5.6305390e+02 1.95803600e+02 7.54677100e-03 1.15332900e-01
       21 -1    0    0  503  502 +0.0000000000e+00 +0.0000000000e+00 +1.2574526736e+02 1.2574526736e+02 0.0000000000e+00 0.0000e+00 -1.0000e+00
       21 -1    0    0  501  503 -0.0000000000e+00 -0.0000000000e+00 -3.6092136300e+02 3.6092136300e+02 0.0000000000e+00 0.0000e+00 -1.0000e+00
        6  1    1    2  501    0 -1.5678044243e+01 -9.0356316117e+01 -2.1346024407e+02 2.8966246000e+02 1.7300000000e+02 0.0000e+00 -1.0000e+00
       -6  1    1    2    0  502 +1.5678044243e+01 +9.0356316117e+01 -2.1715851569e+01 1.9700417037e+02 1.7300000000e+02 0.0000e+00 -1.0000e+00
<mgrwt>
<rscale>  2 0.19580364E+03</rscale>
<asrwt>0</asrwt>
<pdfrwt beam="1">  1       21 0.19345426E-01 0.19580364E+03</pdfrwt>
<pdfrwt beam="2">  1       21 0.55526363E-01 0.19580364E+03</pdfrwt>
<totfact> 0.74979164E+04</totfact>
</mgrwt>
</event>
<event>
 4      2 +5.6305390e+02 1.88331100e+02 7.54677100e-03 1.15997500e-01
       21 -1    0    0  503  502 +0.0000000000e+00 +0.0000000000e+00 +6.1183765412e+01 6.1183765412e+01 0.0000000000e+00 0.0000e+00 -1.0000e+00
       21 -1    0    0  501  503 -0.0000000000e+00 -0.0000000000e+00 -6.3412908074e+02 6.3412908074e+02 0.0000000000e+00 0.0000e+00 -1.0000e+00
        6  1    1    2  501    0 +5.6231536052e+01 -4.8760874516e+01 -3.8832057691e+02 4.3158021152e+02 1.7300000000e+02 0.0000e+00 -1.0000e+00
       -6  1    1    2    0  502 -5.6231536052e+01 +4.8760874516e+01 -1.8462473842e+02 2.6373263463e+02 1.7300000000e+02 0.0000e+00 -1.0000e+00
<mgrwt>
<rscale>  2 0.18833111E+03</rscale>
<asrwt>0</asrwt>
<pdfrwt beam="1">  1       21 0.94128874E-02 0.18833111E+03</pdfrwt>
<pdfrwt beam="2">  1       21 0.97558316E-01 0.18833111E+03</pdfrwt>
<totfact> 0.78721108E+04</totfact>
</mgrwt>
</event>
<event>
 4      2 +5.6305390e+02 3.59534100e+02 7.54677100e-03 1.05876800e-01
       21 -1    0    0  503  502 +0.0000000000e+00 +0.0000000000e+00 +1.9744781805e+02 1.9744781805e+02 0.0000000000e+00 0.0000e+00 -1.0000e+00
       21 -1    0    0  501  503 -0.0000000000e+00 -0.0000000000e+00 -6.5495324304e+02 6.5495324304e+02 0.0000000000e+00 0.0000e+00 1.0000e+00
        6  1    1    2  501    0 -8.5379400209e+01 -3.0339105945e+02 -2.3748704812e+02 4.3088847160e+02 1.7300000000e+02 0.0000e+00 1.0000e+00
       -6  1    1    2    0  502 +8.5379400209e+01 +3.0339105945e+02 -2.2001837686e+02 4.2151258948e+02 1.7300000000e+02 0.0000e+00 -1.0000e+00
<mgrwt>
<rscale>  2 0.35953411E+03</rscale>
<asrwt>0</asrwt>
<pdfrwt beam="1">  1       21 0.30376587E-01 0.35953411E+03</pdfrwt>
<pdfrwt beam="2">  1       21 0.10076204E+00 0.35953411E+03</pdfrwt>
<totfact> 0.76603550E+03</totfact>
</mgrwt>
</event>
<event>
 4      2 +5.6305390e+02 1.89634200e+02 7.54677100e-03 1.15879200e-01
       21 -1    0    0  503  502 +0.0000000000e+00 +0.0000000000e+00 +2.4108150989e+02 2.4108150989e+02 0.0000000000e+00 0.0000e+00 1.0000e+00
       21 -1    0    0  501  503 -0.0000000000e+00 -0.0000000000e+00 -2.1064785350e+02 2.1064785350e+02 0.0000000000e+00 0.0000e+00 -1.0000e+00
        6  1    1    2  501    0 +1.7131254721e+00 +7.7647976330e+01 -1.0680670543e+02 2.1764378087e+02 1.7300000000e+02 0.0000e+00 -1.0000e+00
       -6  1    1    2    0  502 -1.7131254721e+00 -7.7647976330e+01 +1.3724036183e+02 2.3408558252e+02 1.7300000000e+02 0.0000e+00 1.0000e+00
<mgrwt>
<rscale>  2 0.18963423E+03</rscale>
<asrwt>0</asrwt>
<pdfrwt beam="1">  1       21 0.37089463E-01 0.18963423E+03</pdfrwt>
<pdfrwt beam="2">  1       21 0.32407362E-01 0.18963423E+03</pdfrwt>
<totfact> 0.64317586E+04</totfact>
</mgrwt>
</event>
<event>
 4      2 +5.6305390e+02 2.28583200e+02 7.54677100e-03 1.12764100e-01
       21 -1    0    0  503  502 +0.0000000000e+00 +0.0000000000e+00 +6.4177287711e+02 6.4177287711e+02 0.0000000000e+00 0.0000e+00 -1.0000e+00
       21 -1    0    0  501  503 -0.0000000000e+00 -0.0000000000e+00 -2.7567046915e+02 2.7567046915e+02 0.0000000000e+00 0.0000e+00 1.0000e+00
        6  1    1    2  501    0 -1.4820472574e+02 -1.8884662143e+01 -2.0201923978e+02 3.0506072254e+02 1.7300000000e+02 0.0000e+00 1.0000e+00
       -6  1    1    2    0  502 +1.4820472574e+02 +1.8884662143e+01 +5.6812164775e+02 6.1238262372e+02 1.7300000000e+02 0.0000e+00 -1.0000e+00
<mgrwt>
<rscale>  2 0.22858318E+03</rscale>
<asrwt>0</asrwt>
<pdfrwt beam="1">  1       21 0.98734289E-01 0.22858318E+03</pdfrwt>
<pdfrwt beam="2">  1       21 0.42410841E-01 0.22858318E+03</pdfrwt>
<totfact> 0.44032038E+03</totfact>
</mgrwt>
</event>
<event>
 4      3 +5.6305390e+02 8.62015200e+01 7.54677100e-03 1.31232000e-01
        2 -1    0    0  501    0 +0.0000000000e+00 +0.0000000000e+00 +6.6586695763e+02 6.6586695763e+02 0.0000000000e+00 0.0000e+00 -1.0000e+00
       -2 -1    0    0    0  501 -0.0000000000e+00 -0.0000000000e+00 -1.1414583243e+01 1.1414583243e+01 0.0000000000e+00 0.0000e+00 1.0000e+00
       24  1    1    2    0    0 -2.4847529870e+01 -1.8603377841e+01 +3.7785555763e+02 3.8756357387e+02 8.0419002446e+01 0.0000e+00 -1.0000e+00
      -24  1    1    2    0    0 +2.4847529870e+01 +1.8603377841e+01 +2.7659681675e+02 2.8971796700e+02 8.0419002446e+01 0.0000e+00 1.0000e+00
<mgrwt>
<rscale>  0 0.86201516E+02</rscale>
<asrwt>0</asrwt>
<pdfrwt beam="1">  1        2 0.10244104E+00 0.86201516E+02</pdfrwt>
<pdfrwt beam="2">  1       -2 0.17560902E-02 0.86201516E+02</pdfrwt>
<totfact> 0.37192843E+04</totfact>
</mgrwt>
</event>
<event>
 4      2 +5.6305390e+02 2.04254000e+02 7.54677100e-03 1.14619900e-01
       21 -1    0    0  501  502 +0.0000000000e+00 +0.0000000000e+00 +1.0895689958e+02 1.0895689958e+02 0.0000000000e+00 0.0000e+00 -1.0000e+00
       21 -1    0    0  502  503 -0.0000000000e+00 -0.0000000000e+00 -1.2019954041e+03 1.2019954041e+03 0.0000000000e+00 0.0000e+00 -1.0000e+00
        6  1    1    2  501    0 -9.2065928699e+01 +5.7572227382e+01 -5.4255319739e+00 2.0432604579e+02 1.7300000000e+02 0.0000e+00 -1.0000e+00
       -6  1    1    2    0  503 +9.2065928699e+01 -5.7572227382e+01 -1.0876129725e+03 1.1066262578e+03 1.7300000000e+02 0.0000e+00 -1.0000e+00
<mgrwt>
<rscale>  2 0.20425400E+03</rscale>
<asrwt>0</asrwt>
<pdfrwt beam="1">  1       21 0.16762601E-01 0.20425400E+03</pdfrwt>
<pdfrwt beam="2">  1       21 0.18492236E+00 0.20425400E+03</pdfrwt>
<totfact> 0.53414594E+03</totfact>
</mgrwt>
</event>
<event>
 4      2 +5.6305390e+02 2.23430000e+02 7.54677100e-03 1.13135100e-01
        2 -1    0    0  502    0 +0.0000000000e+00 +0.0000000000e+00 +1.7370584645e+03 1.7370584645e+03 0.0000000000e+00 0.0000e+00 1.0000e+00
       -2 -1    0    0    0  501 -0.0000000000e+00 -0.0000000000e+00 -2.9028067326e+01 2.9028067326e+01 0.0000000000e+00 0.0000e+00 -1.0000e+00
        6  1    1    2  502    0 +1.0355651145e+02 -9.6270478214e+01 +9.4216699190e+02 9.6829726669e+02 1.7300000000e+02 0.0000e+00 -1.0000e+00
       -6  1    1    2    0  501 -1.0355651145e+02 +9.6270478214e+01 +7.6586340527e+02 7.9778926514e+02 1.7300000000e+02 0.0000e+00 1.0000e+00
<mgrwt>
<rscale>  2 0.22342998E+03</rscale>
<asrwt>0</asrwt>
<pdfrwt beam="1">  1        2 0.26723968E+00 0.22342998E+03</pdfrwt>
<pdfrwt beam="2">  1       -2 0.44658579E-02 0.22342998E+03</pdfrwt>
<totfact> 0.23780339E+03</totfact>
</mgrwt>
</event>
<event>
 4      3 +5.6305390e+02 2.16557000e+02 7.54677100e-03 1.13647600e-01
       -2 -1    0    0    0  501 -0.0000000000e+00 +0.0000000000e+00 +5.8143125735e+01 5.8143125735e+01 0.0000000000e+00 0.0000e+00 1.0000e+00
        2 -1    0    0  501    0 +0.0000000000e+00 -0.0000000000e+00 -1.3471817702e+03 1.3471817702e+03 0.0000000000e+00 0.0000e+00 -1.0000e+00
       24  1    1    2    0    0 +1.0906929531e+02 +1.6891889228e+02 -1.0896356279e+03 1.1109467678e+03 8.0419002446e+01 0.0000e+00 -1.0000e+00
      -24  1    1    2    0    0 -1.0906929531e+02 -1.6891889228e+02 -1.9940301655e+02 2.9437812812e+02 8.0419002446e+01 0.0000e+00 1.0000e+00
<mgrwt>
<rscale>  0 0.21655697E+03</rscale>
<asrwt>0</asrwt>
<pdfrwt beam="1">  1        2 0.20725873E+00 0.21655697E+03</pdfrwt>
<pdfrwt beam="2">  1       -2 0.89450963E-02 0.21655697E+03</pdfrwt>
<totfact> 0.13142030E+03</totfact>
</mgrwt>
</event>
<event>
 4      2 +5.6305390e+02 2.62148900e+02 7.54677100e-03 1.10585900e-01
       21 -1    0    0  501  502 +0.0000000000e+00 +0.0000000000e+00 +1.1403346153e+03 1.1403346153e+03 0.0000000000e+00 0.0000e+00 1.0000e+00
       21 -1    0    0  502  503 -0.0000000000e+00 -0.0000000000e+00 -8.0729947612e+02 8.0729947612e+02 0.0000000000e+00 0.0000e+00 1.0000e+00
        6  1    1    2  501    0 -1.9695924774e+02 +2.7726251823e-01 +1.1032820638e+03 1.1339988247e+03 1.7300000000e+02 0.0000e+00 1.0000e+00
       -6  1    1    2    0  503 +1.9695924774e+02 -2.7726251823e-01 -7.7024692468e+02 8.1363526664e+02 1.7300000000e+02 0.0000e+00 1.0000e+00
<mgrwt>
<rscale>  2 0.26214885E+03</rscale>
<asrwt>0</asrwt>
<pdfrwt beam="1">  1       21 0.17543610E+00 0.26214885E+03</pdfrwt>
<pdfrwt beam="2">  1       21 0.12419992E+00 0.26214885E+03</pdfrwt>
<totfact> 0.87020003E+01</totfact>
</mgrwt>
</event>
<event>
 4      2 +5.6305390e+02 2.27128300e+02 7.54677100e-03 1.12867700e-01
       21 -1    0    0  501  502 +0.0000000000e+00 +0.0000000000e+00 +7.9649972094e+02 7.9649972094e+02 0.0000000000e+00 0.0000e+00 1.0000e+00
       21 -1    0    0  502  503 -0.0000000000e+00 -0.0000000000e+00 -9.2496980335e+01 9.2496980335e+01 0.0000000000e+00 0.0000e+00 1.0000e+00
        6  1    1    2  501    0 +1.2085517138e+02 +8.3977945066e+01 +5.9537724012e+02 6.3722941376e+02 1.7300000000e+02 0.0000e+00 1.0000e+00
       -6  1    1    2    0  503 -1.2085517138e+02 -8.3977945066e+01 +1.0862550048e+02 2.5176728751e+02 1.7300000000e+02 0.0000e+00 1.0000e+00
<mgrwt>
<rscale>  2 0.22712831E+03</rscale>
<asrwt>0</asrwt>
<pdfrwt beam="1">  1       21 0.12253841E+00 0.22712831E+03</pdfrwt>
<pdfrwt beam="2">  1       21 0.14230305E-01 0.22712831E+03</pdfrwt>
<totfact> 0.21193914E+04</totfact>
</mgrwt>
</event>
<event>
 4      2 +5.6305390e+02 1.85128900e+02 7.54677100e-03 1.16293000e-01
       21 -1    0    0  503  502 +0.0000000000e+00 +0.0000000000e+00 +3.3202933990e+02 3.3202933990e+02 0.0000000000e+00 0.0000e+00 1.0000e+00
       21 -1    0    0  501  503 -0.0000000000e+00 -0.0000000000e+00 -1.9928698278e+02 1.9928698278e+02 0.0000000000e+00 0.0000e+00 1.0000e+00
        6  1    1    2  501    0 -4.9721098884e+01 +4.3261160543e+01 -1.1807360019e+02 2.1957707246e+02 1.7300000000e+02 0.0000e+00 1.0000e+00
       -6  1    1    2    0  502 +4.9721098884e+01 -4.3261160543e+01 +2.5081595731e+02 3.1173925022e+02 1.7300000000e+02 0.0000e+00 1.0000e+00
<mgrwt>
<rscale>  2 0.18512892E+03</rscale>
<asrwt>0</asrwt>
<pdfrwt beam="1">  1       21 0.51081437E-01 0.18512892E+03</pdfrwt>
<pdfrwt beam="2">  1       21 0.30659536E-01 0.18512892E+03</pdfrwt>
<totfact> 0.37359039E+04</totfact>
</mgrwt>
</event>
<event>
 4      2 +5.6305390e+02 2.07686900e+02 7.54677100e-03 1.14341100e-01
       21 -1    0    0  501  502 +0.0000000000e+00 +0.0000000000e+00 +2.3489126623e+02 2.3489126623e+02 0.0000000000e+00 0.0000e+00 1.0000e+00
       21 -1    0    0  502  503 -0.0000000000e+00 -0.0000000000e+00 -5.8239071525e+02 5.8239071525e+02 0.0000000000e+00 0.0000e+00 -1.0000e+00
        6  1    1    2  501    0 +1.1319542941e+02 -1.9790069915e+01 +1.6438448239e+02 2.6486998727e+02 1.7300000000e+02 0.0000e+00 1.0000e+00
       -6  1    1    2    0  503 -1.1319542941e+02 +1.9790069915e+01 -5.1188393141e+02 5.5241199420e+02 1.7300000000e+02 0.0000e+00 -1.0000e+00
<mgrwt>
<rscale>  2 0.20768691E+03</rscale>
<asrwt>0</asrwt>
<pdfrwt beam="1">  1       21 0.36137118E-01 0.20768691E+03</pdfrwt>
<pdfrwt beam="2">  1       21 0.89598572E-01 0.20768691E+03</pdfrwt>
<totfact> 0.77539074E+03</totfact>
</mgrwt>
</event>
<event>
 4      2 +5.6305390e+02 2.31678400e+02 7.54677100e-03 1.12546400e-01
       21 -1    0    0  503  502 +0.0000000000e+00 +0.0000000000e+00 +3.2642910549e+02 3.2642910549e+02 0.0000000000e+00 0.0000e+00 1.0000e+00
       21 -1    0    0  501  503 -0.0000000000e+00 -0.0000000000e+00 -1.8025037337e+02 1.8025037337e+02 0.0000000000e+00 0.0000e+00 -1.0000e+00
        6  1    1    2  501    0 +1.5261116502e+02 +2.1347114251e+01 +1.4814238506e+02 2.7499278759e+02 1.7300000000e+02 0.0000e+00 -1.0000e+00
       -6  1    1    2    0  502 -1.5261116502e+02 -2.1347114251e+01 -1.9636529331e+00 2.3168669127e+02 1.7300000000e+02 0.0000e+00 1.0000e+00
<mgrwt>
<rscale>  2 0.23167837E+03</rscale>
<asrwt>0</asrwt>
<pdfrwt beam="1">  1       21 0.50219862E-01 0.23167837E+03</pdfrwt>
<pdfrwt beam="2">  1       21 0.27730827E-01 0.23167837E+03</pdfrwt>
<totfact> 0.46012179E+04</totfact>
</mgrwt>
</event>
<event>
 4      2 +5.6305390e+02 1.92099900e+02 7.54677100e-03 1.15658100e-01
       21 -1    0    0  501  502 +0.0000000000e+00 +0.0000000000e+00 +2.3025625381e+02 2.3025625381e+02 0.0000000000e+00 0.0000e+00 1.0000e+00
       21 -1    0    0  502  503 -0.0000000000e+00 -0.0000000000e+00 -1.7489514168e+02 1.7489514168e+02 0.0000000000e+00 0.0000e+00 1.0000e+00
        6  1    1    2  501    0 +1.3303110972e+01 -8.2440255003e+01 +8.6267410536e+01 2.1058118275e+02 1.7300000000e+02 0.0000e+00 1.0000e+00
       -6  1    1    2    0  503 -1.3303110972e+01 +8.2440255003e+01 -3.0906298404e+01 1.9457021274e+02 1.7300000000e+02 0.0000e+00 1.0000e+00
<mgrwt>
<rscale>  2 0.19209989E+03</rscale>
<asrwt>0</asrwt>
<pdfrwt beam="1">  1       21 0.35424039E-01 0.19209989E+03</pdfrwt>
<pdfrwt beam="2">  1       21 0.26906945E-01 0.19209989E+03</pdfrwt>
<totfact> 0.10111207E+05</totfact>
</mgrwt>
</event>
<event>
 4      2 +5.6305390e+02 1.84844300e+02 7.54677100e-03 1.16319500e-01
       21 -1    0    0  503  502 +0.0000000000e+00 +0.0000000000e+00 +6.2211953164e+02 6.2211953164e+02 0.0000000000e+00 0.0000e+00 -1.0000e+00
       21 -1    0    0  501  503 -0.0000000000e+00 -0.0000000000e+00 -6.7675270869e+01 6.7675270869e+01 0.0000000000e+00 0.0000e+00 -1.0000e+00
        6  1    1    2  501    0 +4.4676875400e+01 -4.7354036238e+01 +1.2749423938e+02 2.2454890118e+02 1.7300000000e+02 0.0000e+00 -1.0000e+00
       -6  1    1    2    0  502 -4.4676875400e+01 +4.7354036238e+01 +4.2695002139e+02 4.6524590133e+02 1.7300000000e+02 0.0000e+00 -1.0000e+00
<mgrwt>
<rscale>  2 0.18484433E+03</rscale>
<asrwt>0</asrwt>
<pdfrwt beam="1">  1       21 0.95710693E-01 0.18484433E+03</pdfrwt>
<pdfrwt beam="2">  1       21 0.10411581E-01 0.18484433E+03</pdfrwt>
<totfact> 0.69023384E+04</totfact>
</mgrwt>
</event>
<event>
 4      3 +5.6305390e+02 9.14565200e+01 7.54677100e-03 1.29936200e-01
       -3 -1    0    0    0  501 -0.0000000000e+00 +0.0000000000e+00 +3.2679536961e+02 3.2679536961e+02 0.0000000000e+00 0.0000e+00 1.0000e+00
        3 -1    0    0  501    0 +0.0000000000e+00 -0.0000000000e+00 -2.5641688765e+01 2.5641688765e+01 0.0000000000e+00 0.0000e+00 -1.0000e+00
       24  1    1    2    0    0 +2.8802949594e+01 +3.2672137519e+01 +1.5810440322e+02 1.8265075075e+02 8.0419002446e+01 0.0000e+00 0.0000e+00
      -24  1    1    2    0    0 -2.8802949594e+01 -3.2672137519e+01 +1.4304927762e+02 1.6978630763e+02 8.0419002446e+01 0.0000e+00 -1.0000e+00
<mgrwt>
<rscale>  0 0.91456517E+02</rscale>
<asrwt>0</asrwt>
<pdfrwt beam="1">  1        3 0.39448754E-02 0.91456517E+02</pdfrwt>
<pdfrwt beam="2">  1       -3 0.50276208E-01 0.91456517E+02</pdfrwt>
<totfact> 0.27756957E+03</totfact>
</mgrwt>
</event>
<event>
 4      2 +5.6305390e+02 2.79856600e+02 7.54677100e-03 1.09576700e-01
       21 -1    0    0  503  502 +0.0000000000e+00 +0.0000000000e+00 +1.4958067589e+02 1.4958067589e+02 0.0000000000e+00 0.0000e+00 -1.0000e+00
       21 -1    0    0  501  503 -0.0000000000e+00 -0.0000000000e+00 -8.7428113092e+02 8.7428113092e+02 0.0000000000e+00 0.0000e+00 -1.0000e+00
        6  1    1    2  501    0 -2.1869377148e+02 -2.3742920891e+01 -6.8657418170e+02 7.4142012311e+02 1.7300000000e+02 0.0000e+00 -1.0000e+00
       -6  1    1    2    0  502 +2.1869377148e+02 +2.3742920891e+01 -3.8126273333e+01 2.8244168370e+02 1.7300000000e+02 0.0000e+00 -1.0000e+00
<mgrwt>
<rscale>  2 0.27985656E+03</rscale>
<asrwt>0</asrwt>
<pdfrwt beam="1">  1       21 0.23012411E-01 0.27985656E+03</pdfrwt>
<pdfrwt beam="2">  1       21 0.13450479E+00 0.27985656E+03</pdfrwt>
<totfact> 0.66330720E+03</totfact>
</mgrwt>
</event>
<event>
 4      2 +5.6305390e+02 2.71947200e+02 7.54677100e-03 1.10017000e-01
        2 -1    0    0  502    0 +0.0000000000e+00 +0.0000000000e+00 +2.2148116629e+03 2.2148116629e+03 0.0000000000e+00 0.0000e+00 1.0000e+00
       -2 -1    0    0    0  501 -0.0000000000e+00 -0.0000000000e+00 -4.6804389157e+01 4.6804389157e+01 0.0000000000e+00 0.0000e+00 -1.0000e+00
        6  1    1    2  502    0 +1.3105092782e+02 -1.6386556188e+02 +4.7864706865e+02 5.5050729730e+02 1.7300000000e+02 0.0000e+00 -1.0000e+00
       -6  1    1    2    0  501 -1.3105092782e+02 +1.6386556188e+02 +1.6893602050e+03 1.7111087547e+03 1.7300000000e+02 0.0000e+00 1.0000e+00
<mgrwt>
<rscale>  2 0.27194718E+03</rscale>
<asrwt>0</asrwt>
<pdfrwt beam="1">  1        2 0.34074017E+00 0.27194718E+03</pdfrwt>
<pdfrwt beam="2">  1       -2 0.72006770E-02 0.27194718E+03</pdfrwt>
<totfact> 0.63792476E+02</totfact>
</mgrwt>
</event>
<event>
 4      2 +5.6305390e+02 1.82036100e+02 7.54677100e-03 1.16584700e-01
       21 -1    0    0  503  502 +0.0000000000e+00 +0.0000000000e+00 +1.8466994956e+02 1.8466994956e+02 0.0000000000e+00 0.0000e+00 -1.0000e+00
       21 -1    0    0  501  503 -0.0000000000e+00 -0.0000000000e+00 -4.0876724208e+02 4.0876724208e+02 0.0000000000e+00 0.0000e+00 -1.0000e+00
        6  1    1    2  501    0 +5.2965735730e+01 -2.0069644002e+01 -3.3429499190e+02 3.8064458670e+02 1.7300000000e+02 0.0000e+00 -1.0000e+00
       -6  1    1    2    0  502 -5.2965735730e+01 +2.0069644002e+01 +1.1019769938e+02 2.1279260495e+02 1.7300000000e+02 0.0000e+00 -1.0000e+00
<mgrwt>
<rscale>  2 0.18203615E+03</rscale>
<asrwt>0</asrwt>
<pdfrwt beam="1">  1       21 0.28410761E-01 0.18203615E+03</pdfrwt>
<pdfrwt beam="2">  1       21 0.62887268E-01 0.18203615E+03</pdfrwt>
<totfact> 0.27898084E+04</totfact>
</mgrwt>
</event>
<event>
 4      2 +5.6305390e+02 1.77288000e+02 7.54677100e-03 1.17045400e-01
       -2 -1    0    0    0  501 -0.0000000000e+00 +0.0000000000e+00 +4.6087949637e+01 4.6087949637e+01 0.0000000000e+00 0.0000e+00 1.0000e+00
        2 -1    0    0  502    0 +0.0000000000e+00 -0.0000000000e+00 -6.8602592452e+02 6.8602592452e+02 0.0000000000e+00 0.0000e+00 -1.0000e+00
        6  1    1    2  502    0 -1.5328070288e+01 -3.5596291761e+01 -2.9185620940e+02 3.4148366387e+02 1.7300000000e+02 0.0000e+00 -1.0000e+00
       -6  1    1    2    0  501 +1.5328070288e+01 +3.5596291761e+01 -3.4808176548e+02 3.9063021028e+02 1.7300000000e+02 0.0000e+00 1.0000e+00
<mgrwt>
<rscale>  2 0.17728803E+03</rscale>
<asrwt>0</asrwt>
<pdfrwt beam="1">  1        2 0.10554243E+00 0.17728803E+03</pdfrwt>
<pdfrwt beam="2">  1       -2 0.70904549E-02 0.17728803E+03</pdfrwt>
<totfact> 0.48166734E+03</totfact>
</mgrwt>
</event>
<event>
 4      2 +5.6305390e+02 1.95954600e+02 7.54677100e-03 1.15319800e-01
       21 -1    0    0  501  502 +0.0000000000e+00 +0.0000000000e+00 +1.4122207413e+02 1.4122207413e+02 0.0000000000e+00 0.0000e+00 1.0000e+00
       21 -1    0    0  502  503 -0.0000000000e+00 -0.0000000000e+00 -5.7304838338e+02 5.7304838338e+02 0.0000000000e+00 0.0000e+00 1.0000e+00
        6  1    1    2  501    0 -8.8203860459e+01 -2.6254241061e+01 +4.2984252767e+01 2.0061368886e+02 1.7300000000e+02 0.0000e+00 1.0000e+00
       -6  1    1    2    0  503 +8.8203860459e+01 +2.6254241061e+01 -4.7481056202e+02 5.1365676865e+02 1.7300000000e+02 0.0000e+00 1.0000e+00
<mgrwt>
<rscale>  2 0.19595460E+03</rscale>
<asrwt>0</asrwt>
<pdfrwt beam="1">  1       21 0.21726473E-01 0.19595460E+03</pdfrwt>
<pdfrwt beam="2">  1       21 0.88161290E-01 0.19595460E+03</pdfrwt>
<totfact> 0.21734090E+04</totfact>
</mgrwt>
</event>
<event>
 4      3 +5.6305390e+02 8.22840100e+01 7.54677100e-03 1.32269200e-01
       -2 -1    0    0    0  501 -0.0000000000e+00 +0.0000000000e+00 +4.8870832843e+00 4.8870832843e+00 0.0000000000e+00 0.0000e+00 1.0000e+00
        2 -1    0    0  501    0 +0.0000000000e+00 -0.0000000000e+00 -1.4121569710e+03 1.4121569710e+03 0.0000000000e+00 0.0000e+00 -1.0000e+00
       24  1    1    2    0    0 -1.3510614861e+01 -1.0995705948e+01 -8.0112847338e+02 8.0534308781e+02 8.0419002446e+01 0.0000e+00 1.0000e+00
      -24  1    1    2    0    0 +1.3510614861e+01 +1.0995705948e+01 -6.0614141438e+02 6.1170096652e+02 8.0419002446e+01 0.0000e+00 0.0000e+00
<mgrwt>
<rscale>  0 0.82284009E+02</rscale>
<asrwt>0</asrwt>
<pdfrwt beam="1">  1        2 0.21725485E+00 0.82284009E+02</pdfrwt>
<pdfrwt beam="2">  1       -2 0.75185922E-03 0.82284009E+02</pdfrwt>
<totfact> 0.44516993E+04</totfact>
</mgrwt>
</event>
<event>
 4      2 +5.6305390e+02 2.07334600e+02 7.54677100e-03 1.14369400e-01
       21 -1    0    0  503  502 +0.0000000000e+00 +0.0000000000e+00 +8.2648093141e+02 8.2648093141e+02 0.0000000000e+00 0.0000e+00 -1.0000e+00
       21 -1    0    0  501  503 -0.0000000000e+00 -0.0000000000e+00 -5.5806802721e+01 5.5806802721e+01 0.0000000000e+00 0.0000e+00 1.0000e+00
        6  1    1    2  501    0 -1.1318178020e+02 -1.5764670848e+01 +5.0035930822e+02 5.4161524862e+02 1.7300000000e+02 0.0000e+00 -1.0000e+00
       -6  1    1    2    0  502 +1.1318178020e+02 +1.5764670848e+01 +2.7031482047e+02 3.4067248551e+02 1.7300000000e+02 0.0000e+00 -1.0000e+00
<mgrwt>
<rscale>  2 0.20733461E+03</rscale>
<asrwt>0</asrwt>
<pdfrwt beam="1">  1       21 0.12715090E+00 0.20733461E+03</pdfrwt>
<pdfrwt beam="2">  1       21 0.85856626E-02 0.20733461E+03</pdfrwt>
<totfact> 0.48103770E+04</totfact>
</mgrwt>
</event>
<event>
 4      2 +5.6305390e+02 1.81212600e+02 7.54677100e-03 1.16663500e-01
       21 -1    0    0  501  502 +0.0000000000e+00 +0.0000000000e+00 +9.5451920291e+01 9.5451920291e+01 0.0000000000e+00 0.0000e+00 1.0000e+00
       21 -1    0    0  502  503 -0.0000000000e+00 -0.0000000000e+00 -3.5654663985e+02 3.5654663985e+02 0.0000000000e+00 0.0000e+00 1.0000e+00
        6  1    1    2  501    0 -4.7481150094e+01 -2.5584036851e+01 -8.8197575697e+01 2.0153613799e+02 1.7300000000e+02 0.0000e+00 1.0000e+00
       -6  1    1    2    0  503 +4.7481150094e+01 +2.5584036851e+01 -1.7289714386e+02 2.5046242216e+02 1.7300000000e+02 0.0000e+00 1.0000e+00
<mgrwt>
<rscale>  2 0.18121259E+03</rscale>
<asrwt>0</asrwt>
<pdfrwt beam="1">  1       21 0.14684911E-01 0.18121259E+03</pdfrwt>
<pdfrwt beam="2">  1       21 0.54853329E-01 0.18121259E+03</pdfrwt>
<totfact> 0.12840814E+05</totfact>
</mgrwt>
</event>
<event>
 4      2 +5.6305390e+02 4.86469800e+02 7.54677100e-03 1.01737200e-01
       21 -1    0    0  501  502 +0.0000000000e+00 +0.0000000000e+00 +1.3097422834e+03 1.3097422834e+03 0.0000000000e+00 0.0000e+00 1.0000e+00
       21 -1    0    0  502  503 -0.0000000000e+00 -0.0000000000e+00 -2.5134662231e+02 2.5134662231e+02 0.0000000000e+00 0.0000e+00 1.0000e+00
        6  1    1    2  501    0 +4.4659813836e+02 +8.5287333662e+01 +1.1534290745e+02 4.9995681090e+02 1.7300000000e+02 0.0000e+00 1.0000e+00
       -6  1    1    2    0  503 -4.4659813836e+02 -8.5287333662e+01 +9.4305275367e+02 1.0611320948e+03 1.7300000000e+02 0.0000e+00 1.0000e+00
<mgrwt>
<rscale>  2 0.48646976E+03</rscale>
<asrwt>0</asrwt>
<pdfrwt beam="1">  1       21 0.20149881E+00 0.48646976E+03</pdfrwt>
<pdfrwt beam="2">  1       21 0.38668712E-01 0.48646976E+03</pdfrwt>
<totfact> 0.68994550E+02</totfact>
</mgrwt>
</event>
<event>
 4      2 +5.6305390e+02 1.78915700e+02 7.54677100e-03 1.16885700e-01
       21 -1    0    0  501  502 +0.0000000000e+00 +0.0000000000e+00 +9.5628872992e+02 9.5628872992e+02 0.0000000000e+00 0.0000e+00 1.0000e+00
       21 -1    0    0  502  503 -0.0000000000e+00 -0.0000000000e+00 -4.9522773466e+01 4.9522773466e+01 0.0000000000e+00 0.0000e+00 1.0000e+00
        6  1    1    2  501    0 +2.2898120469e+01 -3.9465382820e+01 +7.3967193905e+02 7.6100290261e+02 1.7300000000e+02 0.0000e+00 1.0000e+00
       -6  1    1    2    0  503 -2.2898120469e+01 +3.9465382820e+01 +1.6709401740e+02 2.4480860078e+02 1.7300000000e+02 0.0000e+00 1.0000e+00
<mgrwt>
<rscale>  2 0.17891574E+03</rscale>
<asrwt>0</asrwt>
<pdfrwt beam="1">  1       21 0.14712133E+00 0.17891574E+03</pdfrwt>
<pdfrwt beam="2">  1       21 0.76188889E-02 0.17891574E+03</pdfrwt>
<totfact> 0.41412543E+04</totfact>
</mgrwt>
</event>
<event>
 4      3 +5.6305390e+02 8.70416300e+01 7.54677100e-03 1.31017800e-01
        1 -1    0    0  501    0 +0.0000000000e+00 +0.0000000000e+00 +3.7606280790e+00 3.7606280790e+00 0.0000000000e+00 0.0000e+00 -1.0000e+00
       -1 -1    0    0    0  501 -0.0000000000e+00 -0.0000000000e+00 -2.9672221727e+03 2.9672221727e+03 0.0000000000e+00 0.0000e+00 1.0000e+00
       24  1    1    2    0    0 +3.2920230177e+01 +5.0286428571e+00 -2.3234173371e+03 2.3250471753e+03 8.0419002446e+01 0.0000e+00 0.0000e+00
      -24  1    1    2    0    0 -3.2920230177e+01 -5.0286428571e+00 -6.4004420751e+02 6.4593562553e+02 8.0419002446e+01 0.0000e+00 0.0000e+00
<mgrwt>
<rscale>  0 0.87041627E+02</rscale>
<asrwt>0</asrwt>
<pdfrwt beam="1">  1        1 0.57856004E-03 0.87041627E+02</pdfrwt>
<pdfrwt beam="2">  1       -1 0.45649424E+00 0.87041627E+02</pdfrwt>
<totfact> 0.12938728E+02</totfact>
</mgrwt>
</event>
<event>
 4      2 +5.6305390e+02 1.91869300e+02 7.54677100e-03 1.15678600e-01
       21 -1    0    0  501  502 +0.0000000000e+00 +0.0000000000e+00 +1.3411147838e+03 1.3411147838e+03 0.0000000000e+00 0.0000e+00 -1.0000e+00
       21 -1    0    0  502  503 -0.0000000000e+00 -0.0000000000e+00 -2.7694000185e+01 2.7694000185e+01 0.0000000000e+00 0.0000e+00 -1.0000e+00
        6  1    1    2  501    0 -7.3619340873e+01 +3.8275519054e+01 +5.9249077298e+02 6.2278338030e+02 1.7300000000e+02 0.0000e+00 -1.0000e+00
       -6  1    1    2    0  503 +7.3619340873e+01 -3.8275519054e+01 +7.2093001061e+02 7.4602540366e+02 1.7300000000e+02 0.0000e+00 -1.0000e+00
<mgrwt>
<rscale>  2 0.19186929E+03</rscale>
<asrwt>0</asrwt>
<pdfrwt beam="1">  1       21 0.20632530E+00 0.19186929E+03</pdfrwt>
<pdfrwt beam="2">  1       21 0.42606165E-02 0.19186929E+03</pdfrwt>
<totfact> 0.43156511E+04</totfact>
</mgrwt>
</event>
<event>
 4      2 +5.6305390e+02 2.04121800e+02 7.54677100e-03 1.14630700e-01
       21 -1    0    0  501  502 +0.0000000000e+00 +0.0000000000e+00 +2.0627955372e+02 2.0627955372e+02 0.0000000000e+00 0.0000e+00 1.0000e+00
       21 -1    0    0  502  503 -0.0000000000e+00 -0.0000000000e+00 -2.7120027040e+02 2.7120027040e+02 0.0000000000e+00 0.0000e+00 1.0000e+00
        6  1    1    2  501    0 -7.0697705234e+01 +8.2088707251e+01 -1.5306823516e+02 2.5513840557e+02 1.7300000000e+02 0.0000e+00 1.0000e+00
       -6  1    1    2    0  503 +7.0697705234e+01 -8.2088707251e+01 +8.8147518487e+01 2.2234141854e+02 1.7300000000e+02 0.0000e+00 1.0000e+00
<mgrwt>
<rscale>  2 0.20412183E+03</rscale>
<asrwt>0</asrwt>
<pdfrwt beam="1">  1       21 0.31735316E-01 0.20412183E+03</pdfrwt>
<pdfrwt beam="2">  1       21 0.41723119E-01 0.20412183E+03</pdfrwt>
<totfact> 0.52503384E+04</totfact>
</mgrwt>
</event>
<event>
 4      2 +5.6305390e+02 1.90692900e+02 7.54677100e-03 1.15783800e-01
       21 -1    0    0  503  502 +0.0000000000e+00 +0.0000000000e+00 +9.2917497244e+02 9.2917497244e+02 0.0000000000e+00 0.0000e+00 -1.0000e+00
       21 -1    0    0  501  503 -0.0000000000e+00 -0.0000000000e+00 -7.1182094279e+01 7.1182094279e+01 0.0000000000e+00 0.0000e+00 -1.0000e+00
        6  1    1    2  501    0 +5.0082312464e+01 +6.2662223297e+01 +9.3390116340e+01 2.1233347847e+02 1.7300000000e+02 0.0000e+00 -1.0000e+00
       -6  1    1    2    0  502 -5.0082312464e+01 -6.2662223297e+01 +7.6460276182e+02 7.8802358825e+02 1.7300000000e+02 0.0000e+00 -1.0000e+00
<mgrwt>
<rscale>  2 0.19069293E+03</rscale>
<asrwt>0</asrwt>
<pdfrwt beam="1">  1       21 0.14294999E+00 0.19069293E+03</pdfrwt>
<pdfrwt beam="2">  1       21 0.10951092E-01 0.19069293E+03</pdfrwt>
<totfact> 0.23447808E+04</totfact>
</mgrwt>
</event>
<event>
 4      2 +5.6305390e+02 2.92852400e+02 7.54677100e-03 1.08886900e-01
       21 -1    0    0  503  502 +0.0000000000e+00 +0.0000000000e+00 +1.5594278534e+02 1.5594278534e+02 0.0000000000e+00 0.0000e+00 -1.0000e+00
       21 -1    0    0  501  503 -0.0000000000e+00 -0.0000000000e+00 -5.9664177862e+02 5.9664177862e+02 0.0000000000e+00 0.0000e+00 1.0000e+00
        6  1    1    2  501    0 +1.7434866688e+02 +1.5948690655e+02 -3.2560264966e+02 4.3792649665e+02 1.7300000000e+02 0.0000e+00 1.0000e+00
       -6  1    1    2    0  502 -1.7434866688e+02 -1.5948690655e+02 -1.1509634362e+02 3.1465806730e+02 1.7300000000e+02 0.0000e+00 1.0000e+00
<mgrwt>
<rscale>  2 0.29285240E+03</rscale>
<asrwt>0</asrwt>
<pdfrwt beam="1">  1       21 0.23991198E-01 0.29285240E+03</pdfrwt>
<pdfrwt beam="2">  1       21 0.91791043E-01 0.29285240E+03</pdfrwt>
<totfact> 0.15582493E+04</totfact>
</mgrwt>
</event>
<event>
 4      2 +5.6305390e+02 2.48536100e+02 7.54677100e-03 1.11423400e-01
       21 -1    0    0  501  502 +0.0000000000e+00 +0.0000000000e+00 +7.1483304902e+02 7.1483304902e+02 0.0000000000e+00 0.0000e+00 -1.0000e+00
       21 -1    0    0  502  503 -0.0000000000e+00 -0.0000000000e+00 -9.3481195824e+01 9.3481195824e+01 0.0000000000e+00 0.0000e+00 1.0000e+00
        6  1    1    2  501    0 +1.0076205726e+01 -1.7815622243e+02 +4.2181644604e+02 4.8959093503e+02 1.7300000000e+02 0.0000e+00 -1.0000e+00
       -6  1    1    2    0  503 -1.0076205726e+01 +1.7815622243e+02 +1.9953540715e+02 3.1872330981e+02 1.7300000000e+02 0.0000e+00 1.0000e+00
<mgrwt>
<rscale>  2 0.24853605E+03</rscale>
<asrwt>0</asrwt>
<pdfrwt beam="1">  1       21 0.10997431E+00 0.24853605E+03</pdfrwt>
<pdfrwt beam="2">  1       21 0.14381723E-01 0.24853605E+03</pdfrwt>
<totfact> 0.26847665E+04</totfact>
</mgrwt>
</event>
<event>
 4      2 +5.6305390e+02 2.73592800e+02 7.54677100e-03 1.09924100e-01
       21 -1    0    0  501  502 +0.0000000000e+00 +0.0000000000e+00 +4.1880159148e+02 4.1880159148e+02 0.0000000000e+00 0.0000e+00 1.0000e+00
       21 -1    0    0  502  503 -0.0000000000e+00 -0.0000000000e+00 -1.8509739431e+02 1.8509739431e+02 0.0000000000e+00 0.0000e+00 -1.0000e+00
        6  1    1    2  501    0 +2.1186953928e+02 +5.9410551039e+00 +1.7284939081e+02 3.2362000821e+02 1.7300000000e+02 0.0000e+00 1.0000e+00
       -6  1    1    2    0  503 -2.1186953928e+02 -5.9410551039e+00 +6.0854806355e+01 2.8027897757e+02 1.7300000000e+02 0.0000e+00 -1.0000e+00
<mgrwt>
<rscale>  2 0.27359276E+03</rscale>
<asrwt>0</asrwt>
<pdfrwt beam="1">  1       21 0.64431014E-01 0.27359276E+03</pdfrwt>
<pdfrwt beam="2">  1       21 0.28476522E-01 0.27359276E+03</pdfrwt>
<totfact> 0.25162431E+04</totfact>
</mgrwt>
</event>
<event>
 4      3 +5.6305390e+02 1.17118500e+02 7.54677100e-03 1.24792800e-01
        3 -1    0    0  501    0 +0.0000000000e+00 +0.0000000000e+00 +6.0241213814e+01 6.0241213814e+01 0.0000000000e+00 0.0000e+00 -1.0000e+00
       -3 -1    0    0    0  501 -0.0000000000e+00 -0.0000000000e+00 -3.2462809033e+02 3.2462809033e+02 0.0000000000e+00 0.0000e+00 1.0000e+00
       24  1    1    2    0    0 -3.9807627461e+01 +7.5265428409e+01 -2.3734642744e+02 2.6466974609e+02 8.0419002446e+01 0.0000e+00 0.0000e+00
      -24  1    1    2    0    0 +3.9807627461e+01 -7.5265428409e+01 -2.7040449073e+01 1.2019955806e+02 8.0419002446e+01 0.0000e+00 1.0000e+00
<mgrwt>
<rscale>  0 0.11711852E+03</rscale>
<asrwt>0</asrwt>
<pdfrwt beam="1">  1        3 0.92678791E-02 0.11711852E+03</pdfrwt>
<pdfrwt beam="2">  1       -3 0.49942783E-01 0.11711852E+03</pdfrwt>
<totfact> 0.75694774E+02</totfact>
</mgrwt>
</event>
<event>
 4      2 +5.6305390e+02 3.16441300e+02 7.54677100e-03 1.07729900e-01
       21 -1    0    0  501  502 +0.0000000000e+00 +0.0000000000e+00 +9.6844955538e+01 9.6844955538e+01 0.0000000000e+00 0.0000e+00 -1.0000e+00
       21 -1    0    0  502  503 -0.0000000000e+00 -0.0000000000e+00 -1.0478046098e+03 1.0478046098e+03 0.0000000000e+00 0.0000e+00 -1.0000e+00
        6  1    1    2  501    0 +1.6157495503e+02 +2.0999913926e+02 -4.0972418397e+02 5.1769586777e+02 1.7300000000e+02 0.0000e+00 -1.0000e+00
       -6  1    1    2    0  503 -1.6157495503e+02 -2.0999913926e+02 -5.4123547026e+02 6.2695369754e+02 1.7300000000e+02 0.0000e+00 -1.0000e+00
<mgrwt>
<rscale>  2 0.31644131E+03</rscale>
<asrwt>0</asrwt>
<pdfrwt beam="1">  1       21 0.14899224E-01 0.31644131E+03</pdfrwt>
<pdfrwt beam="2">  1       21 0.16120070E+00 0.31644131E+03</pdfrwt>
<totfact> 0.90722761E+03</totfact>
</mgrwt>
</event>
<event>
 4      2 +5.6305390e+02 1.99136500e+02 7.54677100e-03 1.15047000e-01
       21 -1    0    0  503  502 +0.0000000000e+00 +0.0000000000e+00 +9.0293757618e+01 9.0293757618e+01 0.0000000000e+00 0.0000e+00 -1.0000e+00
       21 -1    0    0  501  503 -0.0000000000e+00 -0.0000000000e+00 -5.8217162668e+02 5.8217162668e+02 0.0000000000e+00 0.0000e+00 1.0000e+00
        6  1    1    2  501    0 -9.8617058561e+01 +1.0199696893e+00 -4.1257429504e+02 4.5811888577e+02 1.7300000000e+02 0.0000e+00 1.0000e+00
       -6  1    1    2    0  502 +9.8617058561e+01 -1.0199696893e+00 -7.9303574029e+01 2.1434649853e+02 1.7300000000e+02 0.0000e+00 -1.0000e+00
<mgrwt>
<rscale>  2 0.19913655E+03</rscale>
<asrwt>0</asrwt>
<pdfrwt beam="1">  1       21 0.13891347E-01 0.19913655E+03</pdfrwt>
<pdfrwt beam="2">  1       21 0.89564865E-01 0.19913655E+03</pdfrwt>
<totfact> 0.47752494E+04</totfact>
</mgrwt>
</event>
<event>
 4      3 +5.6305390e+02 8.95958200e+01 7.54677100e-03 1.30383300e-01
        1 -1    0    0  501    0 +0.0000000000e+00 +0.0000000000e+00 +4.4902361569e+01 4.4902361569e+01 0.0000000000e+00 0.0000e+00 -1.0000e+00
       -1 -1    0    0    0  501 -0.0000000000e+00 -0.0000000000e+00 -2.0137471038e+02 2.0137471038e+02 0.0000000000e+00 0.0000e+00 1.0000e+00
       24  1    1    2    0    0 +1.9666010925e+01 +3.4255545728e+01 -1.1948816936e+02 1.4934802634e+02 8.0419002446e+01 0.0000e+00 0.0000e+00
      -24  1    1    2    0    0 -1.9666010925e+01 -3.4255545728e+01 -3.6984179446e+01 9.6929045608e+01 8.0419002446e+01 0.0000e+00 1.0000e+00
<mgrwt>
<rscale>  0 0.89595817E+02</rscale>
<asrwt>0</asrwt>
<pdfrwt beam="1">  1        1 0.69080557E-02 0.89595817E+02</pdfrwt>
<pdfrwt beam="2">  1       -1 0.30980724E-01 0.89595817E+02</pdfrwt>
<totfact> 0.93164297E+03</totfact>
</mgrwt>
</event>
<event>
 4      2 +5.6305390e+02 2.03728800e+02 7.54677100e-03 1.14663100e-01
       21 -1    0    0  501  502 +0.0000000000e+00 +0.0000000000e+00 +2.8028431684e+02 2.8028431684e+02 0.0000000000e+00 0.0000e+00 1.0000e+00
       21 -1    0    0  502  503 -0.0000000000e+00 -0.0000000000e+00 -1.6090789791e+02 1.6090789791e+02 0.0000000000e+00 0.0000e+00 -1.0000e+00
        6  1    1    2  501    0 -1.0450808656e+02 +2.5583215729e+01 +1.2196556547e+02 2.3744692090e+02 1.7300000000e+02 0.0000e+00 1.0000e+00
       -6  1    1    2    0  503 +1.0450808656e+02 -2.5583215729e+01 -2.5891465370e+00 2.0374529384e+02 1.7300000000e+02 0.0000e+00 -1.0000e+00
<mgrwt>
<rscale>  2 0.20372884E+03</rscale>
<asrwt>0</asrwt>
<pdfrwt beam="1">  1       21 0.43120664E-01 0.20372884E+03</pdfrwt>
<pdfrwt beam="2">  1       21 0.24755061E-01 0.20372884E+03</pdfrwt>
<totfact> 0.79431539E+04</totfact>
</mgrwt>
</event>
<event>
 4      2 +5.6305390e+02 2.22330100e+02 7.54677100e-03 1.13215800e-01
       -1 -1    0    0    0  501 -0.0000000000e+00 +0.0000000000e+00 +3.5750157173e+01 3.5750157173e+01 0.0000000000e+00 0.0000e+00 -1.0000e+00
        1 -1    0    0  502    0 +0.0000000000e+00 -0.0000000000e+00 -1.5290698758e+03 1.5290698758e+03 0.0000000000e+00 0.0000e+00 1.0000e+00
        6  1    1    2  502    0 +7.2639648824e+01 +1.1926928693e+02 -5.0456218930e+02 5.5137435944e+02 1.7300000000e+02 0.0000e+00 -1.0000e+00
       -6  1    1    2    0  501 -7.2639648824e+01 -1.1926928693e+02 -9.8875752935e+02 1.0134456736e+03 1.7300000000e+02 0.0000e+00 1.0000e+00
<mgrwt>
<rscale>  2 0.22233012E+03</rscale>
<asrwt>0</asrwt>
<pdfrwt beam="1">  1        1 0.23524147E+00 0.22233012E+03</pdfrwt>
<pdfrwt beam="2">  1       -1 0.55000253E-02 0.22233012E+03</pdfrwt>
<totfact> 0.10472844E+03</totfact>
</mgrwt>
</event>
<event>
 4      2 +5.6305390e+02 2.14242700e+02 7.54677100e-03 1.13825000e-01
       21 -1    0    0  503  502 +0.0000000000e+00 +0.0000000000e+00 +6.7617684154e+02 6.7617684154e+02 0.0000000000e+00 0.0000e+00 -1.0000e+00
       21 -1    0    0  501  503 -0.0000000000e+00 -0.0000000000e+00 -1.6756386723e+02 1.6756386723e+02 0.0000000000e+00 0.0000e+00 -1.0000e+00
        6  1    1    2  501    0 +5.4981256392e+01 +1.1378933175e+02 -7.1078733747e+01 2.2572580040e+02 1.7300000000e+02 0.0000e+00 -1.0000e+00
       -6  1    1    2    0  502 -5.4981256392e+01 -1.1378933175e+02 +5.7969170806e+02 6.1801490837e+02 1.7300000000e+02 0.0000e+00 -1.0000e+00
<mgrwt>
<rscale>  2 0.21424274E+03</rscale>
<asrwt>0</asrwt>
<pdfrwt beam="1">  1       21 0.10402720E+00 0.21424274E+03</pdfrwt>
<pdfrwt beam="2">  1       21 0.25779057E-01 0.21424274E+03</pdfrwt>
<totfact> 0.10514138E+04</totfact>
</mgrwt>
</event>
<event>
 4      3 +5.6305390e+02 8.73958900e+01 7.54677100e-03 1.30928300e-01
       -2 -1    0    0    0  501 -0.0000000000e+00 +0.0000000000e+00 +4.4865383381e+00 4.4865383381e+00 0.0000000000e+00 0.0000e+00 1.0000e+00
        2 -1    0    0  501    0 +0.0000000000e+00 -0.0000000000e+00 -2.1040101109e+03 2.1040101109e+03 0.0000000000e+00 0.0000e+00 -1.0000e+00
       24  1    1    2    0    0 +3.3859446379e+01 -4.9360041925e+00 -1.5103386567e+03 1.5128651295e+03 8.0419002446e+01 0.0000e+00 1.0000e+00
      -24  1    1    2    0    0 -3.3859446379e+01 +4.9360041925e+00 -5.8918491591e+02 5.9563151977e+02 8.0419002446e+01 0.0000e+00 0.0000e+00
<mgrwt>
<rscale>  0 0.87395894E+02</rscale>
<asrwt>0</asrwt>
<pdfrwt beam="1">  1        2 0.32369406E+00 0.87395894E+02</pdfrwt>
<pdfrwt beam="2">  1       -2 0.69023626E-03 0.87395894E+02</pdfrwt>
<totfact> 0.22630736E+04</totfact>
</mgrwt>
</event>
<event>
 4      2 +5.6305390e+02 3.40058300e+02 7.54677100e-03 1.06677100e-01
       21 -1    0    0  501  502 +0.0000000000e+00 +0.0000000000e+00 +1.0231985441e+02 1.0231985441e+02 0.0000000000e+00 0.0000e+00 1.0000e+00
       21 -1    0    0  502  503 -0.0000000000e+00 -0.0000000000e+00 -1.9457545430e+03 1.9457545430e+03 0.0000000000e+00 0.0000e+00 -1.0000e+00
        6  1    1    2  501    0 -2.7800412463e+02 -9.1784369049e+01 -1.5847028436e+03 1.6207784446e+03 1.7300000000e+02 0.0000e+00 -1.0000e+00
       -6  1    1    2    0  503 +2.7800412463e+02 +9.1784369049e+01 -2.5873184491e+02 4.2729595280e+02 1.7300000000e+02 0.0000e+00 1.0000e+00
<mgrwt>
<rscale>  2 0.34005832E+03</rscale>
<asrwt>0</asrwt>
<pdfrwt beam="1">  1       21 0.15741516E-01 0.34005832E+03</pdfrwt>
<pdfrwt beam="2">  1       21 0.29934685E+00 0.34005832E+03</pdfrwt>
<totfact> 0.10698190E+03</totfact>
</mgrwt>
</event>
<event>
 4      2 +5.6305390e+02 1.90292800e+02 7.54677100e-03 1.15819700e-01
       21 -1    0    0  503  502 +0.0000000000e+00 +0.0000000000e+00 +7.9332734352e+02 7.9332734352e+02 0.0000000000e+00 0.0000e+00 -1.0000e+00
       21 -1    0    0  501  503 -0.0000000000e+00 -0.0000000000e+00 -6.0853029115e+01 6.0853029115e+01 0.0000000000e+00 0.0000e+00 -1.0000e+00
        6  1    1    2  501    0 +6.5140992581e+01 -4.5155499381e+01 +1.5272824236e+02 2.4400263124e+02 1.7300000000e+02 0.0000e+00 -1.0000e+00
       -6  1    1    2    0  502 -6.5140992581e+01 +4.5155499381e+01 +5.7974607205e+02 6.1017774139e+02 1.7300000000e+02 0.0000e+00 -1.0000e+00
<mgrwt>
<rscale>  2 0.19029285E+03</rscale>
<asrwt>0</asrwt>
<pdfrwt beam="1">  1       21 0.12205035E+00 0.19029285E+03</pdfrwt>
<pdfrwt beam="2">  1       21 0.93620050E-02 0.19029285E+03</pdfrwt>
<totfact> 0.46207456E+04</totfact>
</mgrwt>
</event>
<event>
 4      2 +5.6305390e+02 1.78919500e+02 7.54677100e-03 1.16885300e-01
       21 -1    0    0  501  502 +0.0000000000e+00 +0.0000000000e+00 +2.7198536832e+02 2.7198536832e+02 0.0000000000e+00 0.0000e+00 1.0000e+00
       21 -1    0    0  502  503 -0.0000000000e+00 -0.0000000000e+00 -1.1769815525e+02 1.1769815525e+02 0.0000000000e+00 0.0000e+00 1.0000e+00
        6  1    1    2  501    0 -4.4335733052e+01 -1.0840558924e+01 +7.7106465990e+01 1.9482705675e+02 1.7300000000e+02 0.0000e+00 1.0000e+00
       -6  1    1    2    0  503 +4.4335733052e+01 +1.0840558924e+01 +7.7180747086e+01 1.9485646683e+02 1.7300000000e+02 0.0000e+00 1.0000e+00
<mgrwt>
<rscale>  2 0.17891946E+03</rscale>
<asrwt>0</asrwt>
<pdfrwt beam="1">  1       21 0.41843903E-01 0.17891946E+03</pdfrwt>
<pdfrwt beam="2">  1       21 0.18107409E-01 0.17891946E+03</pdfrwt>
<totfact> 0.15333600E+05</totfact>
</mgrwt>
</event>
<event>
 4      2 +5.6305390e+02 1.82468000e+02 7.54677100e-03 1.16543600e-01
       21 -1    0    0  503  502 +0.0000000000e+00 +0.0000000000e+00 +1.4556384492e+02 1.4556384492e+02 0.0000000000e+00 0.0000e+00 -1.0000e+00
       21 -1    0    0  501  503 -0.0000000000e+00 -0.0000000000e+00 -2.2971359680e+02 2.2971359680e+02 0.0000000000e+00 0.0000e+00 -1.0000e+00
        6  1    1    2  501    0 +3.7764235742e+01 -4.4039068066e+01 -5.4363498966e+01 1.9039424108e+02 1.7300000000e+02 0.0000e+00 -1.0000e+00
       -6  1    1    2    0  502 -3.7764235742e+01 +4.4039068066e+01 -2.9786252912e+01 1.8488320064e+02 1.7300000000e+02 0.0000e+00 -1.0000e+00
<mgrwt>
<rscale>  2 0.18246802E+03</rscale>
<asrwt>0</asrwt>
<pdfrwt beam="1">  1       21 0.22394438E-01 0.18246802E+03</pdfrwt>
<pdfrwt beam="2">  1       21 0.35340553E-01 0.18246802E+03</pdfrwt>
<totfact> 0.14457589E+05</totfact>
</mgrwt>
</event>
<event>
 4      2 +5.6305390e+02 1.80091100e+02 7.54677100e-03 1.16771500e-01
       21 -1    0    0  503  502 +0.0000000000e+00 +0.0000000000e+00 +1.9490527598e+02 1.9490527598e+02 0.0000000000e+00 0.0000e+00 1.0000e+00
       21 -1    0    0  501  503 -0.0000000000e+00 -0.0000000000e+00 -3.5653617843e+02 3.5653617843e+02 0.0000000000e+00 0.0000e+00 1.0000e+00
        6  1    1    2  501    0 +2.6294096872e+01 +4.2572747458e+01 -2.8216311364e+02 3.3473697294e+02 1.7300000000e+02 0.0000e+00 1.0000e+00
       -6  1    1    2    0  502 -2.6294096872e+01 -4.2572747458e+01 +1.2053221119e+02 2.1670448147e+02 1.7300000000e+02 0.0000e+00 1.0000e+00
<mgrwt>
<rscale>  2 0.18009114E+03</rscale>
<asrwt>0</asrwt>
<pdfrwt beam="1">  1       21 0.29985428E-01 0.18009114E+03</pdfrwt>
<pdfrwt beam="2">  1       21 0.54851719E-01 0.18009114E+03</pdfrwt>
<totfact> 0.33682290E+04</totfact>
</mgrwt>
</event>
<event>
 4      2 +5.6305390e+02 1.82295600e+02 7.54677100e-03 1.16560000e-01
       21 -1    0    0  503  502 +0.0000000000e+00 +0.0000000000e+00 +2.4700100344e+02 2.4700100344e+02 0.0000000000e+00 0.0000e+00 -1.0000e+00
       21 -1    0    0  501  503 -0.0000000000e+00 -0.0000000000e+00 -1.5293043025e+02 1.5293043025e+02 0.0000000000e+00 0.0000e+00 -1.0000e+00
        6  1    1    2  501    0 -5.6893638142e+01 -8.1109216956e+00 -2.2306811133e+01 1.8365529378e+02 1.7300000000e+02 0.0000e+00 -1.0000e+00
       -6  1    1    2    0  502 +5.6893638142e+01 +8.1109216956e+00 +1.1637738432e+02 2.1627613990e+02 1.7300000000e+02 0.0000e+00 -1.0000e+00
<mgrwt>
<rscale>  2 0.18229557E+03</rscale>
<asrwt>0</asrwt>
<pdfrwt beam="1">  1       21 0.38000154E-01 0.18229557E+03</pdfrwt>
<pdfrwt beam="2">  1       21 0.23527758E-01 0.18229557E+03</pdfrwt>
<totfact> 0.11396616E+05</totfact>
</mgrwt>
</event>
<event>
 4      3 +5.6305390e+02 8.56562500e+01 7.54677100e-03 1.31372500e-01
        4 -1    0    0  501    0 +0.0000000000e+00 +0.0000000000e+00 +1.8479218805e+01 1.8479218805e+01 0.0000000000e+00 0.0000e+00 -1.0000e+00
       -4 -1    0    0    0  501 -0.0000000000e+00 -0.0000000000e+00 -4.6650606523e+02 4.6650606523e+02 0.0000000000e+00 0.0000e+00 1.0000e+00
       24  1    1    2    0    0 +2.8097257781e+01 -8.9622300933e+00 -1.3043935172e+02 1.5604940850e+02 8.0419002446e+01 0.0000e+00 -1.0000e+00
      -24  1    1    2    0    0 -2.8097257781e+01 +8.9622300933e+00 -3.1758749471e+02 3.2893587553e+02 8.0419002446e+01 0.0000e+00 1.0000e+00
<mgrwt>
<rscale>  0 0.85656251E+02</rscale>
<asrwt>0</asrwt>
<pdfrwt beam="1">  1        4 0.28429569E-02 0.85656251E+02</pdfrwt>
<pdfrwt beam="2">  1       -4 0.71770160E-01 0.85656251E+02</pdfrwt>
<totfact> 0.15638615E+03</totfact>
</mgrwt>
</event>
<event>
 4      2 +5.6305390e+02 2.00208300e+02 7.54677100e-03 1.14956300e-01
       21 -1    0    0  503  502 +0.0000000000e+00 +0.0000000000e+00 +1.3915855908e+01 1.3915855908e+01 0.0000000000e+00 0.0000e+00 1.0000e+00
       21 -1    0    0  501  503 -0.0000000000e+00 -0.0000000000e+00 -3.2553837852e+03 3.2553837852e+03 0.0000000000e+00 0.0000e+00 1.0000e+00
        6  1    1    2  501    0 -3.6380031235e+01 -9.3972579834e+01 -2.1755191290e+03 2.1847120710e+03 1.7300000000e+02 0.0000e+00 1.0000e+00
       -6  1    1    2    0  502 +3.6380031235e+01 +9.3972579834e+01 -1.0659488003e+03 1.0845875701e+03 1.7300000000e+02 0.0000e+00 1.0000e+00
<mgrwt>
<rscale>  2 0.20020827E+03</rscale>
<asrwt>0</asrwt>
<pdfrwt beam="1">  1       21 0.21409005E-02 0.20020827E+03</pdfrwt>
<pdfrwt beam="2">  1       21 0.50082837E+00 0.20020827E+03</pdfrwt>
<totfact> 0.20347694E+03</totfact>
</mgrwt>
</event>
<event>
 4      2 +5.6305390e+02 2.05371300e+02 7.54677100e-03 1.14528500e-01
       21 -1    0    0  503  502 +0.0000000000e+00 +0.0000000000e+00 +1.7313727000e+02 1.7313727000e+02 0.0000000000e+00 0.0000e+00 1.0000e+00
       21 -1    0    0  501  503 -0.0000000000e+00 -0.0000000000e+00 -2.4726232633e+02 2.4726232633e+02 0.0000000000e+00 0.0000e+00 -1.0000e+00
        6  1    1    2  501    0 -5.2113139368e+01 +9.7634950120e+01 -1.1503364397e+01 2.0569319428e+02 1.7300000000e+02 0.0000e+00 1.0000e+00
       -6  1    1    2    0  502 +5.2113139368e+01 -9.7634950120e+01 -6.2621691932e+01 2.1470640205e+02 1.7300000000e+02 0.0000e+00 -1.0000e+00
<mgrwt>
<rscale>  2 0.20537128E+03</rscale>
<asrwt>0</asrwt>
<pdfrwt beam="1">  1       21 0.26636503E-01 0.20537128E+03</pdfrwt>
<pdfrwt beam="2">  1       21 0.38040358E-01 0.20537128E+03</pdfrwt>
<totfact> 0.88927211E+04</totfact>
</mgrwt>
</event>
<event>
 4      2 +5.6305390e+02 2.59265400e+02 7.54677100e-03 1.10758500e-01
       21 -1    0    0  503  502 +0.0000000000e+00 +0.0000000000e+00 +1.1742327471e+03 1.1742327471e+03 0.0000000000e+00 0.0000e+00 1.0000e+00
       21 -1    0    0  501  503 -0.0000000000e+00 -0.0000000000e+00 -9.3550741438e+01 9.3550741438e+01 0.0000000000e+00 0.0000e+00 1.0000e+00
        6  1    1    2  501    0 +1.6739916994e+01 -1.9237802695e+02 +1.4544631539e+02 2.9727623641e+02 1.7300000000e+02 0.0000e+00 1.0000e+00
       -6  1    1    2    0  502 -1.6739916994e+01 +1.9237802695e+02 +9.3523569029e+02 9.7050725214e+02 1.7300000000e+02 0.0000e+00 1.0000e+00
<mgrwt>
<rscale>  2 0.25926537E+03</rscale>
<asrwt>0</asrwt>
<pdfrwt beam="1">  1       21 0.18065118E+00 0.25926537E+03</pdfrwt>
<pdfrwt beam="2">  1       21 0.14392423E-01 0.25926537E+03</pdfrwt>
<totfact> 0.72490066E+03</totfact>
</mgrwt>
</event>
<event>
 4      2 +5.6305390e+02 1.73372000e+02 7.54677100e-03 1.17437600e-01
        4 -1    0    0  502    0 +0.0000000000e+00 +0.0000000000e+00 +4.5053422632e+02 4.5053422632e+02 0.0000000000e+00 0.0000e+00 -1.0000e+00
       -4 -1    0    0    0  501 -0.0000000000e+00 -0.0000000000e+00 -6.6721526001e+01 6.6721526001e+01 0.0000000000e+00 0.0000e+00 1.0000e+00
        6  1    1    2  502    0 +1.0740541490e+01 -3.6714089295e+00 +1.9426143504e+02 2.6037538981e+02 1.7300000000e+02 0.0000e+00 -1.0000e+00
       -6  1    1    2    0  501 -1.0740541490e+01 +3.6714089295e+00 +1.8955126528e+02 2.5688036251e+02 1.7300000000e+02 0.0000e+00 1.0000e+00
<mgrwt>
<rscale>  2 0.17337197E+03</rscale>
<asrwt>0</asrwt>
<pdfrwt beam="1">  1        4 0.69312956E-01 0.17337197E+03</pdfrwt>
<pdfrwt beam="2">  1       -4 0.10264850E-01 0.17337197E+03</pdfrwt>
<totfact> 0.24589734E+02</totfact>
</mgrwt>
</event>
<event>
 4      2 +5.6305390e+02 2.29212200e+02 7.54677100e-03 1.12719500e-01
       21 -1    0    0  501  502 +0.0000000000e+00 +0.0000000000e+00 +1.1085434966e+03 1.1085434966e+03 0.0000000000e+00 0.0000e+00 1.0000e+00
       21 -1    0    0  502  503 -0.0000000000e+00 -0.0000000000e+00 -4.8123837314e+01 4.8123837314e+01 0.0000000000e+00 0.0000e+00 -1.0000e+00
        6  1    1    2  501    0 +1.3617584557e+02 +6.3760350540e+01 +6.0143433355e+02 6.4363149456e+02 1.7300000000e+02 0.0000e+00 1.0000e+00
       -6  1    1    2    0  503 -1.3617584557e+02 -6.3760350540e+01 +4.5898532572e+02 5.1303583934e+02 1.7300000000e+02 0.0000e+00 1.0000e+00
<mgrwt>
<rscale>  2 0.22921222E+03</rscale>
<asrwt>0</asrwt>
<pdfrwt beam="1">  1       21 0.17054513E+00 0.22921222E+03</pdfrwt>
<pdfrwt beam="2">  1       21 0.74036681E-02 0.22921222E+03</pdfrwt>
<totfact> 0.28372043E+04</totfact>
</mgrwt>
</event>
<event>
 4      2 +5.6305390e+02 2.10217000e+02 7.54677100e-03 1.14139400e-01
       21 -1    0    0  503  502 +0.0000000000e+00 +0.0000000000e+00 +3.9029153419e+02 3.9029153419e+02 0.0000000000e+00 0.0000e+00 1.0000e+00
       21 -1    0    0  501  503 -0.0000000000e+00 -0.0000000000e+00 -2.8608961162e+02 2.8608961162e+02 0.0000000000e+00 0.0000e+00 1.0000e+00
        6  1    1    2  501    0 +1.1758923212e+02 -2.0855494935e+01 -2.1078182442e+02 2.9769137825e+02 1.7300000000e+02 0.0000e+00 1.0000e+00
       -6  1    1    2    0  502 -1.1758923212e+02 +2.0855494935e+01 +3.1498374700e+02 3.7868976756e+02 1.7300000000e+02 0.0000e+00 1.0000e+00
<mgrwt>
<rscale>  2 0.21021698E+03</rscale>
<asrwt>0</asrwt>
<pdfrwt beam="1">  1       21 0.60044851E-01 0.21021698E+03</pdfrwt>
<pdfrwt beam="2">  1       21 0.44013787E-01 0.21021698E+03</pdfrwt>
<totfact> 0.12683155E+04</totfact>
</mgrwt>
</event>
<event>
 4      2 +5.6305390e+02 2.14497800e+02 7.54677100e-03 1.13805300e-01
       21 -1    0    0  503  502 +0.0000000000e+00 +0.0000000000e+00 +6.1345252541e+01 6.1345252541e+01 0.0000000000e+00 0.0000e+00 1.0000e+00
       21 -1    0    0  501  503 -0.0000000000e+00 -0.0000000000e+00 -7.9605892566e+02 7.9605892566e+02 0.0000000000e+00 0.0000e+00 1.0000e+00
        6  1    1    2  501    0 +3.9101770975e+01 +1.2062899798e+02 -4.7046947481e+02 5.1705979381e+02 1.7300000000e+02 0.0000e+00 1.0000e+00
       -6  1    1    2    0  502 -3.9101770975e+01 -1.2062899798e+02 -2.6424419831e+02 3.4034438439e+02 1.7300000000e+02 0.0000e+00 1.0000e+00
<mgrwt>
<rscale>  2 0.21449779E+03</rscale>
<asrwt>0</asrwt>
<pdfrwt beam="1">  1       21 0.94377312E-02 0.21449779E+03</pdfrwt>
<pdfrwt beam="2">  1       21 0.12247060E+00 0.21449779E+03</pdfrwt>
<totfact> 0.44585430E+04</totfact>
</mgrwt>
</event>
<event>
 4      2 +5.6305390e+02 2.19890800e+02 7.54677100e-03 1.13396400e-01
       21 -1    0    0  501  502 +0.0000000000e+00 +0.0000000000e+00 +1.5976575307e+03 1.5976575307e+03 0.0000000000e+00 0.0000e+00 -1.0000e+00
       21 -1    0    0  502  503 -0.0000000000e+00 -0.0000000000e+00 -4.3318504100e+01 4.3318504100e+01 0.0000000000e+00 0.0000e+00 -1.0000e+00
        6  1    1    2  501    0 +1.0661496073e+02 -8.4001327490e+01 +1.2275824563e+03 1.2471209484e+03 1.7300000000e+02 0.0000e+00 -1.0000e+00
       -6  1    1    2    0  503 -1.0661496073e+02 +8.4001327490e+01 +3.2675657034e+02 3.9385508646e+02 1.7300000000e+02 0.0000e+00 -1.0000e+00
<mgrwt>
<rscale>  2 0.21989082E+03</rscale>
<asrwt>0</asrwt>
<pdfrwt beam="1">  1       21 0.24579342E+00 0.21989082E+03</pdfrwt>
<pdfrwt beam="2">  1       21 0.66643865E-02 0.21989082E+03</pdfrwt>
<totfact> 0.11313663E+04</totfact>
</mgrwt>
</event>
<event>
 4      2 +5.6305390e+02 2.08548000e+02 7.54677100e-03 1.14272100e-01
       21 -1    0    0  503  502 +0.0000000000e+00 +0.0000000000e+00 +1.7669268418e+02 1.7669268418e+02 0.0000000000e+00 0.0000e+00 1.0000e+00
       21 -1    0    0  501  503 -0.0000000000e+00 -0.0000000000e+00 -2.5116693349e+02 2.5116693349e+02 0.0000000000e+00 0.0000e+00 -1.0000e+00
        6  1    1    2  501    0 -5.3369615961e+01 -1.0351311177e+02 -6.7482713485e+01 2.1919442702e+02 1.7300000000e+02 0.0000e+00 -1.0000e+00
       -6  1    1    2    0  502 +5.3369615961e+01 +1.0351311177e+02 -6.9915358332e+00 2.0866519065e+02 1.7300000000e+02 0.0000e+00 1.0000e+00
<mgrwt>
<rscale>  2 0.20854803E+03</rscale>
<asrwt>0</asrwt>
<pdfrwt beam="1">  1       21 0.27183490E-01 0.20854803E+03</pdfrwt>
<pdfrwt beam="2">  1       21 0.38641067E-01 0.20854803E+03</pdfrwt>
<totfact> 0.82749665E+04</totfact>
</mgrwt>
</event>
<event>
 4      2 +5.6305390e+02 2.59532400e+02 7.54677100e-03 1.10742400e-01
       21 -1    0    0  501  502 +0.0000000000e+00 +0.0000000000e+00 +1.1259037551e+02 1.1259037551e+02 0.0000000000e+00 0.0000e+00 -1.0000e+00
       21 -1    0    0  502  503 -0.0000000000e+00 -0.0000000000e+00 -6.5831374435e+02 6.5831374435e+02 0.0000000000e+00 0.0000e+00 1.0000e+00
        6  1    1    2  501    0 +1.5504744773e+02 -1.1570816144e+02 -1.5643208546e+02 3.0303149512e+02 1.7300000000e+02 0.0000e+00 -1.0000e+00
       -6  1    1    2    0  503 -1.5504744773e+02 +1.1570816144e+02 -3.8929128337e+02 4.6787262474e+02 1.7300000000e+02 0.0000e+00 1.0000e+00
<mgrwt>
<rscale>  2 0.25953244E+03</rscale>
<asrwt>0</asrwt>
<pdfrwt beam="1">  1       21 0.17321597E-01 0.25953244E+03</pdfrwt>
<pdfrwt beam="2">  1       21 0.10127904E+00 0.25953244E+03</pdfrwt>
<totfact> 0.23156790E+04</totfact>
</mgrwt>
</event>
<event>
 4      2 +5.6305390e+02 1.99616700e+02 7.54677100e-03 1.15006300e-01
       21 -1    0    0  501  502 +0.0000000000e+00 +0.0000000000e+00 +9.5598872313e+01 9.5598872313e+01 0.0000000000e+00 0.0000e+00 1.0000e+00
       21 -1    0    0  502  503 -0.0000000000e+00 -0.0000000000e+00 -5.7956486432e+02 5.7956486432e+02 0.0000000000e+00 0.0000e+00 1.0000e+00
        6  1    1    2  501    0 -9.6045109687e+01 +2.6328348015e+01 -4.2087510429e+02 4.6581401698e+02 1.7300000000e+02 0.0000e+00 1.0000e+00
       -6  1    1    2    0  503 +9.6045109687e+01 -2.6328348015e+01 -6.3090887711e+01 2.0934971965e+02 1.7300000000e+02 0.0000e+00 1.0000e+00
<mgrwt>
<rscale>  2 0.19961675E+03</rscale>
<asrwt>0</asrwt>
<pdfrwt beam="1">  1       21 0.14707519E-01 0.19961675E+03</pdfrwt>
<pdfrwt beam="2">  1       21 0.89163827E-01 0.19961675E+03</pdfrwt>
<totfact> 0.43489425E+04</totfact>
</mgrwt>
</event>
<event>
 4      2 +5.6305390e+02 1.87365600e+02 7.54677100e-03 1.16085900e-01
       21 -1    0    0  503  502 +0.0000000000e+00 +0.0000000000e+00 +8.2621574974e+01 8.2621574974e+01 0.0000000000e+00 0.0000e+00 -1.0000e+00
       21 -1    0    0  501  503 -0.0000000000e+00 -0.0000000000e+00 -4.9529118492e+02 4.9529118492e+02 0.0000000000e+00 0.0000e+00 -1.0000e+00
        6  1    1    2  501    0 +5.8302782455e+01 +4.2162174403e+01 -3.1526863224e+02 3.6674265346e+02 1.7300000000e+02 0.0000e+00 -1.0000e+00
       -6  1    1    2    0  502 -5.8302782455e+01 -4.2162174403e+01 -9.7400977701e+01 2.1117010643e+02 1.7300000000e+02 0.0000e+00 -1.0000e+00
<mgrwt>
<rscale>  2 0.18736559E+03</rscale>
<asrwt>0</asrwt>
<pdfrwt beam="1">  1       21 0.12711012E-01 0.18736559E+03</pdfrwt>
<pdfrwt beam="2">  1       21 0.76198643E-01 0.18736559E+03</pdfrwt>
<totfact> 0.81399754E+04</totfact>
</mgrwt>
</event>
<event>
 4      2 +5.6305390e+02 2.71645700e+02 7.54677100e-03 1.10034100e-01
       21 -1    0    0  503  502 +0.0000000000e+00 +0.0000000000e+00 +1.1862372731e+02 1.1862372731e+02 0.0000000000e+00 0.0000e+00 -1.0000e+00
       21 -1    0    0  501  503 -0.0000000000e+00 -0.0000000000e+00 -6.2436746687e+02 6.2436746687e+02 0.0000000000e+00 0.0000e+00 -1.0000e+00
        6  1    1    2  501    0 +8.2561627105e+01 -1.9247331888e+02 -2.3030125757e+02 3.5613209626e+02 1.7300000000e+02 0.0000e+00 -1.0000e+00
       -6  1    1    2    0  502 -8.2561627105e+01 +1.9247331888e+02 -2.7544248199e+02 3.8685909791e+02 1.7300000000e+02 0.0000e+00 -1.0000e+00
<mgrwt>
<rscale>  2 0.27164573E+03</rscale>
<asrwt>0</asrwt>
<pdfrwt beam="1">  1       21 0.18249804E-01 0.27164573E+03</pdfrwt>
<pdfrwt beam="2">  1       21 0.96056534E-01 0.27164573E+03</pdfrwt>
<totfact> 0.23710989E+04</totfact>
</mgrwt>
</event>
<event>
 4      2 +5.6305390e+02 2.44780800e+02 7.54677100e-03 1.11664800e-01
       21 -1    0    0  503  502 +0.0000000000e+00 +0.0000000000e+00 +5.4873131063e+01 5.4873131063e+01 0.0000000000e+00 0.0000e+00 1.0000e+00
       21 -1    0    0  501  503 -0.0000000000e+00 -0.0000000000e+00 -1.1381149009e+03 1.1381149009e+03 0.0000000000e+00 0.0000e+00 1.0000e+00
        6  1    1    2  501    0 +1.0885468251e+02 +1.3468225383e+02 -6.6178095781e+02 7.0560023209e+02 1.7300000000e+02 0.0000e+00 1.0000e+00
       -6  1    1    2    0  502 -1.0885468251e+02 -1.3468225383e+02 -4.2146081206e+02 4.8738779991e+02 1.7300000000e+02 0.0000e+00 1.0000e+00
<mgrwt>
<rscale>  2 0.24478082E+03</rscale>
<asrwt>0</asrwt>
<pdfrwt beam="1">  1       21 0.84420201E-02 0.24478082E+03</pdfrwt>
<pdfrwt beam="2">  1       21 0.17509460E+00 0.24478082E+03</pdfrwt>
<totfact> 0.20768369E+04</totfact>
</mgrwt>
</event>
<event>
 4      2 +5.6305390e+02 2.14887000e+02 7.54677100e-03 1.13775300e-01
       21 -1    0    0  503  502 +0.0000000000e+00 +0.0000000000e+00 +7.4608810481e+01 7.4608810481e+01 0.0000000000e+00 0.0000e+00 1.0000e+00
       21 -1    0    0  501  503 -0.0000000000e+00 -0.0000000000e+00 -1.1092622336e+03 1.1092622336e+03 0.0000000000e+00 0.0000e+00 -1.0000e+00
        6  1    1    2  501    0 +1.0349545158e+02 -7.4405079794e+01 -9.1088555316e+02 9.3588937132e+02 1.7300000000e+02 0.0000e+00 -1.0000e+00
       -6  1    1    2    0  502 -1.0349545158e+02 +7.4405079794e+01 -1.2376786998e+02 2.4798167278e+02 1.7300000000e+02 0.0000e+00 1.0000e+00
<mgrwt>
<rscale>  2 0.21488700E+03</rscale>
<asrwt>0</asrwt>
<pdfrwt beam="1">  1       21 0.11478280E-01 0.21488700E+03</pdfrwt>
<pdfrwt beam="2">  1       21 0.17065571E+00 0.21488700E+03</pdfrwt>
<totfact> 0.13195470E+04</totfact>
</mgrwt>
</event>
<event>
 4      2 +5.6305390e+02 2.08515800e+02 7.54677100e-03 1.14274700e-01
        1 -1    0    0  502    0 +0.0000000000e+00 +0.0000000000e+00 +1.2158034245e+03 1.2158034245e+03 0.0000000000e+00 0.0000e+00 -1.0000e+00
       -1 -1    0    0    0  501 -0.0000000000e+00 -0.0000000000e+00 -3.8636580592e+01 3.8636580592e+01 0.0000000000e+00 0.0000e+00 1.0000e+00
        6  1    1    2  502    0 +1.1639905781e+02 +1.0554221228e+00 +7.5968411013e+02 7.8778093514e+02 1.7300000000e+02 0.0000e+00 -1.0000e+00
       -6  1    1    2    0  501 -1.1639905781e+02 -1.0554221228e+00 +4.1748273379e+02 4.6665906997e+02 1.7300000000e+02 0.0000e+00 -1.0000e+00
<mgrwt>
<rscale>  2 0.20851584E+03</rscale>
<asrwt>0</asrwt>
<pdfrwt beam="1">  1        1 0.18704665E+00 0.20851584E+03</pdfrwt>
<pdfrwt beam="2">  1       -1 0.59440902E-02 0.20851584E+03</pdfrwt>
<totfact> 0.15140479E+03</totfact>
</mgrwt>
</event>
<event>
 4      3 +5.6305390e+02 1.08133300e+02 7.54677100e-03 1.26406600e-01
       -2 -1    0    0    0  501 -0.0000000000e+00 +0.0000000000e+00 +6.7800816444e+00 6.7800816444e+00 0.0000000000e+00 0.0000e+00 1.0000e+00
        2 -1    0    0  501    0 +0.0000000000e+00 -0.0000000000e+00 -1.9893527369e+03 1.9893527369e+03 0.0000000000e+00 0.0000e+00 -1.0000e+00
       24  1    1    2    0    0 -3.6512747306e+01 +6.2389129900e+01 -1.3554019622e+03 1.3597085274e+03 8.0419002446e+01 0.0000e+00 -1.0000e+00
      -24  1    1    2    0    0 +3.6512747306e+01 -6.2389129900e+01 -6.2717069302e+02 6.3642429116e+02 8.0419002446e+01 0.0000e+00 1.0000e+00
<mgrwt>
<rscale>  0 0.10813325E+03</rscale>
<asrwt>0</asrwt>
<pdfrwt beam="1">  1        2 0.30605441E+00 0.10813325E+03</pdfrwt>
<pdfrwt beam="2">  1       -2 0.10430890E-02 0.10813325E+03</pdfrwt>
<totfact> 0.14588355E+04</totfact>
</mgrwt>
</event>
<event>
 4      2 +5.6305390e+02 2.09262700e+02 7.54677100e-03 1.14215100e-01
       21 -1    0    0  503  502 +0.0000000000e+00 +0.0000000000e+00 +8.9968881446e+02 8.9968881446e+02 0.0000000000e+00 0.0000e+00 1.0000e+00
       21 -1    0    0  501  503 -0.0000000000e+00 -0.0000000000e+00 -1.0604566236e+02 1.0604566236e+02 0.0000000000e+00 0.0000e+00 1.0000e+00
        6  1    1    2  501    0 -9.1392243773e+01 -7.4224977470e+01 +2.6944022097e+01 2.1099021264e+02 1.7300000000e+02 0.0000e+00 1.0000e+00
       -6  1    1    2    0  502 +9.1392243773e+01 +7.4224977470e+01 +7.6669913000e+02 7.9474426418e+02 1.7300000000e+02 0.0000e+00 1.0000e+00
<mgrwt>
<rscale>  2 0.20926273E+03</rscale>
<asrwt>0</asrwt>
<pdfrwt beam="1">  1       21 0.13841366E+00 0.20926273E+03</pdfrwt>
<pdfrwt beam="2">  1       21 0.16314718E-01 0.20926273E+03</pdfrwt>
<totfact> 0.12253728E+04</totfact>
</mgrwt>
</event>
<event>
 4      2 +5.6305390e+02 3.00850100e+02 7.54677100e-03 1.08481600e-01
       21 -1    0    0  503  502 +0.0000000000e+00 +0.0000000000e+00 +5.0679908518e+02 5.0679908518e+02 0.0000000000e+00 0.0000e+00 1.0000e+00
       21 -1    0    0  501  503 -0.0000000000e+00 -0.0000000000e+00 -2.5319229488e+02 2.5319229488e+02 0.0000000000e+00 0.0000e+00 1.0000e+00
        6  1    1    2  501    0 -2.1120893550e+02 -1.2638268088e+02 -7.9459273239e+01 3.1116647082e+02 1.7300000000e+02 0.0000e+00 1.0000e+00
       -6  1    1    2    0  502 +2.1120893550e+02 +1.2638268088e+02 +3.3306606355e+02 4.4882490923e+02 1.7300000000e+02 0.0000e+00 1.0000e+00
<mgrwt>
<rscale>  2 0.30085012E+03</rscale>
<asrwt>0</asrwt>
<pdfrwt beam="1">  1       21 0.77969090E-01 0.30085012E+03</pdfrwt>
<pdfrwt beam="2">  1       21 0.38952661E-01 0.30085012E+03</pdfrwt>
<totfact> 0.86993976E+03</totfact>
</mgrwt>
</event>
<event>
 4      2 +5.6305390e+02 2.15048700e+02 7.54677100e-03 1.13762900e-01
       21 -1    0    0  501  502 +0.0000000000e+00 +0.0000000000e+00 +6.7848239304e+02 6.7848239304e+02 0.0000000000e+00 0.0000e+00 -1.0000e+00
       21 -1    0    0  502  503 -0.0000000000e+00 -0.0000000000e+00 -7.7688395946e+01 7.7688395946e+01 0.0000000000e+00 0.0000e+00 -1.0000e+00
        6  1    1    2  501    0 -1.5448362319e+01 -1.2680014304e+02 +4.3280146426e+02 4.8328359753e+02 1.7300000000e+02 0.0000e+00 -1.0000e+00
       -6  1    1    2    0  503 +1.5448362319e+01 +1.2680014304e+02 +1.6799253284e+02 2.7288719146e+02 1.7300000000e+02 0.0000e+00 -1.0000e+00
<mgrwt>
<rscale>  2 0.21504866E+03</rscale>
<asrwt>0</asrwt>
<pdfrwt beam="1">  1       21 0.10438190E+00 0.21504866E+03</pdfrwt>
<pdfrwt beam="2">  1       21 0.11952061E-01 0.21504866E+03</pdfrwt>
<totfact> 0.43287661E+04</totfact>
</mgrwt>
</event>
<event>
 4      2 +5.6305390e+02 2.08215000e+02 7.54677100e-03 1.14298700e-01
       21 -1    0    0  501  502 +0.0000000000e+00 +0.0000000000e+00 +3.2375856906e+02 3.2375856906e+02 0.0000000000e+00 0.0000e+00 -1.0000e+00
       21 -1    0    0  502  503 -0.0000000000e+00 -0.0000000000e+00 -1.3440190738e+02 1.3440190738e+02 0.0000000000e+00 0.0000e+00 -1.0000e+00
        6  1    1    2  501    0 +8.2886221076e+01 -8.0958980011e+01 +1.0858181322e+02 2.3482651522e+02 1.7300000000e+02 0.0000e+00 -1.0000e+00
       -6  1    1    2    0  503 -8.2886221076e+01 +8.0958980011e+01 +8.0774848470e+01 2.2333396122e+02 1.7300000000e+02 0.0000e+00 -1.0000e+00
<mgrwt>
<rscale>  2 0.20821499E+03</rscale>
<asrwt>0</asrwt>
<pdfrwt beam="1">  1       21 0.49809011E-01 0.20821499E+03</pdfrwt>
<pdfrwt beam="2">  1       21 0.20677217E-01 0.20821499E+03</pdfrwt>
<totfact> 0.82756060E+04</totfact>
</mgrwt>
</event>
<event>
 4      2 +5.6305390e+02 1.83768400e+02 7.54677100e-03 1.16420500e-01
       21 -1    0    0  501  502 +0.0000000000e+00 +0.0000000000e+00 +1.5399690964e+02 1.5399690964e+02 0.0000000000e+00 0.0000e+00 -1.0000e+00
       21 -1    0    0  502  503 -0.0000000000e+00 -0.0000000000e+00 -7.5993710768e+02 7.5993710768e+02 0.0000000000e+00 0.0000e+00 -1.0000e+00
        6  1    1    2  501    0 -6.1117799143e+01 +1.0317571559e+01 +8.2464531081e+01 2.0142302883e+02 1.7300000000e+02 0.0000e+00 -1.0000e+00
       -6  1    1    2    0  503 +6.1117799143e+01 -1.0317571559e+01 -6.8840472912e+02 7.1251098850e+02 1.7300000000e+02 0.0000e+00 -1.0000e+00
<mgrwt>
<rscale>  2 0.18376843E+03</rscale>
<asrwt>0</asrwt>
<pdfrwt beam="1">  1       21 0.23691833E-01 0.18376843E+03</pdfrwt>
<pdfrwt beam="2">  1       21 0.11691340E+00 0.18376843E+03</pdfrwt>
<totfact> 0.95095555E+03</totfact>
</mgrwt>
</event>
<event>
 4      2 +5.6305390e+02 2.04754400e+02 7.54677100e-03 1.14578900e-01
       21 -1    0    0  501  502 +0.0000000000e+00 +0.0000000000e+00 +1.4720366111e+01 1.4720366111e+01 0.0000000000e+00 0.0000e+00 -1.0000e+00
       21 -1    0    0  502  503 -0.0000000000e+00 -0.0000000000e+00 -2.9755328489e+03 2.9755328489e+03 0.0000000000e+00 0.0000e+00 1.0000e+00
        6  1    1    2  501    0 -8.2969898562e+01 +7.1493824925e+01 -1.7898756538e+03 1.8015491188e+03 1.7300000000e+02 0.0000e+00 -1.0000e+00
       -6  1    1    2    0  503 +8.2969898562e+01 -7.1493824925e+01 -1.1709368289e+03 1.1887040962e+03 1.7300000000e+02 0.0000e+00 1.0000e+00
<mgrwt>
<rscale>  2 0.20475442E+03</rscale>
<asrwt>0</asrwt>
<pdfrwt beam="1">  1       21 0.22646703E-02 0.20475442E+03</pdfrwt>
<pdfrwt beam="2">  1       21 0.45777456E+00 0.20475442E+03</pdfrwt>
<totfact> 0.36488129E+03</totfact>
</mgrwt>
</event>
<event>
 4      2 +5.6305390e+02 1.73717900e+02 7.54677100e-03 1.17402500e-01
       21 -1    0    0  501  502 +0.0000000000e+00 +0.0000000000e+00 +9.6478563667e+01 9.6478563667e+01 0.0000000000e+00 0.0000e+00 -1.0000e+00
       21 -1    0    0  502  503 -0.0000000000e+00 -0.0000000000e+00 -3.8684049442e+02 3.8684049442e+02 0.0000000000e+00 0.0000e+00 -1.0000e+00
        6  1    1    2  501    0 -6.4702369226e+00 -1.4389182138e+01 -3.9452893555e+01 1.7814163842e+02 1.7300000000e+02 0.0000e+00 1.0000e+00
       -6  1    1    2    0  503 +6.4702369226e+00 +1.4389182138e+01 -2.5090903720e+02 3.0517741967e+02 1.7300000000e+02 0.0000e+00 1.0000e+00
<mgrwt>
<rscale>  2 0.17371791E+03</rscale>
<asrwt>0</asrwt>
<pdfrwt beam="1">  1       21 0.14842856E-01 0.17371791E+03</pdfrwt>
<pdfrwt beam="2">  1       21 0.59513921E-01 0.17371791E+03</pdfrwt>
<totfact> 0.10620050E+05</totfact>
</mgrwt>
</event>
<event>
 4      3 +5.6305390e+02 1.10531100e+02 7.54677100e-03 1.25958900e-01
        2 -1    0    0  501    0 +0.0000000000e+00 +0.0000000000e+00 +1.3150908790e+02 1.3150908790e+02 0.0000000000e+00 0.0000e+00 -1.0000e+00
       -2 -1    0    0    0  501 -0.0000000000e+00 -0.0000000000e+00 -1.4169773998e+02 1.4169773998e+02 0.0000000000e+00 0.0000e+00 1.0000e+00
       24  1    1    2    0    0 +7.3007756051e+01 +2.0488606010e+01 +7.5070171310e+01 1.3361385405e+02 8.0419002446e+01 0.0000e+00 -1.0000e+00
      -24  1    1    2    0    0 -7.3007756051e+01 -2.0488606010e+01 -8.5258823393e+01 1.3959297382e+02 8.0419002446e+01 0.0000e+00 1.0000e+00
<mgrwt>
<rscale>  0 0.11053113E+03</rscale>
<asrwt>0</asrwt>
<pdfrwt beam="1">  1        2 0.20232167E-01 0.11053113E+03</pdfrwt>
<pdfrwt beam="2">  1       -2 0.21799652E-01 0.11053113E+03</pdfrwt>
<totfact> 0.46729407E+03</totfact>
</mgrwt>
</event>
<event>
 4      3 +5.6305390e+02 8.66902700e+01 7.54677100e-03 1.31107100e-01
       -1 -1    0    0    0  501 -0.0000000000e+00 +0.0000000000e+00 +7.6288575426e+00 7.6288575426e+00 0.0000000000e+00 0.0000e+00 1.0000e+00
        1 -1    0    0  501    0 +0.0000000000e+00 -0.0000000000e+00 -1.8680316423e+03 1.8680316423e+03 0.0000000000e+00 0.0000e+00 -1.0000e+00
       24  1    1    2    0    0 +3.2174346041e+01 -3.5775516111e+00 -2.8544574661e+02 2.9831942215e+02 8.0419002446e+01 0.0000e+00 1.0000e+00
      -24  1    1    2    0    0 -3.2174346041e+01 +3.5775516111e+00 -1.5749570382e+03 1.5773410777e+03 8.0419002446e+01 0.0000e+00 -1.0000e+00
<mgrwt>
<rscale>  0 0.86690273E+02</rscale>
<asrwt>0</asrwt>
<pdfrwt beam="1">  1        1 0.28738977E+00 0.86690273E+02</pdfrwt>
<pdfrwt beam="2">  1       -1 0.11736692E-02 0.86690273E+02</pdfrwt>
<totfact> 0.59425244E+03</totfact>
</mgrwt>
</event>
<event>
 4      2 +5.6305390e+02 1.74317900e+02 7.54677100e-03 1.17341800e-01
       21 -1    0    0  503  502 +0.0000000000e+00 +0.0000000000e+00 +1.6437253640e+03 1.6437253640e+03 0.0000000000e+00 0.0000e+00 -1.0000e+00
       21 -1    0    0  501  503 -0.0000000000e+00 -0.0000000000e+00 -2.4927831461e+01 2.4927831461e+01 0.0000000000e+00 0.0000e+00 -1.0000e+00
        6  1    1    2  501    0 +9.2865016488e+00 +1.9274344014e+01 +3.8528590045e+02 4.2288528531e+02 1.7300000000e+02 0.0000e+00 -1.0000e+00
       -6  1    1    2    0  502 -9.2865016488e+00 -1.9274344014e+01 +1.2335116321e+03 1.2457679101e+03 1.7300000000e+02 0.0000e+00 -1.0000e+00
<mgrwt>
<rscale>  2 0.17431793E+03</rscale>
<asrwt>0</asrwt>
<pdfrwt beam="1">  1       21 0.25288074E+00 0.17431793E+03</pdfrwt>
<pdfrwt beam="2">  1       21 0.38350523E-02 0.17431793E+03</pdfrwt>
<totfact> 0.27326201E+04</totfact>
</mgrwt>
</event>
<event>
 4      3 +5.6305390e+02 9.16896100e+01 7.54677100e-03 1.29881100e-01
       -2 -1    0    0    0  501 -0.0000000000e+00 +0.0000000000e+00 +8.8805047506e+01 8.8805047506e+01 0.0000000000e+00 0.0000e+00 1.0000e+00
        2 -1    0    0  501    0 +0.0000000000e+00 -0.0000000000e+00 -1.0867271639e+02 1.0867271639e+02 0.0000000000e+00 0.0000e+00 -1.0000e+00
       24  1    1    2    0    0 -3.1056735889e+01 +3.1228967296e+01 -4.5379817916e+01 1.0230500022e+02 8.0419002446e+01 0.0000e+00 0.0000e+00
      -24  1    1    2    0    0 +3.1056735889e+01 -3.1228967296e+01 +2.5512149031e+01 9.5172763672e+01 8.0419002446e+01 0.0000e+00 -1.0000e+00
<mgrwt>
<rscale>  0 0.91689613E+02</rscale>
<asrwt>0</asrwt>
<pdfrwt beam="1">  1        2 0.16718879E-01 0.91689613E+02</pdfrwt>
<pdfrwt beam="2">  1       -2 0.13662315E-01 0.91689613E+02</pdfrwt>
<totfact> 0.12343746E+04</totfact>
</mgrwt>
</event>
<event>
 4      2 +5.6305390e+02 2.42793400e+02 7.54677100e-03 1.11794600e-01
       21 -1    0    0  503  502 +0.0000000000e+00 +0.0000000000e+00 +8.5456773258e+01 8.5456773258e+01 0.0000000000e+00 0.0000e+00 1.0000e+00
       21 -1    0    0  501  503 -0.0000000000e+00 -0.0000000000e+00 -6.8989705069e+02 6.8989705069e+02 0.0000000000e+00 0.0000e+00 -1.0000e+00
        6  1    1    2  501    0 +1.6713720638e+02 -3.2936491879e+01 -2.9778461340e+02 3.8421912268e+02 1.7300000000e+02 0.0000e+00 1.0000e+00
       -6  1    1    2    0  502 -1.6713720638e+02 +3.2936491879e+01 -3.0665566403e+02 3.9113470127e+02 1.7300000000e+02 0.0000e+00 1.0000e+00
<mgrwt>
<rscale>  2 0.24279345E+03</rscale>
<asrwt>0</asrwt>
<pdfrwt beam="1">  1       21 0.13147196E-01 0.24279345E+03</pdfrwt>
<pdfrwt beam="2">  1       21 0.10613801E+00 0.24279345E+03</pdfrwt>
<totfact> 0.34550493E+04</totfact>
</mgrwt>
</event>
<event>
 4      3 +5.6305390e+02 9.04802500e+01 7.54677100e-03 1.30169300e-01
        2 -1    0    0  501    0 +0.0000000000e+00 +0.0000000000e+00 +1.0067686128e+03 1.0067686128e+03 0.0000000000e+00 0.0000e+00 -1.0000e+00
       -2 -1    0    0    0  501 -0.0000000000e+00 -0.0000000000e+00 -6.1411715676e+01 6.1411715676e+01 0.0000000000e+00 0.0000e+00 1.0000e+00
       24  1    1    2    0    0 -3.9172873264e+01 -1.3599491160e+01 +9.7015360443e+02 9.7436373717e+02 8.0419002446e+01 0.0000e+00 -1.0000e+00
      -24  1    1    2    0    0 +3.9172873264e+01 +1.3599491160e+01 -2.4796707298e+01 9.3816591319e+01 8.0419002446e+01 0.0000e+00 1.0000e+00
<mgrwt>
<rscale>  0 0.90480253E+02</rscale>
<asrwt>0</asrwt>
<pdfrwt beam="1">  1        2 0.15488747E+00 0.90480253E+02</pdfrwt>
<pdfrwt beam="2">  1       -2 0.94479570E-02 0.90480253E+02</pdfrwt>
<totfact> 0.18658741E+03</totfact>
</mgrwt>
</event>
<event>
 4      3 +5.6305390e+02 9.93631100e+01 7.54677100e-03 1.28164100e-01
       -1 -1    0    0    0  501 -0.0000000000e+00 +0.0000000000e+00 +1.4830033897e+03 1.4830033897e+03 0.0000000000e+00 0.0000e+00 1.0000e+00
        1 -1    0    0  501    0 +0.0000000000e+00 -0.0000000000e+00 -1.1893158207e+02 1.1893158207e+02 0.0000000000e+00 0.0000e+00 -1.0000e+00
       24  1    1    2    0    0 +7.6855468582e+00 -5.7851047346e+01 +1.4602626163e+03 1.4636392779e+03 8.0419002446e+01 0.0000e+00 1.0000e+00
      -24  1    1    2    0    0 -7.6855468582e+00 +5.7851047346e+01 -9.6190808679e+01 1.3829569385e+02 8.0419002446e+01 0.0000e+00 -1.0000e+00
<mgrwt>
<rscale>  0 0.99363108E+02</rscale>
<asrwt>0</asrwt>
<pdfrwt beam="1">  1        1 0.18297168E-01 0.99363108E+02</pdfrwt>
<pdfrwt beam="2">  1       -1 0.22815435E+00 0.99363108E+02</pdfrwt>
<totfact> 0.33536518E+01</totfact>
</mgrwt>
</event>
<event>
 4      2 +5.6305390e+02 1.98178200e+02 7.54677100e-03 1.15128500e-01
       21 -1    0    0  503  502 +0.0000000000e+00 +0.0000000000e+00 +8.0637352464e+01 8.0637352464e+01 0.0000000000e+00 0.0000e+00 -1.0000e+00
       21 -1    0    0  501  503 -0.0000000000e+00 -0.0000000000e+00 -6.4833756990e+02 6.4833756990e+02 0.0000000000e+00 0.0000e+00 -1.0000e+00
        6  1    1    2  501    0 +5.7577013040e+01 +7.7656321648e+01 -4.6564396617e+02 5.0606217005e+02 1.7300000000e+02 0.0000e+00 -1.0000e+00
       -6  1    1    2    0  502 -5.7577013040e+01 -7.7656321648e+01 -1.0205625126e+02 2.2291275231e+02 1.7300000000e+02 0.0000e+00 -1.0000e+00
<mgrwt>
<rscale>  2 0.19817824E+03</rscale>
<asrwt>0</asrwt>
<pdfrwt beam="1">  1       21 0.12405747E-01 0.19817824E+03</pdfrwt>
<pdfrwt beam="2">  1       21 0.99744241E-01 0.19817824E+03</pdfrwt>
<totfact> 0.45534610E+04</totfact>
</mgrwt>
</event>
<event>
 4      2 +5.6305390e+02 2.07630500e+02 7.54677100e-03 1.14345600e-01
       21 -1    0    0  503  502 +0.0000000000e+00 +0.0000000000e+00 +4.9532548973e+01 4.9532548973e+01 0.0000000000e+00 0.0000e+00 -1.0000e+00
       21 -1    0    0  501  503 -0.0000000000e+00 -0.0000000000e+00 -9.7853045382e+02 9.7853045382e+02 0.0000000000e+00 0.0000e+00 -1.0000e+00
        6  1    1    2  501    0 +1.1469388179e+02 -5.1721058536e+00 -6.3541614336e+02 6.6847895438e+02 1.7300000000e+02 0.0000e+00 -1.0000e+00
       -6  1    1    2    0  502 -1.1469388179e+02 +5.1721058536e+00 -2.9358176149e+02 3.5958404842e+02 1.7300000000e+02 0.0000e+00 -1.0000e+00
<mgrwt>
<rscale>  2 0.20763053E+03</rscale>
<asrwt>0</asrwt>
<pdfrwt beam="1">  1       21 0.76203926E-02 0.20763053E+03</pdfrwt>
<pdfrwt beam="2">  1       21 0.15054314E+00 0.20763053E+03</pdfrwt>
<totfact> 0.38318593E+04</totfact>
</mgrwt>
</event>
<event>
 4      2 +5.6305390e+02 1.84063800e+02 7.54677100e-03 1.16392700e-01
       21 -1    0    0  503  502 +0.0000000000e+00 +0.0000000000e+00 +5.1313920821e+02 5.1313920821e+02 0.0000000000e+00 0.0000e+00 -1.0000e+00
       21 -1    0    0  501  503 -0.0000000000e+00 -0.0000000000e+00 -7.9443352042e+01 7.9443352042e+01 0.0000000000e+00 0.0000e+00 -1.0000e+00
        6  1    1    2  501    0 -6.2642819763e+01 +5.1326165136e+00 +9.5073243585e+01 2.0716753671e+02 1.7300000000e+02 0.0000e+00 -1.0000e+00
       -6  1    1    2    0  502 +6.2642819763e+01 -5.1326165136e+00 +3.3862261258e+02 3.8541502354e+02 1.7300000000e+02 0.0000e+00 -1.0000e+00
<mgrwt>
<rscale>  2 0.18406376E+03</rscale>
<asrwt>0</asrwt>
<pdfrwt beam="1">  1       21 0.78944491E-01 0.18406376E+03</pdfrwt>
<pdfrwt beam="2">  1       21 0.12222054E-01 0.18406376E+03</pdfrwt>
<totfact> 0.80769334E+04</totfact>
</mgrwt>
</event>
<event>
 4      2 +5.6305390e+02 2.61438300e+02 7.54677100e-03 1.10628200e-01
        1 -1    0    0  502    0 +0.0000000000e+00 +0.0000000000e+00 +2.5675051680e+03 2.5675051680e+03 0.0000000000e+00 0.0000e+00 -1.0000e+00
       -1 -1    0    0    0  501 -0.0000000000e+00 -0.0000000000e+00 -3.3876809737e+01 3.3876809737e+01 0.0000000000e+00 0.0000e+00 1.0000e+00
        6  1    1    2  502    0 -9.6407825833e+01 +1.7066499083e+02 +6.6486400717e+02 7.1441875396e+02 1.7300000000e+02 0.0000e+00 1.0000e+00
       -6  1    1    2    0  501 +9.6407825833e+01 -1.7066499083e+02 +1.8687643511e+03 1.8869632238e+03 1.7300000000e+02 0.0000e+00 -1.0000e+00
<mgrwt>
<rscale>  2 0.26143834E+03</rscale>
<asrwt>0</asrwt>
<pdfrwt beam="1">  1        1 0.39500064E+00 0.26143834E+03</pdfrwt>
<pdfrwt beam="2">  1       -1 0.52118189E-02 0.26143834E+03</pdfrwt>
<totfact> 0.23681987E+02</totfact>
</mgrwt>
</event>
<event>
 4      2 +5.6305390e+02 2.00966700e+02 7.54677100e-03 1.14892600e-01
       21 -1    0    0  501  502 +0.0000000000e+00 +0.0000000000e+00 +1.5340036526e+02 1.5340036526e+02 0.0000000000e+00 0.0000e+00 -1.0000e+00
       21 -1    0    0  502  503 -0.0000000000e+00 -0.0000000000e+00 -3.0610117385e+02 3.0610117385e+02 0.0000000000e+00 0.0000e+00 -1.0000e+00
        6  1    1    2  501    0 -7.4017972793e+01 -7.0568768678e+01 +9.5789905188e+00 2.0119485199e+02 1.7300000000e+02 0.0000e+00 -1.0000e+00
       -6  1    1    2    0  503 +7.4017972793e+01 +7.0568768678e+01 -1.6227979911e+02 2.5830668711e+02 1.7300000000e+02 0.0000e+00 -1.0000e+00
<mgrwt>
<rscale>  2 0.20096669E+03</rscale>
<asrwt>0</asrwt>
<pdfrwt beam="1">  1       21 0.23600056E-01 0.20096669E+03</pdfrwt>
<pdfrwt beam="2">  1       21 0.47092488E-01 0.20096669E+03</pdfrwt>
<totfact> 0.72668326E+04</totfact>
</mgrwt>
</event>
<event>
 4      2 +5.6305390e+02 1.99468200e+02 7.54677100e-03 1.15018800e-01
       21 -1    0    0  501  502 +0.0000000000e+00 +0.0000000000e+00 +4.4454840885e+02 4.4454840885e+02 0.0000000000e+00 0.0000e+00 -1.0000e+00
       21 -1    0    0  502  503 -0.0000000000e+00 -0.0000000000e+00 -1.2518419418e+02 1.2518419418e+02 0.0000000000e+00 0.0000e+00 -1.0000e+00
        6  1    1    2  501    0 +7.4686725557e+01 +6.5425201457e+01 +3.1177106576e+02 3.7011992841e+02 1.7300000000e+02 0.0000e+00 -1.0000e+00
       -6  1    1    2    0  503 -7.4686725557e+01 -6.5425201457e+01 +7.5931489120e+00 1.9961267462e+02 1.7300000000e+02 0.0000e+00 -1.0000e+00
<mgrwt>
<rscale>  2 0.19946820E+03</rscale>
<asrwt>0</asrwt>
<pdfrwt beam="1">  1       21 0.68392062E-01 0.19946820E+03</pdfrwt>
<pdfrwt beam="2">  1       21 0.19259107E-01 0.19946820E+03</pdfrwt>
<totfact> 0.48133318E+04</totfact>
</mgrwt>
</event>
<event>
 4      2 +5.6305390e+02 2.57812200e+02 7.54677100e-03 1.10846500e-01
       21 -1    0    0  503  502 +0.0000000000e+00 +0.0000000000e+00 +9.2588941942e+01 9.2588941942e+01 0.0000000000e+00 0.0000e+00 1.0000e+00
       21 -1    0    0  501  503 -0.0000000000e+00 -0.0000000000e+00 -8.2089982365e+02 8.2089982365e+02 0.0000000000e+00 0.0000e+00 -1.0000e+00
        6  1    1    2  501    0 +1.7403207895e+02 +7.9063047335e+01 -5.2596442886e+02 5.8575226024e+02 1.7300000000e+02 0.0000e+00 -1.0000e+00
       -6  1    1    2    0  502 -1.7403207895e+02 -7.9063047335e+01 -2.0234645285e+02 3.2773650535e+02 1.7300000000e+02 0.0000e+00 1.0000e+00
<mgrwt>
<rscale>  2 0.25781220E+03</rscale>
<asrwt>0</asrwt>
<pdfrwt beam="1">  1       21 0.14244453E-01 0.25781220E+03</pdfrwt>
<pdfrwt beam="2">  1       21 0.12629228E+00 0.25781220E+03</pdfrwt>
<totfact> 0.19290834E+04</totfact>
</mgrwt>
</event>
<event>
 4      2 +5.6305390e+02 2.24777100e+02 7.54677100e-03 1.13037100e-01
       21 -1    0    0  501  502 +0.0000000000e+00 +0.0000000000e+00 +2.0452341345e+02 2.0452341345e+02 0.0000000000e+00 0.0000e+00 1.0000e+00
       21 -1    0    0  502  503 -0.0000000000e+00 -0.0000000000e+00 -2.7204099741e+02 2.7204099741e+02 0.0000000000e+00 0.0000e+00 -1.0000e+00
        6  1    1    2  501    0 +4.9075921045e+01 +1.3486025665e+02 +3.8482260509e+01 2.2804740565e+02 1.7300000000e+02 0.0000e+00 -1.0000e+00
       -6  1    1    2    0  503 -4.9075921045e+01 -1.3486025665e+02 -1.0599984447e+02 2.4851700521e+02 1.7300000000e+02 0.0000e+00 1.0000e+00
<mgrwt>
<rscale>  2 0.22477708E+03</rscale>
<asrwt>0</asrwt>
<pdfrwt beam="1">  1       21 0.31465141E-01 0.22477708E+03</pdfrwt>
<pdfrwt beam="2">  1       21 0.41852461E-01 0.22477708E+03</pdfrwt>
<totfact> 0.52562547E+04</totfact>
</mgrwt>
</event>
<event>
 4      2 +5.6305390e+02 1.84704000e+02 7.54677100e-03 1.16332700e-01
       21 -1    0    0  501  502 +0.0000000000e+00 +0.0000000000e+00 +8.3191561486e+02 8.3191561486e+02 0.0000000000e+00 0.0000e+00 -1.0000e+00
       21 -1    0    0  502  503 -0.0000000000e+00 -0.0000000000e+00 -1.6705162953e+02 1.6705162953e+02 0.0000000000e+00 0.0000e+00 -1.0000e+00
        6  1    1    2  501    0 -6.1632441077e+01 +1.9698029773e+01 +7.6629794359e+02 7.8824368601e+02 1.7300000000e+02 0.0000e+00 -1.0000e+00
       -6  1    1    2    0  503 +6.1632441077e+01 -1.9698029773e+01 -1.0143395826e+02 2.1072355838e+02 1.7300000000e+02 0.0000e+00 -1.0000e+00
<mgrwt>
<rscale>  2 0.18470401E+03</rscale>
<asrwt>0</asrwt>
<pdfrwt beam="1">  1       21 0.12798702E+00 0.18470401E+03</pdfrwt>
<pdfrwt beam="2">  1       21 0.25700251E-01 0.18470401E+03</pdfrwt>
<totfact> 0.65000571E+03</totfact>
</mgrwt>
</event>
<event>
 4      2 +5.6305390e+02 1.73250600e+02 7.54677100e-03 1.17450000e-01
        1 -1    0    0  502    0 +0.0000000000e+00 +0.0000000000e+00 +4.8599901358e+02 4.8599901358e+02 0.0000000000e+00 0.0000e+00 -1.0000e+00
       -1 -1    0    0    0  501 -0.0000000000e+00 -0.0000000000e+00 -8.5125851264e+01 8.5125851264e+01 0.0000000000e+00 0.0000e+00 1.0000e+00
        6  1    1    2  502    0 +2.0297247979e-01 -9.3133475738e+00 +5.0829567831e+01 1.8055310744e+02 1.7300000000e+02 0.0000e+00 1.0000e+00
       -6  1    1    2    0  501 -2.0297247979e-01 +9.3133475738e+00 +3.5004359449e+02 3.9057175741e+02 1.7300000000e+02 0.0000e+00 -1.0000e+00
<mgrwt>
<rscale>  2 0.17325063E+03</rscale>
<asrwt>0</asrwt>
<pdfrwt beam="1">  1        1 0.74769077E-01 0.17325063E+03</pdfrwt>
<pdfrwt beam="2">  1       -1 0.13096285E-01 0.17325063E+03</pdfrwt>
<totfact> 0.18522364E+03</totfact>
</mgrwt>
</event>
<event>
 4      2 +5.6305390e+02 2.14487000e+02 7.54677100e-03 1.13806100e-01
       21 -1    0    0  503  502 +0.0000000000e+00 +0.0000000000e+00 +1.7552700144e+02 1.7552700144e+02 0.0000000000e+00 0.0000e+00 -1.0000e+00
       21 -1    0    0  501  503 -0.0000000000e+00 -0.0000000000e+00 -2.9542834276e+02 2.9542834276e+02 0.0000000000e+00 0.0000e+00 -1.0000e+00
        6  1    1    2  501    0 +3.4077191198e+01 +1.2212466222e+02 -1.3904864581e+02 2.5561536336e+02 1.7300000000e+02 0.0000e+00 -1.0000e+00
       -6  1    1    2    0  502 -3.4077191198e+01 -1.2212466222e+02 +1.9147304492e+01 2.1533998085e+02 1.7300000000e+02 0.0000e+00 -1.0000e+00
<mgrwt>
<rscale>  2 0.21448703E+03</rscale>
<asrwt>0</asrwt>
<pdfrwt beam="1">  1       21 0.27004154E-01 0.21448703E+03</pdfrwt>
<pdfrwt beam="2">  1       21 0.45450514E-01 0.21448703E+03</pdfrwt>
<totfact> 0.60055106E+04</totfact>
</mgrwt>
</event>
<event>
 4      2 +5.6305390e+02 2.03764300e+02 7.54677100e-03 1.14660100e-01
       21 -1    0    0  503  502 +0.0000000000e+00 +0.0000000000e+00 +1.8941136745e+02 1.8941136745e+02 0.0000000000e+00 0.0000e+00 -1.0000e+00
       21 -1    0    0  501  503 -0.0000000000e+00 -0.0000000000e+00 -3.2189381488e+02 3.2189381488e+02 0.0000000000e+00 0.0000e+00 -1.0000e+00
        6  1    1    2  501    0 -6.3248314115e+01 +8.7123746826e+01 -2.1063740327e+02 2.9306656608e+02 1.7300000000e+02 0.0000e+00 -1.0000e+00
       -6  1    1    2    0  502 +6.3248314115e+01 -8.7123746826e+01 +7.8154955840e+01 2.1823861625e+02 1.7300000000e+02 0.0000e+00 -1.0000e+00
<mgrwt>
<rscale>  2 0.20376432E+03</rscale>
<asrwt>0</asrwt>
<pdfrwt beam="1">  1       21 0.29140211E-01 0.20376432E+03</pdfrwt>
<pdfrwt beam="2">  1       21 0.49522125E-01 0.20376432E+03</pdfrwt>
<totfact> 0.43591412E+04</totfact>
</mgrwt>
</event>
<event>
 4      2 +5.6305390e+02 1.84723100e+02 7.54677100e-03 1.16330900e-01
       21 -1    0    0  503  502 +0.0000000000e+00 +0.0000000000e+00 +1.1070390675e+03 1.1070390675e+03 0.0000000000e+00 0.0000e+00 -1.0000e+00
       21 -1    0    0  501  503 -0.0000000000e+00 -0.0000000000e+00 -1.1131207186e+02 1.1131207186e+02 0.0000000000e+00 0.0000e+00 1.0000e+00
        6  1    1    2  501    0 -1.6222420441e+01 +6.2693415095e+01 -2.0147419260e+01 1.8581859359e+02 1.7300000000e+02 0.0000e+00 1.0000e+00
       -6  1    1    2    0  502 +1.6222420441e+01 -6.2693415095e+01 +1.0158744149e+03 1.0325325458e+03 1.7300000000e+02 0.0000e+00 -1.0000e+00
<mgrwt>
<rscale>  2 0.18472312E+03</rscale>
<asrwt>0</asrwt>
<pdfrwt beam="1">  1       21 0.17031370E+00 0.18472312E+03</pdfrwt>
<pdfrwt beam="2">  1       21 0.17124935E-01 0.18472312E+03</pdfrwt>
<totfact> 0.65786022E+03</totfact>
</mgrwt>
</event>
<event>
 4      2 +5.6305390e+02 1.84146900e+02 7.54677100e-03 1.16384900e-01
       21 -1    0    0  503  502 +0.0000000000e+00 +0.0000000000e+00 +5.3700489168e+01 5.3700489168e+01 0.0000000000e+00 0.0000e+00 1.0000e+00
       21 -1    0    0  501  503 -0.0000000000e+00 -0.0000000000e+00 -6.3220260685e+02 6.3220260685e+02 0.0000000000e+00 0.0000e+00 1.0000e+00
        6  1    1    2  501    0 -3.6236191054e+01 -5.1652806521e+01 -3.0095138652e+02 3.5281979963e+02 1.7300000000e+02 0.0000e+00 -1.0000e+00
       -6  1    1    2    0  502 +3.6236191054e+01 +5.1652806521e+01 -2.7755073117e+02 3.3308329639e+02 1.7300000000e+02 0.0000e+00 -1.0000e+00
<mgrwt>
<rscale>  2 0.18414688E+03</rscale>
<asrwt>0</asrwt>
<pdfrwt beam="1">  1       21 0.82616137E-02 0.18414688E+03</pdfrwt>
<pdfrwt beam="2">  1       21 0.97261940E-01 0.18414688E+03</pdfrwt>
<totfact> 0.99799700E+04</totfact>
</mgrwt>
</event>
<event>
 4      2 +5.6305390e+02 1.77364200e+02 7.54677100e-03 1.17037900e-01
       21 -1    0    0  501  502 +0.0000000000e+00 +0.0000000000e+00 +2.2136099640e+02 2.2136099640e+02 0.0000000000e+00 0.0000e+00 1.0000e+00
       21 -1    0    0  502  503 -0.0000000000e+00 -0.0000000000e+00 -2.0841847842e+02 2.0841847842e+02 0.0000000000e+00 0.0000e+00 1.0000e+00
        6  1    1    2  501    0 +7.5951814714e+00 -3.8358564491e+01 +1.2767760636e+02 2.1853978452e+02 1.7300000000e+02 0.0000e+00 1.0000e+00
       -6  1    1    2    0  503 -7.5951814714e+00 +3.8358564491e+01 -1.1473508838e+02 2.1123969030e+02 1.7300000000e+02 0.0000e+00 1.0000e+00
<mgrwt>
<rscale>  2 0.17736422E+03</rscale>
<asrwt>0</asrwt>
<pdfrwt beam="1">  1       21 0.34055538E-01 0.17736422E+03</pdfrwt>
<pdfrwt beam="2">  1       21 0.32064381E-01 0.17736422E+03</pdfrwt>
<totfact> 0.78210761E+04</totfact>
</mgrwt>
</event>
<event>
 4      2 +5.6305390e+02 1.82097900e+02 7.54677100e-03 1.16578800e-01
       21 -1    0    0  503  502 +0.0000000000e+00 +0.0000000000e+00 +2.7199347181e+02 2.7199347181e+02 0.0000000000e+00 0.0000e+00 1.0000e+00
       21 -1    0    0  501  503 -0.0000000000e+00 -0.0000000000e+00 -1.4362183343e+02 1.4362183343e+02 0.0000000000e+00 0.0000e+00 1.0000e+00
        6  1    1    2  501    0 -5.6310239805e+01 -7.7331850122e+00 -1.6605682468e+01 1.8285347672e+02 1.7300000000e+02 0.0000e+00 -1.0000e+00
       -6  1    1    2    0  502 +5.6310239805e+01 +7.7331850122e+00 +1.4497732085e+02 2.3276182853e+02 1.7300000000e+02 0.0000e+00 -1.0000e+00
<mgrwt>
<rscale>  2 0.18209790E+03</rscale>
<asrwt>0</asrwt>
<pdfrwt beam="1">  1       21 0.41845149E-01 0.18209790E+03</pdfrwt>
<pdfrwt beam="2">  1       21 0.22095667E-01 0.18209790E+03</pdfrwt>
<totfact> 0.10566167E+05</totfact>
</mgrwt>
</event>
<event>
 4      2 +5.6305390e+02 3.27713500e+02 7.54677100e-03 1.07215300e-01
       21 -1    0    0  501  502 +0.0000000000e+00 +0.0000000000e+00 +1.4614052073e+02 1.4614052073e+02 0.0000000000e+00 0.0000e+00 -1.0000e+00
       21 -1    0    0  502  503 -0.0000000000e+00 -0.0000000000e+00 -7.7050610636e+02 7.7050610636e+02 0.0000000000e+00 0.0000e+00 1.0000e+00
        6  1    1    2  501    0 +1.6587294495e+02 +2.2350239921e+02 -2.1363407743e+02 3.9119774457e+02 1.7300000000e+02 0.0000e+00 -1.0000e+00
       -6  1    1    2    0  503 -1.6587294495e+02 -2.2350239921e+02 -4.1073150820e+02 5.2544888252e+02 1.7300000000e+02 0.0000e+00 1.0000e+00
<mgrwt>
<rscale>  2 0.32771353E+03</rscale>
<asrwt>0</asrwt>
<pdfrwt beam="1">  1       21 0.22483157E-01 0.32771353E+03</pdfrwt>
<pdfrwt beam="2">  1       21 0.11853940E+00 0.32771353E+03</pdfrwt>
<totfact> 0.93447015E+03</totfact>
</mgrwt>
</event>
<event>
 4      2 +5.6305390e+02 2.17371300e+02 7.54677100e-03 1.13585800e-01
       21 -1    0    0  501  502 +0.0000000000e+00 +0.0000000000e+00 +1.3742662140e+02 1.3742662140e+02 0.0000000000e+00 0.0000e+00 -1.0000e+00
       21 -1    0    0  502  503 -0.0000000000e+00 -0.0000000000e+00 -5.7964167311e+02 5.7964167311e+02 0.0000000000e+00 0.0000e+00 -1.0000e+00
        6  1    1    2  501    0 -8.8018817704e+01 +9.7846677386e+01 +7.5791259985e+00 2.1750339698e+02 1.7300000000e+02 0.0000e+00 -1.0000e+00
       -6  1    1    2    0  503 +8.8018817704e+01 -9.7846677386e+01 -4.4979417771e+02 4.9956489753e+02 1.7300000000e+02 0.0000e+00 -1.0000e+00
<mgrwt>
<rscale>  2 0.21737131E+03</rscale>
<asrwt>0</asrwt>
<pdfrwt beam="1">  1       21 0.21142557E-01 0.21737131E+03</pdfrwt>
<pdfrwt beam="2">  1       21 0.89175642E-01 0.21737131E+03</pdfrwt>
<totfact> 0.22002547E+04</totfact>
</mgrwt>
</event>
<event>
 4      2 +5.6305390e+02 2.03293700e+02 7.54677100e-03 1.14699000e-01
       21 -1    0    0  503  502 +0.0000000000e+00 +0.0000000000e+00 +8.9130319791e+01 8.9130319791e+01 0.0000000000e+00 0.0000e+00 -1.0000e+00
       21 -1    0    0  501  503 -0.0000000000e+00 -0.0000000000e+00 -4.9395656491e+02 4.9395656491e+02 0.0000000000e+00 0.0000e+00 1.0000e+00
        6  1    1    2  501    0 +1.0668439854e+02 -4.2140516958e+00 -2.7458736342e+02 3.4165265881e+02 1.7300000000e+02 0.0000e+00 1.0000e+00
       -6  1    1    2    0  502 -1.0668439854e+02 +4.2140516958e+00 -1.3023888170e+02 2.4143422589e+02 1.7300000000e+02 0.0000e+00 -1.0000e+00
<mgrwt>
<rscale>  2 0.20329368E+03</rscale>
<asrwt>0</asrwt>
<pdfrwt beam="1">  1       21 0.13712357E-01 0.20329368E+03</pdfrwt>
<pdfrwt beam="2">  1       21 0.75993317E-01 0.20329368E+03</pdfrwt>
<totfact> 0.70927934E+04</totfact>
</mgrwt>
</event>
<event>
 4      2 +5.6305390e+02 1.73700900e+02 7.54677100e-03 1.17404200e-01
       21 -1    0    0  501  502 +0.0000000000e+00 +0.0000000000e+00 +2.6124154925e+02 2.6124154925e+02 0.0000000000e+00 0.0000e+00 -1.0000e+00
       21 -1    0    0  502  503 -0.0000000000e+00 -0.0000000000e+00 -1.2340548724e+02 1.2340548724e+02 0.0000000000e+00 0.0000e+00 -1.0000e+00
        6  1    1    2  501    0 -8.3599948719e+00 +1.3156859503e+01 +1.1761223962e+02 2.0977280895e+02 1.7300000000e+02 0.0000e+00 -1.0000e+00
       -6  1    1    2    0  503 +8.3599948719e+00 -1.3156859503e+01 +2.0223822388e+01 1.7487422754e+02 1.7300000000e+02 0.0000e+00 -1.0000e+00
<mgrwt>
<rscale>  2 0.17370087E+03</rscale>
<asrwt>0</asrwt>
<pdfrwt beam="1">  1       21 0.40191007E-01 0.17370087E+03</pdfrwt>
<pdfrwt beam="2">  1       21 0.18985460E-01 0.17370087E+03</pdfrwt>
<totfact> 0.15267111E+05</totfact>
</mgrwt>
</event>
<event>
 4      2 +5.6305390e+02 2.02595000e+02 7.54677100e-03 1.14756800e-01
       21 -1    0    0  501  502 +0.0000000000e+00 +0.0000000000e+00 +6.5206495359e+01 6.5206495359e+01 0.0000000000e+00 0.0000e+00 -1.0000e+00
       21 -1    0    0  502  503 -0.0000000000e+00 -0.0000000000e+00 -6.8560116196e+02 6.8560116196e+02 0.0000000000e+00 0.0000e+00 -1.0000e+00
        6  1    1    2  501    0 -5.9226196367e+01 -8.7223906406e+01 -4.1762378690e+02 4.6417063626e+02 1.7300000000e+02 0.0000e+00 -1.0000e+00
       -6  1    1    2    0  503 +5.9226196367e+01 +8.7223906406e+01 -2.0277087970e+02 2.8663702106e+02 1.7300000000e+02 0.0000e+00 -1.0000e+00
<mgrwt>
<rscale>  2 0.20259504E+03</rscale>
<asrwt>0</asrwt>
<pdfrwt beam="1">  1       21 0.10031768E-01 0.20259504E+03</pdfrwt>
<pdfrwt beam="2">  1       21 0.10547711E+00 0.20259504E+03</pdfrwt>
<totfact> 0.58025990E+04</totfact>
</mgrwt>
</event>
<event>
 4      2 +5.6305390e+02 1.81408500e+02 7.54677100e-03 1.16644700e-01
       21 -1    0    0  501  502 +0.0000000000e+00 +0.0000000000e+00 +1.9723030092e+02 1.9723030092e+02 0.0000000000e+00 0.0000e+00 -1.0000e+00
       21 -1    0    0  502  503 -0.0000000000e+00 -0.0000000000e+00 -1.9718192232e+02 1.9718192232e+02 0.0000000000e+00 0.0000e+00 -1.0000e+00
        6  1    1    2  501    0 -5.4441961464e+01 -4.0127286382e+00 +7.7362542040e+01 1.9721559794e+02 1.7300000000e+02 0.0000e+00 -1.0000e+00
       -6  1    1    2    0  503 +5.4441961464e+01 +4.0127286382e+00 -7.7314163440e+01 1.9719662529e+02 1.7300000000e+02 0.0000e+00 -1.0000e+00
<mgrwt>
<rscale>  2 0.18140846E+03</rscale>
<asrwt>0</asrwt>
<pdfrwt beam="1">  1       21 0.30343123E-01 0.18140846E+03</pdfrwt>
<pdfrwt beam="2">  1       21 0.30335680E-01 0.18140846E+03</pdfrwt>
<totfact> 0.10912367E+05</totfact>
</mgrwt>
</event>
<event>
 4      2 +5.6305390e+02 2.11435300e+02 7.54677100e-03 1.14043400e-01
       21 -1    0    0  503  502 +0.0000000000e+00 +0.0000000000e+00 +3.8776029348e+02 3.8776029348e+02 0.0000000000e+00 0.0000e+00 1.0000e+00
       21 -1    0    0  501  503 -0.0000000000e+00 -0.0000000000e+00 -1.2445204873e+02 1.2445204873e+02 0.0000000000e+00 0.0000e+00 -1.0000e+00
        6  1    1    2  501    0 -1.0716410668e+02 +5.7373518814e+01 +2.0114317735e+02 2.9182776464e+02 1.7300000000e+02 0.0000e+00 1.0000e+00
       -6  1    1    2    0  502 +1.0716410668e+02 -5.7373518814e+01 +6.2165067401e+01 2.2038457756e+02 1.7300000000e+02 0.0000e+00 1.0000e+00
<mgrwt>
<rscale>  2 0.21143525E+03</rscale>
<asrwt>0</asrwt>
<pdfrwt beam="1">  1       21 0.59655429E-01 0.21143525E+03</pdfrwt>
<pdfrwt beam="2">  1       21 0.19146469E-01 0.21143525E+03</pdfrwt>
<totfact> 0.65128125E+04</totfact>
</mgrwt>
</event>
<event>
 4      2 +5.6305390e+02 2.20123700e+02 7.54677100e-03 1.13379100e-01
        2 -1    0    0  502    0 +0.0000000000e+00 +0.0000000000e+00 +8.0987675002e+01 8.0987675002e+01 0.0000000000e+00 0.0000e+00 1.0000e+00
       -2 -1    0    0    0  501 -0.0000000000e+00 -0.0000000000e+00 -6.2449150301e+02 6.2449150301e+02 0.0000000000e+00 0.0000e+00 -1.0000e+00
        6  1    1    2  502    0 +4.2059547118e+01 -1.2944663710e+02 -3.4399913728e+02 4.0839912318e+02 1.7300000000e+02 0.0000e+00 -1.0000e+00
       -6  1    1    2    0  501 -4.2059547118e+01 +1.2944663710e+02 -1.9950469073e+02 2.9708005484e+02 1.7300000000e+02 0.0000e+00 -1.0000e+00
<mgrwt>
<rscale>  2 0.22012369E+03</rscale>
<asrwt>0</asrwt>
<pdfrwt beam="1">  1        2 0.12459642E-01 0.22012369E+03</pdfrwt>
<pdfrwt beam="2">  1       -2 0.96075616E-01 0.22012369E+03</pdfrwt>
<totfact> 0.45838726E+02</totfact>
</mgrwt>
</event>
<event>
 4      2 +5.6305390e+02 1.94489800e+02 7.54677100e-03 1.15447300e-01
       21 -1    0    0  501  502 +0.0000000000e+00 +0.0000000000e+00 +7.5000223300e+01 7.5000223300e+01 0.0000000000e+00 0.0000e+00 1.0000e+00
       21 -1    0    0  502  503 -0.0000000000e+00 -0.0000000000e+00 -5.1421210638e+02 5.1421210638e+02 0.0000000000e+00 0.0000e+00 -1.0000e+00
        6  1    1    2  501    0 +5.3439766521e+01 -7.1003342643e+01 -1.7880419015e+02 2.6419163826e+02 1.7300000000e+02 0.0000e+00 1.0000e+00
       -6  1    1    2    0  503 -5.3439766521e+01 +7.1003342643e+01 -2.6040769293e+02 3.2502069142e+02 1.7300000000e+02 0.0000e+00 1.0000e+00
<mgrwt>
<rscale>  2 0.19448980E+03</rscale>
<asrwt>0</asrwt>
<pdfrwt beam="1">  1       21 0.11538496E-01 0.19448980E+03</pdfrwt>
<pdfrwt beam="2">  1       21 0.79109555E-01 0.19448980E+03</pdfrwt>
<totfact> 0.88715720E+04</totfact>
</mgrwt>
</event>
<event>
 4      2 +5.6305390e+02 2.07393500e+02 7.54677100e-03 1.14364700e-01
       21 -1    0    0  503  502 +0.0000000000e+00 +0.0000000000e+00 +1.9231704841e+02 1.9231704841e+02 0.0000000000e+00 0.0000e+00 1.0000e+00
       21 -1    0    0  501  503 -0.0000000000e+00 -0.0000000000e+00 -2.5894287958e+02 2.5894287958e+02 0.0000000000e+00 0.0000e+00 1.0000e+00
        6  1    1    2  501    0 -8.5036061061e+01 -7.6497984404e+01 -1.1660939452e+02 2.3792819125e+02 1.7300000000e+02 0.0000e+00 1.0000e+00
       -6  1    1    2    0  502 +8.5036061061e+01 +7.6497984404e+01 +4.9983563345e+01 2.1333173675e+02 1.7300000000e+02 0.0000e+00 1.0000e+00
<mgrwt>
<rscale>  2 0.20739352E+03</rscale>
<asrwt>0</asrwt>
<pdfrwt beam="1">  1       21 0.29587238E-01 0.20739352E+03</pdfrwt>
<pdfrwt beam="2">  1       21 0.39837366E-01 0.20739352E+03</pdfrwt>
<totfact> 0.66047640E+04</totfact>
</mgrwt>
</event>
<event>
 4      2 +5.6305390e+02 1.87765400e+02 7.54677100e-03 1.16049200e-01
       21 -1    0    0  501  502 +0.0000000000e+00 +0.0000000000e+00 +6.5821248746e+01 6.5821248746e+01 0.0000000000e+00 0.0000e+00 -1.0000e+00
       21 -1    0    0  502  503 -0.0000000000e+00 -0.0000000000e+00 -5.5489855905e+02 5.5489855905e+02 0.0000000000e+00 0.0000e+00 -1.0000e+00
        6  1    1    2  501    0 -6.1594856919e+01 +3.9152351359e+01 -1.8670457284e+02 2.6479129618e+02 1.7300000000e+02 0.0000e+00 -1.0000e+00
       -6  1    1    2    0  503 +6.1594856919e+01 -3.9152351359e+01 -3.0237273747e+02 3.5592851161e+02 1.7300000000e+02 0.0000e+00 -1.0000e+00
<mgrwt>
<rscale>  2 0.18776537E+03</rscale>
<asrwt>0</asrwt>
<pdfrwt beam="1">  1       21 0.10126346E-01 0.18776537E+03</pdfrwt>
<pdfrwt beam="2">  1       21 0.85369011E-01 0.18776537E+03</pdfrwt>
<totfact> 0.94347009E+04</totfact>
</mgrwt>
</event>
<event>
 4      2 +5.6305390e+02 2.62914300e+02 7.54677100e-03 1.10540500e-01
       21 -1    0    0  501  502 +0.0000000000e+00 +0.0000000000e+00 +8.6822446373e+01 8.6822446373e+01 0.0000000000e+00 0.0000e+00 1.0000e+00
       21 -1    0    0  502  503 -0.0000000000e+00 -0.0000000000e+00 -7.9832788598e+02 7.9832788598e+02 0.0000000000e+00 0.0000e+00 -1.0000e+00
        6  1    1    2  501    0 -1.6159394023e+02 -1.1437794133e+02 -3.7885507324e+02 4.6114540169e+02 1.7300000000e+02 0.0000e+00 -1.0000e+00
       -6  1    1    2    0  503 +1.6159394023e+02 +1.1437794133e+02 -3.3265036637e+02 4.2400493067e+02 1.7300000000e+02 0.0000e+00 1.0000e+00
<mgrwt>
<rscale>  2 0.26291427E+03</rscale>
<asrwt>0</asrwt>
<pdfrwt beam="1">  1       21 0.13357300E-01 0.26291427E+03</pdfrwt>
<pdfrwt beam="2">  1       21 0.12281967E+00 0.26291427E+03</pdfrwt>
<totfact> 0.23212461E+04</totfact>
</mgrwt>
</event>
<event>
 4      2 +5.6305390e+02 2.63950500e+02 7.54677100e-03 1.10479300e-01
       21 -1    0    0  501  502 +0.0000000000e+00 +0.0000000000e+00 +2.6744846842e+02 2.6744846842e+02 0.0000000000e+00 0.0000e+00 -1.0000e+00
       21 -1    0    0  502  503 -0.0000000000e+00 -0.0000000000e+00 -2.8991744304e+02 2.8991744304e+02 0.0000000000e+00 0.0000e+00 -1.0000e+00
        6  1    1    2  501    0 +1.2033001298e+02 -1.5893889549e+02 -1.0000891492e+02 2.8226170054e+02 1.7300000000e+02 0.0000e+00 -1.0000e+00
       -6  1    1    2    0  503 -1.2033001298e+02 +1.5893889549e+02 +7.7539940303e+01 2.7510421092e+02 1.7300000000e+02 0.0000e+00 -1.0000e+00
<mgrwt>
<rscale>  2 0.26395053E+03</rscale>
<asrwt>0</asrwt>
<pdfrwt beam="1">  1       21 0.41145918E-01 0.26395053E+03</pdfrwt>
<pdfrwt beam="2">  1       21 0.44602683E-01 0.26395053E+03</pdfrwt>
<totfact> 0.26493220E+04</totfact>
</mgrwt>
</event>
<event>
 4      2 +5.6305390e+02 1.91736400e+02 7.54677100e-03 1.15690400e-01
       21 -1    0    0  503  502 +0.0000000000e+00 +0.0000000000e+00 +2.7831136516e+02 2.7831136516e+02 0.0000000000e+00 0.0000e+00 1.0000e+00
       21 -1    0    0  501  503 -0.0000000000e+00 -0.0000000000e+00 -1.5387064530e+02 1.5387064530e+02 0.0000000000e+00 0.0000e+00 -1.0000e+00
        6  1    1    2  501    0 -4.4178058638e+01 +6.9872477175e+01 -1.9075519546e+01 1.9268300231e+02 1.7300000000e+02 0.0000e+00 1.0000e+00
       -6  1    1    2    0  502 +4.4178058638e+01 -6.9872477175e+01 +1.4351623940e+02 2.3949900815e+02 1.7300000000e+02 0.0000e+00 -1.0000e+00
<mgrwt>
<rscale>  2 0.19173644E+03</rscale>
<asrwt>0</asrwt>
<pdfrwt beam="1">  1       21 0.42817133E-01 0.19173644E+03</pdfrwt>
<pdfrwt beam="2">  1       21 0.23672407E-01 0.19173644E+03</pdfrwt>
<totfact> 0.88198634E+04</totfact>
</mgrwt>
</event>
<event>
 4      2 +5.6305390e+02 1.74891500e+02 7.54677100e-03 1.17284100e-01
       21 -1    0    0  501  502 +0.0000000000e+00 +0.0000000000e+00 +5.3974440710e+02 5.3974440710e+02 0.0000000000e+00 0.0000e+00 1.0000e+00
       21 -1    0    0  502  503 -0.0000000000e+00 -0.0000000000e+00 -5.8519242217e+01 5.8519242217e+01 0.0000000000e+00 0.0000e+00 1.0000e+00
        6  1    1    2  501    0 +2.4123809054e+01 +8.7226997765e+00 +2.9379515212e+02 3.4191027341e+02 1.7300000000e+02 0.0000e+00 1.0000e+00
       -6  1    1    2    0  503 -2.4123809054e+01 -8.7226997765e+00 +1.8743001276e+02 2.5635337591e+02 1.7300000000e+02 0.0000e+00 1.0000e+00
<mgrwt>
<rscale>  2 0.17489152E+03</rscale>
<asrwt>0</asrwt>
<pdfrwt beam="1">  1       21 0.83037598E-01 0.17489152E+03</pdfrwt>
<pdfrwt beam="2">  1       21 0.90029607E-02 0.17489152E+03</pdfrwt>
<totfact> 0.12420509E+05</totfact>
</mgrwt>
</event>
<event>
 4      2 +5.6305390e+02 1.93009100e+02 7.54677100e-03 1.15577500e-01
       -1 -1    0    0    0  501 -0.0000000000e+00 +0.0000000000e+00 +6.8193669257e+01 6.8193669257e+01 0.0000000000e+00 0.0000e+00 1.0000e+00
        1 -1    0    0  502    0 +0.0000000000e+00 -0.0000000000e+00 -7.1858994850e+02 7.1858994850e+02 0.0000000000e+00 0.0000e+00 -1.0000e+00
        6  1    1    2  502    0 -5.6469867184e+01 -6.4301299834e+01 -1.3255830217e+02 2.3414569510e+02 1.7300000000e+02 0.0000e+00 1.0000e+00
       -6  1    1    2    0  501 +5.6469867184e+01 +6.4301299834e+01 -5.1783797707e+02 5.5263792265e+02 1.7300000000e+02 0.0000e+00 -1.0000e+00
<mgrwt>
<rscale>  2 0.19300908E+03</rscale>
<asrwt>0</asrwt>
<pdfrwt beam="1">  1        1 0.11055230E+00 0.19300908E+03</pdfrwt>
<pdfrwt beam="2">  1       -1 0.10491333E-01 0.19300908E+03</pdfrwt>
<totfact> 0.15291102E+03</totfact>
</mgrwt>
</event>
<event>
 4      2 +5.6305390e+02 1.76863400e+02 7.54677100e-03 1.17087400e-01
       21 -1    0    0  501  502 +0.0000000000e+00 +0.0000000000e+00 +7.4097512452e+01 7.4097512452e+01 0.0000000000e+00 0.0000e+00 -1.0000e+00
       21 -1    0    0  502  503 -0.0000000000e+00 -0.0000000000e+00 -5.0669537419e+02 5.0669537419e+02 0.0000000000e+00 0.0000e+00 -1.0000e+00
        6  1    1    2  501    0 +3.1923412088e+00 +3.6626079380e+01 -3.3491650197e+02 3.7874757297e+02 1.7300000000e+02 0.0000e+00 -1.0000e+00
       -6  1    1    2    0  503 -3.1923412088e+00 -3.6626079380e+01 -9.7681359764e+01 2.0204531368e+02 1.7300000000e+02 0.0000e+00 -1.0000e+00
<mgrwt>
<rscale>  2 0.17686340E+03</rscale>
<asrwt>0</asrwt>
<pdfrwt beam="1">  1       21 0.11399617E-01 0.17686340E+03</pdfrwt>
<pdfrwt beam="2">  1       21 0.77953135E-01 0.17686340E+03</pdfrwt>
<totfact> 0.94376729E+04</totfact>
</mgrwt>
</event>
<event>
 4      2 +5.6305390e+02 1.94537100e+02 7.54677100e-03 1.15443200e-01
       21 -1    0    0  503  502 +0.0000000000e+00 +0.0000000000e+00 +3.9101777691e+02 3.9101777691e+02 0.0000000000e+00 0.0000e+00 -1.0000e+00
       21 -1    0    0  501  503 -0.0000000000e+00 -0.0000000000e+00 -1.0106809579e+02 1.0106809579e+02 0.0000000000e+00 0.0000e+00 1.0000e+00
        6  1    1    2  501    0 +1.0453836618e+01 +8.8353765088e+01 +1.9562499955e+02 2.7588731568e+02 1.7300000000e+02 0.0000e+00 -1.0000e+00
       -6  1    1    2    0  502 -1.0453836618e+01 -8.8353765088e+01 +9.4324681561e+01 2.1619855702e+02 1.7300000000e+02 0.0000e+00 1.0000e+00
<mgrwt>
<rscale>  2 0.19453707E+03</rscale>
<asrwt>0</asrwt>
<pdfrwt beam="1">  1       21 0.60156580E-01 0.19453707E+03</pdfrwt>
<pdfrwt beam="2">  1       21 0.15548938E-01 0.19453707E+03</pdfrwt>
<totfact> 0.94599598E+04</totfact>
</mgrwt>
</event>
<event>
 4      2 +5.6305390e+02 2.55785900e+02 7.54677100e-03 1.10970200e-01
        1 -1    0    0  502    0 +0.0000000000e+00 +0.0000000000e+00 +2.0677969379e+03 2.0677969379e+03 0.0000000000e+00 0.0000e+00 -1.0000e+00
       -1 -1    0    0    0  501 -0.0000000000e+00 -0.0000000000e+00 -3.3339008637e+01 3.3339008637e+01 0.0000000000e+00 0.0000e+00 1.0000e+00
        6  1    1    2  502    0 +1.5606386681e+02 -1.0555327305e+02 +1.2543463835e+03 1.2801606438e+03 1.7300000000e+02 0.0000e+00 -1.0000e+00
       -6  1    1    2    0  501 -1.5606386681e+02 +1.0555327305e+02 +7.8011154579e+02 8.2097530282e+02 1.7300000000e+02 0.0000e+00 1.0000e+00
<mgrwt>
<rscale>  2 0.25578589E+03</rscale>
<asrwt>0</asrwt>
<pdfrwt beam="1">  1        1 0.31812251E+00 0.25578589E+03</pdfrwt>
<pdfrwt beam="2">  1       -1 0.51290799E-02 0.25578589E+03</pdfrwt>
<totfact> 0.51734067E+02</totfact>
</mgrwt>
</event>
<event>
 4      3 +5.6305390e+02 1.11495800e+02 7.54677100e-03 1.25782500e-01
        1 -1    0    0  501    0 +0.0000000000e+00 +0.0000000000e+00 +2.0467010881e+03 2.0467010881e+03 0.0000000000e+00 0.0000e+00 -1.0000e+00
       -1 -1    0    0    0  501 -0.0000000000e+00 -0.0000000000e+00 -6.4426030448e+00 6.4426030448e+00 0.0000000000e+00 0.0000e+00 1.0000e+00
       24  1    1    2    0    0 -7.3356543740e+01 -2.4143545634e+01 +7.7452280487e+02 7.8250679519e+02 8.0419002446e+01 0.0000e+00 0.0000e+00
      -24  1    1    2    0    0 +7.3356543740e+01 +2.4143545634e+01 +1.2657356802e+03 1.2706368959e+03 8.0419002446e+01 0.0000e+00 -1.0000e+00
<mgrwt>
<rscale>  0 0.11149578E+03</rscale>
<asrwt>0</asrwt>
<pdfrwt beam="1">  1        1 0.31487657E+00 0.11149578E+03</pdfrwt>
<pdfrwt beam="2">  1       -1 0.99117133E-03 0.11149578E+03</pdfrwt>
<totfact> 0.58795351E+03</totfact>
</mgrwt>
</event>
<event>
 4      2 +5.6305390e+02 1.77580800e+02 7.54677100e-03 1.17016500e-01
       21 -1    0    0  503  502 +0.0000000000e+00 +0.0000000000e+00 +4.7001184080e+02 4.7001184080e+02 0.0000000000e+00 0.0000e+00 -1.0000e+00
       21 -1    0    0  501  503 -0.0000000000e+00 -0.0000000000e+00 -6.9330270512e+01 6.9330270512e+01 0.0000000000e+00 0.0000e+00 -1.0000e+00
        6  1    1    2  501    0 -3.8003538813e+01 -1.2714473223e+01 +1.5190739137e+02 2.3368949986e+02 1.7300000000e+02 0.0000e+00 -1.0000e+00
       -6  1    1    2    0  502 +3.8003538813e+01 +1.2714473223e+01 +2.4877417891e+02 3.0565261145e+02 1.7300000000e+02 0.0000e+00 -1.0000e+00
<mgrwt>
<rscale>  2 0.17758076E+03</rscale>
<asrwt>0</asrwt>
<pdfrwt beam="1">  1       21 0.72309512E-01 0.17758076E+03</pdfrwt>
<pdfrwt beam="2">  1       21 0.10666196E-01 0.17758076E+03</pdfrwt>
<totfact> 0.12552215E+05</totfact>
</mgrwt>
</event>
<event>
 4      2 +5.6305390e+02 1.91603400e+02 7.54677100e-03 1.15702300e-01
       21 -1    0    0  501  502 +0.0000000000e+00 +0.0000000000e+00 +5.3969028572e+02 5.3969028572e+02 0.0000000000e+00 0.0000e+00 1.0000e+00
       21 -1    0    0  502  503 -0.0000000000e+00 -0.0000000000e+00 -7.9006901150e+01 7.9006901150e+01 0.0000000000e+00 0.0000e+00 1.0000e+00
        6  1    1    2  501    0 +5.1491845207e+00 +8.2197024677e+01 +3.4568042075e+02 3.9523008268e+02 1.7300000000e+02 0.0000e+00 -1.0000e+00
       -6  1    1    2    0  503 -5.1491845207e+00 -8.2197024677e+01 +1.1500296382e+02 2.2346710419e+02 1.7300000000e+02 0.0000e+00 -1.0000e+00
<mgrwt>
<rscale>  2 0.19160341E+03</rscale>
<asrwt>0</asrwt>
<pdfrwt beam="1">  1       21 0.83029273E-01 0.19160341E+03</pdfrwt>
<pdfrwt beam="2">  1       21 0.12154908E-01 0.19160341E+03</pdfrwt>
<totfact> 0.72535758E+04</totfact>
</mgrwt>
</event>
<event>
 4      3 +5.6305390e+02 8.65964400e+01 7.54677100e-03 1.31131000e-01
       -1 -1    0    0    0  501 -0.0000000000e+00 +0.0000000000e+00 +2.1502423586e+02 2.1502423586e+02 0.0000000000e+00 0.0000e+00 1.0000e+00
        1 -1    0    0  501    0 +0.0000000000e+00 -0.0000000000e+00 -8.0186106452e+01 8.0186106452e+01 0.0000000000e+00 0.0000e+00 -1.0000e+00
       24  1    1    2    0    0 -3.1267623721e+01 +7.3528112951e+00 +1.7837612090e+02 1.9828510935e+02 8.0419002446e+01 0.0000e+00 -1.0000e+00
      -24  1    1    2    0    0 +3.1267623721e+01 -7.3528112951e+00 -4.3537991494e+01 9.6925232962e+01 8.0419002446e+01 0.0000e+00 -1.0000e+00
<mgrwt>
<rscale>  0 0.86596444E+02</rscale>
<asrwt>0</asrwt>
<pdfrwt beam="1">  1        1 0.12336324E-01 0.86596444E+02</pdfrwt>
<pdfrwt beam="2">  1       -1 0.33080651E-01 0.86596444E+02</pdfrwt>
<totfact> 0.38858192E+03</totfact>
</mgrwt>
</event>
<event>
 4      3 +5.6305390e+02 8.05680400e+01 7.54677100e-03 1.32744700e-01
       -2 -1    0    0    0  501 -0.0000000000e+00 +0.0000000000e+00 +7.9979499757e+00 7.9979499757e+00 0.0000000000e+00 0.0000e+00 1.0000e+00
        2 -1    0    0  501    0 +0.0000000000e+00 -0.0000000000e+00 -1.1704086847e+03 1.1704086847e+03 0.0000000000e+00 0.0000e+00 -1.0000e+00
       24  1    1    2    0    0 -4.1461192800e+00 -2.6081046014e+00 -9.0743425868e+02 9.1100392002e+02 8.0419002446e+01 0.0000e+00 -1.0000e+00
      -24  1    1    2    0    0 +4.1461192800e+00 +2.6081046014e+00 -2.5497647607e+02 2.6740271468e+02 8.0419002446e+01 0.0000e+00 0.0000e+00
<mgrwt>
<rscale>  0 0.80568036E+02</rscale>
<asrwt>0</asrwt>
<pdfrwt beam="1">  1        2 0.18006280E+00 0.80568036E+02</pdfrwt>
<pdfrwt beam="2">  1       -2 0.12304544E-02 0.80568036E+02</pdfrwt>
<totfact> 0.29755186E+04</totfact>
</mgrwt>
</event>
<event>
 4      2 +5.6305390e+02 1.83112500e+02 7.54677100e-03 1.16482400e-01
       21 -1    0    0  503  502 +0.0000000000e+00 +0.0000000000e+00 +5.3807728741e+02 5.3807728741e+02 0.0000000000e+00 0.0000e+00 -1.0000e+00
       21 -1    0    0  501  503 -0.0000000000e+00 -0.0000000000e+00 -1.3254326130e+02 1.3254326130e+02 0.0000000000e+00 0.0000e+00 -1.0000e+00
        6  1    1    2  501    0 -2.7270944553e+01 -5.3455388410e+01 -4.1308710808e+01 1.8771412455e+02 1.7300000000e+02 0.0000e+00 -1.0000e+00
       -6  1    1    2    0  502 +2.7270944553e+01 +5.3455388410e+01 +4.4684273691e+02 4.8290642416e+02 1.7300000000e+02 0.0000e+00 -1.0000e+00
<mgrwt>
<rscale>  2 0.18311249E+03</rscale>
<asrwt>0</asrwt>
<pdfrwt beam="1">  1       21 0.82781120E-01 0.18311249E+03</pdfrwt>
<pdfrwt beam="2">  1       21 0.20391271E-01 0.18311249E+03</pdfrwt>
<totfact> 0.28485848E+04</totfact>
</mgrwt>
</event>
<event>
 4      2 +5.6305390e+02 1.74366500e+02 7.54677100e-03 1.17336900e-01
       21 -1    0    0  503  502 +0.0000000000e+00 +0.0000000000e+00 +2.6762123194e+02 2.6762123194e+02 0.0000000000e+00 0.0000e+00 -1.0000e+00
       21 -1    0    0  501  503 -0.0000000000e+00 -0.0000000000e+00 -2.0499128792e+02 2.0499128792e+02 0.0000000000e+00 0.0000e+00 -1.0000e+00
        6  1    1    2  501    0 -6.4447106115e+00 +2.0812476225e+01 -1.2646172605e+02 2.1539791461e+02 1.7300000000e+02 0.0000e+00 -1.0000e+00
       -6  1    1    2    0  502 +6.4447106115e+00 -2.0812476225e+01 +1.8909167008e+02 2.5721460525e+02 1.7300000000e+02 0.0000e+00 -1.0000e+00
<mgrwt>
<rscale>  2 0.17436655E+03</rscale>
<asrwt>0</asrwt>
<pdfrwt beam="1">  1       21 0.41172497E-01 0.17436655E+03</pdfrwt>
<pdfrwt beam="2">  1       21 0.31537121E-01 0.17436655E+03</pdfrwt>
<totfact> 0.55373079E+04</totfact>
</mgrwt>
</event>
<event>
 4      2 +5.6305390e+02 3.18877900e+02 7.54677100e-03 1.07616700e-01
       21 -1    0    0  503  502 +0.0000000000e+00 +0.0000000000e+00 +9.6032158401e+01 9.6032158401e+01 0.0000000000e+00 0.0000e+00 -1.0000e+00
       21 -1    0    0  501  503 -0.0000000000e+00 -0.0000000000e+00 -1.0744898772e+03 1.0744898772e+03 0.0000000000e+00 0.0000e+00 1.0000e+00
        6  1    1    2  501    0 +6.7679602601e+01 -2.5917873553e+02 -4.1860716129e+02 5.2622723328e+02 1.7300000000e+02 0.0000e+00 -1.0000e+00
       -6  1    1    2    0  502 -6.7679602601e+01 +2.5917873553e+02 -5.5985055752e+02 6.4429480234e+02 1.7300000000e+02 0.0000e+00 1.0000e+00
<mgrwt>
<rscale>  2 0.31887795E+03</rscale>
<asrwt>0</asrwt>
<pdfrwt beam="1">  1       21 0.14774179E-01 0.31887795E+03</pdfrwt>
<pdfrwt beam="2">  1       21 0.16530613E+00 0.31887795E+03</pdfrwt>
<totfact> 0.85838299E+03</totfact>
</mgrwt>
</event>
<event>
 4      2 +5.6305390e+02 1.92799400e+02 7.54677100e-03 1.15596000e-01
       21 -1    0    0  503  502 +0.0000000000e+00 +0.0000000000e+00 +1.0891089765e+03 1.0891089765e+03 0.0000000000e+00 0.0000e+00 1.0000e+00
       21 -1    0    0  501  503 -0.0000000000e+00 -0.0000000000e+00 -4.8414931519e+01 4.8414931519e+01 0.0000000000e+00 0.0000e+00 -1.0000e+00
        6  1    1    2  501    0 +6.9858902697e+01 -4.8603779891e+01 +2.1140590708e+02 2.8611894599e+02 1.7300000000e+02 0.0000e+00 -1.0000e+00
       -6  1    1    2    0  502 -6.9858902697e+01 +4.8603779891e+01 +8.2928813789e+02 8.5140496202e+02 1.7300000000e+02 0.0000e+00 1.0000e+00
<mgrwt>
<rscale>  2 0.19279936E+03</rscale>
<asrwt>0</asrwt>
<pdfrwt beam="1">  1       21 0.16755521E+00 0.19279936E+03</pdfrwt>
<pdfrwt beam="2">  1       21 0.74484518E-02 0.19279936E+03</pdfrwt>
<totfact> 0.30163225E+04</totfact>
</mgrwt>
</event>
<event>
 4      2 +5.6305390e+02 2.21781700e+02 7.54677100e-03 1.13256200e-01
       -2 -1    0    0    0  501 -0.0000000000e+00 +0.0000000000e+00 +5.5686749894e+01 5.5686749894e+01 0.0000000000e+00 0.0000e+00 1.0000e+00
        2 -1    0    0  502    0 +0.0000000000e+00 -0.0000000000e+00 -1.2062237386e+03 1.2062237386e+03 0.0000000000e+00 0.0000e+00 -1.0000e+00
        6  1    1    2  502    0 +7.8493489152e-01 -1.3877146636e+02 -2.4879620869e+02 3.3329669884e+02 1.7300000000e+02 0.0000e+00 1.0000e+00
       -6  1    1    2    0  501 -7.8493489152e-01 +1.3877146636e+02 -9.0174078005e+02 9.2861378969e+02 1.7300000000e+02 0.0000e+00 1.0000e+00
<mgrwt>
<rscale>  2 0.22178173E+03</rscale>
<asrwt>0</asrwt>
<pdfrwt beam="1">  1        2 0.18557289E+00 0.22178173E+03</pdfrwt>
<pdfrwt beam="2">  1       -2 0.85671921E-02 0.22178173E+03</pdfrwt>
<totfact> 0.16832338E+03</totfact>
</mgrwt>
</event>
<event>
 4      2 +5.6305390e+02 1.93249200e+02 7.54677100e-03 1.15556300e-01
       21 -1    0    0  501  502 +0.0000000000e+00 +0.0000000000e+00 +1.2196219082e+02 1.2196219082e+02 0.0000000000e+00 0.0000e+00 1.0000e+00
       21 -1    0    0  502  503 -0.0000000000e+00 -0.0000000000e+00 -3.1608392498e+02 3.1608392498e+02 0.0000000000e+00 0.0000e+00 1.0000e+00
        6  1    1    2  501    0 -4.9090404457e+01 -7.0755742529e+01 -1.3578464036e+02 2.3618363929e+02 1.7300000000e+02 0.0000e+00 1.0000e+00
       -6  1    1    2    0  503 +4.9090404457e+01 +7.0755742529e+01 -5.8337093799e+01 2.0186247651e+02 1.7300000000e+02 0.0000e+00 1.0000e+00
<mgrwt>
<rscale>  2 0.19324917E+03</rscale>
<asrwt>0</asrwt>
<pdfrwt beam="1">  1       21 0.18763414E-01 0.19324917E+03</pdfrwt>
<pdfrwt beam="2">  1       21 0.48628297E-01 0.19324917E+03</pdfrwt>
<totfact> 0.10494422E+05</totfact>
</mgrwt>
</event>
<event>
 4      2 +5.6305390e+02 1.92677500e+02 7.54677100e-03 1.15606800e-01
       21 -1    0    0  503  502 +0.0000000000e+00 +0.0000000000e+00 +1.6454680782e+02 1.6454680782e+02 0.0000000000e+00 0.0000e+00 1.0000e+00
       21 -1    0    0  501  503 -0.0000000000e+00 -0.0000000000e+00 -4.5534967457e+02 4.5534967457e+02 0.0000000000e+00 0.0000e+00 1.0000e+00
        6  1    1    2  501    0 -3.6625309951e+01 -7.6512825382e+01 -3.6555597603e+02 4.1322608508e+02 1.7300000000e+02 0.0000e+00 1.0000e+00
       -6  1    1    2    0  502 +3.6625309951e+01 +7.6512825382e+01 +7.4753109289e+01 2.0667039731e+02 1.7300000000e+02 0.0000e+00 1.0000e+00
<mgrwt>
<rscale>  2 0.19267752E+03</rscale>
<asrwt>0</asrwt>
<pdfrwt beam="1">  1       21 0.25314894E-01 0.19267752E+03</pdfrwt>
<pdfrwt beam="2">  1       21 0.70053794E-01 0.19267752E+03</pdfrwt>
<totfact> 0.27357435E+04</totfact>
</mgrwt>
</event>
<event>
 4      2 +5.6305390e+02 1.89548300e+02 7.54677100e-03 1.15886900e-01
       21 -1    0    0  503  502 +0.0000000000e+00 +0.0000000000e+00 +9.7194446833e+02 9.7194446833e+02 0.0000000000e+00 0.0000e+00 -1.0000e+00
       21 -1    0    0  501  503 -0.0000000000e+00 -0.0000000000e+00 -7.7742521447e+01 7.7742521447e+01 0.0000000000e+00 0.0000e+00 -1.0000e+00
        6  1    1    2  501    0 -7.6165936330e+01 -1.4081555445e+01 +6.6992489848e+01 2.0103863747e+02 1.7300000000e+02 0.0000e+00 -1.0000e+00
       -6  1    1    2    0  502 +7.6165936330e+01 +1.4081555445e+01 +8.2720945703e+02 8.4864835230e+02 1.7300000000e+02 0.0000e+00 -1.0000e+00
<mgrwt>
<rscale>  2 0.18954825E+03</rscale>
<asrwt>0</asrwt>
<pdfrwt beam="1">  1       21 0.14952991E+00 0.18954825E+03</pdfrwt>
<pdfrwt beam="2">  1       21 0.11960389E-01 0.18954825E+03</pdfrwt>
<totfact> 0.17828527E+04</totfact>
</mgrwt>
</event>
<event>
 4      2 +5.6305390e+02 1.91057500e+02 7.54677100e-03 1.15751100e-01
       -2 -1    0    0    0  501 -0.0000000000e+00 +0.0000000000e+00 +1.1321624863e+02 1.1321624863e+02 0.0000000000e+00 0.0000e+00 -1.0000e+00
        2 -1    0    0  502    0 +0.0000000000e+00 -0.0000000000e+00 -3.6245602600e+02 3.6245602600e+02 0.0000000000e+00 0.0000e+00 1.0000e+00
        6  1    1    2  502    0 -7.6993731613e+01 -2.5415160650e+01 -2.0366701661e+02 2.7925475601e+02 1.7300000000e+02 0.0000e+00 1.0000e+00
       -6  1    1    2    0  501 +7.6993731613e+01 +2.5415160650e+01 -4.5572760757e+01 1.9641751862e+02 1.7300000000e+02 0.0000e+00 -1.0000e+00
<mgrwt>
<rscale>  2 0.19105749E+03</rscale>
<asrwt>0</asrwt>
<pdfrwt beam="1">  1        2 0.55762466E-01 0.19105749E+03</pdfrwt>
<pdfrwt beam="2">  1       -2 0.17417884E-01 0.19105749E+03</pdfrwt>
<totfact> 0.23377522E+03</totfact>
</mgrwt>
</event>
<event>
 4      2 +5.6305390e+02 1.91309200e+02 7.54677100e-03 1.15728600e-01
       21 -1    0    0  501  502 +0.0000000000e+00 +0.0000000000e+00 +1.2955920101e+02 1.2955920101e+02 0.0000000000e+00 0.0000e+00 -1.0000e+00
       21 -1    0    0  502  503 -0.0000000000e+00 -0.0000000000e+00 -2.9647935840e+02 2.9647935840e+02 0.0000000000e+00 0.0000e+00 -1.0000e+00
        6  1    1    2  501    0 -7.4570159251e+01 -3.3309244569e+01 -3.7188288934e+01 1.9489018256e+02 1.7300000000e+02 0.0000e+00 -1.0000e+00
       -6  1    1    2    0  503 +7.4570159251e+01 +3.3309244569e+01 -1.2973186845e+02 2.3114837684e+02 1.7300000000e+02 0.0000e+00 -1.0000e+00
<mgrwt>
<rscale>  2 0.19130921E+03</rscale>
<asrwt>0</asrwt>
<pdfrwt beam="1">  1       21 0.19932185E-01 0.19130921E+03</pdfrwt>
<pdfrwt beam="2">  1       21 0.45612208E-01 0.19130921E+03</pdfrwt>
<totfact> 0.10712068E+05</totfact>
</mgrwt>
</event>
<event>
 4      2 +5.6305390e+02 1.79767800e+02 7.54677100e-03 1.16802800e-01
       21 -1    0    0  503  502 +0.0000000000e+00 +0.0000000000e+00 +1.9308304247e+02 1.9308304247e+02 0.0000000000e+00 0.0000e+00 -1.0000e+00
       21 -1    0    0  501  503 -0.0000000000e+00 -0.0000000000e+00 -3.5606989772e+02 3.5606989772e+02 0.0000000000e+00 0.0000e+00 -1.0000e+00
        6  1    1    2  501    0 -4.8370956404e+01 -6.9073681395e+00 -2.8137861520e+02 3.3390176137e+02 1.7300000000e+02 0.0000e+00 -1.0000e+00
       -6  1    1    2    0  502 +4.8370956404e+01 +6.9073681395e+00 +1.1839175994e+02 2.1525117881e+02 1.7300000000e+02 0.0000e+00 -1.0000e+00
<mgrwt>
<rscale>  2 0.17976780E+03</rscale>
<asrwt>0</asrwt>
<pdfrwt beam="1">  1       21 0.29705084E-01 0.17976780E+03</pdfrwt>
<pdfrwt beam="2">  1       21 0.54779984E-01 0.17976780E+03</pdfrwt>
<totfact> 0.34404003E+04</totfact>
</mgrwt>
</event>
<event>
 4      2 +5.6305390e+02 2.53321600e+02 7.54677100e-03 1.11122300e-01
       21 -1    0    0  503  502 +0.0000000000e+00 +0.0000000000e+00 +6.8575088612e+02 6.8575088612e+02 0.0000000000e+00 0.0000e+00 1.0000e+00
       21 -1    0    0  501  503 -0.0000000000e+00 -0.0000000000e+00 -1.8355440653e+02 1.8355440653e+02 0.0000000000e+00 0.0000e+00 -1.0000e+00
        6  1    1    2  501    0 +1.8686033313e+01 +1.8410229824e+02 -5.3215831241e+01 2.5885082335e+02 1.7300000000e+02 0.0000e+00 -1.0000e+00
       -6  1    1    2    0  502 -1.8686033313e+01 -1.8410229824e+02 +5.5541231083e+02 6.1045446929e+02 1.7300000000e+02 0.0000e+00 1.0000e+00
<mgrwt>
<rscale>  2 0.25332158E+03</rscale>
<asrwt>0</asrwt>
<pdfrwt beam="1">  1       21 0.10550013E+00 0.25332158E+03</pdfrwt>
<pdfrwt beam="2">  1       21 0.28239140E-01 0.25332158E+03</pdfrwt>
<totfact> 0.83187183E+03</totfact>
</mgrwt>
</event>
<event>
 4      2 +5.6305390e+02 2.22848600e+02 7.54677100e-03 1.13177700e-01
        2 -1    0    0  502    0 +0.0000000000e+00 +0.0000000000e+00 +7.6986792471e+01 7.6986792471e+01 0.0000000000e+00 0.0000e+00 -1.0000e+00
       -2 -1    0    0    0  501 -0.0000000000e+00 -0.0000000000e+00 -7.2992847788e+02 7.2992847788e+02 0.0000000000e+00 0.0000e+00 1.0000e+00
        6  1    1    2  502    0 -3.4135878803e+01 +1.3626174000e+02 -1.8890296300e+02 2.9214011953e+02 1.7300000000e+02 0.0000e+00 -1.0000e+00
       -6  1    1    2    0  501 +3.4135878803e+01 -1.3626174000e+02 -4.6403872240e+02 5.1477515082e+02 1.7300000000e+02 0.0000e+00 1.0000e+00
<mgrwt>
<rscale>  2 0.22284865E+03</rscale>
<asrwt>0</asrwt>
<pdfrwt beam="1">  1        2 0.11844122E-01 0.22284865E+03</pdfrwt>
<pdfrwt beam="2">  1       -2 0.11229669E+00 0.22284865E+03</pdfrwt>
<totfact> 0.33825197E+02</totfact>
</mgrwt>
</event>
<event>
 4      2 +5.6305390e+02 3.90168200e+02 7.54677100e-03 1.04723800e-01
       -2 -1    0    0    0  501 -0.0000000000e+00 +0.0000000000e+00 +5.1131090352e+02 5.1131090352e+02 0.0000000000e+00 0.0000e+00 -1.0000e+00
        2 -1    0    0  502    0 +0.0000000000e+00 -0.0000000000e+00 -3.2578369647e+02 3.2578369647e+02 0.0000000000e+00 0.0000e+00 1.0000e+00
        6  1    1    2  502    0 -1.8293569384e+02 -2.9805500456e+02 +2.1559099399e+02 4.4576981786e+02 1.7300000000e+02 0.0000e+00 -1.0000e+00
       -6  1    1    2    0  501 +1.8293569384e+02 +2.9805500456e+02 -3.0063786945e+01 3.9132478213e+02 1.7300000000e+02 0.0000e+00 1.0000e+00
<mgrwt>
<rscale>  2 0.39016824E+03</rscale>
<asrwt>0</asrwt>
<pdfrwt beam="1">  1        2 0.50120569E-01 0.39016824E+03</pdfrwt>
<pdfrwt beam="2">  1       -2 0.78663216E-01 0.39016824E+03</pdfrwt>
<totfact> 0.14771590E+02</totfact>
</mgrwt>
</event>
<event>
 4      3 +5.6305390e+02 9.16605500e+01 7.54677100e-03 1.29888000e-01
       -2 -1    0    0    0  501 -0.0000000000e+00 +0.0000000000e+00 +9.2948383900e+00 9.2948383900e+00 0.0000000000e+00 0.0000e+00 1.0000e+00
        2 -1    0    0  501    0 +0.0000000000e+00 -0.0000000000e+00 -1.2299771612e+03 1.2299771612e+03 0.0000000000e+00 0.0000e+00 -1.0000e+00
       24  1    1    2    0    0 -3.1114544608e+01 +3.1085767921e+01 -9.2938078698e+02 9.3388987735e+02 8.0419002446e+01 0.0000e+00 -1.0000e+00
      -24  1    1    2    0    0 +3.1114544608e+01 -3.1085767921e+01 -2.9130153584e+02 3.0538212225e+02 8.0419002446e+01 0.0000e+00 1.0000e+00
<mgrwt>
<rscale>  0 0.91660547E+02</rscale>
<asrwt>0</asrwt>
<pdfrwt beam="1">  1        2 0.18922715E+00 0.91660547E+02</pdfrwt>
<pdfrwt beam="2">  1       -2 0.14299759E-02 0.91660547E+02</pdfrwt>
<totfact> 0.22571586E+04</totfact>
</mgrwt>
</event>
<event>
 4      2 +5.6305390e+02 3.12522300e+02 7.54677100e-03 1.07914300e-01
       21 -1    0    0  501  502 +0.0000000000e+00 +0.0000000000e+00 +8.8192167930e+01 8.8192167930e+01 0.0000000000e+00 0.0000e+00 1.0000e+00
       21 -1    0    0  502  503 -0.0000000000e+00 -0.0000000000e+00 -1.3186173890e+03 1.3186173890e+03 0.0000000000e+00 0.0000e+00 -1.0000e+00
        6  1    1    2  501    0 +2.4631791794e+02 -8.4075328146e+01 -3.3373827382e+02 4.5722140470e+02 1.7300000000e+02 0.0000e+00 1.0000e+00
       -6  1    1    2    0  503 -2.4631791794e+02 +8.4075328146e+01 -8.9668694729e+02 9.4958815228e+02 1.7300000000e+02 0.0000e+00 -1.0000e+00
<mgrwt>
<rscale>  2 0.31252228E+03</rscale>
<asrwt>0</asrwt>
<pdfrwt beam="1">  1       21 0.13568025E-01 0.31252228E+03</pdfrwt>
<pdfrwt beam="2">  1       21 0.20286422E+00 0.31252228E+03</pdfrwt>
<totfact> 0.55539726E+03</totfact>
</mgrwt>
</event>
<event>
 4      2 +5.6305390e+02 1.79707300e+02 7.54677100e-03 1.16808700e-01
       -4 -1    0    0    0  501 -0.0000000000e+00 +0.0000000000e+00 +3.0182314582e+02 3.0182314582e+02 0.0000000000e+00 0.0000e+00 1.0000e+00
        4 -1    0    0  502    0 +0.0000000000e+00 -0.0000000000e+00 -2.3811641364e+02 2.3811641364e+02 0.0000000000e+00 0.0000e+00 -1.0000e+00
        6  1    1    2  502    0 -3.9660854164e+01 -2.8155563139e+01 -1.6847893444e+02 2.4633284483e+02 1.7300000000e+02 0.0000e+00 -1.0000e+00
       -6  1    1    2    0  501 +3.9660854164e+01 +2.8155563139e+01 +2.3218566663e+02 2.9360671463e+02 1.7300000000e+02 0.0000e+00 1.0000e+00
<mgrwt>
<rscale>  2 0.17970732E+03</rscale>
<asrwt>0</asrwt>
<pdfrwt beam="1">  1        4 0.36633294E-01 0.17970732E+03</pdfrwt>
<pdfrwt beam="2">  1       -4 0.46434330E-01 0.17970732E+03</pdfrwt>
<totfact> 0.57146539E+01</totfact>
</mgrwt>
</event>
<event>
 4      2 +5.6305390e+02 2.31848500e+02 7.54677100e-03 1.12534500e-01
       21 -1    0    0  503  502 +0.0000000000e+00 +0.0000000000e+00 +2.2892133221e+02 2.2892133221e+02 0.0000000000e+00 0.0000e+00 1.0000e+00
       21 -1    0    0  501  503 -0.0000000000e+00 -0.0000000000e+00 -2.9807698584e+02 2.9807698584e+02 0.0000000000e+00 0.0000e+00 -1.0000e+00
        6  1    1    2  501    0 +1.4415937084e+02 +5.5161795610e+01 +8.6814892240e+01 2.4756933051e+02 1.7300000000e+02 0.0000e+00 1.0000e+00
       -6  1    1    2    0  502 -1.4415937084e+02 -5.5161795610e+01 -1.5597054587e+02 2.7942898753e+02 1.7300000000e+02 0.0000e+00 -1.0000e+00
<mgrwt>
<rscale>  2 0.23184855E+03</rscale>
<asrwt>0</asrwt>
<pdfrwt beam="1">  1       21 0.35218666E-01 0.23184855E+03</pdfrwt>
<pdfrwt beam="2">  1       21 0.45857998E-01 0.23184855E+03</pdfrwt>
<totfact> 0.34736177E+04</totfact>
</mgrwt>
</event>
<event>
 4      2 +5.6305390e+02 1.75165300e+02 7.54677100e-03 1.17256600e-01
       21 -1    0    0  501  502 +0.0000000000e+00 +0.0000000000e+00 +2.8990240170e+02 2.8990240170e+02 0.0000000000e+00 0.0000e+00 -1.0000e+00
       21 -1    0    0  502  503 -0.0000000000e+00 -0.0000000000e+00 -1.9718798083e+02 1.9718798083e+02 0.0000000000e+00 0.0000e+00 -1.0000e+00
        6  1    1    2  501    0 +2.5770500679e+01 -9.4735192400e+00 +2.1212193911e+02 2.7509740697e+02 1.7300000000e+02 0.0000e+00 -1.0000e+00
       -6  1    1    2    0  503 -2.5770500679e+01 +9.4735192400e+00 -1.1940751824e+02 2.1199297555e+02 1.7300000000e+02 0.0000e+00 -1.0000e+00
<mgrwt>
<rscale>  2 0.17516525E+03</rscale>
<asrwt>0</asrwt>
<pdfrwt beam="1">  1       21 0.44600370E-01 0.17516525E+03</pdfrwt>
<pdfrwt beam="2">  1       21 0.30336612E-01 0.17516525E+03</pdfrwt>
<totfact> 0.50740050E+04</totfact>
</mgrwt>
</event>
<event>
 4      2 +5.6305390e+02 1.82093500e+02 7.54677100e-03 1.16579200e-01
       21 -1    0    0  501  502 +0.0000000000e+00 +0.0000000000e+00 +2.9636842075e+02 2.9636842075e+02 0.0000000000e+00 0.0000e+00 -1.0000e+00
       21 -1    0    0  502  503 -0.0000000000e+00 -0.0000000000e+00 -2.5100005580e+02 2.5100005580e+02 0.0000000000e+00 0.0000e+00 1.0000e+00
        6  1    1    2  501    0 +3.1891523626e+01 -4.7031541065e+01 +2.2643810515e+02 2.9057228119e+02 1.7300000000e+02 0.0000e+00 -1.0000e+00
       -6  1    1    2    0  503 -3.1891523626e+01 +4.7031541065e+01 -1.8106974020e+02 2.5679619536e+02 1.7300000000e+02 0.0000e+00 1.0000e+00
<mgrwt>
<rscale>  2 0.18209348E+03</rscale>
<asrwt>0</asrwt>
<pdfrwt beam="1">  1       21 0.45595141E-01 0.18209348E+03</pdfrwt>
<pdfrwt beam="2">  1       21 0.38615393E-01 0.18209348E+03</pdfrwt>
<totfact> 0.29996554E+04</totfact>
</mgrwt>
</event>
<event>
 4      2 +5.6305390e+02 2.06598300e+02 7.54677100e-03 1.14428800e-01
       21 -1    0    0  501  502 +0.0000000000e+00 +0.0000000000e+00 +1.2240459261e+02 1.2240459261e+02 0.0000000000e+00 0.0000e+00 -1.0000e+00
       21 -1    0    0  502  503 -0.0000000000e+00 -0.0000000000e+00 -3.5132974215e+02 3.5132974215e+02 0.0000000000e+00 0.0000e+00 1.0000e+00
        6  1    1    2  501    0 -6.6356263823e+01 -9.1382158573e+01 -1.3494368197e+02 2.4676436120e+02 1.7300000000e+02 0.0000e+00 1.0000e+00
       -6  1    1    2    0  503 +6.6356263823e+01 +9.1382158573e+01 -9.3981467571e+01 2.2696997357e+02 1.7300000000e+02 0.0000e+00 -1.0000e+00
<mgrwt>
<rscale>  2 0.20659829E+03</rscale>
<asrwt>0</asrwt>
<pdfrwt beam="1">  1       21 0.18831476E-01 0.20659829E+03</pdfrwt>
<pdfrwt beam="2">  1       21 0.54050729E-01 0.20659829E+03</pdfrwt>
<totfact> 0.83065965E+04</totfact>
</mgrwt>
</event>
<event>
 4      2 +5.6305390e+02 1.99673700e+02 7.54677100e-03 1.15001500e-01
       21 -1    0    0  501  502 +0.0000000000e+00 +0.0000000000e+00 +2.6699297808e+02 2.6699297808e+02 0.0000000000e+00 0.0000e+00 -1.0000e+00
       21 -1    0    0  502  503 -0.0000000000e+00 -0.0000000000e+00 -1.8760138155e+02 1.8760138155e+02 0.0000000000e+00 0.0000e+00 -1.0000e+00
        6  1    1    2  501    0 +2.2443206424e+01 -9.7143699915e+01 +1.4236093564e+02 2.4522689890e+02 1.7300000000e+02 0.0000e+00 -1.0000e+00
       -6  1    1    2    0  503 -2.2443206424e+01 +9.7143699915e+01 -6.2969339109e+01 2.0936746074e+02 1.7300000000e+02 0.0000e+00 -1.0000e+00
<mgrwt>
<rscale>  2 0.19967372E+03</rscale>
<asrwt>0</asrwt>
<pdfrwt beam="1">  1       21 0.41075843E-01 0.19967372E+03</pdfrwt>
<pdfrwt beam="2">  1       21 0.28861751E-01 0.19967372E+03</pdfrwt>
<totfact> 0.65373634E+04</totfact>
</mgrwt>
</event>
<event>
 4      2 +5.6305390e+02 2.18134200e+02 7.54677100e-03 1.13528200e-01
       21 -1    0    0  503  502 +0.0000000000e+00 +0.0000000000e+00 +3.1123681365e+02 3.1123681365e+02 0.0000000000e+00 0.0000e+00 -1.0000e+00
       21 -1    0    0  501  503 -0.0000000000e+00 -0.0000000000e+00 -1.6049720620e+02 1.6049720620e+02 0.0000000000e+00 0.0000e+00 -1.0000e+00
        6  1    1    2  501    0 -4.3443708483e+01 -1.2556342431e+02 +2.3992393486e+01 2.1944968507e+02 1.7300000000e+02 0.0000e+00 -1.0000e+00
       -6  1    1    2    0  502 +4.3443708483e+01 +1.2556342431e+02 +1.2674721396e+02 2.5228433478e+02 1.7300000000e+02 0.0000e+00 -1.0000e+00
<mgrwt>
<rscale>  2 0.21813420E+03</rscale>
<asrwt>0</asrwt>
<pdfrwt beam="1">  1       21 0.47882587E-01 0.21813420E+03</pdfrwt>
<pdfrwt beam="2">  1       21 0.24691878E-01 0.21813420E+03</pdfrwt>
<totfact> 0.63926252E+04</totfact>
</mgrwt>
</event>
<event>
 4      2 +5.6305390e+02 1.79912800e+02 7.54677100e-03 1.16788700e-01
       21 -1    0    0  503  502 +0.0000000000e+00 +0.0000000000e+00 +9.5178773522e+02 9.5178773522e+02 0.0000000000e+00 0.0000e+00 -1.0000e+00
       21 -1    0    0  501  503 -0.0000000000e+00 -0.0000000000e+00 -5.5316929063e+01 5.5316929063e+01 0.0000000000e+00 0.0000e+00 -1.0000e+00
        6  1    1    2  501    0 -4.2831525245e+01 -2.4598408115e+01 +1.3570376025e+02 2.2535334873e+02 1.7300000000e+02 0.0000e+00 -1.0000e+00
       -6  1    1    2    0  502 +4.2831525245e+01 +2.4598408115e+01 +7.6076704590e+02 7.8175131555e+02 1.7300000000e+02 0.0000e+00 -1.0000e+00
<mgrwt>
<rscale>  2 0.17991282E+03</rscale>
<asrwt>0</asrwt>
<pdfrwt beam="1">  1       21 0.14642887E+00 0.17991282E+03</pdfrwt>
<pdfrwt beam="2">  1       21 0.85102975E-02 0.17991282E+03</pdfrwt>
<totfact> 0.34567756E+04</totfact>
</mgrwt>
</event>
<event>
 4      2 +5.6305390e+02 1.94321400e+02 7.54677100e-03 1.15462000e-01
       21 -1    0    0  501  502 +0.0000000000e+00 +0.0000000000e+00 +1.1492050073e+02 1.1492050073e+02 0.0000000000e+00 0.0000e+00 -1.0000e+00
       21 -1    0    0  502  503 -0.0000000000e+00 -0.0000000000e+00 -4.9020345288e+02 4.9020345288e+02 0.0000000000e+00 0.0000e+00 1.0000e+00
        6  1    1    2  501    0 -6.2334416798e+01 -6.2819057314e+01 -1.3911161968e+01 1.9481872063e+02 1.7300000000e+02 0.0000e+00 -1.0000e+00
       -6  1    1    2    0  503 +6.2334416798e+01 +6.2819057314e+01 -3.6137179018e+02 4.1030523298e+02 1.7300000000e+02 0.0000e+00 1.0000e+00
<mgrwt>
<rscale>  2 0.19432142E+03</rscale>
<asrwt>0</asrwt>
<pdfrwt beam="1">  1       21 0.17680077E-01 0.19432142E+03</pdfrwt>
<pdfrwt beam="2">  1       21 0.75415916E-01 0.19432142E+03</pdfrwt>
<totfact> 0.45539103E+04</totfact>
</mgrwt>
</event>
<event>
 4      2 +5.6305390e+02 2.46257000e+02 7.54677100e-03 1.11569300e-01
       21 -1    0    0  503  502 +0.0000000000e+00 +0.0000000000e+00 +3.2121657375e+02 3.2121657375e+02 0.0000000000e+00 0.0000e+00 1.0000e+00
       21 -1    0    0  501  503 -0.0000000000e+00 -0.0000000000e+00 -1.8898549653e+02 1.8898549653e+02 0.0000000000e+00 0.0000e+00 1.0000e+00
        6  1    1    2  501    0 +1.6305184367e+01 -1.7449250377e+02 +5.7911790010e+01 2.5297483735e+02 1.7300000000e+02 0.0000e+00 1.0000e+00
       -6  1    1    2    0  502 -1.6305184367e+01 +1.7449250377e+02 +7.4319287210e+01 2.5722723293e+02 1.7300000000e+02 0.0000e+00 1.0000e+00
<mgrwt>
<rscale>  2 0.24625697E+03</rscale>
<asrwt>0</asrwt>
<pdfrwt beam="1">  1       21 0.49417934E-01 0.24625697E+03</pdfrwt>
<pdfrwt beam="2">  1       21 0.29074692E-01 0.24625697E+03</pdfrwt>
<totfact> 0.43134748E+04</totfact>
</mgrwt>
</event>
<event>
 4      2 +5.6305390e+02 2.21724000e+02 7.54677100e-03 1.13260400e-01
       21 -1    0    0  503  502 +0.0000000000e+00 +0.0000000000e+00 +5.1938381598e+02 5.1938381598e+02 0.0000000000e+00 0.0000e+00 -1.0000e+00
       21 -1    0    0  501  503 -0.0000000000e+00 -0.0000000000e+00 -1.1821959125e+02 1.1821959125e+02 0.0000000000e+00 0.0000e+00 -1.0000e+00
        6  1    1    2  501    0 +8.2684064544e+01 -1.1133682919e+02 +5.8244776777e+01 2.2924658795e+02 1.7300000000e+02 0.0000e+00 -1.0000e+00
       -6  1    1    2    0  502 -8.2684064544e+01 +1.1133682919e+02 +3.4291944795e+02 4.0835681928e+02 1.7300000000e+02 0.0000e+00 -1.0000e+00
<mgrwt>
<rscale>  2 0.22172403E+03</rscale>
<asrwt>0</asrwt>
<pdfrwt beam="1">  1       21 0.79905201E-01 0.22172403E+03</pdfrwt>
<pdfrwt beam="2">  1       21 0.18187630E-01 0.22172403E+03</pdfrwt>
<totfact> 0.37416125E+04</totfact>
</mgrwt>
</event>
<event>
 4      2 +5.6305390e+02 1.86295200e+02 7.54677100e-03 1.16184600e-01
       21 -1    0    0  503  502 +0.0000000000e+00 +0.0000000000e+00 +4.6711794232e+01 4.6711794232e+01 0.0000000000e+00 0.0000e+00 -1.0000e+00
       21 -1    0    0  501  503 -0.0000000000e+00 -0.0000000000e+00 -1.0146301721e+03 1.0146301721e+03 0.0000000000e+00 0.0000e+00 -1.0000e+00
        6  1    1    2  501    0 -6.8132033860e+01 -1.1615885770e+01 -7.5854424194e+02 7.8108595546e+02 1.7300000000e+02 0.0000e+00 -1.0000e+00
       -6  1    1    2    0  502 +6.8132033860e+01 +1.1615885770e+01 -2.0937413598e+02 2.8025601092e+02 1.7300000000e+02 0.0000e+00 -1.0000e+00
<mgrwt>
<rscale>  2 0.18629520E+03</rscale>
<asrwt>0</asrwt>
<pdfrwt beam="1">  1       21 0.71864301E-02 0.18629520E+03</pdfrwt>
<pdfrwt beam="2">  1       21 0.15609695E+00 0.18629520E+03</pdfrwt>
<totfact> 0.39025681E+04</totfact>
</mgrwt>
</event>
<event>
 4      2 +5.6305390e+02 3.26980500e+02 7.54677100e-03 1.07248100e-01
       -2 -1    0    0    0  501 -0.0000000000e+00 +0.0000000000e+00 +1.0834564827e+02 1.0834564827e+02 0.0000000000e+00 0.0000e+00 -1.0000e+00
        2 -1    0    0  502    0 +0.0000000000e+00 -0.0000000000e+00 -9.9153115031e+02 9.9153115031e+02 0.0000000000e+00 0.0000e+00 1.0000e+00
        6  1    1    2  502    0 -2.7606506558e+02 -2.7844158881e+01 -4.0363207262e+02 5.1945651181e+02 1.7300000000e+02 0.0000e+00 -1.0000e+00
       -6  1    1    2    0  501 +2.7606506558e+02 +2.7844158881e+01 -4.7955342943e+02 5.8042028677e+02 1.7300000000e+02 0.0000e+00 1.0000e+00
<mgrwt>
<rscale>  2 0.32698045E+03</rscale>
<asrwt>0</asrwt>
<pdfrwt beam="1">  1        2 0.15254325E+00 0.32698045E+03</pdfrwt>
<pdfrwt beam="2">  1       -2 0.16668562E-01 0.32698045E+03</pdfrwt>
<totfact> 0.76233911E+02</totfact>
</mgrwt>
</event>
<event>
 4      2 +5.6305390e+02 2.19575600e+02 7.54677100e-03 1.13420000e-01
       21 -1    0    0  503  502 +0.0000000000e+00 +0.0000000000e+00 +6.7626565207e+02 6.7626565207e+02 0.0000000000e+00 0.0000e+00 1.0000e+00
       21 -1    0    0  501  503 -0.0000000000e+00 -0.0000000000e+00 -8.5803215428e+01 8.5803215428e+01 0.0000000000e+00 0.0000e+00 -1.0000e+00
        6  1    1    2  501    0 +1.3066035087e+02 -3.4818327921e+01 +1.3854178070e+02 2.5962909746e+02 1.7300000000e+02 0.0000e+00 1.0000e+00
       -6  1    1    2    0  502 -1.3066035087e+02 +3.4818327921e+01 +4.5192065594e+02 5.0243977004e+02 1.7300000000e+02 0.0000e+00 -1.0000e+00
<mgrwt>
<rscale>  2 0.21957560E+03</rscale>
<asrwt>0</asrwt>
<pdfrwt beam="1">  1       21 0.10404087E+00 0.21957560E+03</pdfrwt>
<pdfrwt beam="2">  1       21 0.13200495E-01 0.21957560E+03</pdfrwt>
<totfact> 0.36400832E+04</totfact>
</mgrwt>
</event>
<event>
 4      2 +5.6305390e+02 1.86866600e+02 7.54677100e-03 1.16131800e-01
       21 -1    0    0  503  502 +0.0000000000e+00 +0.0000000000e+00 +1.6986054419e+02 1.6986054419e+02 0.0000000000e+00 0.0000e+00 -1.0000e+00
       21 -1    0    0  501  503 -0.0000000000e+00 -0.0000000000e+00 -2.0781902967e+02 2.0781902967e+02 0.0000000000e+00 0.0000e+00 -1.0000e+00
        6  1    1    2  501    0 -6.9752695850e+00 +7.0295499005e+01 -3.8601453733e+01 1.9081190685e+02 1.7300000000e+02 0.0000e+00 -1.0000e+00
       -6  1    1    2    0  502 +6.9752695850e+00 -7.0295499005e+01 +6.4296825127e-01 1.8686766701e+02 1.7300000000e+02 0.0000e+00 -1.0000e+00
<mgrwt>
<rscale>  2 0.18686656E+03</rscale>
<asrwt>0</asrwt>
<pdfrwt beam="1">  1       21 0.26132391E-01 0.18686656E+03</pdfrwt>
<pdfrwt beam="2">  1       21 0.31972158E-01 0.18686656E+03</pdfrwt>
<totfact> 0.13118031E+05</totfact>
</mgrwt>
</event>
<event>
 4      2 +5.6305390e+02 2.10625200e+02 7.54677100e-03 1.14107200e-01
       -2 -1    0    0    0  501 -0.0000000000e+00 +0.0000000000e+00 +1.9401975244e+01 1.9401975244e+01 0.0000000000e+00 0.0000e+00 -1.0000e+00
        2 -1    0    0  502    0 +0.0000000000e+00 -0.0000000000e+00 -2.2891450850e+03 2.2891450850e+03 0.0000000000e+00 0.0000e+00 1.0000e+00
        6  1    1    2  502    0 -1.0613857091e+02 -5.6290002872e+01 -1.1739763780e+03 1.1927210473e+03 1.7300000000e+02 0.0000e+00 -1.0000e+00
       -6  1    1    2    0  501 +1.0613857091e+02 +5.6290002872e+01 -1.0957667318e+03 1.1158260130e+03 1.7300000000e+02 0.0000e+00 1.0000e+00
<mgrwt>
<rscale>  2 0.21062517E+03</rscale>
<asrwt>0</asrwt>
<pdfrwt beam="1">  1        2 0.35217608E+00 0.21062517E+03</pdfrwt>
<pdfrwt beam="2">  1       -2 0.29849200E-02 0.21062517E+03</pdfrwt>
<totfact> 0.22359339E+03</totfact>
</mgrwt>
</event>
<event>
 4      2 +5.6305390e+02 1.94686700e+02 7.54677100e-03 1.15430100e-01
       21 -1    0    0  503  502 +0.0000000000e+00 +0.0000000000e+00 +2.4916540948e+02 2.4916540948e+02 0.0000000000e+00 0.0000e+00 1.0000e+00
       21 -1    0    0  501  503 -0.0000000000e+00 -0.0000000000e+00 -7.9004730584e+02 7.9004730584e+02 0.0000000000e+00 0.0000e+00 1.0000e+00
        6  1    1    2  501    0 -8.2977138404e+01 -3.2995433881e+01 -7.3735150405e+02 7.6262057714e+02 1.7300000000e+02 0.0000e+00 1.0000e+00
       -6  1    1    2    0  502 +8.2977138404e+01 +3.2995433881e+01 +1.9646960769e+02 2.7659213818e+02 1.7300000000e+02 0.0000e+00 1.0000e+00
<mgrwt>
<rscale>  2 0.19468668E+03</rscale>
<asrwt>0</asrwt>
<pdfrwt beam="1">  1       21 0.38333140E-01 0.19468668E+03</pdfrwt>
<pdfrwt beam="2">  1       21 0.12154574E+00 0.19468668E+03</pdfrwt>
<totfact> 0.33515179E+03</totfact>
</mgrwt>
</event>
<event>
 4      2 +5.6305390e+02 1.80029800e+02 7.54677100e-03 1.16777400e-01
       21 -1    0    0  501  502 +0.0000000000e+00 +0.0000000000e+00 +1.7030748324e+02 1.7030748324e+02 0.0000000000e+00 0.0000e+00 -1.0000e+00
       21 -1    0    0  502  503 -0.0000000000e+00 -0.0000000000e+00 -1.9052260222e+02 1.9052260222e+02 0.0000000000e+00 0.0000e+00 -1.0000e+00
        6  1    1    2  501    0 -4.9654054561e+01 -4.0244773929e+00 -1.6175416888e+01 1.8075498794e+02 1.7300000000e+02 0.0000e+00 -1.0000e+00
       -6  1    1    2    0  503 +4.9654054561e+01 +4.0244773929e+00 -4.0397020891e+00 1.8007509752e+02 1.7300000000e+02 0.0000e+00 -1.0000e+00
<mgrwt>
<rscale>  2 0.18002978E+03</rscale>
<asrwt>0</asrwt>
<pdfrwt beam="1">  1       21 0.26201151E-01 0.18002978E+03</pdfrwt>
<pdfrwt beam="2">  1       21 0.29311170E-01 0.18002978E+03</pdfrwt>
<totfact> 0.15498374E+05</totfact>
</mgrwt>
</event>
<event>
 4      2 +5.6305390e+02 1.75728200e+02 7.54677100e-03 1.17200200e-01
       21 -1    0    0  503  502 +0.0000000000e+00 +0.0000000000e+00 +1.5027614394e+02 1.5027614394e+02 0.0000000000e+00 0.0000e+00 1.0000e+00
       21 -1    0    0  501  503 -0.0000000000e+00 -0.0000000000e+00 -2.0554556670e+02 2.0554556670e+02 0.0000000000e+00 0.0000e+00 1.0000e+00
        6  1    1    2  501    0 +1.1956846737e+01 +2.8433280490e+01 -3.0529486424e+01 1.7836049777e+02 1.7300000000e+02 0.0000e+00 1.0000e+00
       -6  1    1    2    0  502 -1.1956846737e+01 -2.8433280490e+01 -2.4739936346e+01 1.7746121287e+02 1.7300000000e+02 0.0000e+00 1.0000e+00
<mgrwt>
<rscale>  2 0.17572825E+03</rscale>
<asrwt>0</asrwt>
<pdfrwt beam="1">  1       21 0.23119407E-01 0.17572825E+03</pdfrwt>
<pdfrwt beam="2">  1       21 0.31622395E-01 0.17572825E+03</pdfrwt>
<totfact> 0.16984056E+05</totfact>
</mgrwt>
</event>
<event>
 4      2 +5.6305390e+02 2.17121700e+02 7.54677100e-03 1.13604700e-01
       21 -1    0    0  503  502 +0.0000000000e+00 +0.0000000000e+00 +1.2395754093e+03 1.2395754093e+03 0.0000000000e+00 0.0000e+00 -1.0000e+00
       21 -1    0    0  501  503 -0.0000000000e+00 -0.0000000000e+00 -1.4035797868e+02 1.4035797868e+02 0.0000000000e+00 0.0000e+00 -1.0000e+00
        6  1    1    2  501    0 +3.5086635732e+01 +1.2641895163e+02 -3.9513572046e+01 2.2068789209e+02 1.7300000000e+02 0.0000e+00 -1.0000e+00
       -6  1    1    2    0  502 -3.5086635732e+01 -1.2641895163e+02 +1.1387310027e+03 1.1592454959e+03 1.7300000000e+02 0.0000e+00 -1.0000e+00
<mgrwt>
<rscale>  2 0.21712168E+03</rscale>
<asrwt>0</asrwt>
<pdfrwt beam="1">  1       21 0.19070390E+00 0.21712168E+03</pdfrwt>
<pdfrwt beam="2">  1       21 0.21593536E-01 0.21712168E+03</pdfrwt>
<totfact> 0.30154979E+03</totfact>
</mgrwt>
</event>
<event>
 4      2 +5.6305390e+02 1.96859800e+02 7.54677100e-03 1.15241600e-01
       21 -1    0    0  503  502 +0.0000000000e+00 +0.0000000000e+00 +1.1051169039e+02 1.1051169039e+02 0.0000000000e+00 0.0000e+00 1.0000e+00
       21 -1    0    0  501  503 -0.0000000000e+00 -0.0000000000e+00 -6.6606734197e+02 6.6606734197e+02 0.0000000000e+00 0.0000e+00 1.0000e+00
        6  1    1    2  501    0 -2.2019002296e+01 +9.1323383591e+01 -5.4496861481e+02 5.7943471416e+02 1.7300000000e+02 0.0000e+00 1.0000e+00
       -6  1    1    2    0  502 +2.2019002296e+01 -9.1323383591e+01 -1.0587036777e+01 1.9714431820e+02 1.7300000000e+02 0.0000e+00 1.0000e+00
<mgrwt>
<rscale>  2 0.19685984E+03</rscale>
<asrwt>0</asrwt>
<pdfrwt beam="1">  1       21 0.17001799E-01 0.19685984E+03</pdfrwt>
<pdfrwt beam="2">  1       21 0.10247190E+00 0.19685984E+03</pdfrwt>
<totfact> 0.24097802E+04</totfact>
</mgrwt>
</event>
<event>
 4      2 +5.6305390e+02 1.83974300e+02 7.54677100e-03 1.16401100e-01
       21 -1    0    0  501  502 +0.0000000000e+00 +0.0000000000e+00 +1.3899518429e+03 1.3899518429e+03 0.0000000000e+00 0.0000e+00 1.0000e+00
       21 -1    0    0  502  503 -0.0000000000e+00 -0.0000000000e+00 -2.8668932338e+01 2.8668932338e+01 0.0000000000e+00 0.0000e+00 1.0000e+00
        6  1    1    2  501    0 +5.0392033676e+01 -3.7124160075e+01 +9.5592113680e+02 9.7346380524e+02 1.7300000000e+02 0.0000e+00 1.0000e+00
       -6  1    1    2    0  503 -5.0392033676e+01 +3.7124160075e+01 +4.0536177381e+02 4.4515697005e+02 1.7300000000e+02 0.0000e+00 1.0000e+00
<mgrwt>
<rscale>  2 0.18397435E+03</rscale>
<asrwt>0</asrwt>
<pdfrwt beam="1">  1       21 0.21383869E+00 0.18397435E+03</pdfrwt>
<pdfrwt beam="2">  1       21 0.44106061E-02 0.18397435E+03</pdfrwt>
<totfact> 0.36742904E+04</totfact>
</mgrwt>
</event>
<event>
 4      2 +5.6305390e+02 1.96658100e+02 7.54677100e-03 1.15259000e-01
       21 -1    0    0  501  502 +0.0000000000e+00 +0.0000000000e+00 +8.8330396114e+02 8.8330396114e+02 0.0000000000e+00 0.0000e+00 -1.0000e+00
       21 -1    0    0  502  503 -0.0000000000e+00 -0.0000000000e+00 -4.4585643197e+01 4.4585643197e+01 0.0000000000e+00 0.0000e+00 1.0000e+00
        6  1    1    2  501    0 -2.5277821705e+01 +9.0035783011e+01 +3.5714180728e+02 4.0770661143e+02 1.7300000000e+02 0.0000e+00 1.0000e+00
       -6  1    1    2    0  503 +2.5277821705e+01 -9.0035783011e+01 +4.8157651066e+02 5.2018299291e+02 1.7300000000e+02 0.0000e+00 1.0000e+00
<mgrwt>
<rscale>  2 0.19665811E+03</rscale>
<asrwt>0</asrwt>
<pdfrwt beam="1">  1       21 0.13589290E+00 0.19665811E+03</pdfrwt>
<pdfrwt beam="2">  1       21 0.68593304E-02 0.19665811E+03</pdfrwt>
<totfact> 0.60390383E+04</totfact>
</mgrwt>
</event>
<event>
 4      2 +5.6305390e+02 2.35599100e+02 7.54677100e-03 1.12276000e-01
       21 -1    0    0  501  502 +0.0000000000e+00 +0.0000000000e+00 +5.1431188867e+01 5.1431188867e+01 0.0000000000e+00 0.0000e+00 -1.0000e+00
       21 -1    0    0  502  503 -0.0000000000e+00 -0.0000000000e+00 -1.1398778547e+03 1.1398778547e+03 0.0000000000e+00 0.0000e+00 -1.0000e+00
        6  1    1    2  501    0 -1.4862525993e+02 -5.9063233767e+01 -4.0684643065e+02 4.7013928957e+02 1.7300000000e+02 0.0000e+00 -1.0000e+00
       -6  1    1    2    0  503 +1.4862525993e+02 +5.9063233767e+01 -6.8160023522e+02 7.2116975403e+02 1.7300000000e+02 0.0000e+00 -1.0000e+00
<mgrwt>
<rscale>  2 0.23559909E+03</rscale>
<asrwt>0</asrwt>
<pdfrwt beam="1">  1       21 0.79124903E-02 0.23559909E+03</pdfrwt>
<pdfrwt beam="2">  1       21 0.17536583E+00 0.23559909E+03</pdfrwt>
<totfact> 0.23285939E+04</totfact>
</mgrwt>
</event>
<event>
 4      2 +5.6305390e+02 3.15269600e+02 7.54677100e-03 1.07784700e-01
       21 -1    0    0  503  502 +0.0000000000e+00 +0.0000000000e+00 +1.7129844108e+02 1.7129844108e+02 0.0000000000e+00 0.0000e+00 1.0000e+00
       21 -1    0    0  501  503 -0.0000000000e+00 -0.0000000000e+00 -7.7884925298e+02 7.7884925298e+02 0.0000000000e+00 0.0000e+00 -1.0000e+00
        6  1    1    2  501    0 +5.5149935165e+01 -2.5772929845e+02 -5.4367510075e+02 6.2847237156e+02 1.7300000000e+02 0.0000e+00 -1.0000e+00
       -6  1    1    2    0  502 -5.5149935165e+01 +2.5772929845e+02 -6.3875711148e+01 3.2167532250e+02 1.7300000000e+02 0.0000e+00 1.0000e+00
<mgrwt>
<rscale>  2 0.31526958E+03</rscale>
<asrwt>0</asrwt>
<pdfrwt beam="1">  1       21 0.26353606E-01 0.31526958E+03</pdfrwt>
<pdfrwt beam="2">  1       21 0.11982296E+00 0.31526958E+03</pdfrwt>
<totfact> 0.67352898E+03</totfact>
</mgrwt>
</event>
<event>
 4      2 +5.6305390e+02 1.96342900e+02 7.54677100e-03 1.15286200e-01
       21 -1    0    0  501  502 +0.0000000000e+00 +0.0000000000e+00 +4.6604973841e+02 4.6604973841e+02 0.0000000000e+00 0.0000e+00 1.0000e+00
       21 -1    0    0  502  503 -0.0000000000e+00 -0.0000000000e+00 -8.6443267683e+01 8.6443267683e+01 0.0000000000e+00 0.0000e+00 -1.0000e+00
        6  1    1    2  501    0 -4.1643960370e+01 -8.2989813742e+01 +2.4715300273e+02 3.1565033720e+02 1.7300000000e+02 0.0000e+00 -1.0000e+00
       -6  1    1    2    0  503 +4.1643960370e+01 +8.2989813742e+01 +1.3245346800e+02 2.3684266888e+02 1.7300000000e+02 0.0000e+00 -1.0000e+00
<mgrwt>
<rscale>  2 0.19634289E+03</rscale>
<asrwt>0</asrwt>
<pdfrwt beam="1">  1       21 0.71699959E-01 0.19634289E+03</pdfrwt>
<pdfrwt beam="2">  1       21 0.13298964E-01 0.19634289E+03</pdfrwt>
<totfact> 0.85601317E+04</totfact>
</mgrwt>
</event>
<event>
 4      2 +5.6305390e+02 1.85228100e+02 7.54677100e-03 1.16283700e-01
       21 -1    0    0  503  502 +0.0000000000e+00 +0.0000000000e+00 +3.0685747016e+01 3.0685747016e+01 0.0000000000e+00 0.0000e+00 1.0000e+00
       21 -1    0    0  501  503 -0.0000000000e+00 -0.0000000000e+00 -1.1509524865e+03 1.1509524865e+03 0.0000000000e+00 0.0000e+00 1.0000e+00
        6  1    1    2  501    0 +5.5166294349e+01 +3.6566632924e+01 -6.5996622945e+02 6.8546689395e+02 1.7300000000e+02 0.0000e+00 1.0000e+00
       -6  1    1    2    0  502 -5.5166294349e+01 -3.6566632924e+01 -4.6030051001e+02 4.9617133955e+02 1.7300000000e+02 0.0000e+00 1.0000e+00
<mgrwt>
<rscale>  2 0.18522807E+03</rscale>
<asrwt>0</asrwt>
<pdfrwt beam="1">  1       21 0.47208849E-02 0.18522807E+03</pdfrwt>
<pdfrwt beam="2">  1       21 0.17706958E+00 0.18522807E+03</pdfrwt>
<totfact> 0.56740734E+04</totfact>
</mgrwt>
</event>
<event>
 4      2 +5.6305390e+02 3.51299900e+02 7.54677100e-03 1.06208300e-01
       21 -1    0    0  501  502 +0.0000000000e+00 +0.0000000000e+00 +2.0175376074e+02 2.0175376074e+02 0.0000000000e+00 0.0000e+00 1.0000e+00
       21 -1    0    0  502  503 -0.0000000000e+00 -0.0000000000e+00 -6.1464075696e+02 6.1464075696e+02 0.0000000000e+00 0.0000e+00 -1.0000e+00
        6  1    1    2  501    0 -2.1358996319e+01 -3.0500226284e+02 -2.3470683793e+02 4.2249128610e+02 1.7300000000e+02 0.0000e+00 1.0000e+00
       -6  1    1    2    0  503 +2.1358996319e+01 +3.0500226284e+02 -1.7818015829e+02 3.9390323161e+02 1.7300000000e+02 0.0000e+00 1.0000e+00
<mgrwt>
<rscale>  2 0.35129985E+03</rscale>
<asrwt>0</asrwt>
<pdfrwt beam="1">  1       21 0.31039041E-01 0.35129985E+03</pdfrwt>
<pdfrwt beam="2">  1       21 0.94560113E-01 0.35129985E+03</pdfrwt>
<totfact> 0.85753605E+03</totfact>
</mgrwt>
</event>
<event>
 4      2 +5.6305390e+02 2.38727000e+02 7.54677100e-03 1.12064400e-01
       21 -1    0    0  503  502 +0.0000000000e+00 +0.0000000000e+00 +1.2421768067e+02 1.2421768067e+02 0.0000000000e+00 0.0000e+00 1.0000e+00
       21 -1    0    0  501  503 -0.0000000000e+00 -0.0000000000e+00 -5.6444565023e+02 5.6444565023e+02 0.0000000000e+00 0.0000e+00 -1.0000e+00
        6  1    1    2  501    0 -3.7128862346e+01 +1.6025930147e+02 -3.6908424639e+02 4.3956089118e+02 1.7300000000e+02 0.0000e+00 -1.0000e+00
       -6  1    1    2    0  502 +3.7128862346e+01 -1.6025930147e+02 -7.1143723174e+01 2.4910243972e+02 1.7300000000e+02 0.0000e+00 1.0000e+00
<mgrwt>
<rscale>  2 0.23872703E+03</rscale>
<asrwt>0</asrwt>
<pdfrwt beam="1">  1       21 0.19110412E-01 0.23872703E+03</pdfrwt>
<pdfrwt beam="2">  1       21 0.86837792E-01 0.23872703E+03</pdfrwt>
<totfact> 0.27970760E+04</totfact>
</mgrwt>
</event>
<event>
 4      2 +5.6305390e+02 2.16986300e+02 7.54677100e-03 1.13615000e-01
       21 -1    0    0  503  502 +0.0000000000e+00 +0.0000000000e+00 +1.3430046896e+02 1.3430046896e+02 0.0000000000e+00 0.0000e+00 1.0000e+00
       21 -1    0    0  501  503 -0.0000000000e+00 -0.0000000000e+00 -3.5159109177e+02 3.5159109177e+02 0.0000000000e+00 0.0000e+00 -1.0000e+00
        6  1    1    2  501    0 +5.7182669864e+01 +1.1783130702e+02 -1.2167277139e+02 2.4877165824e+02 1.7300000000e+02 0.0000e+00 -1.0000e+00
       -6  1    1    2    0  502 -5.7182669864e+01 -1.1783130702e+02 -9.5617851426e+01 2.3711990249e+02 1.7300000000e+02 0.0000e+00 1.0000e+00
<mgrwt>
<rscale>  2 0.21698635E+03</rscale>
<asrwt>0</asrwt>
<pdfrwt beam="1">  1       21 0.20661611E-01 0.21698635E+03</pdfrwt>
<pdfrwt beam="2">  1       21 0.54090937E-01 0.21698635E+03</pdfrwt>
<totfact> 0.69427974E+04</totfact>
</mgrwt>
</event>
<event>
 4      2 +5.6305390e+02 2.41241600e+02 7.54677100e-03 1.11896800e-01
       21 -1    0    0  503  502 +0.0000000000e+00 +0.0000000000e+00 +8.4456589609e+02 8.4456589609e+02 0.0000000000e+00 0.0000e+00 -1.0000e+00
       21 -1    0    0  501  503 -0.0000000000e+00 -0.0000000000e+00 -7.1533189029e+01 7.1533189029e+01 0.0000000000e+00 0.0000e+00 -1.0000e+00
        6  1    1    2  501    0 +1.9502959558e+01 +1.6699749003e+02 +4.7426113313e+02 5.3209129809e+02 1.7300000000e+02 0.0000e+00 -1.0000e+00
       -6  1    1    2    0  502 -1.9502959558e+01 -1.6699749003e+02 +2.9877157393e+02 3.8400778703e+02 1.7300000000e+02 0.0000e+00 -1.0000e+00
<mgrwt>
<rscale>  2 0.24124164E+03</rscale>
<asrwt>0</asrwt>
<pdfrwt beam="1">  1       21 0.12993321E+00 0.24124164E+03</pdfrwt>
<pdfrwt beam="2">  1       21 0.11005107E-01 0.24124164E+03</pdfrwt>
<totfact> 0.28839949E+04</totfact>
</mgrwt>
</event>
<event>
 4      2 +5.6305390e+02 2.11195600e+02 7.54677100e-03 1.14062300e-01
       21 -1    0    0  501  502 +0.0000000000e+00 +0.0000000000e+00 +1.8307536802e+03 1.8307536802e+03 0.0000000000e+00 0.0000e+00 1.0000e+00
       21 -1    0    0  502  503 -0.0000000000e+00 -0.0000000000e+00 -2.5933161070e+01 2.5933161070e+01 0.0000000000e+00 0.0000e+00 -1.0000e+00
        6  1    1    2  501    0 +1.1233321389e+02 +4.5341334098e+01 +1.1308030285e+03 1.1503560652e+03 1.7300000000e+02 0.0000e+00 1.0000e+00
       -6  1    1    2    0  503 -1.1233321389e+02 -4.5341334098e+01 +6.7401749063e+02 7.0633077605e+02 1.7300000000e+02 0.0000e+00 -1.0000e+00
<mgrwt>
<rscale>  2 0.21119561E+03</rscale>
<asrwt>0</asrwt>
<pdfrwt beam="1">  1       21 0.28165431E+00 0.21119561E+03</pdfrwt>
<pdfrwt beam="2">  1       21 0.39897185E-02 0.21119561E+03</pdfrwt>
<totfact> 0.16836898E+04</totfact>
</mgrwt>
</event>
<event>
 4      2 +5.6305390e+02 2.57094700e+02 7.54677100e-03 1.10890100e-01
       21 -1    0    0  501  502 +0.0000000000e+00 +0.0000000000e+00 +1.9662755064e+03 1.9662755064e+03 0.0000000000e+00 0.0000e+00 -1.0000e+00
       21 -1    0    0  502  503 -0.0000000000e+00 -0.0000000000e+00 -3.4202954927e+01 3.4202954927e+01 0.0000000000e+00 0.0000e+00 -1.0000e+00
        6  1    1    2  501    0 +1.6220119005e+02 -9.9294878589e+01 +1.0971024968e+03 1.1268236718e+03 1.7300000000e+02 0.0000e+00 -1.0000e+00
       -6  1    1    2    0  503 -1.6220119005e+02 +9.9294878589e+01 +8.3497005469e+02 8.7365478949e+02 1.7300000000e+02 0.0000e+00 -1.0000e+00
<mgrwt>
<rscale>  2 0.25709473E+03</rscale>
<asrwt>0</asrwt>
<pdfrwt beam="1">  1       21 0.30250384E+00 0.25709473E+03</pdfrwt>
<pdfrwt beam="2">  1       21 0.52619946E-02 0.25709473E+03</pdfrwt>
<totfact> 0.76518649E+03</totfact>
</mgrwt>
</event>
<event>
 4      3 +5.6305390e+02 9.07378300e+01 7.54677100e-03 1.30107500e-01
        2 -1    0    0  501    0 +0.0000000000e+00 +0.0000000000e+00 +3.0137856660e+02 3.0137856660e+02 0.0000000000e+00 0.0000e+00 -1.0000e+00
       -2 -1    0    0    0  501 -0.0000000000e+00 -0.0000000000e+00 -3.7073651065e+01 3.7073651065e+01 0.0000000000e+00 0.0000e+00 1.0000e+00
       24  1    1    2    0    0 +3.6790204541e+01 +2.0313029351e+01 +2.1895672208e+02 2.3701350259e+02 8.0419002446e+01 0.0000e+00 -1.0000e+00
      -24  1    1    2    0    0 -3.6790204541e+01 -2.0313029351e+01 +4.5348193449e+01 1.0143871507e+02 8.0419002446e+01 0.0000e+00 1.0000e+00
<mgrwt>
<rscale>  0 0.90737833E+02</rscale>
<asrwt>0</asrwt>
<pdfrwt beam="1">  1        2 0.46365932E-01 0.90737833E+02</pdfrwt>
<pdfrwt beam="2">  1       -2 0.57036388E-02 0.90737833E+02</pdfrwt>
<totfact> 0.15731472E+04</totfact>
</mgrwt>
</event>
<event>
 4      2 +5.6305390e+02 1.93562200e+02 7.54677100e-03 1.15528700e-01
       21 -1    0    0  503  502 +0.0000000000e+00 +0.0000000000e+00 +6.7142128376e+02 6.7142128376e+02 0.0000000000e+00 0.0000e+00 -1.0000e+00
       21 -1    0    0  501  503 -0.0000000000e+00 -0.0000000000e+00 -6.2358572013e+01 6.2358572013e+01 0.0000000000e+00 0.0000e+00 -1.0000e+00
        6  1    1    2  501    0 -8.3559315287e+01 -2.3561660050e+01 +1.8555987394e+02 2.6813947455e+02 1.7300000000e+02 0.0000e+00 -1.0000e+00
       -6  1    1    2    0  502 +8.3559315287e+01 +2.3561660050e+01 +4.2350283780e+02 4.6564038122e+02 1.7300000000e+02 0.0000e+00 -1.0000e+00
<mgrwt>
<rscale>  2 0.19356216E+03</rscale>
<asrwt>0</asrwt>
<pdfrwt beam="1">  1       21 0.10329558E+00 0.19356216E+03</pdfrwt>
<pdfrwt beam="2">  1       21 0.95936269E-02 0.19356216E+03</pdfrwt>
<totfact> 0.66314692E+04</totfact>
</mgrwt>
</event>
<event>
 4      2 +5.6305390e+02 3.73157500e+02 7.54677100e-03 1.05349200e-01
       21 -1    0    0  501  502 +0.0000000000e+00 +0.0000000000e+00 +9.4890435197e+02 9.4890435197e+02 0.0000000000e+00 0.0000e+00 1.0000e+00
       21 -1    0    0  502  503 -0.0000000000e+00 -0.0000000000e+00 -1.4690056936e+02 1.4690056936e+02 0.0000000000e+00 0.0000e+00 -1.0000e+00
        6  1    1    2  501    0 -3.2905218919e+02 +3.2282854705e+01 +3.8314505440e+02 5.3483329985e+02 1.7300000000e+02 0.0000e+00 -1.0000e+00
       -6  1    1    2    0  503 +3.2905218919e+02 -3.2282854705e+01 +4.1885872821e+02 5.6097162149e+02 1.7300000000e+02 0.0000e+00 1.0000e+00
<mgrwt>
<rscale>  2 0.37315751E+03</rscale>
<asrwt>0</asrwt>
<pdfrwt beam="1">  1       21 0.14598528E+00 0.37315751E+03</pdfrwt>
<pdfrwt beam="2">  1       21 0.22600088E-01 0.37315751E+03</pdfrwt>
<totfact> 0.52916365E+03</totfact>
</mgrwt>
</event>
<event>
 4      2 +5.6305390e+02 1.85779900e+02 7.54677100e-03 1.16232400e-01
       21 -1    0    0  501  502 +0.0000000000e+00 +0.0000000000e+00 +6.8555609438e+02 6.8555609438e+02 0.0000000000e+00 0.0000e+00 1.0000e+00
       21 -1    0    0  502  503 -0.0000000000e+00 -0.0000000000e+00 -5.0385430626e+01 5.0385430626e+01 0.0000000000e+00 0.0000e+00 -1.0000e+00
        6  1    1    2  501    0 +6.7706876433e+01 +9.7944285482e-01 +3.2803539798e+02 3.7698992394e+02 1.7300000000e+02 0.0000e+00 1.0000e+00
       -6  1    1    2    0  503 -6.7706876433e+01 -9.7944285482e-01 +3.0713526577e+02 3.5895160106e+02 1.7300000000e+02 0.0000e+00 -1.0000e+00
<mgrwt>
<rscale>  2 0.18577992E+03</rscale>
<asrwt>0</asrwt>
<pdfrwt beam="1">  1       21 0.10547016E+00 0.18577992E+03</pdfrwt>
<pdfrwt beam="2">  1       21 0.77516052E-02 0.18577992E+03</pdfrwt>
<totfact> 0.91898349E+04</totfact>
</mgrwt>
</event>
<event>
 4      2 +5.6305390e+02 2.07169100e+02 7.54677100e-03 1.14382800e-01
       21 -1    0    0  503  502 +0.0000000000e+00 +0.0000000000e+00 +1.0245071226e+03 1.0245071226e+03 0.0000000000e+00 0.0000e+00 1.0000e+00
       21 -1    0    0  501  503 -0.0000000000e+00 -0.0000000000e+00 -5.8963154812e+01 5.8963154812e+01 0.0000000000e+00 0.0000e+00 1.0000e+00
        6  1    1    2  501    0 -2.0277852183e+01 +1.1215537811e+02 +1.9128206826e+02 2.8197136338e+02 1.7300000000e+02 0.0000e+00 1.0000e+00
       -6  1    1    2    0  502 +2.0277852183e+01 -1.1215537811e+02 +7.7426189949e+02 8.0149891399e+02 1.7300000000e+02 0.0000e+00 1.0000e+00
<mgrwt>
<rscale>  2 0.20716906E+03</rscale>
<asrwt>0</asrwt>
<pdfrwt beam="1">  1       21 0.15761647E+00 0.20716906E+03</pdfrwt>
<pdfrwt beam="2">  1       21 0.90712554E-02 0.20716906E+03</pdfrwt>
<totfact> 0.25008939E+04</totfact>
</mgrwt>
</event>
<event>
 4      2 +5.6305390e+02 2.17164900e+02 7.54677100e-03 1.13601500e-01
       21 -1    0    0  501  502 +0.0000000000e+00 +0.0000000000e+00 +1.6494282380e+02 1.6494282380e+02 0.0000000000e+00 0.0000e+00 -1.0000e+00
       21 -1    0    0  502  503 -0.0000000000e+00 -0.0000000000e+00 -3.5561861310e+02 3.5561861310e+02 0.0000000000e+00 0.0000e+00 1.0000e+00
        6  1    1    2  501    0 +1.2702839816e+02 -3.3096280029e+01 +1.9890484333e+01 2.1807386148e+02 1.7300000000e+02 0.0000e+00 -1.0000e+00
       -6  1    1    2    0  503 -1.2702839816e+02 +3.3096280029e+01 -2.1056627364e+02 3.0248757542e+02 1.7300000000e+02 0.0000e+00 1.0000e+00
<mgrwt>
<rscale>  2 0.21716486E+03</rscale>
<asrwt>0</asrwt>
<pdfrwt beam="1">  1       21 0.25375819E-01 0.21716486E+03</pdfrwt>
<pdfrwt beam="2">  1       21 0.54710555E-01 0.21716486E+03</pdfrwt>
<totfact> 0.45880399E+04</totfact>
</mgrwt>
</event>
<event>
 4      2 +5.6305390e+02 1.79305000e+02 7.54677100e-03 1.16847700e-01
       21 -1    0    0  501  502 +0.0000000000e+00 +0.0000000000e+00 +3.0215688913e+02 3.0215688913e+02 0.0000000000e+00 0.0000e+00 1.0000e+00
       21 -1    0    0  502  503 -0.0000000000e+00 -0.0000000000e+00 -1.1152775784e+02 1.1152775784e+02 0.0000000000e+00 0.0000e+00 1.0000e+00
        6  1    1    2  501    0 +4.6119893071e+01 -9.7082396584e+00 +5.0974194609e+01 1.8640993260e+02 1.7300000000e+02 0.0000e+00 1.0000e+00
       -6  1    1    2    0  503 -4.6119893071e+01 +9.7082396584e+00 +1.3965493668e+02 2.2727471437e+02 1.7300000000e+02 0.0000e+00 1.0000e+00
<mgrwt>
<rscale>  2 0.17930503E+03</rscale>
<asrwt>0</asrwt>
<pdfrwt beam="1">  1       21 0.46485675E-01 0.17930503E+03</pdfrwt>
<pdfrwt beam="2">  1       21 0.17158117E-01 0.17930503E+03</pdfrwt>
<totfact> 0.13654780E+05</totfact>
</mgrwt>
</event>
<event>
 4      2 +5.6305390e+02 2.26120800e+02 7.54677100e-03 1.12940000e-01
       21 -1    0    0  503  502 +0.0000000000e+00 +0.0000000000e+00 +7.6693297364e+01 7.6693297364e+01 0.0000000000e+00 0.0000e+00 1.0000e+00
       21 -1    0    0  501  503 -0.0000000000e+00 -0.0000000000e+00 -7.5162664412e+02 7.5162664412e+02 0.0000000000e+00 0.0000e+00 -1.0000e+00
        6  1    1    2  501    0 +6.5993217673e+00 -1.4545812009e+02 -4.7669124038e+02 5.2760321682e+02 1.7300000000e+02 0.0000e+00 -1.0000e+00
       -6  1    1    2    0  502 -6.5993217673e+00 +1.4545812009e+02 -1.9824210638e+02 3.0071672466e+02 1.7300000000e+02 0.0000e+00 1.0000e+00
<mgrwt>
<rscale>  2 0.22612080E+03</rscale>
<asrwt>0</asrwt>
<pdfrwt beam="1">  1       21 0.11798969E-01 0.22612080E+03</pdfrwt>
<pdfrwt beam="2">  1       21 0.11563487E+00 0.22612080E+03</pdfrwt>
<totfact> 0.34350280E+04</totfact>
</mgrwt>
</event>
<event>
 4      2 +5.6305390e+02 2.26268800e+02 7.54677100e-03 1.12929400e-01
       21 -1    0    0  503  502 +0.0000000000e+00 +0.0000000000e+00 +1.8835731098e+02 1.8835731098e+02 0.0000000000e+00 0.0000e+00 -1.0000e+00
       21 -1    0    0  501  503 -0.0000000000e+00 -0.0000000000e+00 -3.9744073913e+02 3.9744073913e+02 0.0000000000e+00 0.0000e+00 -1.0000e+00
        6  1    1    2  501    0 -8.9897546260e+00 +1.4556012594e+02 -2.6921690519e+02 3.5167500337e+02 1.7300000000e+02 0.0000e+00 -1.0000e+00
       -6  1    1    2    0  502 +8.9897546260e+00 -1.4556012594e+02 +6.0133477045e+01 2.3412304674e+02 1.7300000000e+02 0.0000e+00 -1.0000e+00
<mgrwt>
<rscale>  2 0.22626879E+03</rscale>
<asrwt>0</asrwt>
<pdfrwt beam="1">  1       21 0.28978048E-01 0.22626879E+03</pdfrwt>
<pdfrwt beam="2">  1       21 0.61144729E-01 0.22626879E+03</pdfrwt>
<totfact> 0.27853221E+04</totfact>
</mgrwt>
</event>
<event>
 4      2 +5.6305390e+02 2.46061300e+02 7.54677100e-03 1.11582000e-01
       21 -1    0    0  503  502 +0.0000000000e+00 +0.0000000000e+00 +1.1005128598e+02 1.1005128598e+02 0.0000000000e+00 0.0000e+00 1.0000e+00
       21 -1    0    0  501  503 -0.0000000000e+00 -0.0000000000e+00 -6.8381488237e+02 6.8381488237e+02 0.0000000000e+00 0.0000e+00 -1.0000e+00
        6  1    1    2  501    0 -1.7486277686e+02 +6.3387951194e+00 -4.6236485433e+02 5.2376276077e+02 1.7300000000e+02 0.0000e+00 -1.0000e+00
       -6  1    1    2    0  502 +1.7486277686e+02 -6.3387951194e+00 -1.1139874206e+02 2.7010340758e+02 1.7300000000e+02 0.0000e+00 1.0000e+00
<mgrwt>
<rscale>  2 0.24606132E+03</rscale>
<asrwt>0</asrwt>
<pdfrwt beam="1">  1       21 0.16930967E-01 0.24606132E+03</pdfrwt>
<pdfrwt beam="2">  1       21 0.10520229E+00 0.24606132E+03</pdfrwt>
<totfact> 0.22182999E+04</totfact>
</mgrwt>
</event>
<event>
 4      2 +5.6305390e+02 2.21202800e+02 7.54677100e-03 1.13298900e-01
       21 -1    0    0  503  502 +0.0000000000e+00 +0.0000000000e+00 +1.2411536288e+02 1.2411536288e+02 0.0000000000e+00 0.0000e+00 1.0000e+00
       21 -1    0    0  501  503 -0.0000000000e+00 -0.0000000000e+00 -4.0324905431e+02 4.0324905431e+02 0.0000000000e+00 0.0000e+00 1.0000e+00
        6  1    1    2  501    0 -1.3508074961e+02 +2.7475202775e+01 -1.0014476336e+02 2.4281612243e+02 1.7300000000e+02 0.0000e+00 1.0000e+00
       -6  1    1    2    0  502 +1.3508074961e+02 -2.7475202775e+01 -1.7898892807e+02 2.8454829477e+02 1.7300000000e+02 0.0000e+00 1.0000e+00
<mgrwt>
<rscale>  2 0.22120284E+03</rscale>
<asrwt>0</asrwt>
<pdfrwt beam="1">  1       21 0.19094672E-01 0.22120284E+03</pdfrwt>
<pdfrwt beam="2">  1       21 0.62038315E-01 0.22120284E+03</pdfrwt>
<totfact> 0.59896409E+04</totfact>
</mgrwt>
</event>
<event>
 4      2 +5.6305390e+02 2.46868300e+02 7.54677100e-03 1.11530000e-01
       21 -1    0    0  503  502 +0.0000000000e+00 +0.0000000000e+00 +8.9572012239e+02 8.9572012239e+02 0.0000000000e+00 0.0000e+00 -1.0000e+00
       21 -1    0    0  501  503 -0.0000000000e+00 -0.0000000000e+00 -1.1703087559e+02 1.1703087559e+02 0.0000000000e+00 0.0000e+00 -1.0000e+00
        6  1    1    2  501    0 -1.7027144237e+02 -4.4973342784e+01 +6.1714238365e+01 2.5446534708e+02 1.7300000000e+02 0.0000e+00 -1.0000e+00
       -6  1    1    2    0  502 +1.7027144237e+02 +4.4973342784e+01 +7.1697500844e+02 7.5828565091e+02 1.7300000000e+02 0.0000e+00 -1.0000e+00
<mgrwt>
<rscale>  2 0.24686832E+03</rscale>
<asrwt>0</asrwt>
<pdfrwt beam="1">  1       21 0.13780309E+00 0.24686832E+03</pdfrwt>
<pdfrwt beam="2">  1       21 0.18004751E-01 0.24686832E+03</pdfrwt>
<totfact> 0.10084615E+04</totfact>
</mgrwt>
</event>
<event>
 4      2 +5.6305390e+02 1.85975400e+02 7.54677100e-03 1.16214200e-01
       21 -1    0    0  503  502 +0.0000000000e+00 +0.0000000000e+00 +7.7709073356e+01 7.7709073356e+01 0.0000000000e+00 0.0000e+00 -1.0000e+00
       21 -1    0    0  501  503 -0.0000000000e+00 -0.0000000000e+00 -8.9422669424e+02 8.9422669424e+02 0.0000000000e+00 0.0000e+00 -1.0000e+00
        6  1    1    2  501    0 +6.5491023753e+01 +1.9203919796e+01 -7.5266993519e+02 7.7530567912e+02 1.7300000000e+02 0.0000e+00 -1.0000e+00
       -6  1    1    2    0  502 -6.5491023753e+01 -1.9203919796e+01 -6.3847685692e+01 1.9663008848e+02 1.7300000000e+02 0.0000e+00 -1.0000e+00
<mgrwt>
<rscale>  2 0.18597544E+03</rscale>
<asrwt>0</asrwt>
<pdfrwt beam="1">  1       21 0.11955243E-01 0.18597544E+03</pdfrwt>
<pdfrwt beam="2">  1       21 0.13757333E+00 0.18597544E+03</pdfrwt>
<totfact> 0.22208606E+04</totfact>
</mgrwt>
</event>
<event>
 4      2 +5.6305390e+02 1.81320200e+02 7.54677100e-03 1.16653100e-01
       21 -1    0    0  503  502 +0.0000000000e+00 +0.0000000000e+00 +2.8885002555e+02 2.8885002555e+02 0.0000000000e+00 0.0000e+00 -1.0000e+00
       21 -1    0    0  501  503 -0.0000000000e+00 -0.0000000000e+00 -2.1473489399e+02 2.1473489399e+02 0.0000000000e+00 0.0000e+00 -1.0000e+00
        6  1    1    2  501    0 +5.0392886936e+01 -2.0212744000e+01 -1.3555340171e+02 2.2638843342e+02 1.7300000000e+02 0.0000e+00 -1.0000e+00
       -6  1    1    2    0  502 -5.0392886936e+01 +2.0212744000e+01 +2.0966853326e+02 2.7719648611e+02 1.7300000000e+02 0.0000e+00 -1.0000e+00
<mgrwt>
<rscale>  2 0.18132015E+03</rscale>
<asrwt>0</asrwt>
<pdfrwt beam="1">  1       21 0.44438466E-01 0.18132015E+03</pdfrwt>
<pdfrwt beam="2">  1       21 0.33036137E-01 0.18132015E+03</pdfrwt>
<totfact> 0.43131681E+04</totfact>
</mgrwt>
</event>
<event>
 4      2 +5.6305390e+02 2.06768100e+02 7.54677100e-03 1.14415100e-01
       21 -1    0    0  503  502 +0.0000000000e+00 +0.0000000000e+00 +1.1179723198e+03 1.1179723198e+03 0.0000000000e+00 0.0000e+00 1.0000e+00
       21 -1    0    0  501  503 -0.0000000000e+00 -0.0000000000e+00 -4.5972516884e+01 4.5972516884e+01 0.0000000000e+00 0.0000e+00 1.0000e+00
        6  1    1    2  501    0 +5.6379141615e+01 -9.8211173841e+01 +2.9734576578e+02 3.6217060442e+02 1.7300000000e+02 0.0000e+00 1.0000e+00
       -6  1    1    2    0  502 -5.6379141615e+01 +9.8211173841e+01 +7.7465403713e+02 8.0177423227e+02 1.7300000000e+02 0.0000e+00 1.0000e+00
<mgrwt>
<rscale>  2 0.20676809E+03</rscale>
<asrwt>0</asrwt>
<pdfrwt beam="1">  1       21 0.17199572E+00 0.20676809E+03</pdfrwt>
<pdfrwt beam="2">  1       21 0.70726958E-02 0.20676809E+03</pdfrwt>
<totfact> 0.30419584E+04</totfact>
</mgrwt>
</event>
<event>
 4      2 +5.6305390e+02 2.05910700e+02 7.54677100e-03 1.14484600e-01
       21 -1    0    0  503  502 +0.0000000000e+00 +0.0000000000e+00 +2.3050252722e+02 2.3050252722e+02 0.0000000000e+00 0.0000e+00 -1.0000e+00
       21 -1    0    0  501  503 -0.0000000000e+00 -0.0000000000e+00 -2.3149895036e+02 2.3149895036e+02 0.0000000000e+00 0.0000e+00 -1.0000e+00
        6  1    1    2  501    0 -2.0034347830e+01 +1.0985834298e+02 +1.0420094546e+02 2.3077492856e+02 1.7300000000e+02 0.0000e+00 -1.0000e+00
       -6  1    1    2    0  502 +2.0034347830e+01 -1.0985834298e+02 -1.0519736860e+02 2.3122654903e+02 1.7300000000e+02 0.0000e+00 -1.0000e+00
<mgrwt>
<rscale>  2 0.20591073E+03</rscale>
<asrwt>0</asrwt>
<pdfrwt beam="1">  1       21 0.35461927E-01 0.20591073E+03</pdfrwt>
<pdfrwt beam="2">  1       21 0.35615223E-01 0.20591073E+03</pdfrwt>
<totfact> 0.57921520E+04</totfact>
</mgrwt>
</event>
<event>
 4      2 +5.6305390e+02 3.11252600e+02 7.54677100e-03 1.07974700e-01
       21 -1    0    0  501  502 +0.0000000000e+00 +0.0000000000e+00 +5.5428136573e+02 5.5428136573e+02 0.0000000000e+00 0.0000e+00 1.0000e+00
       21 -1    0    0  502  503 -0.0000000000e+00 -0.0000000000e+00 -2.4528228701e+02 2.4528228701e+02 0.0000000000e+00 0.0000e+00 -1.0000e+00
        6  1    1    2  501    0 +1.0314429098e+02 +2.3729823791e+02 -5.9832229451e+01 3.1695124887e+02 1.7300000000e+02 0.0000e+00 1.0000e+00
       -6  1    1    2    0  503 -1.0314429098e+02 -2.3729823791e+02 +3.6883130817e+02 4.8261240387e+02 1.7300000000e+02 0.0000e+00 -1.0000e+00
<mgrwt>
<rscale>  2 0.31125263E+03</rscale>
<asrwt>0</asrwt>
<pdfrwt beam="1">  1       21 0.85274056E-01 0.31125263E+03</pdfrwt>
<pdfrwt beam="2">  1       21 0.37735737E-01 0.31125263E+03</pdfrwt>
<totfact> 0.75169039E+03</totfact>
</mgrwt>
</event>
<event>
 4      2 +5.6305390e+02 2.72778700e+02 7.54677100e-03 1.09970000e-01
       -2 -1    0    0    0  501 -0.0000000000e+00 +0.0000000000e+00 +1.1631826024e+02 1.1631826024e+02 0.0000000000e+00 0.0000e+00 -1.0000e+00
        2 -1    0    0  502    0 +0.0000000000e+00 -0.0000000000e+00 -8.7802335569e+02 8.7802335569e+02 0.0000000000e+00 0.0000e+00 1.0000e+00
        6  1    1    2  502    0 +1.4129691154e+02 +1.5657068940e+02 -1.2182823224e+02 2.9874791407e+02 1.7300000000e+02 0.0000e+00 -1.0000e+00
       -6  1    1    2    0  501 -1.4129691154e+02 -1.5657068940e+02 -6.3987686322e+02 6.9559370186e+02 1.7300000000e+02 0.0000e+00 1.0000e+00
<mgrwt>
<rscale>  2 0.27277866E+03</rscale>
<asrwt>0</asrwt>
<pdfrwt beam="1">  1        2 0.13508052E+00 0.27277866E+03</pdfrwt>
<pdfrwt beam="2">  1       -2 0.17895117E-01 0.27277866E+03</pdfrwt>
<totfact> 0.80105543E+02</totfact>
</mgrwt>
</event>
<event>
 4      2 +5.6305390e+02 2.51275100e+02 7.54677100e-03 1.11250200e-01
       21 -1    0    0  503  502 +0.0000000000e+00 +0.0000000000e+00 +3.2246216966e+02 3.2246216966e+02 0.0000000000e+00 0.0000e+00 -1.0000e+00
       21 -1    0    0  501  503 -0.0000000000e+00 -0.0000000000e+00 -2.0326791660e+02 2.0326791660e+02 0.0000000000e+00 0.0000e+00 -1.0000e+00
        6  1    1    2  501    0 -1.6515526260e+02 +7.7031950900e+01 +1.0997036711e+02 2.7428573398e+02 1.7300000000e+02 0.0000e+00 -1.0000e+00
       -6  1    1    2    0  502 +1.6515526260e+02 -7.7031950900e+01 +9.2238859439e+00 2.5144435228e+02 1.7300000000e+02 0.0000e+00 -1.0000e+00
<mgrwt>
<rscale>  2 0.25127511E+03</rscale>
<asrwt>0</asrwt>
<pdfrwt beam="1">  1       21 0.49609565E-01 0.25127511E+03</pdfrwt>
<pdfrwt beam="2">  1       21 0.31271987E-01 0.25127511E+03</pdfrwt>
<totfact> 0.37009636E+04</totfact>
</mgrwt>
</event>
<event>
 4      2 +5.6305390e+02 2.40894800e+02 7.54677100e-03 1.11919800e-01
       21 -1    0    0  501  502 +0.0000000000e+00 +0.0000000000e+00 +7.6856495269e+01 7.6856495269e+01 0.0000000000e+00 0.0000e+00 1.0000e+00
       21 -1    0    0  502  503 -0.0000000000e+00 -0.0000000000e+00 -7.8598981830e+02 7.8598981830e+02 0.0000000000e+00 0.0000e+00 1.0000e+00
        6  1    1    2  501    0 -1.0294889251e+02 +1.3229818086e+02 -2.6896673761e+02 3.6107255374e+02 1.7300000000e+02 0.0000e+00 1.0000e+00
       -6  1    1    2    0  503 +1.0294889251e+02 -1.3229818086e+02 -4.4016658542e+02 5.0177375983e+02 1.7300000000e+02 0.0000e+00 1.0000e+00
<mgrwt>
<rscale>  2 0.24089476E+03</rscale>
<asrwt>0</asrwt>
<pdfrwt beam="1">  1       21 0.11824076E-01 0.24089476E+03</pdfrwt>
<pdfrwt beam="2">  1       21 0.12092152E+00 0.24089476E+03</pdfrwt>
<totfact> 0.30407118E+04</totfact>
</mgrwt>
</event>
<event>
 4      2 +5.6305390e+02 3.23536700e+02 7.54677100e-03 1.07403300e-01
       21 -1    0    0  503  502 +0.0000000000e+00 +0.0000000000e+00 +7.6791888532e+02 7.6791888532e+02 0.0000000000e+00 0.0000e+00 1.0000e+00
       21 -1    0    0  501  503 -0.0000000000e+00 -0.0000000000e+00 -1.7658650462e+03 1.7658650462e+03 0.0000000000e+00 0.0000e+00 -1.0000e+00
        6  1    1    2  501    0 -1.0185216542e+02 +2.5371855571e+02 -1.7159859772e+03 1.7462198725e+03 1.7300000000e+02 0.0000e+00 -1.0000e+00
       -6  1    1    2    0  502 +1.0185216542e+02 -2.5371855571e+02 +7.1803981637e+02 7.8756405899e+02 1.7300000000e+02 0.0000e+00 1.0000e+00
<mgrwt>
<rscale>  2 0.32353666E+03</rscale>
<asrwt>0</asrwt>
<pdfrwt beam="1">  1       21 0.11814137E+00 0.32353666E+03</pdfrwt>
<pdfrwt beam="2">  1       21 0.27167154E+00 0.32353666E+03</pdfrwt>
<totfact> 0.22869683E+01</totfact>
</mgrwt>
</event>
<event>
 4      2 +5.6305390e+02 1.86823300e+02 7.54677100e-03 1.16135800e-01
       21 -1    0    0  503  502 +0.0000000000e+00 +0.0000000000e+00 +3.5856404474e+01 3.5856404474e+01 0.0000000000e+00 0.0000e+00 -1.0000e+00
       21 -1    0    0  501  503 -0.0000000000e+00 -0.0000000000e+00 -9.7991243478e+02 9.7991243478e+02 0.0000000000e+00 0.0000e+00 1.0000e+00
        6  1    1    2  501    0 -6.3706669157e+01 +3.0255774104e+01 -5.1340303715e+02 5.4633838426e+02 1.7300000000e+02 0.0000e+00 -1.0000e+00
       -6  1    1    2    0  502 +6.3706669157e+01 -3.0255774104e+01 -4.3065299316e+02 4.6943045500e+02 1.7300000000e+02 0.0000e+00 1.0000e+00
<mgrwt>
<rscale>  2 0.18682332E+03</rscale>
<asrwt>0</asrwt>
<pdfrwt beam="1">  1       21 0.55163698E-02 0.18682332E+03</pdfrwt>
<pdfrwt beam="2">  1       21 0.15075576E+00 0.18682332E+03</pdfrwt>
<totfact> 0.67342766E+04</totfact>
</mgrwt>
</event>
<event>
 4      2 +5.6305390e+02 1.87568200e+02 7.54677100e-03 1.16067300e-01
       21 -1    0    0  503  502 +0.0000000000e+00 +0.0000000000e+00 +6.7238583633e+01 6.7238583633e+01 0.0000000000e+00 0.0000e+00 1.0000e+00
       21 -1    0    0  501  503 -0.0000000000e+00 -0.0000000000e+00 -6.5108171207e+02 6.5108171207e+02 0.0000000000e+00 0.0000e+00 1.0000e+00
        6  1    1    2  501    0 -3.0754156891e+01 +6.5627895373e+01 -4.5107229778e+02 4.8851617848e+02 1.7300000000e+02 0.0000e+00 1.0000e+00
       -6  1    1    2    0  502 +3.0754156891e+01 -6.5627895373e+01 -1.3277083066e+02 2.2980411722e+02 1.7300000000e+02 0.0000e+00 1.0000e+00
<mgrwt>
<rscale>  2 0.18756822E+03</rscale>
<asrwt>0</asrwt>
<pdfrwt beam="1">  1       21 0.10344398E-01 0.18756822E+03</pdfrwt>
<pdfrwt beam="2">  1       21 0.10016642E+00 0.18756822E+03</pdfrwt>
<totfact> 0.62646896E+04</totfact>
</mgrwt>
</event>
<event>
 4      2 +5.6305390e+02 2.16973900e+02 7.54677100e-03 1.13615900e-01
       21 -1    0    0  503  502 +0.0000000000e+00 +0.0000000000e+00 +9.5834062862e+01 9.5834062862e+01 0.0000000000e+00 0.0000e+00 1.0000e+00
       21 -1    0    0  501  503 -0.0000000000e+00 -0.0000000000e+00 -5.2102622477e+02 5.2102622477e+02 0.0000000000e+00 0.0000e+00 -1.0000e+00
        6  1    1    2  501    0 +1.1428257692e+02 +6.3938876641e+01 -1.3885280787e+02 2.5760005743e+02 1.7300000000e+02 0.0000e+00 1.0000e+00
       -6  1    1    2    0  502 -1.1428257692e+02 -6.3938876641e+01 -2.8633935405e+02 3.5926023021e+02 1.7300000000e+02 0.0000e+00 1.0000e+00
<mgrwt>
<rscale>  2 0.21697393E+03</rscale>
<asrwt>0</asrwt>
<pdfrwt beam="1">  1       21 0.14743702E-01 0.21697393E+03</pdfrwt>
<pdfrwt beam="2">  1       21 0.80157879E-01 0.21697393E+03</pdfrwt>
<totfact> 0.54783531E+04</totfact>
</mgrwt>
</event>
<event>
 4      2 +5.6305390e+02 2.10227500e+02 7.54677100e-03 1.14138600e-01
       21 -1    0    0  501  502 +0.0000000000e+00 +0.0000000000e+00 +2.2505885648e+02 2.2505885648e+02 0.0000000000e+00 0.0000e+00 -1.0000e+00
       21 -1    0    0  502  503 -0.0000000000e+00 -0.0000000000e+00 -2.2311755570e+02 2.2311755570e+02 0.0000000000e+00 0.0000e+00 -1.0000e+00
        6  1    1    2  501    0 +8.1717278588e+00 -1.1916298460e+02 +7.8553514758e+01 2.2442426053e+02 1.7300000000e+02 0.0000e+00 -1.0000e+00
       -6  1    1    2    0  503 -8.1717278588e+00 +1.1916298460e+02 -7.6612213983e+01 2.2375215165e+02 1.7300000000e+02 0.0000e+00 -1.0000e+00
<mgrwt>
<rscale>  2 0.21022748E+03</rscale>
<asrwt>0</asrwt>
<pdfrwt beam="1">  1       21 0.34624439E-01 0.21022748E+03</pdfrwt>
<pdfrwt beam="2">  1       21 0.34325778E-01 0.21022748E+03</pdfrwt>
<totfact> 0.65235919E+04</totfact>
</mgrwt>
</event>
<event>
 4      2 +5.6305390e+02 2.47626700e+02 7.54677100e-03 1.11481400e-01
       21 -1    0    0  501  502 +0.0000000000e+00 +0.0000000000e+00 +4.4634501138e+02 4.4634501138e+02 0.0000000000e+00 0.0000e+00 -1.0000e+00
       21 -1    0    0  502  503 -0.0000000000e+00 -0.0000000000e+00 -1.7485919162e+02 1.7485919162e+02 0.0000000000e+00 0.0000e+00 1.0000e+00
        6  1    1    2  501    0 +4.6934040018e+01 +1.7084260451e+02 -8.0553666837e+00 2.4775772150e+02 1.7300000000e+02 0.0000e+00 -1.0000e+00
       -6  1    1    2    0  503 -4.6934040018e+01 -1.7084260451e+02 +2.7954118644e+02 3.7344648150e+02 1.7300000000e+02 0.0000e+00 1.0000e+00
<mgrwt>
<rscale>  2 0.24762673E+03</rscale>
<asrwt>0</asrwt>
<pdfrwt beam="1">  1       21 0.68668463E-01 0.24762673E+03</pdfrwt>
<pdfrwt beam="2">  1       21 0.26901414E-01 0.24762673E+03</pdfrwt>
<totfact> 0.24712034E+04</totfact>
</mgrwt>
</event>
<event>
 4      2 +5.6305390e+02 2.12661800e+02 7.54677100e-03 1.13947500e-01
       21 -1    0    0  501  502 +0.0000000000e+00 +0.0000000000e+00 +5.1949010282e+01 5.1949010282e+01 0.0000000000e+00 0.0000e+00 -1.0000e+00
       21 -1    0    0  502  503 -0.0000000000e+00 -0.0000000000e+00 -2.7576988900e+03 2.7576988900e+03 0.0000000000e+00 0.0000e+00 -1.0000e+00
        6  1    1    2  501    0 +5.2109372730e+00 +1.2356740911e+02 -1.9075838974e+02 2.8568132896e+02 1.7300000000e+02 0.0000e+00 -1.0000e+00
       -6  1    1    2    0  503 -5.2109372730e+00 -1.2356740911e+02 -2.5149914900e+03 2.5239665713e+03 1.7300000000e+02 0.0000e+00 -1.0000e+00
<mgrwt>
<rscale>  2 0.21266184E+03</rscale>
<asrwt>0</asrwt>
<pdfrwt beam="1">  1       21 0.79921567E-02 0.21266184E+03</pdfrwt>
<pdfrwt beam="2">  1       21 0.42426130E+00 0.21266184E+03</pdfrwt>
<totfact> 0.71374949E+02</totfact>
</mgrwt>
</event>
<event>
 4      2 +5.6305390e+02 2.07567000e+02 7.54677100e-03 1.14350700e-01
       21 -1    0    0  503  502 +0.0000000000e+00 +0.0000000000e+00 +7.7777519776e+01 7.7777519776e+01 0.0000000000e+00 0.0000e+00 1.0000e+00
       21 -1    0    0  501  503 -0.0000000000e+00 -0.0000000000e+00 -7.5033905065e+02 7.5033905065e+02 0.0000000000e+00 0.0000e+00 1.0000e+00
        6  1    1    2  501    0 -4.9703323903e+01 +1.0336647636e+02 -5.4811825916e+02 5.8610380895e+02 1.7300000000e+02 0.0000e+00 1.0000e+00
       -6  1    1    2    0  502 +4.9703323903e+01 -1.0336647636e+02 -1.2444327171e+02 2.4201276147e+02 1.7300000000e+02 0.0000e+00 1.0000e+00
<mgrwt>
<rscale>  2 0.20756697E+03</rscale>
<asrwt>0</asrwt>
<pdfrwt beam="1">  1       21 0.11965773E-01 0.20756697E+03</pdfrwt>
<pdfrwt beam="2">  1       21 0.11543677E+00 0.20756697E+03</pdfrwt>
<totfact> 0.33971868E+04</totfact>
</mgrwt>
</event>
<event>
 4      2 +5.6305390e+02 1.90192800e+02 7.54677100e-03 1.15828800e-01
       21 -1    0    0  503  502 +0.0000000000e+00 +0.0000000000e+00 +1.5705983752e+02 1.5705983752e+02 0.0000000000e+00 0.0000e+00 -1.0000e+00
       21 -1    0    0  501  503 -0.0000000000e+00 -0.0000000000e+00 -2.3147270794e+02 2.3147270794e+02 0.0000000000e+00 0.0000e+00 -1.0000e+00
        6  1    1    2  501    0 -6.9015162385e+01 -3.8486650932e+01 -5.0942214309e+01 1.9689698865e+02 1.7300000000e+02 0.0000e+00 -1.0000e+00
       -6  1    1    2    0  502 +6.9015162385e+01 +3.8486650932e+01 -2.3470656114e+01 1.9163555682e+02 1.7300000000e+02 0.0000e+00 -1.0000e+00
<mgrwt>
<rscale>  2 0.19019284E+03</rscale>
<asrwt>0</asrwt>
<pdfrwt beam="1">  1       21 0.24163052E-01 0.19019284E+03</pdfrwt>
<pdfrwt beam="2">  1       21 0.35611186E-01 0.19019284E+03</pdfrwt>
<totfact> 0.12299544E+05</totfact>
</mgrwt>
</event>
<event>
 4      2 +5.6305390e+02 1.83449500e+02 7.54677100e-03 1.16450600e-01
       21 -1    0    0  503  502 +0.0000000000e+00 +0.0000000000e+00 +2.0673606652e+02 2.0673606652e+02 0.0000000000e+00 0.0000e+00 1.0000e+00
       21 -1    0    0  501  503 -0.0000000000e+00 -0.0000000000e+00 -3.2706771111e+02 3.2706771111e+02 0.0000000000e+00 0.0000e+00 1.0000e+00
        6  1    1    2  501    0 +3.6471296525e+01 +4.8934429935e+01 -2.4932501075e+02 3.0954271900e+02 1.7300000000e+02 0.0000e+00 1.0000e+00
       -6  1    1    2    0  502 -3.6471296525e+01 -4.8934429935e+01 +1.2899336615e+02 2.2426105862e+02 1.7300000000e+02 0.0000e+00 1.0000e+00
<mgrwt>
<rscale>  2 0.18344954E+03</rscale>
<asrwt>0</asrwt>
<pdfrwt beam="1">  1       21 0.31805549E-01 0.18344954E+03</pdfrwt>
<pdfrwt beam="2">  1       21 0.50318110E-01 0.18344954E+03</pdfrwt>
<totfact> 0.35912530E+04</totfact>
</mgrwt>
</event>
<event>
 4      2 +5.6305390e+02 1.92953700e+02 7.54677100e-03 1.15582400e-01
       21 -1    0    0  503  502 +0.0000000000e+00 +0.0000000000e+00 +4.9781597110e+01 4.9781597110e+01 0.0000000000e+00 0.0000e+00 -1.0000e+00
       21 -1    0    0  501  503 -0.0000000000e+00 -0.0000000000e+00 -7.7580759100e+02 7.7580759100e+02 0.0000000000e+00 0.0000e+00 -1.0000e+00
        6  1    1    2  501    0 -1.4693108906e+01 -8.4179878788e+01 -4.4131970413e+02 4.8165778380e+02 1.7300000000e+02 0.0000e+00 -1.0000e+00
       -6  1    1    2    0  502 +1.4693108906e+01 +8.4179878788e+01 -2.8470628976e+02 3.4393140431e+02 1.7300000000e+02 0.0000e+00 -1.0000e+00
<mgrwt>
<rscale>  2 0.19295372E+03</rscale>
<asrwt>0</asrwt>
<pdfrwt beam="1">  1       21 0.76587081E-02 0.19295372E+03</pdfrwt>
<pdfrwt beam="2">  1       21 0.11935500E+00 0.19295372E+03</pdfrwt>
<totfact> 0.69276619E+04</totfact>
</mgrwt>
</event>
<event>
 4      2 +5.6305390e+02 1.96584800e+02 7.54677100e-03 1.15265300e-01
       21 -1    0    0  503  502 +0.0000000000e+00 +0.0000000000e+00 +6.3627442471e+01 6.3627442471e+01 0.0000000000e+00 0.0000e+00 -1.0000e+00
       21 -1    0    0  501  503 -0.0000000000e+00 -0.0000000000e+00 -8.8032701754e+02 8.8032701754e+02 0.0000000000e+00 0.0000e+00 -1.0000e+00
        6  1    1    2  501    0 -7.4641350054e+01 -5.6082559460e+01 -6.7116097728e+02 6.9935873630e+02 1.7300000000e+02 0.0000e+00 -1.0000e+00
       -6  1    1    2    0  502 +7.4641350054e+01 +5.6082559460e+01 -1.4553859780e+02 2.4459572372e+02 1.7300000000e+02 0.0000e+00 -1.0000e+00
<mgrwt>
<rscale>  2 0.19658480E+03</rscale>
<asrwt>0</asrwt>
<pdfrwt beam="1">  1       21 0.97888375E-02 0.19658480E+03</pdfrwt>
<pdfrwt beam="2">  1       21 0.13543492E+00 0.19658480E+03</pdfrwt>
<totfact> 0.32753963E+04</totfact>
</mgrwt>
</event>
<event>
 4      2 +5.6305390e+02 2.41361600e+02 7.54677100e-03 1.11888900e-01
       21 -1    0    0  501  502 +0.0000000000e+00 +0.0000000000e+00 +2.2180228033e+02 2.2180228033e+02 0.0000000000e+00 0.0000e+00 -1.0000e+00
       21 -1    0    0  502  503 -0.0000000000e+00 -0.0000000000e+00 -8.0975038396e+02 8.0975038396e+02 0.0000000000e+00 0.0000e+00 -1.0000e+00
        6  1    1    2  501    0 -7.3143801827e+01 -1.5157968846e+02 +1.2998219626e+02 2.7413644239e+02 1.7300000000e+02 0.0000e+00 -1.0000e+00
       -6  1    1    2    0  503 +7.3143801827e+01 +1.5157968846e+02 -7.1793029989e+02 7.5741622191e+02 1.7300000000e+02 0.0000e+00 -1.0000e+00
<mgrwt>
<rscale>  2 0.24136159E+03</rscale>
<asrwt>0</asrwt>
<pdfrwt beam="1">  1       21 0.34123428E-01 0.24136159E+03</pdfrwt>
<pdfrwt beam="2">  1       21 0.12457698E+00 0.24136159E+03</pdfrwt>
<totfact> 0.38334754E+03</totfact>
</mgrwt>
</event>
<event>
 4      2 +5.6305390e+02 2.34172200e+02 7.54677100e-03 1.12373700e-01
       21 -1    0    0  501  502 +0.0000000000e+00 +0.0000000000e+00 +6.0498078948e+02 6.0498078948e+02 0.0000000000e+00 0.0000e+00 -1.0000e+00
       21 -1    0    0  502  503 -0.0000000000e+00 -0.0000000000e+00 -1.6297234506e+02 1.6297234506e+02 0.0000000000e+00 0.0000e+00 1.0000e+00
        6  1    1    2  501    0 +2.8243280487e+01 -1.5527371703e+02 +4.7680880680e+02 5.3120923216e+02 1.7300000000e+02 0.0000e+00 -1.0000e+00
       -6  1    1    2    0  503 -2.8243280487e+01 +1.5527371703e+02 -3.4800362383e+01 2.3674390238e+02 1.7300000000e+02 0.0000e+00 1.0000e+00
<mgrwt>
<rscale>  2 0.23417218E+03</rscale>
<asrwt>0</asrwt>
<pdfrwt beam="1">  1       21 0.93073967E-01 0.23417218E+03</pdfrwt>
<pdfrwt beam="2">  1       21 0.25072669E-01 0.23417218E+03</pdfrwt>
<totfact> 0.14266708E+04</totfact>
</mgrwt>
</event>
<event>
 4      2 +5.6305390e+02 2.11840200e+02 7.54677100e-03 1.14011700e-01
        1 -1    0    0  502    0 +0.0000000000e+00 +0.0000000000e+00 +2.5633872896e+03 2.5633872896e+03 0.0000000000e+00 0.0000e+00 -1.0000e+00
       -1 -1    0    0    0  501 -0.0000000000e+00 -0.0000000000e+00 -1.8438074854e+01 1.8438074854e+01 0.0000000000e+00 0.0000e+00 1.0000e+00
        6  1    1    2  502    0 +9.5787228252e+01 -7.5974078754e+01 +1.5626224797e+03 1.5769163794e+03 1.7300000000e+02 0.0000e+00 -1.0000e+00
       -6  1    1    2    0  501 -9.5787228252e+01 +7.5974078754e+01 +9.8232673508e+02 1.0049089850e+03 1.7300000000e+02 0.0000e+00 -1.0000e+00
<mgrwt>
<rscale>  2 0.21184016E+03</rscale>
<asrwt>0</asrwt>
<pdfrwt beam="1">  1        1 0.39436699E+00 0.21184016E+03</pdfrwt>
<pdfrwt beam="2">  1       -1 0.28366289E-02 0.21184016E+03</pdfrwt>
<totfact> 0.59523147E+02</totfact>
</mgrwt>
</event>
<event>
 4      2 +5.6305390e+02 1.95092900e+02 7.54677100e-03 1.15394600e-01
       21 -1    0    0  501  502 +0.0000000000e+00 +0.0000000000e+00 +2.3007962836e+02 2.3007962836e+02 0.0000000000e+00 0.0000e+00 1.0000e+00
       21 -1    0    0  502  503 -0.0000000000e+00 -0.0000000000e+00 -1.7859017492e+02 1.7859017492e+02 0.0000000000e+00 0.0000e+00 1.0000e+00
        6  1    1    2  501    0 -1.2520557825e+01 -8.9305547193e+01 +8.1220576081e+01 2.1132445932e+02 1.7300000000e+02 0.0000e+00 1.0000e+00
       -6  1    1    2    0  503 +1.2520557825e+01 +8.9305547193e+01 -2.9731122643e+01 1.9734534396e+02 1.7300000000e+02 0.0000e+00 1.0000e+00
<mgrwt>
<rscale>  2 0.19509291E+03</rscale>
<asrwt>0</asrwt>
<pdfrwt beam="1">  1       21 0.35396866E-01 0.19509291E+03</pdfrwt>
<pdfrwt beam="2">  1       21 0.27475412E-01 0.19509291E+03</pdfrwt>
<totfact> 0.97150862E+04</totfact>
</mgrwt>
</event>
<event>
 4      3 +5.6305390e+02 8.72540200e+01 7.54677100e-03 1.30964100e-01
        2 -1    0    0  501    0 +0.0000000000e+00 +0.0000000000e+00 +1.1613791016e+03 1.1613791016e+03 0.0000000000e+00 0.0000e+00 -1.0000e+00
       -2 -1    0    0    0  501 -0.0000000000e+00 -0.0000000000e+00 -6.7575764558e+00 6.7575764558e+00 0.0000000000e+00 0.0000e+00 1.0000e+00
       24  1    1    2    0    0 +4.1881726853e+00 +3.3593214849e+01 +4.7627528191e+02 4.8420182257e+02 8.0419002446e+01 0.0000e+00 0.0000e+00
      -24  1    1    2    0    0 -4.1881726853e+00 -3.3593214849e+01 +6.7834624326e+02 6.8393485550e+02 8.0419002446e+01 0.0000e+00 1.0000e+00
<mgrwt>
<rscale>  0 0.87254013E+02</rscale>
<asrwt>0</asrwt>
<pdfrwt beam="1">  1        2 0.17867355E+00 0.87254024E+02</pdfrwt>
<pdfrwt beam="2">  1       -2 0.10396281E-02 0.87254024E+02</pdfrwt>
<totfact> 0.38501437E+04</totfact>
</mgrwt>
</event>
<event>
 4      2 +5.6305390e+02 2.16759700e+02 7.54677100e-03 1.13632200e-01
       21 -1    0    0  503  502 +0.0000000000e+00 +0.0000000000e+00 +2.2959852591e+03 2.2959852591e+03 0.0000000000e+00 0.0000e+00 -1.0000e+00
       21 -1    0    0  501  503 -0.0000000000e+00 -0.0000000000e+00 -2.0496280212e+01 2.0496280212e+01 0.0000000000e+00 0.0000e+00 -1.0000e+00
        6  1    1    2  501    0 -1.2120511744e+02 +4.8631941262e+01 +1.1838014659e+03 1.2034827198e+03 1.7300000000e+02 0.0000e+00 -1.0000e+00
       -6  1    1    2    0  502 +1.2120511744e+02 -4.8631941262e+01 +1.0916875130e+03 1.1129988195e+03 1.7300000000e+02 0.0000e+00 -1.0000e+00
<mgrwt>
<rscale>  2 0.21675965E+03</rscale>
<asrwt>0</asrwt>
<pdfrwt beam="1">  1       21 0.35322830E+00 0.21675965E+03</pdfrwt>
<pdfrwt beam="2">  1       21 0.31532757E-02 0.21675965E+03</pdfrwt>
<totfact> 0.94849349E+03</totfact>
</mgrwt>
</event>
<event>
 4      2 +5.6305390e+02 1.74993300e+02 7.54677100e-03 1.17273800e-01
       21 -1    0    0  501  502 +0.0000000000e+00 +0.0000000000e+00 +9.5502406446e+01 9.5502406446e+01 0.0000000000e+00 0.0000e+00 -1.0000e+00
       21 -1    0    0  502  503 -0.0000000000e+00 -0.0000000000e+00 -3.3782334372e+02 3.3782334372e+02 0.0000000000e+00 0.0000e+00 -1.0000e+00
        6  1    1    2  501    0 +2.4448634344e+01 -9.7932662850e+00 -1.7001377470e+02 2.4398222758e+02 1.7300000000e+02 0.0000e+00 -1.0000e+00
       -6  1    1    2    0  503 -2.4448634344e+01 +9.7932662850e+00 -7.2307162566e+01 1.8934352258e+02 1.7300000000e+02 0.0000e+00 -1.0000e+00
<mgrwt>
<rscale>  2 0.17499327E+03</rscale>
<asrwt>0</asrwt>
<pdfrwt beam="1">  1       21 0.14692678E-01 0.17499327E+03</pdfrwt>
<pdfrwt beam="2">  1       21 0.51972822E-01 0.17499327E+03</pdfrwt>
<totfact> 0.14399690E+05</totfact>
</mgrwt>
</event>
<event>
 4      2 +5.6305390e+02 2.53718800e+02 7.54677100e-03 1.11097700e-01
       21 -1    0    0  501  502 +0.0000000000e+00 +0.0000000000e+00 +1.6706141125e+03 1.6706141125e+03 0.0000000000e+00 0.0000e+00 1.0000e+00
       21 -1    0    0  502  503 -0.0000000000e+00 -0.0000000000e+00 -3.9493437791e+01 3.9493437791e+01 0.0000000000e+00 0.0000e+00 1.0000e+00
        6  1    1    2  501    0 -1.8428421395e+02 +2.1989763903e+01 +6.8219581293e+02 7.2784912476e+02 1.7300000000e+02 0.0000e+00 1.0000e+00
       -6  1    1    2    0  503 +1.8428421395e+02 -2.1989763903e+01 +9.4892486175e+02 9.8225842551e+02 1.7300000000e+02 0.0000e+00 1.0000e+00
<mgrwt>
<rscale>  2 0.25371878E+03</rscale>
<asrwt>0</asrwt>
<pdfrwt beam="1">  1       21 0.25701750E+00 0.25371878E+03</pdfrwt>
<pdfrwt beam="2">  1       21 0.60759148E-02 0.25371878E+03</pdfrwt>
<totfact> 0.11083375E+04</totfact>
</mgrwt>
</event>
<event>
 4      2 +5.6305390e+02 2.51905000e+02 7.54677100e-03 1.11210700e-01
       21 -1    0    0  503  502 +0.0000000000e+00 +0.0000000000e+00 +3.4807822464e+02 3.4807822464e+02 0.0000000000e+00 0.0000e+00 -1.0000e+00
       21 -1    0    0  501  503 -0.0000000000e+00 -0.0000000000e+00 -4.5583186727e+02 4.5583186727e+02 0.0000000000e+00 0.0000e+00 1.0000e+00
        6  1    1    2  501    0 -1.8285063621e+02 -9.6313404959e+00 -3.6524611685e+02 4.4369003116e+02 1.7300000000e+02 0.0000e+00 1.0000e+00
       -6  1    1    2    0  502 +1.8285063621e+02 +9.6313404959e+00 +2.5749247423e+02 3.6022006075e+02 1.7300000000e+02 0.0000e+00 -1.0000e+00
<mgrwt>
<rscale>  2 0.25190498E+03</rscale>
<asrwt>0</asrwt>
<pdfrwt beam="1">  1       21 0.53550496E-01 0.25190498E+03</pdfrwt>
<pdfrwt beam="2">  1       21 0.70127980E-01 0.25190498E+03</pdfrwt>
<totfact> 0.58491779E+03</totfact>
</mgrwt>
</event>
<event>
 4      2 +5.6305390e+02 2.89445900e+02 7.54677100e-03 1.09063900e-01
        1 -1    0    0  502    0 +0.0000000000e+00 +0.0000000000e+00 +1.9789964989e+02 1.9789964989e+02 0.0000000000e+00 0.0000e+00 -1.0000e+00
       -1 -1    0    0    0  501 -0.0000000000e+00 -0.0000000000e+00 -4.2352626375e+02 4.2352626375e+02 0.0000000000e+00 0.0000e+00 1.0000e+00
        6  1    1    2  502    0 -7.5863532070e+01 -2.1930488099e+02 -1.1932328069e+02 3.1307659069e+02 1.7300000000e+02 0.0000e+00 -1.0000e+00
       -6  1    1    2    0  501 +7.5863532070e+01 +2.1930488099e+02 -1.0630333317e+02 3.0834932295e+02 1.7300000000e+02 0.0000e+00 1.0000e+00
<mgrwt>
<rscale>  2 0.28944586E+03</rscale>
<asrwt>0</asrwt>
<pdfrwt beam="1">  1        1 0.30446100E-01 0.28944586E+03</pdfrwt>
<pdfrwt beam="2">  1       -1 0.65157887E-01 0.28944586E+03</pdfrwt>
<totfact> 0.36913823E+02</totfact>
</mgrwt>
</event>
<event>
 4      2 +5.6305390e+02 2.28195400e+02 7.54677100e-03 1.12791600e-01
       21 -1    0    0  501  502 +0.0000000000e+00 +0.0000000000e+00 +2.5802672922e+01 2.5802672922e+01 0.0000000000e+00 0.0000e+00 -1.0000e+00
       21 -1    0    0  502  503 -0.0000000000e+00 -0.0000000000e+00 -2.0262667419e+03 2.0262667419e+03 0.0000000000e+00 0.0000e+00 1.0000e+00
        6  1    1    2  501    0 -1.4345212919e+02 -3.9568281770e+01 -9.3521539091e+02 9.6265309935e+02 1.7300000000e+02 0.0000e+00 1.0000e+00
       -6  1    1    2    0  503 +1.4345212919e+02 +3.9568281770e+01 -1.0652486781e+03 1.0894163155e+03 1.7300000000e+02 0.0000e+00 -1.0000e+00
<mgrwt>
<rscale>  2 0.22819545E+03</rscale>
<asrwt>0</asrwt>
<pdfrwt beam="1">  1       21 0.39696425E-02 0.22819545E+03</pdfrwt>
<pdfrwt beam="2">  1       21 0.31173330E+00 0.22819545E+03</pdfrwt>
<totfact> 0.11181959E+04</totfact>
</mgrwt>
</event>
<event>
 4      2 +5.6305390e+02 1.93658800e+02 7.54677100e-03 1.15520200e-01
       21 -1    0    0  501  502 +0.0000000000e+00 +0.0000000000e+00 +9.2876333098e+01 9.2876333098e+01 0.0000000000e+00 0.0000e+00 1.0000e+00
       21 -1    0    0  502  503 -0.0000000000e+00 -0.0000000000e+00 -4.2310599898e+02 4.2310599898e+02 0.0000000000e+00 0.0000e+00 1.0000e+00
        6  1    1    2  501    0 -4.6258469777e+01 +7.3721674367e+01 -1.1000946252e+02 2.2272362502e+02 1.7300000000e+02 0.0000e+00 1.0000e+00
       -6  1    1    2    0  503 +4.6258469777e+01 -7.3721674367e+01 -2.2022020336e+02 2.9325870706e+02 1.7300000000e+02 0.0000e+00 1.0000e+00
<mgrwt>
<rscale>  2 0.19365880E+03</rscale>
<asrwt>0</asrwt>
<pdfrwt beam="1">  1       21 0.14288667E-01 0.19365880E+03</pdfrwt>
<pdfrwt beam="2">  1       21 0.65093230E-01 0.19365880E+03</pdfrwt>
<totfact> 0.93066229E+04</totfact>
</mgrwt>
</event>
<event>
 4      2 +5.6305390e+02 2.89961300e+02 7.54677100e-03 1.09036900e-01
       21 -1    0    0  501  502 +0.0000000000e+00 +0.0000000000e+00 +9.0557250887e+02 9.0557250887e+02 0.0000000000e+00 0.0000e+00 -1.0000e+00
       21 -1    0    0  502  503 -0.0000000000e+00 -0.0000000000e+00 -9.3389338821e+01 9.3389338821e+01 0.0000000000e+00 0.0000e+00 1.0000e+00
        6  1    1    2  501    0 -2.0096308305e+02 -1.1731332810e+02 +3.6794656435e+02 4.6846798388e+02 1.7300000000e+02 0.0000e+00 1.0000e+00
       -6  1    1    2    0  503 +2.0096308305e+02 +1.1731332810e+02 +4.4423660570e+02 5.3049386382e+02 1.7300000000e+02 0.0000e+00 -1.0000e+00
<mgrwt>
<rscale>  2 0.28996134E+03</rscale>
<asrwt>0</asrwt>
<pdfrwt beam="1">  1       21 0.13931884E+00 0.28996134E+03</pdfrwt>
<pdfrwt beam="2">  1       21 0.14367591E-01 0.28996134E+03</pdfrwt>
<totfact> 0.14525692E+04</totfact>
</mgrwt>
</event>
<event>
 4      2 +5.6305390e+02 3.36089300e+02 7.54677100e-03 1.06847400e-01
       21 -1    0    0  501  502 +0.0000000000e+00 +0.0000000000e+00 +2.6159116888e+03 2.6159116888e+03 0.0000000000e+00 0.0000e+00 -1.0000e+00
       21 -1    0    0  502  503 -0.0000000000e+00 -0.0000000000e+00 -7.0210764442e+01 7.0210764442e+01 0.0000000000e+00 0.0000e+00 1.0000e+00
        6  1    1    2  501    0 -7.0621839249e+01 +2.7935565258e+02 +2.1061865364e+03 2.1328332684e+03 1.7300000000e+02 0.0000e+00 -1.0000e+00
       -6  1    1    2    0  503 +7.0621839249e+01 -2.7935565258e+02 +4.3951438796e+02 5.5328918482e+02 1.7300000000e+02 0.0000e+00 1.0000e+00
<mgrwt>
<rscale>  2 0.33608931E+03</rscale>
<asrwt>0</asrwt>
<pdfrwt beam="1">  1       21 0.40244788E+00 0.33608931E+03</pdfrwt>
<pdfrwt beam="2">  1       21 0.10801658E-01 0.33608931E+03</pdfrwt>
<totfact> 0.50185635E+02</totfact>
</mgrwt>
</event>
<event>
 4      2 +5.6305390e+02 1.76344600e+02 7.54677100e-03 1.17138800e-01
       21 -1    0    0  501  502 +0.0000000000e+00 +0.0000000000e+00 +3.6944528419e+02 3.6944528419e+02 0.0000000000e+00 0.0000e+00 -1.0000e+00
       21 -1    0    0  502  503 -0.0000000000e+00 -0.0000000000e+00 -8.4584556090e+01 8.4584556090e+01 0.0000000000e+00 0.0000e+00 1.0000e+00
        6  1    1    2  501    0 -1.5635657570e+01 -3.0396338877e+01 +1.5826069864e+02 2.3694695596e+02 1.7300000000e+02 0.0000e+00 -1.0000e+00
       -6  1    1    2    0  503 +1.5635657570e+01 +3.0396338877e+01 +1.2660002946e+02 2.1708288432e+02 1.7300000000e+02 0.0000e+00 -1.0000e+00
<mgrwt>
<rscale>  2 0.17634458E+03</rscale>
<asrwt>0</asrwt>
<pdfrwt beam="1">  1       21 0.56837735E-01 0.17634458E+03</pdfrwt>
<pdfrwt beam="2">  1       21 0.13013009E-01 0.17634458E+03</pdfrwt>
<totfact> 0.14840938E+05</totfact>
</mgrwt>
</event>
<event>
 4      2 +5.6305390e+02 1.76709800e+02 7.54677100e-03 1.17102600e-01
       21 -1    0    0  501  502 +0.0000000000e+00 +0.0000000000e+00 +3.6498746170e+02 3.6498746170e+02 0.0000000000e+00 0.0000e+00 -1.0000e+00
       21 -1    0    0  502  503 -0.0000000000e+00 -0.0000000000e+00 -3.1001439552e+02 3.1001439552e+02 0.0000000000e+00 0.0000e+00 -1.0000e+00
        6  1    1    2  501    0 -1.2318253258e+01 -3.3846839377e+01 +3.1466597384e+02 3.6088921152e+02 1.7300000000e+02 0.0000e+00 -1.0000e+00
       -6  1    1    2    0  503 +1.2318253258e+01 +3.3846839377e+01 -2.5969290766e+02 3.1411264570e+02 1.7300000000e+02 0.0000e+00 -1.0000e+00
<mgrwt>
<rscale>  2 0.17670978E+03</rscale>
<asrwt>0</asrwt>
<pdfrwt beam="1">  1       21 0.56151917E-01 0.17670978E+03</pdfrwt>
<pdfrwt beam="2">  1       21 0.47694523E-01 0.17670978E+03</pdfrwt>
<totfact> 0.12680659E+04</totfact>
</mgrwt>
</event>
<event>
 4      2 +5.6305390e+02 2.01686700e+02 7.54677100e-03 1.14832400e-01
       21 -1    0    0  503  502 +0.0000000000e+00 +0.0000000000e+00 +1.0324841177e+02 1.0324841177e+02 0.0000000000e+00 0.0000e+00 -1.0000e+00
       21 -1    0    0  501  503 -0.0000000000e+00 -0.0000000000e+00 -5.7497526866e+02 5.7497526866e+02 0.0000000000e+00 0.0000e+00 -1.0000e+00
        6  1    1    2  501    0 -3.7072278639e+01 +9.6820345132e+01 -4.2612680144e+02 4.7144626839e+02 1.7300000000e+02 0.0000e+00 -1.0000e+00
       -6  1    1    2    0  502 +3.7072278639e+01 -9.6820345132e+01 -4.5600055448e+01 2.0677741204e+02 1.7300000000e+02 0.0000e+00 -1.0000e+00
<mgrwt>
<rscale>  2 0.20168672E+03</rscale>
<asrwt>0</asrwt>
<pdfrwt beam="1">  1       21 0.15884371E-01 0.20168672E+03</pdfrwt>
<pdfrwt beam="2">  1       21 0.88457735E-01 0.20168672E+03</pdfrwt>
<totfact> 0.38446958E+04</totfact>
</mgrwt>
</event>
<event>
 4      3 +5.6305390e+02 9.79650200e+01 7.54677100e-03 1.28463400e-01
       -2 -1    0    0    0  501 -0.0000000000e+00 +0.0000000000e+00 +1.3601142797e+01 1.3601142797e+01 0.0000000000e+00 0.0000e+00 1.0000e+00
        2 -1    0    0  501    0 +0.0000000000e+00 -0.0000000000e+00 -7.3392443320e+02 7.3392443320e+02 0.0000000000e+00 0.0000e+00 -1.0000e+00
       24  1    1    2    0    0 +5.4205306944e+01 +1.3846107691e+01 -4.3357071936e+02 4.4450052266e+02 8.0419002446e+01 0.0000e+00 0.0000e+00
      -24  1    1    2    0    0 -5.4205306944e+01 -1.3846107691e+01 -2.8675257104e+02 3.0302505334e+02 8.0419002446e+01 0.0000e+00 1.0000e+00
<mgrwt>
<rscale>  0 0.97965024E+02</rscale>
<asrwt>0</asrwt>
<pdfrwt beam="1">  1        2 0.11291144E+00 0.97965024E+02</pdfrwt>
<pdfrwt beam="2">  1       -2 0.20924836E-02 0.97965024E+02</pdfrwt>
<totfact> 0.26166940E+04</totfact>
</mgrwt>
</event>
<event>
 4      2 +5.6305390e+02 2.01888100e+02 7.54677100e-03 1.14815600e-01
       21 -1    0    0  501  502 +0.0000000000e+00 +0.0000000000e+00 +7.6636658537e+02 7.6636658537e+02 0.0000000000e+00 0.0000e+00 1.0000e+00
       21 -1    0    0  502  503 -0.0000000000e+00 -0.0000000000e+00 -6.6243550292e+01 6.6243550292e+01 0.0000000000e+00 0.0000e+00 -1.0000e+00
        6  1    1    2  501    0 -1.0320572788e+02 -1.3356180775e+01 +5.3490153244e+02 5.7173285653e+02 1.7300000000e+02 0.0000e+00 1.0000e+00
       -6  1    1    2    0  503 +1.0320572788e+02 +1.3356180775e+01 +1.6522150264e+02 2.6087727913e+02 1.7300000000e+02 0.0000e+00 1.0000e+00
<mgrwt>
<rscale>  2 0.20188811E+03</rscale>
<asrwt>0</asrwt>
<pdfrwt beam="1">  1       21 0.11790255E+00 0.20188811E+03</pdfrwt>
<pdfrwt beam="2">  1       21 0.10191316E-01 0.20188811E+03</pdfrwt>
<totfact> 0.43068082E+04</totfact>
</mgrwt>
</event>
<event>
 4      2 +5.6305390e+02 2.14967900e+02 7.54677100e-03 1.13769100e-01
       21 -1    0    0  503  502 +0.0000000000e+00 +0.0000000000e+00 +1.6366571751e+02 1.6366571751e+02 0.0000000000e+00 0.0000e+00 1.0000e+00
       21 -1    0    0  501  503 -0.0000000000e+00 -0.0000000000e+00 -2.9934982709e+02 2.9934982709e+02 0.0000000000e+00 0.0000e+00 -1.0000e+00
        6  1    1    2  501    0 +2.1334479157e+01 -1.2580555104e+02 -1.2674444823e+01 2.1534121348e+02 1.7300000000e+02 0.0000e+00 1.0000e+00
       -6  1    1    2    0  502 -2.1334479157e+01 +1.2580555104e+02 -1.2300966475e+02 2.4767433112e+02 1.7300000000e+02 0.0000e+00 1.0000e+00
<mgrwt>
<rscale>  2 0.21496790E+03</rscale>
<asrwt>0</asrwt>
<pdfrwt beam="1">  1       21 0.25179341E-01 0.21496790E+03</pdfrwt>
<pdfrwt beam="2">  1       21 0.46053819E-01 0.21496790E+03</pdfrwt>
<totfact> 0.66843425E+04</totfact>
</mgrwt>
</event>
<event>
 4      3 +5.6305390e+02 2.41424300e+02 7.54677100e-03 1.11884800e-01
       -1 -1    0    0    0  501 -0.0000000000e+00 +0.0000000000e+00 +1.2959587627e+02 1.2959587627e+02 0.0000000000e+00 0.0000e+00 1.0000e+00
        1 -1    0    0  501    0 +0.0000000000e+00 -0.0000000000e+00 -4.5626347849e+02 4.5626347849e+02 0.0000000000e+00 0.0000e+00 -1.0000e+00
       24  1    1    2    0    0 +9.3559600111e+01 +2.0752123438e+02 -1.2833287961e+02 2.7341361604e+02 8.0419002446e+01 0.0000e+00 -1.0000e+00
      -24  1    1    2    0    0 -9.3559600111e+01 -2.0752123438e+02 -1.9833472262e+02 3.1244573872e+02 8.0419002446e+01 0.0000e+00 1.0000e+00
<mgrwt>
<rscale>  0 0.24142427E+03</rscale>
<asrwt>0</asrwt>
<pdfrwt beam="1">  1        1 0.70194382E-01 0.24142427E+03</pdfrwt>
<pdfrwt beam="2">  1       -1 0.19937827E-01 0.24142427E+03</pdfrwt>
<totfact> 0.10347794E+03</totfact>
</mgrwt>
</event>
<event>
 4      2 +5.6305390e+02 2.76375300e+02 7.54677100e-03 1.09768500e-01
       21 -1    0    0  503  502 +0.0000000000e+00 +0.0000000000e+00 +5.1720723471e+02 5.1720723471e+02 0.0000000000e+00 0.0000e+00 1.0000e+00
       21 -1    0    0  501  503 -0.0000000000e+00 -0.0000000000e+00 -1.7989037159e+02 1.7989037159e+02 0.0000000000e+00 0.0000e+00 -1.0000e+00
        6  1    1    2  501    0 -4.2387501266e+01 -2.1132350255e+02 +3.1613715378e+02 4.1991192290e+02 1.7300000000e+02 0.0000e+00 1.0000e+00
       -6  1    1    2    0  502 +4.2387501266e+01 +2.1132350255e+02 +2.1179709332e+01 2.7718568340e+02 1.7300000000e+02 0.0000e+00 -1.0000e+00
<mgrwt>
<rscale>  2 0.27637533E+03</rscale>
<asrwt>0</asrwt>
<pdfrwt beam="1">  1       21 0.79570343E-01 0.27637533E+03</pdfrwt>
<pdfrwt beam="2">  1       21 0.27675442E-01 0.27637533E+03</pdfrwt>
<totfact> 0.16578281E+04</totfact>
</mgrwt>
</event>
<event>
 4      2 +5.6305390e+02 1.85010700e+02 7.54677100e-03 1.16304000e-01
       21 -1    0    0  503  502 +0.0000000000e+00 +0.0000000000e+00 +1.6705281905e+02 1.6705281905e+02 0.0000000000e+00 0.0000e+00 -1.0000e+00
       21 -1    0    0  501  503 -0.0000000000e+00 -0.0000000000e+00 -3.3247729551e+02 3.3247729551e+02 0.0000000000e+00 0.0000e+00 -1.0000e+00
        6  1    1    2  501    0 +6.4943861736e+01 +9.0687218236e+00 -2.3742964197e+02 3.0100129863e+02 1.7300000000e+02 0.0000e+00 -1.0000e+00
       -6  1    1    2    0  502 -6.4943861736e+01 -9.0687218236e+00 +7.2005165507e+01 1.9852881592e+02 1.7300000000e+02 0.0000e+00 -1.0000e+00
<mgrwt>
<rscale>  2 0.18501067E+03</rscale>
<asrwt>0</asrwt>
<pdfrwt beam="1">  1       21 0.25700434E-01 0.18501067E+03</pdfrwt>
<pdfrwt beam="2">  1       21 0.51150352E-01 0.18501067E+03</pdfrwt>
<totfact> 0.52390356E+04</totfact>
</mgrwt>
</event>
<event>
 4      3 +5.6305390e+02 9.24365900e+01 7.54677100e-03 1.29705600e-01
        2 -1    0    0  501    0 +0.0000000000e+00 +0.0000000000e+00 +2.1060797100e+01 2.1060797100e+01 0.0000000000e+00 0.0000e+00 -1.0000e+00
       -2 -1    0    0    0  501 -0.0000000000e+00 -0.0000000000e+00 -6.4275102349e+02 6.4275102349e+02 0.0000000000e+00 0.0000e+00 1.0000e+00
       24  1    1    2    0    0 -4.2463400773e+01 -1.6557966488e+01 -1.0928356934e+02 1.4313427661e+02 8.0419002446e+01 0.0000e+00 0.0000e+00
      -24  1    1    2    0    0 +4.2463400773e+01 +1.6557966488e+01 -5.1240665704e+02 5.2067754397e+02 8.0419002446e+01 0.0000e+00 -1.0000e+00
<mgrwt>
<rscale>  0 0.92436587E+02</rscale>
<asrwt>0</asrwt>
<pdfrwt beam="1">  1        2 0.32401228E-02 0.92436587E+02</pdfrwt>
<pdfrwt beam="2">  1       -2 0.98884769E-01 0.92436587E+02</pdfrwt>
<totfact> 0.23063791E+03</totfact>
</mgrwt>
</event>
<event>
 4      2 +5.6305390e+02 1.78116500e+02 7.54677100e-03 1.16963800e-01
       21 -1    0    0  501  502 +0.0000000000e+00 +0.0000000000e+00 +3.0677785718e+02 3.0677785718e+02 0.0000000000e+00 0.0000e+00 -1.0000e+00
       21 -1    0    0  502  503 -0.0000000000e+00 -0.0000000000e+00 -1.1646374257e+02 1.1646374257e+02 0.0000000000e+00 0.0000e+00 1.0000e+00
        6  1    1    2  501    0 +4.0285215684e+01 -1.3175417587e+01 +1.6599144741e+02 2.4347207406e+02 1.7300000000e+02 0.0000e+00 -1.0000e+00
       -6  1    1    2    0  503 -4.0285215684e+01 +1.3175417587e+01 +2.4322667197e+01 1.7976952570e+02 1.7300000000e+02 0.0000e+00 1.0000e+00
<mgrwt>
<rscale>  2 0.17811651E+03</rscale>
<asrwt>0</asrwt>
<pdfrwt beam="1">  1       21 0.47196593E-01 0.17811651E+03</pdfrwt>
<pdfrwt beam="2">  1       21 0.17917499E-01 0.17811651E+03</pdfrwt>
<totfact> 0.12225002E+05</totfact>
</mgrwt>
</event>
<event>
 4      3 +5.6305390e+02 9.98500500e+01 7.54677100e-03 1.28061200e-01
       -2 -1    0    0    0  501 -0.0000000000e+00 +0.0000000000e+00 +7.6014141485e+01 7.6014141485e+01 0.0000000000e+00 0.0000e+00 1.0000e+00
        2 -1    0    0  501    0 +0.0000000000e+00 -0.0000000000e+00 -1.4032713283e+02 1.4032713283e+02 0.0000000000e+00 0.0000e+00 -1.0000e+00
       24  1    1    2    0    0 +5.9121178991e+01 -2.7380588738e+00 -4.5092668640e+00 9.9951789447e+01 8.0419002446e+01 0.0000e+00 1.0000e+00
      -24  1    1    2    0    0 -5.9121178991e+01 +2.7380588738e+00 -5.9803724482e+01 1.1638948487e+02 8.0419002446e+01 0.0000e+00 -1.0000e+00
<mgrwt>
<rscale>  0 0.99850034E+02</rscale>
<asrwt>0</asrwt>
<pdfrwt beam="1">  1        2 0.21588790E-01 0.99850046E+02</pdfrwt>
<pdfrwt beam="2">  1       -2 0.11694483E-01 0.99850046E+02</pdfrwt>
<totfact> 0.11952304E+04</totfact>
</mgrwt>
</event>
<event>
 4      2 +5.6305390e+02 1.74435600e+02 7.54677100e-03 1.17330000e-01
       21 -1    0    0  501  502 +0.0000000000e+00 +0.0000000000e+00 +2.0055136084e+03 2.0055136084e+03 0.0000000000e+00 0.0000e+00 -1.0000e+00
       21 -1    0    0  502  503 -0.0000000000e+00 -0.0000000000e+00 -1.5752027897e+01 1.5752027897e+01 0.0000000000e+00 0.0000e+00 -1.0000e+00
        6  1    1    2  501    0 +5.4364733763e-01 -2.2326632551e+01 +8.0095887129e+02 8.1973342470e+02 1.7300000000e+02 0.0000e+00 1.0000e+00
       -6  1    1    2    0  503 -5.4364733763e-01 +2.2326632551e+01 +1.1888027092e+03 1.2015322116e+03 1.7300000000e+02 0.0000e+00 1.0000e+00
<mgrwt>
<rscale>  2 0.17443559E+03</rscale>
<asrwt>0</asrwt>
<pdfrwt beam="1">  1       21 0.30854035E+00 0.17443559E+03</pdfrwt>
<pdfrwt beam="2">  1       21 0.24233905E-02 0.17443559E+03</pdfrwt>
<totfact> 0.27929426E+04</totfact>
</mgrwt>
</event>
<event>
 4      2 +5.6305390e+02 1.87624200e+02 7.54677100e-03 1.16062200e-01
        1 -1    0    0  502    0 +0.0000000000e+00 +0.0000000000e+00 +8.7844119784e+01 8.7844119784e+01 0.0000000000e+00 0.0000e+00 -1.0000e+00
       -1 -1    0    0    0  501 -0.0000000000e+00 -0.0000000000e+00 -4.0339255842e+02 4.0339255842e+02 0.0000000000e+00 0.0000e+00 1.0000e+00
        6  1    1    2  502    0 -1.0309054670e+01 +7.1885804175e+01 -1.7768322169e+02 2.5840699046e+02 1.7300000000e+02 0.0000e+00 -1.0000e+00
       -6  1    1    2    0  501 +1.0309054670e+01 -7.1885804175e+01 -1.3786521695e+02 2.3282968774e+02 1.7300000000e+02 0.0000e+00 1.0000e+00
<mgrwt>
<rscale>  2 0.18762421E+03</rscale>
<asrwt>0</asrwt>
<pdfrwt beam="1">  1        1 0.13514480E-01 0.18762421E+03</pdfrwt>
<pdfrwt beam="2">  1       -1 0.62060393E-01 0.18762421E+03</pdfrwt>
<totfact> 0.11555855E+03</totfact>
</mgrwt>
</event>
<event>
 4      2 +5.6305390e+02 2.66447000e+02 7.54677100e-03 1.10333000e-01
       21 -1    0    0  501  502 +0.0000000000e+00 +0.0000000000e+00 +1.0379441141e+02 1.0379441141e+02 0.0000000000e+00 0.0000e+00 -1.0000e+00
       21 -1    0    0  502  503 -0.0000000000e+00 -0.0000000000e+00 -8.5504934626e+02 8.5504934626e+02 0.0000000000e+00 0.0000e+00 1.0000e+00
        6  1    1    2  501    0 -4.8843255428e-01 -2.0264436610e+02 -1.6119028683e+02 3.1141015758e+02 1.7300000000e+02 0.0000e+00 -1.0000e+00
       -6  1    1    2    0  503 +4.8843255428e-01 +2.0264436610e+02 -5.9006464802e+02 6.4743360009e+02 1.7300000000e+02 0.0000e+00 1.0000e+00
<mgrwt>
<rscale>  2 0.26644695E+03</rscale>
<asrwt>0</asrwt>
<pdfrwt beam="1">  1       21 0.15968372E-01 0.26644695E+03</pdfrwt>
<pdfrwt beam="2">  1       21 0.13154605E+00 0.26644695E+03</pdfrwt>
<totfact> 0.14039416E+04</totfact>
</mgrwt>
</event>
<event>
 4      2 +5.6305390e+02 2.09889900e+02 7.54677100e-03 1.14165300e-01
       21 -1    0    0  501  502 +0.0000000000e+00 +0.0000000000e+00 +3.8534839410e+02 3.8534839410e+02 0.0000000000e+00 0.0000e+00 1.0000e+00
       21 -1    0    0  502  503 -0.0000000000e+00 -0.0000000000e+00 -1.1480555478e+03 1.1480555478e+03 0.0000000000e+00 0.0000e+00 -1.0000e+00
        6  1    1    2  501    0 +8.9535912052e+01 -7.8154344465e+01 +3.4617397354e+02 4.0483354735e+02 1.7300000000e+02 0.0000e+00 1.0000e+00
       -6  1    1    2    0  503 -8.9535912052e+01 +7.8154344465e+01 -1.1088811272e+03 1.1285703945e+03 1.7300000000e+02 0.0000e+00 -1.0000e+00
<mgrwt>
<rscale>  2 0.20988993E+03</rscale>
<asrwt>0</asrwt>
<pdfrwt beam="1">  1       21 0.59284370E-01 0.20988993E+03</pdfrwt>
<pdfrwt beam="2">  1       21 0.17662392E+00 0.20988993E+03</pdfrwt>
<totfact> 0.50026755E+02</totfact>
</mgrwt>
</event>
<event>
 4      2 +5.6305390e+02 1.90437800e+02 7.54677100e-03 1.15806700e-01
       21 -1    0    0  503  502 +0.0000000000e+00 +0.0000000000e+00 +2.4035545927e+02 2.4035545927e+02 0.0000000000e+00 0.0000e+00 -1.0000e+00
       21 -1    0    0  501  503 -0.0000000000e+00 -0.0000000000e+00 -1.8436222470e+02 1.8436222470e+02 0.0000000000e+00 0.0000e+00 -1.0000e+00
        6  1    1    2  501    0 +7.2782265941e+01 +3.2253893152e+01 +1.1848536380e+02 2.2428854918e+02 1.7300000000e+02 0.0000e+00 -1.0000e+00
       -6  1    1    2    0  502 -7.2782265941e+01 -3.2253893152e+01 -6.2492129222e+01 2.0042913479e+02 1.7300000000e+02 0.0000e+00 -1.0000e+00
<mgrwt>
<rscale>  2 0.19043784E+03</rscale>
<asrwt>0</asrwt>
<pdfrwt beam="1">  1       21 0.36977763E-01 0.19043784E+03</pdfrwt>
<pdfrwt beam="2">  1       21 0.28363419E-01 0.19043784E+03</pdfrwt>
<totfact> 0.83893035E+04</totfact>
</mgrwt>
</event>
<event>
 4      2 +5.6305390e+02 1.73940500e+02 7.54677100e-03 1.17380000e-01
       21 -1    0    0  501  502 +0.0000000000e+00 +0.0000000000e+00 +3.7141613053e+02 3.7141613053e+02 0.0000000000e+00 0.0000e+00 1.0000e+00
       21 -1    0    0  502  503 -0.0000000000e+00 -0.0000000000e+00 -8.9061794329e+01 8.9061794329e+01 0.0000000000e+00 0.0000e+00 1.0000e+00
        6  1    1    2  501    0 +1.1504743686e+01 +1.3926299128e+01 +7.3908794737e+01 1.8899156297e+02 1.7300000000e+02 0.0000e+00 1.0000e+00
       -6  1    1    2    0  503 -1.1504743686e+01 -1.3926299128e+01 +2.0844554146e+02 2.7148636188e+02 1.7300000000e+02 0.0000e+00 1.0000e+00
<mgrwt>
<rscale>  2 0.17394051E+03</rscale>
<asrwt>0</asrwt>
<pdfrwt beam="1">  1       21 0.57140942E-01 0.17394051E+03</pdfrwt>
<pdfrwt beam="2">  1       21 0.13701815E-01 0.17394051E+03</pdfrwt>
<totfact> 0.13384428E+05</totfact>
</mgrwt>
</event>
<event>
 4      2 +5.6305390e+02 1.84418500e+02 7.54677100e-03 1.16359400e-01
       21 -1    0    0  501  502 +0.0000000000e+00 +0.0000000000e+00 +1.7716372165e+02 1.7716372165e+02 0.0000000000e+00 0.0000e+00 -1.0000e+00
       21 -1    0    0  502  503 -0.0000000000e+00 -0.0000000000e+00 -1.9249665574e+02 1.9249665574e+02 0.0000000000e+00 0.0000e+00 -1.0000e+00
        6  1    1    2  501    0 -5.9270256008e+01 -2.3837542660e+01 +1.9975345978e+00 1.8442934103e+02 1.7300000000e+02 0.0000e+00 -1.0000e+00
       -6  1    1    2    0  503 +5.9270256008e+01 +2.3837542660e+01 -1.7330468686e+01 1.8523103636e+02 1.7300000000e+02 0.0000e+00 -1.0000e+00
<mgrwt>
<rscale>  2 0.18441852E+03</rscale>
<asrwt>0</asrwt>
<pdfrwt beam="1">  1       21 0.27255957E-01 0.18441852E+03</pdfrwt>
<pdfrwt beam="2">  1       21 0.29614870E-01 0.18441852E+03</pdfrwt>
<totfact> 0.14062495E+05</totfact>
</mgrwt>
</event>
<event>
 4      2 +5.6305390e+02 1.76704100e+02 7.54677100e-03 1.17103100e-01
       21 -1    0    0  501  502 +0.0000000000e+00 +0.0000000000e+00 +3.4806407481e+02 3.4806407481e+02 0.0000000000e+00 0.0000e+00 1.0000e+00
       21 -1    0    0  502  503 -0.0000000000e+00 -0.0000000000e+00 -9.1683027253e+01 9.1683027253e+01 0.0000000000e+00 0.0000e+00 1.0000e+00
        6  1    1    2  501    0 +1.0223818392e+01 -3.4508211084e+01 +1.6045676534e+02 2.3868539259e+02 1.7300000000e+02 0.0000e+00 -1.0000e+00
       -6  1    1    2    0  503 -1.0223818392e+01 +3.4508211084e+01 +9.5924282214e+01 2.0106170947e+02 1.7300000000e+02 0.0000e+00 -1.0000e+00
<mgrwt>
<rscale>  2 0.17670411E+03</rscale>
<asrwt>0</asrwt>
<pdfrwt beam="1">  1       21 0.53548319E-01 0.17670411E+03</pdfrwt>
<pdfrwt beam="2">  1       21 0.14105081E-01 0.17670411E+03</pdfrwt>
<totfact> 0.14554553E+05</totfact>
</mgrwt>
</event>
<event>
 4      2 +5.6305390e+02 1.88088300e+02 7.54677100e-03 1.16019700e-01
       21 -1    0    0  503  502 +0.0000000000e+00 +0.0000000000e+00 +1.3722857716e+02 1.3722857716e+02 0.0000000000e+00 0.0000e+00 1.0000e+00
       21 -1    0    0  501  503 -0.0000000000e+00 -0.0000000000e+00 -2.8812856511e+02 2.8812856511e+02 0.0000000000e+00 0.0000e+00 1.0000e+00
        6  1    1    2  501    0 -7.3478837104e+01 -7.0040171073e+00 -1.4445391971e+02 2.3715845057e+02 1.7300000000e+02 0.0000e+00 -1.0000e+00
       -6  1    1    2    0  502 +7.3478837104e+01 +7.0040171073e+00 -6.4460682338e+00 1.8819869169e+02 1.7300000000e+02 0.0000e+00 -1.0000e+00
<mgrwt>
<rscale>  2 0.18808827E+03</rscale>
<asrwt>0</asrwt>
<pdfrwt beam="1">  1       21 0.21112089E-01 0.18808827E+03</pdfrwt>
<pdfrwt beam="2">  1       21 0.44327471E-01 0.18808827E+03</pdfrwt>
<totfact> 0.10211714E+05</totfact>
</mgrwt>
</event>
<event>
 4      2 +5.6305390e+02 1.85219200e+02 7.54677100e-03 1.16284500e-01
        2 -1    0    0  502    0 +0.0000000000e+00 +0.0000000000e+00 +6.7907635256e+01 6.7907635256e+01 0.0000000000e+00 0.0000e+00 -1.0000e+00
       -2 -1    0    0    0  501 -0.0000000000e+00 -0.0000000000e+00 -5.1399361831e+02 5.1399361831e+02 0.0000000000e+00 0.0000e+00 1.0000e+00
        6  1    1    2  502    0 +2.4002492903e+01 -6.1652578443e+01 -1.8496213680e+02 2.6175781200e+02 1.7300000000e+02 0.0000e+00 -1.0000e+00
       -6  1    1    2    0  501 -2.4002492903e+01 +6.1652578443e+01 -2.6112384625e+02 3.2014344156e+02 1.7300000000e+02 0.0000e+00 1.0000e+00
<mgrwt>
<rscale>  2 0.18521922E+03</rscale>
<asrwt>0</asrwt>
<pdfrwt beam="1">  1        2 0.10447329E-01 0.18521922E+03</pdfrwt>
<pdfrwt beam="2">  1       -2 0.79075940E-01 0.18521922E+03</pdfrwt>
<totfact> 0.87678147E+02</totfact>
</mgrwt>
</event>
<event>
 4      2 +5.6305390e+02 2.26399800e+02 7.54677100e-03 1.12920000e-01
       21 -1    0    0  501  502 +0.0000000000e+00 +0.0000000000e+00 +2.9667985669e+02 2.9667985669e+02 0.0000000000e+00 0.0000e+00 1.0000e+00
       21 -1    0    0  502  503 -0.0000000000e+00 -0.0000000000e+00 -1.9692514628e+02 1.9692514628e+02 0.0000000000e+00 0.0000e+00 1.0000e+00
        6  1    1    2  501    0 -6.5387029079e+01 -1.3058481431e+02 +1.3631832037e+02 2.6427171958e+02 1.7300000000e+02 0.0000e+00 1.0000e+00
       -6  1    1    2    0  503 +6.5387029079e+01 +1.3058481431e+02 -3.6563609952e+01 2.2933328340e+02 1.7300000000e+02 0.0000e+00 1.0000e+00
<mgrwt>
<rscale>  2 0.22639977E+03</rscale>
<asrwt>0</asrwt>
<pdfrwt beam="1">  1       21 0.45643055E-01 0.22639977E+03</pdfrwt>
<pdfrwt beam="2">  1       21 0.30296176E-01 0.22639977E+03</pdfrwt>
<totfact> 0.47350772E+04</totfact>
</mgrwt>
</event>
<event>
 4      3 +5.6305390e+02 2.08151500e+02 7.54677100e-03 1.14303800e-01
        2 -1    0    0  501    0 +0.0000000000e+00 +0.0000000000e+00 +9.4356531100e+02 9.4356531100e+02 0.0000000000e+00 0.0000e+00 -1.0000e+00
       -2 -1    0    0    0  501 -0.0000000000e+00 -0.0000000000e+00 -4.7568443771e+01 4.7568443771e+01 0.0000000000e+00 0.0000e+00 1.0000e+00
       24  1    1    2    0    0 +5.7260418138e+01 +1.8325143289e+02 +5.4029458617e+02 5.7900371237e+02 8.0419002446e+01 0.0000e+00 1.0000e+00
      -24  1    1    2    0    0 -5.7260418138e+01 -1.8325143289e+02 +3.5570228106e+02 4.1213004240e+02 8.0419002446e+01 0.0000e+00 -1.0000e+00
<mgrwt>
<rscale>  0 0.20815153E+03</rscale>
<asrwt>0</asrwt>
<pdfrwt beam="1">  1        2 0.14516388E+00 0.20815153E+03</pdfrwt>
<pdfrwt beam="2">  1       -2 0.73182228E-02 0.20815153E+03</pdfrwt>
<totfact> 0.30761293E+03</totfact>
</mgrwt>
</event>
<event>
 4      2 +5.6305390e+02 1.93175400e+02 7.54677100e-03 1.15562800e-01
       21 -1    0    0  503  502 +0.0000000000e+00 +0.0000000000e+00 +1.7194926824e+02 1.7194926824e+02 0.0000000000e+00 0.0000e+00 -1.0000e+00
       21 -1    0    0  501  503 -0.0000000000e+00 -0.0000000000e+00 -2.3027981865e+02 2.3027981865e+02 0.0000000000e+00 0.0000e+00 1.0000e+00
        6  1    1    2  501    0 -5.4390458207e+01 +6.6553971371e+01 +1.9090975867e+01 1.9411650731e+02 1.7300000000e+02 0.0000e+00 -1.0000e+00
       -6  1    1    2    0  502 +5.4390458207e+01 -6.6553971371e+01 -7.7421526277e+01 2.0811257958e+02 1.7300000000e+02 0.0000e+00 1.0000e+00
<mgrwt>
<rscale>  2 0.19317545E+03</rscale>
<asrwt>0</asrwt>
<pdfrwt beam="1">  1       21 0.26453734E-01 0.19317545E+03</pdfrwt>
<pdfrwt beam="2">  1       21 0.35427664E-01 0.19317545E+03</pdfrwt>
<totfact> 0.10440643E+05</totfact>
</mgrwt>
</event>
<event>
 4      2 +5.6305390e+02 1.75471600e+02 7.54677100e-03 1.17225900e-01
       21 -1    0    0  503  502 +0.0000000000e+00 +0.0000000000e+00 +7.1279518765e+01 7.1279518765e+01 0.0000000000e+00 0.0000e+00 1.0000e+00
       21 -1    0    0  501  503 -0.0000000000e+00 -0.0000000000e+00 -4.5416152302e+02 4.5416152302e+02 0.0000000000e+00 0.0000e+00 1.0000e+00
        6  1    1    2  501    0 -6.7829024288e+00 +2.8552948877e+01 -2.4952123844e+02 3.0504282828e+02 1.7300000000e+02 0.0000e+00 1.0000e+00
       -6  1    1    2    0  502 +6.7829024288e+00 -2.8552948877e+01 -1.3336076581e+02 2.2039821350e+02 1.7300000000e+02 0.0000e+00 1.0000e+00
<mgrwt>
<rscale>  2 0.17547159E+03</rscale>
<asrwt>0</asrwt>
<pdfrwt beam="1">  1       21 0.10966080E-01 0.17547159E+03</pdfrwt>
<pdfrwt beam="2">  1       21 0.69871005E-01 0.17547159E+03</pdfrwt>
<totfact> 0.12899660E+05</totfact>
</mgrwt>
</event>
<event>
 4      2 +5.6305390e+02 1.76324800e+02 7.54677100e-03 1.17140800e-01
       21 -1    0    0  503  502 +0.0000000000e+00 +0.0000000000e+00 +1.7796222963e+02 1.7796222963e+02 0.0000000000e+00 0.0000e+00 1.0000e+00
       21 -1    0    0  501  503 -0.0000000000e+00 -0.0000000000e+00 -1.7513694748e+02 1.7513694748e+02 0.0000000000e+00 0.0000e+00 1.0000e+00
        6  1    1    2  501    0 -2.2134988968e+01 -2.5913008650e+01 -7.3808144565e+00 1.7647922874e+02 1.7300000000e+02 0.0000e+00 1.0000e+00
       -6  1    1    2    0  502 +2.2134988968e+01 +2.5913008650e+01 +1.0206096602e+01 1.7661994837e+02 1.7300000000e+02 0.0000e+00 1.0000e+00
<mgrwt>
<rscale>  2 0.17632482E+03</rscale>
<asrwt>0</asrwt>
<pdfrwt beam="1">  1       21 0.27378805E-01 0.17632482E+03</pdfrwt>
<pdfrwt beam="2">  1       21 0.26944146E-01 0.17632482E+03</pdfrwt>
<totfact> 0.16778499E+05</totfact>
</mgrwt>
</event>
<event>
 4      2 +5.6305390e+02 1.78567400e+02 7.54677100e-03 1.16919700e-01
        1 -1    0    0  502    0 +0.0000000000e+00 +0.0000000000e+00 +1.4367027567e+03 1.4367027567e+03 0.0000000000e+00 0.0000e+00 -1.0000e+00
       -1 -1    0    0    0  501 -0.0000000000e+00 -0.0000000000e+00 -2.6949098735e+01 2.6949098735e+01 0.0000000000e+00 0.0000e+00 1.0000e+00
        6  1    1    2  502    0 -3.0444440096e+01 +3.2100634804e+01 +3.9747164374e+02 4.3574077416e+02 1.7300000000e+02 0.0000e+00 1.0000e+00
       -6  1    1    2    0  501 +3.0444440096e+01 -3.2100634804e+01 +1.0122820142e+03 1.0279110813e+03 1.7300000000e+02 0.0000e+00 -1.0000e+00
<mgrwt>
<rscale>  2 0.17856740E+03</rscale>
<asrwt>0</asrwt>
<pdfrwt beam="1">  1        1 0.22103113E+00 0.17856740E+03</pdfrwt>
<pdfrwt beam="2">  1       -1 0.41460163E-02 0.17856740E+03</pdfrwt>
<totfact> 0.18391843E+03</totfact>
</mgrwt>
</event>
<event>
 4      2 +5.6305390e+02 2.42628400e+02 7.54677100e-03 1.11805400e-01
       21 -1    0    0  501  502 +0.0000000000e+00 +0.0000000000e+00 +4.1584269473e+02 4.1584269473e+02 0.0000000000e+00 0.0000e+00 1.0000e+00
       21 -1    0    0  502  503 -0.0000000000e+00 -0.0000000000e+00 -2.8813878210e+02 2.8813878210e+02 0.0000000000e+00 0.0000e+00 1.0000e+00
        6  1    1    2  501    0 +7.1088264882e+01 +1.5455089910e+02 +3.1490148683e+02 3.9753171977e+02 1.7300000000e+02 0.0000e+00 1.0000e+00
       -6  1    1    2    0  503 -7.1088264882e+01 -1.5455089910e+02 -1.8719757419e+02 3.0644975706e+02 1.7300000000e+02 0.0000e+00 1.0000e+00
<mgrwt>
<rscale>  2 0.24262836E+03</rscale>
<asrwt>0</asrwt>
<pdfrwt beam="1">  1       21 0.63975799E-01 0.24262836E+03</pdfrwt>
<pdfrwt beam="2">  1       21 0.44329043E-01 0.24262836E+03</pdfrwt>
<totfact> 0.10685390E+04</totfact>
</mgrwt>
</event>
<event>
 4      2 +5.6305390e+02 1.84894100e+02 7.54677100e-03 1.16314900e-01
       -2 -1    0    0    0  501 -0.0000000000e+00 +0.0000000000e+00 +1.7369891532e+01 1.7369891532e+01 0.0000000000e+00 0.0000e+00 1.0000e+00
        2 -1    0    0  502    0 +0.0000000000e+00 -0.0000000000e+00 -3.0689760493e+03 3.0689760493e+03 0.0000000000e+00 0.0000e+00 -1.0000e+00
        6  1    1    2  502    0 +6.4249815504e+01 -1.1349130501e+01 -6.0156198302e+02 6.2933509434e+02 1.7300000000e+02 0.0000e+00 1.0000e+00
       -6  1    1    2    0  501 -6.4249815504e+01 +1.1349130501e+01 -2.4500441748e+03 2.4570108465e+03 1.7300000000e+02 0.0000e+00 -1.0000e+00
<mgrwt>
<rscale>  2 0.18489414E+03</rscale>
<asrwt>0</asrwt>
<pdfrwt beam="1">  1        2 0.47214993E+00 0.18489414E+03</pdfrwt>
<pdfrwt beam="2">  1       -2 0.26722923E-02 0.18489414E+03</pdfrwt>
<totfact> 0.97221947E+02</totfact>
</mgrwt>
</event>
<event>
 4      2 +5.6305390e+02 1.74238400e+02 7.54677100e-03 1.17349900e-01
       21 -1    0    0  503  502 +0.0000000000e+00 +0.0000000000e+00 +4.8445611200e+02 4.8445611200e+02 0.0000000000e+00 0.0000e+00 1.0000e+00
       21 -1    0    0  501  503 -0.0000000000e+00 -0.0000000000e+00 -7.6278821759e+01 7.6278821759e+01 0.0000000000e+00 0.0000e+00 1.0000e+00
        6  1    1    2  501    0 +1.2875229691e+01 -1.6256218558e+01 +3.2252801941e+02 3.6658335953e+02 1.7300000000e+02 0.0000e+00 1.0000e+00
       -6  1    1    2    0  502 -1.2875229691e+01 +1.6256218558e+01 +8.5649270834e+01 1.9415157423e+02 1.7300000000e+02 0.0000e+00 1.0000e+00
<mgrwt>
<rscale>  2 0.17423845E+03</rscale>
<asrwt>0</asrwt>
<pdfrwt beam="1">  1       21 0.74531708E-01 0.17423845E+03</pdfrwt>
<pdfrwt beam="2">  1       21 0.11735204E-01 0.17423845E+03</pdfrwt>
<totfact> 0.99184159E+04</totfact>
</mgrwt>
</event>
<event>
 4      3 +5.6305390e+02 8.36995200e+01 7.54677100e-03 1.31886900e-01
       -2 -1    0    0    0  501 -0.0000000000e+00 +0.0000000000e+00 +9.2376617456e+00 9.2376617456e+00 0.0000000000e+00 0.0000e+00 1.0000e+00
        2 -1    0    0  501    0 +0.0000000000e+00 -0.0000000000e+00 -1.0442619696e+03 1.0442619696e+03 0.0000000000e+00 0.0000e+00 -1.0000e+00
       24  1    1    2    0    0 +6.1508533509e+00 -2.2373200109e+01 -7.9312348162e+02 7.9752772123e+02 8.0419002446e+01 0.0000e+00 -1.0000e+00
      -24  1    1    2    0    0 -6.1508533509e+00 +2.2373200109e+01 -2.4190082622e+02 2.5597191010e+02 8.0419002446e+01 0.0000e+00 1.0000e+00
<mgrwt>
<rscale>  0 0.83699516E+02</rscale>
<asrwt>0</asrwt>
<pdfrwt beam="1">  1        2 0.16065565E+00 0.83699516E+02</pdfrwt>
<pdfrwt beam="2">  1       -2 0.14211790E-02 0.83699516E+02</pdfrwt>
<totfact> 0.28622709E+04</totfact>
</mgrwt>
</event>
<event>
 4      2 +5.6305390e+02 2.28775200e+02 7.54677100e-03 1.12750500e-01
       21 -1    0    0  503  502 +0.0000000000e+00 +0.0000000000e+00 +2.4663930426e+02 2.4663930426e+02 0.0000000000e+00 0.0000e+00 -1.0000e+00
       21 -1    0    0  501  503 -0.0000000000e+00 -0.0000000000e+00 -6.5477963653e+02 6.5477963653e+02 0.0000000000e+00 0.0000e+00 -1.0000e+00
        6  1    1    2  501    0 +1.4313736671e+02 +4.3826892996e+01 -5.7461634976e+02 6.1848367134e+02 1.7300000000e+02 0.0000e+00 -1.0000e+00
       -6  1    1    2    0  502 -1.4313736671e+02 -4.3826892996e+01 +1.6647601749e+02 2.8293526945e+02 1.7300000000e+02 0.0000e+00 -1.0000e+00
<mgrwt>
<rscale>  2 0.22877522E+03</rscale>
<asrwt>0</asrwt>
<pdfrwt beam="1">  1       21 0.37944509E-01 0.22877522E+03</pdfrwt>
<pdfrwt beam="2">  1       21 0.10073533E+00 0.22877522E+03</pdfrwt>
<totfact> 0.52605877E+03</totfact>
</mgrwt>
</event>
<event>
 4      2 +5.6305390e+02 1.82382300e+02 7.54677100e-03 1.16551700e-01
       21 -1    0    0  503  502 +0.0000000000e+00 +0.0000000000e+00 +6.8933994794e+01 6.8933994794e+01 0.0000000000e+00 0.0000e+00 -1.0000e+00
       21 -1    0    0  501  503 -0.0000000000e+00 -0.0000000000e+00 -5.1915448411e+02 5.1915448411e+02 0.0000000000e+00 0.0000e+00 -1.0000e+00
        6  1    1    2  501    0 +1.3987939968e+01 +5.6023681044e+01 -3.0320088149e+02 3.5382776860e+02 1.7300000000e+02 0.0000e+00 -1.0000e+00
       -6  1    1    2    0  502 -1.3987939968e+01 -5.6023681044e+01 -1.4701960783e+02 2.3426071029e+02 1.7300000000e+02 0.0000e+00 -1.0000e+00
<mgrwt>
<rscale>  2 0.18238233E+03</rscale>
<asrwt>0</asrwt>
<pdfrwt beam="1">  1       21 0.10605230E-01 0.18238233E+03</pdfrwt>
<pdfrwt beam="2">  1       21 0.79869917E-01 0.18238233E+03</pdfrwt>
<totfact> 0.10135500E+05</totfact>
</mgrwt>
</event>
<event>
 4      2 +5.6305390e+02 2.14013400e+02 7.54677100e-03 1.13842700e-01
       21 -1    0    0  501  502 +0.0000000000e+00 +0.0000000000e+00 +2.2086531775e+03 2.2086531775e+03 0.0000000000e+00 0.0000e+00 1.0000e+00
       21 -1    0    0  502  503 -0.0000000000e+00 -0.0000000000e+00 -3.8831257403e+01 3.8831257403e+01 0.0000000000e+00 0.0000e+00 1.0000e+00
        6  1    1    2  501    0 +4.0721781146e+01 +1.1922446418e+02 +1.8519924216e+03 1.8643169435e+03 1.7300000000e+02 0.0000e+00 1.0000e+00
       -6  1    1    2    0  503 -4.0721781146e+01 -1.1922446418e+02 +3.1782949849e+02 3.8316749136e+02 1.7300000000e+02 0.0000e+00 1.0000e+00
<mgrwt>
<rscale>  2 0.21401340E+03</rscale>
<asrwt>0</asrwt>
<pdfrwt beam="1">  1       21 0.33979270E+00 0.21401340E+03</pdfrwt>
<pdfrwt beam="2">  1       21 0.59740413E-02 0.21401340E+03</pdfrwt>
<totfact> 0.38858626E+03</totfact>
</mgrwt>
</event>
<event>
 4      2 +5.6305390e+02 2.07956900e+02 7.54677100e-03 1.14319400e-01
       21 -1    0    0  501  502 +0.0000000000e+00 +0.0000000000e+00 +1.6375280123e+02 1.6375280123e+02 0.0000000000e+00 0.0000e+00 1.0000e+00
       21 -1    0    0  502  503 -0.0000000000e+00 -0.0000000000e+00 -2.6599052811e+02 2.6599052811e+02 0.0000000000e+00 0.0000e+00 1.0000e+00
        6  1    1    2  501    0 -1.0278637483e+02 -5.2459666684e+01 -3.2972926288e+01 2.1055467069e+02 1.7300000000e+02 0.0000e+00 1.0000e+00
       -6  1    1    2    0  503 +1.0278637483e+02 +5.2459666684e+01 -6.9264800591e+01 2.1918865865e+02 1.7300000000e+02 0.0000e+00 1.0000e+00
<mgrwt>
<rscale>  2 0.20795686E+03</rscale>
<asrwt>0</asrwt>
<pdfrwt beam="1">  1       21 0.25192739E-01 0.20795686E+03</pdfrwt>
<pdfrwt beam="2">  1       21 0.40921620E-01 0.20795686E+03</pdfrwt>
<totfact> 0.85307408E+04</totfact>
</mgrwt>
</event>
<event>
 4      2 +5.6305390e+02 1.79983100e+02 7.54677100e-03 1.16781900e-01
       21 -1    0    0  501  502 +0.0000000000e+00 +0.0000000000e+00 +1.5165970125e+03 1.5165970125e+03 0.0000000000e+00 0.0000e+00 -1.0000e+00
       21 -1    0    0  502  503 -0.0000000000e+00 -0.0000000000e+00 -2.6833888381e+01 2.6833888381e+01 0.0000000000e+00 0.0000e+00 -1.0000e+00
        6  1    1    2  501    0 -2.6893285606e+01 +4.1733386196e+01 +1.0934425159e+03 1.1081563337e+03 1.7300000000e+02 0.0000e+00 -1.0000e+00
       -6  1    1    2    0  503 +2.6893285606e+01 -4.1733386196e+01 +3.9632060817e+02 4.3527456713e+02 1.7300000000e+02 0.0000e+00 -1.0000e+00
<mgrwt>
<rscale>  2 0.17998312E+03</rscale>
<asrwt>0</asrwt>
<pdfrwt beam="1">  1       21 0.23332255E+00 0.17998312E+03</pdfrwt>
<pdfrwt beam="2">  1       21 0.41282917E-02 0.17998312E+03</pdfrwt>
<totfact> 0.31353494E+04</totfact>
</mgrwt>
</event>
<event>
 4      2 +5.6305390e+02 1.85305900e+02 7.54677100e-03 1.16276500e-01
       21 -1    0    0  501  502 +0.0000000000e+00 +0.0000000000e+00 +4.9361622548e+02 4.9361622548e+02 0.0000000000e+00 0.0000e+00 -1.0000e+00
       21 -1    0    0  502  503 -0.0000000000e+00 -0.0000000000e+00 -7.1760460210e+01 7.1760460210e+01 0.0000000000e+00 0.0000e+00 1.0000e+00
        6  1    1    2  501    0 +6.3928119625e+01 -1.7957696006e+01 +1.6147928217e+02 2.4579227387e+02 1.7300000000e+02 0.0000e+00 -1.0000e+00
       -6  1    1    2    0  503 -6.3928119625e+01 +1.7957696006e+01 +2.6037648310e+02 3.1958441182e+02 1.7300000000e+02 0.0000e+00 -1.0000e+00
<mgrwt>
<rscale>  2 0.18530592E+03</rscale>
<asrwt>0</asrwt>
<pdfrwt beam="1">  1       21 0.75940955E-01 0.18530592E+03</pdfrwt>
<pdfrwt beam="2">  1       21 0.11040071E-01 0.18530592E+03</pdfrwt>
<totfact> 0.10558127E+05</totfact>
</mgrwt>
</event>
<event>
 4      2 +5.6305390e+02 3.23465000e+02 7.54677100e-03 1.07406600e-01
       21 -1    0    0  501  502 +0.0000000000e+00 +0.0000000000e+00 +2.9783083365e+02 2.9783083365e+02 0.0000000000e+00 0.0000e+00 1.0000e+00
       21 -1    0    0  502  503 -0.0000000000e+00 -0.0000000000e+00 -4.5398217219e+02 4.5398217219e+02 0.0000000000e+00 0.0000e+00 -1.0000e+00
        6  1    1    2  501    0 +2.7327444063e+02 +4.6546363746e+00 +1.0069509834e+02 3.3877586746e+02 1.7300000000e+02 0.0000e+00 -1.0000e+00
       -6  1    1    2    0  503 -2.7327444063e+02 -4.6546363746e+00 -2.5684643688e+02 4.1303713838e+02 1.7300000000e+02 0.0000e+00 1.0000e+00
<mgrwt>
<rscale>  2 0.32346497E+03</rscale>
<asrwt>0</asrwt>
<pdfrwt beam="1">  1       21 0.45820128E-01 0.32346497E+03</pdfrwt>
<pdfrwt beam="2">  1       21 0.69843411E-01 0.32346497E+03</pdfrwt>
<totfact> 0.78992957E+03</totfact>
</mgrwt>
</event>
<event>
 4      2 +5.6305390e+02 2.00428300e+02 7.54677100e-03 1.14937800e-01
        1 -1    0    0  502    0 +0.0000000000e+00 +0.0000000000e+00 +2.4517390645e+02 2.4517390645e+02 0.0000000000e+00 0.0000e+00 -1.0000e+00
       -1 -1    0    0    0  501 -0.0000000000e+00 -0.0000000000e+00 -1.9989688436e+02 1.9989688436e+02 0.0000000000e+00 0.0000e+00 1.0000e+00
        6  1    1    2  502    0 -1.6739162527e+01 -9.9811414353e+01 -7.1862296253e+01 2.1292183453e+02 1.7300000000e+02 0.0000e+00 1.0000e+00
       -6  1    1    2    0  501 +1.6739162527e+01 +9.9811414353e+01 +1.1713931835e+02 2.3214895628e+02 1.7300000000e+02 0.0000e+00 1.0000e+00
<mgrwt>
<rscale>  2 0.20042834E+03</rscale>
<asrwt>0</asrwt>
<pdfrwt beam="1">  1        1 0.37719062E-01 0.20042834E+03</pdfrwt>
<pdfrwt beam="2">  1       -1 0.30753367E-01 0.20042834E+03</pdfrwt>
<totfact> 0.11047808E+03</totfact>
</mgrwt>
</event>
<event>
 4      2 +5.6305390e+02 1.99774000e+02 7.54677100e-03 1.14993000e-01
       21 -1    0    0  503  502 +0.0000000000e+00 +0.0000000000e+00 +3.4851896879e+01 3.4851896879e+01 0.0000000000e+00 0.0000e+00 1.0000e+00
       21 -1    0    0  501  503 -0.0000000000e+00 -0.0000000000e+00 -1.2786700589e+03 1.2786700589e+03 0.0000000000e+00 0.0000e+00 1.0000e+00
        6  1    1    2  501    0 +4.9843439296e+01 +8.6581038004e+01 -8.3415934972e+02 8.5774790312e+02 1.7300000000e+02 0.0000e+00 1.0000e+00
       -6  1    1    2    0  502 -4.9843439296e+01 -8.6581038004e+01 -4.0965881233e+02 4.5577405269e+02 1.7300000000e+02 0.0000e+00 1.0000e+00
<mgrwt>
<rscale>  2 0.19977398E+03</rscale>
<asrwt>0</asrwt>
<pdfrwt beam="1">  1       21 0.53618314E-02 0.19977398E+03</pdfrwt>
<pdfrwt beam="2">  1       21 0.19671843E+00 0.19977398E+03</pdfrwt>
<totfact> 0.33510923E+04</totfact>
</mgrwt>
</event>
<event>
 4      2 +5.6305390e+02 1.83476400e+02 7.54677100e-03 1.16448000e-01
        4 -1    0    0  502    0 +0.0000000000e+00 +0.0000000000e+00 +8.2161405777e+01 8.2161405777e+01 0.0000000000e+00 0.0000e+00 -1.0000e+00
       -4 -1    0    0    0  501 -0.0000000000e+00 -0.0000000000e+00 -4.2077054708e+02 4.2077054708e+02 0.0000000000e+00 0.0000e+00 1.0000e+00
        6  1    1    2  502    0 -4.0028363234e+01 -4.6177063777e+01 -2.1004710166e+02 2.7889671206e+02 1.7300000000e+02 0.0000e+00 1.0000e+00
       -6  1    1    2    0  501 +4.0028363234e+01 +4.6177063777e+01 -1.2856203965e+02 2.2403524080e+02 1.7300000000e+02 0.0000e+00 -1.0000e+00
<mgrwt>
<rscale>  2 0.18347640E+03</rscale>
<asrwt>0</asrwt>
<pdfrwt beam="1">  1        4 0.12640216E-01 0.18347640E+03</pdfrwt>
<pdfrwt beam="2">  1       -4 0.64733931E-01 0.18347640E+03</pdfrwt>
<totfact> 0.20125545E+02</totfact>
</mgrwt>
</event>
<event>
 4      3 +5.6305390e+02 8.45248800e+01 7.54677100e-03 1.31668000e-01
       -2 -1    0    0    0  501 -0.0000000000e+00 +0.0000000000e+00 +3.3131709630e+00 3.3131709630e+00 0.0000000000e+00 0.0000e+00 1.0000e+00
        2 -1    0    0  501    0 +0.0000000000e+00 -0.0000000000e+00 -2.1807107565e+03 2.1807107565e+03 0.0000000000e+00 0.0000e+00 -1.0000e+00
       24  1    1    2    0    0 -2.2072682477e+01 -1.3785346503e+01 -1.2040461557e+03 1.2070093621e+03 8.0419002446e+01 0.0000e+00 0.0000e+00
      -24  1    1    2    0    0 +2.2072682477e+01 +1.3785346503e+01 -9.7335142986e+02 9.7701456542e+02 8.0419002446e+01 0.0000e+00 1.0000e+00
<mgrwt>
<rscale>  0 0.84524878E+02</rscale>
<asrwt>0</asrwt>
<pdfrwt beam="1">  1        2 0.33549416E+00 0.84524878E+02</pdfrwt>
<pdfrwt beam="2">  1       -2 0.50971831E-03 0.84524878E+02</pdfrwt>
<totfact> 0.31595614E+04</totfact>
</mgrwt>
</event>
<event>
 4      2 +5.6305390e+02 2.12974400e+02 7.54677100e-03 1.13923200e-01
       21 -1    0    0  501  502 +0.0000000000e+00 +0.0000000000e+00 +3.4554334484e+01 3.4554334484e+01 0.0000000000e+00 0.0000e+00 -1.0000e+00
       21 -1    0    0  502  503 -0.0000000000e+00 -0.0000000000e+00 -1.8150296676e+03 1.8150296676e+03 0.0000000000e+00 0.0000e+00 1.0000e+00
        6  1    1    2  501    0 -1.2303431518e+02 -1.7078289287e+01 -4.0370312278e+02 4.5643654764e+02 1.7300000000e+02 0.0000e+00 -1.0000e+00
       -6  1    1    2    0  503 +1.2303431518e+02 +1.7078289287e+01 -1.3767722103e+03 1.3931474544e+03 1.7300000000e+02 0.0000e+00 1.0000e+00
<mgrwt>
<rscale>  2 0.21297444E+03</rscale>
<asrwt>0</asrwt>
<pdfrwt beam="1">  1       21 0.53160517E-02 0.21297444E+03</pdfrwt>
<pdfrwt beam="2">  1       21 0.27923532E+00 0.21297444E+03</pdfrwt>
<totfact> 0.10682167E+04</totfact>
</mgrwt>
</event>
<event>
 4      2 +5.6305390e+02 1.76352800e+02 7.54677100e-03 1.17138000e-01
       21 -1    0    0  501  502 +0.0000000000e+00 +0.0000000000e+00 +3.9662840751e+01 3.9662840751e+01 0.0000000000e+00 0.0000e+00 1.0000e+00
       21 -1    0    0  502  503 -0.0000000000e+00 -0.0000000000e+00 -9.4765373194e+02 9.4765373194e+02 0.0000000000e+00 0.0000e+00 1.0000e+00
        6  1    1    2  501    0 -6.3390358639e+00 +3.3632335017e+01 -2.4892223650e+02 3.0506162846e+02 1.7300000000e+02 0.0000e+00 1.0000e+00
       -6  1    1    2    0  503 +6.3390358639e+00 -3.3632335017e+01 -6.5906865469e+02 6.8225494423e+02 1.7300000000e+02 0.0000e+00 1.0000e+00
<mgrwt>
<rscale>  2 0.17635282E+03</rscale>
<asrwt>0</asrwt>
<pdfrwt beam="1">  1       21 0.61019757E-02 0.17635282E+03</pdfrwt>
<pdfrwt beam="2">  1       21 0.14579288E+00 0.17635282E+03</pdfrwt>
<totfact> 0.62232349E+04</totfact>
</mgrwt>
</event>
<event>
 4      2 +5.6305390e+02 3.27270300e+02 7.54677100e-03 1.07235100e-01
       21 -1    0    0  503  502 +0.0000000000e+00 +0.0000000000e+00 +2.5992414501e+02 2.5992414501e+02 0.0000000000e+00 0.0000e+00 1.0000e+00
       21 -1    0    0  501  503 -0.0000000000e+00 -0.0000000000e+00 -4.9201193020e+02 4.9201193020e+02 0.0000000000e+00 0.0000e+00 1.0000e+00
        6  1    1    2  501    0 +1.5549787033e+01 -2.7737172266e+02 -2.6759588405e+02 4.2274510709e+02 1.7300000000e+02 0.0000e+00 1.0000e+00
       -6  1    1    2    0  502 -1.5549787033e+01 +2.7737172266e+02 +3.5508098860e+01 3.2919096812e+02 1.7300000000e+02 0.0000e+00 1.0000e+00
<mgrwt>
<rscale>  2 0.32727033E+03</rscale>
<asrwt>0</asrwt>
<pdfrwt beam="1">  1       21 0.39988331E-01 0.32727033E+03</pdfrwt>
<pdfrwt beam="2">  1       21 0.75694142E-01 0.32727033E+03</pdfrwt>
<totfact> 0.87169025E+03</totfact>
</mgrwt>
</event>
<event>
 4      2 +5.6305390e+02 2.21268000e+02 7.54677100e-03 1.13294100e-01
       21 -1    0    0  501  502 +0.0000000000e+00 +0.0000000000e+00 +2.6807271520e+02 2.6807271520e+02 0.0000000000e+00 0.0000e+00 1.0000e+00
       21 -1    0    0  502  503 -0.0000000000e+00 -0.0000000000e+00 -2.3088065788e+02 2.3088065788e+02 0.0000000000e+00 0.0000e+00 1.0000e+00
        6  1    1    2  501    0 +6.2377273338e+01 -1.2304318611e+02 +1.3263776073e+02 2.5797737391e+02 1.7300000000e+02 0.0000e+00 1.0000e+00
       -6  1    1    2    0  503 -6.2377273338e+01 +1.2304318611e+02 -9.5445703415e+01 2.4097599917e+02 1.7300000000e+02 0.0000e+00 1.0000e+00
<mgrwt>
<rscale>  2 0.22126805E+03</rscale>
<asrwt>0</asrwt>
<pdfrwt beam="1">  1       21 0.41241956E-01 0.22126805E+03</pdfrwt>
<pdfrwt beam="2">  1       21 0.35520101E-01 0.22126805E+03</pdfrwt>
<totfact> 0.42665872E+04</totfact>
</mgrwt>
</event>
<event>
 4      2 +5.6305390e+02 1.77640100e+02 7.54677100e-03 1.17010700e-01
        2 -1    0    0  502    0 +0.0000000000e+00 +0.0000000000e+00 +5.3014190954e+02 5.3014190954e+02 0.0000000000e+00 0.0000e+00 -1.0000e+00
       -2 -1    0    0    0  501 -0.0000000000e+00 -0.0000000000e+00 -7.1072857227e+01 7.1072857227e+01 0.0000000000e+00 0.0000e+00 1.0000e+00
        6  1    1    2  502    0 -5.0399655880e+00 +4.0019989049e+01 +1.0835669975e+02 2.0807973269e+02 1.7300000000e+02 0.0000e+00 1.0000e+00
       -6  1    1    2    0  501 +5.0399655880e+00 -4.0019989049e+01 +3.5071235257e+02 3.9313503408e+02 1.7300000000e+02 0.0000e+00 -1.0000e+00
<mgrwt>
<rscale>  2 0.17764009E+03</rscale>
<asrwt>0</asrwt>
<pdfrwt beam="1">  1        2 0.81560291E-01 0.17764009E+03</pdfrwt>
<pdfrwt beam="2">  1       -2 0.10934286E-01 0.17764009E+03</pdfrwt>
<totfact> 0.32903828E+03</totfact>
</mgrwt>
</event>
<event>
 4      2 +5.6305390e+02 2.03824100e+02 7.54677100e-03 1.14655200e-01
        2 -1    0    0  502    0 +0.0000000000e+00 +0.0000000000e+00 +2.6630734420e+02 2.6630734420e+02 0.0000000000e+00 0.0000e+00 -1.0000e+00
       -2 -1    0    0    0  501 -0.0000000000e+00 -0.0000000000e+00 -1.5806826177e+02 1.5806826177e+02 0.0000000000e+00 0.0000e+00 1.0000e+00
        6  1    1    2  502    0 -3.5474310248e+01 -1.0176864594e+02 +2.9855260614e+01 2.0599907905e+02 1.7300000000e+02 0.0000e+00 1.0000e+00
       -6  1    1    2    0  501 +3.5474310248e+01 +1.0176864594e+02 +7.8383821820e+01 2.1837652691e+02 1.7300000000e+02 0.0000e+00 -1.0000e+00
<mgrwt>
<rscale>  2 0.20382415E+03</rscale>
<asrwt>0</asrwt>
<pdfrwt beam="1">  1        2 0.40970361E-01 0.20382415E+03</pdfrwt>
<pdfrwt beam="2">  1       -2 0.24318194E-01 0.20382415E+03</pdfrwt>
<totfact> 0.18408009E+03</totfact>
</mgrwt>
</event>
<event>
 4      2 +5.6305390e+02 2.40453900e+02 7.54677100e-03 1.11949100e-01
       21 -1    0    0  501  502 +0.0000000000e+00 +0.0000000000e+00 +8.6305406526e+02 8.6305406526e+02 0.0000000000e+00 0.0000e+00 1.0000e+00
       21 -1    0    0  502  503 -0.0000000000e+00 -0.0000000000e+00 -3.1263551748e+02 3.1263551748e+02 0.0000000000e+00 0.0000e+00 -1.0000e+00
        6  1    1    2  501    0 -9.4180081586e+01 +1.3791008790e+02 +7.9627894971e+02 8.3179218911e+02 1.7300000000e+02 0.0000e+00 1.0000e+00
       -6  1    1    2    0  503 +9.4180081586e+01 -1.3791008790e+02 -2.4586040193e+02 3.4389739364e+02 1.7300000000e+02 0.0000e+00 -1.0000e+00
<mgrwt>
<rscale>  2 0.24045390E+03</rscale>
<asrwt>0</asrwt>
<pdfrwt beam="1">  1       21 0.13277755E+00 0.24045390E+03</pdfrwt>
<pdfrwt beam="2">  1       21 0.48097772E-01 0.24045390E+03</pdfrwt>
<totfact> 0.16225977E+03</totfact>
</mgrwt>
</event>
<event>
 4      2 +5.6305390e+02 2.45271800e+02 7.54677100e-03 1.11633000e-01
       21 -1    0    0  503  502 +0.0000000000e+00 +0.0000000000e+00 +3.0734146439e+02 3.0734146439e+02 0.0000000000e+00 0.0000e+00 -1.0000e+00
       21 -1    0    0  501  503 -0.0000000000e+00 -0.0000000000e+00 -2.3565717798e+02 2.3565717798e+02 0.0000000000e+00 0.0000e+00 1.0000e+00
        6  1    1    2  501    0 +1.3935384435e+02 +1.0397011016e+02 -7.5901141501e+01 2.5674746547e+02 1.7300000000e+02 0.0000e+00 1.0000e+00
       -6  1    1    2    0  502 -1.3935384435e+02 -1.0397011016e+02 +1.4758542791e+02 2.8625117690e+02 1.7300000000e+02 0.0000e+00 1.0000e+00
<mgrwt>
<rscale>  2 0.24527184E+03</rscale>
<asrwt>0</asrwt>
<pdfrwt beam="1">  1       21 0.47283302E-01 0.24527184E+03</pdfrwt>
<pdfrwt beam="2">  1       21 0.36254950E-01 0.24527184E+03</pdfrwt>
<totfact> 0.30575009E+04</totfact>
</mgrwt>
</event>
<event>
 4      2 +5.6305390e+02 1.93154900e+02 7.54677100e-03 1.15564600e-01
       21 -1    0    0  501  502 +0.0000000000e+00 +0.0000000000e+00 +1.4870315573e+03 1.4870315573e+03 0.0000000000e+00 0.0000e+00 1.0000e+00
       21 -1    0    0  502  503 -0.0000000000e+00 -0.0000000000e+00 -4.8627307034e+01 4.8627307034e+01 0.0000000000e+00 0.0000e+00 1.0000e+00
        6  1    1    2  501    0 -2.6964121442e+01 +8.1564419086e+01 +1.2534072090e+03 1.2682028426e+03 1.7300000000e+02 0.0000e+00 1.0000e+00
       -6  1    1    2    0  503 +2.6964121442e+01 -8.1564419086e+01 +1.8499704127e+02 2.6745602177e+02 1.7300000000e+02 0.0000e+00 1.0000e+00
<mgrwt>
<rscale>  2 0.19315491E+03</rscale>
<asrwt>0</asrwt>
<pdfrwt beam="1">  1       21 0.22877405E+00 0.19315491E+03</pdfrwt>
<pdfrwt beam="2">  1       21 0.74811253E-02 0.19315491E+03</pdfrwt>
<totfact> 0.11989166E+04</totfact>
</mgrwt>
</event>
<event>
 4      2 +5.6305390e+02 3.32048500e+02 7.54677100e-03 1.07023400e-01
       21 -1    0    0  503  502 +0.0000000000e+00 +0.0000000000e+00 +8.1780759120e+02 8.1780759120e+02 0.0000000000e+00 0.0000e+00 -1.0000e+00
       21 -1    0    0  501  503 -0.0000000000e+00 -0.0000000000e+00 -1.6935283107e+02 1.6935283107e+02 0.0000000000e+00 0.0000e+00 1.0000e+00
        6  1    1    2  501    0 -1.1312062057e+02 -2.5986709478e+02 +1.0134152689e+02 3.4716896005e+02 1.7300000000e+02 0.0000e+00 1.0000e+00
       -6  1    1    2    0  502 +1.1312062057e+02 +2.5986709478e+02 +5.4711323323e+02 6.3999146223e+02 1.7300000000e+02 0.0000e+00 -1.0000e+00
<mgrwt>
<rscale>  2 0.33204846E+03</rscale>
<asrwt>0</asrwt>
<pdfrwt beam="1">  1       21 0.12581655E+00 0.33204846E+03</pdfrwt>
<pdfrwt beam="2">  1       21 0.26054282E-01 0.33204846E+03</pdfrwt>
<totfact> 0.60366552E+03</totfact>
</mgrwt>
</event>
<event>
 4      2 +5.6305390e+02 1.77378500e+02 7.54677100e-03 1.17036400e-01
       21 -1    0    0  503  502 +0.0000000000e+00 +0.0000000000e+00 +5.1841785768e+02 5.1841785768e+02 0.0000000000e+00 0.0000e+00 -1.0000e+00
       21 -1    0    0  501  503 -0.0000000000e+00 -0.0000000000e+00 -6.7689072964e+01 6.7689072964e+01 0.0000000000e+00 0.0000e+00 -1.0000e+00
        6  1    1    2  501    0 +3.9067385128e+01 +2.8082404692e+00 +1.3113511223e+02 2.2058913041e+02 1.7300000000e+02 0.0000e+00 -1.0000e+00
       -6  1    1    2    0  502 -3.9067385128e+01 -2.8082404692e+00 +3.1959367248e+02 3.6551780023e+02 1.7300000000e+02 0.0000e+00 -1.0000e+00
<mgrwt>
<rscale>  2 0.17737854E+03</rscale>
<asrwt>0</asrwt>
<pdfrwt beam="1">  1       21 0.79756591E-01 0.17737854E+03</pdfrwt>
<pdfrwt beam="2">  1       21 0.10413704E-01 0.17737854E+03</pdfrwt>
<totfact> 0.10522186E+05</totfact>
</mgrwt>
</event>
<event>
 4      2 +5.6305390e+02 1.89324900e+02 7.54677100e-03 1.15907200e-01
       21 -1    0    0  501  502 +0.0000000000e+00 +0.0000000000e+00 +5.2341097380e+02 5.2341097380e+02 0.0000000000e+00 0.0000e+00 1.0000e+00
       21 -1    0    0  502  503 -0.0000000000e+00 -0.0000000000e+00 -7.6287385339e+01 7.6287385339e+01 0.0000000000e+00 0.0000e+00 1.0000e+00
        6  1    1    2  501    0 +2.5535436152e+01 -7.2545508113e+01 +3.1947772337e+02 3.7136225573e+02 1.7300000000e+02 0.0000e+00 1.0000e+00
       -6  1    1    2    0  503 -2.5535436152e+01 +7.2545508113e+01 +1.2764586509e+02 2.2833610341e+02 1.7300000000e+02 0.0000e+00 1.0000e+00
<mgrwt>
<rscale>  2 0.18932488E+03</rscale>
<asrwt>0</asrwt>
<pdfrwt beam="1">  1       21 0.80524763E-01 0.18932488E+03</pdfrwt>
<pdfrwt beam="2">  1       21 0.11736521E-01 0.18932488E+03</pdfrwt>
<totfact> 0.82859768E+04</totfact>
</mgrwt>
</event>
<event>
 4      2 +5.6305390e+02 1.92900000e+02 7.54677100e-03 1.15587100e-01
       21 -1    0    0  503  502 +0.0000000000e+00 +0.0000000000e+00 +3.9205997603e+02 3.9205997603e+02 0.0000000000e+00 0.0000e+00 -1.0000e+00
       21 -1    0    0  501  503 -0.0000000000e+00 -0.0000000000e+00 -9.5397333229e+01 9.5397333229e+01 0.0000000000e+00 0.0000e+00 -1.0000e+00
        6  1    1    2  501    0 +2.2005938845e+01 +8.2444825517e+01 +1.3091110891e+02 2.3312685181e+02 1.7300000000e+02 0.0000e+00 -1.0000e+00
       -6  1    1    2    0  502 -2.2005938845e+01 -8.2444825517e+01 +1.6575153389e+02 2.5433045745e+02 1.7300000000e+02 0.0000e+00 -1.0000e+00
<mgrwt>
<rscale>  2 0.19290000E+03</rscale>
<asrwt>0</asrwt>
<pdfrwt beam="1">  1       21 0.60316918E-01 0.19290000E+03</pdfrwt>
<pdfrwt beam="2">  1       21 0.14676513E-01 0.19290000E+03</pdfrwt>
<totfact> 0.10456822E+05</totfact>
</mgrwt>
</event>
<event>
 4      2 +5.6305390e+02 1.75573800e+02 7.54677100e-03 1.17215700e-01
       21 -1    0    0  503  502 +0.0000000000e+00 +0.0000000000e+00 +2.1458418843e+02 2.1458418843e+02 0.0000000000e+00 0.0000e+00 -1.0000e+00
       21 -1    0    0  501  503 -0.0000000000e+00 -0.0000000000e+00 -1.4383981338e+02 1.4383981338e+02 0.0000000000e+00 0.0000e+00 -1.0000e+00
        6  1    1    2  501    0 +8.4156408095e+00 +2.8745867517e+01 +4.1791457440e+01 1.8047901214e+02 1.7300000000e+02 0.0000e+00 -1.0000e+00
       -6  1    1    2    0  502 -8.4156408095e+00 -2.8745867517e+01 +2.8952917615e+01 1.7794498967e+02 1.7300000000e+02 0.0000e+00 -1.0000e+00
<mgrwt>
<rscale>  2 0.17557377E+03</rscale>
<asrwt>0</asrwt>
<pdfrwt beam="1">  1       21 0.33012952E-01 0.17557377E+03</pdfrwt>
<pdfrwt beam="2">  1       21 0.22129202E-01 0.17557377E+03</pdfrwt>
<totfact> 0.16953351E+05</totfact>
</mgrwt>
</event>
<event>
 4      3 +5.6305390e+02 8.44057200e+01 7.54677100e-03 1.31699400e-01
        2 -1    0    0  501    0 +0.0000000000e+00 +0.0000000000e+00 +4.9984323287e+01 4.9984323287e+01 0.0000000000e+00 0.0000e+00 -1.0000e+00
       -2 -1    0    0    0  501 -0.0000000000e+00 -0.0000000000e+00 -2.6150768564e+02 2.6150768564e+02 0.0000000000e+00 0.0000e+00 1.0000e+00
       24  1    1    2    0    0 -1.9515272402e+01 +1.6621169001e+01 -7.0945205029e-01 8.4408698559e+01 8.0419002446e+01 0.0000e+00 1.0000e+00
      -24  1    1    2    0    0 +1.9515272402e+01 -1.6621169001e+01 -2.1081391030e+02 2.2708331037e+02 8.0419002446e+01 0.0000e+00 1.0000e+00
<mgrwt>
<rscale>  0 0.84405717E+02</rscale>
<asrwt>0</asrwt>
<pdfrwt beam="1">  1        2 0.76898959E-02 0.84405717E+02</pdfrwt>
<pdfrwt beam="2">  1       -2 0.40231952E-01 0.84405717E+02</pdfrwt>
<totfact> 0.48213333E+03</totfact>
</mgrwt>
</event>
<event>
 4      3 +5.6305390e+02 8.09291700e+01 7.54677100e-03 1.32643500e-01
        2 -1    0    0  501    0 +0.0000000000e+00 +0.0000000000e+00 +4.7835222678e+02 4.7835222678e+02 0.0000000000e+00 0.0000e+00 -1.0000e+00
       -2 -1    0    0    0  501 -0.0000000000e+00 -0.0000000000e+00 -2.2920332176e+01 2.2920332176e+01 0.0000000000e+00 0.0000e+00 1.0000e+00
       24  1    1    2    0    0 +8.9920988338e+00 -1.2071124240e+00 +3.8675303875e+02 3.9512965454e+02 8.0419002446e+01 0.0000e+00 -1.0000e+00
      -24  1    1    2    0    0 -8.9920988338e+00 +1.2071124240e+00 +6.8678855855e+01 1.0614290442e+02 8.0419002446e+01 0.0000e+00 0.0000e+00
<mgrwt>
<rscale>  0 0.80929172E+02</rscale>
<asrwt>0</asrwt>
<pdfrwt beam="1">  1        2 0.73592643E-01 0.80929172E+02</pdfrwt>
<pdfrwt beam="2">  1       -2 0.35262053E-02 0.80929172E+02</pdfrwt>
<totfact> 0.19460115E+04</totfact>
</mgrwt>
</event>
<event>
 4      3 +5.6305390e+02 1.08558400e+02 7.54677100e-03 1.26326300e-01
       -2 -1    0    0    0  501 -0.0000000000e+00 +0.0000000000e+00 +3.4779036809e+01 3.4779036809e+01 0.0000000000e+00 0.0000e+00 1.0000e+00
        2 -1    0    0  501    0 +0.0000000000e+00 -0.0000000000e+00 -1.5348205010e+03 1.5348205010e+03 0.0000000000e+00 0.0000e+00 -1.0000e+00
       24  1    1    2    0    0 +2.1379258981e+00 +7.2891314302e+01 -1.4427922497e+03 1.4468705561e+03 8.0419002446e+01 0.0000e+00 -1.0000e+00
      -24  1    1    2    0    0 -2.1379258981e+00 -7.2891314302e+01 -5.7249214463e+01 1.2272898166e+02 8.0419002446e+01 0.0000e+00 1.0000e+00
<mgrwt>
<rscale>  0 0.10855842E+03</rscale>
<asrwt>0</asrwt>
<pdfrwt beam="1">  1        2 0.23612614E+00 0.10855842E+03</pdfrwt>
<pdfrwt beam="2">  1       -2 0.53506231E-02 0.10855842E+03</pdfrwt>
<totfact> 0.23043886E+03</totfact>
</mgrwt>
</event>
<event>
 4      2 +5.6305390e+02 1.74373400e+02 7.54677100e-03 1.17336200e-01
       21 -1    0    0  503  502 +0.0000000000e+00 +0.0000000000e+00 +5.6749833604e+02 5.6749833604e+02 0.0000000000e+00 0.0000e+00 -1.0000e+00
       21 -1    0    0  501  503 -0.0000000000e+00 -0.0000000000e+00 -2.1329602472e+02 2.1329602472e+02 0.0000000000e+00 0.0000e+00 -1.0000e+00
        6  1    1    2  501    0 +1.9290532481e+01 -1.0244447029e+01 -1.6072300442e+02 2.3714543531e+02 1.7300000000e+02 0.0000e+00 -1.0000e+00
       -6  1    1    2    0  502 -1.9290532481e+01 +1.0244447029e+01 +5.1492531575e+02 5.4364892545e+02 1.7300000000e+02 0.0000e+00 -1.0000e+00
<mgrwt>
<rscale>  2 0.17437337E+03</rscale>
<asrwt>0</asrwt>
<pdfrwt beam="1">  1       21 0.87307436E-01 0.17437337E+03</pdfrwt>
<pdfrwt beam="2">  1       21 0.32814773E-01 0.17437337E+03</pdfrwt>
<totfact> 0.10204646E+04</totfact>
</mgrwt>
</event>
<event>
 4      2 +5.6305390e+02 2.17498300e+02 7.54677100e-03 1.13576200e-01
       -1 -1    0    0    0  501 -0.0000000000e+00 +0.0000000000e+00 +1.0792141769e+02 1.0792141769e+02 0.0000000000e+00 0.0000e+00 -1.0000e+00
        1 -1    0    0  502    0 +0.0000000000e+00 -0.0000000000e+00 -5.6884230094e+02 5.6884230094e+02 0.0000000000e+00 0.0000e+00 1.0000e+00
        6  1    1    2  502    0 -6.1304597376e+01 -1.1669721140e+02 -3.9254149939e+02 4.4876978681e+02 1.7300000000e+02 0.0000e+00 1.0000e+00
       -6  1    1    2    0  501 +6.1304597376e+01 +1.1669721140e+02 -6.8379383865e+01 2.2799393182e+02 1.7300000000e+02 0.0000e+00 -1.0000e+00
<mgrwt>
<rscale>  2 0.21749826E+03</rscale>
<asrwt>0</asrwt>
<pdfrwt beam="1">  1        1 0.87514202E-01 0.21749826E+03</pdfrwt>
<pdfrwt beam="2">  1       -1 0.16603295E-01 0.21749826E+03</pdfrwt>
<totfact> 0.10351887E+03</totfact>
</mgrwt>
</event>
<event>
 4      2 +5.6305390e+02 1.77746300e+02 7.54677100e-03 1.17000200e-01
       -1 -1    0    0    0  501 -0.0000000000e+00 +0.0000000000e+00 +7.6059955949e+01 7.6059955949e+01 0.0000000000e+00 0.0000e+00 -1.0000e+00
        1 -1    0    0  502    0 +0.0000000000e+00 -0.0000000000e+00 -5.3615155981e+02 5.3615155981e+02 0.0000000000e+00 0.0000e+00 1.0000e+00
        6  1    1    2  502    0 -3.6917186774e+01 +1.7374626384e+01 -3.7532743593e+02 4.1528838232e+02 1.7300000000e+02 0.0000e+00 1.0000e+00
       -6  1    1    2    0  501 +3.6917186774e+01 -1.7374626384e+01 -8.4764167929e+01 1.9692313345e+02 1.7300000000e+02 0.0000e+00 -1.0000e+00
<mgrwt>
<rscale>  2 0.17774633E+03</rscale>
<asrwt>0</asrwt>
<pdfrwt beam="1">  1        1 0.82484853E-01 0.17774633E+03</pdfrwt>
<pdfrwt beam="2">  1       -1 0.11701532E-01 0.17774633E+03</pdfrwt>
<totfact> 0.19394271E+03</totfact>
</mgrwt>
</event>
<event>
 4      3 +5.6305390e+02 8.94279000e+01 7.54677100e-03 1.30424300e-01
       -1 -1    0    0    0  501 -0.0000000000e+00 +0.0000000000e+00 +6.6460534806e+00 6.6460534806e+00 0.0000000000e+00 0.0000e+00 1.0000e+00
        1 -1    0    0  501    0 +0.0000000000e+00 -0.0000000000e+00 -1.5279676535e+03 1.5279676535e+03 0.0000000000e+00 0.0000e+00 -1.0000e+00
       24  1    1    2    0    0 -3.9116587477e+01 -1.6352423932e-01 -4.0697631103e+02 4.1668581431e+02 8.0419002446e+01 0.0000e+00 1.0000e+00
      -24  1    1    2    0    0 +3.9116587477e+01 +1.6352423932e-01 -1.1143452890e+03 1.1179278927e+03 8.0419002446e+01 0.0000e+00 -1.0000e+00
<mgrwt>
<rscale>  0 0.89427905E+02</rscale>
<asrwt>0</asrwt>
<pdfrwt beam="1">  1        1 0.23507185E+00 0.89427905E+02</pdfrwt>
<pdfrwt beam="2">  1       -1 0.10224702E-02 0.89427905E+02</pdfrwt>
<totfact> 0.11830908E+04</totfact>
</mgrwt>
</event>
<event>
 4      2 +5.6305390e+02 1.86995900e+02 7.54677100e-03 1.16119900e-01
       21 -1    0    0  501  502 +0.0000000000e+00 +0.0000000000e+00 +2.5552866708e+03 2.5552866708e+03 0.0000000000e+00 0.0000e+00 -1.0000e+00
       21 -1    0    0  502  503 -0.0000000000e+00 -0.0000000000e+00 -2.6996598887e+01 2.6996598887e+01 0.0000000000e+00 0.0000e+00 -1.0000e+00
        6  1    1    2  501    0 -5.9278245194e+01 +3.9045772390e+01 +2.1708057176e+03 2.1788448651e+03 1.7300000000e+02 0.0000e+00 -1.0000e+00
       -6  1    1    2    0  503 +5.9278245194e+01 -3.9045772390e+01 +3.5748435424e+02 4.0343840450e+02 1.7300000000e+02 0.0000e+00 -1.0000e+00
<mgrwt>
<rscale>  2 0.18699594E+03</rscale>
<asrwt>0</asrwt>
<pdfrwt beam="1">  1       21 0.39312084E+00 0.18699594E+03</pdfrwt>
<pdfrwt beam="2">  1       21 0.41533249E-02 0.18699594E+03</pdfrwt>
<totfact> 0.35642355E+03</totfact>
</mgrwt>
</event>
<event>
 4      2 +5.6305390e+02 2.25673800e+02 7.54677100e-03 1.12972200e-01
       21 -1    0    0  501  502 +0.0000000000e+00 +0.0000000000e+00 +1.2488315071e+02 1.2488315071e+02 0.0000000000e+00 0.0000e+00 -1.0000e+00
       21 -1    0    0  502  503 -0.0000000000e+00 -0.0000000000e+00 -4.2230263455e+02 4.2230263455e+02 0.0000000000e+00 0.0000e+00 1.0000e+00
        6  1    1    2  501    0 +1.3684745746e+02 -4.7670192253e+01 -9.8027309534e+01 2.4604476677e+02 1.7300000000e+02 0.0000e+00 -1.0000e+00
       -6  1    1    2    0  503 -1.3684745746e+02 +4.7670192253e+01 -1.9939217430e+02 3.0114101849e+02 1.7300000000e+02 0.0000e+00 -1.0000e+00
<mgrwt>
<rscale>  2 0.22567382E+03</rscale>
<asrwt>0</asrwt>
<pdfrwt beam="1">  1       21 0.19212793E-01 0.22567382E+03</pdfrwt>
<pdfrwt beam="2">  1       21 0.64969635E-01 0.22567382E+03</pdfrwt>
<totfact> 0.53447757E+04</totfact>
</mgrwt>
</event>
<event>
 4      2 +5.6305390e+02 1.93217700e+02 7.54677100e-03 1.15559100e-01
       21 -1    0    0  503  502 +0.0000000000e+00 +0.0000000000e+00 +1.5919603338e+02 1.5919603338e+02 0.0000000000e+00 0.0000e+00 1.0000e+00
       21 -1    0    0  501  503 -0.0000000000e+00 -0.0000000000e+00 -3.1733480878e+02 3.1733480878e+02 0.0000000000e+00 0.0000e+00 1.0000e+00
        6  1    1    2  501    0 +7.0223902854e+01 -4.9726178139e+01 -2.0079498933e+02 2.7866057680e+02 1.7300000000e+02 0.0000e+00 1.0000e+00
       -6  1    1    2    0  502 -7.0223902854e+01 +4.9726178139e+01 +4.2656213938e+01 1.9787026536e+02 1.7300000000e+02 0.0000e+00 1.0000e+00
<mgrwt>
<rscale>  2 0.19321773E+03</rscale>
<asrwt>0</asrwt>
<pdfrwt beam="1">  1       21 0.24491698E-01 0.19321773E+03</pdfrwt>
<pdfrwt beam="2">  1       21 0.48820739E-01 0.19321773E+03</pdfrwt>
<totfact> 0.63067149E+04</totfact>
</mgrwt>
</event>
<event>
 4      2 +5.6305390e+02 1.87676300e+02 7.54677100e-03 1.16057400e-01
       21 -1    0    0  503  502 +0.0000000000e+00 +0.0000000000e+00 +1.9270385591e+02 1.9270385591e+02 0.0000000000e+00 0.0000e+00 1.0000e+00
       21 -1    0    0  501  503 -0.0000000000e+00 -0.0000000000e+00 -1.8675994495e+02 1.8675994495e+02 0.0000000000e+00 0.0000e+00 1.0000e+00
        6  1    1    2  501    0 -4.3598284187e+01 +5.8245803301e+01 +3.0669712940e+01 1.9016575738e+02 1.7300000000e+02 0.0000e+00 1.0000e+00
       -6  1    1    2    0  502 +4.3598284187e+01 -5.8245803301e+01 -2.4725801977e+01 1.8929804349e+02 1.7300000000e+02 0.0000e+00 1.0000e+00
<mgrwt>
<rscale>  2 0.18767627E+03</rscale>
<asrwt>0</asrwt>
<pdfrwt beam="1">  1       21 0.29646747E-01 0.18767627E+03</pdfrwt>
<pdfrwt beam="2">  1       21 0.28732299E-01 0.18767627E+03</pdfrwt>
<totfact> 0.12659700E+05</totfact>
</mgrwt>
</event>
<event>
 4      2 +5.6305390e+02 2.52851500e+02 7.54677100e-03 1.11151600e-01
       21 -1    0    0  503  502 +0.0000000000e+00 +0.0000000000e+00 +1.4452328324e+02 1.4452328324e+02 0.0000000000e+00 0.0000e+00 -1.0000e+00
       21 -1    0    0  501  503 -0.0000000000e+00 -0.0000000000e+00 -4.6107948313e+02 4.6107948313e+02 0.0000000000e+00 0.0000e+00 1.0000e+00
        6  1    1    2  501    0 +1.6211309101e+02 -8.7887513704e+01 -2.1926156968e+02 3.3467821154e+02 1.7300000000e+02 0.0000e+00 -1.0000e+00
       -6  1    1    2    0  502 -1.6211309101e+02 +8.7887513704e+01 -9.7294630217e+01 2.7092455483e+02 1.7300000000e+02 0.0000e+00 -1.0000e+00
<mgrwt>
<rscale>  2 0.25285148E+03</rscale>
<asrwt>0</asrwt>
<pdfrwt beam="1">  1       21 0.22234351E-01 0.25285148E+03</pdfrwt>
<pdfrwt beam="2">  1       21 0.70935304E-01 0.25285148E+03</pdfrwt>
<totfact> 0.33052936E+04</totfact>
</mgrwt>
</event>
<event>
 4      2 +5.6305390e+02 2.61993400e+02 7.54677100e-03 1.10595100e-01
       21 -1    0    0  503  502 +0.0000000000e+00 +0.0000000000e+00 +2.8360458960e+02 2.8360458960e+02 0.0000000000e+00 0.0000e+00 -1.0000e+00
       21 -1    0    0  501  503 -0.0000000000e+00 -0.0000000000e+00 -3.1740162806e+02 3.1740162806e+02 0.0000000000e+00 0.0000e+00 -1.0000e+00
        6  1    1    2  501    0 -1.9573929562e+02 -1.9941144290e+01 -1.6333570263e+02 3.0873787076e+02 1.7300000000e+02 0.0000e+00 -1.0000e+00
       -6  1    1    2    0  502 +1.9573929562e+02 +1.9941144290e+01 +1.2953866416e+02 2.9226834690e+02 1.7300000000e+02 0.0000e+00 -1.0000e+00
<mgrwt>
<rscale>  2 0.26199336E+03</rscale>
<asrwt>0</asrwt>
<pdfrwt beam="1">  1       21 0.43631476E-01 0.26199336E+03</pdfrwt>
<pdfrwt beam="2">  1       21 0.48831019E-01 0.26199336E+03</pdfrwt>
<totfact> 0.19472324E+04</totfact>
</mgrwt>
</event>
<event>
 4      2 +5.6305390e+02 1.83953400e+02 7.54677100e-03 1.16403100e-01
       21 -1    0    0  503  502 +0.0000000000e+00 +0.0000000000e+00 +2.2323682280e+02 2.2323682280e+02 0.0000000000e+00 0.0000e+00 1.0000e+00
       21 -1    0    0  501  503 -0.0000000000e+00 -0.0000000000e+00 -2.4105656608e+02 2.4105656608e+02 0.0000000000e+00 0.0000e+00 1.0000e+00
        6  1    1    2  501    0 -6.2021983608e+01 +7.9459729675e+00 -1.5034290485e+02 2.3757494391e+02 1.7300000000e+02 0.0000e+00 1.0000e+00
       -6  1    1    2    0  502 +6.2021983608e+01 -7.9459729675e+00 +1.3252316157e+02 2.2671844497e+02 1.7300000000e+02 0.0000e+00 1.0000e+00
<mgrwt>
<rscale>  2 0.18395343E+03</rscale>
<asrwt>0</asrwt>
<pdfrwt beam="1">  1       21 0.34344127E-01 0.18395343E+03</pdfrwt>
<pdfrwt beam="2">  1       21 0.37085626E-01 0.18395343E+03</pdfrwt>
<totfact> 0.57515926E+04</totfact>
</mgrwt>
</event>
<event>
 4      2 +5.6305390e+02 2.17880400e+02 7.54677100e-03 1.13547300e-01
       21 -1    0    0  503  502 +0.0000000000e+00 +0.0000000000e+00 +5.3586789663e+01 5.3586789663e+01 0.0000000000e+00 0.0000e+00 1.0000e+00
       21 -1    0    0  501  503 -0.0000000000e+00 -0.0000000000e+00 -8.8625299321e+02 8.8625299321e+02 0.0000000000e+00 0.0000e+00 1.0000e+00
        6  1    1    2  501    0 -5.4998865393e+01 -1.2049054677e+02 -4.2588098397e+02 4.7837899156e+02 1.7300000000e+02 0.0000e+00 1.0000e+00
       -6  1    1    2    0  502 +5.4998865393e+01 +1.2049054677e+02 -4.0678521957e+02 4.6146079131e+02 1.7300000000e+02 0.0000e+00 1.0000e+00
<mgrwt>
<rscale>  2 0.21788035E+03</rscale>
<asrwt>0</asrwt>
<pdfrwt beam="1">  1       21 0.82441217E-02 0.21788035E+03</pdfrwt>
<pdfrwt beam="2">  1       21 0.13634661E+00 0.21788035E+03</pdfrwt>
<totfact> 0.43014707E+04</totfact>
</mgrwt>
</event>
<event>
 4      2 +5.6305390e+02 1.73669300e+02 7.54677100e-03 1.17407500e-01
       21 -1    0    0  503  502 +0.0000000000e+00 +0.0000000000e+00 +3.1172901291e+01 3.1172901291e+01 0.0000000000e+00 0.0000e+00 -1.0000e+00
       21 -1    0    0  501  503 -0.0000000000e+00 -0.0000000000e+00 -9.6765161636e+02 9.6765161636e+02 0.0000000000e+00 0.0000e+00 -1.0000e+00
        6  1    1    2  501    0 -8.9050422557e+00 +1.2357765133e+01 -4.7361442578e+02 5.0445181974e+02 1.7300000000e+02 0.0000e+00 -1.0000e+00
       -6  1    1    2    0  502 +8.9050422557e+00 -1.2357765133e+01 -4.6286428929e+02 4.9437269791e+02 1.7300000000e+02 0.0000e+00 -1.0000e+00
<mgrwt>
<rscale>  2 0.17366927E+03</rscale>
<asrwt>0</asrwt>
<pdfrwt beam="1">  1       21 0.47958311E-02 0.17366927E+03</pdfrwt>
<pdfrwt beam="2">  1       21 0.14886948E+00 0.17366927E+03</pdfrwt>
<totfact> 0.88849174E+04</totfact>
</mgrwt>
</event>
<event>
 4      2 +5.6305390e+02 1.78162400e+02 7.54677100e-03 1.16959300e-01
       21 -1    0    0  501  502 +0.0000000000e+00 +0.0000000000e+00 +2.9592868270e+02 2.9592868270e+02 0.0000000000e+00 0.0000e+00 -1.0000e+00
       21 -1    0    0  502  503 -0.0000000000e+00 -0.0000000000e+00 -1.0799753835e+02 1.0799753835e+02 0.0000000000e+00 0.0000e+00 -1.0000e+00
        6  1    1    2  501    0 -2.1658094742e+01 -3.6657336284e+01 +7.7295533806e+01 1.9420719070e+02 1.7300000000e+02 0.0000e+00 1.0000e+00
       -6  1    1    2    0  503 +2.1658094742e+01 +3.6657336284e+01 +1.1063561055e+02 2.0971903035e+02 1.7300000000e+02 0.0000e+00 1.0000e+00
<mgrwt>
<rscale>  2 0.17816238E+03</rscale>
<asrwt>0</asrwt>
<pdfrwt beam="1">  1       21 0.45527489E-01 0.17816238E+03</pdfrwt>
<pdfrwt beam="2">  1       21 0.16615006E-01 0.17816238E+03</pdfrwt>
<totfact> 0.15124762E+05</totfact>
</mgrwt>
</event>
<event>
 4      2 +5.6305390e+02 2.60561500e+02 7.54677100e-03 1.10680600e-01
       21 -1    0    0  503  502 +0.0000000000e+00 +0.0000000000e+00 +3.1177956001e+02 3.1177956001e+02 0.0000000000e+00 0.0000e+00 1.0000e+00
       21 -1    0    0  501  503 -0.0000000000e+00 -0.0000000000e+00 -3.6336850994e+02 3.6336850994e+02 0.0000000000e+00 0.0000e+00 -1.0000e+00
        6  1    1    2  501    0 -3.8183336069e+01 +1.9106366211e+02 -2.3948866991e+02 3.5390268881e+02 1.7300000000e+02 0.0000e+00 -1.0000e+00
       -6  1    1    2    0  502 +3.8183336069e+01 -1.9106366211e+02 +1.8789971998e+02 3.2124538114e+02 1.7300000000e+02 0.0000e+00 1.0000e+00
<mgrwt>
<rscale>  2 0.26056149E+03</rscale>
<asrwt>0</asrwt>
<pdfrwt beam="1">  1       21 0.47966086E-01 0.26056149E+03</pdfrwt>
<pdfrwt beam="2">  1       21 0.55902847E-01 0.26056149E+03</pdfrwt>
<totfact> 0.12027579E+04</totfact>
</mgrwt>
</event>
<event>
 4      2 +5.6305390e+02 1.98590000e+02 7.54677100e-03 1.15093400e-01
       21 -1    0    0  503  502 +0.0000000000e+00 +0.0000000000e+00 +9.2555194634e+02 9.2555194634e+02 0.0000000000e+00 0.0000e+00 1.0000e+00
       21 -1    0    0  501  503 -0.0000000000e+00 -0.0000000000e+00 -4.6085641742e+01 4.6085641742e+01 0.0000000000e+00 0.0000e+00 -1.0000e+00
        6  1    1    2  501    0 -7.0684155028e+01 -6.7176865140e+01 +3.0632122869e+02 3.6506256468e+02 1.7300000000e+02 0.0000e+00 -1.0000e+00
       -6  1    1    2    0  502 +7.0684155028e+01 +6.7176865140e+01 +5.7314507590e+02 6.0657502340e+02 1.7300000000e+02 0.0000e+00 1.0000e+00
<mgrwt>
<rscale>  2 0.19858998E+03</rscale>
<asrwt>0</asrwt>
<pdfrwt beam="1">  1       21 0.14239259E+00 0.19858998E+03</pdfrwt>
<pdfrwt beam="2">  1       21 0.70900995E-02 0.19858998E+03</pdfrwt>
<totfact> 0.50503313E+04</totfact>
</mgrwt>
</event>
<event>
 4      2 +5.6305390e+02 2.09655800e+02 7.54677100e-03 1.14183900e-01
       21 -1    0    0  501  502 +0.0000000000e+00 +0.0000000000e+00 +2.2511793170e+02 2.2511793170e+02 0.0000000000e+00 0.0000e+00 1.0000e+00
       21 -1    0    0  502  503 -0.0000000000e+00 -0.0000000000e+00 -1.9713500762e+02 1.9713500762e+02 0.0000000000e+00 0.0000e+00 1.0000e+00
        6  1    1    2  501    0 +5.7842926460e+01 -1.0334775401e+02 +3.4605267561e+01 2.1249255738e+02 1.7300000000e+02 0.0000e+00 1.0000e+00
       -6  1    1    2    0  503 -5.7842926460e+01 +1.0334775401e+02 -6.6223434808e+00 2.0976038194e+02 1.7300000000e+02 0.0000e+00 1.0000e+00
<mgrwt>
<rscale>  2 0.20965582E+03</rscale>
<asrwt>0</asrwt>
<pdfrwt beam="1">  1       21 0.34633528E-01 0.20965582E+03</pdfrwt>
<pdfrwt beam="2">  1       21 0.30328463E-01 0.20965582E+03</pdfrwt>
<totfact> 0.83229371E+04</totfact>
</mgrwt>
</event>
<event>
 4      2 +5.6305390e+02 2.22284500e+02 7.54677100e-03 1.13219100e-01
       21 -1    0    0  503  502 +0.0000000000e+00 +0.0000000000e+00 +1.0461586597e+02 1.0461586597e+02 0.0000000000e+00 0.0000e+00 1.0000e+00
       21 -1    0    0  501  503 -0.0000000000e+00 -0.0000000000e+00 -6.0046625423e+02 6.0046625423e+02 0.0000000000e+00 0.0000e+00 1.0000e+00
        6  1    1    2  501    0 -6.8659290186e+01 -1.2152070952e+02 -8.5052878959e+01 2.3800078401e+02 1.7300000000e+02 0.0000e+00 1.0000e+00
       -6  1    1    2    0  502 +6.8659290186e+01 +1.2152070952e+02 -4.1079750930e+02 4.6708133619e+02 1.7300000000e+02 0.0000e+00 1.0000e+00
<mgrwt>
<rscale>  2 0.22228446E+03</rscale>
<asrwt>0</asrwt>
<pdfrwt beam="1">  1       21 0.16094749E-01 0.22228446E+03</pdfrwt>
<pdfrwt beam="2">  1       21 0.92379421E-01 0.22228446E+03</pdfrwt>
<totfact> 0.33571609E+04</totfact>
</mgrwt>
</event>
<event>
 4      2 +5.6305390e+02 2.23220000e+02 7.54677100e-03 1.13150500e-01
       21 -1    0    0  501  502 +0.0000000000e+00 +0.0000000000e+00 +2.6473521880e+02 2.6473521880e+02 0.0000000000e+00 0.0000e+00 1.0000e+00
       21 -1    0    0  502  503 -0.0000000000e+00 -0.0000000000e+00 -2.0297832791e+02 2.0297832791e+02 0.0000000000e+00 0.0000e+00 1.0000e+00
        6  1    1    2  501    0 +8.6889735891e+01 -1.1112314362e+02 +9.3947311983e+01 2.4218438571e+02 1.7300000000e+02 0.0000e+00 1.0000e+00
       -6  1    1    2    0  503 -8.6889735891e+01 +1.1112314362e+02 -3.2190421094e+01 2.2552916100e+02 1.7300000000e+02 0.0000e+00 1.0000e+00
<mgrwt>
<rscale>  2 0.22322002E+03</rscale>
<asrwt>0</asrwt>
<pdfrwt beam="1">  1       21 0.40728495E-01 0.22322002E+03</pdfrwt>
<pdfrwt beam="2">  1       21 0.31227435E-01 0.22322002E+03</pdfrwt>
<totfact> 0.56431796E+04</totfact>
</mgrwt>
</event>
<event>
 4      2 +5.6305390e+02 2.27543600e+02 7.54677100e-03 1.12838100e-01
       21 -1    0    0  501  502 +0.0000000000e+00 +0.0000000000e+00 +8.0898142114e+01 8.0898142114e+01 0.0000000000e+00 0.0000e+00 1.0000e+00
       21 -1    0    0  502  503 -0.0000000000e+00 -0.0000000000e+00 -6.4008878797e+02 6.4008878797e+02 0.0000000000e+00 0.0000e+00 1.0000e+00
        6  1    1    2  501    0 -6.2573418807e+01 -1.3390915744e+02 -2.8344284004e+02 3.6347756293e+02 1.7300000000e+02 0.0000e+00 1.0000e+00
       -6  1    1    2    0  503 +6.2573418807e+01 +1.3390915744e+02 -2.7574780582e+02 3.5750936715e+02 1.7300000000e+02 0.0000e+00 1.0000e+00
<mgrwt>
<rscale>  2 0.22754361E+03</rscale>
<asrwt>0</asrwt>
<pdfrwt beam="1">  1       21 0.12445868E-01 0.22754361E+03</pdfrwt>
<pdfrwt beam="2">  1       21 0.98475201E-01 0.22754361E+03</pdfrwt>
<totfact> 0.45989602E+04</totfact>
</mgrwt>
</event>
<event>
 4      2 +5.6305390e+02 3.28981700e+02 7.54677100e-03 1.07158800e-01
        4 -1    0    0  502    0 +0.0000000000e+00 +0.0000000000e+00 +3.2452954648e+02 3.2452954648e+02 0.0000000000e+00 0.0000e+00 -1.0000e+00
       -4 -1    0    0    0  501 -0.0000000000e+00 -0.0000000000e+00 -3.4578355389e+02 3.4578355389e+02 0.0000000000e+00 0.0000e+00 1.0000e+00
        6  1    1    2  502    0 +2.6415986085e+02 +9.2301154267e+01 +5.2555733355e+01 3.3315317839e+02 1.7300000000e+02 0.0000e+00 -1.0000e+00
       -6  1    1    2    0  501 -2.6415986085e+02 -9.2301154267e+01 -7.3809740765e+01 3.3715992199e+02 1.7300000000e+02 0.0000e+00 1.0000e+00
<mgrwt>
<rscale>  2 0.32898166E+03</rscale>
<asrwt>0</asrwt>
<pdfrwt beam="1">  1        4 0.49927623E-01 0.32898166E+03</pdfrwt>
<pdfrwt beam="2">  1       -4 0.53197469E-01 0.32898166E+03</pdfrwt>
<totfact> 0.24706577E+01</totfact>
</mgrwt>
</event>
<event>
 4      2 +5.6305390e+02 1.78805400e+02 7.54677100e-03 1.16896400e-01
       21 -1    0    0  501  502 +0.0000000000e+00 +0.0000000000e+00 +1.0574167021e+02 1.0574167021e+02 0.0000000000e+00 0.0000e+00 1.0000e+00
       21 -1    0    0  502  503 -0.0000000000e+00 -0.0000000000e+00 -3.3098471527e+02 3.3098471527e+02 0.0000000000e+00 0.0000e+00 1.0000e+00
        6  1    1    2  501    0 +6.0528961954e+00 -4.4785538231e+01 -4.8398007212e+01 1.8523970711e+02 1.7300000000e+02 0.0000e+00 1.0000e+00
       -6  1    1    2    0  503 -6.0528961954e+00 +4.4785538231e+01 -1.7684503785e+02 2.5148667838e+02 1.7300000000e+02 0.0000e+00 1.0000e+00
<mgrwt>
<rscale>  2 0.17880543E+03</rscale>
<asrwt>0</asrwt>
<pdfrwt beam="1">  1       21 0.16267949E-01 0.17880543E+03</pdfrwt>
<pdfrwt beam="2">  1       21 0.50920725E-01 0.17880543E+03</pdfrwt>
<totfact> 0.12466783E+05</totfact>
</mgrwt>
</event>
<event>
 4      2 +5.6305390e+02 2.08960900e+02 7.54677100e-03 1.14239100e-01
       21 -1    0    0  501  502 +0.0000000000e+00 +0.0000000000e+00 +1.5761719459e+03 1.5761719459e+03 0.0000000000e+00 0.0000e+00 1.0000e+00
       21 -1    0    0  502  503 -0.0000000000e+00 -0.0000000000e+00 -4.9651454266e+01 4.9651454266e+01 0.0000000000e+00 0.0000e+00 1.0000e+00
        6  1    1    2  501    0 +1.1364355177e+02 +2.8649746801e+01 +1.3037401172e+03 1.3203798537e+03 1.7300000000e+02 0.0000e+00 1.0000e+00
       -6  1    1    2    0  503 -1.1364355177e+02 -2.8649746801e+01 +2.2278037446e+02 3.0544354649e+02 1.7300000000e+02 0.0000e+00 1.0000e+00
<mgrwt>
<rscale>  2 0.20896092E+03</rscale>
<asrwt>0</asrwt>
<pdfrwt beam="1">  1       21 0.24248795E+00 0.20896092E+03</pdfrwt>
<pdfrwt beam="2">  1       21 0.76386865E-02 0.20896092E+03</pdfrwt>
<totfact> 0.94336404E+03</totfact>
</mgrwt>
</event>
<event>
 4      2 +5.6305390e+02 2.01819000e+02 7.54677100e-03 1.14821300e-01
       -2 -1    0    0    0  501 -0.0000000000e+00 +0.0000000000e+00 +5.1221989110e+01 5.1221989110e+01 0.0000000000e+00 0.0000e+00 1.0000e+00
        2 -1    0    0  502    0 +0.0000000000e+00 -0.0000000000e+00 -8.1781707672e+02 8.1781707672e+02 0.0000000000e+00 0.0000e+00 -1.0000e+00
        6  1    1    2  502    0 -9.7208138058e+01 +3.6776199299e+01 -4.5558319945e+02 4.9828401797e+02 1.7300000000e+02 0.0000e+00 1.0000e+00
       -6  1    1    2    0  501 +9.7208138058e+01 -3.6776199299e+01 -3.1101188816e+02 3.7075504787e+02 1.7300000000e+02 0.0000e+00 -1.0000e+00
<mgrwt>
<rscale>  2 0.20181901E+03</rscale>
<asrwt>0</asrwt>
<pdfrwt beam="1">  1        2 0.12581801E+00 0.20181901E+03</pdfrwt>
<pdfrwt beam="2">  1       -2 0.78803063E-02 0.20181901E+03</pdfrwt>
<totfact> 0.33076024E+03</totfact>
</mgrwt>
</event>
<event>
 4      2 +5.6305390e+02 1.98257400e+02 7.54677100e-03 1.15121800e-01
        4 -1    0    0  502    0 +0.0000000000e+00 +0.0000000000e+00 +4.2827382888e+01 4.2827382888e+01 0.0000000000e+00 0.0000e+00 1.0000e+00
       -4 -1    0    0    0  501 -0.0000000000e+00 -0.0000000000e+00 -1.3623982307e+03 1.3623982307e+03 0.0000000000e+00 0.0000e+00 -1.0000e+00
        6  1    1    2  502    0 +4.0525851862e+01 +8.7946951217e+01 -1.0611683102e+03 1.0795296168e+03 1.7300000000e+02 0.0000e+00 -1.0000e+00
       -6  1    1    2    0  501 -4.0525851862e+01 -8.7946951217e+01 -2.5840253757e+02 3.2569599679e+02 1.7300000000e+02 0.0000e+00 1.0000e+00
<mgrwt>
<rscale>  2 0.19825744E+03</rscale>
<asrwt>0</asrwt>
<pdfrwt beam="1">  1        4 0.65888277E-02 0.19825744E+03</pdfrwt>
<pdfrwt beam="2">  1       -4 0.20959974E+00 0.19825744E+03</pdfrwt>
<totfact> 0.34206742E+01</totfact>
</mgrwt>
</event>
<event>
 4      2 +5.6305390e+02 2.19360400e+02 7.54677100e-03 1.13436100e-01
        2 -1    0    0  502    0 +0.0000000000e+00 +0.0000000000e+00 +1.7956808371e+03 1.7956808371e+03 0.0000000000e+00 0.0000e+00 -1.0000e+00
       -2 -1    0    0    0  501 -0.0000000000e+00 -0.0000000000e+00 -1.0258135071e+02 1.0258135071e+02 0.0000000000e+00 0.0000e+00 1.0000e+00
        6  1    1    2  502    0 +8.1502710869e+01 -1.0745835306e+02 +3.0753776023e+01 2.2150572061e+02 1.7300000000e+02 0.0000e+00 1.0000e+00
       -6  1    1    2    0  501 -8.1502710869e+01 +1.0745835306e+02 +1.6623457104e+03 1.6767564672e+03 1.7300000000e+02 0.0000e+00 -1.0000e+00
<mgrwt>
<rscale>  2 0.21936041E+03</rscale>
<asrwt>0</asrwt>
<pdfrwt beam="1">  1        2 0.27625857E+00 0.21936041E+03</pdfrwt>
<pdfrwt beam="2">  1       -2 0.15781748E-01 0.21936041E+03</pdfrwt>
<totfact> 0.30407522E+02</totfact>
</mgrwt>
</event>
<event>
 4      3 +5.6305390e+02 8.73657000e+01 7.54677100e-03 1.30935900e-01
       -2 -1    0    0    0  501 -0.0000000000e+00 +0.0000000000e+00 +6.7566078152e+00 6.7566078152e+00 0.0000000000e+00 0.0000e+00 1.0000e+00
        2 -1    0    0  501    0 +0.0000000000e+00 -0.0000000000e+00 -2.2587088826e+03 2.2587088826e+03 0.0000000000e+00 0.0000e+00 -1.0000e+00
       24  1    1    2    0    0 -1.8032361513e+01 -2.8989381736e+01 -1.9268257059e+03 1.9288053472e+03 8.0419002446e+01 0.0000e+00 -1.0000e+00
      -24  1    1    2    0    0 +1.8032361513e+01 +2.8989381736e+01 -3.2512656887e+02 3.3666014325e+02 8.0419002446e+01 0.0000e+00 1.0000e+00
<mgrwt>
<rscale>  0 0.87365704E+02</rscale>
<asrwt>0</asrwt>
<pdfrwt beam="1">  1        2 0.34749445E+00 0.87365704E+02</pdfrwt>
<pdfrwt beam="2">  1       -2 0.10394758E-02 0.87365704E+02</pdfrwt>
<totfact> 0.10604335E+04</totfact>
</mgrwt>
</event>
<event>
 4      2 +5.6305390e+02 1.74630900e+02 7.54677100e-03 1.17310300e-01
       21 -1    0    0  501  502 +0.0000000000e+00 +0.0000000000e+00 +1.0474359442e+03 1.0474359442e+03 0.0000000000e+00 0.0000e+00 1.0000e+00
       21 -1    0    0  502  503 -0.0000000000e+00 -0.0000000000e+00 -2.9180467064e+01 2.9180467064e+01 0.0000000000e+00 0.0000e+00 1.0000e+00
        6  1    1    2  501    0 -2.3116842454e+01 +5.7048722880e+00 +5.3465554971e+02 5.6245221202e+02 1.7300000000e+02 0.0000e+00 1.0000e+00
       -6  1    1    2    0  503 +2.3116842454e+01 -5.7048722880e+00 +4.8359992738e+02 5.1416419920e+02 1.7300000000e+02 0.0000e+00 1.0000e+00
<mgrwt>
<rscale>  2 0.17463085E+03</rscale>
<asrwt>0</asrwt>
<pdfrwt beam="1">  1       21 0.16114396E+00 0.17463085E+03</pdfrwt>
<pdfrwt beam="2">  1       21 0.44893034E-02 0.17463085E+03</pdfrwt>
<totfact> 0.80446748E+04</totfact>
</mgrwt>
</event>
<event>
 4      2 +5.6305390e+02 1.75556700e+02 7.54677100e-03 1.17217400e-01
       21 -1    0    0  501  502 +0.0000000000e+00 +0.0000000000e+00 +7.3629445998e+01 7.3629445998e+01 0.0000000000e+00 0.0000e+00 -1.0000e+00
       21 -1    0    0  502  503 -0.0000000000e+00 -0.0000000000e+00 -5.6459287662e+02 5.6459287662e+02 0.0000000000e+00 0.0000e+00 -1.0000e+00
        6  1    1    2  501    0 +1.5653676949e+01 -2.5418780051e+01 -4.0776098296e+02 4.4394726174e+02 1.7300000000e+02 0.0000e+00 -1.0000e+00
       -6  1    1    2    0  503 -1.5653676949e+01 +2.5418780051e+01 -8.3202447657e+01 1.9427506087e+02 1.7300000000e+02 0.0000e+00 -1.0000e+00
<mgrwt>
<rscale>  2 0.17555669E+03</rscale>
<asrwt>0</asrwt>
<pdfrwt beam="1">  1       21 0.11327607E-01 0.17555669E+03</pdfrwt>
<pdfrwt beam="2">  1       21 0.86860440E-01 0.17555669E+03</pdfrwt>
<totfact> 0.74727062E+04</totfact>
</mgrwt>
</event>
<event>
 4      2 +5.6305390e+02 2.04548600e+02 7.54677100e-03 1.14595700e-01
       21 -1    0    0  503  502 +0.0000000000e+00 +0.0000000000e+00 +1.5062646195e+02 1.5062646195e+02 0.0000000000e+00 0.0000e+00 1.0000e+00
       21 -1    0    0  501  503 -0.0000000000e+00 -0.0000000000e+00 -4.5000937497e+02 4.5000937497e+02 0.0000000000e+00 0.0000e+00 1.0000e+00
        6  1    1    2  501    0 -2.1295769837e+00 +1.0911732907e+02 -3.3548539601e+02 3.9292566414e+02 1.7300000000e+02 0.0000e+00 1.0000e+00
       -6  1    1    2    0  502 +2.1295769837e+00 -1.0911732907e+02 +3.6102482987e+01 2.0771017279e+02 1.7300000000e+02 0.0000e+00 1.0000e+00
<mgrwt>
<rscale>  2 0.20454859E+03</rscale>
<asrwt>0</asrwt>
<pdfrwt beam="1">  1       21 0.23173302E-01 0.20454859E+03</pdfrwt>
<pdfrwt beam="2">  1       21 0.69232210E-01 0.20454859E+03</pdfrwt>
<totfact> 0.33005272E+04</totfact>
</mgrwt>
</event>
<event>
 4      3 +5.6305390e+02 1.13005200e+02 7.54677100e-03 1.25510400e-01
        1 -1    0    0  501    0 +0.0000000000e+00 +0.0000000000e+00 +7.5230552010e+02 7.5230552010e+02 0.0000000000e+00 0.0000e+00 -1.0000e+00
       -1 -1    0    0    0  501 -0.0000000000e+00 -0.0000000000e+00 -1.5512558809e+02 1.5512558809e+02 0.0000000000e+00 0.0000e+00 1.0000e+00
       24  1    1    2    0    0 +7.1424018314e+01 -3.4663571969e+01 -1.2958253233e+02 1.7193545956e+02 8.0419002446e+01 0.0000e+00 1.0000e+00
      -24  1    1    2    0    0 -7.1424018314e+01 +3.4663571969e+01 +7.2676246434e+02 7.3549564862e+02 8.0419002446e+01 0.0000e+00 -1.0000e+00
<mgrwt>
<rscale>  0 0.11300517E+03</rscale>
<asrwt>0</asrwt>
<pdfrwt beam="1">  1        1 0.11573931E+00 0.11300517E+03</pdfrwt>
<pdfrwt beam="2">  1       -1 0.23865475E-01 0.11300517E+03</pdfrwt>
<totfact> 0.39112619E+02</totfact>
</mgrwt>
</event>
<event>
 4      3 +5.6305390e+02 1.12462700e+02 7.54677100e-03 1.25607600e-01
        1 -1    0    0  501    0 +0.0000000000e+00 +0.0000000000e+00 +9.1274366573e+01 9.1274366573e+01 0.0000000000e+00 0.0000e+00 -1.0000e+00
       -1 -1    0    0    0  501 -0.0000000000e+00 -0.0000000000e+00 -1.7339627252e+02 1.7339627252e+02 0.0000000000e+00 0.0000e+00 1.0000e+00
       24  1    1    2    0    0 +7.3232412429e+01 -2.8594744302e+01 -1.0036867725e+02 1.5073729784e+02 8.0419002446e+01 0.0000e+00 1.0000e+00
      -24  1    1    2    0    0 -7.3232412429e+01 +2.8594744302e+01 +1.8246771307e+01 1.1393334125e+02 8.0419002446e+01 0.0000e+00 -1.0000e+00
<mgrwt>
<rscale>  0 0.11246271E+03</rscale>
<asrwt>0</asrwt>
<pdfrwt beam="1">  1        1 0.14042210E-01 0.11246271E+03</pdfrwt>
<pdfrwt beam="2">  1       -1 0.26676350E-01 0.11246271E+03</pdfrwt>
<totfact> 0.47877870E+03</totfact>
</mgrwt>
</event>
<event>
 4      2 +5.6305390e+02 2.32884500e+02 7.54677100e-03 1.12462600e-01
       21 -1    0    0  501  502 +0.0000000000e+00 +0.0000000000e+00 +6.1712614766e+02 6.1712614766e+02 0.0000000000e+00 0.0000e+00 1.0000e+00
       21 -1    0    0  502  503 -0.0000000000e+00 -0.0000000000e+00 -9.3892585906e+01 9.3892585906e+01 0.0000000000e+00 0.0000e+00 1.0000e+00
        6  1    1    2  501    0 -1.1752192212e+02 +1.0244405456e+02 +1.7167929681e+02 2.8932502043e+02 1.7300000000e+02 0.0000e+00 1.0000e+00
       -6  1    1    2    0  503 +1.1752192212e+02 -1.0244405456e+02 +3.5155426495e+02 4.2169371314e+02 1.7300000000e+02 0.0000e+00 1.0000e+00
<mgrwt>
<rscale>  2 0.23288449E+03</rscale>
<asrwt>0</asrwt>
<pdfrwt beam="1">  1       21 0.94942482E-01 0.23288449E+03</pdfrwt>
<pdfrwt beam="2">  1       21 0.14445014E-01 0.23288449E+03</pdfrwt>
<totfact> 0.38178463E+04</totfact>
</mgrwt>
</event>
<event>
 4      2 +5.6305390e+02 1.89576800e+02 7.54677100e-03 1.15884400e-01
       21 -1    0    0  501  502 +0.0000000000e+00 +0.0000000000e+00 +3.9249792084e+01 3.9249792084e+01 0.0000000000e+00 0.0000e+00 1.0000e+00
       21 -1    0    0  502  503 -0.0000000000e+00 -0.0000000000e+00 -1.0366295617e+03 1.0366295617e+03 0.0000000000e+00 0.0000e+00 1.0000e+00
        6  1    1    2  501    0 -7.2633849871e+01 +2.7104795506e+01 -6.8245592516e+02 7.0829756167e+02 1.7300000000e+02 0.0000e+00 1.0000e+00
       -6  1    1    2    0  503 +7.2633849871e+01 -2.7104795506e+01 -3.1492384447e+02 3.6758179213e+02 1.7300000000e+02 0.0000e+00 1.0000e+00
<mgrwt>
<rscale>  2 0.18957676E+03</rscale>
<asrwt>0</asrwt>
<pdfrwt beam="1">  1       21 0.60384309E-02 0.18957676E+03</pdfrwt>
<pdfrwt beam="2">  1       21 0.15948144E+00 0.18957676E+03</pdfrwt>
<totfact> 0.49608859E+04</totfact>
</mgrwt>
</event>
<event>
 4      2 +5.6305390e+02 1.75150000e+02 7.54677100e-03 1.17258100e-01
       21 -1    0    0  503  502 +0.0000000000e+00 +0.0000000000e+00 +4.8059225726e+02 4.8059225726e+02 0.0000000000e+00 0.0000e+00 1.0000e+00
       21 -1    0    0  501  503 -0.0000000000e+00 -0.0000000000e+00 -7.6448394429e+01 7.6448394429e+01 0.0000000000e+00 0.0000e+00 1.0000e+00
        6  1    1    2  501    0 +1.0133178080e+01 -2.5413640956e+01 +8.8929083393e+01 1.9643298175e+02 1.7300000000e+02 0.0000e+00 1.0000e+00
       -6  1    1    2    0  502 -1.0133178080e+01 +2.5413640956e+01 +3.1521477944e+02 3.6060766994e+02 1.7300000000e+02 0.0000e+00 1.0000e+00
<mgrwt>
<rscale>  2 0.17515003E+03</rscale>
<asrwt>0</asrwt>
<pdfrwt beam="1">  1       21 0.73937268E-01 0.17515003E+03</pdfrwt>
<pdfrwt beam="2">  1       21 0.11761292E-01 0.17515003E+03</pdfrwt>
<totfact> 0.10052879E+05</totfact>
</mgrwt>
</event>
<event>
 4      2 +5.6305390e+02 1.89935500e+02 7.54677100e-03 1.15851900e-01
       21 -1    0    0  501  502 +0.0000000000e+00 +0.0000000000e+00 +7.6033372550e+02 7.6033372550e+02 0.0000000000e+00 0.0000e+00 -1.0000e+00
       21 -1    0    0  502  503 -0.0000000000e+00 -0.0000000000e+00 -4.9350400649e+01 4.9350400649e+01 0.0000000000e+00 0.0000e+00 -1.0000e+00
        6  1    1    2  501    0 -7.0753077220e+01 -3.3771371173e+01 +4.3500006365e+02 4.7465836011e+02 1.7300000000e+02 0.0000e+00 -1.0000e+00
       -6  1    1    2    0  503 +7.0753077220e+01 +3.3771371173e+01 +2.7598326120e+02 3.3502576604e+02 1.7300000000e+02 0.0000e+00 -1.0000e+00
<mgrwt>
<rscale>  2 0.18993552E+03</rscale>
<asrwt>0</asrwt>
<pdfrwt beam="1">  1       21 0.11697441E+00 0.18993552E+03</pdfrwt>
<pdfrwt beam="2">  1       21 0.75923699E-02 0.18993552E+03</pdfrwt>
<totfact> 0.74004520E+04</totfact>
</mgrwt>
</event>
<event>
 4      2 +5.6305390e+02 2.23716400e+02 7.54677100e-03 1.13114200e-01
       21 -1    0    0  503  502 +0.0000000000e+00 +0.0000000000e+00 +6.0748034627e+01 6.0748034627e+01 0.0000000000e+00 0.0000e+00 1.0000e+00
       21 -1    0    0  501  503 -0.0000000000e+00 -0.0000000000e+00 -9.1359854317e+02 9.1359854317e+02 0.0000000000e+00 0.0000e+00 -1.0000e+00
        6  1    1    2  501    0 -1.4034686756e+02 +2.0561616311e+01 -5.7909379832e+02 6.2080484095e+02 1.7300000000e+02 0.0000e+00 -1.0000e+00
       -6  1    1    2    0  502 +1.4034686756e+02 -2.0561616311e+01 -2.7375671023e+02 3.5354173685e+02 1.7300000000e+02 0.0000e+00 1.0000e+00
<mgrwt>
<rscale>  2 0.22371639E+03</rscale>
<asrwt>0</asrwt>
<pdfrwt beam="1">  1       21 0.93458520E-02 0.22371639E+03</pdfrwt>
<pdfrwt beam="2">  1       21 0.14055361E+00 0.22371639E+03</pdfrwt>
<totfact> 0.31798264E+04</totfact>
</mgrwt>
</event>
<event>
 4      2 +5.6305390e+02 2.72511600e+02 7.54677100e-03 1.09985100e-01
       21 -1    0    0  501  502 +0.0000000000e+00 +0.0000000000e+00 +1.0439252295e+02 1.0439252295e+02 0.0000000000e+00 0.0000e+00 -1.0000e+00
       21 -1    0    0  502  503 -0.0000000000e+00 -0.0000000000e+00 -7.1318323952e+02 7.1318323952e+02 0.0000000000e+00 0.0000e+00 1.0000e+00
        6  1    1    2  501    0 +9.3061119068e+01 -1.8887357365e+02 -2.8383162119e+02 3.9347552388e+02 1.7300000000e+02 0.0000e+00 1.0000e+00
       -6  1    1    2    0  503 -9.3061119068e+01 +1.8887357365e+02 -3.2495909538e+02 4.2410023859e+02 1.7300000000e+02 0.0000e+00 -1.0000e+00
<mgrwt>
<rscale>  2 0.27251165E+03</rscale>
<asrwt>0</asrwt>
<pdfrwt beam="1">  1       21 0.16060388E-01 0.27251165E+03</pdfrwt>
<pdfrwt beam="2">  1       21 0.10972050E+00 0.27251165E+03</pdfrwt>
<totfact> 0.21801367E+04</totfact>
</mgrwt>
</event>
<event>
 4      2 +5.6305390e+02 1.86015000e+02 7.54677100e-03 1.16210500e-01
       21 -1    0    0  503  502 +0.0000000000e+00 +0.0000000000e+00 +2.7516143893e+01 2.7516143893e+01 0.0000000000e+00 0.0000e+00 -1.0000e+00
       21 -1    0    0  501  503 -0.0000000000e+00 -0.0000000000e+00 -1.3157601151e+03 1.3157601151e+03 0.0000000000e+00 0.0000e+00 -1.0000e+00
        6  1    1    2  501    0 -6.3002130959e+01 -2.6520320957e+01 -7.8544944781e+02 8.0717558870e+02 1.7300000000e+02 0.0000e+00 -1.0000e+00
       -6  1    1    2    0  502 +6.3002130959e+01 +2.6520320957e+01 -5.0279452337e+02 5.3610067027e+02 1.7300000000e+02 0.0000e+00 -1.0000e+00
<mgrwt>
<rscale>  2 0.18601504E+03</rscale>
<asrwt>0</asrwt>
<pdfrwt beam="1">  1       21 0.42332515E-02 0.18601504E+03</pdfrwt>
<pdfrwt beam="2">  1       21 0.20242470E+00 0.18601504E+03</pdfrwt>
<totfact> 0.46364949E+04</totfact>
</mgrwt>
</event>
<event>
 4      2 +5.6305390e+02 1.73125800e+02 7.54677100e-03 1.17462700e-01
       21 -1    0    0  501  502 +0.0000000000e+00 +0.0000000000e+00 +1.0491129466e+02 1.0491129466e+02 0.0000000000e+00 0.0000e+00 -1.0000e+00
       21 -1    0    0  502  503 -0.0000000000e+00 -0.0000000000e+00 -3.0963827478e+02 3.0963827478e+02 0.0000000000e+00 0.0000e+00 -1.0000e+00
        6  1    1    2  501    0 +5.0682364065e+00 +4.2270489474e+00 -4.4724333662e+01 1.7880945440e+02 1.7300000000e+02 0.0000e+00 -1.0000e+00
       -6  1    1    2    0  503 -5.0682364065e+00 -4.2270489474e+00 -1.6000264646e+02 2.3574011504e+02 1.7300000000e+02 0.0000e+00 -1.0000e+00
<mgrwt>
<rscale>  2 0.17312584E+03</rscale>
<asrwt>0</asrwt>
<pdfrwt beam="1">  1       21 0.16140199E-01 0.17312584E+03</pdfrwt>
<pdfrwt beam="2">  1       21 0.47636657E-01 0.17312584E+03</pdfrwt>
<totfact> 0.14553978E+05</totfact>
</mgrwt>
</event>
<event>
 4      2 +5.6305390e+02 2.26405300e+02 7.54677100e-03 1.12919600e-01
       21 -1    0    0  501  502 +0.0000000000e+00 +0.0000000000e+00 +3.7360956185e+01 3.7360956185e+01 0.0000000000e+00 0.0000e+00 -1.0000e+00
       21 -1    0    0  502  503 -0.0000000000e+00 -0.0000000000e+00 -1.5758435144e+03 1.5758435144e+03 0.0000000000e+00 0.0000e+00 -1.0000e+00
        6  1    1    2  501    0 -2.3324908551e+01 -1.4417458382e+02 -1.0593412042e+03 1.0832650409e+03 1.7300000000e+02 0.0000e+00 -1.0000e+00
       -6  1    1    2    0  503 +2.3324908551e+01 +1.4417458382e+02 -4.7914135398e+02 5.2993942963e+02 1.7300000000e+02 0.0000e+00 -1.0000e+00
<mgrwt>
<rscale>  2 0.22640530E+03</rscale>
<asrwt>0</asrwt>
<pdfrwt beam="1">  1       21 0.57478392E-02 0.22640530E+03</pdfrwt>
<pdfrwt beam="2">  1       21 0.24243747E+00 0.22640530E+03</pdfrwt>
<totfact> 0.15200224E+04</totfact>
</mgrwt>
</event>
<event>
 4      2 +5.6305390e+02 2.69709500e+02 7.54677100e-03 1.10144600e-01
       21 -1    0    0  503  502 +0.0000000000e+00 +0.0000000000e+00 +2.3207511859e+02 2.3207511859e+02 0.0000000000e+00 0.0000e+00 1.0000e+00
       21 -1    0    0  501  503 -0.0000000000e+00 -0.0000000000e+00 -8.6125966941e+02 8.6125966941e+02 0.0000000000e+00 0.0000e+00 -1.0000e+00
        6  1    1    2  501    0 +1.9981356227e+02 -5.3746906659e+01 -7.5057798485e+02 7.9756535844e+02 1.7300000000e+02 0.0000e+00 -1.0000e+00
       -6  1    1    2    0  502 -1.9981356227e+02 +5.3746906659e+01 +1.2139343402e+02 2.9576942956e+02 1.7300000000e+02 0.0000e+00 1.0000e+00
<mgrwt>
<rscale>  2 0.26970945E+03</rscale>
<asrwt>0</asrwt>
<pdfrwt beam="1">  1       21 0.35703864E-01 0.26970945E+03</pdfrwt>
<pdfrwt beam="2">  1       21 0.13250149E+00 0.26970945E+03</pdfrwt>
<totfact> 0.29378864E+03</totfact>
</mgrwt>
</event>
<event>
 4      2 +5.6305390e+02 1.90938900e+02 7.54677100e-03 1.15761700e-01
       21 -1    0    0  501  502 +0.0000000000e+00 +0.0000000000e+00 +4.7067019383e+02 4.7067019383e+02 0.0000000000e+00 0.0000e+00 1.0000e+00
       21 -1    0    0  502  503 -0.0000000000e+00 -0.0000000000e+00 -1.0026295025e+02 1.0026295025e+02 0.0000000000e+00 0.0000e+00 1.0000e+00
        6  1    1    2  501    0 +6.8852509276e+01 -4.2284694223e+01 +3.2134484257e+02 3.7379161473e+02 1.7300000000e+02 0.0000e+00 1.0000e+00
       -6  1    1    2    0  503 -6.8852509276e+01 +4.2284694223e+01 +4.9062401019e+01 1.9714152935e+02 1.7300000000e+02 0.0000e+00 1.0000e+00
<mgrwt>
<rscale>  2 0.19093890E+03</rscale>
<asrwt>0</asrwt>
<pdfrwt beam="1">  1       21 0.72410798E-01 0.19093890E+03</pdfrwt>
<pdfrwt beam="2">  1       21 0.15425070E-01 0.19093890E+03</pdfrwt>
<totfact> 0.64143952E+04</totfact>
</mgrwt>
</event>
<event>
 4      2 +5.6305390e+02 2.80655200e+02 7.54677100e-03 1.09533200e-01
       21 -1    0    0  501  502 +0.0000000000e+00 +0.0000000000e+00 +4.2434840041e+02 4.2434840041e+02 0.0000000000e+00 0.0000e+00 1.0000e+00
       21 -1    0    0  502  503 -0.0000000000e+00 -0.0000000000e+00 -2.9949154672e+02 2.9949154672e+02 0.0000000000e+00 0.0000e+00 1.0000e+00
        6  1    1    2  501    0 +1.5552004366e+02 +1.5700917947e+02 +2.8559477274e+02 4.0041446107e+02 1.7300000000e+02 0.0000e+00 1.0000e+00
       -6  1    1    2    0  503 -1.5552004366e+02 -1.5700917947e+02 -1.6073791904e+02 3.2342548607e+02 1.7300000000e+02 0.0000e+00 1.0000e+00
<mgrwt>
<rscale>  2 0.28065524E+03</rscale>
<asrwt>0</asrwt>
<pdfrwt beam="1">  1       21 0.65284370E-01 0.28065524E+03</pdfrwt>
<pdfrwt beam="2">  1       21 0.46075622E-01 0.28065524E+03</pdfrwt>
<totfact> 0.92491101E+03</totfact>
</mgrwt>
</event>
<event>
 4      2 +5.6305390e+02 2.65087200e+02 7.54677100e-03 1.10412500e-01
       21 -1    0    0  503  502 +0.0000000000e+00 +0.0000000000e+00 +6.3782380185e+02 6.3782380185e+02 0.0000000000e+00 0.0000e+00 -1.0000e+00
       21 -1    0    0  501  503 -0.0000000000e+00 -0.0000000000e+00 -1.1073421738e+02 1.1073421738e+02 0.0000000000e+00 0.0000e+00 -1.0000e+00
        6  1    1    2  501    0 +9.1532683852e+01 -1.7878480862e+02 +2.3690988270e+02 3.5552430652e+02 1.7300000000e+02 0.0000e+00 -1.0000e+00
       -6  1    1    2    0  502 -9.1532683852e+01 +1.7878480862e+02 +2.9017970177e+02 3.9303371271e+02 1.7300000000e+02 0.0000e+00 -1.0000e+00
<mgrwt>
<rscale>  2 0.26508723E+03</rscale>
<asrwt>0</asrwt>
<pdfrwt beam="1">  1       21 0.98126737E-01 0.26508723E+03</pdfrwt>
<pdfrwt beam="2">  1       21 0.17036034E-01 0.26508723E+03</pdfrwt>
<totfact> 0.25692821E+04</totfact>
</mgrwt>
</event>
<event>
 4      2 +5.6305390e+02 1.88538900e+02 7.54677100e-03 1.15978600e-01
       21 -1    0    0  501  502 +0.0000000000e+00 +0.0000000000e+00 +2.1762199690e+02 2.1762199690e+02 0.0000000000e+00 0.0000e+00 -1.0000e+00
       21 -1    0    0  502  503 -0.0000000000e+00 -0.0000000000e+00 -2.0218395486e+02 2.0218395486e+02 0.0000000000e+00 0.0000e+00 -1.0000e+00
        6  1    1    2  501    0 +2.9633213164e+01 +6.8846033402e+01 -8.4282168634e+01 2.0651970266e+02 1.7300000000e+02 0.0000e+00 -1.0000e+00
       -6  1    1    2    0  503 -2.9633213164e+01 -6.8846033402e+01 +9.9720210669e+01 2.1328624910e+02 1.7300000000e+02 0.0000e+00 -1.0000e+00
<mgrwt>
<rscale>  2 0.18853887E+03</rscale>
<asrwt>0</asrwt>
<pdfrwt beam="1">  1       21 0.33480307E-01 0.18853887E+03</pdfrwt>
<pdfrwt beam="2">  1       21 0.31105224E-01 0.18853887E+03</pdfrwt>
<totfact> 0.85453699E+04</totfact>
</mgrwt>
</event>
<event>
 4      2 +5.6305390e+02 2.25446500e+02 7.54677100e-03 1.12988600e-01
       21 -1    0    0  501  502 +0.0000000000e+00 +0.0000000000e+00 +4.6721757603e+02 4.6721757603e+02 0.0000000000e+00 0.0000e+00 -1.0000e+00
       21 -1    0    0  502  503 -0.0000000000e+00 -0.0000000000e+00 -1.1589787384e+02 1.1589787384e+02 0.0000000000e+00 0.0000e+00 -1.0000e+00
        6  1    1    2  501    0 +1.0345228042e+02 +1.0096902379e+02 +2.4789006574e+02 3.3507551803e+02 1.7300000000e+02 0.0000e+00 -1.0000e+00
       -6  1    1    2    0  503 -1.0345228042e+02 -1.0096902379e+02 +1.0342963645e+02 2.4803993184e+02 1.7300000000e+02 0.0000e+00 -1.0000e+00
<mgrwt>
<rscale>  2 0.22544649E+03</rscale>
<asrwt>0</asrwt>
<pdfrwt beam="1">  1       21 0.71879626E-01 0.22544649E+03</pdfrwt>
<pdfrwt beam="2">  1       21 0.17830442E-01 0.22544649E+03</pdfrwt>
<totfact> 0.49151917E+04</totfact>
</mgrwt>
</event>
<event>
 4      2 +5.6305390e+02 1.96057400e+02 7.54677100e-03 1.15310900e-01
       21 -1    0    0  501  502 +0.0000000000e+00 +0.0000000000e+00 +3.0724287147e+02 3.0724287147e+02 0.0000000000e+00 0.0000e+00 1.0000e+00
       21 -1    0    0  502  503 -0.0000000000e+00 -0.0000000000e+00 -1.2559218823e+02 1.2559218823e+02 0.0000000000e+00 0.0000e+00 1.0000e+00
        6  1    1    2  501    0 +8.3568942532e+01 -3.9060903123e+01 +7.7386997551e+01 2.1077777326e+02 1.7300000000e+02 0.0000e+00 1.0000e+00
       -6  1    1    2    0  503 -8.3568942532e+01 +3.9060903123e+01 +1.0426368569e+02 2.2205728644e+02 1.7300000000e+02 0.0000e+00 1.0000e+00
<mgrwt>
<rscale>  2 0.19605745E+03</rscale>
<asrwt>0</asrwt>
<pdfrwt beam="1">  1       21 0.47268134E-01 0.19605745E+03</pdfrwt>
<pdfrwt beam="2">  1       21 0.19321875E-01 0.19605745E+03</pdfrwt>
<totfact> 0.10526932E+05</totfact>
</mgrwt>
</event>
<event>
 4      2 +5.6305390e+02 2.64671500e+02 7.54677100e-03 1.10436900e-01
       21 -1    0    0  501  502 +0.0000000000e+00 +0.0000000000e+00 +2.5147539038e+02 2.5147539038e+02 0.0000000000e+00 0.0000e+00 1.0000e+00
       21 -1    0    0  502  503 -0.0000000000e+00 -0.0000000000e+00 -2.8758098099e+02 2.8758098099e+02 0.0000000000e+00 0.0000e+00 -1.0000e+00
        6  1    1    2  501    0 -1.6850335334e+02 -1.0829875993e+02 +2.9683574383e+01 2.6633083952e+02 1.7300000000e+02 0.0000e+00 -1.0000e+00
       -6  1    1    2    0  503 +1.6850335334e+02 +1.0829875993e+02 -6.5789164995e+01 2.7272553185e+02 1.7300000000e+02 0.0000e+00 -1.0000e+00
<mgrwt>
<rscale>  2 0.26467150E+03</rscale>
<asrwt>0</asrwt>
<pdfrwt beam="1">  1       21 0.38688522E-01 0.26467150E+03</pdfrwt>
<pdfrwt beam="2">  1       21 0.44243228E-01 0.26467150E+03</pdfrwt>
<totfact> 0.30527305E+04</totfact>
</mgrwt>
</event>
<event>
 4      2 +5.6305390e+02 1.89735800e+02 7.54677100e-03 1.15870000e-01
       21 -1    0    0  503  502 +0.0000000000e+00 +0.0000000000e+00 +4.2328626315e+01 4.2328626315e+01 0.0000000000e+00 0.0000e+00 -1.0000e+00
       21 -1    0    0  501  503 -0.0000000000e+00 -0.0000000000e+00 -8.5879092814e+02 8.5879092814e+02 0.0000000000e+00 0.0000e+00 1.0000e+00
        6  1    1    2  501    0 +2.1577654963e+01 +7.4867142228e+01 -4.5255244442e+02 4.9071722929e+02 1.7300000000e+02 0.0000e+00 -1.0000e+00
       -6  1    1    2    0  502 -2.1577654963e+01 -7.4867142228e+01 -3.6390985741e+02 4.1040232517e+02 1.7300000000e+02 0.0000e+00 1.0000e+00
<mgrwt>
<rscale>  2 0.18973583E+03</rscale>
<asrwt>0</asrwt>
<pdfrwt beam="1">  1       21 0.65120959E-02 0.18973583E+03</pdfrwt>
<pdfrwt beam="2">  1       21 0.13212169E+00 0.18973583E+03</pdfrwt>
<totfact> 0.71189333E+04</totfact>
</mgrwt>
</event>
<event>
 4      2 +5.6305390e+02 2.01767100e+02 7.54677100e-03 1.14825700e-01
       21 -1    0    0  501  502 +0.0000000000e+00 +0.0000000000e+00 +1.4243471442e+02 1.4243471442e+02 0.0000000000e+00 0.0000e+00 -1.0000e+00
       21 -1    0    0  502  503 -0.0000000000e+00 -0.0000000000e+00 -3.6292341432e+02 3.6292341432e+02 0.0000000000e+00 0.0000e+00 -1.0000e+00
        6  1    1    2  501    0 +1.5208310161e+01 -1.0271168288e+02 +6.2252439961e+00 2.0186316197e+02 1.7300000000e+02 0.0000e+00 -1.0000e+00
       -6  1    1    2    0  503 -1.5208310161e+01 +1.0271168288e+02 -2.2671394389e+02 3.0349496677e+02 1.7300000000e+02 0.0000e+00 -1.0000e+00
<mgrwt>
<rscale>  2 0.20176715E+03</rscale>
<asrwt>0</asrwt>
<pdfrwt beam="1">  1       21 0.21913033E-01 0.20176715E+03</pdfrwt>
<pdfrwt beam="2">  1       21 0.55834371E-01 0.20176715E+03</pdfrwt>
<totfact> 0.58504992E+04</totfact>
</mgrwt>
</event>
<event>
 4      2 +5.6305390e+02 1.91738900e+02 7.54677100e-03 1.15690200e-01
       21 -1    0    0  501  502 +0.0000000000e+00 +0.0000000000e+00 +3.3413251895e+01 3.3413251895e+01 0.0000000000e+00 0.0000e+00 -1.0000e+00
       21 -1    0    0  502  503 -0.0000000000e+00 -0.0000000000e+00 -1.1026452445e+03 1.1026452445e+03 0.0000000000e+00 0.0000e+00 -1.0000e+00
        6  1    1    2  501    0 +7.9012441704e+01 -2.4327531083e+01 -5.0828484276e+02 5.4324697523e+02 1.7300000000e+02 0.0000e+00 -1.0000e+00
       -6  1    1    2    0  503 -7.9012441704e+01 +2.4327531083e+01 -5.6094714986e+02 5.9281152118e+02 1.7300000000e+02 0.0000e+00 -1.0000e+00
<mgrwt>
<rscale>  2 0.19173887E+03</rscale>
<asrwt>0</asrwt>
<pdfrwt beam="1">  1       21 0.51405003E-02 0.19173887E+03</pdfrwt>
<pdfrwt beam="2">  1       21 0.16963773E+00 0.19173887E+03</pdfrwt>
<totfact> 0.55113766E+04</totfact>
</mgrwt>
</event>
<event>
 4      2 +5.6305390e+02 2.38470300e+02 7.54677100e-03 1.12081600e-01
       21 -1    0    0  501  502 +0.0000000000e+00 +0.0000000000e+00 +1.0220449108e+02 1.0220449108e+02 0.0000000000e+00 0.0000e+00 1.0000e+00
       21 -1    0    0  502  503 -0.0000000000e+00 -0.0000000000e+00 -1.6537338740e+03 1.6537338740e+03 0.0000000000e+00 0.0000e+00 1.0000e+00
        6  1    1    2  501    0 -1.6407457902e+02 -4.3160271831e+00 -6.0588715777e+01 2.4604692245e+02 1.7300000000e+02 0.0000e+00 1.0000e+00
       -6  1    1    2    0  503 +1.6407457902e+02 +4.3160271831e+00 -1.4909406671e+03 1.5098914426e+03 1.7300000000e+02 0.0000e+00 1.0000e+00
<mgrwt>
<rscale>  2 0.23847032E+03</rscale>
<asrwt>0</asrwt>
<pdfrwt beam="1">  1       21 0.15723769E-01 0.23847032E+03</pdfrwt>
<pdfrwt beam="2">  1       21 0.25442058E+00 0.23847032E+03</pdfrwt>
<totfact> 0.21490136E+03</totfact>
</mgrwt>
</event>
<event>
 4      2 +5.6305390e+02 1.78186300e+02 7.54677100e-03 1.16957000e-01
       21 -1    0    0  501  502 +0.0000000000e+00 +0.0000000000e+00 +9.3387545084e+02 9.3387545084e+02 0.0000000000e+00 0.0000e+00 -1.0000e+00
       21 -1    0    0  502  503 -0.0000000000e+00 -0.0000000000e+00 -3.4180131827e+01 3.4180131827e+01 0.0000000000e+00 0.0000e+00 -1.0000e+00
        6  1    1    2  501    0 -1.2837442641e+01 -4.0700831874e+01 +4.1456281581e+02 4.5123462400e+02 1.7300000000e+02 0.0000e+00 1.0000e+00
       -6  1    1    2    0  503 +1.2837442641e+01 +4.0700831874e+01 +4.8513250321e+02 5.1682095867e+02 1.7300000000e+02 0.0000e+00 1.0000e+00
<mgrwt>
<rscale>  2 0.17818630E+03</rscale>
<asrwt>0</asrwt>
<pdfrwt beam="1">  1       21 0.14367313E+00 0.17818630E+03</pdfrwt>
<pdfrwt beam="2">  1       21 0.52584825E-02 0.17818630E+03</pdfrwt>
<totfact> 0.83208046E+04</totfact>
</mgrwt>
</event>
<event>
 4      3 +5.6305390e+02 1.44220100e+02 7.54677100e-03 1.20776100e-01
       -2 -1    0    0    0  501 -0.0000000000e+00 +0.0000000000e+00 +4.3446133727e+00 4.3446133727e+00 0.0000000000e+00 0.0000e+00 1.0000e+00
        2 -1    0    0  501    0 +0.0000000000e+00 -0.0000000000e+00 -4.7906095502e+03 4.7906095502e+03 0.0000000000e+00 0.0000e+00 -1.0000e+00
       24  1    1    2    0    0 +5.6055380409e+01 -1.0578287273e+02 -2.4551085399e+03 2.4593408427e+03 8.0419002446e+01 0.0000e+00 -1.0000e+00
      -24  1    1    2    0    0 -5.6055380409e+01 +1.0578287273e+02 -2.3311563970e+03 2.3356133209e+03 8.0419002446e+01 0.0000e+00 1.0000e+00
<mgrwt>
<rscale>  0 0.14422010E+03</rscale>
<asrwt>0</asrwt>
<pdfrwt beam="1">  1        2 0.73701886E+00 0.14422010E+03</pdfrwt>
<pdfrwt beam="2">  1       -2 0.66840024E-03 0.14422010E+03</pdfrwt>
<totfact> 0.35566685E+02</totfact>
</mgrwt>
</event>
<event>
 4      2 +5.6305390e+02 1.75755600e+02 7.54677100e-03 1.17197500e-01
       21 -1    0    0  503  502 +0.0000000000e+00 +0.0000000000e+00 +2.3685257677e+02 2.3685257677e+02 0.0000000000e+00 0.0000e+00 -1.0000e+00
       21 -1    0    0  501  503 -0.0000000000e+00 -0.0000000000e+00 -3.8481121731e+02 3.8481121731e+02 0.0000000000e+00 0.0000e+00 -1.0000e+00
        6  1    1    2  501    0 +1.4613717987e+01 +2.7339719230e+01 -3.2670759152e+02 3.7098230599e+02 1.7300000000e+02 0.0000e+00 -1.0000e+00
       -6  1    1    2    0  502 -1.4613717987e+01 -2.7339719230e+01 +1.7874895097e+02 2.5068148810e+02 1.7300000000e+02 0.0000e+00 -1.0000e+00
<mgrwt>
<rscale>  2 0.17575557E+03</rscale>
<asrwt>0</asrwt>
<pdfrwt beam="1">  1       21 0.36438858E-01 0.17575557E+03</pdfrwt>
<pdfrwt beam="2">  1       21 0.59201725E-01 0.17575557E+03</pdfrwt>
<totfact> 0.19568263E+04</totfact>
</mgrwt>
</event>
<event>
 4      2 +5.6305390e+02 2.93253000e+02 7.54677100e-03 1.08866300e-01
       -2 -1    0    0    0  501 -0.0000000000e+00 +0.0000000000e+00 +1.4582995148e+03 1.4582995148e+03 0.0000000000e+00 0.0000e+00 1.0000e+00
        2 -1    0    0  502    0 +0.0000000000e+00 -0.0000000000e+00 -5.9599444888e+01 5.9599444888e+01 0.0000000000e+00 0.0000e+00 -1.0000e+00
        6  1    1    2  502    0 +2.2785485426e+02 -6.4424125432e+01 +6.2141300128e+02 6.8713275333e+02 1.7300000000e+02 0.0000e+00 -1.0000e+00
       -6  1    1    2    0  501 -2.2785485426e+02 +6.4424125432e+01 +7.7728706861e+02 8.3076620633e+02 1.7300000000e+02 0.0000e+00 1.0000e+00
<mgrwt>
<rscale>  2 0.29325297E+03</rscale>
<asrwt>0</asrwt>
<pdfrwt beam="1">  1        2 0.91691465E-02 0.29325297E+03</pdfrwt>
<pdfrwt beam="2">  1       -2 0.22435374E+00 0.29325297E+03</pdfrwt>
<totfact> 0.72679312E+01</totfact>
</mgrwt>
</event>
<event>
 4      3 +5.6305390e+02 1.00656800e+02 7.54677100e-03 1.27892100e-01
        2 -1    0    0  501    0 +0.0000000000e+00 +0.0000000000e+00 +5.4622467586e+01 5.4622467586e+01 0.0000000000e+00 0.0000e+00 -1.0000e+00
       -2 -1    0    0    0  501 -0.0000000000e+00 -0.0000000000e+00 -5.3478384165e+02 5.3478384165e+02 0.0000000000e+00 0.0000e+00 1.0000e+00
       24  1    1    2    0    0 -3.6397832029e+00 +6.0426213485e+01 -1.9076507009e+00 1.0067487464e+02 8.0419002446e+01 0.0000e+00 -1.0000e+00
      -24  1    1    2    0    0 +3.6397832029e+00 -6.0426213485e+01 -4.7825372336e+02 4.8873143459e+02 8.0419002446e+01 0.0000e+00 1.0000e+00
<mgrwt>
<rscale>  0 0.10065680E+03</rscale>
<asrwt>0</asrwt>
<pdfrwt beam="1">  1        2 0.84034564E-02 0.10065680E+03</pdfrwt>
<pdfrwt beam="2">  1       -2 0.82274439E-01 0.10065680E+03</pdfrwt>
<totfact> 0.10267631E+03</totfact>
</mgrwt>
</event>
<event>
 4      2 +5.6305390e+02 2.57705800e+02 7.54677100e-03 1.10853000e-01
       -1 -1    0    0    0  501 -0.0000000000e+00 +0.0000000000e+00 +3.7560135456e+01 3.7560135456e+01 0.0000000000e+00 0.0000e+00 1.0000e+00
        1 -1    0    0  502    0 +0.0000000000e+00 -0.0000000000e+00 -2.1547237281e+03 2.1547237281e+03 0.0000000000e+00 0.0000e+00 -1.0000e+00
        6  1    1    2  502    0 -1.7660726163e+02 +7.2753904758e+01 -5.9429894217e+02 6.4776808210e+02 1.7300000000e+02 0.0000e+00 1.0000e+00
       -6  1    1    2    0  501 +1.7660726163e+02 -7.2753904758e+01 -1.5228646505e+03 1.5445157814e+03 1.7300000000e+02 0.0000e+00 -1.0000e+00
<mgrwt>
<rscale>  2 0.25770575E+03</rscale>
<asrwt>0</asrwt>
<pdfrwt beam="1">  1        1 0.33149595E+00 0.25770575E+03</pdfrwt>
<pdfrwt beam="2">  1       -1 0.57784825E-02 0.25770575E+03</pdfrwt>
<totfact> 0.37938017E+02</totfact>
</mgrwt>
</event>
<event>
 4      3 +5.6305390e+02 8.39631500e+01 7.54677100e-03 1.31816600e-01
       -2 -1    0    0    0  501 -0.0000000000e+00 +0.0000000000e+00 +6.7653901995e+01 6.7653901995e+01 0.0000000000e+00 0.0000e+00 1.0000e+00
        2 -1    0    0  501    0 +0.0000000000e+00 -0.0000000000e+00 -1.0984688694e+02 1.0984688694e+02 0.0000000000e+00 0.0000e+00 -1.0000e+00
       24  1    1    2    0    0 -2.4136223337e+01 -1.9143729610e-01 -4.1211748627e+01 9.3531909552e+01 8.0419002446e+01 0.0000e+00 -1.0000e+00
      -24  1    1    2    0    0 +2.4136223337e+01 +1.9143729610e-01 -9.8123631549e-01 8.3968879380e+01 8.0419002446e+01 0.0000e+00 1.0000e+00
<mgrwt>
<rscale>  0 0.83963146E+02</rscale>
<asrwt>0</asrwt>
<pdfrwt beam="1">  1        2 0.16899521E-01 0.83963146E+02</pdfrwt>
<pdfrwt beam="2">  1       -2 0.10408293E-01 0.83963146E+02</pdfrwt>
<totfact> 0.18558702E+04</totfact>
</mgrwt>
</event>
<event>
 4      3 +5.6305390e+02 1.11460300e+02 7.54677100e-03 1.25788900e-01
       -1 -1    0    0    0  501 -0.0000000000e+00 +0.0000000000e+00 +1.3647936350e+02 1.3647936350e+02 0.0000000000e+00 0.0000e+00 1.0000e+00
        1 -1    0    0  501    0 +0.0000000000e+00 -0.0000000000e+00 -9.1846165653e+01 9.1846165653e+01 0.0000000000e+00 0.0000e+00 -1.0000e+00
       24  1    1    2    0    0 -4.6603816387e+00 +7.7035526088e+01 +3.3093274125e+01 1.1626939487e+02 8.0419002446e+01 0.0000e+00 -1.0000e+00
      -24  1    1    2    0    0 +4.6603816387e+00 -7.7035526088e+01 +1.1539923721e+01 1.1205613428e+02 8.0419002446e+01 0.0000e+00 1.0000e+00
<mgrwt>
<rscale>  0 0.11146034E+03</rscale>
<asrwt>0</asrwt>
<pdfrwt beam="1">  1        1 0.14130179E-01 0.11146034E+03</pdfrwt>
<pdfrwt beam="2">  1       -1 0.20996825E-01 0.11146034E+03</pdfrwt>
<totfact> 0.70035273E+03</totfact>
</mgrwt>
</event>
<event>
 4      2 +5.6305390e+02 2.03393700e+02 7.54677100e-03 1.14690700e-01
       21 -1    0    0  501  502 +0.0000000000e+00 +0.0000000000e+00 +4.5078021396e+01 4.5078021396e+01 0.0000000000e+00 0.0000e+00 -1.0000e+00
       21 -1    0    0  502  503 -0.0000000000e+00 -0.0000000000e+00 -1.6794869840e+03 1.6794869840e+03 0.0000000000e+00 0.0000e+00 1.0000e+00
        6  1    1    2  501    0 +9.7642949012e+01 +4.3655980232e+01 -2.3647697202e+02 3.1191400802e+02 1.7300000000e+02 0.0000e+00 -1.0000e+00
       -6  1    1    2    0  503 -9.7642949012e+01 -4.3655980232e+01 -1.3979319906e+03 1.4126509974e+03 1.7300000000e+02 0.0000e+00 1.0000e+00
<mgrwt>
<rscale>  2 0.20339368E+03</rscale>
<asrwt>0</asrwt>
<pdfrwt beam="1">  1       21 0.69350800E-02 0.20339368E+03</pdfrwt>
<pdfrwt beam="2">  1       21 0.25838262E+00 0.20339368E+03</pdfrwt>
<totfact> 0.90338217E+03</totfact>
</mgrwt>
</event>
<event>
 4      2 +5.6305390e+02 1.73277200e+02 7.54677100e-03 1.17447300e-01
       21 -1    0    0  501  502 +0.0000000000e+00 +0.0000000000e+00 +1.4685888091e+02 1.4685888091e+02 0.0000000000e+00 0.0000e+00 -1.0000e+00
       21 -1    0    0  502  503 -0.0000000000e+00 -0.0000000000e+00 -2.0469431346e+02 2.0469431346e+02 0.0000000000e+00 0.0000e+00 -1.0000e+00
        6  1    1    2  501    0 +2.8978449749e+00 -9.3597965082e+00 -2.2820110196e+01 1.7477345544e+02 1.7300000000e+02 0.0000e+00 1.0000e+00
       -6  1    1    2    0  503 -2.8978449749e+00 +9.3597965082e+00 -3.5015322361e+01 1.7677973893e+02 1.7300000000e+02 0.0000e+00 1.0000e+00
<mgrwt>
<rscale>  2 0.17327724E+03</rscale>
<asrwt>0</asrwt>
<pdfrwt beam="1">  1       21 0.22593674E-01 0.17327724E+03</pdfrwt>
<pdfrwt beam="2">  1       21 0.31491433E-01 0.17327724E+03</pdfrwt>
<totfact> 0.17895957E+05</totfact>
</mgrwt>
</event>
<event>
 4      2 +5.6305390e+02 2.66050300e+02 7.54677100e-03 1.10356200e-01
       21 -1    0    0  501  502 +0.0000000000e+00 +0.0000000000e+00 +2.1126067816e+02 2.1126067816e+02 0.0000000000e+00 0.0000e+00 -1.0000e+00
       21 -1    0    0  502  503 -0.0000000000e+00 -0.0000000000e+00 -4.1660429188e+02 4.1660429188e+02 0.0000000000e+00 0.0000e+00 -1.0000e+00
        6  1    1    2  501    0 -1.8171389853e+02 -8.8508845296e+01 +3.6227309344e+01 2.6850544605e+02 1.7300000000e+02 0.0000e+00 -1.0000e+00
       -6  1    1    2    0  503 +1.8171389853e+02 +8.8508845296e+01 -2.4157092306e+02 3.5935952399e+02 1.7300000000e+02 0.0000e+00 -1.0000e+00
<mgrwt>
<rscale>  2 0.26605029E+03</rscale>
<asrwt>0</asrwt>
<pdfrwt beam="1">  1       21 0.32501643E-01 0.26605029E+03</pdfrwt>
<pdfrwt beam="2">  1       21 0.64092968E-01 0.26605029E+03</pdfrwt>
<totfact> 0.19687884E+04</totfact>
</mgrwt>
</event>
<event>
 4      2 +5.6305390e+02 1.84811100e+02 7.54677100e-03 1.16322600e-01
       21 -1    0    0  501  502 +0.0000000000e+00 +0.0000000000e+00 +4.9279852374e+01 4.9279852374e+01 0.0000000000e+00 0.0000e+00 -1.0000e+00
       21 -1    0    0  502  503 -0.0000000000e+00 -0.0000000000e+00 -7.5639133249e+02 7.5639133249e+02 0.0000000000e+00 0.0000e+00 -1.0000e+00
        6  1    1    2  501    0 -1.1739971843e+01 -6.3939907246e+01 -4.7009635144e+02 5.0511950895e+02 1.7300000000e+02 0.0000e+00 -1.0000e+00
       -6  1    1    2    0  503 +1.1739971843e+01 +6.3939907246e+01 -2.3701512867e+02 3.0055167592e+02 1.7300000000e+02 0.0000e+00 -1.0000e+00
<mgrwt>
<rscale>  2 0.18481109E+03</rscale>
<asrwt>0</asrwt>
<pdfrwt beam="1">  1       21 0.75815162E-02 0.18481109E+03</pdfrwt>
<pdfrwt beam="2">  1       21 0.11636789E+00 0.18481109E+03</pdfrwt>
<totfact> 0.75313127E+04</totfact>
</mgrwt>
</event>
<event>
 4      2 +5.6305390e+02 2.04925900e+02 7.54677100e-03 1.14564800e-01
       21 -1    0    0  501  502 +0.0000000000e+00 +0.0000000000e+00 +4.2438814271e+01 4.2438814271e+01 0.0000000000e+00 0.0000e+00 -1.0000e+00
       21 -1    0    0  502  503 -0.0000000000e+00 -0.0000000000e+00 -1.0128578126e+03 1.0128578126e+03 0.0000000000e+00 0.0000e+00 -1.0000e+00
        6  1    1    2  501    0 -7.0850517060e+01 -8.3939545476e+01 -4.0513918581e+02 4.5401806455e+02 1.7300000000e+02 0.0000e+00 -1.0000e+00
       -6  1    1    2    0  503 +7.0850517060e+01 +8.3939545476e+01 -5.6527981253e+02 6.0127856233e+02 1.7300000000e+02 0.0000e+00 -1.0000e+00
<mgrwt>
<rscale>  2 0.20492595E+03</rscale>
<asrwt>0</asrwt>
<pdfrwt beam="1">  1       21 0.65290485E-02 0.20492595E+03</pdfrwt>
<pdfrwt beam="2">  1       21 0.15582428E+00 0.20492595E+03</pdfrwt>
<totfact> 0.45759462E+04</totfact>
</mgrwt>
</event>
<event>
 4      2 +5.6305390e+02 2.00640600e+02 7.54677100e-03 1.14920000e-01
       21 -1    0    0  501  502 +0.0000000000e+00 +0.0000000000e+00 +3.4203244454e+02 3.4203244454e+02 0.0000000000e+00 0.0000e+00 -1.0000e+00
       21 -1    0    0  502  503 -0.0000000000e+00 -0.0000000000e+00 -1.1814353885e+02 1.1814353885e+02 0.0000000000e+00 0.0000e+00 1.0000e+00
        6  1    1    2  501    0 +7.6542512644e+01 +6.6849672606e+01 +1.2606946291e+02 2.3696021701e+02 1.7300000000e+02 0.0000e+00 1.0000e+00
       -6  1    1    2    0  503 -7.6542512644e+01 -6.6849672606e+01 +9.7819442787e+01 2.2321576637e+02 1.7300000000e+02 0.0000e+00 -1.0000e+00
<mgrwt>
<rscale>  2 0.20064056E+03</rscale>
<asrwt>0</asrwt>
<pdfrwt beam="1">  1       21 0.52620376E-01 0.20064056E+03</pdfrwt>
<pdfrwt beam="2">  1       21 0.18175929E-01 0.20064056E+03</pdfrwt>
<totfact> 0.94107155E+04</totfact>
</mgrwt>
</event>
<event>
 4      3 +5.6305390e+02 8.64132300e+01 7.54677100e-03 1.31177800e-01
        4 -1    0    0  501    0 +0.0000000000e+00 +0.0000000000e+00 +2.1819657604e+01 2.1819657604e+01 0.0000000000e+00 0.0000e+00 -1.0000e+00
       -4 -1    0    0    0  501 -0.0000000000e+00 -0.0000000000e+00 -1.8414519829e+03 1.8414519829e+03 0.0000000000e+00 0.0000e+00 1.0000e+00
       24  1    1    2    0    0 -2.8374722741e+01 -1.3960852310e+01 -6.9196427911e+01 1.1070407345e+02 8.0419002446e+01 0.0000e+00 -1.0000e+00
      -24  1    1    2    0    0 +2.8374722741e+01 +1.3960852310e+01 -1.7504358974e+03 1.7525675670e+03 8.0419002446e+01 0.0000e+00 1.0000e+00
<mgrwt>
<rscale>  0 0.86413230E+02</rscale>
<asrwt>0</asrwt>
<pdfrwt beam="1">  1        4 0.33568701E-02 0.86413230E+02</pdfrwt>
<pdfrwt beam="2">  1       -4 0.28330033E+00 0.86413230E+02</pdfrwt>
<totfact> 0.34270442E+01</totfact>
</mgrwt>
</event>
<event>
 4      2 +5.6305390e+02 1.80915800e+02 7.54677100e-03 1.16692000e-01
       21 -1    0    0  501  502 +0.0000000000e+00 +0.0000000000e+00 +7.2860073536e+02 7.2860073536e+02 0.0000000000e+00 0.0000e+00 1.0000e+00
       21 -1    0    0  502  503 -0.0000000000e+00 -0.0000000000e+00 -1.0615156109e+02 1.0615156109e+02 0.0000000000e+00 0.0000e+00 1.0000e+00
        6  1    1    2  501    0 +3.0293965122e+01 +4.3402694357e+01 +6.2821305981e+02 6.5374472595e+02 1.7300000000e+02 0.0000e+00 1.0000e+00
       -6  1    1    2    0  503 -3.0293965122e+01 -4.3402694357e+01 -5.7638855415e+00 1.8100757050e+02 1.7300000000e+02 0.0000e+00 1.0000e+00
<mgrwt>
<rscale>  2 0.18091578E+03</rscale>
<asrwt>0</asrwt>
<pdfrwt beam="1">  1       21 0.11209242E+00 0.18091578E+03</pdfrwt>
<pdfrwt beam="2">  1       21 0.16331010E-01 0.18091578E+03</pdfrwt>
<totfact> 0.21108366E+04</totfact>
</mgrwt>
</event>
<event>
 4      2 +5.6305390e+02 2.16039300e+02 7.54677100e-03 1.13687100e-01
       21 -1    0    0  501  502 +0.0000000000e+00 +0.0000000000e+00 +9.8604961578e+02 9.8604961578e+02 0.0000000000e+00 0.0000e+00 1.0000e+00
       21 -1    0    0  502  503 -0.0000000000e+00 -0.0000000000e+00 -7.1348879709e+01 7.1348879709e+01 0.0000000000e+00 0.0000e+00 1.0000e+00
        6  1    1    2  501    0 -6.8559674372e+01 +1.0974313617e+02 +7.6408416214e+02 7.9403878477e+02 1.7300000000e+02 0.0000e+00 1.0000e+00
       -6  1    1    2    0  503 +6.8559674372e+01 -1.0974313617e+02 +1.5061657393e+02 2.6335971072e+02 1.7300000000e+02 0.0000e+00 1.0000e+00
<mgrwt>
<rscale>  2 0.21603931E+03</rscale>
<asrwt>0</asrwt>
<pdfrwt beam="1">  1       21 0.15169993E+00 0.21603931E+03</pdfrwt>
<pdfrwt beam="2">  1       21 0.10976751E-01 0.21603931E+03</pdfrwt>
<totfact> 0.19653236E+04</totfact>
</mgrwt>
</event>
<event>
 4      2 +5.6305390e+02 1.84046500e+02 7.54677100e-03 1.16394300e-01
       21 -1    0    0  501  502 +0.0000000000e+00 +0.0000000000e+00 +7.7801510574e+01 7.7801510574e+01 0.0000000000e+00 0.0000e+00 -1.0000e+00
       21 -1    0    0  502  503 -0.0000000000e+00 -0.0000000000e+00 -5.0327559607e+02 5.0327559607e+02 0.0000000000e+00 0.0000e+00 -1.0000e+00
        6  1    1    2  501    0 -4.8555670202e+01 -3.9830245120e+01 -1.0602177089e+02 2.1239989981e+02 1.7300000000e+02 0.0000e+00 -1.0000e+00
       -6  1    1    2    0  503 +4.8555670202e+01 +3.9830245120e+01 -3.1945231460e+02 3.6867720683e+02 1.7300000000e+02 0.0000e+00 -1.0000e+00
<mgrwt>
<rscale>  2 0.18404647E+03</rscale>
<asrwt>0</asrwt>
<pdfrwt beam="1">  1       21 0.11969463E-01 0.18404647E+03</pdfrwt>
<pdfrwt beam="2">  1       21 0.77427017E-01 0.18404647E+03</pdfrwt>
<totfact> 0.87581094E+04</totfact>
</mgrwt>
</event>
<event>
 4      2 +5.6305390e+02 2.26302300e+02 7.54677100e-03 1.12927000e-01
       21 -1    0    0  503  502 +0.0000000000e+00 +0.0000000000e+00 +1.4681036580e+02 1.4681036580e+02 0.0000000000e+00 0.0000e+00 1.0000e+00
       21 -1    0    0  501  503 -0.0000000000e+00 -0.0000000000e+00 -4.9559956536e+02 4.9559956536e+02 0.0000000000e+00 0.0000e+00 -1.0000e+00
        6  1    1    2  501    0 +1.3305564105e+02 +5.9832617470e+01 -3.4918833737e+02 4.1610724661e+02 1.7300000000e+02 0.0000e+00 -1.0000e+00
       -6  1    1    2    0  502 -1.3305564105e+02 -5.9832617470e+01 +3.9913780796e-01 2.2630268456e+02 1.7300000000e+02 0.0000e+00 1.0000e+00
<mgrwt>
<rscale>  2 0.22630233E+03</rscale>
<asrwt>0</asrwt>
<pdfrwt beam="1">  1       21 0.22586210E-01 0.22630233E+03</pdfrwt>
<pdfrwt beam="2">  1       21 0.76246087E-01 0.22630233E+03</pdfrwt>
<totfact> 0.27637196E+04</totfact>
</mgrwt>
</event>
<event>
 4      2 +5.6305390e+02 1.77907000e+02 7.54677100e-03 1.16984400e-01
       21 -1    0    0  501  502 +0.0000000000e+00 +0.0000000000e+00 +2.0516727584e+02 2.0516727584e+02 0.0000000000e+00 0.0000e+00 1.0000e+00
       21 -1    0    0  502  503 -0.0000000000e+00 -0.0000000000e+00 -2.1306001544e+02 2.1306001544e+02 0.0000000000e+00 0.0000e+00 1.0000e+00
        6  1    1    2  501    0 -3.6857254665e+01 +1.9064447357e+01 +1.0590047807e+02 2.0704062797e+02 1.7300000000e+02 0.0000e+00 1.0000e+00
       -6  1    1    2    0  503 +3.6857254665e+01 -1.9064447357e+01 -1.1379321767e+02 2.1118666331e+02 1.7300000000e+02 0.0000e+00 1.0000e+00
<mgrwt>
<rscale>  2 0.17790703E+03</rscale>
<asrwt>0</asrwt>
<pdfrwt beam="1">  1       21 0.31564196E-01 0.17790703E+03</pdfrwt>
<pdfrwt beam="2">  1       21 0.32778464E-01 0.17790703E+03</pdfrwt>
<totfact> 0.86943009E+04</totfact>
</mgrwt>
</event>
<event>
 4      2 +5.6305390e+02 1.90640800e+02 7.54677100e-03 1.15788500e-01
       21 -1    0    0  503  502 +0.0000000000e+00 +0.0000000000e+00 +1.7131039688e+02 1.7131039688e+02 0.0000000000e+00 0.0000e+00 -1.0000e+00
       21 -1    0    0  501  503 -0.0000000000e+00 -0.0000000000e+00 -2.8002020566e+02 2.8002020566e+02 0.0000000000e+00 0.0000e+00 -1.0000e+00
        6  1    1    2  501    0 -3.6884473196e+01 +7.1094579410e+01 -1.6545186026e+02 2.5242468510e+02 1.7300000000e+02 0.0000e+00 -1.0000e+00
       -6  1    1    2    0  502 +3.6884473196e+01 -7.1094579410e+01 +5.6742051487e+01 1.9890591744e+02 1.7300000000e+02 0.0000e+00 -1.0000e+00
<mgrwt>
<rscale>  2 0.19064077E+03</rscale>
<asrwt>0</asrwt>
<pdfrwt beam="1">  1       21 0.26355446E-01 0.19064077E+03</pdfrwt>
<pdfrwt beam="2">  1       21 0.43080031E-01 0.19064077E+03</pdfrwt>
<totfact> 0.70995272E+04</totfact>
</mgrwt>
</event>
<event>
 4      2 +5.6305390e+02 3.45049700e+02 7.54677100e-03 1.06466500e-01
       21 -1    0    0  503  502 +0.0000000000e+00 +0.0000000000e+00 +2.0607499553e+02 2.0607499553e+02 0.0000000000e+00 0.0000e+00 1.0000e+00
       21 -1    0    0  501  503 -0.0000000000e+00 -0.0000000000e+00 -9.3313457268e+02 9.3313457268e+02 0.0000000000e+00 0.0000e+00 -1.0000e+00
        6  1    1    2  501    0 +2.8625771357e+02 -8.4775213454e+01 -7.1505161453e+02 7.9395095997e+02 1.7300000000e+02 0.0000e+00 -1.0000e+00
       -6  1    1    2    0  502 -2.8625771357e+02 +8.4775213454e+01 -1.2007962623e+01 3.4525860824e+02 1.7300000000e+02 0.0000e+00 1.0000e+00
<mgrwt>
<rscale>  2 0.34504973E+03</rscale>
<asrwt>0</asrwt>
<pdfrwt beam="1">  1       21 0.31703846E-01 0.34504973E+03</pdfrwt>
<pdfrwt beam="2">  1       21 0.14355916E+00 0.34504973E+03</pdfrwt>
<totfact> 0.28950660E+03</totfact>
</mgrwt>
</event>
<event>
 4      3 +5.6305390e+02 8.30447300e+01 7.54677100e-03 1.32062600e-01
        1 -1    0    0  501    0 +0.0000000000e+00 +0.0000000000e+00 +1.5609358168e+03 1.5609358168e+03 0.0000000000e+00 0.0000e+00 -1.0000e+00
       -1 -1    0    0    0  501 -0.0000000000e+00 -0.0000000000e+00 -5.3787567316e+00 5.3787567316e+00 0.0000000000e+00 0.0000e+00 1.0000e+00
       24  1    1    2    0    0 +1.4796395365e+00 +2.0664517461e+01 +4.4681213679e+02 4.5446398444e+02 8.0419002446e+01 0.0000e+00 1.0000e+00
      -24  1    1    2    0    0 -1.4796395365e+00 -2.0664517461e+01 +1.1087449232e+03 1.1118505891e+03 8.0419002446e+01 0.0000e+00 0.0000e+00
<mgrwt>
<rscale>  0 0.83044732E+02</rscale>
<asrwt>0</asrwt>
<pdfrwt beam="1">  1        1 0.24014361E+00 0.83044732E+02</pdfrwt>
<pdfrwt beam="2">  1       -1 0.82750228E-03 0.83044732E+02</pdfrwt>
<totfact> 0.15108862E+04</totfact>
</mgrwt>
</event>
<event>
 4      2 +5.6305390e+02 2.53330200e+02 7.54677100e-03 1.11121800e-01
       21 -1    0    0  501  502 +0.0000000000e+00 +0.0000000000e+00 +2.7090904616e+02 2.7090904616e+02 0.0000000000e+00 0.0000e+00 1.0000e+00
       21 -1    0    0  502  503 -0.0000000000e+00 -0.0000000000e+00 -3.7083309614e+02 3.7083309614e+02 0.0000000000e+00 0.0000e+00 1.0000e+00
        6  1    1    2  501    0 +1.8505899141e+02 +5.8896931479e-01 +1.4287849603e+02 2.9084436012e+02 1.7300000000e+02 0.0000e+00 1.0000e+00
       -6  1    1    2    0  503 -1.8505899141e+02 -5.8896931479e-01 -2.4280254601e+02 3.5089778218e+02 1.7300000000e+02 0.0000e+00 1.0000e+00
<mgrwt>
<rscale>  2 0.25333017E+03</rscale>
<asrwt>0</asrwt>
<pdfrwt beam="1">  1       21 0.41678315E-01 0.25333017E+03</pdfrwt>
<pdfrwt beam="2">  1       21 0.57051245E-01 0.25333017E+03</pdfrwt>
<totfact> 0.15451306E+04</totfact>
</mgrwt>
</event>
<event>
 4      2 +5.6305390e+02 1.80382700e+02 7.54677100e-03 1.16743300e-01
       21 -1    0    0  501  502 +0.0000000000e+00 +0.0000000000e+00 +5.3878238966e+01 5.3878238966e+01 0.0000000000e+00 0.0000e+00 1.0000e+00
       21 -1    0    0  502  503 -0.0000000000e+00 -0.0000000000e+00 -7.7511518194e+02 7.7511518194e+02 0.0000000000e+00 0.0000e+00 1.0000e+00
        6  1    1    2  501    0 +1.3143093967e+01 +4.9357582052e+01 -1.6581833795e+02 2.4501761779e+02 1.7300000000e+02 0.0000e+00 1.0000e+00
       -6  1    1    2    0  503 -1.3143093967e+01 -4.9357582052e+01 -5.5541860502e+02 5.8397580311e+02 1.7300000000e+02 0.0000e+00 1.0000e+00
<mgrwt>
<rscale>  2 0.18038268E+03</rscale>
<asrwt>0</asrwt>
<pdfrwt beam="1">  1       21 0.82889605E-02 0.18038268E+03</pdfrwt>
<pdfrwt beam="2">  1       21 0.11924848E+00 0.18038268E+03</pdfrwt>
<totfact> 0.60875829E+04</totfact>
</mgrwt>
</event>
<event>
 4      2 +5.6305390e+02 2.71300900e+02 7.54677100e-03 1.10053700e-01
       21 -1    0    0  501  502 +0.0000000000e+00 +0.0000000000e+00 +5.1995528449e+02 5.1995528449e+02 0.0000000000e+00 0.0000e+00 1.0000e+00
       21 -1    0    0  502  503 -0.0000000000e+00 -0.0000000000e+00 -1.5554375230e+02 1.5554375230e+02 0.0000000000e+00 0.0000e+00 -1.0000e+00
        6  1    1    2  501    0 +9.3357356753e+01 -1.8697487531e+02 +2.8348031632e+02 3.9238411002e+02 1.7300000000e+02 0.0000e+00 1.0000e+00
       -6  1    1    2    0  503 -9.3357356753e+01 +1.8697487531e+02 +8.0931215876e+01 2.8311492677e+02 1.7300000000e+02 0.0000e+00 -1.0000e+00
<mgrwt>
<rscale>  2 0.27130094E+03</rscale>
<asrwt>0</asrwt>
<pdfrwt beam="1">  1       21 0.79993120E-01 0.27130094E+03</pdfrwt>
<pdfrwt beam="2">  1       21 0.23929808E-01 0.27130094E+03</pdfrwt>
<totfact> 0.21739217E+04</totfact>
</mgrwt>
</event>
<event>
 4      2 +5.6305390e+02 1.94996700e+02 7.54677100e-03 1.15403000e-01
       21 -1    0    0  501  502 +0.0000000000e+00 +0.0000000000e+00 +2.8909274340e+02 2.8909274340e+02 0.0000000000e+00 0.0000e+00 1.0000e+00
       21 -1    0    0  502  503 -0.0000000000e+00 -0.0000000000e+00 -1.4107066662e+02 1.4107066662e+02 0.0000000000e+00 0.0000e+00 1.0000e+00
        6  1    1    2  501    0 -8.8400013425e+00 +8.9535325942e+01 +1.2995143072e+02 2.3433116430e+02 1.7300000000e+02 0.0000e+00 1.0000e+00
       -6  1    1    2    0  503 +8.8400013425e+00 -8.9535325942e+01 +1.8070646061e+01 1.9583224572e+02 1.7300000000e+02 0.0000e+00 1.0000e+00
<mgrwt>
<rscale>  2 0.19499672E+03</rscale>
<asrwt>0</asrwt>
<pdfrwt beam="1">  1       21 0.44475807E-01 0.19499672E+03</pdfrwt>
<pdfrwt beam="2">  1       21 0.21703180E-01 0.19499672E+03</pdfrwt>
<totfact> 0.96037699E+04</totfact>
</mgrwt>
</event>
<event>
 4      3 +5.6305390e+02 1.06004000e+02 7.54677100e-03 1.26815400e-01
       -2 -1    0    0    0  501 -0.0000000000e+00 +0.0000000000e+00 +1.4647728071e+01 1.4647728071e+01 0.0000000000e+00 0.0000e+00 1.0000e+00
        2 -1    0    0  501    0 +0.0000000000e+00 -0.0000000000e+00 -9.7985206424e+02 9.7985206424e+02 0.0000000000e+00 0.0000e+00 -1.0000e+00
       24  1    1    2    0    0 +1.8569206027e+01 -6.6519247504e+01 -7.1428382644e+02 7.2210679706e+02 8.0419002446e+01 0.0000e+00 -1.0000e+00
      -24  1    1    2    0    0 -1.8569206027e+01 +6.6519247504e+01 -2.5092050973e+02 2.7239299524e+02 8.0419002446e+01 0.0000e+00 1.0000e+00
<mgrwt>
<rscale>  0 0.10600397E+03</rscale>
<asrwt>0</asrwt>
<pdfrwt beam="1">  1        2 0.15074650E+00 0.10600397E+03</pdfrwt>
<pdfrwt beam="2">  1       -2 0.22534963E-02 0.10600397E+03</pdfrwt>
<totfact> 0.16445611E+04</totfact>
</mgrwt>
</event>
<event>
 4      2 +5.6305390e+02 2.04821100e+02 7.54677100e-03 1.14573400e-01
       21 -1    0    0  503  502 +0.0000000000e+00 +0.0000000000e+00 +4.8255128244e+02 4.8255128244e+02 0.0000000000e+00 0.0000e+00 -1.0000e+00
       21 -1    0    0  501  503 -0.0000000000e+00 -0.0000000000e+00 -1.4034130942e+02 1.4034130942e+02 0.0000000000e+00 0.0000e+00 1.0000e+00
        6  1    1    2  501    0 -8.9939136924e+01 +6.2718630283e+01 -2.1017234383e+01 2.0589657374e+02 1.7300000000e+02 0.0000e+00 1.0000e+00
       -6  1    1    2    0  502 +8.9939136924e+01 -6.2718630283e+01 +3.6322720741e+02 4.1699601813e+02 1.7300000000e+02 0.0000e+00 -1.0000e+00
<mgrwt>
<rscale>  2 0.20482108E+03</rscale>
<asrwt>0</asrwt>
<pdfrwt beam="1">  1       21 0.74238658E-01 0.20482108E+03</pdfrwt>
<pdfrwt beam="2">  1       21 0.21590971E-01 0.20482108E+03</pdfrwt>
<totfact> 0.32310316E+04</totfact>
</mgrwt>
</event>
<event>
 4      2 +5.6305390e+02 3.36356900e+02 7.54677100e-03 1.06835800e-01
       -2 -1    0    0    0  501 -0.0000000000e+00 +0.0000000000e+00 +2.3544760540e+02 2.3544760540e+02 0.0000000000e+00 0.0000e+00 1.0000e+00
        2 -1    0    0  502    0 +0.0000000000e+00 -0.0000000000e+00 -7.5050204762e+02 7.5050204762e+02 0.0000000000e+00 0.0000e+00 -1.0000e+00
        6  1    1    2  502    0 -2.6550010826e+02 -1.1276803083e+02 -5.5320647060e+02 6.4743597009e+02 1.7300000000e+02 0.0000e+00 -1.0000e+00
       -6  1    1    2    0  501 +2.6550010826e+02 +1.1276803083e+02 +3.8152028377e+01 3.3851368293e+02 1.7300000000e+02 0.0000e+00 1.0000e+00
<mgrwt>
<rscale>  2 0.33635686E+03</rscale>
<asrwt>0</asrwt>
<pdfrwt beam="1">  1        2 0.11546186E+00 0.33635686E+03</pdfrwt>
<pdfrwt beam="2">  1       -2 0.36222708E-01 0.33635686E+03</pdfrwt>
<totfact> 0.27764215E+02</totfact>
</mgrwt>
</event>
<event>
 4      2 +5.6305390e+02 1.85444300e+02 7.54677100e-03 1.16263600e-01
       21 -1    0    0  503  502 +0.0000000000e+00 +0.0000000000e+00 +9.9474006557e+01 9.9474006557e+01 0.0000000000e+00 0.0000e+00 1.0000e+00
       21 -1    0    0  501  503 -0.0000000000e+00 -0.0000000000e+00 -3.4571617952e+02 3.4571617952e+02 0.0000000000e+00 0.0000e+00 1.0000e+00
        6  1    1    2  501    0 -4.2010937541e+00 +6.6655369777e+01 -1.2363876128e+02 2.2288142767e+02 1.7300000000e+02 0.0000e+00 1.0000e+00
       -6  1    1    2    0  502 +4.2010937541e+00 -6.6655369777e+01 -1.2260341168e+02 2.2230875841e+02 1.7300000000e+02 0.0000e+00 1.0000e+00
<mgrwt>
<rscale>  2 0.18544430E+03</rscale>
<asrwt>0</asrwt>
<pdfrwt beam="1">  1       21 0.15303693E-01 0.18544430E+03</pdfrwt>
<pdfrwt beam="2">  1       21 0.53187104E-01 0.18544430E+03</pdfrwt>
<totfact> 0.12693447E+05</totfact>
</mgrwt>
</event>
<event>
 4      2 +5.6305390e+02 1.73876700e+02 7.54677100e-03 1.17386400e-01
       -2 -1    0    0    0  501 -0.0000000000e+00 +0.0000000000e+00 +5.7972299833e+02 5.7972299833e+02 0.0000000000e+00 0.0000e+00 1.0000e+00
        2 -1    0    0  502    0 +0.0000000000e+00 -0.0000000000e+00 -1.2784846171e+02 1.2784846171e+02 0.0000000000e+00 0.0000e+00 -1.0000e+00
        6  1    1    2  502    0 +1.3943040855e+01 +1.0474163059e+01 -4.6291052164e+01 1.7993325982e+02 1.7300000000e+02 0.0000e+00 -1.0000e+00
       -6  1    1    2    0  501 -1.3943040855e+01 -1.0474163059e+01 +4.9816558878e+02 5.2763820022e+02 1.7300000000e+02 0.0000e+00 1.0000e+00
<mgrwt>
<rscale>  2 0.17387673E+03</rscale>
<asrwt>0</asrwt>
<pdfrwt beam="1">  1        2 0.19668994E-01 0.17387673E+03</pdfrwt>
<pdfrwt beam="2">  1       -2 0.89188152E-01 0.17387673E+03</pdfrwt>
<totfact> 0.31643709E+02</totfact>
</mgrwt>
</event>
<event>
 4      2 +5.6305390e+02 1.97559300e+02 7.54677100e-03 1.15181500e-01
       21 -1    0    0  503  502 +0.0000000000e+00 +0.0000000000e+00 +2.0285199003e+02 2.0285199003e+02 0.0000000000e+00 0.0000e+00 -1.0000e+00
       21 -1    0    0  501  503 -0.0000000000e+00 -0.0000000000e+00 -2.3452970483e+02 2.3452970483e+02 0.0000000000e+00 0.0000e+00 1.0000e+00
        6  1    1    2  501    0 -7.1849376525e+01 -6.2756195976e+01 -1.0852221178e+02 2.2540351259e+02 1.7300000000e+02 0.0000e+00 1.0000e+00
       -6  1    1    2    0  502 +7.1849376525e+01 +6.2756195976e+01 +7.6844496986e+01 2.1197818227e+02 1.7300000000e+02 0.0000e+00 -1.0000e+00
<mgrwt>
<rscale>  2 0.19755929E+03</rscale>
<asrwt>0</asrwt>
<pdfrwt beam="1">  1       21 0.31207999E-01 0.19755929E+03</pdfrwt>
<pdfrwt beam="2">  1       21 0.36081493E-01 0.19755929E+03</pdfrwt>
<totfact> 0.72918558E+04</totfact>
</mgrwt>
</event>
<event>
 4      2 +5.6305390e+02 2.11027500e+02 7.54677100e-03 1.14075500e-01
        1 -1    0    0  502    0 +0.0000000000e+00 +0.0000000000e+00 +1.3401021461e+03 1.3401021461e+03 0.0000000000e+00 0.0000e+00 -1.0000e+00
       -1 -1    0    0    0  501 -0.0000000000e+00 -0.0000000000e+00 -3.5839344056e+01 3.5839344056e+01 0.0000000000e+00 0.0000e+00 1.0000e+00
        6  1    1    2  502    0 -3.3198127557e+00 -1.2079971405e+02 +8.3773810109e+02 8.6390839681e+02 1.7300000000e+02 0.0000e+00 -1.0000e+00
       -6  1    1    2    0  501 +3.3198127557e+00 +1.2079971405e+02 +4.6652470091e+02 5.1203309329e+02 1.7300000000e+02 0.0000e+00 1.0000e+00
<mgrwt>
<rscale>  2 0.21102747E+03</rscale>
<asrwt>0</asrwt>
<pdfrwt beam="1">  1        1 0.20616952E+00 0.21102747E+03</pdfrwt>
<pdfrwt beam="2">  1       -1 0.55137463E-02 0.21102747E+03</pdfrwt>
<totfact> 0.13942392E+03</totfact>
</mgrwt>
</event>
<event>
 4      2 +5.6305390e+02 1.80027800e+02 7.54677100e-03 1.16777600e-01
       21 -1    0    0  501  502 +0.0000000000e+00 +0.0000000000e+00 +1.6665668638e+02 1.6665668638e+02 0.0000000000e+00 0.0000e+00 1.0000e+00
       21 -1    0    0  502  503 -0.0000000000e+00 -0.0000000000e+00 -2.2350176338e+02 2.2350176338e+02 0.0000000000e+00 0.0000e+00 1.0000e+00
        6  1    1    2  501    0 +1.4133779222e+01 +4.7762392810e+01 +4.1883803420e+01 1.8483577270e+02 1.7300000000e+02 0.0000e+00 -1.0000e+00
       -6  1    1    2    0  503 -1.4133779222e+01 -4.7762392810e+01 -9.8728880428e+01 2.0532267705e+02 1.7300000000e+02 0.0000e+00 -1.0000e+00
<mgrwt>
<rscale>  2 0.18002780E+03</rscale>
<asrwt>0</asrwt>
<pdfrwt beam="1">  1       21 0.25639490E-01 0.18002780E+03</pdfrwt>
<pdfrwt beam="2">  1       21 0.34384887E-01 0.18002780E+03</pdfrwt>
<totfact> 0.11816644E+05</totfact>
</mgrwt>
</event>
<event>
 4      2 +5.6305390e+02 1.86681800e+02 7.54677100e-03 1.16148900e-01
       21 -1    0    0  503  502 +0.0000000000e+00 +0.0000000000e+00 +2.5652653271e+02 2.5652653271e+02 0.0000000000e+00 0.0000e+00 -1.0000e+00
       21 -1    0    0  501  503 -0.0000000000e+00 -0.0000000000e+00 -1.3636176423e+02 1.3636176423e+02 0.0000000000e+00 0.0000e+00 1.0000e+00
        6  1    1    2  501    0 +2.9607102387e+00 +7.0088110992e+01 +4.8092878072e+01 1.9277716159e+02 1.7300000000e+02 0.0000e+00 1.0000e+00
       -6  1    1    2    0  502 -2.9607102387e+00 -7.0088110992e+01 +7.2071890410e+01 2.0011113536e+02 1.7300000000e+02 0.0000e+00 1.0000e+00
<mgrwt>
<rscale>  2 0.18668184E+03</rscale>
<asrwt>0</asrwt>
<pdfrwt beam="1">  1       21 0.39465620E-01 0.18668184E+03</pdfrwt>
<pdfrwt beam="2">  1       21 0.20978733E-01 0.18668184E+03</pdfrwt>
<totfact> 0.13091005E+05</totfact>
</mgrwt>
</event>
<event>
 4      2 +5.6305390e+02 2.75764200e+02 7.54677100e-03 1.09802500e-01
       21 -1    0    0  503  502 +0.0000000000e+00 +0.0000000000e+00 +2.1695623603e+02 2.1695623603e+02 0.0000000000e+00 0.0000e+00 -1.0000e+00
       21 -1    0    0  501  503 -0.0000000000e+00 -0.0000000000e+00 -1.0727443833e+03 1.0727443833e+03 0.0000000000e+00 0.0000e+00 1.0000e+00
        6  1    1    2  501    0 -1.6463898588e+02 -1.3788005886e+02 -9.5700785066e+02 9.9594675185e+02 1.7300000000e+02 0.0000e+00 1.0000e+00
       -6  1    1    2    0  502 +1.6463898588e+02 +1.3788005886e+02 +1.0121970339e+02 2.9375386747e+02 1.7300000000e+02 0.0000e+00 -1.0000e+00
<mgrwt>
<rscale>  2 0.27576422E+03</rscale>
<asrwt>0</asrwt>
<pdfrwt beam="1">  1       21 0.33377883E-01 0.27576422E+03</pdfrwt>
<pdfrwt beam="2">  1       21 0.16503759E+00 0.27576422E+03</pdfrwt>
<totfact> 0.18662199E+03</totfact>
</mgrwt>
</event>
<event>
 4      2 +5.6305390e+02 1.84095800e+02 7.54677100e-03 1.16389700e-01
       21 -1    0    0  503  502 +0.0000000000e+00 +0.0000000000e+00 +7.3032990154e+01 7.3032990154e+01 0.0000000000e+00 0.0000e+00 1.0000e+00
       21 -1    0    0  501  503 -0.0000000000e+00 -0.0000000000e+00 -7.3590051677e+02 7.3590051677e+02 0.0000000000e+00 0.0000e+00 1.0000e+00
        6  1    1    2  501    0 +3.1756592809e+01 -5.4348671020e+01 -5.7726387235e+02 6.0590827487e+02 1.7300000000e+02 0.0000e+00 1.0000e+00
       -6  1    1    2    0  502 -3.1756592809e+01 +5.4348671020e+01 -8.5603654264e+01 2.0302523206e+02 1.7300000000e+02 0.0000e+00 1.0000e+00
<mgrwt>
<rscale>  2 0.18409579E+03</rscale>
<asrwt>0</asrwt>
<pdfrwt beam="1">  1       21 0.11235844E-01 0.18409579E+03</pdfrwt>
<pdfrwt beam="2">  1       21 0.11321547E+00 0.18409579E+03</pdfrwt>
<totfact> 0.40376629E+04</totfact>
</mgrwt>
</event>
<event>
 4      2 +5.6305390e+02 2.56283100e+02 7.54677100e-03 1.10939700e-01
       21 -1    0    0  501  502 +0.0000000000e+00 +0.0000000000e+00 +7.1527858146e+01 7.1527858146e+01 0.0000000000e+00 0.0000e+00 1.0000e+00
       21 -1    0    0  502  503 -0.0000000000e+00 -0.0000000000e+00 -9.1951908519e+02 9.1951908519e+02 0.0000000000e+00 0.0000e+00 1.0000e+00
        6  1    1    2  501    0 +1.8903259881e+02 -4.3253872609e+00 -4.0564521817e+02 4.7982192052e+02 1.7300000000e+02 0.0000e+00 1.0000e+00
       -6  1    1    2    0  503 -1.8903259881e+02 +4.3253872609e+00 -4.4234600888e+02 5.1122502282e+02 1.7300000000e+02 0.0000e+00 1.0000e+00
<mgrwt>
<rscale>  2 0.25628311E+03</rscale>
<asrwt>0</asrwt>
<pdfrwt beam="1">  1       21 0.11004287E-01 0.25628311E+03</pdfrwt>
<pdfrwt beam="2">  1       21 0.14146446E+00 0.25628311E+03</pdfrwt>
<totfact> 0.22992631E+04</totfact>
</mgrwt>
</event>
<event>
 4      2 +5.6305390e+02 1.91470800e+02 7.54677100e-03 1.15714100e-01
       21 -1    0    0  501  502 +0.0000000000e+00 +0.0000000000e+00 +1.2797862448e+02 1.2797862448e+02 0.0000000000e+00 0.0000e+00 -1.0000e+00
       21 -1    0    0  502  503 -0.0000000000e+00 -0.0000000000e+00 -5.2014945491e+02 5.2014945491e+02 0.0000000000e+00 0.0000e+00 1.0000e+00
        6  1    1    2  501    0 -8.0984753911e+01 -1.3173028252e+01 +2.1126742985e+01 1.9263280694e+02 1.7300000000e+02 0.0000e+00 -1.0000e+00
       -6  1    1    2    0  503 +8.0984753911e+01 +1.3173028252e+01 -4.1329757342e+02 4.5549527246e+02 1.7300000000e+02 0.0000e+00 1.0000e+00
<mgrwt>
<rscale>  2 0.19147078E+03</rscale>
<asrwt>0</asrwt>
<pdfrwt beam="1">  1       21 0.19689019E-01 0.19147078E+03</pdfrwt>
<pdfrwt beam="2">  1       21 0.80022994E-01 0.19147078E+03</pdfrwt>
<totfact> 0.32690628E+04</totfact>
</mgrwt>
</event>
<event>
 4      2 +5.6305390e+02 1.80089600e+02 7.54677100e-03 1.16771600e-01
       21 -1    0    0  503  502 +0.0000000000e+00 +0.0000000000e+00 +7.5254689169e+01 7.5254689169e+01 0.0000000000e+00 0.0000e+00 1.0000e+00
       21 -1    0    0  501  503 -0.0000000000e+00 -0.0000000000e+00 -5.5972679087e+02 5.5972679087e+02 0.0000000000e+00 0.0000e+00 1.0000e+00
        6  1    1    2  501    0 +4.9932380487e+01 +3.1650160848e+00 -3.9451285983e+02 4.3367344457e+02 1.7300000000e+02 0.0000e+00 1.0000e+00
       -6  1    1    2    0  502 -4.9932380487e+01 -3.1650160848e+00 -8.9959241867e+01 2.0130803547e+02 1.7300000000e+02 0.0000e+00 1.0000e+00
<mgrwt>
<rscale>  2 0.18008959E+03</rscale>
<asrwt>0</asrwt>
<pdfrwt beam="1">  1       21 0.11577645E-01 0.18008959E+03</pdfrwt>
<pdfrwt beam="2">  1       21 0.86111814E-01 0.18008959E+03</pdfrwt>
<totfact> 0.73168390E+04</totfact>
</mgrwt>
</event>
<event>
 4      2 +5.6305390e+02 1.75003900e+02 7.54677100e-03 1.17272800e-01
       21 -1    0    0  503  502 +0.0000000000e+00 +0.0000000000e+00 +4.7528907336e+01 4.7528907336e+01 0.0000000000e+00 0.0000e+00 1.0000e+00
       21 -1    0    0  501  503 -0.0000000000e+00 -0.0000000000e+00 -7.7727398849e+02 7.7727398849e+02 0.0000000000e+00 0.0000e+00 1.0000e+00
        6  1    1    2  501    0 +1.5370681974e+01 -2.1473335937e+01 -5.3540090285e+02 5.6327656511e+02 1.7300000000e+02 0.0000e+00 1.0000e+00
       -6  1    1    2    0  502 -1.5370681974e+01 +2.1473335937e+01 -1.9434417830e+02 2.6152633072e+02 1.7300000000e+02 0.0000e+00 1.0000e+00
<mgrwt>
<rscale>  2 0.17500389E+03</rscale>
<asrwt>0</asrwt>
<pdfrwt beam="1">  1       21 0.73121405E-02 0.17500389E+03</pdfrwt>
<pdfrwt beam="2">  1       21 0.11958060E+00 0.17500389E+03</pdfrwt>
<totfact> 0.75349915E+04</totfact>
</mgrwt>
</event>
<event>
 4      2 +5.6305390e+02 2.25554000e+02 7.54677100e-03 1.12980900e-01
       21 -1    0    0  503  502 +0.0000000000e+00 +0.0000000000e+00 +3.7950236437e+02 3.7950236437e+02 0.0000000000e+00 0.0000e+00 1.0000e+00
       21 -1    0    0  501  503 -0.0000000000e+00 -0.0000000000e+00 -1.7264806433e+02 1.7264806433e+02 0.0000000000e+00 0.0000e+00 -1.0000e+00
        6  1    1    2  501    0 +8.2942174482e+01 +1.1860093878e+02 -2.7098329984e+01 2.2717593727e+02 1.7300000000e+02 0.0000e+00 -1.0000e+00
       -6  1    1    2    0  502 -8.2942174482e+01 -1.1860093878e+02 +2.3395263002e+02 3.2497449143e+02 1.7300000000e+02 0.0000e+00 1.0000e+00
<mgrwt>
<rscale>  2 0.22555396E+03</rscale>
<asrwt>0</asrwt>
<pdfrwt beam="1">  1       21 0.58384979E-01 0.22555396E+03</pdfrwt>
<pdfrwt beam="2">  1       21 0.26561241E-01 0.22555396E+03</pdfrwt>
<totfact> 0.36439886E+04</totfact>
</mgrwt>
</event>
<event>
 4      3 +5.6305390e+02 8.63610500e+01 7.54677100e-03 1.31191100e-01
       -2 -1    0    0    0  501 -0.0000000000e+00 +0.0000000000e+00 +2.1221716492e+01 2.1221716492e+01 0.0000000000e+00 0.0000e+00 1.0000e+00
        2 -1    0    0  501    0 +0.0000000000e+00 -0.0000000000e+00 -9.8283932601e+02 9.8283932601e+02 0.0000000000e+00 0.0000e+00 -1.0000e+00
       24  1    1    2    0    0 -2.5487222750e+01 -1.8477460192e+01 -8.8319193546e+02 8.8740420659e+02 8.0419002446e+01 0.0000e+00 -1.0000e+00
      -24  1    1    2    0    0 +2.5487222750e+01 +1.8477460192e+01 -7.8425674053e+01 1.1665683591e+02 8.0419002446e+01 0.0000e+00 1.0000e+00
<mgrwt>
<rscale>  0 0.86361050E+02</rscale>
<asrwt>0</asrwt>
<pdfrwt beam="1">  1        2 0.15120605E+00 0.86361050E+02</pdfrwt>
<pdfrwt beam="2">  1       -2 0.32648794E-02 0.86361050E+02</pdfrwt>
<totfact> 0.94254665E+03</totfact>
</mgrwt>
</event>
<event>
 4      2 +5.6305390e+02 2.11930900e+02 7.54677100e-03 1.14004600e-01
       21 -1    0    0  501  502 +0.0000000000e+00 +0.0000000000e+00 +1.0624922729e+03 1.0624922729e+03 0.0000000000e+00 0.0000e+00 1.0000e+00
       21 -1    0    0  502  503 -0.0000000000e+00 -0.0000000000e+00 -4.8591117392e+01 4.8591117392e+01 0.0000000000e+00 0.0000e+00 -1.0000e+00
        6  1    1    2  501    0 -1.0675830001e+01 -1.2194970655e+02 +7.0727462394e+02 7.3834415955e+02 1.7300000000e+02 0.0000e+00 -1.0000e+00
       -6  1    1    2    0  503 +1.0675830001e+01 +1.2194970655e+02 +3.0662653157e+02 3.7273923074e+02 1.7300000000e+02 0.0000e+00 -1.0000e+00
<mgrwt>
<rscale>  2 0.21193090E+03</rscale>
<asrwt>0</asrwt>
<pdfrwt beam="1">  1       21 0.16346033E+00 0.21193090E+03</pdfrwt>
<pdfrwt beam="2">  1       21 0.74755573E-02 0.21193090E+03</pdfrwt>
<totfact> 0.31680027E+04</totfact>
</mgrwt>
</event>
<event>
 4      2 +5.6305390e+02 1.75477000e+02 7.54677100e-03 1.17225400e-01
       21 -1    0    0  501  502 +0.0000000000e+00 +0.0000000000e+00 +9.8441065829e+01 9.8441065829e+01 0.0000000000e+00 0.0000e+00 1.0000e+00
       21 -1    0    0  502  503 -0.0000000000e+00 -0.0000000000e+00 -3.4639590347e+02 3.4639590347e+02 0.0000000000e+00 0.0000e+00 1.0000e+00
        6  1    1    2  501    0 +1.2969822086e+01 -2.6362255386e+01 -5.4708322217e+01 1.8380746806e+02 1.7300000000e+02 0.0000e+00 1.0000e+00
       -6  1    1    2    0  503 -1.2969822086e+01 +2.6362255386e+01 -1.9324651542e+02 2.6102950124e+02 1.7300000000e+02 0.0000e+00 1.0000e+00
<mgrwt>
<rscale>  2 0.17547702E+03</rscale>
<asrwt>0</asrwt>
<pdfrwt beam="1">  1       21 0.15144779E-01 0.17547702E+03</pdfrwt>
<pdfrwt beam="2">  1       21 0.53291678E-01 0.17547702E+03</pdfrwt>
<totfact> 0.12929044E+05</totfact>
</mgrwt>
</event>
<event>
 4      2 +5.6305390e+02 2.19591500e+02 7.54677100e-03 1.13418800e-01
       21 -1    0    0  501  502 +0.0000000000e+00 +0.0000000000e+00 +1.6360287543e+02 1.6360287543e+02 0.0000000000e+00 0.0000e+00 1.0000e+00
       21 -1    0    0  502  503 -0.0000000000e+00 -0.0000000000e+00 -8.9339536230e+02 8.9339536230e+02 0.0000000000e+00 0.0000e+00 1.0000e+00
        6  1    1    2  501    0 -4.1840306201e+00 -1.3518100359e+02 +6.7727789174e+01 2.2979874514e+02 1.7300000000e+02 0.0000e+00 1.0000e+00
       -6  1    1    2    0  503 +4.1840306201e+00 +1.3518100359e+02 -7.9752027605e+02 8.2719949259e+02 1.7300000000e+02 0.0000e+00 1.0000e+00
<mgrwt>
<rscale>  2 0.21959146E+03</rscale>
<asrwt>0</asrwt>
<pdfrwt beam="1">  1       21 0.25169673E-01 0.21959146E+03</pdfrwt>
<pdfrwt beam="2">  1       21 0.13744544E+00 0.21959146E+03</pdfrwt>
<totfact> 0.54931107E+03</totfact>
</mgrwt>
</event>
<event>
 4      2 +5.6305390e+02 2.42098700e+02 7.54677100e-03 1.11840300e-01
       21 -1    0    0  503  502 +0.0000000000e+00 +0.0000000000e+00 +2.9048468384e+02 2.9048468384e+02 0.0000000000e+00 0.0000e+00 -1.0000e+00
       21 -1    0    0  501  503 -0.0000000000e+00 -0.0000000000e+00 -3.3685094189e+02 3.3685094189e+02 0.0000000000e+00 0.0000e+00 1.0000e+00
        6  1    1    2  501    0 +1.4801069785e+02 +8.2314025835e+01 +1.7544666863e+02 2.9898712190e+02 1.7300000000e+02 0.0000e+00 -1.0000e+00
       -6  1    1    2    0  502 -1.4801069785e+02 -8.2314025835e+01 -2.2181292668e+02 3.2834850383e+02 1.7300000000e+02 0.0000e+00 1.0000e+00
<mgrwt>
<rscale>  2 0.24209867E+03</rscale>
<asrwt>0</asrwt>
<pdfrwt beam="1">  1       21 0.44689951E-01 0.24209867E+03</pdfrwt>
<pdfrwt beam="2">  1       21 0.51823222E-01 0.24209867E+03</pdfrwt>
<totfact> 0.16515611E+04</totfact>
</mgrwt>
</event>
<event>
 4      2 +5.6305390e+02 1.99319500e+02 7.54677100e-03 1.15031400e-01
       21 -1    0    0  501  502 +0.0000000000e+00 +0.0000000000e+00 +5.7545357230e+02 5.7545357230e+02 0.0000000000e+00 0.0000e+00 1.0000e+00
       21 -1    0    0  502  503 -0.0000000000e+00 -0.0000000000e+00 -7.7751864700e+01 7.7751864700e+01 0.0000000000e+00 0.0000e+00 -1.0000e+00
        6  1    1    2  501    0 -8.5262442144e+01 -5.0295070365e+01 +3.5818727132e+02 4.0991023344e+02 1.7300000000e+02 0.0000e+00 1.0000e+00
       -6  1    1    2    0  503 +8.5262442144e+01 +5.0295070365e+01 +1.3951443628e+02 2.4329520355e+02 1.7300000000e+02 0.0000e+00 -1.0000e+00
<mgrwt>
<rscale>  2 0.19931954E+03</rscale>
<asrwt>0</asrwt>
<pdfrwt beam="1">  1       21 0.88531316E-01 0.19931954E+03</pdfrwt>
<pdfrwt beam="2">  1       21 0.11961826E-01 0.19931954E+03</pdfrwt>
<totfact> 0.64201339E+04</totfact>
</mgrwt>
</event>
<event>
 4      2 +5.6305390e+02 1.94797500e+02 7.54677100e-03 1.15420400e-01
       21 -1    0    0  503  502 +0.0000000000e+00 +0.0000000000e+00 +1.4029121382e+02 1.4029121382e+02 0.0000000000e+00 0.0000e+00 1.0000e+00
       21 -1    0    0  501  503 -0.0000000000e+00 -0.0000000000e+00 -2.7219440178e+02 2.7219440178e+02 0.0000000000e+00 0.0000e+00 1.0000e+00
        6  1    1    2  501    0 -8.8111544813e+01 -1.5919222437e+01 -8.2316239813e+01 2.1147583623e+02 1.7300000000e+02 0.0000e+00 1.0000e+00
       -6  1    1    2    0  502 +8.8111544813e+01 +1.5919222437e+01 -4.9586948148e+01 2.0100977936e+02 1.7300000000e+02 0.0000e+00 1.0000e+00
<mgrwt>
<rscale>  2 0.19479750E+03</rscale>
<asrwt>0</asrwt>
<pdfrwt beam="1">  1       21 0.21583264E-01 0.19479750E+03</pdfrwt>
<pdfrwt beam="2">  1       21 0.41876062E-01 0.19479750E+03</pdfrwt>
<totfact> 0.10975625E+05</totfact>
</mgrwt>
</event>
<event>
 4      2 +5.6305390e+02 1.79284800e+02 7.54677100e-03 1.16849700e-01
       21 -1    0    0  503  502 +0.0000000000e+00 +0.0000000000e+00 +2.2608818717e+02 2.2608818717e+02 0.0000000000e+00 0.0000e+00 1.0000e+00
       21 -1    0    0  501  503 -0.0000000000e+00 -0.0000000000e+00 -1.5647395355e+02 1.5647395355e+02 0.0000000000e+00 0.0000e+00 1.0000e+00
        6  1    1    2  501    0 -2.6570525299e+01 +3.8833776729e+01 -2.3025449818e+01 1.8075736878e+02 1.7300000000e+02 0.0000e+00 -1.0000e+00
       -6  1    1    2    0  502 +2.6570525299e+01 -3.8833776729e+01 +9.2639683440e+01 2.0180477194e+02 1.7300000000e+02 0.0000e+00 -1.0000e+00
<mgrwt>
<rscale>  2 0.17928484E+03</rscale>
<asrwt>0</asrwt>
<pdfrwt beam="1">  1       21 0.34782798E-01 0.17928484E+03</pdfrwt>
<pdfrwt beam="2">  1       21 0.24072916E-01 0.17928484E+03</pdfrwt>
<totfact> 0.13027804E+05</totfact>
</mgrwt>
</event>
<event>
 4      2 +5.6305390e+02 1.95945600e+02 7.54677100e-03 1.15320500e-01
       21 -1    0    0  501  502 +0.0000000000e+00 +0.0000000000e+00 +9.5795055076e+02 9.5795055076e+02 0.0000000000e+00 0.0000e+00 1.0000e+00
       21 -1    0    0  502  503 -0.0000000000e+00 -0.0000000000e+00 -4.6108716286e+01 4.6108716286e+01 0.0000000000e+00 0.0000e+00 1.0000e+00
        6  1    1    2  501    0 -7.9265907817e+01 +4.6718316149e+01 +6.3745126540e+02 6.6688739751e+02 1.7300000000e+02 0.0000e+00 1.0000e+00
       -6  1    1    2    0  503 +7.9265907817e+01 -4.6718316149e+01 +2.7439056908e+02 3.3717186954e+02 1.7300000000e+02 0.0000e+00 1.0000e+00
<mgrwt>
<rscale>  2 0.19594562E+03</rscale>
<asrwt>0</asrwt>
<pdfrwt beam="1">  1       21 0.14737699E+00 0.19594562E+03</pdfrwt>
<pdfrwt beam="2">  1       21 0.70936494E-02 0.19594562E+03</pdfrwt>
<totfact> 0.46195542E+04</totfact>
</mgrwt>
</event>
<event>
 4      2 +5.6305390e+02 2.00708000e+02 7.54677100e-03 1.14914300e-01
       21 -1    0    0  501  502 +0.0000000000e+00 +0.0000000000e+00 +1.6134122938e+02 1.6134122938e+02 0.0000000000e+00 0.0000e+00 -1.0000e+00
       21 -1    0    0  502  503 -0.0000000000e+00 -0.0000000000e+00 -1.1021071450e+03 1.1021071450e+03 0.0000000000e+00 0.0000e+00 -1.0000e+00
        6  1    1    2  501    0 -9.9941787536e+01 -1.9139669156e+01 +8.5193988775e+01 2.1804060070e+02 1.7300000000e+02 0.0000e+00 -1.0000e+00
       -6  1    1    2    0  503 +9.9941787536e+01 +1.9139669156e+01 -1.0259599044e+03 1.0454077737e+03 1.7300000000e+02 0.0000e+00 -1.0000e+00
<mgrwt>
<rscale>  2 0.20070797E+03</rscale>
<asrwt>0</asrwt>
<pdfrwt beam="1">  1       21 0.24821728E-01 0.20070797E+03</pdfrwt>
<pdfrwt beam="2">  1       21 0.16955494E+00 0.20070797E+03</pdfrwt>
<totfact> 0.32758076E+03</totfact>
</mgrwt>
</event>
<event>
 4      2 +5.6305390e+02 2.62912200e+02 7.54677100e-03 1.10540600e-01
       21 -1    0    0  501  502 +0.0000000000e+00 +0.0000000000e+00 +1.1263460219e+03 1.1263460219e+03 0.0000000000e+00 0.0000e+00 1.0000e+00
       21 -1    0    0  502  503 -0.0000000000e+00 -0.0000000000e+00 -6.1404657424e+01 6.1404657424e+01 0.0000000000e+00 0.0000e+00 -1.0000e+00
        6  1    1    2  501    0 +1.4511310611e+02 +1.3467004580e+02 +5.1817855365e+02 5.8106096777e+02 1.7300000000e+02 0.0000e+00 1.0000e+00
       -6  1    1    2    0  503 -1.4511310611e+02 -1.3467004580e+02 +5.4676281077e+02 6.0668971150e+02 1.7300000000e+02 0.0000e+00 -1.0000e+00
<mgrwt>
<rscale>  2 0.26291222E+03</rscale>
<asrwt>0</asrwt>
<pdfrwt beam="1">  1       21 0.17328399E+00 0.26291222E+03</pdfrwt>
<pdfrwt beam="2">  1       21 0.94468712E-02 0.26291222E+03</pdfrwt>
<totfact> 0.17359128E+04</totfact>
</mgrwt>
</event>
<event>
 4      2 +5.6305390e+02 2.61845000e+02 7.54677100e-03 1.10604000e-01
        2 -1    0    0  502    0 +0.0000000000e+00 +0.0000000000e+00 +5.9449766086e+01 5.9449766086e+01 0.0000000000e+00 0.0000e+00 -1.0000e+00
       -2 -1    0    0    0  501 -0.0000000000e+00 -0.0000000000e+00 -1.1971496019e+03 1.1971496019e+03 0.0000000000e+00 0.0000e+00 1.0000e+00
        6  1    1    2  502    0 -1.7247396628e+02 +9.4268432852e+01 -6.8911129102e+02 7.3718191642e+02 1.7300000000e+02 0.0000e+00 -1.0000e+00
       -6  1    1    2    0  501 +1.7247396628e+02 -9.4268432852e+01 -4.4858854479e+02 5.1941745157e+02 1.7300000000e+02 0.0000e+00 -1.0000e+00
<mgrwt>
<rscale>  2 0.26184500E+03</rscale>
<asrwt>0</asrwt>
<pdfrwt beam="1">  1        2 0.91461189E-02 0.26184500E+03</pdfrwt>
<pdfrwt beam="2">  1       -2 0.18417684E+00 0.26184500E+03</pdfrwt>
<totfact> 0.13091829E+02</totfact>
</mgrwt>
</event>
<event>
 4      2 +5.6305390e+02 1.92562100e+02 7.54677100e-03 1.15617100e-01
       21 -1    0    0  503  502 +0.0000000000e+00 +0.0000000000e+00 +7.7467034363e+02 7.7467034363e+02 0.0000000000e+00 0.0000e+00 -1.0000e+00
       21 -1    0    0  501  503 -0.0000000000e+00 -0.0000000000e+00 -7.2006777320e+01 7.2006777320e+01 0.0000000000e+00 0.0000e+00 -1.0000e+00
        6  1    1    2  501    0 -4.3607446101e-01 -8.4563527598e+01 +1.0621165431e+02 2.1991156375e+02 1.7300000000e+02 0.0000e+00 -1.0000e+00
       -6  1    1    2    0  502 +4.3607446101e-01 +8.4563527598e+01 +5.9645191200e+02 6.2676555720e+02 1.7300000000e+02 0.0000e+00 -1.0000e+00
<mgrwt>
<rscale>  2 0.19256215E+03</rscale>
<asrwt>0</asrwt>
<pdfrwt beam="1">  1       21 0.11918005E+00 0.19256215E+03</pdfrwt>
<pdfrwt beam="2">  1       21 0.11077966E-01 0.19256215E+03</pdfrwt>
<totfact> 0.36356862E+04</totfact>
</mgrwt>
</event>
<event>
 4      2 +5.6305390e+02 1.75337300e+02 7.54677100e-03 1.17239300e-01
       21 -1    0    0  501  502 +0.0000000000e+00 +0.0000000000e+00 +4.7213496689e+01 4.7213496689e+01 0.0000000000e+00 0.0000e+00 -1.0000e+00
       21 -1    0    0  502  503 -0.0000000000e+00 -0.0000000000e+00 -6.6530825730e+02 6.6530825730e+02 0.0000000000e+00 0.0000e+00 -1.0000e+00
        6  1    1    2  501    0 +2.8455057176e+01 -2.1190969973e+00 -2.5708069290e+02 3.1118107834e+02 1.7300000000e+02 0.0000e+00 -1.0000e+00
       -6  1    1    2    0  503 -2.8455057176e+01 +2.1190969973e+00 -3.6101406771e+02 4.0134067566e+02 1.7300000000e+02 0.0000e+00 -1.0000e+00
<mgrwt>
<rscale>  2 0.17533733E+03</rscale>
<asrwt>0</asrwt>
<pdfrwt beam="1">  1       21 0.72636151E-02 0.17533733E+03</pdfrwt>
<pdfrwt beam="2">  1       21 0.10235511E+00 0.17533733E+03</pdfrwt>
<totfact> 0.11098093E+05</totfact>
</mgrwt>
</event>
<event>
 4      2 +5.6305390e+02 1.81733600e+02 7.54677100e-03 1.16613600e-01
       21 -1    0    0  503  502 +0.0000000000e+00 +0.0000000000e+00 +4.9928808943e+01 4.9928808943e+01 0.0000000000e+00 0.0000e+00 1.0000e+00
       21 -1    0    0  501  503 -0.0000000000e+00 -0.0000000000e+00 -1.2542851315e+03 1.2542851315e+03 0.0000000000e+00 0.0000e+00 1.0000e+00
        6  1    1    2  501    0 -4.2618116583e+01 +3.5802354082e+01 -1.0504848171e+03 1.0660888628e+03 1.7300000000e+02 0.0000e+00 1.0000e+00
       -6  1    1    2    0  502 +4.2618116583e+01 -3.5802354082e+01 -1.5387150549e+02 2.3812507768e+02 1.7300000000e+02 0.0000e+00 1.0000e+00
<mgrwt>
<rscale>  2 0.18173363E+03</rscale>
<asrwt>0</asrwt>
<pdfrwt beam="1">  1       21 0.76813561E-02 0.18173363E+03</pdfrwt>
<pdfrwt beam="2">  1       21 0.19296692E+00 0.18173363E+03</pdfrwt>
<totfact> 0.19366069E+04</totfact>
</mgrwt>
</event>
<event>
 4      2 +5.6305390e+02 2.26748500e+02 7.54677100e-03 1.12894900e-01
       21 -1    0    0  501  502 +0.0000000000e+00 +0.0000000000e+00 +8.2162964717e+01 8.2162964717e+01 0.0000000000e+00 0.0000e+00 -1.0000e+00
       21 -1    0    0  502  503 -0.0000000000e+00 -0.0000000000e+00 -7.0333603250e+02 7.0333603250e+02 0.0000000000e+00 0.0000e+00 1.0000e+00
        6  1    1    2  501    0 +7.7958909570e+00 +1.4637318529e+02 -1.8015640055e+02 2.8960527265e+02 1.7300000000e+02 0.0000e+00 -1.0000e+00
       -6  1    1    2    0  503 -7.7958909570e+00 -1.4637318529e+02 -4.4101666723e+02 4.9589372457e+02 1.7300000000e+02 0.0000e+00 1.0000e+00
<mgrwt>
<rscale>  2 0.22674851E+03</rscale>
<asrwt>0</asrwt>
<pdfrwt beam="1">  1       21 0.12640457E-01 0.22674851E+03</pdfrwt>
<pdfrwt beam="2">  1       21 0.10820554E+00 0.22674851E+03</pdfrwt>
<totfact> 0.35673076E+04</totfact>
</mgrwt>
</event>
<event>
 4      2 +5.6305390e+02 1.94321400e+02 7.54677100e-03 1.15462000e-01
       21 -1    0    0  503  502 +0.0000000000e+00 +0.0000000000e+00 +4.7349802172e+02 4.7349802172e+02 0.0000000000e+00 0.0000e+00 1.0000e+00
       21 -1    0    0  501  503 -0.0000000000e+00 -0.0000000000e+00 -4.5185096514e+02 4.5185096514e+02 0.0000000000e+00 0.0000e+00 1.0000e+00
        6  1    1    2  501    0 -5.2279478744e+00 +8.8342934102e+01 -4.0904098017e+02 4.5285243613e+02 1.7300000000e+02 0.0000e+00 1.0000e+00
       -6  1    1    2    0  502 +5.2279478744e+00 -8.8342934102e+01 +4.3068803675e+02 4.7249655073e+02 1.7300000000e+02 0.0000e+00 1.0000e+00
<mgrwt>
<rscale>  2 0.19432140E+03</rscale>
<asrwt>0</asrwt>
<pdfrwt beam="1">  1       21 0.72845850E-01 0.19432140E+03</pdfrwt>
<pdfrwt beam="2">  1       21 0.69515533E-01 0.19432140E+03</pdfrwt>
<totfact> 0.31876349E+03</totfact>
</mgrwt>
</event>
<event>
 4      2 +5.6305390e+02 1.91721600e+02 7.54677100e-03 1.15691800e-01
       21 -1    0    0  503  502 +0.0000000000e+00 +0.0000000000e+00 +2.9022229654e+02 2.9022229654e+02 0.0000000000e+00 0.0000e+00 -1.0000e+00
       21 -1    0    0  501  503 -0.0000000000e+00 -0.0000000000e+00 -1.5066776462e+02 1.5066776462e+02 0.0000000000e+00 0.0000e+00 -1.0000e+00
        6  1    1    2  501    0 -5.3915348827e+01 -6.2620462170e+01 +1.5778884639e+02 2.4830325645e+02 1.7300000000e+02 0.0000e+00 -1.0000e+00
       -6  1    1    2    0  502 +5.3915348827e+01 +6.2620462170e+01 -1.8234314475e+01 1.9258680470e+02 1.7300000000e+02 0.0000e+00 -1.0000e+00
<mgrwt>
<rscale>  2 0.19172164E+03</rscale>
<asrwt>0</asrwt>
<pdfrwt beam="1">  1       21 0.44649584E-01 0.19172164E+03</pdfrwt>
<pdfrwt beam="2">  1       21 0.23179656E-01 0.19172164E+03</pdfrwt>
<totfact> 0.84249444E+04</totfact>
</mgrwt>
</event>
<event>
 4      2 +5.6305390e+02 1.82157900e+02 7.54677100e-03 1.16573100e-01
       21 -1    0    0  501  502 +0.0000000000e+00 +0.0000000000e+00 +1.9743176967e+03 1.9743176967e+03 0.0000000000e+00 0.0000e+00 -1.0000e+00
       21 -1    0    0  502  503 -0.0000000000e+00 -0.0000000000e+00 -6.4239137971e+01 6.4239137971e+01 0.0000000000e+00 0.0000e+00 -1.0000e+00
        6  1    1    2  501    0 -2.6413111413e+01 +5.0545394718e+01 +1.8308925166e+03 1.8399317641e+03 1.7300000000e+02 0.0000e+00 -1.0000e+00
       -6  1    1    2    0  503 +2.6413111413e+01 -5.0545394718e+01 +7.9186042169e+01 1.9862507056e+02 1.7300000000e+02 0.0000e+00 -1.0000e+00
<mgrwt>
<rscale>  2 0.18215787E+03</rscale>
<asrwt>0</asrwt>
<pdfrwt beam="1">  1       21 0.30374114E+00 0.18215787E+03</pdfrwt>
<pdfrwt beam="2">  1       21 0.98829458E-02 0.18215787E+03</pdfrwt>
<totfact> 0.27276679E+03</totfact>
</mgrwt>
</event>
<event>
 4      2 +5.6305390e+02 1.85839400e+02 7.54677100e-03 1.16226800e-01
       21 -1    0    0  503  502 +0.0000000000e+00 +0.0000000000e+00 +7.0583121394e+02 7.0583121394e+02 0.0000000000e+00 0.0000e+00 1.0000e+00
       21 -1    0    0  501  503 -0.0000000000e+00 -0.0000000000e+00 -5.5375837713e+02 5.5375837713e+02 0.0000000000e+00 0.0000e+00 1.0000e+00
        6  1    1    2  501    0 -5.1159578883e+01 +4.4609277805e+01 -5.2529072975e+02 5.5719533464e+02 1.7300000000e+02 0.0000e+00 1.0000e+00
       -6  1    1    2    0  502 +5.1159578883e+01 -4.4609277805e+01 +6.7736356656e+02 7.0239425644e+02 1.7300000000e+02 0.0000e+00 1.0000e+00
<mgrwt>
<rscale>  2 0.18583942E+03</rscale>
<asrwt>0</asrwt>
<pdfrwt beam="1">  1       21 0.10858942E+00 0.18583942E+03</pdfrwt>
<pdfrwt beam="2">  1       21 0.85193596E-01 0.18583942E+03</pdfrwt>
<totfact> 0.80903037E+02</totfact>
</mgrwt>
</event>
<event>
 4      2 +5.6305390e+02 2.28921700e+02 7.54677100e-03 1.12740100e-01
       21 -1    0    0  501  502 +0.0000000000e+00 +0.0000000000e+00 +6.1112709971e+01 6.1112709971e+01 0.0000000000e+00 0.0000e+00 -1.0000e+00
       21 -1    0    0  502  503 -0.0000000000e+00 -0.0000000000e+00 -1.9512824964e+03 1.9512824964e+03 0.0000000000e+00 0.0000e+00 -1.0000e+00
        6  1    1    2  501    0 +4.7374829585e+01 -1.4223844377e+02 -1.9175458886e+02 2.9862178707e+02 1.7300000000e+02 0.0000e+00 -1.0000e+00
       -6  1    1    2    0  503 -4.7374829585e+01 +1.4223844377e+02 -1.6984151975e+03 1.7137734193e+03 1.7300000000e+02 0.0000e+00 -1.0000e+00
<mgrwt>
<rscale>  2 0.22892171E+03</rscale>
<asrwt>0</asrwt>
<pdfrwt beam="1">  1       21 0.94019570E-02 0.22892171E+03</pdfrwt>
<pdfrwt beam="2">  1       21 0.30019725E+00 0.22892171E+03</pdfrwt>
<totfact> 0.29557779E+03</totfact>
</mgrwt>
</event>
<event>
 4      2 +5.6305390e+02 1.76859500e+02 7.54677100e-03 1.17087700e-01
       21 -1    0    0  501  502 +0.0000000000e+00 +0.0000000000e+00 +1.8669811102e+03 1.8669811102e+03 0.0000000000e+00 0.0000e+00 1.0000e+00
       21 -1    0    0  502  503 -0.0000000000e+00 -0.0000000000e+00 -4.4275540832e+01 4.4275540832e+01 0.0000000000e+00 0.0000e+00 1.0000e+00
        6  1    1    2  501    0 -3.2646622597e+01 -1.6867043191e+01 +1.6647844726e+03 1.6741525137e+03 1.7300000000e+02 0.0000e+00 -1.0000e+00
       -6  1    1    2    0  503 +3.2646622597e+01 +1.6867043191e+01 +1.5792109680e+02 2.3710413730e+02 1.7300000000e+02 0.0000e+00 -1.0000e+00
<mgrwt>
<rscale>  2 0.17685955E+03</rscale>
<asrwt>0</asrwt>
<pdfrwt beam="1">  1       21 0.28722780E+00 0.17685955E+03</pdfrwt>
<pdfrwt beam="2">  1       21 0.68116231E-02 0.17685955E+03</pdfrwt>
<totfact> 0.65272270E+03</totfact>
</mgrwt>
</event>
<event>
 4      2 +5.6305390e+02 2.25254300e+02 7.54677100e-03 1.13002500e-01
       21 -1    0    0  503  502 +0.0000000000e+00 +0.0000000000e+00 +4.4694153189e+01 4.4694153189e+01 0.0000000000e+00 0.0000e+00 -1.0000e+00
       21 -1    0    0  501  503 -0.0000000000e+00 -0.0000000000e+00 -1.3875171365e+03 1.3875171365e+03 0.0000000000e+00 0.0000e+00 1.0000e+00
        6  1    1    2  501    0 -1.1771401568e+02 +8.3390001427e+01 -9.7674867762e+02 1.0023858843e+03 1.7300000000e+02 0.0000e+00 1.0000e+00
       -6  1    1    2    0  502 +1.1771401568e+02 -8.3390001427e+01 -3.6607430568e+02 4.2982540537e+02 1.7300000000e+02 0.0000e+00 -1.0000e+00
<mgrwt>
<rscale>  2 0.22525426E+03</rscale>
<asrwt>0</asrwt>
<pdfrwt beam="1">  1       21 0.68760242E-02 0.22525426E+03</pdfrwt>
<pdfrwt beam="2">  1       21 0.21346415E+00 0.22525426E+03</pdfrwt>
<totfact> 0.16795939E+04</totfact>
</mgrwt>
</event>
<event>
 4      2 +5.6305390e+02 1.92223300e+02 7.54677100e-03 1.15647100e-01
       21 -1    0    0  501  502 +0.0000000000e+00 +0.0000000000e+00 +4.3043965244e+02 4.3043965244e+02 0.0000000000e+00 0.0000e+00 -1.0000e+00
       21 -1    0    0  502  503 -0.0000000000e+00 -0.0000000000e+00 -8.9609863673e+01 8.9609863673e+01 0.0000000000e+00 0.0000e+00 -1.0000e+00
        6  1    1    2  501    0 +6.9030881888e+01 +4.7492277290e+01 +2.2373454237e+02 2.9496936198e+02 1.7300000000e+02 0.0000e+00 -1.0000e+00
       -6  1    1    2    0  503 -6.9030881888e+01 -4.7492277290e+01 +1.1709524640e+02 2.2508015413e+02 1.7300000000e+02 0.0000e+00 -1.0000e+00
<mgrwt>
<rscale>  2 0.19222325E+03</rscale>
<asrwt>0</asrwt>
<pdfrwt beam="1">  1       21 0.66221484E-01 0.19222325E+03</pdfrwt>
<pdfrwt beam="2">  1       21 0.13786133E-01 0.19222325E+03</pdfrwt>
<totfact> 0.95705272E+04</totfact>
</mgrwt>
</event>
<event>
 4      2 +5.6305390e+02 2.70512500e+02 7.54677100e-03 1.10098700e-01
       21 -1    0    0  501  502 +0.0000000000e+00 +0.0000000000e+00 +1.3700327511e+03 1.3700327511e+03 0.0000000000e+00 0.0000e+00 -1.0000e+00
       21 -1    0    0  502  503 -0.0000000000e+00 -0.0000000000e+00 -1.2077540968e+02 1.2077540968e+02 0.0000000000e+00 0.0000e+00 -1.0000e+00
        6  1    1    2  501    0 +1.0136755280e+02 +1.8158365299e+02 +1.1813176458e+03 1.2118945433e+03 1.7300000000e+02 0.0000e+00 -1.0000e+00
       -6  1    1    2    0  503 -1.0136755280e+02 -1.8158365299e+02 +6.7939695654e+01 2.7891361752e+02 1.7300000000e+02 0.0000e+00 -1.0000e+00
<mgrwt>
<rscale>  2 0.27051248E+03</rscale>
<asrwt>0</asrwt>
<pdfrwt beam="1">  1       21 0.21077426E+00 0.27051248E+03</pdfrwt>
<pdfrwt beam="2">  1       21 0.18580833E-01 0.27051248E+03</pdfrwt>
<totfact> 0.28393715E+03</totfact>
</mgrwt>
</event>
<event>
 4      2 +5.6305390e+02 3.92107900e+02 7.54677100e-03 1.04654700e-01
       21 -1    0    0  501  502 +0.0000000000e+00 +0.0000000000e+00 +3.3907862405e+02 3.3907862405e+02 0.0000000000e+00 0.0000e+00 -1.0000e+00
       21 -1    0    0  502  503 -0.0000000000e+00 -0.0000000000e+00 -7.6192063199e+02 7.6192063199e+02 0.0000000000e+00 0.0000e+00 -1.0000e+00
        6  1    1    2  501    0 +3.4347863298e+02 -7.6432943414e+01 +1.3886505294e+02 4.1597123588e+02 1.7300000000e+02 0.0000e+00 -1.0000e+00
       -6  1    1    2    0  503 -3.4347863298e+02 +7.6432943414e+01 -5.6170706088e+02 6.8502802015e+02 1.7300000000e+02 0.0000e+00 -1.0000e+00
<mgrwt>
<rscale>  2 0.39210785E+03</rscale>
<asrwt>0</asrwt>
<pdfrwt beam="1">  1       21 0.52165942E-01 0.39210785E+03</pdfrwt>
<pdfrwt beam="2">  1       21 0.11721856E+00 0.39210785E+03</pdfrwt>
<totfact> 0.17149541E+03</totfact>
</mgrwt>
</event>
<event>
 4      2 +5.6305390e+02 3.09904400e+02 7.54677100e-03 1.08039200e-01
       21 -1    0    0  503  502 +0.0000000000e+00 +0.0000000000e+00 +4.9348314642e+02 4.9348314642e+02 0.0000000000e+00 0.0000e+00 1.0000e+00
       21 -1    0    0  501  503 -0.0000000000e+00 -0.0000000000e+00 -2.3424809216e+02 2.3424809216e+02 0.0000000000e+00 0.0000e+00 -1.0000e+00
        6  1    1    2  501    0 -2.4692205219e+02 -7.1702359796e+01 -2.0045750339e+01 3.1055202521e+02 1.7300000000e+02 0.0000e+00 -1.0000e+00
       -6  1    1    2    0  502 +2.4692205219e+02 +7.1702359796e+01 +2.7928080460e+02 4.1717921338e+02 1.7300000000e+02 0.0000e+00 1.0000e+00
<mgrwt>
<rscale>  2 0.30990439E+03</rscale>
<asrwt>0</asrwt>
<pdfrwt beam="1">  1       21 0.75920484E-01 0.30990439E+03</pdfrwt>
<pdfrwt beam="2">  1       21 0.36038168E-01 0.30990439E+03</pdfrwt>
<totfact> 0.10773118E+04</totfact>
</mgrwt>
</event>
<event>
 4      2 +5.6305390e+02 1.73657200e+02 7.54677100e-03 1.17408700e-01
       21 -1    0    0  503  502 +0.0000000000e+00 +0.0000000000e+00 +3.8991513936e+03 3.8991513936e+03 0.0000000000e+00 0.0000e+00 -1.0000e+00
       21 -1    0    0  501  503 -0.0000000000e+00 -0.0000000000e+00 -2.0951867354e+01 2.0951867354e+01 0.0000000000e+00 0.0000e+00 -1.0000e+00
        6  1    1    2  501    0 +5.9030946319e+00 -1.3892125628e+01 +3.8229746491e+02 4.1989068739e+02 1.7300000000e+02 0.0000e+00 -1.0000e+00
       -6  1    1    2    0  502 -5.9030946319e+00 +1.3892125628e+01 +3.4959020614e+03 3.5002125736e+03 1.7300000000e+02 0.0000e+00 -1.0000e+00
<mgrwt>
<rscale>  2 0.17365724E+03</rscale>
<asrwt>0</asrwt>
<pdfrwt beam="1">  1       21 0.59986887E+00 0.17365724E+03</pdfrwt>
<pdfrwt beam="2">  1       21 0.32233673E-02 0.17365724E+03</pdfrwt>
<totfact> 0.19868096E+02</totfact>
</mgrwt>
</event>
<event>
 4      2 +5.6305390e+02 2.21579700e+02 7.54677100e-03 1.13271100e-01
       21 -1    0    0  503  502 +0.0000000000e+00 +0.0000000000e+00 +5.7340972999e+01 5.7340972999e+01 0.0000000000e+00 0.0000e+00 -1.0000e+00
       21 -1    0    0  501  503 -0.0000000000e+00 -0.0000000000e+00 -8.5795174746e+02 8.5795174746e+02 0.0000000000e+00 0.0000e+00 -1.0000e+00
        6  1    1    2  501    0 +9.4536310434e+01 +1.0115060854e+02 -3.7985579953e+02 4.3975901132e+02 1.7300000000e+02 0.0000e+00 -1.0000e+00
       -6  1    1    2    0  502 -9.4536310434e+01 -1.0115060854e+02 -4.2075497493e+02 4.7553370914e+02 1.7300000000e+02 0.0000e+00 -1.0000e+00
<mgrwt>
<rscale>  2 0.22157969E+03</rscale>
<asrwt>0</asrwt>
<pdfrwt beam="1">  1       21 0.88216879E-02 0.22157969E+03</pdfrwt>
<pdfrwt beam="2">  1       21 0.13199258E+00 0.22157969E+03</pdfrwt>
<totfact> 0.41419695E+04</totfact>
</mgrwt>
</event>
<event>
 4      2 +5.6305390e+02 1.74609200e+02 7.54677100e-03 1.17312500e-01
       21 -1    0    0  503  502 +0.0000000000e+00 +0.0000000000e+00 +1.8563281078e+01 1.8563281078e+01 0.0000000000e+00 0.0000e+00 1.0000e+00
       21 -1    0    0  501  503 -0.0000000000e+00 -0.0000000000e+00 -2.4976788219e+03 2.4976788219e+03 0.0000000000e+00 0.0000e+00 1.0000e+00
        6  1    1    2  501    0 -1.8900095525e+00 +2.3575726913e+01 -1.9757771606e+03 1.9834776972e+03 1.7300000000e+02 0.0000e+00 1.0000e+00
       -6  1    1    2    0  502 +1.8900095525e+00 -2.3575726913e+01 -5.0333838023e+02 5.3276440577e+02 1.7300000000e+02 0.0000e+00 1.0000e+00
<mgrwt>
<rscale>  2 0.17460924E+03</rscale>
<asrwt>0</asrwt>
<pdfrwt beam="1">  1       21 0.28558910E-02 0.17460924E+03</pdfrwt>
<pdfrwt beam="2">  1       21 0.38425807E+00 0.17460924E+03</pdfrwt>
<totfact> 0.76628383E+03</totfact>
</mgrwt>
</event>
<event>
 4      2 +5.6305390e+02 2.00209700e+02 7.54677100e-03 1.14956200e-01
       21 -1    0    0  501  502 +0.0000000000e+00 +0.0000000000e+00 +3.9082846992e+02 3.9082846992e+02 0.0000000000e+00 0.0000e+00 1.0000e+00
       21 -1    0    0  502  503 -0.0000000000e+00 -0.0000000000e+00 -1.4901195709e+02 1.4901195709e+02 0.0000000000e+00 0.0000e+00 1.0000e+00
        6  1    1    2  501    0 -1.4156169938e+01 -9.9772392190e+01 +2.7161065517e+02 3.3742595542e+02 1.7300000000e+02 0.0000e+00 1.0000e+00
       -6  1    1    2    0  503 +1.4156169938e+01 +9.9772392190e+01 -2.9794142341e+01 2.0241447159e+02 1.7300000000e+02 0.0000e+00 1.0000e+00
<mgrwt>
<rscale>  2 0.20020971E+03</rscale>
<asrwt>0</asrwt>
<pdfrwt beam="1">  1       21 0.60127456E-01 0.20020971E+03</pdfrwt>
<pdfrwt beam="2">  1       21 0.22924917E-01 0.20020971E+03</pdfrwt>
<totfact> 0.45890472E+04</totfact>
</mgrwt>
</event>
<event>
 4      2 +5.6305390e+02 1.73511700e+02 7.54677100e-03 1.17423400e-01
       21 -1    0    0  501  502 +0.0000000000e+00 +0.0000000000e+00 +6.7773412550e+01 6.7773412550e+01 0.0000000000e+00 0.0000e+00 -1.0000e+00
       21 -1    0    0  502  503 -0.0000000000e+00 -0.0000000000e+00 -4.9669111050e+02 4.9669111050e+02 0.0000000000e+00 0.0000e+00 -1.0000e+00
        6  1    1    2  501    0 -6.5239915513e+00 -1.1608109625e+01 -1.2272634188e+02 2.1252779975e+02 1.7300000000e+02 0.0000e+00 -1.0000e+00
       -6  1    1    2    0  503 +6.5239915513e+00 +1.1608109625e+01 -3.0619135608e+02 3.5193672330e+02 1.7300000000e+02 0.0000e+00 -1.0000e+00
<mgrwt>
<rscale>  2 0.17351170E+03</rscale>
<asrwt>0</asrwt>
<pdfrwt beam="1">  1       21 0.10426679E-01 0.17351170E+03</pdfrwt>
<pdfrwt beam="2">  1       21 0.76414014E-01 0.17351170E+03</pdfrwt>
<totfact> 0.11575359E+05</totfact>
</mgrwt>
</event>
<event>
 4      2 +5.6305390e+02 1.80192600e+02 7.54677100e-03 1.16761700e-01
       21 -1    0    0  503  502 +0.0000000000e+00 +0.0000000000e+00 +3.1916576830e+02 3.1916576830e+02 0.0000000000e+00 0.0000e+00 -1.0000e+00
       21 -1    0    0  501  503 -0.0000000000e+00 -0.0000000000e+00 -1.2251984752e+02 1.2251984752e+02 0.0000000000e+00 0.0000e+00 -1.0000e+00
        6  1    1    2  501    0 +8.1322266763e+00 +4.9741646200e+01 +7.3557153803e+00 1.8034264894e+02 1.7300000000e+02 0.0000e+00 -1.0000e+00
       -6  1    1    2    0  502 -8.1322266763e+00 -4.9741646200e+01 +1.8929020540e+02 2.6134296688e+02 1.7300000000e+02 0.0000e+00 -1.0000e+00
<mgrwt>
<rscale>  2 0.18019258E+03</rscale>
<asrwt>0</asrwt>
<pdfrwt beam="1">  1       21 0.49102426E-01 0.18019258E+03</pdfrwt>
<pdfrwt beam="2">  1       21 0.18849207E-01 0.18019258E+03</pdfrwt>
<totfact> 0.10247584E+05</totfact>
</mgrwt>
</event>
<event>
 4      2 +5.6305390e+02 2.35483800e+02 7.54677100e-03 1.12283800e-01
        3 -1    0    0  502    0 +0.0000000000e+00 +0.0000000000e+00 +3.3882301093e+02 3.3882301093e+02 0.0000000000e+00 0.0000e+00 1.0000e+00
       -3 -1    0    0    0  501 -0.0000000000e+00 -0.0000000000e+00 -1.7047485979e+02 1.7047485979e+02 0.0000000000e+00 0.0000e+00 -1.0000e+00
        6  1    1    2  502    0 -1.3795036953e+02 +8.0581062941e+01 +1.3507917812e+02 2.7147559102e+02 1.7300000000e+02 0.0000e+00 1.0000e+00
       -6  1    1    2    0  501 +1.3795036953e+02 -8.0581062941e+01 +3.3268973016e+01 2.3782227970e+02 1.7300000000e+02 0.0000e+00 -1.0000e+00
<mgrwt>
<rscale>  2 0.23548378E+03</rscale>
<asrwt>0</asrwt>
<pdfrwt beam="1">  1        3 0.52126617E-01 0.23548378E+03</pdfrwt>
<pdfrwt beam="2">  1       -3 0.26226902E-01 0.23548378E+03</pdfrwt>
<totfact> 0.12537464E+02</totfact>
</mgrwt>
</event>
<event>
 4      2 +5.6305390e+02 2.12468700e+02 7.54677100e-03 1.13962600e-01
       21 -1    0    0  503  502 +0.0000000000e+00 +0.0000000000e+00 +5.8800856691e+01 5.8800856691e+01 0.0000000000e+00 0.0000e+00 -1.0000e+00
       21 -1    0    0  501  503 -0.0000000000e+00 -0.0000000000e+00 -1.2022173376e+03 1.2022173376e+03 0.0000000000e+00 0.0000e+00 -1.0000e+00
        6  1    1    2  501    0 +1.1854755676e+02 -3.4064855222e+01 -9.5075300350e+02 9.7420439911e+02 1.7300000000e+02 0.0000e+00 -1.0000e+00
       -6  1    1    2    0  502 -1.1854755676e+02 +3.4064855222e+01 -1.9266347738e+02 2.8681379516e+02 1.7300000000e+02 0.0000e+00 -1.0000e+00
<mgrwt>
<rscale>  2 0.21246867E+03</rscale>
<asrwt>0</asrwt>
<pdfrwt beam="1">  1       21 0.90462869E-02 0.21246867E+03</pdfrwt>
<pdfrwt beam="2">  1       21 0.18495649E+00 0.21246867E+03</pdfrwt>
<totfact> 0.16071499E+04</totfact>
</mgrwt>
</event>
<event>
 4      2 +5.6305390e+02 2.02561600e+02 7.54677100e-03 1.14759600e-01
       21 -1    0    0  503  502 +0.0000000000e+00 +0.0000000000e+00 +1.7311977771e+03 1.7311977771e+03 0.0000000000e+00 0.0000e+00 -1.0000e+00
       21 -1    0    0  501  503 -0.0000000000e+00 -0.0000000000e+00 -2.3832407183e+01 2.3832407183e+01 0.0000000000e+00 0.0000e+00 1.0000e+00
        6  1    1    2  501    0 -6.3929136164e+01 +8.3757276289e+01 +9.1882862104e+02 9.4089173161e+02 1.7300000000e+02 0.0000e+00 1.0000e+00
       -6  1    1    2    0  502 +6.3929136164e+01 -8.3757276289e+01 +7.8853674888e+02 8.1413845267e+02 1.7300000000e+02 0.0000e+00 1.0000e+00
<mgrwt>
<rscale>  2 0.20256163E+03</rscale>
<asrwt>0</asrwt>
<pdfrwt beam="1">  1       21 0.26633802E+00 0.20256163E+03</pdfrwt>
<pdfrwt beam="2">  1       21 0.36665256E-02 0.20256163E+03</pdfrwt>
<totfact> 0.23986943E+04</totfact>
</mgrwt>
</event>
<event>
 4      2 +5.6305390e+02 2.48428800e+02 7.54677100e-03 1.11430200e-01
       21 -1    0    0  503  502 +0.0000000000e+00 +0.0000000000e+00 +2.0953836420e+02 2.0953836420e+02 0.0000000000e+00 0.0000e+00 -1.0000e+00
       21 -1    0    0  501  503 -0.0000000000e+00 -0.0000000000e+00 -3.6144276491e+02 3.6144276491e+02 0.0000000000e+00 0.0000e+00 1.0000e+00
        6  1    1    2  501    0 +1.7101852916e+02 -5.0403472086e+01 -1.9878180303e+02 3.1816827706e+02 1.7300000000e+02 0.0000e+00 1.0000e+00
       -6  1    1    2    0  502 -1.7101852916e+02 +5.0403472086e+01 +4.6877402325e+01 2.5281285205e+02 1.7300000000e+02 0.0000e+00 -1.0000e+00
<mgrwt>
<rscale>  2 0.24842876E+03</rscale>
<asrwt>0</asrwt>
<pdfrwt beam="1">  1       21 0.32236672E-01 0.24842876E+03</pdfrwt>
<pdfrwt beam="2">  1       21 0.55606579E-01 0.24842876E+03</pdfrwt>
<totfact> 0.27416858E+04</totfact>
</mgrwt>
</event>
<event>
 4      3 +5.6305390e+02 1.28032000e+02 7.54677100e-03 1.23040500e-01
        2 -1    0    0  501    0 +0.0000000000e+00 +0.0000000000e+00 +5.0053020067e+02 5.0053020067e+02 0.0000000000e+00 0.0000e+00 -1.0000e+00
       -2 -1    0    0    0  501 -0.0000000000e+00 -0.0000000000e+00 -4.4532597250e+01 4.4532597250e+01 0.0000000000e+00 0.0000e+00 1.0000e+00
       24  1    1    2    0    0 -1.6221128871e+01 -9.8294733900e+01 +3.6818467432e+02 3.8981040275e+02 8.0419002446e+01 0.0000e+00 -1.0000e+00
      -24  1    1    2    0    0 +1.6221128871e+01 +9.8294733900e+01 +8.7812929098e+01 1.5525239517e+02 8.0419002446e+01 0.0000e+00 1.0000e+00
<mgrwt>
<rscale>  0 0.12803201E+03</rscale>
<asrwt>0</asrwt>
<pdfrwt beam="1">  1        2 0.77004642E-01 0.12803201E+03</pdfrwt>
<pdfrwt beam="2">  1       -2 0.68511691E-02 0.12803201E+03</pdfrwt>
<totfact> 0.71512691E+03</totfact>
</mgrwt>
</event>
<event>
 4      2 +5.6305390e+02 2.22605900e+02 7.54677100e-03 1.13195500e-01
       21 -1    0    0  501  502 +0.0000000000e+00 +0.0000000000e+00 +8.0077125557e+02 8.0077125557e+02 0.0000000000e+00 0.0000e+00 1.0000e+00
       21 -1    0    0  502  503 -0.0000000000e+00 -0.0000000000e+00 -1.0621270123e+02 1.0621270123e+02 0.0000000000e+00 0.0000e+00 1.0000e+00
        6  1    1    2  501    0 -1.4829138703e+01 -1.3929992542e+02 +6.4025619320e+02 6.7785054806e+02 1.7300000000e+02 0.0000e+00 1.0000e+00
       -6  1    1    2    0  503 +1.4829138703e+01 +1.3929992542e+02 +5.4302361143e+01 2.2913340874e+02 1.7300000000e+02 0.0000e+00 1.0000e+00
<mgrwt>
<rscale>  2 0.22260587E+03</rscale>
<asrwt>0</asrwt>
<pdfrwt beam="1">  1       21 0.12319557E+00 0.22260587E+03</pdfrwt>
<pdfrwt beam="2">  1       21 0.16340416E-01 0.22260587E+03</pdfrwt>
<totfact> 0.16279872E+04</totfact>
</mgrwt>
</event>
<event>
 4      2 +5.6305390e+02 1.89065500e+02 7.54677100e-03 1.15930700e-01
       21 -1    0    0  503  502 +0.0000000000e+00 +0.0000000000e+00 +3.8142705752e+02 3.8142705752e+02 0.0000000000e+00 0.0000e+00 1.0000e+00
       21 -1    0    0  501  503 -0.0000000000e+00 -0.0000000000e+00 -1.2266189316e+02 1.2266189316e+02 0.0000000000e+00 0.0000e+00 -1.0000e+00
        6  1    1    2  501    0 +5.2000247615e+01 -5.5791933140e+01 +6.9444031060e+00 1.8919299747e+02 1.7300000000e+02 0.0000e+00 -1.0000e+00
       -6  1    1    2    0  502 -5.2000247615e+01 +5.5791933140e+01 +2.5182076126e+02 3.1489595322e+02 1.7300000000e+02 0.0000e+00 1.0000e+00
<mgrwt>
<rscale>  2 0.18906551E+03</rscale>
<asrwt>0</asrwt>
<pdfrwt beam="1">  1       21 0.58681085E-01 0.18906551E+03</pdfrwt>
<pdfrwt beam="2">  1       21 0.18871061E-01 0.18906551E+03</pdfrwt>
<totfact> 0.70010662E+04</totfact>
</mgrwt>
</event>
<event>
 4      2 +5.6305390e+02 2.50208100e+02 7.54677100e-03 1.11317300e-01
       21 -1    0    0  501  502 +0.0000000000e+00 +0.0000000000e+00 +8.0900975708e+01 8.0900975708e+01 0.0000000000e+00 0.0000e+00 1.0000e+00
       21 -1    0    0  502  503 -0.0000000000e+00 -0.0000000000e+00 -7.8802923013e+02 7.8802923013e+02 0.0000000000e+00 0.0000e+00 -1.0000e+00
        6  1    1    2  501    0 +1.2451251488e+02 -1.3104091314e+02 -2.9525663169e+02 3.8701494265e+02 1.7300000000e+02 0.0000e+00 1.0000e+00
       -6  1    1    2    0  503 -1.2451251488e+02 +1.3104091314e+02 -4.1187162273e+02 4.8191526318e+02 1.7300000000e+02 0.0000e+00 -1.0000e+00
<mgrwt>
<rscale>  2 0.25020809E+03</rscale>
<asrwt>0</asrwt>
<pdfrwt beam="1">  1       21 0.12446304E-01 0.25020809E+03</pdfrwt>
<pdfrwt beam="2">  1       21 0.12123527E+00 0.25020809E+03</pdfrwt>
<totfact> 0.27421518E+04</totfact>
</mgrwt>
</event>
<event>
 4      2 +5.6305390e+02 2.47637600e+02 7.54677100e-03 1.11480700e-01
       21 -1    0    0  501  502 +0.0000000000e+00 +0.0000000000e+00 +6.2175946244e+02 6.2175946244e+02 0.0000000000e+00 0.0000e+00 1.0000e+00
       21 -1    0    0  502  503 -0.0000000000e+00 -0.0000000000e+00 -1.8261047195e+02 1.8261047195e+02 0.0000000000e+00 0.0000e+00 -1.0000e+00
        6  1    1    2  501    0 -1.5134209410e+02 -9.2146230646e+01 -5.3167007154e+01 2.5328065050e+02 1.7300000000e+02 0.0000e+00 -1.0000e+00
       -6  1    1    2    0  503 +1.5134209410e+02 +9.2146230646e+01 +4.9231599765e+02 5.5108928388e+02 1.7300000000e+02 0.0000e+00 1.0000e+00
<mgrwt>
<rscale>  2 0.24763755E+03</rscale>
<asrwt>0</asrwt>
<pdfrwt beam="1">  1       21 0.95655301E-01 0.24763755E+03</pdfrwt>
<pdfrwt beam="2">  1       21 0.28093919E-01 0.24763755E+03</pdfrwt>
<totfact> 0.10657465E+04</totfact>
</mgrwt>
</event>
<event>
 4      2 +5.6305390e+02 2.06397300e+02 7.54677100e-03 1.14445100e-01
       21 -1    0    0  503  502 +0.0000000000e+00 +0.0000000000e+00 +2.2211840015e+01 2.2211840015e+01 0.0000000000e+00 0.0000e+00 -1.0000e+00
       21 -1    0    0  501  503 -0.0000000000e+00 -0.0000000000e+00 -3.4215275460e+03 3.4215275460e+03 0.0000000000e+00 0.0000e+00 -1.0000e+00
        6  1    1    2  501    0 +6.0878267690e+01 +9.4681967944e+01 -5.5819437623e+02 5.9513091012e+02 1.7300000000e+02 0.0000e+00 -1.0000e+00
       -6  1    1    2    0  502 -6.0878267690e+01 -9.4681967944e+01 -2.8411213297e+03 2.8486084759e+03 1.7300000000e+02 0.0000e+00 -1.0000e+00
<mgrwt>
<rscale>  2 0.20639728E+03</rscale>
<asrwt>0</asrwt>
<pdfrwt beam="1">  1       21 0.34172059E-02 0.20639728E+03</pdfrwt>
<pdfrwt beam="2">  1       21 0.52638889E+00 0.20639728E+03</pdfrwt>
<totfact> 0.61134603E+02</totfact>
</mgrwt>
</event>
<event>
 4      2 +5.6305390e+02 2.28074400e+02 7.54677100e-03 1.12800200e-01
       21 -1    0    0  503  502 +0.0000000000e+00 +0.0000000000e+00 +5.2002471563e+01 5.2002471563e+01 0.0000000000e+00 0.0000e+00 -1.0000e+00
       21 -1    0    0  501  503 -0.0000000000e+00 -0.0000000000e+00 -1.8618441617e+03 1.8618441617e+03 0.0000000000e+00 0.0000e+00 -1.0000e+00
        6  1    1    2  501    0 -4.4160416876e+01 -1.4191119226e+02 -1.5558668112e+03 1.5724946624e+03 1.7300000000e+02 0.0000e+00 -1.0000e+00
       -6  1    1    2    0  502 +4.4160416876e+01 +1.4191119226e+02 -2.5397487887e+02 3.4135197085e+02 1.7300000000e+02 0.0000e+00 -1.0000e+00
<mgrwt>
<rscale>  2 0.22807439E+03</rscale>
<asrwt>0</asrwt>
<pdfrwt beam="1">  1       21 0.80003789E-02 0.22807439E+03</pdfrwt>
<pdfrwt beam="2">  1       21 0.28643761E+00 0.22807439E+03</pdfrwt>
<totfact> 0.47224790E+03</totfact>
</mgrwt>
</event>
<event>
 4      2 +5.6305390e+02 1.96461500e+02 7.54677100e-03 1.15275900e-01
       21 -1    0    0  503  502 +0.0000000000e+00 +0.0000000000e+00 +3.4782688828e+01 3.4782688828e+01 0.0000000000e+00 0.0000e+00 1.0000e+00
       21 -1    0    0  501  503 -0.0000000000e+00 -0.0000000000e+00 -1.1141855210e+03 1.1141855210e+03 0.0000000000e+00 0.0000e+00 1.0000e+00
        6  1    1    2  501    0 +8.1475059814e+01 +4.5054765807e+01 -5.0310703827e+02 5.4010536866e+02 1.7300000000e+02 0.0000e+00 1.0000e+00
       -6  1    1    2    0  502 -8.1475059814e+01 -4.5054765807e+01 -5.7629579394e+02 6.0886284121e+02 1.7300000000e+02 0.0000e+00 1.0000e+00
<mgrwt>
<rscale>  2 0.19646149E+03</rscale>
<asrwt>0</asrwt>
<pdfrwt beam="1">  1       21 0.53511829E-02 0.19646149E+03</pdfrwt>
<pdfrwt beam="2">  1       21 0.17141316E+00 0.19646149E+03</pdfrwt>
<totfact> 0.49879410E+04</totfact>
</mgrwt>
</event>
<event>
 4      2 +5.6305390e+02 1.73714100e+02 7.54677100e-03 1.17402900e-01
        2 -1    0    0  502    0 +0.0000000000e+00 +0.0000000000e+00 +1.4847865649e+03 1.4847865649e+03 0.0000000000e+00 0.0000e+00 1.0000e+00
       -2 -1    0    0    0  501 -0.0000000000e+00 -0.0000000000e+00 -2.0323868268e+01 2.0323868268e+01 0.0000000000e+00 0.0000e+00 -1.0000e+00
        6  1    1    2  502    0 +9.9078364738e+00 -1.2223549119e+01 +7.3293222296e+02 7.5323716307e+02 1.7300000000e+02 0.0000e+00 1.0000e+00
       -6  1    1    2    0  501 -9.9078364738e+00 +1.2223549119e+01 +7.3153047364e+02 7.5187327007e+02 1.7300000000e+02 0.0000e+00 -1.0000e+00
<mgrwt>
<rscale>  2 0.17371408E+03</rscale>
<asrwt>0</asrwt>
<pdfrwt beam="1">  1        2 0.22842862E+00 0.17371408E+03</pdfrwt>
<pdfrwt beam="2">  1       -2 0.31267501E-02 0.17371408E+03</pdfrwt>
<totfact> 0.54833401E+03</totfact>
</mgrwt>
</event>
<event>
 4      2 +5.6305390e+02 1.73769900e+02 7.54677100e-03 1.17397200e-01
       21 -1    0    0  501  502 +0.0000000000e+00 +0.0000000000e+00 +1.5289929675e+02 1.5289929675e+02 0.0000000000e+00 0.0000e+00 -1.0000e+00
       21 -1    0    0  502  503 -0.0000000000e+00 -0.0000000000e+00 -2.9015248530e+02 2.9015248530e+02 0.0000000000e+00 0.0000e+00 -1.0000e+00
        6  1    1    2  501    0 -1.2824307230e+01 -1.0125675231e+01 +5.6561980599e+01 1.8274367241e+02 1.7300000000e+02 0.0000e+00 -1.0000e+00
       -6  1    1    2    0  503 +1.2824307230e+01 +1.0125675231e+01 -1.9381516914e+02 2.6030810964e+02 1.7300000000e+02 0.0000e+00 -1.0000e+00
<mgrwt>
<rscale>  2 0.17376994E+03</rscale>
<asrwt>0</asrwt>
<pdfrwt beam="1">  1       21 0.23522969E-01 0.17376994E+03</pdfrwt>
<pdfrwt beam="2">  1       21 0.44638844E-01 0.17376994E+03</pdfrwt>
<totfact> 0.82573307E+04</totfact>
</mgrwt>
</event>
<event>
 4      2 +5.6305390e+02 1.87986200e+02 7.54677100e-03 1.16029000e-01
       21 -1    0    0  503  502 +0.0000000000e+00 +0.0000000000e+00 +1.2982266782e+03 1.2982266782e+03 0.0000000000e+00 0.0000e+00 -1.0000e+00
       21 -1    0    0  501  503 -0.0000000000e+00 -0.0000000000e+00 -4.4851850893e+01 4.4851850893e+01 0.0000000000e+00 0.0000e+00 -1.0000e+00
        6  1    1    2  501    0 +2.0574005290e+01 +7.0615303005e+01 +2.0565073856e+02 2.7862346811e+02 1.7300000000e+02 0.0000e+00 -1.0000e+00
       -6  1    1    2    0  502 -2.0574005290e+01 -7.0615303005e+01 +1.0477240888e+03 1.0644550610e+03 1.7300000000e+02 0.0000e+00 -1.0000e+00
<mgrwt>
<rscale>  2 0.18798620E+03</rscale>
<asrwt>0</asrwt>
<pdfrwt beam="1">  1       21 0.19972715E+00 0.18798620E+03</pdfrwt>
<pdfrwt beam="2">  1       21 0.69002857E-02 0.18798620E+03</pdfrwt>
<totfact> 0.20977746E+04</totfact>
</mgrwt>
</event>
<event>
 4      2 +5.6305390e+02 2.98712500e+02 7.54677100e-03 1.08588600e-01
       21 -1    0    0  501  502 +0.0000000000e+00 +0.0000000000e+00 +7.0495712005e+02 7.0495712005e+02 0.0000000000e+00 0.0000e+00 1.0000e+00
       21 -1    0    0  502  503 -0.0000000000e+00 -0.0000000000e+00 -1.4656211056e+02 1.4656211056e+02 0.0000000000e+00 0.0000e+00 -1.0000e+00
        6  1    1    2  501    0 -8.1667396492e+01 +2.2941357533e+02 +1.2196552856e+02 3.2265266519e+02 1.7300000000e+02 0.0000e+00 1.0000e+00
       -6  1    1    2    0  503 +8.1667396492e+01 -2.2941357533e+02 +4.3642948093e+02 5.2886656542e+02 1.7300000000e+02 0.0000e+00 -1.0000e+00
<mgrwt>
<rscale>  2 0.29871249E+03</rscale>
<asrwt>0</asrwt>
<pdfrwt beam="1">  1       21 0.10845494E+00 0.29871249E+03</pdfrwt>
<pdfrwt beam="2">  1       21 0.22548017E-01 0.29871249E+03</pdfrwt>
<totfact> 0.11726127E+04</totfact>
</mgrwt>
</event>
<event>
 4      2 +5.6305390e+02 2.04495400e+02 7.54677100e-03 1.14600100e-01
       21 -1    0    0  503  502 +0.0000000000e+00 +0.0000000000e+00 +4.2959484103e+02 4.2959484103e+02 0.0000000000e+00 0.0000e+00 1.0000e+00
       21 -1    0    0  501  503 -0.0000000000e+00 -0.0000000000e+00 -1.0487662534e+02 1.0487662534e+02 0.0000000000e+00 0.0000e+00 -1.0000e+00
        6  1    1    2  501    0 -2.4182289183e+01 -1.0632308820e+02 +9.0739005546e+01 2.2372292981e+02 1.7300000000e+02 0.0000e+00 -1.0000e+00
       -6  1    1    2    0  502 +2.4182289183e+01 +1.0632308820e+02 +2.3397921015e+02 3.1074853656e+02 1.7300000000e+02 0.0000e+00 1.0000e+00
<mgrwt>
<rscale>  2 0.20449543E+03</rscale>
<asrwt>0</asrwt>
<pdfrwt beam="1">  1       21 0.66091513E-01 0.20449543E+03</pdfrwt>
<pdfrwt beam="2">  1       21 0.16134866E-01 0.20449543E+03</pdfrwt>
<totfact> 0.71784729E+04</totfact>
</mgrwt>
</event>
<event>
 4      2 +5.6305390e+02 2.10324900e+02 7.54677100e-03 1.14130900e-01
       21 -1    0    0  501  502 +0.0000000000e+00 +0.0000000000e+00 +2.9332217753e+02 2.9332217753e+02 0.0000000000e+00 0.0000e+00 -1.0000e+00
       21 -1    0    0  502  503 -0.0000000000e+00 -0.0000000000e+00 -1.9152336118e+02 1.9152336118e+02 0.0000000000e+00 0.0000e+00 1.0000e+00
        6  1    1    2  501    0 -5.2971320406e+01 +1.0724548485e+02 +1.6266790825e+02 2.6588983279e+02 1.7300000000e+02 0.0000e+00 -1.0000e+00
       -6  1    1    2    0  503 +5.2971320406e+01 -1.0724548485e+02 -6.0869091903e+01 2.1895570592e+02 1.7300000000e+02 0.0000e+00 1.0000e+00
<mgrwt>
<rscale>  2 0.21032488E+03</rscale>
<asrwt>0</asrwt>
<pdfrwt beam="1">  1       21 0.45126489E-01 0.21032488E+03</pdfrwt>
<pdfrwt beam="2">  1       21 0.29465132E-01 0.21032488E+03</pdfrwt>
<totfact> 0.51556946E+04</totfact>
</mgrwt>
</event>
<event>
 4      2 +5.6305390e+02 2.22847300e+02 7.54677100e-03 1.13177800e-01
       21 -1    0    0  501  502 +0.0000000000e+00 +0.0000000000e+00 +2.3756179356e+02 2.3756179356e+02 0.0000000000e+00 0.0000e+00 -1.0000e+00
       21 -1    0    0  502  503 -0.0000000000e+00 -0.0000000000e+00 -2.3117739926e+02 2.3117739926e+02 0.0000000000e+00 0.0000e+00 1.0000e+00
        6  1    1    2  501    0 -8.9634168516e+01 +1.0815564547e+02 -6.9326527306e+01 2.3338186562e+02 1.7300000000e+02 0.0000e+00 1.0000e+00
       -6  1    1    2    0  503 +8.9634168516e+01 -1.0815564547e+02 +7.5710921607e+01 2.3535732719e+02 1.7300000000e+02 0.0000e+00 -1.0000e+00
<mgrwt>
<rscale>  2 0.22284732E+03</rscale>
<asrwt>0</asrwt>
<pdfrwt beam="1">  1       21 0.36547968E-01 0.22284732E+03</pdfrwt>
<pdfrwt beam="2">  1       21 0.35565754E-01 0.22284732E+03</pdfrwt>
<totfact> 0.54275064E+04</totfact>
</mgrwt>
</event>
<event>
 4      2 +5.6305390e+02 1.75754300e+02 7.54677100e-03 1.17197600e-01
       21 -1    0    0  503  502 +0.0000000000e+00 +0.0000000000e+00 +2.0501486434e+02 2.0501486434e+02 0.0000000000e+00 0.0000e+00 1.0000e+00
       21 -1    0    0  501  503 -0.0000000000e+00 -0.0000000000e+00 -7.2005362327e+02 7.2005362327e+02 0.0000000000e+00 0.0000e+00 -1.0000e+00
        6  1    1    2  501    0 +2.3843212131e+01 -1.9800969699e+01 -6.6882437122e+02 6.9153135627e+02 1.7300000000e+02 0.0000e+00 -1.0000e+00
       -6  1    1    2    0  502 -2.3843212131e+01 +1.9800969699e+01 +1.5378561229e+02 2.3353713134e+02 1.7300000000e+02 0.0000e+00 1.0000e+00
<mgrwt>
<rscale>  2 0.17575431E+03</rscale>
<asrwt>0</asrwt>
<pdfrwt beam="1">  1       21 0.31540748E-01 0.17575431E+03</pdfrwt>
<pdfrwt beam="2">  1       21 0.11077748E+00 0.17575431E+03</pdfrwt>
<totfact> 0.62873956E+03</totfact>
</mgrwt>
</event>
<event>
 4      2 +5.6305390e+02 1.78917900e+02 7.54677100e-03 1.16885400e-01
       -1 -1    0    0    0  501 -0.0000000000e+00 +0.0000000000e+00 +9.1079927860e+01 9.1079927860e+01 0.0000000000e+00 0.0000e+00 -1.0000e+00
        1 -1    0    0  502    0 +0.0000000000e+00 -0.0000000000e+00 -4.0035351591e+02 4.0035351591e+02 0.0000000000e+00 0.0000e+00 1.0000e+00
        6  1    1    2  502    0 +4.1237844601e+01 +1.9546581483e+01 -6.8773904817e+01 1.9168066845e+02 1.7300000000e+02 0.0000e+00 -1.0000e+00
       -6  1    1    2    0  501 -4.1237844601e+01 -1.9546581483e+01 -2.4049968323e+02 2.9975277532e+02 1.7300000000e+02 0.0000e+00 1.0000e+00
<mgrwt>
<rscale>  2 0.17891794E+03</rscale>
<asrwt>0</asrwt>
<pdfrwt beam="1">  1        1 0.61592850E-01 0.17891794E+03</pdfrwt>
<pdfrwt beam="2">  1       -1 0.14012296E-01 0.17891794E+03</pdfrwt>
<totfact> 0.21408369E+03</totfact>
</mgrwt>
</event>
<event>
 4      2 +5.6305390e+02 1.83785100e+02 7.54677100e-03 1.16418900e-01
       21 -1    0    0  503  502 +0.0000000000e+00 +0.0000000000e+00 +5.4827085101e+01 5.4827085101e+01 0.0000000000e+00 0.0000e+00 -1.0000e+00
       21 -1    0    0  501  503 -0.0000000000e+00 -0.0000000000e+00 -6.2403724157e+02 6.2403724157e+02 0.0000000000e+00 0.0000e+00 -1.0000e+00
        6  1    1    2  501    0 +2.6806041022e+01 -5.5941091927e+01 -3.2297377059e+02 3.7160331819e+02 1.7300000000e+02 0.0000e+00 -1.0000e+00
       -6  1    1    2    0  502 -2.6806041022e+01 +5.5941091927e+01 -2.4623638588e+02 3.0726100848e+02 1.7300000000e+02 0.0000e+00 -1.0000e+00
<mgrwt>
<rscale>  2 0.18378512E+03</rscale>
<asrwt>0</asrwt>
<pdfrwt beam="1">  1       21 0.84349360E-02 0.18378512E+03</pdfrwt>
<pdfrwt beam="2">  1       21 0.96005731E-01 0.18378512E+03</pdfrwt>
<totfact> 0.99247818E+04</totfact>
</mgrwt>
</event>
<event>
 4      2 +5.6305390e+02 1.74376700e+02 7.54677100e-03 1.17335900e-01
       21 -1    0    0  501  502 +0.0000000000e+00 +0.0000000000e+00 +6.5591408045e+01 6.5591408045e+01 0.0000000000e+00 0.0000e+00 1.0000e+00
       21 -1    0    0  502  503 -0.0000000000e+00 -0.0000000000e+00 -5.0431969273e+02 5.0431969273e+02 0.0000000000e+00 0.0000e+00 1.0000e+00
        6  1    1    2  501    0 +6.9070692663e+00 +2.0748964592e+01 -1.3837932690e+02 2.2261191624e+02 1.7300000000e+02 0.0000e+00 -1.0000e+00
       -6  1    1    2    0  503 -6.9070692663e+00 -2.0748964592e+01 -3.0034895778e+02 3.4729918453e+02 1.7300000000e+02 0.0000e+00 -1.0000e+00
<mgrwt>
<rscale>  2 0.17437668E+03</rscale>
<asrwt>0</asrwt>
<pdfrwt beam="1">  1       21 0.10090986E-01 0.17437668E+03</pdfrwt>
<pdfrwt beam="2">  1       21 0.77587646E-01 0.17437668E+03</pdfrwt>
<totfact> 0.11848601E+05</totfact>
</mgrwt>
</event>
<event>
 4      2 +5.6305390e+02 2.34490100e+02 7.54677100e-03 1.12351900e-01
       21 -1    0    0  503  502 +0.0000000000e+00 +0.0000000000e+00 +7.7700512767e+02 7.7700512767e+02 0.0000000000e+00 0.0000e+00 1.0000e+00
       21 -1    0    0  501  503 -0.0000000000e+00 -0.0000000000e+00 -7.1157032245e+01 7.1157032245e+01 0.0000000000e+00 0.0000e+00 1.0000e+00
        6  1    1    2  501    0 -1.5695654463e+02 -2.0524438838e+01 +3.8435807864e+02 4.5024076016e+02 1.7300000000e+02 0.0000e+00 1.0000e+00
       -6  1    1    2    0  502 +1.5695654463e+02 +2.0524438838e+01 +3.2149001679e+02 3.9792139976e+02 1.7300000000e+02 0.0000e+00 1.0000e+00
<mgrwt>
<rscale>  2 0.23449011E+03</rscale>
<asrwt>0</asrwt>
<pdfrwt beam="1">  1       21 0.11953924E+00 0.23449011E+03</pdfrwt>
<pdfrwt beam="2">  1       21 0.10947236E-01 0.23449011E+03</pdfrwt>
<totfact> 0.36035698E+04</totfact>
</mgrwt>
</event>
<event>
 4      2 +5.6305390e+02 1.78199400e+02 7.54677100e-03 1.16955700e-01
       21 -1    0    0  503  502 +0.0000000000e+00 +0.0000000000e+00 +2.8463075390e+02 2.8463075390e+02 0.0000000000e+00 0.0000e+00 -1.0000e+00
       21 -1    0    0  501  503 -0.0000000000e+00 -0.0000000000e+00 -1.4691031424e+02 1.4691031424e+02 0.0000000000e+00 0.0000e+00 -1.0000e+00
        6  1    1    2  501    0 -4.0529971029e+01 -1.3540252428e+01 -3.6974431029e+01 1.8199485030e+02 1.7300000000e+02 0.0000e+00 -1.0000e+00
       -6  1    1    2    0  502 +4.0529971029e+01 +1.3540252428e+01 +1.7469487069e+02 2.4954621783e+02 1.7300000000e+02 0.0000e+00 -1.0000e+00
<mgrwt>
<rscale>  2 0.17819937E+03</rscale>
<asrwt>0</asrwt>
<pdfrwt beam="1">  1       21 0.43789347E-01 0.17819937E+03</pdfrwt>
<pdfrwt beam="2">  1       21 0.22601587E-01 0.17819937E+03</pdfrwt>
<totfact> 0.92445746E+04</totfact>
</mgrwt>
</event>
<event>
 4      2 +5.6305390e+02 2.14848400e+02 7.54677100e-03 1.13778300e-01
       21 -1    0    0  503  502 +0.0000000000e+00 +0.0000000000e+00 +2.0922386535e+01 2.0922386535e+01 0.0000000000e+00 0.0000e+00 -1.0000e+00
       21 -1    0    0  501  503 -0.0000000000e+00 -0.0000000000e+00 -2.2587311546e+03 2.2587311546e+03 0.0000000000e+00 0.0000e+00 -1.0000e+00
        6  1    1    2  501    0 +1.0872336260e+02 -6.6408203236e+01 -1.2926632932e+03 1.3103962030e+03 1.7300000000e+02 0.0000e+00 1.0000e+00
       -6  1    1    2    0  502 -1.0872336260e+02 +6.6408203236e+01 -9.4514547481e+02 9.6925733817e+02 1.7300000000e+02 0.0000e+00 1.0000e+00
<mgrwt>
<rscale>  2 0.21484836E+03</rscale>
<asrwt>0</asrwt>
<pdfrwt beam="1">  1       21 0.32188302E-02 0.21484836E+03</pdfrwt>
<pdfrwt beam="2">  1       21 0.34749694E+00 0.21484836E+03</pdfrwt>
<totfact> 0.99335456E+03</totfact>
</mgrwt>
</event>
<event>
 4      2 +5.6305390e+02 3.09616400e+02 7.54677100e-03 1.08053000e-01
       21 -1    0    0  503  502 +0.0000000000e+00 +0.0000000000e+00 +9.6260281724e+02 9.6260281724e+02 0.0000000000e+00 0.0000e+00 -1.0000e+00
       21 -1    0    0  501  503 -0.0000000000e+00 -0.0000000000e+00 -1.2168636409e+02 1.2168636409e+02 0.0000000000e+00 0.0000e+00 1.0000e+00
        6  1    1    2  501    0 -1.2032473081e+02 +2.2683754295e+02 +1.8941763051e+02 3.6296191327e+02 1.7300000000e+02 0.0000e+00 1.0000e+00
       -6  1    1    2    0  502 +1.2032473081e+02 -2.2683754295e+02 +6.5149882264e+02 7.2132726805e+02 1.7300000000e+02 0.0000e+00 -1.0000e+00
<mgrwt>
<rscale>  2 0.30961639E+03</rscale>
<asrwt>0</asrwt>
<pdfrwt beam="1">  1       21 0.14809274E+00 0.30961639E+03</pdfrwt>
<pdfrwt beam="2">  1       21 0.18720980E-01 0.30961639E+03</pdfrwt>
<totfact> 0.74962026E+03</totfact>
</mgrwt>
</event>
<event>
 4      2 +5.6305390e+02 2.20976500e+02 7.54677100e-03 1.13315700e-01
       21 -1    0    0  503  502 +0.0000000000e+00 +0.0000000000e+00 +8.9198647219e+02 8.9198647219e+02 0.0000000000e+00 0.0000e+00 -1.0000e+00
       21 -1    0    0  501  503 -0.0000000000e+00 -0.0000000000e+00 -5.7069089208e+01 5.7069089208e+01 0.0000000000e+00 0.0000e+00 -1.0000e+00
        6  1    1    2  501    0 +4.6596570832e+01 +1.2934587242e+02 +5.1324725914e+02 5.5879633511e+02 1.7300000000e+02 0.0000e+00 -1.0000e+00
       -6  1    1    2    0  502 -4.6596570832e+01 -1.2934587242e+02 +3.2167012385e+02 3.9025922629e+02 1.7300000000e+02 0.0000e+00 -1.0000e+00
<mgrwt>
<rscale>  2 0.22097646E+03</rscale>
<asrwt>0</asrwt>
<pdfrwt beam="1">  1       21 0.13722868E+00 0.22097646E+03</pdfrwt>
<pdfrwt beam="2">  1       21 0.87798606E-02 0.22097646E+03</pdfrwt>
<totfact> 0.37824745E+04</totfact>
</mgrwt>
</event>
<event>
 4      2 +5.6305390e+02 1.98167000e+02 7.54677100e-03 1.15129500e-01
       21 -1    0    0  503  502 +0.0000000000e+00 +0.0000000000e+00 +8.1968020408e+02 8.1968020408e+02 0.0000000000e+00 0.0000e+00 -1.0000e+00
       21 -1    0    0  501  503 -0.0000000000e+00 -0.0000000000e+00 -6.8111914660e+01 6.8111914660e+01 0.0000000000e+00 0.0000e+00 -1.0000e+00
        6  1    1    2  501    0 +1.9848669602e+01 -9.4589556873e+01 +1.3402911770e+02 2.3923619782e+02 1.7300000000e+02 0.0000e+00 -1.0000e+00
       -6  1    1    2    0  502 -1.9848669602e+01 +9.4589556873e+01 +6.1753917172e+02 6.4855592092e+02 1.7300000000e+02 0.0000e+00 -1.0000e+00
<mgrwt>
<rscale>  2 0.19816699E+03</rscale>
<asrwt>0</asrwt>
<pdfrwt beam="1">  1       21 0.12610464E+00 0.19816699E+03</pdfrwt>
<pdfrwt beam="2">  1       21 0.10478757E-01 0.19816699E+03</pdfrwt>
<totfact> 0.34746015E+04</totfact>
</mgrwt>
</event>
</LesHouchesEvents>
