<event>
 4    3  0.7748294E-001  0.2457635E+03  0.7546771E-02  0.1116012E+00
          2   -1    0    0  502    0  0.00000000000E+00  0.00000000000E+00  0.15380612198E+04  0.15380612198E+04  0.00000000000E+00 0. -1.
         -2   -1    0    0    0  501 -0.00000000000E+00 -0.00000000000E+00 -0.40338552207E+02  0.40338552207E+02  0.00000000000E+00 0.  1.
          6    1    1    2  502    0  0.14208147257E+03  0.10140794531E+03  0.62041614329E+03  0.66731994356E+03  0.17300000000E+03 0.  1.
         -6    1    1    2    0  501 -0.14208147257E+03 -0.10140794531E+03  0.87730652431E+03  0.91107982845E+03  0.17300000000E+03 0. -1.
<mgrwt>
<rscale>  2 0.24576354E+03</rscale>
<asrwt>0</asrwt>
<pdfrwt beam="1">  1        2 0.23662476E+00 0.24576354E+03</pdfrwt>
<pdfrwt beam="2">  1       -2 0.62059323E-02 0.24576354E+03</pdfrwt>
<totfact> 0.18310954E+03</totfact>
</mgrwt>
</event>
<event>
 4    3  0.7748294E-001  0.2596643E+03  0.7546771E-02  0.1107345E+00
          3   -1    0    0  502    0  0.00000000000E+00  0.00000000000E+00  0.16442372118E+03  0.16442372118E+03  0.00000000000E+00 0.  1.
         -3   -1    0    0    0  501 -0.00000000000E+00 -0.00000000000E+00 -0.41466717586E+03  0.41466717586E+03  0.00000000000E+00 0. -1.
          6    1    1    2  502    0  0.12906704758E+03 -0.14435450082E+03 -0.15560273616E+03  0.30271725451E+03  0.17300000000E+03 0. -1.
         -6    1    1    2    0  501 -0.12906704758E+03  0.14435450082E+03 -0.94640718518E+02  0.27637364252E+03  0.17300000000E+03 0. -1.
<mgrwt>
<rscale>  2 0.25966425E+03</rscale>
<asrwt>0</asrwt>
<pdfrwt beam="1">  1        3 0.25295957E-01 0.25966425E+03</pdfrwt>
<pdfrwt beam="2">  1       -3 0.63794950E-01 0.25966425E+03</pdfrwt>
<totfact> 0.88835325E+01</totfact>
</mgrwt>
</event>
<event>
 4    3  0.7748294E-001  0.2500055E+03  0.7546771E-02  0.1113301E+00
          2   -1    0    0  502    0  0.00000000000E+00  0.00000000000E+00  0.10514946868E+04  0.10514946868E+04  0.00000000000E+00 0. -1.
         -2   -1    0    0    0  501 -0.00000000000E+00 -0.00000000000E+00 -0.62328255007E+02  0.62328255007E+02  0.00000000000E+00 0.  1.
          6    1    1    2  502    0  0.22984177881E+02 -0.17901252738E+03  0.37473692227E+03  0.45047809969E+03  0.17300000000E+03 0.  1.
         -6    1    1    2    0  501 -0.22984177881E+02  0.17901252738E+03  0.61442950957E+03  0.66334484216E+03  0.17300000000E+03 0. -1.
<mgrwt>
<rscale>  2 0.25000551E+03</rscale>
<asrwt>0</asrwt>
<pdfrwt beam="1">  1        2 0.16176840E+00 0.25000551E+03</pdfrwt>
<pdfrwt beam="2">  1       -2 0.95889631E-02 0.25000551E+03</pdfrwt>
<totfact> 0.17325910E+03</totfact>
</mgrwt>
</event>
<event>
 4    3  0.7748294E-001  0.1892130E+03  0.7546771E-02  0.1159173E+00
         -2   -1    0    0    0  501 -0.00000000000E+00  0.00000000000E+00  0.41199809333E+02  0.41199809333E+02  0.00000000000E+00 0.  1.
          2   -1    0    0  502    0  0.00000000000E+00 -0.00000000000E+00 -0.93524956625E+03  0.93524956625E+03  0.00000000000E+00 0. -1.
          6    1    1    2  502    0 -0.67112145400E+02  0.36993464993E+02 -0.31705783869E+03  0.36922517464E+03  0.17300000000E+03 0.  1.
         -6    1    1    2    0  501  0.67112145400E+02 -0.36993464993E+02 -0.57699191823E+03  0.60722420094E+03  0.17300000000E+03 0. -1.
<mgrwt>
<rscale>  2 0.18921299E+03</rscale>
<asrwt>0</asrwt>
<pdfrwt beam="1">  1        2 0.14388453E+00 0.18921299E+03</pdfrwt>
<pdfrwt beam="2">  1       -2 0.63384328E-02 0.18921299E+03</pdfrwt>
<totfact> 0.38771908E+03</totfact>
</mgrwt>
</event>
<event>
 4    3  0.7748294E-001  0.2197450E+03  0.7546771E-02  0.1134073E+00
          1   -1    0    0  502    0  0.00000000000E+00  0.00000000000E+00  0.88742560799E+03  0.88742560799E+03  0.00000000000E+00 0.  1.
         -1   -1    0    0    0  501 -0.00000000000E+00 -0.00000000000E+00 -0.55045004133E+02  0.55045004133E+02  0.00000000000E+00 0. -1.
          6    1    1    2  502    0 -0.13540865863E+03 -0.48337640975E+01  0.36571354346E+03  0.42665473861E+03  0.17300000000E+03 0. -1.
         -6    1    1    2    0  501  0.13540865863E+03  0.48337640975E+01  0.46666706040E+03  0.51581587351E+03  0.17300000000E+03 0.  1.
<mgrwt>
<rscale>  2 0.21974501E+03</rscale>
<asrwt>0</asrwt>
<pdfrwt beam="1">  1        1 0.13652701E+00 0.21974501E+03</pdfrwt>
<pdfrwt beam="2">  1       -1 0.84684628E-02 0.21974501E+03</pdfrwt>
<totfact> 0.15400572E+03</totfact>
</mgrwt>
</event>
<event>
 4    3  0.7748294E-001  0.4436695E+03  0.7546771E-02  0.1029627E+00
         -1   -1    0    0    0  501 -0.00000000000E+00  0.00000000000E+00  0.23981576083E+03  0.23981576083E+03  0.00000000000E+00 0.  1.
          1   -1    0    0  502    0  0.00000000000E+00 -0.00000000000E+00 -0.82144474093E+03  0.82144474093E+03  0.00000000000E+00 0. -1.
          6    1    1    2  502    0 -0.30745017650E+03 -0.26905025359E+03 -0.30559019576E+03  0.53872814826E+03  0.17300000000E+03 0. -1.
         -6    1    1    2    0  501  0.30745017650E+03  0.26905025359E+03 -0.27603878435E+03  0.52253235349E+03  0.17300000000E+03 0. -1.
<mgrwt>
<rscale>  2 0.44366953E+03</rscale>
<asrwt>0</asrwt>
<pdfrwt beam="1">  1        1 0.12637611E+00 0.44366953E+03</pdfrwt>
<pdfrwt beam="2">  1       -1 0.36894732E-01 0.44366953E+03</pdfrwt>
<totfact> 0.15570038E+02</totfact>
</mgrwt>
</event>
<event>
 4    3  0.7748294E-001  0.2729417E+03  0.7546771E-02  0.1099608E+00
          2   -1    0    0  502    0  0.00000000000E+00  0.00000000000E+00  0.59015601526E+03  0.59015601526E+03  0.00000000000E+00 0. -1.
         -2   -1    0    0    0  501 -0.00000000000E+00 -0.00000000000E+00 -0.14372962874E+03  0.14372962874E+03  0.00000000000E+00 0.  1.
          6    1    1    2  502    0 -0.21110477050E+03 -0.17162949492E+01  0.95185972764E+02  0.28906320971E+03  0.17300000000E+03 0.  1.
         -6    1    1    2    0  501  0.21110477050E+03  0.17162949492E+01  0.35124041375E+03  0.44482243429E+03  0.17300000000E+03 0. -1.
<mgrwt>
<rscale>  2 0.27294170E+03</rscale>
<asrwt>0</asrwt>
<pdfrwt beam="1">  1        2 0.90793232E-01 0.27294170E+03</pdfrwt>
<pdfrwt beam="2">  1       -2 0.22112251E-01 0.27294170E+03</pdfrwt>
<totfact> 0.91037968E+02</totfact>
</mgrwt>
</event>
<event>
 4    3  0.7748294E-001  0.2140643E+03  0.7546771E-02  0.1138387E+00
          2   -1    0    0  502    0  0.00000000000E+00  0.00000000000E+00  0.20645489561E+04  0.20645489561E+04  0.00000000000E+00 0. -1.
         -2   -1    0    0    0  501 -0.00000000000E+00 -0.00000000000E+00 -0.24845754744E+02  0.24845754744E+02  0.00000000000E+00 0.  1.
          6    1    1    2  502    0  0.89381120277E+02 -0.88913205442E+02  0.67864745125E+03  0.71160797202E+03  0.17300000000E+03 0.  1.
         -6    1    1    2    0  501 -0.89381120277E+02  0.88913205442E+02  0.13610557501E+04  0.13777867388E+04  0.17300000000E+03 0.  1.
<mgrwt>
<rscale>  2 0.21406434E+03</rscale>
<asrwt>0</asrwt>
<pdfrwt beam="1">  1        2 0.31762278E+00 0.21406434E+03</pdfrwt>
<pdfrwt beam="2">  1       -2 0.38224254E-02 0.21406434E+03</pdfrwt>
<totfact> 0.20291940E+03</totfact>
</mgrwt>
</event>
<event>
 4    3  0.7748294E-001  0.1861547E+03  0.7546771E-02  0.1161976E+00
         -2   -1    0    0    0  501 -0.00000000000E+00  0.00000000000E+00  0.37776571284E+03  0.37776571284E+03  0.00000000000E+00 0.  1.
          2   -1    0    0  502    0  0.00000000000E+00 -0.00000000000E+00 -0.18996218853E+03  0.18996218853E+03  0.00000000000E+00 0. -1.
          6    1    1    2  502    0 -0.41400340845E+02 -0.54868706972E+02  0.29802716246E+03  0.35138832193E+03  0.17300000000E+03 0.  1.
         -6    1    1    2    0  501  0.41400340845E+02  0.54868706972E+02 -0.11022363815E+03  0.21633957944E+03  0.17300000000E+03 0. -1.
<mgrwt>
<rscale>  2 0.18615468E+03</rscale>
<asrwt>0</asrwt>
<pdfrwt beam="1">  1        2 0.29224952E-01 0.18615468E+03</pdfrwt>
<pdfrwt beam="2">  1       -2 0.58117802E-01 0.18615468E+03</pdfrwt>
<totfact> 0.51051927E+02</totfact>
</mgrwt>
</event>
<event>
 4    3  0.7748294E-001  0.1796035E+03  0.7546771E-02  0.1168187E+00
          2   -1    0    0  502    0  0.00000000000E+00  0.00000000000E+00  0.10453674828E+04  0.10453674828E+04  0.00000000000E+00 0. -1.
         -2   -1    0    0    0  501 -0.00000000000E+00 -0.00000000000E+00 -0.30964373255E+02  0.30964373255E+02  0.00000000000E+00 0.  1.
          6    1    1    2  502    0  0.60691025708E+01 -0.47870557089E+02  0.47558422957E+03  0.50836776418E+03  0.17300000000E+03 0. -1.
         -6    1    1    2    0  501 -0.60691025708E+01  0.47870557089E+02  0.53881887998E+03  0.56796409188E+03  0.17300000000E+03 0.  1.
<mgrwt>
<rscale>  2 0.17960352E+03</rscale>
<asrwt>0</asrwt>
<pdfrwt beam="1">  1        2 0.16082574E+00 0.17960352E+03</pdfrwt>
<pdfrwt beam="2">  1       -2 0.47637506E-02 0.17960352E+03</pdfrwt>
<totfact> 0.51215872E+03</totfact>
</mgrwt>
</event>
<event>
 4    3  0.7748294E-001  0.2455929E+03  0.7546771E-02  0.1116122E+00
         -1   -1    0    0    0  501 -0.00000000000E+00  0.00000000000E+00  0.70629556258E+02  0.70629556258E+02  0.00000000000E+00 0.  1.
          1   -1    0    0  502    0  0.00000000000E+00 -0.00000000000E+00 -0.14162842971E+04  0.14162842971E+04  0.00000000000E+00 0. -1.
          6    1    1    2  502    0  0.85142527898E+02  0.15211061224E+03 -0.11412826657E+04  0.11674082454E+04  0.17300000000E+03 0. -1.
         -6    1    1    2    0  501 -0.85142527898E+02 -0.15211061224E+03 -0.20437207514E+03  0.31950560795E+03  0.17300000000E+03 0.  1.
<mgrwt>
<rscale>  2 0.24559293E+03</rscale>
<asrwt>0</asrwt>
<pdfrwt beam="1">  1        1 0.21788989E+00 0.24559293E+03</pdfrwt>
<pdfrwt beam="2">  1       -1 0.10866086E-01 0.24559293E+03</pdfrwt>
<totfact> 0.43866417E+02</totfact>
</mgrwt>
</event>
<event>
 4    3  0.7748294E-001  0.6086072E+03  0.7546771E-02  0.9887708E-01
         -1   -1    0    0    0  501 -0.00000000000E+00  0.00000000000E+00  0.28401737981E+03  0.28401737981E+03  0.00000000000E+00 0.  1.
          1   -1    0    0  502    0  0.00000000000E+00 -0.00000000000E+00 -0.13251744812E+04  0.13251744812E+04  0.00000000000E+00 0. -1.
          6    1    1    2  502    0  0.29865248030E+03  0.50127872576E+03 -0.41924504620E+03  0.73903252544E+03  0.17300000000E+03 0.  1.
         -6    1    1    2    0  501 -0.29865248030E+03 -0.50127872576E+03 -0.62191205516E+03  0.87015933555E+03  0.17300000000E+03 0. -1.
<mgrwt>
<rscale>  2 0.60860715E+03</rscale>
<asrwt>0</asrwt>
<pdfrwt beam="1">  1        1 0.20387300E+00 0.60860715E+03</pdfrwt>
<pdfrwt beam="2">  1       -1 0.43694982E-01 0.60860715E+03</pdfrwt>
<totfact> 0.46904387E+01</totfact>
</mgrwt>
</event>
<event>
 4    3  0.7748294E-001  0.4021283E+03  0.7546771E-02  0.1043045E+00
         -1   -1    0    0    0  501 -0.00000000000E+00  0.00000000000E+00  0.17091033161E+03  0.17091033161E+03  0.00000000000E+00 0. -1.
          1   -1    0    0  502    0  0.00000000000E+00 -0.00000000000E+00 -0.13795518397E+04  0.13795518397E+04  0.00000000000E+00 0.  1.
          6    1    1    2  502    0 -0.34596467422E+03 -0.10993931747E+03 -0.10388373534E+04  0.11139525376E+04  0.17300000000E+03 0.  1.
         -6    1    1    2    0  501  0.34596467422E+03  0.10993931747E+03 -0.16980415470E+03  0.43650963367E+03  0.17300000000E+03 0. -1.
<mgrwt>
<rscale>  2 0.40212835E+03</rscale>
<asrwt>0</asrwt>
<pdfrwt beam="1">  1        1 0.21223873E+00 0.40212835E+03</pdfrwt>
<pdfrwt beam="2">  1       -1 0.26293898E-01 0.40212835E+03</pdfrwt>
<totfact> 0.10849345E+02</totfact>
</mgrwt>
</event>
<event>
 4    3  0.7748294E-001  0.2030369E+03  0.7546771E-02  0.1147202E+00
         -2   -1    0    0    0  501 -0.00000000000E+00  0.00000000000E+00  0.12159271180E+03  0.12159271180E+03  0.00000000000E+00 0. -1.
          2   -1    0    0  502    0  0.00000000000E+00 -0.00000000000E+00 -0.45238677968E+03  0.45238677968E+03  0.00000000000E+00 0.  1.
          6    1    1    2  502    0 -0.92949383528E+02 -0.51530402284E+02 -0.21739309586E+02  0.20419737471E+03  0.17300000000E+03 0. -1.
         -6    1    1    2    0  501  0.92949383528E+02  0.51530402284E+02 -0.30905475829E+03  0.36978211677E+03  0.17300000000E+03 0.  1.
<mgrwt>
<rscale>  2 0.20303687E+03</rscale>
<asrwt>0</asrwt>
<pdfrwt beam="1">  1        2 0.69597965E-01 0.20303687E+03</pdfrwt>
<pdfrwt beam="2">  1       -2 0.18706571E-01 0.20303687E+03</pdfrwt>
<totfact> 0.16325206E+03</totfact>
</mgrwt>
</event>
<event>
 4    3  0.7748294E-001  0.1880073E+03  0.7546771E-02  0.1160271E+00
          2   -1    0    0  502    0  0.00000000000E+00  0.00000000000E+00  0.20762391636E+03  0.20762391636E+03  0.00000000000E+00 0. -1.
         -2   -1    0    0    0  501 -0.00000000000E+00 -0.00000000000E+00 -0.23661672388E+03  0.23661672388E+03  0.00000000000E+00 0.  1.
          6    1    1    2  502    0  0.52459590664E+02  0.51630604319E+02  0.10314504446E+03  0.21444259873E+03  0.17300000000E+03 0. -1.
         -6    1    1    2    0  501 -0.52459590664E+02 -0.51630604319E+02 -0.13213785198E+03  0.22979804151E+03  0.17300000000E+03 0.  1.
<mgrwt>
<rscale>  2 0.18800726E+03</rscale>
<asrwt>0</asrwt>
<pdfrwt beam="1">  1        2 0.31942141E-01 0.18800726E+03</pdfrwt>
<pdfrwt beam="2">  1       -2 0.36402573E-01 0.18800726E+03</pdfrwt>
<totfact> 0.11582519E+03</totfact>
</mgrwt>
</event>
<event>
 4    3  0.7748294E-001  0.1919818E+03  0.7546771E-02  0.1156686E+00
          1   -1    0    0  502    0  0.00000000000E+00  0.00000000000E+00  0.45907291393E+03  0.45907291393E+03  0.00000000000E+00 0. -1.
         -1   -1    0    0    0  501 -0.00000000000E+00 -0.00000000000E+00 -0.86263970891E+02  0.86263970891E+02  0.00000000000E+00 0.  1.
          6    1    1    2  502    0  0.81904347044E+02 -0.14822251812E+02  0.25818480957E+03  0.32173967288E+03  0.17300000000E+03 0.  1.
         -6    1    1    2    0  501 -0.81904347044E+02  0.14822251812E+02  0.11462413347E+03  0.22359721194E+03  0.17300000000E+03 0.  1.
<mgrwt>
<rscale>  2 0.19198183E+03</rscale>
<asrwt>0</asrwt>
<pdfrwt beam="1">  1        1 0.70626601E-01 0.19198183E+03</pdfrwt>
<pdfrwt beam="2">  1       -1 0.13271380E-01 0.19198183E+03</pdfrwt>
<totfact> 0.19588434E+03</totfact>
</mgrwt>
</event>
<event>
 4    3  0.7748294E-001  0.2254384E+03  0.7546771E-02  0.1129892E+00
          2   -1    0    0  502    0  0.00000000000E+00  0.00000000000E+00  0.11221943269E+04  0.11221943269E+04  0.00000000000E+00 0. -1.
         -2   -1    0    0    0  501 -0.00000000000E+00 -0.00000000000E+00 -0.48201062586E+02  0.48201062586E+02  0.00000000000E+00 0.  1.
          6    1    1    2  502    0 -0.14449528368E+03 -0.38189420708E+01  0.39314536528E+03  0.45319504583E+03  0.17300000000E+03 0.  1.
         -6    1    1    2    0  501  0.14449528368E+03  0.38189420708E+01  0.68084789906E+03  0.71720034368E+03  0.17300000000E+03 0.  1.
<mgrwt>
<rscale>  2 0.22543840E+03</rscale>
<asrwt>0</asrwt>
<pdfrwt beam="1">  1        2 0.17264526E+00 0.22543840E+03</pdfrwt>
<pdfrwt beam="2">  1       -2 0.74155490E-02 0.22543840E+03</pdfrwt>
<totfact> 0.23560195E+03</totfact>
</mgrwt>
</event>
<event>
 4    3  0.7748294E-001  0.1768719E+03  0.7546771E-02  0.1170865E+00
          2   -1    0    0  502    0  0.00000000000E+00  0.00000000000E+00  0.15131431695E+04  0.15131431695E+04  0.00000000000E+00 0.  1.
         -2   -1    0    0    0  501 -0.00000000000E+00 -0.00000000000E+00 -0.21789465808E+02  0.21789465808E+02  0.00000000000E+00 0. -1.
          6    1    1    2  502    0  0.30571306862E+02 -0.20495088410E+02  0.91927467802E+03  0.93613545339E+03  0.17300000000E+03 0.  1.
         -6    1    1    2    0  501 -0.30571306862E+02  0.20495088410E+02  0.57207902563E+03  0.59879718188E+03  0.17300000000E+03 0. -1.
<mgrwt>
<rscale>  2 0.17687186E+03</rscale>
<asrwt>0</asrwt>
<pdfrwt beam="1">  1        2 0.23279118E+00 0.17687186E+03</pdfrwt>
<pdfrwt beam="2">  1       -2 0.33522267E-02 0.17687186E+03</pdfrwt>
<totfact> 0.47799157E+03</totfact>
</mgrwt>
</event>
<event>
 4    3  0.7748294E-001  0.2739658E+03  0.7546771E-02  0.1099031E+00
          2   -1    0    0  502    0  0.00000000000E+00  0.00000000000E+00  0.64859728797E+02  0.64859728797E+02  0.00000000000E+00 0.  1.
         -2   -1    0    0    0  501 -0.00000000000E+00 -0.00000000000E+00 -0.11666227577E+04  0.11666227577E+04  0.00000000000E+00 0. -1.
          6    1    1    2  502    0 -0.11263362350E+03  0.18011645390E+03 -0.60614721373E+03  0.66518547400E+03  0.17300000000E+03 0. -1.
         -6    1    1    2    0  501  0.11263362350E+03 -0.18011645390E+03 -0.49561581513E+03  0.56629701246E+03  0.17300000000E+03 0.  1.
<mgrwt>
<rscale>  2 0.27396582E+03</rscale>
<asrwt>0</asrwt>
<pdfrwt beam="1">  1        2 0.99784207E-02 0.27396582E+03</pdfrwt>
<pdfrwt beam="2">  1       -2 0.17948041E+00 0.27396582E+03</pdfrwt>
<totfact> 0.12606173E+02</totfact>
</mgrwt>
</event>
<event>
 4    3  0.7748294E-001  0.2684217E+03  0.7546771E-02  0.1102186E+00
         -2   -1    0    0    0  501 -0.00000000000E+00  0.00000000000E+00  0.13428971235E+03  0.13428971235E+03  0.00000000000E+00 0.  1.
          2   -1    0    0  502    0  0.00000000000E+00 -0.00000000000E+00 -0.55900412088E+03  0.55900412088E+03  0.00000000000E+00 0. -1.
          6    1    1    2  502    0 -0.40799146895E+02  0.20113839660E+03 -0.14284868179E+03  0.30406573444E+03  0.17300000000E+03 0.  1.
         -6    1    1    2    0  501  0.40799146895E+02 -0.20113839660E+03 -0.28186572674E+03  0.38922809879E+03  0.17300000000E+03 0. -1.
<mgrwt>
<rscale>  2 0.26842173E+03</rscale>
<asrwt>0</asrwt>
<pdfrwt beam="1">  1        2 0.86000632E-01 0.26842173E+03</pdfrwt>
<pdfrwt beam="2">  1       -2 0.20659956E-01 0.26842173E+03</pdfrwt>
<totfact> 0.10903100E+03</totfact>
</mgrwt>
</event>
<event>
 4    3  0.7748294E-001  0.2364793E+03  0.7546771E-02  0.1122161E+00
         -2   -1    0    0    0  501 -0.00000000000E+00  0.00000000000E+00  0.47519118223E+02  0.47519118223E+02  0.00000000000E+00 0. -1.
          2   -1    0    0  502    0  0.00000000000E+00 -0.00000000000E+00 -0.12743356246E+04  0.12743356246E+04  0.00000000000E+00 0.  1.
          6    1    1    2  502    0  0.15385281515E+03 -0.48195047279E+02 -0.79621909190E+03  0.83059454225E+03  0.17300000000E+03 0.  1.
         -6    1    1    2    0  501 -0.15385281515E+03  0.48195047279E+02 -0.43059741448E+03  0.49126020058E+03  0.17300000000E+03 0. -1.
<mgrwt>
<rscale>  2 0.23647928E+03</rscale>
<asrwt>0</asrwt>
<pdfrwt beam="1">  1        2 0.19605163E+00 0.23647928E+03</pdfrwt>
<pdfrwt beam="2">  1       -2 0.73106336E-02 0.23647928E+03</pdfrwt>
<totfact> 0.19752179E+03</totfact>
</mgrwt>
</event>
<event>
 4    3  0.7748294E-001  0.2604276E+03  0.7546771E-02  0.1106887E+00
          2   -1    0    0  502    0  0.00000000000E+00  0.00000000000E+00  0.40208870593E+03  0.40208870593E+03  0.00000000000E+00 0. -1.
         -2   -1    0    0    0  501 -0.00000000000E+00 -0.00000000000E+00 -0.16878588072E+03  0.16878588072E+03  0.00000000000E+00 0.  1.
          6    1    1    2  502    0 -0.40623225157E+02 -0.19037669675E+03  0.10935358689E+03  0.28245484605E+03  0.17300000000E+03 0.  1.
         -6    1    1    2    0  501  0.40623225157E+02  0.19037669675E+03  0.12394923833E+03  0.28841974061E+03  0.17300000000E+03 0.  1.
<mgrwt>
<rscale>  2 0.26042760E+03</rscale>
<asrwt>0</asrwt>
<pdfrwt beam="1">  1        2 0.61859800E-01 0.26042760E+03</pdfrwt>
<pdfrwt beam="2">  1       -2 0.25967059E-01 0.26042760E+03</pdfrwt>
<totfact> 0.10552830E+03</totfact>
</mgrwt>
</event>
<event>
 4    3  0.7748294E-001  0.2710619E+03  0.7546771E-02  0.1100673E+00
          2   -1    0    0  502    0  0.00000000000E+00  0.00000000000E+00  0.19151150749E+04  0.19151150749E+04  0.00000000000E+00 0. -1.
         -2   -1    0    0    0  501 -0.00000000000E+00 -0.00000000000E+00 -0.59457744504E+02  0.59457744504E+02  0.00000000000E+00 0.  1.
          6    1    1    2  502    0 -0.10681439555E+03  0.17926586023E+03  0.15158582534E+04  0.15399028567E+04  0.17300000000E+03 0. -1.
         -6    1    1    2    0  501  0.10681439555E+03 -0.17926586023E+03  0.33979907704E+03  0.43466996273E+03  0.17300000000E+03 0.  1.
<mgrwt>
<rscale>  2 0.27106192E+03</rscale>
<asrwt>0</asrwt>
<pdfrwt beam="1">  1        2 0.29463304E+00 0.27106192E+03</pdfrwt>
<pdfrwt beam="2">  1       -2 0.91473468E-02 0.27106192E+03</pdfrwt>
<totfact> 0.63081021E+02</totfact>
</mgrwt>
</event>
<event>
 4    3  0.7748294E-001  0.1835230E+03  0.7546771E-02  0.1164436E+00
          2   -1    0    0  502    0  0.00000000000E+00  0.00000000000E+00  0.29413375590E+04  0.29413375590E+04  0.00000000000E+00 0.  1.
         -2   -1    0    0    0  501 -0.00000000000E+00 -0.00000000000E+00 -0.12482486546E+02  0.12482486546E+02  0.00000000000E+00 0. -1.
          6    1    1    2  502    0  0.13714588963E+02  0.59695952651E+02  0.18890229725E+04  0.18979168810E+04  0.17300000000E+03 0.  1.
         -6    1    1    2    0  501 -0.13714588963E+02 -0.59695952651E+02  0.10398321000E+04  0.10559031645E+04  0.17300000000E+03 0. -1.
<mgrwt>
<rscale>  2 0.18352301E+03</rscale>
<asrwt>0</asrwt>
<pdfrwt beam="1">  1        2 0.45251292E+00 0.18352301E+03</pdfrwt>
<pdfrwt beam="2">  1       -2 0.19203849E-02 0.18352301E+03</pdfrwt>
<totfact> 0.18762422E+03</totfact>
</mgrwt>
</event>
<event>
 4    3  0.7748294E-001  0.1849272E+03  0.7546771E-02  0.1163118E+00
         -1   -1    0    0    0  501 -0.00000000000E+00  0.00000000000E+00  0.88807483207E+02  0.88807483207E+02  0.00000000000E+00 0. -1.
          1   -1    0    0  502    0  0.00000000000E+00 -0.00000000000E+00 -0.38527500849E+03  0.38527500849E+03  0.00000000000E+00 0.  1.
          6    1    1    2  502    0  0.30942985323E+02 -0.57546664458E+02 -0.14291645985E+03  0.23371607011E+03  0.17300000000E+03 0.  1.
         -6    1    1    2    0  501 -0.30942985323E+02  0.57546664458E+02 -0.15355106543E+03  0.24036642158E+03  0.17300000000E+03 0. -1.
<mgrwt>
<rscale>  2 0.18492725E+03</rscale>
<asrwt>0</asrwt>
<pdfrwt beam="1">  1        1 0.59273079E-01 0.18492725E+03</pdfrwt>
<pdfrwt beam="2">  1       -1 0.13662689E-01 0.18492725E+03</pdfrwt>
<totfact> 0.23410643E+03</totfact>
</mgrwt>
</event>
<event>
 4    3  0.7748294E-001  0.1948898E+03  0.7546771E-02  0.1154124E+00
         -1   -1    0    0    0  501 -0.00000000000E+00  0.00000000000E+00  0.76555547015E+02  0.76555547015E+02  0.00000000000E+00 0.  1.
          1   -1    0    0  502    0  0.00000000000E+00 -0.00000000000E+00 -0.50818890179E+03  0.50818890179E+03  0.00000000000E+00 0. -1.
          6    1    1    2  502    0 -0.53332368794E+02  0.72171296174E+02 -0.17079188100E+03  0.25913684448E+03  0.17300000000E+03 0. -1.
         -6    1    1    2    0  501  0.53332368794E+02 -0.72171296174E+02 -0.26084147378E+03  0.32560760433E+03  0.17300000000E+03 0. -1.
<mgrwt>
<rscale>  2 0.19488981E+03</rscale>
<asrwt>0</asrwt>
<pdfrwt beam="1">  1        1 0.78182907E-01 0.19488981E+03</pdfrwt>
<pdfrwt beam="2">  1       -1 0.11777777E-01 0.19488981E+03</pdfrwt>
<totfact> 0.20661755E+03</totfact>
</mgrwt>
</event>
<event>
 4    3  0.7748294E-001  0.5141009E+03  0.7546771E-02  0.1010163E+00
         -2   -1    0    0    0  501 -0.00000000000E+00  0.00000000000E+00  0.14049403206E+03  0.14049403206E+03  0.00000000000E+00 0. -1.
          2   -1    0    0  502    0  0.00000000000E+00 -0.00000000000E+00 -0.21466412488E+04  0.21466412488E+04  0.00000000000E+00 0.  1.
          6    1    1    2  502    0  0.40339974325E+03 -0.26765538525E+03 -0.60095660194E+03  0.79085308087E+03  0.17300000000E+03 0.  1.
         -6    1    1    2    0  501 -0.40339974325E+03  0.26765538525E+03 -0.14051906148E+04  0.14962822000E+04  0.17300000000E+03 0. -1.
<mgrwt>
<rscale>  2 0.51410092E+03</rscale>
<asrwt>0</asrwt>
<pdfrwt beam="1">  1        2 0.33025249E+00 0.51410092E+03</pdfrwt>
<pdfrwt beam="2">  1       -2 0.21614467E-01 0.51410092E+03</pdfrwt>
<totfact> 0.10923283E+02</totfact>
</mgrwt>
</event>
<event>
 4    3  0.7748294E-001  0.1782542E+03  0.7546771E-02  0.1169503E+00
          2   -1    0    0  502    0  0.00000000000E+00  0.00000000000E+00  0.17076912226E+04  0.17076912226E+04  0.00000000000E+00 0.  1.
         -2   -1    0    0    0  501 -0.00000000000E+00 -0.00000000000E+00 -0.21214399080E+02  0.21214399080E+02  0.00000000000E+00 0. -1.
          6    1    1    2  502    0 -0.22642763950E+02  0.36508187641E+02  0.11463150787E+04  0.11600917215E+04  0.17300000000E+03 0.  1.
         -6    1    1    2    0  501  0.22642763950E+02 -0.36508187641E+02  0.54016174477E+03  0.56881390018E+03  0.17300000000E+03 0. -1.
<mgrwt>
<rscale>  2 0.17825415E+03</rscale>
<asrwt>0</asrwt>
<pdfrwt beam="1">  1        2 0.26272162E+00 0.17825415E+03</pdfrwt>
<pdfrwt beam="2">  1       -2 0.32637551E-02 0.17825415E+03</pdfrwt>
<totfact> 0.39377723E+03</totfact>
</mgrwt>
</event>
<event>
 4    3  0.7748294E-001  0.1819710E+03  0.7546771E-02  0.1165909E+00
         -2   -1    0    0    0  501 -0.00000000000E+00  0.00000000000E+00  0.15273629215E+02  0.15273629215E+02  0.00000000000E+00 0. -1.
          2   -1    0    0  502    0  0.00000000000E+00 -0.00000000000E+00 -0.22056152807E+04  0.22056152807E+04  0.00000000000E+00 0.  1.
          6    1    1    2  502    0 -0.23351570082E+01  0.56382632148E+02 -0.95018395865E+03  0.96745181247E+03  0.17300000000E+03 0.  1.
         -6    1    1    2    0  501  0.23351570082E+01 -0.56382632148E+02 -0.12401576929E+04  0.12534370975E+04  0.17300000000E+03 0.  1.
<mgrwt>
<rscale>  2 0.18197103E+03</rscale>
<asrwt>0</asrwt>
<pdfrwt beam="1">  1        2 0.33932504E+00 0.18197103E+03</pdfrwt>
<pdfrwt beam="2">  1       -2 0.23497918E-02 0.18197103E+03</pdfrwt>
<totfact> 0.35290729E+03</totfact>
</mgrwt>
</event>
<event>
 4    3  0.7748294E-001  0.2269582E+03  0.7546771E-02  0.1128799E+00
         -2   -1    0    0    0  501 -0.00000000000E+00  0.00000000000E+00  0.28488544660E+03  0.28488544660E+03  0.00000000000E+00 0.  1.
          2   -1    0    0  502    0  0.00000000000E+00 -0.00000000000E+00 -0.32596945422E+03  0.32596945422E+03  0.00000000000E+00 0. -1.
          6    1    1    2  502    0  0.12377008656E+03 -0.79132791958E+02 -0.22436014020E+03  0.31913555991E+03  0.17300000000E+03 0. -1.
         -6    1    1    2    0  501 -0.12377008656E+03  0.79132791958E+02  0.18327613257E+03  0.29171934091E+03  0.17300000000E+03 0.  1.
<mgrwt>
<rscale>  2 0.22695822E+03</rscale>
<asrwt>0</asrwt>
<pdfrwt beam="1">  1        2 0.50149147E-01 0.22695822E+03</pdfrwt>
<pdfrwt beam="2">  1       -2 0.43828530E-01 0.22695822E+03</pdfrwt>
<totfact> 0.50065427E+02</totfact>
</mgrwt>
</event>
<event>
 4    3  0.7748294E-001  0.1772991E+03  0.7546771E-02  0.1170443E+00
          2   -1    0    0  502    0  0.00000000000E+00  0.00000000000E+00  0.99874466025E+02  0.99874466025E+02  0.00000000000E+00 0. -1.
         -2   -1    0    0    0  501 -0.00000000000E+00 -0.00000000000E+00 -0.31540823939E+03  0.31540823939E+03  0.00000000000E+00 0.  1.
          6    1    1    2  502    0 -0.35329516138E+02  0.16056541202E+02 -0.98245116890E+02  0.20269950720E+03  0.17300000000E+03 0.  1.
         -6    1    1    2    0  501  0.35329516138E+02 -0.16056541202E+02 -0.11728865647E+03  0.21258319821E+03  0.17300000000E+03 0.  1.
<mgrwt>
<rscale>  2 0.17729915E+03</rscale>
<asrwt>0</asrwt>
<pdfrwt beam="1">  1        2 0.15365303E-01 0.17729915E+03</pdfrwt>
<pdfrwt beam="2">  1       -2 0.48524344E-01 0.17729915E+03</pdfrwt>
<totfact> 0.15199864E+03</totfact>
</mgrwt>
</event>
<event>
 4    3  0.7748294E-001  0.1931823E+03  0.7546771E-02  0.1155622E+00
         -2   -1    0    0    0  501 -0.00000000000E+00  0.00000000000E+00  0.96122165672E+02  0.96122165672E+02  0.00000000000E+00 0. -1.
          2   -1    0    0  502    0  0.00000000000E+00 -0.00000000000E+00 -0.39438160515E+03  0.39438160515E+03  0.00000000000E+00 0.  1.
          6    1    1    2  502    0  0.81405697965E+02 -0.27631809968E+02 -0.11854878283E+03  0.22665660920E+03  0.17300000000E+03 0.  1.
         -6    1    1    2    0  501 -0.81405697965E+02  0.27631809968E+02 -0.17971065665E+03  0.26384716162E+03  0.17300000000E+03 0.  1.
<mgrwt>
<rscale>  2 0.19318231E+03</rscale>
<asrwt>0</asrwt>
<pdfrwt beam="1">  1        2 0.60674092E-01 0.19318231E+03</pdfrwt>
<pdfrwt beam="2">  1       -2 0.14788026E-01 0.19318231E+03</pdfrwt>
<totfact> 0.28016135E+03</totfact>
</mgrwt>
</event>
<event>
 4    3  0.7748294E-001  0.1806899E+03  0.7546771E-02  0.1167137E+00
         -1   -1    0    0    0  501 -0.00000000000E+00  0.00000000000E+00  0.38766249169E+02  0.38766249169E+02  0.00000000000E+00 0.  1.
          1   -1    0    0  502    0  0.00000000000E+00 -0.00000000000E+00 -0.91427174396E+03  0.91427174396E+03  0.00000000000E+00 0. -1.
          6    1    1    2  502    0  0.26743113124E+01  0.52083566930E+02 -0.57154522746E+03  0.59942705721E+03  0.17300000000E+03 0. -1.
         -6    1    1    2    0  501 -0.26743113124E+01 -0.52083566930E+02 -0.30396026733E+03  0.35361093592E+03  0.17300000000E+03 0.  1.
<mgrwt>
<rscale>  2 0.18068993E+03</rscale>
<asrwt>0</asrwt>
<pdfrwt beam="1">  1        1 0.14065718E+00 0.18068993E+03</pdfrwt>
<pdfrwt beam="2">  1       -1 0.59640387E-02 0.18068993E+03</pdfrwt>
<totfact> 0.24903240E+03</totfact>
</mgrwt>
</event>
<event>
 4    3  0.7748294E-001  0.2253263E+03  0.7546771E-02  0.1129973E+00
         -3   -1    0    0    0  501 -0.00000000000E+00  0.00000000000E+00  0.32408414320E+03  0.32408414320E+03  0.00000000000E+00 0.  1.
          3   -1    0    0  502    0  0.00000000000E+00 -0.00000000000E+00 -0.26026897272E+03  0.26026897272E+03  0.00000000000E+00 0. -1.
          6    1    1    2  502    0  0.42882945923E+02 -0.13785495593E+03 -0.15243553839E+03  0.27204508687E+03  0.17300000000E+03 0. -1.
         -6    1    1    2    0  501 -0.42882945923E+02  0.13785495593E+03  0.21625070887E+03  0.31230802905E+03  0.17300000000E+03 0.  1.
<mgrwt>
<rscale>  2 0.22532629E+03</rscale>
<asrwt>0</asrwt>
<pdfrwt beam="1">  1        3 0.40041381E-01 0.22532629E+03</pdfrwt>
<pdfrwt beam="2">  1       -3 0.49859099E-01 0.22532629E+03</pdfrwt>
<totfact> 0.61405511E+01</totfact>
</mgrwt>
</event>
<event>
 4    3  0.7748294E-001  0.1771198E+03  0.7546771E-02  0.1170620E+00
         -2   -1    0    0    0  501 -0.00000000000E+00  0.00000000000E+00  0.24343318282E+02  0.24343318282E+02  0.00000000000E+00 0. -1.
          2   -1    0    0  502    0  0.00000000000E+00 -0.00000000000E+00 -0.12887078127E+04  0.12887078127E+04  0.00000000000E+00 0.  1.
          6    1    1    2  502    0  0.22695808414E+02  0.30451915612E+02 -0.63245898463E+03  0.65679204177E+03  0.17300000000E+03 0.  1.
         -6    1    1    2    0  501 -0.22695808414E+02 -0.30451915612E+02 -0.63190550983E+03  0.65625908926E+03  0.17300000000E+03 0. -1.
<mgrwt>
<rscale>  2 0.17711979E+03</rscale>
<asrwt>0</asrwt>
<pdfrwt beam="1">  1        2 0.19826271E+00 0.17711979E+03</pdfrwt>
<pdfrwt beam="2">  1       -2 0.37451265E-02 0.17711979E+03</pdfrwt>
<totfact> 0.53447171E+03</totfact>
</mgrwt>
</event>
<event>
 4    3  0.7748294E-001  0.2079312E+03  0.7546771E-02  0.1143215E+00
          1   -1    0    0  502    0  0.00000000000E+00  0.00000000000E+00  0.43798501382E+03  0.43798501382E+03  0.00000000000E+00 0. -1.
         -1   -1    0    0    0  501 -0.00000000000E+00 -0.00000000000E+00 -0.12832208452E+03  0.12832208452E+03  0.00000000000E+00 0.  1.
          6    1    1    2  502    0 -0.11535223972E+03 -0.48083279877E+00  0.18820321500E+02  0.20878116512E+03  0.17300000000E+03 0.  1.
         -6    1    1    2    0  501  0.11535223972E+03  0.48083279877E+00  0.29084260781E+03  0.35752593322E+03  0.17300000000E+03 0.  1.
<mgrwt>
<rscale>  2 0.20793117E+03</rscale>
<asrwt>0</asrwt>
<pdfrwt beam="1">  1        1 0.67382309E-01 0.20793117E+03</pdfrwt>
<pdfrwt beam="2">  1       -1 0.19741859E-01 0.20793117E+03</pdfrwt>
<totfact> 0.11077271E+03</totfact>
</mgrwt>
</event>
<event>
 4    3  0.7748294E-001  0.4089963E+03  0.7546771E-02  0.1040708E+00
         -2   -1    0    0    0  501 -0.00000000000E+00  0.00000000000E+00  0.41064367926E+02  0.41064367926E+02  0.00000000000E+00 0.  1.
          2   -1    0    0  502    0  0.00000000000E+00 -0.00000000000E+00 -0.42797087374E+04  0.42797087374E+04  0.00000000000E+00 0. -1.
          6    1    1    2  502    0 -0.29176155197E+03 -0.22852600176E+03 -0.16451668994E+04  0.16952439540E+04  0.17300000000E+03 0.  1.
         -6    1    1    2    0  501  0.29176155197E+03  0.22852600176E+03 -0.25934774701E+04  0.26255291514E+04  0.17300000000E+03 0. -1.
<mgrwt>
<rscale>  2 0.40899626E+03</rscale>
<asrwt>0</asrwt>
<pdfrwt beam="1">  1        2 0.65841647E+00 0.40899626E+03</pdfrwt>
<pdfrwt beam="2">  1       -2 0.63175976E-02 0.40899626E+03</pdfrwt>
<totfact> 0.34387945E+01</totfact>
</mgrwt>
</event>
<event>
 4    3  0.7748294E-001  0.1887124E+03  0.7546771E-02  0.1159628E+00
          1   -1    0    0  502    0  0.00000000000E+00  0.00000000000E+00  0.12506320114E+04  0.12506320114E+04  0.00000000000E+00 0.  1.
         -1   -1    0    0    0  501 -0.00000000000E+00 -0.00000000000E+00 -0.28972567838E+02  0.28972567838E+02  0.00000000000E+00 0. -1.
          6    1    1    2  502    0  0.64168642239E+02 -0.39569847287E+02  0.69463177719E+03  0.71980948406E+03  0.17300000000E+03 0.  1.
         -6    1    1    2    0  501 -0.64168642239E+02  0.39569847287E+02  0.52702766633E+03  0.55979509514E+03  0.17300000000E+03 0.  1.
<mgrwt>
<rscale>  2 0.18871245E+03</rscale>
<asrwt>0</asrwt>
<pdfrwt beam="1">  1        1 0.19240488E+00 0.18871245E+03</pdfrwt>
<pdfrwt beam="2">  1       -1 0.44573191E-02 0.18871245E+03</pdfrwt>
<totfact> 0.22025599E+03</totfact>
</mgrwt>
</event>
<event>
 4    3  0.7748294E-001  0.1737994E+03  0.7546771E-02  0.1173943E+00
          1   -1    0    0  502    0  0.00000000000E+00  0.00000000000E+00  0.15985370756E+04  0.15985370756E+04  0.00000000000E+00 0.  1.
         -1   -1    0    0    0  501 -0.00000000000E+00 -0.00000000000E+00 -0.19351856005E+02  0.19351856005E+02  0.00000000000E+00 0. -1.
          6    1    1    2  502    0  0.12416467080E+02 -0.11093514804E+02  0.91372591970E+03  0.93010821470E+03  0.17300000000E+03 0.  1.
         -6    1    1    2    0  501 -0.12416467080E+02  0.11093514804E+02  0.66545929991E+03  0.68778071692E+03  0.17300000000E+03 0. -1.
<mgrwt>
<rscale>  2 0.17379941E+03</rscale>
<asrwt>0</asrwt>
<pdfrwt beam="1">  1        1 0.24592868E+00 0.17379941E+03</pdfrwt>
<pdfrwt beam="2">  1       -1 0.29772099E-02 0.17379941E+03</pdfrwt>
<totfact> 0.23474806E+03</totfact>
</mgrwt>
</event>
<event>
 4    3  0.7748294E-001  0.1733999E+03  0.7546771E-02  0.1174348E+00
         -1   -1    0    0    0  501 -0.00000000000E+00  0.00000000000E+00  0.21498865967E+02  0.21498865967E+02  0.00000000000E+00 0. -1.
          1   -1    0    0  502    0  0.00000000000E+00 -0.00000000000E+00 -0.14061076386E+04  0.14061076386E+04  0.00000000000E+00 0.  1.
          6    1    1    2  502    0 -0.10774315884E+02 -0.47373363171E+01 -0.64001959258E+03  0.66309321149E+03  0.17300000000E+03 0.  1.
         -6    1    1    2    0  501  0.10774315884E+02  0.47373363171E+01 -0.74458918002E+03  0.76451329305E+03  0.17300000000E+03 0.  1.
<mgrwt>
<rscale>  2 0.17339991E+03</rscale>
<asrwt>0</asrwt>
<pdfrwt beam="1">  1        1 0.21632423E+00 0.17339991E+03</pdfrwt>
<pdfrwt beam="2">  1       -1 0.33075182E-02 0.17339991E+03</pdfrwt>
<totfact> 0.26881162E+03</totfact>
</mgrwt>
</event>
<event>
 4    3  0.7748294E-001  0.2976680E+03  0.7546771E-02  0.1086412E+00
          1   -1    0    0  502    0  0.00000000000E+00  0.00000000000E+00  0.20046319331E+04  0.20046319331E+04  0.00000000000E+00 0.  1.
         -1   -1    0    0    0  501 -0.00000000000E+00 -0.00000000000E+00 -0.53109584279E+02  0.53109584279E+02  0.00000000000E+00 0. -1.
          6    1    1    2  502    0 -0.87966314125E+02  0.22569704872E+03  0.13971518008E+04  0.14285094976E+04  0.17300000000E+03 0.  1.
         -6    1    1    2    0  501  0.87966314125E+02 -0.22569704872E+03  0.55437054806E+03  0.62923201983E+03  0.17300000000E+03 0. -1.
<mgrwt>
<rscale>  2 0.29766799E+03</rscale>
<asrwt>0</asrwt>
<pdfrwt beam="1">  1        1 0.30840485E+00 0.29766799E+03</pdfrwt>
<pdfrwt beam="2">  1       -1 0.81707068E-02 0.29766799E+03</pdfrwt>
<totfact> 0.27816015E+02</totfact>
</mgrwt>
</event>
<event>
 4    3  0.7748294E-001  0.2870651E+03  0.7546771E-02  0.1091892E+00
         -1   -1    0    0    0  501 -0.00000000000E+00  0.00000000000E+00  0.56671238479E+02  0.56671238479E+02  0.00000000000E+00 0.  1.
          1   -1    0    0  502    0  0.00000000000E+00 -0.00000000000E+00 -0.14544149468E+04  0.14544149468E+04  0.00000000000E+00 0. -1.
          6    1    1    2  502    0  0.13224316362E+03  0.18705376087E+03 -0.68797893342E+03  0.74546722035E+03  0.17300000000E+03 0.  1.
         -6    1    1    2    0  501 -0.13224316362E+03 -0.18705376087E+03 -0.70976477490E+03  0.76561896493E+03  0.17300000000E+03 0. -1.
<mgrwt>
<rscale>  2 0.28706509E+03</rscale>
<asrwt>0</asrwt>
<pdfrwt beam="1">  1        1 0.22375616E+00 0.28706509E+03</pdfrwt>
<pdfrwt beam="2">  1       -1 0.87186514E-02 0.28706509E+03</pdfrwt>
<totfact> 0.57877369E+02</totfact>
</mgrwt>
</event>
<event>
 4    3  0.7748294E-001  0.4755021E+03  0.7546771E-02  0.1020379E+00
          2   -1    0    0  502    0  0.00000000000E+00  0.00000000000E+00  0.18408373665E+04  0.18408373665E+04  0.00000000000E+00 0.  1.
         -2   -1    0    0    0  501 -0.00000000000E+00 -0.00000000000E+00 -0.12805038211E+03  0.12805038211E+03  0.00000000000E+00 0. -1.
          6    1    1    2  502    0 -0.91611376784E+02 -0.43333656840E+03  0.65754217316E+03  0.81145790732E+03  0.17300000000E+03 0. -1.
         -6    1    1    2    0  501  0.91611376784E+02  0.43333656840E+03  0.10552448112E+04  0.11574298413E+04  0.17300000000E+03 0. -1.
<mgrwt>
<rscale>  2 0.47550208E+03</rscale>
<asrwt>0</asrwt>
<pdfrwt beam="1">  1        2 0.28320573E+00 0.47550208E+03</pdfrwt>
<pdfrwt beam="2">  1       -2 0.19700060E-01 0.47550208E+03</pdfrwt>
<totfact> 0.18871126E+02</totfact>
</mgrwt>
</event>
<event>
 4    3  0.7748294E-001  0.2010361E+03  0.7546771E-02  0.1148868E+00
         -2   -1    0    0    0  501 -0.00000000000E+00  0.00000000000E+00  0.27334961134E+02  0.27334961134E+02  0.00000000000E+00 0. -1.
          2   -1    0    0  502    0  0.00000000000E+00 -0.00000000000E+00 -0.14786252364E+04  0.14786252364E+04  0.00000000000E+00 0.  1.
          6    1    1    2  502    0 -0.26621471443E+02 -0.98882742905E+02 -0.73175800050E+03  0.75887105023E+03  0.17300000000E+03 0. -1.
         -6    1    1    2    0  501  0.26621471443E+02  0.98882742905E+02 -0.71953227477E+03  0.74708914731E+03  0.17300000000E+03 0. -1.
<mgrwt>
<rscale>  2 0.20103607E+03</rscale>
<asrwt>0</asrwt>
<pdfrwt beam="1">  1        2 0.22748084E+00 0.20103607E+03</pdfrwt>
<pdfrwt beam="2">  1       -2 0.42053780E-02 0.20103607E+03</pdfrwt>
<totfact> 0.35591586E+03</totfact>
</mgrwt>
</event>
<event>
 4    3  0.7748294E-001  0.2524293E+03  0.7546771E-02  0.1111779E+00
         -2   -1    0    0    0  501 -0.00000000000E+00  0.00000000000E+00  0.24474735600E+02  0.24474735600E+02  0.00000000000E+00 0. -1.
          2   -1    0    0  502    0  0.00000000000E+00 -0.00000000000E+00 -0.26426574460E+04  0.26426574460E+04  0.00000000000E+00 0.  1.
          6    1    1    2  502    0  0.12733008156E+03  0.13258428614E+03 -0.11468085726E+04  0.11742616595E+04  0.17300000000E+03 0.  1.
         -6    1    1    2    0  501 -0.12733008156E+03 -0.13258428614E+03 -0.14713741378E+04  0.14928705222E+04  0.17300000000E+03 0. -1.
<mgrwt>
<rscale>  2 0.25242928E+03</rscale>
<asrwt>0</asrwt>
<pdfrwt beam="1">  1        2 0.40656242E+00 0.25242928E+03</pdfrwt>
<pdfrwt beam="2">  1       -2 0.37653464E-02 0.25242928E+03</pdfrwt>
<totfact> 0.10098127E+03</totfact>
</mgrwt>
</event>
<event>
 4    3  0.7748294E-001  0.1754467E+03  0.7546771E-02  0.1172284E+00
          1   -1    0    0  502    0  0.00000000000E+00  0.00000000000E+00  0.12976848797E+03  0.12976848797E+03  0.00000000000E+00 0.  1.
         -1   -1    0    0    0  501 -0.00000000000E+00 -0.00000000000E+00 -0.23984099284E+03  0.23984099284E+03  0.00000000000E+00 0. -1.
          6    1    1    2  502    0 -0.56964308363E+01  0.28637081635E+02 -0.74416172095E+02  0.19057622737E+03  0.17300000000E+03 0.  1.
         -6    1    1    2    0  501  0.56964308363E+01 -0.28637081635E+02 -0.35656332776E+02  0.17903325344E+03  0.17300000000E+03 0.  1.
<mgrwt>
<rscale>  2 0.17544666E+03</rscale>
<asrwt>0</asrwt>
<pdfrwt beam="1">  1        1 0.19964383E-01 0.17544666E+03</pdfrwt>
<pdfrwt beam="2">  1       -1 0.36898615E-01 0.17544666E+03</pdfrwt>
<totfact> 0.17973399E+03</totfact>
</mgrwt>
</event>
<event>
 4    3  0.7748294E-001  0.2107307E+03  0.7546771E-02  0.1140989E+00
          2   -1    0    0  502    0  0.00000000000E+00  0.00000000000E+00  0.13175893410E+04  0.13175893410E+04  0.00000000000E+00 0. -1.
         -2   -1    0    0    0  501 -0.00000000000E+00 -0.00000000000E+00 -0.33913385709E+02  0.33913385709E+02  0.00000000000E+00 0.  1.
          6    1    1    2  502    0 -0.40064783969E+02  0.11346031637E+03  0.58868259103E+03  0.62526364302E+03  0.17300000000E+03 0. -1.
         -6    1    1    2    0  501  0.40064783969E+02 -0.11346031637E+03  0.69499336424E+03  0.72623908366E+03  0.17300000000E+03 0.  1.
<mgrwt>
<rscale>  2 0.21073071E+03</rscale>
<asrwt>0</asrwt>
<pdfrwt beam="1">  1        2 0.20270601E+00 0.21073071E+03</pdfrwt>
<pdfrwt beam="2">  1       -2 0.52174450E-02 0.21073071E+03</pdfrwt>
<totfact> 0.31383872E+03</totfact>
</mgrwt>
</event>
<event>
 4    3  0.7748294E-001  0.3507869E+03  0.7546771E-02  0.1062293E+00
         -1   -1    0    0    0  501 -0.00000000000E+00  0.00000000000E+00  0.63231643760E+03  0.63231643760E+03  0.00000000000E+00 0. -1.
          1   -1    0    0  502    0  0.00000000000E+00 -0.00000000000E+00 -0.22298200149E+03  0.22298200149E+03  0.00000000000E+00 0.  1.
          6    1    1    2  502    0 -0.22819557921E+03 -0.20260615021E+03  0.35722756524E+03  0.50066256884E+03  0.17300000000E+03 0.  1.
         -6    1    1    2    0  501  0.22819557921E+03  0.20260615021E+03  0.52106870870E+02  0.35463587025E+03  0.17300000000E+03 0. -1.
<mgrwt>
<rscale>  2 0.35078694E+03</rscale>
<asrwt>0</asrwt>
<pdfrwt beam="1">  1        1 0.34304924E-01 0.35078694E+03</pdfrwt>
<pdfrwt beam="2">  1       -1 0.97279451E-01 0.35078694E+03</pdfrwt>
<totfact> 0.13671294E+02</totfact>
</mgrwt>
</event>
<event>
 4    3  0.7748294E-001  0.1981573E+03  0.7546771E-02  0.1151303E+00
          1   -1    0    0  502    0  0.00000000000E+00  0.00000000000E+00  0.33434856848E+03  0.33434856848E+03  0.00000000000E+00 0.  1.
         -1   -1    0    0    0  501 -0.00000000000E+00 -0.00000000000E+00 -0.22687413992E+03  0.22687413992E+03  0.00000000000E+00 0. -1.
          6    1    1    2  502    0  0.59605113197E+02 -0.76056291897E+02 -0.14115145283E+03  0.24329007726E+03  0.17300000000E+03 0. -1.
         -6    1    1    2    0  501 -0.59605113197E+02  0.76056291897E+02  0.24862588138E+03  0.31793263115E+03  0.17300000000E+03 0.  1.
<mgrwt>
<rscale>  2 0.19815733E+03</rscale>
<asrwt>0</asrwt>
<pdfrwt beam="1">  1        1 0.51438241E-01 0.19815733E+03</pdfrwt>
<pdfrwt beam="2">  1       -1 0.34903714E-01 0.19815733E+03</pdfrwt>
<totfact> 0.60278813E+02</totfact>
</mgrwt>
</event>
<event>
 4    3  0.7748294E-001  0.1736034E+03  0.7546771E-02  0.1174141E+00
         -2   -1    0    0    0  501 -0.00000000000E+00  0.00000000000E+00  0.13856902203E+03  0.13856902203E+03  0.00000000000E+00 0. -1.
          2   -1    0    0  502    0  0.00000000000E+00 -0.00000000000E+00 -0.34361941131E+03  0.34361941131E+03  0.00000000000E+00 0.  1.
          6    1    1    2  502    0  0.10189860767E+02  0.10262699926E+02  0.43539900289E+02  0.17898010836E+03  0.17300000000E+03 0. -1.
         -6    1    1    2    0  501 -0.10189860767E+02 -0.10262699926E+02 -0.24859028956E+03  0.30320832498E+03  0.17300000000E+03 0.  1.
<mgrwt>
<rscale>  2 0.17360345E+03</rscale>
<asrwt>0</asrwt>
<pdfrwt beam="1">  1        2 0.52864525E-01 0.17360345E+03</pdfrwt>
<pdfrwt beam="2">  1       -2 0.21318311E-01 0.17360345E+03</pdfrwt>
<totfact> 0.17525464E+03</totfact>
</mgrwt>
</event>
<event>
 4    3  0.7748294E-001  0.1743348E+03  0.7546771E-02  0.1173401E+00
         -1   -1    0    0    0  501 -0.00000000000E+00  0.00000000000E+00  0.63870694689E+02  0.63870694689E+02  0.00000000000E+00 0.  1.
          1   -1    0    0  502    0  0.00000000000E+00 -0.00000000000E+00 -0.48069932099E+03  0.48069932099E+03  0.00000000000E+00 0. -1.
          6    1    1    2  502    0  0.37203198509E+01  0.21207922589E+02 -0.23577361173E+03  0.29322655533E+03  0.17300000000E+03 0.  1.
         -6    1    1    2    0  501 -0.37203198509E+01 -0.21207922589E+02 -0.18105501456E+03  0.25134346035E+03  0.17300000000E+03 0. -1.
<mgrwt>
<rscale>  2 0.17433478E+03</rscale>
<asrwt>0</asrwt>
<pdfrwt beam="1">  1        1 0.73953739E-01 0.17433478E+03</pdfrwt>
<pdfrwt beam="2">  1       -1 0.98262610E-02 0.17433478E+03</pdfrwt>
<totfact> 0.29311201E+03</totfact>
</mgrwt>
</event>
<event>
 4    3  0.7748294E-001  0.2387341E+03  0.7546771E-02  0.1120639E+00
          2   -1    0    0  502    0  0.00000000000E+00  0.00000000000E+00  0.83870184468E+03  0.83870184468E+03  0.00000000000E+00 0. -1.
         -2   -1    0    0    0  501 -0.00000000000E+00 -0.00000000000E+00 -0.72598768465E+02  0.72598768465E+02  0.00000000000E+00 0.  1.
          6    1    1    2  502    0 -0.68971895274E+02  0.14935818731E+03  0.49829119355E+03  0.55252882642E+03  0.17300000000E+03 0. -1.
         -6    1    1    2    0  501  0.68971895274E+02 -0.14935818731E+03  0.26781188267E+03  0.35877178673E+03  0.17300000000E+03 0.  1.
<mgrwt>
<rscale>  2 0.23873414E+03</rscale>
<asrwt>0</asrwt>
<pdfrwt beam="1">  1        2 0.12903105E+00 0.23873414E+03</pdfrwt>
<pdfrwt beam="2">  1       -2 0.11169042E-01 0.23873414E+03</pdfrwt>
<totfact> 0.18499948E+03</totfact>
</mgrwt>
</event>
<event>
 4    3  0.7748294E-001  0.2786488E+03  0.7546771E-02  0.1096429E+00
          2   -1    0    0  502    0  0.00000000000E+00  0.00000000000E+00  0.21149058264E+04  0.21149058264E+04  0.00000000000E+00 0.  1.
         -2   -1    0    0    0  501 -0.00000000000E+00 -0.00000000000E+00 -0.44355749242E+02  0.44355749242E+02  0.00000000000E+00 0. -1.
          6    1    1    2  502    0 -0.13979199841E+02 -0.21799255939E+03  0.14834179766E+04  0.15093621392E+04  0.17300000000E+03 0.  1.
         -6    1    1    2    0  501  0.13979199841E+02  0.21799255939E+03  0.58713210062E+03  0.64989943650E+03  0.17300000000E+03 0. -1.
<mgrwt>
<rscale>  2 0.27864884E+03</rscale>
<asrwt>0</asrwt>
<pdfrwt beam="1">  1        2 0.32537005E+00 0.27864884E+03</pdfrwt>
<pdfrwt beam="2">  1       -2 0.68239631E-02 0.27864884E+03</pdfrwt>
<totfact> 0.78287752E+02</totfact>
</mgrwt>
</event>
<event>
 4    3  0.7748294E-001  0.1931297E+03  0.7546771E-02  0.1155668E+00
         -1   -1    0    0    0  501 -0.00000000000E+00  0.00000000000E+00  0.23683138555E+02  0.23683138555E+02  0.00000000000E+00 0. -1.
          1   -1    0    0  502    0  0.00000000000E+00 -0.00000000000E+00 -0.18557981051E+04  0.18557981051E+04  0.00000000000E+00 0.  1.
          6    1    1    2  502    0  0.85746215993E+02 -0.42050799756E+01 -0.55046267173E+03  0.58335945113E+03  0.17300000000E+03 0. -1.
         -6    1    1    2    0  501 -0.85746215993E+02  0.42050799756E+01 -0.12816522948E+04  0.12961217925E+04  0.17300000000E+03 0. -1.
<mgrwt>
<rscale>  2 0.19312974E+03</rscale>
<asrwt>0</asrwt>
<pdfrwt beam="1">  1        1 0.28550744E+00 0.19312974E+03</pdfrwt>
<pdfrwt beam="2">  1       -1 0.36435592E-02 0.19312974E+03</pdfrwt>
<totfact> 0.11897705E+03</totfact>
</mgrwt>
</event>
<event>
 4    3  0.7748294E-001  0.3063319E+03  0.7546771E-02  0.1082118E+00
         -1   -1    0    0    0  501 -0.00000000000E+00  0.00000000000E+00  0.60528401270E+02  0.60528401270E+02  0.00000000000E+00 0.  1.
          1   -1    0    0  502    0  0.00000000000E+00 -0.00000000000E+00 -0.15562361857E+04  0.15562361857E+04  0.00000000000E+00 0. -1.
          6    1    1    2  502    0  0.60851099016E+02 -0.24537190863E+03 -0.69806978340E+03  0.76232581767E+03  0.17300000000E+03 0. -1.
         -6    1    1    2    0  501 -0.60851099016E+02  0.24537190863E+03 -0.79763800104E+03  0.85443876931E+03  0.17300000000E+03 0.  1.
<mgrwt>
<rscale>  2 0.30633189E+03</rscale>
<asrwt>0</asrwt>
<pdfrwt beam="1">  1        1 0.23942091E+00 0.30633189E+03</pdfrwt>
<pdfrwt beam="2">  1       -1 0.93120635E-02 0.30633189E+03</pdfrwt>
<totfact> 0.44622234E+02</totfact>
</mgrwt>
</event>
<event>
 4    3  0.7748294E-001  0.1904526E+03  0.7546771E-02  0.1158054E+00
         -2   -1    0    0    0  501 -0.00000000000E+00  0.00000000000E+00  0.86237076565E+02  0.86237076565E+02  0.00000000000E+00 0. -1.
          2   -1    0    0  502    0  0.00000000000E+00 -0.00000000000E+00 -0.46406985018E+03  0.46406985018E+03  0.00000000000E+00 0.  1.
          6    1    1    2  502    0 -0.43627262858E+02 -0.66632236030E+02 -0.10471359671E+03  0.21734104600E+03  0.17300000000E+03 0. -1.
         -6    1    1    2    0  501  0.43627262858E+02  0.66632236030E+02 -0.27311917690E+03  0.33296588074E+03  0.17300000000E+03 0.  1.
<mgrwt>
<rscale>  2 0.19045260E+03</rscale>
<asrwt>0</asrwt>
<pdfrwt beam="1">  1        2 0.71395362E-01 0.19045260E+03</pdfrwt>
<pdfrwt beam="2">  1       -2 0.13267242E-01 0.19045260E+03</pdfrwt>
<totfact> 0.28008343E+03</totfact>
</mgrwt>
</event>
<event>
 4    3  0.7748294E-001  0.2713826E+03  0.7546771E-02  0.1100491E+00
         -2   -1    0    0    0  501 -0.00000000000E+00  0.00000000000E+00  0.50817884910E+03  0.50817884910E+03  0.00000000000E+00 0.  1.
          2   -1    0    0  502    0  0.00000000000E+00 -0.00000000000E+00 -0.33382276869E+03  0.33382276869E+03  0.00000000000E+00 0. -1.
          6    1    1    2  502    0 -0.16574267309E+03  0.12747107660E+03 -0.22951375177E+03  0.35542238436E+03  0.17300000000E+03 0. -1.
         -6    1    1    2    0  501  0.16574267309E+03 -0.12747107660E+03  0.40386983218E+03  0.48657923343E+03  0.17300000000E+03 0.  1.
<mgrwt>
<rscale>  2 0.27138259E+03</rscale>
<asrwt>0</asrwt>
<pdfrwt beam="1">  1        2 0.51357349E-01 0.27138259E+03</pdfrwt>
<pdfrwt beam="2">  1       -2 0.78181362E-01 0.27138259E+03</pdfrwt>
<totfact> 0.14710105E+02</totfact>
</mgrwt>
</event>
<event>
 4    3  0.7748294E-001  0.2290396E+03  0.7546771E-02  0.1127318E+00
          1   -1    0    0  502    0  0.00000000000E+00  0.00000000000E+00  0.32367308527E+02  0.32367308527E+02  0.00000000000E+00 0. -1.
         -1   -1    0    0    0  501 -0.00000000000E+00 -0.00000000000E+00 -0.16245929816E+04  0.16245929816E+04  0.00000000000E+00 0.  1.
          6    1    1    2  502    0  0.40709845912E+02 -0.14447433597E+03 -0.75578774295E+03  0.78973048422E+03  0.17300000000E+03 0. -1.
         -6    1    1    2    0  501 -0.40709845912E+02  0.14447433597E+03 -0.83643793013E+03  0.86722980592E+03  0.17300000000E+03 0.  1.
<mgrwt>
<rscale>  2 0.22903957E+03</rscale>
<asrwt>0</asrwt>
<pdfrwt beam="1">  1        1 0.49795853E-02 0.22903957E+03</pdfrwt>
<pdfrwt beam="2">  1       -1 0.24993741E+00 0.22903957E+03</pdfrwt>
<totfact> 0.13356898E+02</totfact>
</mgrwt>
</event>
<event>
 4    3  0.7748294E-001  0.1847570E+03  0.7546771E-02  0.1163277E+00
         -2   -1    0    0    0  501 -0.00000000000E+00  0.00000000000E+00  0.26681627576E+03  0.26681627576E+03  0.00000000000E+00 0.  1.
          2   -1    0    0  502    0  0.00000000000E+00 -0.00000000000E+00 -0.32179555250E+03  0.32179555250E+03  0.00000000000E+00 0. -1.
          6    1    1    2  502    0 -0.58194185020E+02 -0.28628320477E+02  0.20094064492E+03  0.27296938782E+03  0.17300000000E+03 0.  1.
         -6    1    1    2    0  501  0.58194185020E+02  0.28628320477E+02 -0.25591992166E+03  0.31564244044E+03  0.17300000000E+03 0. -1.
<mgrwt>
<rscale>  2 0.18475699E+03</rscale>
<asrwt>0</asrwt>
<pdfrwt beam="1">  1        2 0.49507008E-01 0.18475699E+03</pdfrwt>
<pdfrwt beam="2">  1       -2 0.41048658E-01 0.18475699E+03</pdfrwt>
<totfact> 0.57578344E+02</totfact>
</mgrwt>
</event>
<event>
 4    3  0.7748294E-001  0.7066243E+03  0.7546771E-02  0.9705970E-01
         -1   -1    0    0    0  501 -0.00000000000E+00  0.00000000000E+00  0.92145541677E+03  0.92145541677E+03  0.00000000000E+00 0. -1.
          1   -1    0    0  502    0  0.00000000000E+00 -0.00000000000E+00 -0.54600339382E+03  0.54600339382E+03  0.00000000000E+00 0.  1.
          6    1    1    2  502    0 -0.34334920349E+03 -0.59287458734E+03  0.12396086777E+03  0.71741497655E+03  0.17300000000E+03 0. -1.
         -6    1    1    2    0  501  0.34334920349E+03  0.59287458734E+03  0.25149115518E+03  0.75004383404E+03  0.17300000000E+03 0.  1.
<mgrwt>
<rscale>  2 0.70662434E+03</rscale>
<asrwt>0</asrwt>
<pdfrwt beam="1">  1        1 0.84000522E-01 0.70662434E+03</pdfrwt>
<pdfrwt beam="2">  1       -1 0.14176237E+00 0.70662434E+03</pdfrwt>
<totfact> 0.16414476E+01</totfact>
</mgrwt>
</event>
<event>
 4    3  0.7748294E-001  0.2423685E+03  0.7546771E-02  0.1118225E+00
         -1   -1    0    0    0  501 -0.00000000000E+00  0.00000000000E+00  0.10296642469E+03  0.10296642469E+03  0.00000000000E+00 0.  1.
          1   -1    0    0  502    0  0.00000000000E+00 -0.00000000000E+00 -0.98460413846E+03  0.98460413846E+03  0.00000000000E+00 0. -1.
          6    1    1    2  502    0  0.52066109766E+02 -0.16156294994E+03 -0.79347445944E+03  0.82966510374E+03  0.17300000000E+03 0. -1.
         -6    1    1    2    0  501 -0.52066109766E+02  0.16156294994E+03 -0.88163254323E+02  0.25790545941E+03  0.17300000000E+03 0.  1.
<mgrwt>
<rscale>  2 0.24236845E+03</rscale>
<asrwt>0</asrwt>
<pdfrwt beam="1">  1        1 0.15147756E+00 0.24236845E+03</pdfrwt>
<pdfrwt beam="2">  1       -1 0.15840988E-01 0.24236845E+03</pdfrwt>
<totfact> 0.48736130E+02</totfact>
</mgrwt>
</event>
<event>
 4    3  0.7748294E-001  0.2162703E+03  0.7546771E-02  0.1136695E+00
         -4   -1    0    0    0  501 -0.00000000000E+00  0.00000000000E+00  0.17299940819E+03  0.17299940819E+03  0.00000000000E+00 0. -1.
          4   -1    0    0  502    0  0.00000000000E+00 -0.00000000000E+00 -0.27912038049E+03  0.27912038049E+03  0.00000000000E+00 0.  1.
          6    1    1    2  502    0 -0.10186081214E+03 -0.80425227751E+02 -0.13021256498E+02  0.21666193812E+03  0.17300000000E+03 0.  1.
         -6    1    1    2    0  501  0.10186081214E+03  0.80425227751E+02 -0.93099715801E+02  0.23545785056E+03  0.17300000000E+03 0.  1.
<mgrwt>
<rscale>  2 0.21627030E+03</rscale>
<asrwt>0</asrwt>
<pdfrwt beam="1">  1        4 0.42941597E-01 0.21627030E+03</pdfrwt>
<pdfrwt beam="2">  1       -4 0.26615294E-01 0.21627030E+03</pdfrwt>
<totfact> 0.12642931E+02</totfact>
</mgrwt>
</event>
<event>
 4    3  0.7748294E-001  0.1962497E+03  0.7546771E-02  0.1152942E+00
         -2   -1    0    0    0  501 -0.00000000000E+00  0.00000000000E+00  0.31507015679E+03  0.31507015679E+03  0.00000000000E+00 0. -1.
          2   -1    0    0  502    0  0.00000000000E+00 -0.00000000000E+00 -0.12877643157E+03  0.12877643157E+03  0.00000000000E+00 0.  1.
          6    1    1    2  502    0  0.89388737103E+02 -0.24384677504E+02  0.14314777757E+03  0.24290995254E+03  0.17300000000E+03 0. -1.
         -6    1    1    2    0  501 -0.89388737103E+02  0.24384677504E+02  0.43145947646E+02  0.20093663582E+03  0.17300000000E+03 0.  1.
<mgrwt>
<rscale>  2 0.19624974E+03</rscale>
<asrwt>0</asrwt>
<pdfrwt beam="1">  1        2 0.19811759E-01 0.19624974E+03</pdfrwt>
<pdfrwt beam="2">  1       -2 0.48472332E-01 0.19624974E+03</pdfrwt>
<totfact> 0.11379908E+03</totfact>
</mgrwt>
</event>
<event>
 4    3  0.7748294E-001  0.2428437E+03  0.7546771E-02  0.1117913E+00
          2   -1    0    0  502    0  0.00000000000E+00  0.00000000000E+00  0.28266819426E+04  0.28266819426E+04  0.00000000000E+00 0. -1.
         -2   -1    0    0    0  501 -0.00000000000E+00 -0.00000000000E+00 -0.38316906977E+02  0.38316906977E+02  0.00000000000E+00 0.  1.
          6    1    1    2  502    0 -0.16326409505E+03  0.48876427604E+02  0.42736270338E+03  0.49154038507E+03  0.17300000000E+03 0.  1.
         -6    1    1    2    0  501  0.16326409505E+03 -0.48876427604E+02  0.23610023323E+04  0.23734584645E+04  0.17300000000E+03 0. -1.
<mgrwt>
<rscale>  2 0.24284371E+03</rscale>
<asrwt>0</asrwt>
<pdfrwt beam="1">  1        2 0.43487398E+00 0.24284371E+03</pdfrwt>
<pdfrwt beam="2">  1       -2 0.58949110E-02 0.24284371E+03</pdfrwt>
<totfact> 0.40319469E+02</totfact>
</mgrwt>
</event>
<event>
 4    3  0.7748294E-001  0.2275048E+03  0.7546771E-02  0.1128408E+00
          2   -1    0    0  502    0  0.00000000000E+00  0.00000000000E+00  0.93096801566E+03  0.93096801566E+03  0.00000000000E+00 0.  1.
         -2   -1    0    0    0  501 -0.00000000000E+00 -0.00000000000E+00 -0.56851018784E+02  0.56851018784E+02  0.00000000000E+00 0. -1.
          6    1    1    2  502    0  0.11381006013E+03 -0.94216255582E+02  0.36368467530E+03  0.42898132319E+03  0.17300000000E+03 0. -1.
         -6    1    1    2    0  501 -0.11381006013E+03  0.94216255582E+02  0.51043232158E+03  0.55883771125E+03  0.17300000000E+03 0.  1.
<mgrwt>
<rscale>  2 0.22750480E+03</rscale>
<asrwt>0</asrwt>
<pdfrwt beam="1">  1        2 0.14322584E+00 0.22750480E+03</pdfrwt>
<pdfrwt beam="2">  1       -2 0.87463112E-02 0.22750480E+03</pdfrwt>
<totfact> 0.23750032E+03</totfact>
</mgrwt>
</event>
<event>
 4    3  0.7748294E-001  0.2175196E+03  0.7546771E-02  0.1135746E+00
          2   -1    0    0  502    0  0.00000000000E+00  0.00000000000E+00  0.28746919568E+03  0.28746919568E+03  0.00000000000E+00 0. -1.
         -2   -1    0    0    0  501 -0.00000000000E+00 -0.00000000000E+00 -0.16508930549E+03  0.16508930549E+03  0.00000000000E+00 0.  1.
          6    1    1    2  502    0  0.12236470571E+03 -0.49118968377E+02  0.73623807128E+02  0.22964158864E+03  0.17300000000E+03 0.  1.
         -6    1    1    2    0  501 -0.12236470571E+03  0.49118968377E+02  0.48756083057E+02  0.22291691253E+03  0.17300000000E+03 0.  1.
<mgrwt>
<rscale>  2 0.21751964E+03</rscale>
<asrwt>0</asrwt>
<pdfrwt beam="1">  1        2 0.44226030E-01 0.21751964E+03</pdfrwt>
<pdfrwt beam="2">  1       -2 0.25398355E-01 0.21751964E+03</pdfrwt>
<totfact> 0.15732608E+03</totfact>
</mgrwt>
</event>
<event>
 4    3  0.7748294E-001  0.1869499E+03  0.7546771E-02  0.1161241E+00
         -2   -1    0    0    0  501 -0.00000000000E+00  0.00000000000E+00  0.47435006383E+02  0.47435006383E+02  0.00000000000E+00 0.  1.
          2   -1    0    0  502    0  0.00000000000E+00 -0.00000000000E+00 -0.76220516049E+03  0.76220516049E+03  0.00000000000E+00 0. -1.
          6    1    1    2  502    0 -0.28740990563E+02  0.64770655101E+02 -0.28348302173E+03  0.33957754035E+03  0.17300000000E+03 0.  1.
         -6    1    1    2    0  501  0.28740990563E+02 -0.64770655101E+02 -0.43128713238E+03  0.47006262652E+03  0.17300000000E+03 0.  1.
<mgrwt>
<rscale>  2 0.18694995E+03</rscale>
<asrwt>0</asrwt>
<pdfrwt beam="1">  1        2 0.11726233E+00 0.18694995E+03</pdfrwt>
<pdfrwt beam="2">  1       -2 0.72976936E-02 0.18694995E+03</pdfrwt>
<totfact> 0.40619912E+03</totfact>
</mgrwt>
</event>
<event>
 4    3  0.7748294E-001  0.1923916E+03  0.7546771E-02  0.1156322E+00
          1   -1    0    0  502    0  0.00000000000E+00  0.00000000000E+00  0.58732975435E+02  0.58732975435E+02  0.00000000000E+00 0. -1.
         -1   -1    0    0    0  501 -0.00000000000E+00 -0.00000000000E+00 -0.70234710078E+03  0.70234710078E+03  0.00000000000E+00 0.  1.
          6    1    1    2  502    0 -0.56296358233E+02 -0.62579914296E+02 -0.19985688987E+03  0.27741179148E+03  0.17300000000E+03 0.  1.
         -6    1    1    2    0  501  0.56296358233E+02  0.62579914296E+02 -0.44375723547E+03  0.48366828474E+03  0.17300000000E+03 0.  1.
<mgrwt>
<rscale>  2 0.19239159E+03</rscale>
<asrwt>0</asrwt>
<pdfrwt beam="1">  1        1 0.90358430E-02 0.19239159E+03</pdfrwt>
<pdfrwt beam="2">  1       -1 0.10805339E+00 0.19239159E+03</pdfrwt>
<totfact> 0.62108374E+02</totfact>
</mgrwt>
</event>
<event>
 4    3  0.7748294E-001  0.1730645E+03  0.7546771E-02  0.1174689E+00
         -4   -1    0    0    0  501 -0.00000000000E+00  0.00000000000E+00  0.39322446918E+02  0.39322446918E+02  0.00000000000E+00 0. -1.
          4   -1    0    0  502    0  0.00000000000E+00 -0.00000000000E+00 -0.13803853110E+04  0.13803853110E+04  0.00000000000E+00 0.  1.
          6    1    1    2  502    0  0.45888696773E+01  0.11197092337E+01 -0.19529577273E+03  0.26094396011E+03  0.17300000000E+03 0. -1.
         -6    1    1    2    0  501 -0.45888696773E+01 -0.11197092337E+01 -0.11457670913E+04  0.11587637978E+04  0.17300000000E+03 0.  1.
<mgrwt>
<rscale>  2 0.17306447E+03</rscale>
<asrwt>0</asrwt>
<pdfrwt beam="1">  1        4 0.21236695E+00 0.17306447E+03</pdfrwt>
<pdfrwt beam="2">  1       -4 0.60496078E-02 0.17306447E+03</pdfrwt>
<totfact> 0.37336196E+01</totfact>
</mgrwt>
</event>
<event>
 4    3  0.7748294E-001  0.2028023E+03  0.7546771E-02  0.1147396E+00
          1   -1    0    0  502    0  0.00000000000E+00  0.00000000000E+00  0.48409831433E+02  0.48409831433E+02  0.00000000000E+00 0.  1.
         -1   -1    0    0    0  501 -0.00000000000E+00 -0.00000000000E+00 -0.86423018751E+03  0.86423018751E+03  0.00000000000E+00 0. -1.
          6    1    1    2  502    0  0.14234399993E+02 -0.10486731677E+03 -0.34852920054E+03  0.40323860913E+03  0.17300000000E+03 0.  1.
         -6    1    1    2    0  501 -0.14234399993E+02  0.10486731677E+03 -0.46729115554E+03  0.50940140980E+03  0.17300000000E+03 0.  1.
<mgrwt>
<rscale>  2 0.20280230E+03</rscale>
<asrwt>0</asrwt>
<pdfrwt beam="1">  1        1 0.74476662E-02 0.20280230E+03</pdfrwt>
<pdfrwt beam="2">  1       -1 0.13295849E+00 0.20280230E+03</pdfrwt>
<totfact> 0.49351843E+02</totfact>
</mgrwt>
</event>
<event>
 4    3  0.7748294E-001  0.2376066E+03  0.7546771E-02  0.1121398E+00
         -2   -1    0    0    0  501 -0.00000000000E+00  0.00000000000E+00  0.80617006636E+03  0.80617006636E+03  0.00000000000E+00 0. -1.
          2   -1    0    0  502    0  0.00000000000E+00 -0.00000000000E+00 -0.76771040502E+02  0.76771040502E+02  0.00000000000E+00 0.  1.
          6    1    1    2  502    0  0.14644159181E+03  0.71293492514E+02  0.49550743360E+03  0.54953118077E+03  0.17300000000E+03 0. -1.
         -6    1    1    2    0  501 -0.14644159181E+03 -0.71293492514E+02  0.23389159226E+03  0.33340992609E+03  0.17300000000E+03 0.  1.
<mgrwt>
<rscale>  2 0.23760661E+03</rscale>
<asrwt>0</asrwt>
<pdfrwt beam="1">  1        2 0.11810930E-01 0.23760661E+03</pdfrwt>
<pdfrwt beam="2">  1       -2 0.12402616E+00 0.23760661E+03</pdfrwt>
<totfact> 0.26711508E+02</totfact>
</mgrwt>
</event>
<event>
 4    3  0.7748294E-001  0.2263579E+03  0.7546771E-02  0.1129230E+00
          2   -1    0    0  502    0  0.00000000000E+00  0.00000000000E+00  0.22203593200E+03  0.22203593200E+03  0.00000000000E+00 0.  1.
         -2   -1    0    0    0  501 -0.00000000000E+00 -0.00000000000E+00 -0.23792231947E+03  0.23792231947E+03  0.00000000000E+00 0. -1.
          6    1    1    2  502    0  0.13865238545E+03 -0.45655253352E+02 -0.47834497535E+02  0.23135692189E+03  0.17300000000E+03 0.  1.
         -6    1    1    2    0  501 -0.13865238545E+03  0.45655253352E+02  0.31948110073E+02  0.22860132958E+03  0.17300000000E+03 0.  1.
<mgrwt>
<rscale>  2 0.22635787E+03</rscale>
<asrwt>0</asrwt>
<pdfrwt beam="1">  1        2 0.34159374E-01 0.22635787E+03</pdfrwt>
<pdfrwt beam="2">  1       -2 0.36603434E-01 0.22635787E+03</pdfrwt>
<totfact> 0.10696596E+03</totfact>
</mgrwt>
</event>
<event>
 4    3  0.7748294E-001  0.3003917E+03  0.7546771E-02  0.1085045E+00
          2   -1    0    0  502    0  0.00000000000E+00  0.00000000000E+00  0.33606648893E+03  0.33606648893E+03  0.00000000000E+00 0. -1.
         -2   -1    0    0    0  501 -0.00000000000E+00 -0.00000000000E+00 -0.27509833760E+03  0.27509833760E+03  0.00000000000E+00 0.  1.
          6    1    1    2  502    0  0.24023034734E+03  0.50946340854E+02 -0.16828280716E+02  0.30086266046E+03  0.17300000000E+03 0.  1.
         -6    1    1    2    0  501 -0.24023034734E+03 -0.50946340854E+02  0.77796432046E+02  0.31030216607E+03  0.17300000000E+03 0.  1.
<mgrwt>
<rscale>  2 0.30039166E+03</rscale>
<asrwt>0</asrwt>
<pdfrwt beam="1">  1        2 0.51702537E-01 0.30039166E+03</pdfrwt>
<pdfrwt beam="2">  1       -2 0.42322821E-01 0.30039166E+03</pdfrwt>
<totfact> 0.51815533E+02</totfact>
</mgrwt>
</event>
<event>
 4    3  0.7748294E-001  0.1867403E+03  0.7546771E-02  0.1161435E+00
         -2   -1    0    0    0  501 -0.00000000000E+00  0.00000000000E+00  0.69523376634E+02  0.69523376634E+02  0.00000000000E+00 0.  1.
          2   -1    0    0  502    0  0.00000000000E+00 -0.00000000000E+00 -0.54418076543E+03  0.54418076543E+03  0.00000000000E+00 0. -1.
          6    1    1    2  502    0 -0.27551189752E+02 -0.64682775457E+02 -0.15147929534E+03  0.24045354315E+03  0.17300000000E+03 0.  1.
         -6    1    1    2    0  501  0.27551189752E+02  0.64682775457E+02 -0.32317809346E+03  0.37325059892E+03  0.17300000000E+03 0. -1.
<mgrwt>
<rscale>  2 0.18674027E+03</rscale>
<asrwt>0</asrwt>
<pdfrwt beam="1">  1        2 0.83720115E-01 0.18674027E+03</pdfrwt>
<pdfrwt beam="2">  1       -2 0.10695904E-01 0.18674027E+03</pdfrwt>
<totfact> 0.33151220E+03</totfact>
</mgrwt>
</event>
<event>
 4    3  0.7748294E-001  0.2591309E+03  0.7546771E-02  0.1107667E+00
          2   -1    0    0  502    0  0.00000000000E+00  0.00000000000E+00  0.13773211972E+04  0.13773211972E+04  0.00000000000E+00 0.  1.
         -2   -1    0    0    0  501 -0.00000000000E+00 -0.00000000000E+00 -0.70764087654E+02  0.70764087654E+02  0.00000000000E+00 0. -1.
          6    1    1    2  502    0  0.11495150152E+03 -0.15493864072E+03  0.24946921004E+03  0.35969948130E+03  0.17300000000E+03 0. -1.
         -6    1    1    2    0  501 -0.11495150152E+03  0.15493864072E+03  0.10570878995E+04  0.10883858036E+04  0.17300000000E+03 0.  1.
<mgrwt>
<rscale>  2 0.25913091E+03</rscale>
<asrwt>0</asrwt>
<pdfrwt beam="1">  1        2 0.21189555E+00 0.25913091E+03</pdfrwt>
<pdfrwt beam="2">  1       -2 0.10886784E-01 0.25913091E+03</pdfrwt>
<totfact> 0.92336586E+02</totfact>
</mgrwt>
</event>
<event>
 4    3  0.7748294E-001  0.1876479E+03  0.7546771E-02  0.1160600E+00
         -2   -1    0    0    0  501 -0.00000000000E+00  0.00000000000E+00  0.27927376056E+03  0.27927376056E+03  0.00000000000E+00 0. -1.
          2   -1    0    0  502    0  0.00000000000E+00 -0.00000000000E+00 -0.13520426730E+03  0.13520426730E+03  0.00000000000E+00 0.  1.
          6    1    1    2  502    0 -0.36239914221E+02 -0.63003162814E+02  0.18207879291E+02  0.18852919343E+03  0.17300000000E+03 0.  1.
         -6    1    1    2    0  501  0.36239914221E+02  0.63003162814E+02  0.12586161397E+03  0.22594883443E+03  0.17300000000E+03 0. -1.
<mgrwt>
<rscale>  2 0.18764789E+03</rscale>
<asrwt>0</asrwt>
<pdfrwt beam="1">  1        2 0.20800657E-01 0.18764789E+03</pdfrwt>
<pdfrwt beam="2">  1       -2 0.42965194E-01 0.18764789E+03</pdfrwt>
<totfact> 0.13609191E+03</totfact>
</mgrwt>
</event>
<event>
 4    3  0.7748294E-001  0.1771054E+03  0.7546771E-02  0.1170634E+00
         -2   -1    0    0    0  501 -0.00000000000E+00  0.00000000000E+00  0.29495308277E+02  0.29495308277E+02  0.00000000000E+00 0.  1.
          2   -1    0    0  502    0  0.00000000000E+00 -0.00000000000E+00 -0.12441869033E+04  0.12441869033E+04  0.00000000000E+00 0. -1.
          6    1    1    2  502    0  0.37899467686E+02  0.97482081130E+00 -0.36461177062E+03  0.40534931010E+03  0.17300000000E+03 0.  1.
         -6    1    1    2    0  501 -0.37899467686E+02 -0.97482081130E+00 -0.85007982441E+03  0.86833290148E+03  0.17300000000E+03 0. -1.
<mgrwt>
<rscale>  2 0.17710539E+03</rscale>
<asrwt>0</asrwt>
<pdfrwt beam="1">  1        2 0.19141340E+00 0.17710539E+03</pdfrwt>
<pdfrwt beam="2">  1       -2 0.45377389E-02 0.17710539E+03</pdfrwt>
<totfact> 0.42415617E+03</totfact>
</mgrwt>
</event>
<event>
 4    3  0.7748294E-001  0.1821575E+03  0.7546771E-02  0.1165731E+00
         -2   -1    0    0    0  501 -0.00000000000E+00  0.00000000000E+00  0.71518120835E+02  0.71518120835E+02  0.00000000000E+00 0.  1.
          2   -1    0    0  502    0  0.00000000000E+00 -0.00000000000E+00 -0.50052296853E+03  0.50052296853E+03  0.00000000000E+00 0. -1.
          6    1    1    2  502    0  0.55752848804E+02 -0.11998753041E+02 -0.29181004618E+03  0.34399775185E+03  0.17300000000E+03 0. -1.
         -6    1    1    2    0  501 -0.55752848804E+02  0.11998753041E+02 -0.13719480152E+03  0.22804333752E+03  0.17300000000E+03 0.  1.
<mgrwt>
<rscale>  2 0.18215749E+03</rscale>
<asrwt>0</asrwt>
<pdfrwt beam="1">  1        2 0.77003532E-01 0.18215749E+03</pdfrwt>
<pdfrwt beam="2">  1       -2 0.11002788E-01 0.18215749E+03</pdfrwt>
<totfact> 0.34766933E+03</totfact>
</mgrwt>
</event>
<event>
 4    3  0.7748294E-001  0.2773222E+03  0.7546771E-02  0.1097161E+00
          2   -1    0    0  502    0  0.00000000000E+00  0.00000000000E+00  0.12596774413E+04  0.12596774413E+04  0.00000000000E+00 0. -1.
         -2   -1    0    0    0  501 -0.00000000000E+00 -0.00000000000E+00 -0.61318309730E+02  0.61318309730E+02  0.00000000000E+00 0.  1.
          6    1    1    2  502    0  0.14206421247E+03 -0.16369588787E+03  0.64259353928E+03  0.69988144775E+03  0.17300000000E+03 0.  1.
         -6    1    1    2    0  501 -0.14206421247E+03  0.16369588787E+03  0.55576559229E+03  0.62111430329E+03  0.17300000000E+03 0. -1.
<mgrwt>
<rscale>  2 0.27732217E+03</rscale>
<asrwt>0</asrwt>
<pdfrwt beam="1">  1        2 0.19379651E+00 0.27732217E+03</pdfrwt>
<pdfrwt beam="2">  1       -2 0.94335870E-02 0.27732217E+03</pdfrwt>
<totfact> 0.13471214E+03</totfact>
</mgrwt>
</event>
<event>
 4    3  0.7748294E-001  0.2169732E+03  0.7546771E-02  0.1136160E+00
         -2   -1    0    0    0  501 -0.00000000000E+00  0.00000000000E+00  0.23099558897E+02  0.23099558897E+02  0.00000000000E+00 0. -1.
          2   -1    0    0  502    0  0.00000000000E+00 -0.00000000000E+00 -0.20488626735E+04  0.20488626735E+04  0.00000000000E+00 0.  1.
          6    1    1    2  502    0 -0.43257077363E+02  0.12360086602E+03 -0.93751547938E+03  0.96229549667E+03  0.17300000000E+03 0.  1.
         -6    1    1    2    0  501  0.43257077363E+02 -0.12360086602E+03 -0.10882476352E+04  0.11096667357E+04  0.17300000000E+03 0. -1.
<mgrwt>
<rscale>  2 0.21697315E+03</rscale>
<asrwt>0</asrwt>
<pdfrwt beam="1">  1        2 0.31520963E+00 0.21697315E+03</pdfrwt>
<pdfrwt beam="2">  1       -2 0.35537785E-02 0.21697315E+03</pdfrwt>
<totfact> 0.23059203E+03</totfact>
</mgrwt>
</event>
<event>
 4    3  0.7748294E-001  0.1930817E+03  0.7546771E-02  0.1155711E+00
          2   -1    0    0  502    0  0.00000000000E+00  0.00000000000E+00  0.14422248977E+03  0.14422248977E+03  0.00000000000E+00 0. -1.
         -2   -1    0    0    0  501 -0.00000000000E+00 -0.00000000000E+00 -0.49110439271E+03  0.49110439271E+03  0.00000000000E+00 0.  1.
          6    1    1    2  502    0  0.26097733018E+02 -0.81672789255E+02 -0.39206383078E+03  0.43702927085E+03  0.17300000000E+03 0.  1.
         -6    1    1    2    0  501 -0.26097733018E+02  0.81672789255E+02  0.45181927841E+02  0.19829761163E+03  0.17300000000E+03 0. -1.
<mgrwt>
<rscale>  2 0.19308168E+03</rscale>
<asrwt>0</asrwt>
<pdfrwt beam="1">  1        2 0.22188075E-01 0.19308168E+03</pdfrwt>
<pdfrwt beam="2">  1       -2 0.75554522E-01 0.19308168E+03</pdfrwt>
<totfact> 0.39862369E+02</totfact>
</mgrwt>
</event>
<event>
 4    3  0.7748294E-001  0.1735059E+03  0.7546771E-02  0.1174240E+00
          2   -1    0    0  502    0  0.00000000000E+00  0.00000000000E+00  0.13782599428E+04  0.13782599428E+04  0.00000000000E+00 0. -1.
         -2   -1    0    0    0  501 -0.00000000000E+00 -0.00000000000E+00 -0.22046483791E+02  0.22046483791E+02  0.00000000000E+00 0.  1.
          6    1    1    2  502    0 -0.63868109199E+00 -0.13225176765E+02  0.74549365850E+03  0.76541825695E+03  0.17300000000E+03 0. -1.
         -6    1    1    2    0  501  0.63868109199E+00  0.13225176765E+02  0.61071980053E+03  0.63488816966E+03  0.17300000000E+03 0.  1.
<mgrwt>
<rscale>  2 0.17350595E+03</rscale>
<asrwt>0</asrwt>
<pdfrwt beam="1">  1        2 0.21203992E+00 0.17350595E+03</pdfrwt>
<pdfrwt beam="2">  1       -2 0.33917678E-02 0.17350595E+03</pdfrwt>
<totfact> 0.55369135E+03</totfact>
</mgrwt>
</event>
<event>
 4    3  0.7748294E-001  0.2397088E+03  0.7546771E-02  0.1119987E+00
          2   -1    0    0  502    0  0.00000000000E+00  0.00000000000E+00  0.95947615553E+02  0.95947615553E+02  0.00000000000E+00 0. -1.
         -2   -1    0    0    0  501 -0.00000000000E+00 -0.00000000000E+00 -0.94879568142E+03  0.94879568142E+03  0.00000000000E+00 0.  1.
          6    1    1    2  502    0 -0.43306145714E+02 -0.16017461184E+03 -0.74365822659E+03  0.78133724249E+03  0.17300000000E+03 0.  1.
         -6    1    1    2    0  501  0.43306145714E+02  0.16017461184E+03 -0.10918983928E+03  0.26340605448E+03  0.17300000000E+03 0. -1.
<mgrwt>
<rscale>  2 0.23970884E+03</rscale>
<asrwt>0</asrwt>
<pdfrwt beam="1">  1        2 0.14761171E-01 0.23970884E+03</pdfrwt>
<pdfrwt beam="2">  1       -2 0.14596857E+00 0.23970884E+03</pdfrwt>
<totfact> 0.13570024E+02</totfact>
</mgrwt>
</event>
<event>
 4    3  0.7748294E-001  0.2241559E+03  0.7546771E-02  0.1130822E+00
         -2   -1    0    0    0  501 -0.00000000000E+00  0.00000000000E+00  0.19708059762E+02  0.19708059762E+02  0.00000000000E+00 0.  1.
          2   -1    0    0  502    0  0.00000000000E+00 -0.00000000000E+00 -0.27151546186E+04  0.27151546186E+04  0.00000000000E+00 0. -1.
          6    1    1    2  502    0  0.13796104114E+03  0.35827572836E+02 -0.16854761223E+04  0.17003163302E+04  0.17300000000E+03 0.  1.
         -6    1    1    2    0  501 -0.13796104114E+03 -0.35827572836E+02 -0.10099704366E+04  0.10345463482E+04  0.17300000000E+03 0.  1.
<mgrwt>
<rscale>  2 0.22415589E+03</rscale>
<asrwt>0</asrwt>
<pdfrwt beam="1">  1        2 0.41771600E+00 0.22415589E+03</pdfrwt>
<pdfrwt beam="2">  1       -2 0.30320099E-02 0.22415589E+03</pdfrwt>
<totfact> 0.12781745E+03</totfact>
</mgrwt>
</event>
<event>
 4    3  0.7748294E-001  0.2183601E+03  0.7546771E-02  0.1135112E+00
          2   -1    0    0  502    0  0.00000000000E+00  0.00000000000E+00  0.13977017099E+04  0.13977017099E+04  0.00000000000E+00 0.  1.
         -2   -1    0    0    0  501 -0.00000000000E+00 -0.00000000000E+00 -0.38488105393E+02  0.38488105393E+02  0.00000000000E+00 0. -1.
          6    1    1    2  502    0 -0.11512726490E+03  0.67066102102E+02  0.92169012395E+03  0.94720316393E+03  0.17300000000E+03 0.  1.
         -6    1    1    2    0  501  0.11512726490E+03 -0.67066102102E+02  0.43752348059E+03  0.48898665140E+03  0.17300000000E+03 0. -1.
<mgrwt>
<rscale>  2 0.21836014E+03</rscale>
<asrwt>0</asrwt>
<pdfrwt beam="1">  1        2 0.21503099E+00 0.21836014E+03</pdfrwt>
<pdfrwt beam="2">  1       -2 0.59212481E-02 0.21836014E+03</pdfrwt>
<totfact> 0.23408808E+03</totfact>
</mgrwt>
</event>
<event>
 4    3  0.7748294E-001  0.1969616E+03  0.7546771E-02  0.1152328E+00
         -2   -1    0    0    0  501 -0.00000000000E+00  0.00000000000E+00  0.39446827639E+03  0.39446827639E+03  0.00000000000E+00 0.  1.
          2   -1    0    0  502    0  0.00000000000E+00 -0.00000000000E+00 -0.99257935272E+02  0.99257935272E+02  0.00000000000E+00 0. -1.
          6    1    1    2  502    0  0.62051700616E+02  0.70812826515E+02  0.17128406952E+03  0.26102126813E+03  0.17300000000E+03 0.  1.
         -6    1    1    2    0  501 -0.62051700616E+02 -0.70812826515E+02  0.12392627160E+03  0.23270494352E+03  0.17300000000E+03 0. -1.
<mgrwt>
<rscale>  2 0.19696160E+03</rscale>
<asrwt>0</asrwt>
<pdfrwt beam="1">  1        2 0.15270452E-01 0.19696160E+03</pdfrwt>
<pdfrwt beam="2">  1       -2 0.60687426E-01 0.19696160E+03</pdfrwt>
<totfact> 0.97706383E+02</totfact>
</mgrwt>
</event>
<event>
 4    3  0.7748294E-001  0.2276988E+03  0.7546771E-02  0.1128270E+00
         -1   -1    0    0    0  501 -0.00000000000E+00  0.00000000000E+00  0.56077153426E+02  0.56077153426E+02  0.00000000000E+00 0.  1.
          1   -1    0    0  502    0  0.00000000000E+00 -0.00000000000E+00 -0.13812951861E+04  0.13812951861E+04  0.00000000000E+00 0. -1.
          6    1    1    2  502    0 -0.10979022306E+03  0.99317024428E+02 -0.24934492810E+03  0.33766796944E+03  0.17300000000E+03 0.  1.
         -6    1    1    2    0  501  0.10979022306E+03 -0.99317024428E+02 -0.10758731046E+04  0.10997043701E+04  0.17300000000E+03 0. -1.
<mgrwt>
<rscale>  2 0.22769885E+03</rscale>
<asrwt>0</asrwt>
<pdfrwt beam="1">  1        1 0.21250694E+00 0.22769885E+03</pdfrwt>
<pdfrwt beam="2">  1       -1 0.86272549E-02 0.22769885E+03</pdfrwt>
<totfact> 0.66267455E+02</totfact>
</mgrwt>
</event>
<event>
 4    3  0.7748294E-001  0.2581867E+03  0.7546771E-02  0.1108238E+00
         -1   -1    0    0    0  501 -0.00000000000E+00  0.00000000000E+00  0.25281830827E+03  0.25281830827E+03  0.00000000000E+00 0.  1.
          1   -1    0    0  502    0  0.00000000000E+00 -0.00000000000E+00 -0.78868121875E+03  0.78868121875E+03  0.00000000000E+00 0. -1.
          6    1    1    2  502    0 -0.13969040928E+03  0.13121715488E+03 -0.69280827211E+03  0.73935353795E+03  0.17300000000E+03 0. -1.
         -6    1    1    2    0  501  0.13969040928E+03 -0.13121715488E+03  0.15694536162E+03  0.30214598908E+03  0.17300000000E+03 0.  1.
<mgrwt>
<rscale>  2 0.25818666E+03</rscale>
<asrwt>0</asrwt>
<pdfrwt beam="1">  1        1 0.12133557E+00 0.25818666E+03</pdfrwt>
<pdfrwt beam="2">  1       -1 0.38895125E-01 0.25818666E+03</pdfrwt>
<totfact> 0.15499314E+02</totfact>
</mgrwt>
</event>
<event>
 4    3  0.7748294E-001  0.1937115E+03  0.7546771E-02  0.1155156E+00
         -2   -1    0    0    0  501 -0.00000000000E+00  0.00000000000E+00  0.22970484906E+02  0.22970484906E+02  0.00000000000E+00 0. -1.
          2   -1    0    0  502    0  0.00000000000E+00 -0.00000000000E+00 -0.16800527919E+04  0.16800527919E+04  0.00000000000E+00 0.  1.
          6    1    1    2  502    0 -0.74686594973E+02 -0.44911698302E+02 -0.97016087944E+03  0.98931101283E+03  0.17300000000E+03 0.  1.
         -6    1    1    2    0  501  0.74686594973E+02  0.44911698302E+02 -0.68692142751E+03  0.71371226393E+03  0.17300000000E+03 0. -1.
<mgrwt>
<rscale>  2 0.19371151E+03</rscale>
<asrwt>0</asrwt>
<pdfrwt beam="1">  1        2 0.25846975E+00 0.19371151E+03</pdfrwt>
<pdfrwt beam="2">  1       -2 0.35339195E-02 0.19371151E+03</pdfrwt>
<totfact> 0.36184076E+03</totfact>
</mgrwt>
</event>
<event>
 4    3  0.7748294E-001  0.3172791E+03  0.7546771E-02  0.1076908E+00
         -1   -1    0    0    0  501 -0.00000000000E+00  0.00000000000E+00  0.70936281510E+03  0.70936281510E+03  0.00000000000E+00 0. -1.
          1   -1    0    0  502    0  0.00000000000E+00 -0.00000000000E+00 -0.14193231161E+03  0.14193231161E+03  0.00000000000E+00 0.  1.
          6    1    1    2  502    0 -0.67670892613E+02  0.25721137120E+03  0.28899057875E+03  0.42916383094E+03  0.17300000000E+03 0.  1.
         -6    1    1    2    0  501  0.67670892613E+02 -0.25721137120E+03  0.27843992474E+03  0.42213129577E+03  0.17300000000E+03 0. -1.
<mgrwt>
<rscale>  2 0.31727912E+03</rscale>
<asrwt>0</asrwt>
<pdfrwt beam="1">  1        1 0.21835741E-01 0.31727912E+03</pdfrwt>
<pdfrwt beam="2">  1       -1 0.10913274E+00 0.31727912E+03</pdfrwt>
<totfact> 0.18846281E+02</totfact>
</mgrwt>
</event>
<event>
 4    3  0.7748294E-001  0.2256636E+03  0.7546771E-02  0.1129730E+00
         -3   -1    0    0    0  501 -0.00000000000E+00  0.00000000000E+00  0.15724429621E+04  0.15724429621E+04  0.00000000000E+00 0.  1.
          3   -1    0    0  502    0  0.00000000000E+00 -0.00000000000E+00 -0.32684745322E+02  0.32684745322E+02  0.00000000000E+00 0. -1.
          6    1    1    2  502    0  0.15142431592E+02 -0.14410336186E+03  0.69306347168E+03  0.72887656563E+03  0.17300000000E+03 0.  1.
         -6    1    1    2    0  501 -0.15142431592E+02  0.14410336186E+03  0.84669474513E+03  0.87625114183E+03  0.17300000000E+03 0. -1.
<mgrwt>
<rscale>  2 0.22566363E+03</rscale>
<asrwt>0</asrwt>
<pdfrwt beam="1">  1        3 0.50284236E-02 0.22566363E+03</pdfrwt>
<pdfrwt beam="2">  1       -3 0.24191424E+00 0.22566363E+03</pdfrwt>
<totfact> 0.50905061E+01</totfact>
</mgrwt>
</event>
<event>
 4    3  0.7748294E-001  0.2094861E+03  0.7546771E-02  0.1141974E+00
         -2   -1    0    0    0  501 -0.00000000000E+00  0.00000000000E+00  0.10926875637E+04  0.10926875637E+04  0.00000000000E+00 0.  1.
          2   -1    0    0  502    0  0.00000000000E+00 -0.00000000000E+00 -0.45472889358E+02  0.45472889358E+02  0.00000000000E+00 0. -1.
          6    1    1    2  502    0 -0.81355582667E+01  0.11785263924E+03  0.71809142189E+03  0.74802387801E+03  0.17300000000E+03 0.  1.
         -6    1    1    2    0  501  0.81355582667E+01 -0.11785263924E+03  0.32912325245E+03  0.39013657505E+03  0.17300000000E+03 0. -1.
<mgrwt>
<rscale>  2 0.20948611E+03</rscale>
<asrwt>0</asrwt>
<pdfrwt beam="1">  1        2 0.69958300E-02 0.20948611E+03</pdfrwt>
<pdfrwt beam="2">  1       -2 0.16810576E+00 0.20948611E+03</pdfrwt>
<totfact> 0.23671409E+02</totfact>
</mgrwt>
</event>
<event>
 4    3  0.7748294E-001  0.1854365E+03  0.7546771E-02  0.1162643E+00
         -2   -1    0    0    0  501 -0.00000000000E+00  0.00000000000E+00  0.33861446470E+02  0.33861446470E+02  0.00000000000E+00 0. -1.
          2   -1    0    0  502    0  0.00000000000E+00 -0.00000000000E+00 -0.20171051396E+04  0.20171051396E+04  0.00000000000E+00 0.  1.
          6    1    1    2  502    0  0.48917670501E+02  0.45439550084E+02 -0.26900167293E+03  0.32672402917E+03  0.17300000000E+03 0. -1.
         -6    1    1    2    0  501 -0.48917670501E+02 -0.45439550084E+02 -0.17142420202E+04  0.17242425569E+04  0.17300000000E+03 0.  1.
<mgrwt>
<rscale>  2 0.18543649E+03</rscale>
<asrwt>0</asrwt>
<pdfrwt beam="1">  1        2 0.31032394E+00 0.18543649E+03</pdfrwt>
<pdfrwt beam="2">  1       -2 0.52094521E-02 0.18543649E+03</pdfrwt>
<totfact> 0.13506789E+03</totfact>
</mgrwt>
</event>
<event>
 4    3  0.7748294E-001  0.2096795E+03  0.7546771E-02  0.1141820E+00
         -3   -1    0    0    0  501 -0.00000000000E+00  0.00000000000E+00  0.97767842095E+02  0.97767842095E+02  0.00000000000E+00 0.  1.
          3   -1    0    0  502    0  0.00000000000E+00 -0.00000000000E+00 -0.45219382153E+03  0.45219382153E+03  0.00000000000E+00 0. -1.
          6    1    1    2  502    0 -0.82726443021E+02  0.84810426497E+02 -0.19766416270E+03  0.28816070869E+03  0.17300000000E+03 0. -1.
         -6    1    1    2    0  501  0.82726443021E+02 -0.84810426497E+02 -0.15676181673E+03  0.26180095493E+03  0.17300000000E+03 0. -1.
<mgrwt>
<rscale>  2 0.20967945E+03</rscale>
<asrwt>0</asrwt>
<pdfrwt beam="1">  1        3 0.69568281E-01 0.20967945E+03</pdfrwt>
<pdfrwt beam="2">  1       -3 0.15041206E-01 0.20967945E+03</pdfrwt>
<totfact> 0.18295081E+02</totfact>
</mgrwt>
</event>
<event>
 4    3  0.7748294E-001  0.1773984E+03  0.7546771E-02  0.1170345E+00
         -2   -1    0    0    0  501 -0.00000000000E+00  0.00000000000E+00  0.46567226892E+02  0.46567226892E+02  0.00000000000E+00 0.  1.
          2   -1    0    0  502    0  0.00000000000E+00 -0.00000000000E+00 -0.68907385583E+03  0.68907385583E+03  0.00000000000E+00 0. -1.
          6    1    1    2  502    0  0.20734937258E+02 -0.33335281626E+02 -0.37230207928E+03  0.41240637345E+03  0.17300000000E+03 0.  1.
         -6    1    1    2    0  501 -0.20734937258E+02  0.33335281626E+02 -0.27020454966E+03  0.32323470928E+03  0.17300000000E+03 0.  1.
<mgrwt>
<rscale>  2 0.17739836E+03</rscale>
<asrwt>0</asrwt>
<pdfrwt beam="1">  1        2 0.10601136E+00 0.17739836E+03</pdfrwt>
<pdfrwt beam="2">  1       -2 0.71641886E-02 0.17739836E+03</pdfrwt>
<totfact> 0.47155303E+03</totfact>
</mgrwt>
</event>
<event>
 4    3  0.7748294E-001  0.1962565E+03  0.7546771E-02  0.1152936E+00
          1   -1    0    0  502    0  0.00000000000E+00  0.00000000000E+00  0.96488260504E+03  0.96488260504E+03  0.00000000000E+00 0. -1.
         -1   -1    0    0    0  501 -0.00000000000E+00 -0.00000000000E+00 -0.49331871311E+02  0.49331871311E+02  0.00000000000E+00 0.  1.
          6    1    1    2  502    0  0.94086755069E+01 -0.92190441788E+02  0.23625677796E+03  0.30713818692E+03  0.17300000000E+03 0.  1.
         -6    1    1    2    0  501 -0.94086755069E+01  0.92190441788E+02  0.67929395578E+03  0.70707628944E+03  0.17300000000E+03 0. -1.
<mgrwt>
<rscale>  2 0.19625647E+03</rscale>
<asrwt>0</asrwt>
<pdfrwt beam="1">  1        1 0.14844346E+00 0.19625647E+03</pdfrwt>
<pdfrwt beam="2">  1       -1 0.75895194E-02 0.19625647E+03</pdfrwt>
<totfact> 0.15854883E+03</totfact>
</mgrwt>
</event>
<event>
 4    3  0.7748294E-001  0.2017690E+03  0.7546771E-02  0.1148255E+00
          2   -1    0    0  502    0  0.00000000000E+00  0.00000000000E+00  0.20367640942E+04  0.20367640942E+04  0.00000000000E+00 0. -1.
         -2   -1    0    0    0  501 -0.00000000000E+00 -0.00000000000E+00 -0.26040009294E+02  0.26040009294E+02  0.00000000000E+00 0.  1.
          6    1    1    2  502    0 -0.10148518604E+03 -0.21965829896E+02  0.50813014698E+03  0.54672386717E+03  0.17300000000E+03 0.  1.
         -6    1    1    2    0  501  0.10148518604E+03  0.21965829896E+02  0.15025939379E+04  0.15160802363E+04  0.17300000000E+03 0. -1.
<mgrwt>
<rscale>  2 0.20176903E+03</rscale>
<asrwt>0</asrwt>
<pdfrwt beam="1">  1        2 0.31334820E+00 0.20176903E+03</pdfrwt>
<pdfrwt beam="2">  1       -2 0.40061569E-02 0.20176903E+03</pdfrwt>
<totfact> 0.19572419E+03</totfact>
</mgrwt>
</event>
<event>
 4    3  0.7748294E-001  0.3473198E+03  0.7546771E-02  0.1063720E+00
          1   -1    0    0  502    0  0.00000000000E+00  0.00000000000E+00  0.63849697636E+03  0.63849697636E+03  0.00000000000E+00 0. -1.
         -1   -1    0    0    0  501 -0.00000000000E+00 -0.00000000000E+00 -0.19432418732E+03  0.19432418732E+03  0.00000000000E+00 0.  1.
          6    1    1    2  502    0 -0.30113000088E+03  0.47727509834E+01  0.15270668002E+03  0.37940794233E+03  0.17300000000E+03 0.  1.
         -6    1    1    2    0  501  0.30113000088E+03 -0.47727509834E+01  0.29146610903E+03  0.45341322135E+03  0.17300000000E+03 0. -1.
<mgrwt>
<rscale>  2 0.34731982E+03</rscale>
<asrwt>0</asrwt>
<pdfrwt beam="1">  1        1 0.98230303E-01 0.34731982E+03</pdfrwt>
<pdfrwt beam="2">  1       -1 0.29896029E-01 0.34731982E+03</pdfrwt>
<totfact> 0.33144433E+02</totfact>
</mgrwt>
</event>
<event>
 4    3  0.7748294E-001  0.1764605E+03  0.7546771E-02  0.1171273E+00
         -1   -1    0    0    0  501 -0.00000000000E+00  0.00000000000E+00  0.36761771853E+02  0.36761771853E+02  0.00000000000E+00 0.  1.
          1   -1    0    0  502    0  0.00000000000E+00 -0.00000000000E+00 -0.84712708837E+03  0.84712708837E+03  0.00000000000E+00 0. -1.
          6    1    1    2  502    0  0.28450668891E+02  0.19997018414E+02 -0.40991544868E+03  0.44628353809E+03  0.17300000000E+03 0. -1.
         -6    1    1    2    0  501 -0.28450668891E+02 -0.19997018414E+02 -0.40044986783E+03  0.43760532213E+03  0.17300000000E+03 0.  1.
<mgrwt>
<rscale>  2 0.17646054E+03</rscale>
<asrwt>0</asrwt>
<pdfrwt beam="1">  1        1 0.13032724E+00 0.17646054E+03</pdfrwt>
<pdfrwt beam="2">  1       -1 0.56556573E-02 0.17646054E+03</pdfrwt>
<totfact> 0.30428429E+03</totfact>
</mgrwt>
</event>
<event>
 4    3  0.7748294E-001  0.1839567E+03  0.7546771E-02  0.1164028E+00
          1   -1    0    0  502    0  0.00000000000E+00  0.00000000000E+00  0.92678398187E+03  0.92678398187E+03  0.00000000000E+00 0.  1.
         -1   -1    0    0    0  501 -0.00000000000E+00 -0.00000000000E+00 -0.62284719257E+02  0.62284719257E+02  0.00000000000E+00 0. -1.
          6    1    1    2  502    0 -0.62087991135E+02  0.74934752859E+01  0.75035697903E+03  0.77257728856E+03  0.17300000000E+03 0.  1.
         -6    1    1    2    0  501  0.62087991135E+02 -0.74934752859E+01  0.11414228359E+03  0.21649141257E+03  0.17300000000E+03 0. -1.
<mgrwt>
<rscale>  2 0.18395671E+03</rscale>
<asrwt>0</asrwt>
<pdfrwt beam="1">  1        1 0.14258214E+00 0.18395671E+03</pdfrwt>
<pdfrwt beam="2">  1       -1 0.95822652E-02 0.18395671E+03</pdfrwt>
<totfact> 0.11871351E+03</totfact>
</mgrwt>
</event>
<event>
 4    3  0.7748294E-001  0.2062912E+03  0.7546771E-02  0.1144537E+00
         -2   -1    0    0    0  501 -0.00000000000E+00  0.00000000000E+00  0.30188438054E+02  0.30188438054E+02  0.00000000000E+00 0. -1.
          2   -1    0    0  502    0  0.00000000000E+00 -0.00000000000E+00 -0.22370681288E+04  0.22370681288E+04  0.00000000000E+00 0.  1.
          6    1    1    2  502    0  0.62570121643E+02  0.93338227240E+02 -0.41401703946E+03  0.46256475628E+03  0.17300000000E+03 0.  1.
         -6    1    1    2    0  501 -0.62570121643E+02 -0.93338227240E+02 -0.17928626513E+04  0.18046918106E+04  0.17300000000E+03 0. -1.
<mgrwt>
<rscale>  2 0.20629117E+03</rscale>
<asrwt>0</asrwt>
<pdfrwt beam="1">  1        2 0.34416440E+00 0.20629117E+03</pdfrwt>
<pdfrwt beam="2">  1       -2 0.46443741E-02 0.20629117E+03</pdfrwt>
<totfact> 0.12294776E+03</totfact>
</mgrwt>
</event>
<event>
 4    3  0.7748294E-001  0.2560118E+03  0.7546771E-02  0.1109563E+00
         -2   -1    0    0    0  501 -0.00000000000E+00  0.00000000000E+00  0.25636804021E+02  0.25636804021E+02  0.00000000000E+00 0.  1.
          2   -1    0    0  502    0  0.00000000000E+00 -0.00000000000E+00 -0.25884828227E+04  0.25884828227E+04  0.00000000000E+00 0. -1.
          6    1    1    2  502    0 -0.57577902665E+01 -0.18862631012E+03 -0.14265743281E+04  0.14493641194E+04  0.17300000000E+03 0. -1.
         -6    1    1    2    0  501  0.57577902665E+01  0.18862631012E+03 -0.11362716905E+04  0.11647555073E+04  0.17300000000E+03 0. -1.
<mgrwt>
<rscale>  2 0.25601179E+03</rscale>
<asrwt>0</asrwt>
<pdfrwt beam="1">  1        2 0.39822833E+00 0.25601179E+03</pdfrwt>
<pdfrwt beam="2">  1       -2 0.39441217E-02 0.25601179E+03</pdfrwt>
<totfact> 0.10085882E+03</totfact>
</mgrwt>
</event>
<event>
 4    3  0.7748294E-001  0.2128582E+03  0.7546771E-02  0.1139322E+00
          2   -1    0    0  502    0  0.00000000000E+00  0.00000000000E+00  0.13537572988E+04  0.13537572988E+04  0.00000000000E+00 0.  1.
         -2   -1    0    0    0  501 -0.00000000000E+00 -0.00000000000E+00 -0.33871387156E+02  0.33871387156E+02  0.00000000000E+00 0. -1.
          6    1    1    2  502    0 -0.12218194557E+03 -0.21241498809E+02  0.73558408601E+03  0.76576274177E+03  0.17300000000E+03 0.  1.
         -6    1    1    2    0  501  0.12218194557E+03  0.21241498809E+02  0.58430182563E+03  0.62186594418E+03  0.17300000000E+03 0. -1.
<mgrwt>
<rscale>  2 0.21285824E+03</rscale>
<asrwt>0</asrwt>
<pdfrwt beam="1">  1        2 0.20827031E+00 0.21285824E+03</pdfrwt>
<pdfrwt beam="2">  1       -2 0.52109837E-02 0.21285824E+03</pdfrwt>
<totfact> 0.30049572E+03</totfact>
</mgrwt>
</event>
<event>
 4    3  0.7748294E-001  0.1917705E+03  0.7546771E-02  0.1156874E+00
          1   -1    0    0  502    0  0.00000000000E+00  0.00000000000E+00  0.32133858197E+03  0.32133858197E+03  0.00000000000E+00 0. -1.
         -1   -1    0    0    0  501 -0.00000000000E+00 -0.00000000000E+00 -0.11538500369E+03  0.11538500369E+03  0.00000000000E+00 0.  1.
          6    1    1    2  502    0 -0.36039069603E+02  0.74485536429E+02  0.12267558606E+03  0.22765150799E+03  0.17300000000E+03 0.  1.
         -6    1    1    2    0  501  0.36039069603E+02 -0.74485536429E+02  0.83277992218E+02  0.20907207767E+03  0.17300000000E+03 0.  1.
<mgrwt>
<rscale>  2 0.19177046E+03</rscale>
<asrwt>0</asrwt>
<pdfrwt beam="1">  1        1 0.49436704E-01 0.19177046E+03</pdfrwt>
<pdfrwt beam="2">  1       -1 0.17751539E-01 0.19177046E+03</pdfrwt>
<totfact> 0.19458510E+03</totfact>
</mgrwt>
</event>
<event>
 4    3  0.7748294E-001  0.2086094E+03  0.7546771E-02  0.1142672E+00
          2   -1    0    0  502    0  0.00000000000E+00  0.00000000000E+00  0.25433421046E+03  0.25433421046E+03  0.00000000000E+00 0. -1.
         -2   -1    0    0    0  501 -0.00000000000E+00 -0.00000000000E+00 -0.18091000837E+03  0.18091000837E+03  0.00000000000E+00 0.  1.
          6    1    1    2  502    0  0.11499962348E+03  0.19078133297E+02 -0.13951118731E+02  0.20907539856E+03  0.17300000000E+03 0.  1.
         -6    1    1    2    0  501 -0.11499962348E+03 -0.19078133297E+02  0.87375320823E+02  0.22616882026E+03  0.17300000000E+03 0.  1.
<mgrwt>
<rscale>  2 0.20860942E+03</rscale>
<asrwt>0</asrwt>
<pdfrwt beam="1">  1        2 0.39128340E-01 0.20860942E+03</pdfrwt>
<pdfrwt beam="2">  1       -2 0.27832309E-01 0.20860942E+03</pdfrwt>
<totfact> 0.15235788E+03</totfact>
</mgrwt>
</event>
<event>
 4    3  0.7748294E-001  0.1897531E+03  0.7546771E-02  0.1158684E+00
          1   -1    0    0  502    0  0.00000000000E+00  0.00000000000E+00  0.10590324921E+04  0.10590324921E+04  0.00000000000E+00 0.  1.
         -1   -1    0    0    0  501 -0.00000000000E+00 -0.00000000000E+00 -0.36823477498E+02  0.36823477498E+02  0.00000000000E+00 0. -1.
          6    1    1    2  502    0 -0.37525155486E+02  0.68330905048E+02  0.35935918269E+03  0.40638069844E+03  0.17300000000E+03 0. -1.
         -6    1    1    2    0  501  0.37525155486E+02 -0.68330905048E+02  0.66284983195E+03  0.68947527120E+03  0.17300000000E+03 0. -1.
<mgrwt>
<rscale>  2 0.18975313E+03</rscale>
<asrwt>0</asrwt>
<pdfrwt beam="1">  1        1 0.16292805E+00 0.18975313E+03</pdfrwt>
<pdfrwt beam="2">  1       -1 0.56651512E-02 0.18975313E+03</pdfrwt>
<totfact> 0.20994340E+03</totfact>
</mgrwt>
</event>
<event>
 4    3  0.7748294E-001  0.1772701E+03  0.7546771E-02  0.1170472E+00
          2   -1    0    0  502    0  0.00000000000E+00  0.00000000000E+00  0.16293027215E+04  0.16293027215E+04  0.00000000000E+00 0.  1.
         -2   -1    0    0    0  501 -0.00000000000E+00 -0.00000000000E+00 -0.25672544262E+02  0.25672544262E+02  0.00000000000E+00 0. -1.
          6    1    1    2  502    0 -0.18017191003E+02  0.34220850644E+02  0.12145006260E+04  0.12273697309E+04  0.17300000000E+03 0.  1.
         -6    1    1    2    0  501  0.18017191003E+02 -0.34220850644E+02  0.38912955120E+03  0.42760553482E+03  0.17300000000E+03 0. -1.
<mgrwt>
<rscale>  2 0.17727009E+03</rscale>
<asrwt>0</asrwt>
<pdfrwt beam="1">  1        2 0.25066188E+00 0.17727009E+03</pdfrwt>
<pdfrwt beam="2">  1       -2 0.39496235E-02 0.17727009E+03</pdfrwt>
<totfact> 0.32549872E+03</totfact>
</mgrwt>
</event>
<event>
 4    3  0.7748294E-001  0.2364846E+03  0.7546771E-02  0.1122157E+00
         -2   -1    0    0    0  501 -0.00000000000E+00  0.00000000000E+00  0.63905068688E+02  0.63905068688E+02  0.00000000000E+00 0.  1.
          2   -1    0    0  502    0  0.00000000000E+00 -0.00000000000E+00 -0.99294088470E+03  0.99294088470E+03  0.00000000000E+00 0. -1.
          6    1    1    2  502    0  0.10741840746E+03  0.12023829585E+03 -0.64653861691E+03  0.68843092988E+03  0.17300000000E+03 0. -1.
         -6    1    1    2    0  501 -0.10741840746E+03 -0.12023829585E+03 -0.28249719910E+03  0.36841502351E+03  0.17300000000E+03 0.  1.
<mgrwt>
<rscale>  2 0.23648459E+03</rscale>
<asrwt>0</asrwt>
<pdfrwt beam="1">  1        2 0.15276013E+00 0.23648459E+03</pdfrwt>
<pdfrwt beam="2">  1       -2 0.98315492E-02 0.23648459E+03</pdfrwt>
<totfact> 0.18066620E+03</totfact>
</mgrwt>
</event>
<event>
 4    3  0.7748294E-001  0.1736816E+03  0.7546771E-02  0.1174062E+00
          1   -1    0    0  502    0  0.00000000000E+00  0.00000000000E+00  0.20467374906E+02  0.20467374906E+02  0.00000000000E+00 0. -1.
         -1   -1    0    0    0  501 -0.00000000000E+00 -0.00000000000E+00 -0.15882370978E+04  0.15882370978E+04  0.00000000000E+00 0.  1.
          6    1    1    2  502    0 -0.14287575657E+02 -0.56702853513E+01 -0.99977284114E+03  0.10147467767E+04  0.17300000000E+03 0.  1.
         -6    1    1    2    0  501  0.14287575657E+02  0.56702853513E+01 -0.56799688173E+03  0.59395769597E+03  0.17300000000E+03 0. -1.
<mgrwt>
<rscale>  2 0.17368157E+03</rscale>
<asrwt>0</asrwt>
<pdfrwt beam="1">  1        1 0.31488278E-02 0.17368157E+03</pdfrwt>
<pdfrwt beam="2">  1       -1 0.24434410E+00 0.17368157E+03</pdfrwt>
<totfact> 0.27504692E+02</totfact>
</mgrwt>
</event>
<event>
 4    3  0.7748294E-001  0.1743292E+03  0.7546771E-02  0.1173407E+00
          2   -1    0    0  502    0  0.00000000000E+00  0.00000000000E+00  0.41648721404E+03  0.41648721404E+03  0.00000000000E+00 0.  1.
         -2   -1    0    0    0  501 -0.00000000000E+00 -0.00000000000E+00 -0.73735629700E+02  0.73735629700E+02  0.00000000000E+00 0. -1.
          6    1    1    2  502    0  0.17904825786E+02  0.11878676730E+02  0.14638401642E+03  0.22763779565E+03  0.17300000000E+03 0. -1.
         -6    1    1    2    0  501 -0.17904825786E+02 -0.11878676730E+02  0.19636756792E+03  0.26258504809E+03  0.17300000000E+03 0.  1.
<mgrwt>
<rscale>  2 0.17432925E+03</rscale>
<asrwt>0</asrwt>
<pdfrwt beam="1">  1        2 0.64074955E-01 0.17432925E+03</pdfrwt>
<pdfrwt beam="2">  1       -2 0.11343943E-01 0.17432925E+03</pdfrwt>
<totfact> 0.40422756E+03</totfact>
</mgrwt>
</event>
<event>
 4    3  0.7748294E-001  0.1991202E+03  0.7546771E-02  0.1150483E+00
         -4   -1    0    0    0  501 -0.00000000000E+00  0.00000000000E+00  0.25121745104E+03  0.25121745104E+03  0.00000000000E+00 0.  1.
          4   -1    0    0  502    0  0.00000000000E+00 -0.00000000000E+00 -0.15944716455E+03  0.15944716455E+03  0.00000000000E+00 0. -1.
          6    1    1    2  502    0 -0.10135590622E+01 -0.98584207095E+02  0.25186543627E+02  0.20070683887E+03  0.17300000000E+03 0. -1.
         -6    1    1    2    0  501  0.10135590622E+01  0.98584207095E+02  0.66583742858E+02  0.20995777672E+03  0.17300000000E+03 0. -1.
<mgrwt>
<rscale>  2 0.19912025E+03</rscale>
<asrwt>0</asrwt>
<pdfrwt beam="1">  1        4 0.24530333E-01 0.19912025E+03</pdfrwt>
<pdfrwt beam="2">  1       -4 0.38648839E-01 0.19912025E+03</pdfrwt>
<totfact> 0.17947729E+02</totfact>
</mgrwt>
</event>
<event>
 4    3  0.7748294E-001  0.2625933E+03  0.7546771E-02  0.1105595E+00
          1   -1    0    0  502    0  0.00000000000E+00  0.00000000000E+00  0.97265091316E+03  0.97265091316E+03  0.00000000000E+00 0.  1.
         -1   -1    0    0    0  501 -0.00000000000E+00 -0.00000000000E+00 -0.71520916501E+02  0.71520916501E+02  0.00000000000E+00 0. -1.
          6    1    1    2  502    0 -0.21906893776E+02 -0.19633220614E+03  0.49943955241E+03  0.56426510939E+03  0.17300000000E+03 0. -1.
         -6    1    1    2    0  501  0.21906893776E+02  0.19633220614E+03  0.40169044425E+03  0.47990672027E+03  0.17300000000E+03 0.  1.
<mgrwt>
<rscale>  2 0.26259331E+03</rscale>
<asrwt>0</asrwt>
<pdfrwt beam="1">  1        1 0.14963859E+00 0.26259331E+03</pdfrwt>
<pdfrwt beam="2">  1       -1 0.11003219E-01 0.26259331E+03</pdfrwt>
<totfact> 0.88262886E+02</totfact>
</mgrwt>
</event>
<event>
 4    3  0.7748294E-001  0.3402757E+03  0.7546771E-02  0.1066679E+00
          1   -1    0    0  502    0  0.00000000000E+00  0.00000000000E+00  0.14290563005E+04  0.14290563005E+04  0.00000000000E+00 0. -1.
         -1   -1    0    0    0  501 -0.00000000000E+00 -0.00000000000E+00 -0.85353362416E+02  0.85353362416E+02  0.00000000000E+00 0.  1.
          6    1    1    2  502    0  0.17640058665E+03 -0.23396883206E+03  0.84239086860E+03  0.90852075202E+03  0.17300000000E+03 0. -1.
         -6    1    1    2    0  501 -0.17640058665E+03  0.23396883206E+03  0.50131206952E+03  0.60588891093E+03  0.17300000000E+03 0. -1.
<mgrwt>
<rscale>  2 0.34027574E+03</rscale>
<asrwt>0</asrwt>
<pdfrwt beam="1">  1        1 0.21985480E+00 0.34027574E+03</pdfrwt>
<pdfrwt beam="2">  1       -1 0.13131288E-01 0.34027574E+03</pdfrwt>
<totfact> 0.31533165E+02</totfact>
</mgrwt>
</event>
<event>
 4    3  0.7748294E-001  0.2690704E+03  0.7546771E-02  0.1101813E+00
         -1   -1    0    0    0  501 -0.00000000000E+00  0.00000000000E+00  0.35423775514E+02  0.35423775514E+02  0.00000000000E+00 0.  1.
          1   -1    0    0  502    0  0.00000000000E+00 -0.00000000000E+00 -0.24447120742E+04  0.24447120742E+04  0.00000000000E+00 0. -1.
          6    1    1    2  502    0 -0.23930557148E+02 -0.20468803355E+03 -0.70246346720E+03  0.75223253412E+03  0.17300000000E+03 0.  1.
         -6    1    1    2    0  501  0.23930557148E+02  0.20468803355E+03 -0.17068248315E+04  0.17279033156E+04  0.17300000000E+03 0. -1.
<mgrwt>
<rscale>  2 0.26907037E+03</rscale>
<asrwt>0</asrwt>
<pdfrwt beam="1">  1        1 0.37610949E+00 0.26907037E+03</pdfrwt>
<pdfrwt beam="2">  1       -1 0.54498124E-02 0.26907037E+03</pdfrwt>
<totfact> 0.26676111E+02</totfact>
</mgrwt>
</event>
<event>
 4    3  0.7748294E-001  0.1779454E+03  0.7546771E-02  0.1169806E+00
          1   -1    0    0  502    0  0.00000000000E+00  0.00000000000E+00  0.11788371636E+03  0.11788371636E+03  0.00000000000E+00 0. -1.
         -1   -1    0    0    0  501 -0.00000000000E+00 -0.00000000000E+00 -0.27231253442E+03  0.27231253442E+03  0.00000000000E+00 0.  1.
          6    1    1    2  502    0 -0.32672162652E+02  0.25847864594E+02 -0.54460826772E+02  0.18609289070E+03  0.17300000000E+03 0. -1.
         -6    1    1    2    0  501  0.32672162652E+02 -0.25847864594E+02 -0.99967991285E+02  0.20410336008E+03  0.17300000000E+03 0.  1.
<mgrwt>
<rscale>  2 0.17794545E+03</rscale>
<asrwt>0</asrwt>
<pdfrwt beam="1">  1        1 0.18135956E-01 0.17794545E+03</pdfrwt>
<pdfrwt beam="2">  1       -1 0.41894236E-01 0.17794545E+03</pdfrwt>
<totfact> 0.16270442E+03</totfact>
</mgrwt>
</event>
<event>
 4    3  0.7748294E-001  0.2230699E+03  0.7546771E-02  0.1131615E+00
         -1   -1    0    0    0  501 -0.00000000000E+00  0.00000000000E+00  0.51476828199E+02  0.51476828199E+02  0.00000000000E+00 0.  1.
          1   -1    0    0  502    0  0.00000000000E+00 -0.00000000000E+00 -0.10500942712E+04  0.10500942712E+04  0.00000000000E+00 0. -1.
          6    1    1    2  502    0 -0.13711550079E+03 -0.32101599768E+02 -0.65456949225E+03  0.69153553303E+03  0.17300000000E+03 0. -1.
         -6    1    1    2    0  501  0.13711550079E+03  0.32101599768E+02 -0.34404795073E+03  0.41003556634E+03  0.17300000000E+03 0.  1.
<mgrwt>
<rscale>  2 0.22306988E+03</rscale>
<asrwt>0</asrwt>
<pdfrwt beam="1">  1        1 0.16155297E+00 0.22306988E+03</pdfrwt>
<pdfrwt beam="2">  1       -1 0.79195119E-02 0.22306988E+03</pdfrwt>
<totfact> 0.12849752E+03</totfact>
</mgrwt>
</event>
<event>
 4    3  0.7748294E-001  0.1826819E+03  0.7546771E-02  0.1165232E+00
          2   -1    0    0  502    0  0.00000000000E+00  0.00000000000E+00  0.65435109922E+02  0.65435109922E+02  0.00000000000E+00 0. -1.
         -2   -1    0    0    0  501 -0.00000000000E+00 -0.00000000000E+00 -0.53307727002E+03  0.53307727002E+03  0.00000000000E+00 0.  1.
          6    1    1    2  502    0  0.47554411457E+02  0.34384104127E+02 -0.29606941051E+03  0.34789335220E+03  0.17300000000E+03 0.  1.
         -6    1    1    2    0  501 -0.47554411457E+02 -0.34384104127E+02 -0.17157274959E+03  0.25061902775E+03  0.17300000000E+03 0. -1.
<mgrwt>
<rscale>  2 0.18268193E+03</rscale>
<asrwt>0</asrwt>
<pdfrwt beam="1">  1        2 0.10066941E-01 0.18268193E+03</pdfrwt>
<pdfrwt beam="2">  1       -2 0.82011883E-01 0.18268193E+03</pdfrwt>
<totfact> 0.84664517E+02</totfact>
</mgrwt>
</event>
<event>
 4    3  0.7748294E-001  0.1818456E+03  0.7546771E-02  0.1166029E+00
         -2   -1    0    0    0  501 -0.00000000000E+00  0.00000000000E+00  0.12975804956E+03  0.12975804956E+03  0.00000000000E+00 0. -1.
          2   -1    0    0  502    0  0.00000000000E+00 -0.00000000000E+00 -0.30016262728E+03  0.30016262728E+03  0.00000000000E+00 0.  1.
          6    1    1    2  502    0 -0.13754345819E+02  0.54310492238E+02 -0.16751533251E+01  0.18185328629E+03  0.17300000000E+03 0. -1.
         -6    1    1    2    0  501  0.13754345819E+02 -0.54310492238E+02 -0.16872942440E+03  0.24806739055E+03  0.17300000000E+03 0.  1.
<mgrwt>
<rscale>  2 0.18184557E+03</rscale>
<asrwt>0</asrwt>
<pdfrwt beam="1">  1        2 0.46178865E-01 0.18184557E+03</pdfrwt>
<pdfrwt beam="2">  1       -2 0.19962777E-01 0.18184557E+03</pdfrwt>
<totfact> 0.22691684E+03</totfact>
</mgrwt>
</event>
<event>
 4    3  0.7748294E-001  0.1821754E+03  0.7546771E-02  0.1165714E+00
         -2   -1    0    0    0  501 -0.00000000000E+00  0.00000000000E+00  0.51447807729E+02  0.51447807729E+02  0.00000000000E+00 0. -1.
          2   -1    0    0  502    0  0.00000000000E+00 -0.00000000000E+00 -0.85683162705E+03  0.85683162705E+03  0.00000000000E+00 0.  1.
          6    1    1    2  502    0  0.43532651111E+02  0.36929362364E+02 -0.17692683452E+03  0.25395073202E+03  0.17300000000E+03 0. -1.
         -6    1    1    2    0  501 -0.43532651111E+02 -0.36929362364E+02 -0.62845698480E+03  0.65432870276E+03  0.17300000000E+03 0.  1.
<mgrwt>
<rscale>  2 0.18217538E+03</rscale>
<asrwt>0</asrwt>
<pdfrwt beam="1">  1        2 0.13182024E+00 0.18217538E+03</pdfrwt>
<pdfrwt beam="2">  1       -2 0.79150479E-02 0.18217538E+03</pdfrwt>
<totfact> 0.30862519E+03</totfact>
</mgrwt>
</event>
<event>
 4    3  0.7748294E-001  0.1870297E+03  0.7546771E-02  0.1161168E+00
          2   -1    0    0  502    0  0.00000000000E+00  0.00000000000E+00  0.11891141240E+04  0.11891141240E+04  0.00000000000E+00 0. -1.
         -2   -1    0    0    0  501 -0.00000000000E+00 -0.00000000000E+00 -0.32555208976E+02  0.32555208976E+02  0.00000000000E+00 0.  1.
          6    1    1    2  502    0  0.40750281928E+02  0.58228175977E+02  0.38862716345E+03  0.43129013219E+03  0.17300000000E+03 0.  1.
         -6    1    1    2    0  501 -0.40750281928E+02 -0.58228175977E+02  0.76793175156E+03  0.79037920077E+03  0.17300000000E+03 0. -1.
<mgrwt>
<rscale>  2 0.18702969E+03</rscale>
<asrwt>0</asrwt>
<pdfrwt beam="1">  1        2 0.18294060E+00 0.18702969E+03</pdfrwt>
<pdfrwt beam="2">  1       -2 0.50084946E-02 0.18702969E+03</pdfrwt>
<totfact> 0.39272838E+03</totfact>
</mgrwt>
</event>
<event>
 4    3  0.7748294E-001  0.2102418E+03  0.7546771E-02  0.1141375E+00
         -1   -1    0    0    0  501 -0.00000000000E+00  0.00000000000E+00  0.16133535265E+03  0.16133535265E+03  0.00000000000E+00 0.  1.
          1   -1    0    0  502    0  0.00000000000E+00 -0.00000000000E+00 -0.32054768745E+03  0.32054768745E+03  0.00000000000E+00 0. -1.
          6    1    1    2  502    0  0.10328859996E+03  0.60034141868E+02 -0.17144732188E+03  0.27128549031E+03  0.17300000000E+03 0. -1.
         -6    1    1    2    0  501 -0.10328859996E+03 -0.60034141868E+02  0.12234987074E+02  0.21059754980E+03  0.17300000000E+03 0.  1.
<mgrwt>
<rscale>  2 0.21024184E+03</rscale>
<asrwt>0</asrwt>
<pdfrwt beam="1">  1        1 0.49315029E-01 0.21024184E+03</pdfrwt>
<pdfrwt beam="2">  1       -1 0.24820824E-01 0.21024184E+03</pdfrwt>
<totfact> 0.11324889E+03</totfact>
</mgrwt>
</event>
<event>
 4    3  0.7748294E-001  0.2436759E+03  0.7546771E-02  0.1117368E+00
         -1   -1    0    0    0  501 -0.00000000000E+00  0.00000000000E+00  0.86351367177E+02  0.86351367177E+02  0.00000000000E+00 0.  1.
          1   -1    0    0  502    0  0.00000000000E+00 -0.00000000000E+00 -0.74305721277E+03  0.74305721277E+03  0.00000000000E+00 0. -1.
          6    1    1    2  502    0 -0.12137976382E+03 -0.12130907189E+03 -0.21509144222E+03  0.32502656277E+03  0.17300000000E+03 0. -1.
         -6    1    1    2    0  501  0.12137976382E+03  0.12130907189E+03 -0.44161440338E+03  0.50438201718E+03  0.17300000000E+03 0.  1.
<mgrwt>
<rscale>  2 0.24367589E+03</rscale>
<asrwt>0</asrwt>
<pdfrwt beam="1">  1        1 0.11431649E+00 0.24367589E+03</pdfrwt>
<pdfrwt beam="2">  1       -1 0.13284826E-01 0.24367589E+03</pdfrwt>
<totfact> 0.10080971E+03</totfact>
</mgrwt>
</event>
<event>
 4    3  0.7748294E-001  0.3614697E+03  0.7546771E-02  0.1058003E+00
         -2   -1    0    0    0  501 -0.00000000000E+00  0.00000000000E+00  0.15121815622E+03  0.15121815622E+03  0.00000000000E+00 0. -1.
          2   -1    0    0  502    0  0.00000000000E+00 -0.00000000000E+00 -0.92985403594E+03  0.92985403594E+03  0.00000000000E+00 0.  1.
          6    1    1    2  502    0 -0.27549848263E+03 -0.15758160359E+03 -0.24552537790E+03  0.43697035016E+03  0.17300000000E+03 0. -1.
         -6    1    1    2    0  501  0.27549848263E+03  0.15758160359E+03 -0.53311050181E+03  0.64410184200E+03  0.17300000000E+03 0.  1.
<mgrwt>
<rscale>  2 0.36146974E+03</rscale>
<asrwt>0</asrwt>
<pdfrwt beam="1">  1        2 0.14305447E+00 0.36146974E+03</pdfrwt>
<pdfrwt beam="2">  1       -2 0.23264331E-01 0.36146974E+03</pdfrwt>
<totfact> 0.46865329E+02</totfact>
</mgrwt>
</event>
<event>
 4    3  0.7748294E-001  0.1776436E+03  0.7546771E-02  0.1170103E+00
         -2   -1    0    0    0  501 -0.00000000000E+00  0.00000000000E+00  0.67162754959E+02  0.67162754959E+02  0.00000000000E+00 0. -1.
          2   -1    0    0  502    0  0.00000000000E+00 -0.00000000000E+00 -0.74195421557E+03  0.74195421557E+03  0.00000000000E+00 0.  1.
          6    1    1    2  502    0  0.39902607852E+02 -0.60026772950E+01 -0.58238695910E+03  0.60887750852E+03  0.17300000000E+03 0.  1.
         -6    1    1    2    0  501 -0.39902607852E+02  0.60026772950E+01 -0.92404501513E+02  0.20023946201E+03  0.17300000000E+03 0. -1.
<mgrwt>
<rscale>  2 0.17764360E+03</rscale>
<asrwt>0</asrwt>
<pdfrwt beam="1">  1        2 0.11414679E+00 0.17764360E+03</pdfrwt>
<pdfrwt beam="2">  1       -2 0.10332733E-01 0.17764360E+03</pdfrwt>
<totfact> 0.24328945E+03</totfact>
</mgrwt>
</event>
<event>
 4    3  0.7748294E-001  0.2373732E+03  0.7546771E-02  0.1121555E+00
         -2   -1    0    0    0  501 -0.00000000000E+00  0.00000000000E+00  0.44743006552E+02  0.44743006552E+02  0.00000000000E+00 0. -1.
          2   -1    0    0  502    0  0.00000000000E+00 -0.00000000000E+00 -0.13822726560E+04  0.13822726560E+04  0.00000000000E+00 0.  1.
          6    1    1    2  502    0  0.15086053257E+03 -0.60482604973E+02 -0.88155897298E+03  0.91295797748E+03  0.17300000000E+03 0. -1.
         -6    1    1    2    0  501 -0.15086053257E+03  0.60482604973E+02 -0.45597067650E+03  0.51405768511E+03  0.17300000000E+03 0. -1.
<mgrwt>
<rscale>  2 0.23737322E+03</rscale>
<asrwt>0</asrwt>
<pdfrwt beam="1">  1        2 0.21265732E+00 0.23737322E+03</pdfrwt>
<pdfrwt beam="2">  1       -2 0.68835398E-02 0.23737322E+03</pdfrwt>
<totfact> 0.18920346E+03</totfact>
</mgrwt>
</event>
<event>
 4    3  0.7748294E-001  0.4164127E+03  0.7546771E-02  0.1038240E+00
         -2   -1    0    0    0  501 -0.00000000000E+00  0.00000000000E+00  0.40354306887E+03  0.40354306887E+03  0.00000000000E+00 0. -1.
          2   -1    0    0  502    0  0.00000000000E+00 -0.00000000000E+00 -0.49470808707E+03  0.49470808707E+03  0.00000000000E+00 0.  1.
          6    1    1    2  502    0 -0.24389292108E+03  0.28980468912E+03  0.11723508296E+03  0.43260094714E+03  0.17300000000E+03 0. -1.
         -6    1    1    2    0  501  0.24389292108E+03 -0.28980468912E+03 -0.20840010115E+03  0.46565020880E+03  0.17300000000E+03 0.  1.
<mgrwt>
<rscale>  2 0.41641267E+03</rscale>
<asrwt>0</asrwt>
<pdfrwt beam="1">  1        2 0.76108937E-01 0.41641267E+03</pdfrwt>
<pdfrwt beam="2">  1       -2 0.62083549E-01 0.41641267E+03</pdfrwt>
<totfact> 0.15465702E+02</totfact>
</mgrwt>
</event>
<event>
 4    3  0.7748294E-001  0.2069327E+03  0.7546771E-02  0.1144018E+00
         -2   -1    0    0    0  501 -0.00000000000E+00  0.00000000000E+00  0.29330691155E+03  0.29330691155E+03  0.00000000000E+00 0. -1.
          2   -1    0    0  502    0  0.00000000000E+00 -0.00000000000E+00 -0.42503987164E+03  0.42503987164E+03  0.00000000000E+00 0.  1.
          6    1    1    2  502    0 -0.21574831321E+02  0.11147503974E+03  0.22515619778E+03  0.30580462918E+03  0.17300000000E+03 0. -1.
         -6    1    1    2    0  501  0.21574831321E+02 -0.11147503974E+03 -0.35688915786E+03  0.41254215401E+03  0.17300000000E+03 0.  1.
<mgrwt>
<rscale>  2 0.20693274E+03</rscale>
<asrwt>0</asrwt>
<pdfrwt beam="1">  1        2 0.65390749E-01 0.20693274E+03</pdfrwt>
<pdfrwt beam="2">  1       -2 0.45124141E-01 0.20693274E+03</pdfrwt>
<totfact> 0.35508526E+02</totfact>
</mgrwt>
</event>
<event>
 4    3  0.7748294E-001  0.2469856E+03  0.7546771E-02  0.1115225E+00
         -2   -1    0    0    0  501 -0.00000000000E+00  0.00000000000E+00  0.11721321867E+03  0.11721321867E+03  0.00000000000E+00 0. -1.
          2   -1    0    0  502    0  0.00000000000E+00 -0.00000000000E+00 -0.96083821091E+03  0.96083821091E+03  0.00000000000E+00 0.  1.
          6    1    1    2  502    0 -0.17123449163E+03  0.41852685918E+02 -0.56882607991E+02  0.25345123699E+03  0.17300000000E+03 0. -1.
         -6    1    1    2    0  501  0.17123449163E+03 -0.41852685918E+02 -0.78674238425E+03  0.82460019259E+03  0.17300000000E+03 0.  1.
<mgrwt>
<rscale>  2 0.24698562E+03</rscale>
<asrwt>0</asrwt>
<pdfrwt beam="1">  1        2 0.14782126E+00 0.24698562E+03</pdfrwt>
<pdfrwt beam="2">  1       -2 0.18032803E-01 0.24698562E+03</pdfrwt>
<totfact> 0.70070716E+02</totfact>
</mgrwt>
</event>
<event>
 4    3  0.7748294E-001  0.1795102E+03  0.7546771E-02  0.1168278E+00
          2   -1    0    0  502    0  0.00000000000E+00  0.00000000000E+00  0.23576999007E+04  0.23576999007E+04  0.00000000000E+00 0. -1.
         -2   -1    0    0    0  501 -0.00000000000E+00 -0.00000000000E+00 -0.15081487870E+02  0.15081487870E+02  0.00000000000E+00 0.  1.
          6    1    1    2  502    0 -0.43720815423E+02  0.19580755300E+02  0.15345754752E+04  0.15450390949E+04  0.17300000000E+03 0. -1.
         -6    1    1    2    0  501  0.43720815423E+02 -0.19580755300E+02  0.80804293762E+03  0.82774229366E+03  0.17300000000E+03 0.  1.
<mgrwt>
<rscale>  2 0.17951021E+03</rscale>
<asrwt>0</asrwt>
<pdfrwt beam="1">  1        2 0.36272277E+00 0.17951021E+03</pdfrwt>
<pdfrwt beam="2">  1       -2 0.23202308E-02 0.17951021E+03</pdfrwt>
<totfact> 0.29891399E+03</totfact>
</mgrwt>
</event>
<event>
 4    3  0.7748294E-001  0.1984682E+03  0.7546771E-02  0.1151038E+00
          1   -1    0    0  502    0  0.00000000000E+00  0.00000000000E+00  0.25575339779E+03  0.25575339779E+03  0.00000000000E+00 0. -1.
         -1   -1    0    0    0  501 -0.00000000000E+00 -0.00000000000E+00 -0.15553613637E+03  0.15553613637E+03  0.00000000000E+00 0.  1.
          6    1    1    2  502    0  0.87637094870E+02 -0.42194314858E+02  0.29765423568E+02  0.20068781987E+03  0.17300000000E+03 0.  1.
         -6    1    1    2    0  501 -0.87637094870E+02  0.42194314858E+02  0.70451837848E+02  0.21060171428E+03  0.17300000000E+03 0.  1.
<mgrwt>
<rscale>  2 0.19846819E+03</rscale>
<asrwt>0</asrwt>
<pdfrwt beam="1">  1        1 0.39346676E-01 0.19846819E+03</pdfrwt>
<pdfrwt beam="2">  1       -1 0.23928636E-01 0.19846819E+03</pdfrwt>
<totfact> 0.15949638E+03</totfact>
</mgrwt>
</event>
<event>
 4    3  0.7748294E-001  0.2505227E+03  0.7546771E-02  0.1112975E+00
          2   -1    0    0  502    0  0.00000000000E+00  0.00000000000E+00  0.48358175631E+03  0.48358175631E+03  0.00000000000E+00 0. -1.
         -2   -1    0    0    0  501 -0.00000000000E+00 -0.00000000000E+00 -0.16996823855E+03  0.16996823855E+03  0.00000000000E+00 0.  1.
          6    1    1    2  502    0  0.52914135719E+02  0.17329945606E+03  0.31569361470E+03  0.40301869136E+03  0.17300000000E+03 0. -1.
         -6    1    1    2    0  501 -0.52914135719E+02 -0.17329945606E+03 -0.20800969337E+01  0.25053130350E+03  0.17300000000E+03 0.  1.
<mgrwt>
<rscale>  2 0.25052267E+03</rscale>
<asrwt>0</asrwt>
<pdfrwt beam="1">  1        2 0.74397193E-01 0.25052267E+03</pdfrwt>
<pdfrwt beam="2">  1       -2 0.26148960E-01 0.25052267E+03</pdfrwt>
<totfact> 0.85000448E+02</totfact>
</mgrwt>
</event>
<event>
 4    3  0.7748294E-001  0.1833965E+03  0.7546771E-02  0.1164556E+00
          2   -1    0    0  502    0  0.00000000000E+00  0.00000000000E+00  0.13508868800E+04  0.13508868800E+04  0.00000000000E+00 0.  1.
         -2   -1    0    0    0  501 -0.00000000000E+00 -0.00000000000E+00 -0.24927435173E+02  0.24927435173E+02  0.00000000000E+00 0. -1.
          6    1    1    2  502    0 -0.57086676243E+02  0.21127917028E+02  0.63931007285E+03  0.66509521628E+03  0.17300000000E+03 0.  1.
         -6    1    1    2    0  501  0.57086676243E+02 -0.21127917028E+02  0.68664937198E+03  0.71071909888E+03  0.17300000000E+03 0.  1.
<mgrwt>
<rscale>  2 0.18339650E+03</rscale>
<asrwt>0</asrwt>
<pdfrwt beam="1">  1        2 0.20782869E+00 0.18339650E+03</pdfrwt>
<pdfrwt beam="2">  1       -2 0.38349911E-02 0.18339650E+03</pdfrwt>
<totfact> 0.47766065E+03</totfact>
</mgrwt>
</event>
<event>
 4    3  0.7748294E-001  0.2168438E+03  0.7546771E-02  0.1136258E+00
         -2   -1    0    0    0  501 -0.00000000000E+00  0.00000000000E+00  0.16449327723E+03  0.16449327723E+03  0.00000000000E+00 0.  1.
          2   -1    0    0  502    0  0.00000000000E+00 -0.00000000000E+00 -0.41426330592E+03  0.41426330592E+03  0.00000000000E+00 0. -1.
          6    1    1    2  502    0  0.13073497644E+03  0.78665422242E+00 -0.28599556958E+03  0.35890767435E+03  0.17300000000E+03 0. -1.
         -6    1    1    2    0  501 -0.13073497644E+03 -0.78665422242E+00  0.36225540881E+02  0.21984890880E+03  0.17300000000E+03 0.  1.
<mgrwt>
<rscale>  2 0.21684384E+03</rscale>
<asrwt>0</asrwt>
<pdfrwt beam="1">  1        2 0.63732817E-01 0.21684384E+03</pdfrwt>
<pdfrwt beam="2">  1       -2 0.25306658E-01 0.21684384E+03</pdfrwt>
<totfact> 0.10672267E+03</totfact>
</mgrwt>
</event>
<event>
 4    3  0.7748294E-001  0.1801519E+03  0.7546771E-02  0.1167656E+00
         -2   -1    0    0    0  501 -0.00000000000E+00  0.00000000000E+00  0.68884702643E+03  0.68884702643E+03  0.00000000000E+00 0.  1.
          2   -1    0    0  502    0  0.00000000000E+00 -0.00000000000E+00 -0.83393848007E+02  0.83393848007E+02  0.00000000000E+00 0. -1.
          6    1    1    2  502    0  0.50253700062E+02  0.53601498615E+00  0.55740092669E+03  0.58579050416E+03  0.17300000000E+03 0.  1.
         -6    1    1    2    0  501 -0.50253700062E+02 -0.53601498615E+00  0.48052251733E+02  0.18645037028E+03  0.17300000000E+03 0. -1.
<mgrwt>
<rscale>  2 0.18015194E+03</rscale>
<asrwt>0</asrwt>
<pdfrwt beam="1">  1        2 0.12829823E-01 0.18015194E+03</pdfrwt>
<pdfrwt beam="2">  1       -2 0.10597646E+00 0.18015194E+03</pdfrwt>
<totfact> 0.35128023E+02</totfact>
</mgrwt>
</event>
<event>
 4    3  0.7748294E-001  0.1788363E+03  0.7546771E-02  0.1168934E+00
         -1   -1    0    0    0  501 -0.00000000000E+00  0.00000000000E+00  0.15916084554E+02  0.15916084554E+02  0.00000000000E+00 0.  1.
          1   -1    0    0  502    0  0.00000000000E+00 -0.00000000000E+00 -0.39708416288E+04  0.39708416288E+04  0.00000000000E+00 0. -1.
          6    1    1    2  502    0 -0.44643876299E+02  0.77683329785E+01 -0.33784423036E+04  0.33831723015E+04  0.17300000000E+03 0. -1.
         -6    1    1    2    0  501  0.44643876299E+02 -0.77683329785E+01 -0.57648324059E+03  0.60358541183E+03  0.17300000000E+03 0.  1.
<mgrwt>
<rscale>  2 0.17883630E+03</rscale>
<asrwt>0</asrwt>
<pdfrwt beam="1">  1        1 0.61090020E+00 0.17883630E+03</pdfrwt>
<pdfrwt beam="2">  1       -1 0.24486224E-02 0.17883630E+03</pdfrwt>
<totfact> 0.70301248E+01</totfact>
</mgrwt>
</event>
<event>
 4    3  0.7748294E-001  0.1807047E+03  0.7546771E-02  0.1167123E+00
         -2   -1    0    0    0  501 -0.00000000000E+00  0.00000000000E+00  0.42739386849E+02  0.42739386849E+02  0.00000000000E+00 0. -1.
          2   -1    0    0  502    0  0.00000000000E+00 -0.00000000000E+00 -0.10472226688E+04  0.10472226688E+04  0.00000000000E+00 0.  1.
          6    1    1    2  502    0  0.52086396728E+02 -0.34908011475E+01 -0.21883972276E+03  0.28380451490E+03  0.17300000000E+03 0. -1.
         -6    1    1    2    0  501 -0.52086396728E+02  0.34908011475E+01 -0.78564355916E+03  0.80615754072E+03  0.17300000000E+03 0.  1.
<mgrwt>
<rscale>  2 0.18070467E+03</rscale>
<asrwt>0</asrwt>
<pdfrwt beam="1">  1        2 0.16111116E+00 0.18070467E+03</pdfrwt>
<pdfrwt beam="2">  1       -2 0.65752909E-02 0.18070467E+03</pdfrwt>
<totfact> 0.31294550E+03</totfact>
</mgrwt>
</event>
<event>
 4    3  0.7748294E-001  0.1817507E+03  0.7546771E-02  0.1166119E+00
          2   -1    0    0  502    0  0.00000000000E+00  0.00000000000E+00  0.15919431800E+04  0.15919431800E+04  0.00000000000E+00 0. -1.
         -2   -1    0    0    0  501 -0.00000000000E+00 -0.00000000000E+00 -0.21384823531E+02  0.21384823531E+02  0.00000000000E+00 0.  1.
          6    1    1    2  502    0  0.47149127654E+02  0.29686593773E+02  0.92422838484E+03  0.94192963719E+03  0.17300000000E+03 0. -1.
         -6    1    1    2    0  501 -0.47149127654E+02 -0.29686593773E+02  0.64632997161E+03  0.67139836632E+03  0.17300000000E+03 0.  1.
<mgrwt>
<rscale>  2 0.18175075E+03</rscale>
<asrwt>0</asrwt>
<pdfrwt beam="1">  1        2 0.24491424E+00 0.18175075E+03</pdfrwt>
<pdfrwt beam="2">  1       -2 0.32899741E-02 0.18175075E+03</pdfrwt>
<totfact> 0.44709961E+03</totfact>
</mgrwt>
</event>
<event>
 4    3  0.7748294E-001  0.1791337E+03  0.7546771E-02  0.1168644E+00
         -1   -1    0    0    0  501 -0.00000000000E+00  0.00000000000E+00  0.47530187871E+03  0.47530187871E+03  0.00000000000E+00 0.  1.
          1   -1    0    0  502    0  0.00000000000E+00 -0.00000000000E+00 -0.71802424673E+02  0.71802424673E+02  0.00000000000E+00 0. -1.
          6    1    1    2  502    0  0.46474515117E+02  0.13697331526E+00  0.13488658786E+03  0.22423936073E+03  0.17300000000E+03 0. -1.
         -6    1    1    2    0  501 -0.46474515117E+02 -0.13697331526E+00  0.26861286618E+03  0.32286494266E+03  0.17300000000E+03 0.  1.
<mgrwt>
<rscale>  2 0.17913375E+03</rscale>
<asrwt>0</asrwt>
<pdfrwt beam="1">  1        1 0.11046527E-01 0.17913375E+03</pdfrwt>
<pdfrwt beam="2">  1       -1 0.73123364E-01 0.17913375E+03</pdfrwt>
<totfact> 0.10911092E+03</totfact>
</mgrwt>
</event>
<event>
 4    3  0.7748294E-001  0.2829065E+03  0.7546771E-02  0.1094112E+00
          1   -1    0    0  502    0  0.00000000000E+00  0.00000000000E+00  0.13379945019E+04  0.13379945019E+04  0.00000000000E+00 0. -1.
         -1   -1    0    0    0  501 -0.00000000000E+00 -0.00000000000E+00 -0.60828272955E+02  0.60828272955E+02  0.00000000000E+00 0.  1.
          6    1    1    2  502    0 -0.12355923887E+03 -0.18665533403E+03  0.72872119322E+03  0.78171009759E+03  0.17300000000E+03 0.  1.
         -6    1    1    2    0  501  0.12355923887E+03  0.18665533403E+03  0.54844503576E+03  0.61711267730E+03  0.17300000000E+03 0. -1.
<mgrwt>
<rscale>  2 0.28290652E+03</rscale>
<asrwt>0</asrwt>
<pdfrwt beam="1">  1        1 0.20584529E+00 0.28290652E+03</pdfrwt>
<pdfrwt beam="2">  1       -1 0.93581969E-02 0.28290652E+03</pdfrwt>
<totfact> 0.62192534E+02</totfact>
</mgrwt>
</event>
<event>
 4    3  0.7748294E-001  0.2247858E+03  0.7546771E-02  0.1130364E+00
          2   -1    0    0  502    0  0.00000000000E+00  0.00000000000E+00  0.57763586936E+03  0.57763586936E+03  0.00000000000E+00 0. -1.
         -2   -1    0    0    0  501 -0.00000000000E+00 -0.00000000000E+00 -0.13005293835E+03  0.13005293835E+03  0.00000000000E+00 0.  1.
          6    1    1    2  502    0  0.14336061677E+03 -0.68854307239E+01  0.21328890349E+02  0.22579547639E+03  0.17300000000E+03 0.  1.
         -6    1    1    2    0  501 -0.14336061677E+03  0.68854307239E+01  0.42625404066E+03  0.48189333133E+03  0.17300000000E+03 0. -1.
<mgrwt>
<rscale>  2 0.22478584E+03</rscale>
<asrwt>0</asrwt>
<pdfrwt beam="1">  1        2 0.88867055E-01 0.22478584E+03</pdfrwt>
<pdfrwt beam="2">  1       -2 0.20008145E-01 0.22478584E+03</pdfrwt>
<totfact> 0.11083599E+03</totfact>
</mgrwt>
</event>
<event>
 4    3  0.7748294E-001  0.1756563E+03  0.7546771E-02  0.1172074E+00
          2   -1    0    0  502    0  0.00000000000E+00  0.00000000000E+00  0.18624674762E+04  0.18624674762E+04  0.00000000000E+00 0. -1.
         -2   -1    0    0    0  501 -0.00000000000E+00 -0.00000000000E+00 -0.17771838075E+02  0.17771838075E+02  0.00000000000E+00 0.  1.
          6    1    1    2  502    0  0.27395321526E+02 -0.13253166328E+02  0.11671498601E+04  0.11802940083E+04  0.17300000000E+03 0. -1.
         -6    1    1    2    0  501 -0.27395321526E+02  0.13253166328E+02  0.67754577801E+03  0.69994530598E+03  0.17300000000E+03 0.  1.
<mgrwt>
<rscale>  2 0.17565634E+03</rscale>
<asrwt>0</asrwt>
<pdfrwt beam="1">  1        2 0.28653330E+00 0.17565634E+03</pdfrwt>
<pdfrwt beam="2">  1       -2 0.27341304E-02 0.17565634E+03</pdfrwt>
<totfact> 0.42553976E+03</totfact>
</mgrwt>
</event>
<event>
 4    3  0.7748294E-001  0.2488512E+03  0.7546771E-02  0.1114033E+00
          1   -1    0    0  502    0  0.00000000000E+00  0.00000000000E+00  0.15222869405E+03  0.15222869405E+03  0.00000000000E+00 0.  1.
         -1   -1    0    0    0  501 -0.00000000000E+00 -0.00000000000E+00 -0.41904812949E+03  0.41904812949E+03  0.00000000000E+00 0. -1.
          6    1    1    2  502    0  0.15904351766E+03 -0.81872384536E+02 -0.84579892751E+02  0.26283204926E+03  0.17300000000E+03 0.  1.
         -6    1    1    2    0  501 -0.15904351766E+03  0.81872384536E+02 -0.18223954269E+03  0.30844477428E+03  0.17300000000E+03 0.  1.
<mgrwt>
<rscale>  2 0.24885122E+03</rscale>
<asrwt>0</asrwt>
<pdfrwt beam="1">  1        1 0.23419799E-01 0.24885122E+03</pdfrwt>
<pdfrwt beam="2">  1       -1 0.64468943E-01 0.24885122E+03</pdfrwt>
<totfact> 0.52726890E+02</totfact>
</mgrwt>
</event>
<event>
 4    3  0.7748294E-001  0.1851564E+03  0.7546771E-02  0.1162904E+00
         -2   -1    0    0    0  501 -0.00000000000E+00  0.00000000000E+00  0.34589422607E+02  0.34589422607E+02  0.00000000000E+00 0. -1.
          2   -1    0    0  502    0  0.00000000000E+00 -0.00000000000E+00 -0.11385897862E+04  0.11385897862E+04  0.00000000000E+00 0.  1.
          6    1    1    2  502    0  0.55707242518E+01 -0.65748324922E+02 -0.76309443873E+03  0.78523626866E+03  0.17300000000E+03 0. -1.
         -6    1    1    2    0  501 -0.55707242518E+01  0.65748324922E+02 -0.34090592481E+03  0.38794294009E+03  0.17300000000E+03 0. -1.
<mgrwt>
<rscale>  2 0.18515635E+03</rscale>
<asrwt>0</asrwt>
<pdfrwt beam="1">  1        2 0.17516767E+00 0.18515635E+03</pdfrwt>
<pdfrwt beam="2">  1       -2 0.53214493E-02 0.18515635E+03</pdfrwt>
<totfact> 0.38262876E+03</totfact>
</mgrwt>
</event>
<event>
 4    3  0.7748294E-001  0.2106479E+03  0.7546771E-02  0.1141054E+00
         -1   -1    0    0    0  501 -0.00000000000E+00  0.00000000000E+00  0.28229973201E+03  0.28229973201E+03  0.00000000000E+00 0. -1.
          1   -1    0    0  502    0  0.00000000000E+00 -0.00000000000E+00 -0.24949040524E+03  0.24949040524E+03  0.00000000000E+00 0.  1.
          6    1    1    2  502    0 -0.94444239338E+02  0.74322437407E+02  0.17813933382E+03  0.27587345160E+03  0.17300000000E+03 0. -1.
         -6    1    1    2    0  501  0.94444239338E+02 -0.74322437407E+02 -0.14533000705E+03  0.25591668565E+03  0.17300000000E+03 0.  1.
<mgrwt>
<rscale>  2 0.21064790E+03</rscale>
<asrwt>0</asrwt>
<pdfrwt beam="1">  1        1 0.38383139E-01 0.21064790E+03</pdfrwt>
<pdfrwt beam="2">  1       -1 0.43430728E-01 0.21064790E+03</pdfrwt>
<totfact> 0.59176715E+02</totfact>
</mgrwt>
</event>
<event>
 4    3  0.7748294E-001  0.1745250E+03  0.7546771E-02  0.1173210E+00
          2   -1    0    0  502    0  0.00000000000E+00  0.00000000000E+00  0.70109128982E+03  0.70109128982E+03  0.00000000000E+00 0. -1.
         -2   -1    0    0    0  501 -0.00000000000E+00 -0.00000000000E+00 -0.57536117882E+02  0.57536117882E+02  0.00000000000E+00 0.  1.
          6    1    1    2  502    0 -0.22926657805E+02 -0.20823383179E+01  0.50949291263E+03  0.53855547141E+03  0.17300000000E+03 0. -1.
         -6    1    1    2    0  501  0.22926657805E+02  0.20823383179E+01  0.13406225931E+03  0.22007193629E+03  0.17300000000E+03 0.  1.
<mgrwt>
<rscale>  2 0.17452498E+03</rscale>
<asrwt>0</asrwt>
<pdfrwt beam="1">  1        2 0.10786019E+00 0.17452498E+03</pdfrwt>
<pdfrwt beam="2">  1       -2 0.88517109E-02 0.17452498E+03</pdfrwt>
<totfact> 0.33233312E+03</totfact>
</mgrwt>
</event>
<event>
 4    3  0.7748294E-001  0.2191296E+03  0.7546771E-02  0.1134534E+00
          2   -1    0    0  502    0  0.00000000000E+00  0.00000000000E+00  0.25341368952E+03  0.25341368952E+03  0.00000000000E+00 0.  1.
         -2   -1    0    0    0  501 -0.00000000000E+00 -0.00000000000E+00 -0.20583121652E+03  0.20583121652E+03  0.00000000000E+00 0. -1.
          6    1    1    2  502    0  0.13343682166E+03 -0.16834427037E+02  0.88503052426E+02  0.23632725953E+03  0.17300000000E+03 0.  1.
         -6    1    1    2    0  501 -0.13343682166E+03  0.16834427037E+02 -0.40920579426E+02  0.22291764652E+03  0.17300000000E+03 0. -1.
<mgrwt>
<rscale>  2 0.21912960E+03</rscale>
<asrwt>0</asrwt>
<pdfrwt beam="1">  1        2 0.38986721E-01 0.21912960E+03</pdfrwt>
<pdfrwt beam="2">  1       -2 0.31666341E-01 0.21912960E+03</pdfrwt>
<totfact> 0.12119316E+03</totfact>
</mgrwt>
</event>
<event>
 4    3  0.7748294E-001  0.1971763E+03  0.7546771E-02  0.1152143E+00
          2   -1    0    0  502    0  0.00000000000E+00  0.00000000000E+00  0.27085004147E+04  0.27085004147E+04  0.00000000000E+00 0.  1.
         -2   -1    0    0    0  501 -0.00000000000E+00 -0.00000000000E+00 -0.14424976050E+02  0.14424976050E+02  0.00000000000E+00 0. -1.
          6    1    1    2  502    0  0.48876956729E+02  0.80997227900E+02  0.14423656236E+04  0.14557805810E+04  0.17300000000E+03 0.  1.
         -6    1    1    2    0  501 -0.48876956729E+02 -0.80997227900E+02  0.12517098151E+04  0.12671448098E+04  0.17300000000E+03 0. -1.
<mgrwt>
<rscale>  2 0.19717634E+03</rscale>
<asrwt>0</asrwt>
<pdfrwt beam="1">  1        2 0.41669197E+00 0.19717634E+03</pdfrwt>
<pdfrwt beam="2">  1       -2 0.22192292E-02 0.19717634E+03</pdfrwt>
<totfact> 0.20535223E+03</totfact>
</mgrwt>
</event>
<event>
 4    3  0.7748294E-001  0.2346093E+03  0.7546771E-02  0.1123437E+00
          3   -1    0    0  502    0  0.00000000000E+00  0.00000000000E+00  0.56407657137E+02  0.56407657137E+02  0.00000000000E+00 0. -1.
         -3   -1    0    0    0  501 -0.00000000000E+00 -0.00000000000E+00 -0.10651984987E+04  0.10651984987E+04  0.00000000000E+00 0.  1.
          6    1    1    2  502    0  0.12325361671E+03  0.99604663398E+02 -0.34191337155E+03  0.41466407687E+03  0.17300000000E+03 0. -1.
         -6    1    1    2    0  501 -0.12325361671E+03 -0.99604663398E+02 -0.66687747004E+03  0.70694207900E+03  0.17300000000E+03 0.  1.
<mgrwt>
<rscale>  2 0.23460934E+03</rscale>
<asrwt>0</asrwt>
<pdfrwt beam="1">  1        3 0.86781016E-02 0.23460934E+03</pdfrwt>
<pdfrwt beam="2">  1       -3 0.16387668E+00 0.23460934E+03</pdfrwt>
<totfact> 0.63008338E+01</totfact>
</mgrwt>
</event>
<event>
 4    3  0.7748294E-001  0.1749532E+03  0.7546771E-02  0.1172779E+00
          2   -1    0    0  502    0  0.00000000000E+00  0.00000000000E+00  0.29010267219E+03  0.29010267219E+03  0.00000000000E+00 0. -1.
         -2   -1    0    0    0  501 -0.00000000000E+00 -0.00000000000E+00 -0.10959563878E+03  0.10959563878E+03  0.00000000000E+00 0.  1.
          6    1    1    2  502    0  0.15428502106E+02 -0.21013571747E+02  0.51664972560E+02  0.18242225266E+03  0.17300000000E+03 0.  1.
         -6    1    1    2    0  501 -0.15428502106E+02  0.21013571747E+02  0.12884206085E+03  0.21727605832E+03  0.17300000000E+03 0.  1.
<mgrwt>
<rscale>  2 0.17495316E+03</rscale>
<asrwt>0</asrwt>
<pdfrwt beam="1">  1        2 0.44631180E-01 0.17495316E+03</pdfrwt>
<pdfrwt beam="2">  1       -2 0.16860868E-01 0.17495316E+03</pdfrwt>
<totfact> 0.31227016E+03</totfact>
</mgrwt>
</event>
<event>
 4    3  0.7748294E-001  0.1949338E+03  0.7546771E-02  0.1154085E+00
          2   -1    0    0  502    0  0.00000000000E+00  0.00000000000E+00  0.11787948160E+04  0.11787948160E+04  0.00000000000E+00 0. -1.
         -2   -1    0    0    0  501 -0.00000000000E+00 -0.00000000000E+00 -0.32586968519E+02  0.32586968519E+02  0.00000000000E+00 0.  1.
          6    1    1    2  502    0  0.88066097298E+02 -0.17735666078E+02  0.51021225844E+03  0.54618288147E+03  0.17300000000E+03 0.  1.
         -6    1    1    2    0  501 -0.88066097298E+02  0.17735666078E+02  0.63599558907E+03  0.66519890308E+03  0.17300000000E+03 0. -1.
<mgrwt>
<rscale>  2 0.19493381E+03</rscale>
<asrwt>0</asrwt>
<pdfrwt beam="1">  1        2 0.18135302E+00 0.19493381E+03</pdfrwt>
<pdfrwt beam="2">  1       -2 0.50133807E-02 0.19493381E+03</pdfrwt>
<totfact> 0.39779241E+03</totfact>
</mgrwt>
</event>
<event>
 4    3  0.7748294E-001  0.1789447E+03  0.7546771E-02  0.1168828E+00
          1   -1    0    0  502    0  0.00000000000E+00  0.00000000000E+00  0.95551862847E+03  0.95551862847E+03  0.00000000000E+00 0.  1.
         -1   -1    0    0    0  501 -0.00000000000E+00 -0.00000000000E+00 -0.33882799225E+02  0.33882799225E+02  0.00000000000E+00 0. -1.
          6    1    1    2  502    0 -0.22087713226E+02 -0.40054175844E+02  0.40905654462E+03  0.44648455827E+03  0.17300000000E+03 0. -1.
         -6    1    1    2    0  501  0.22087713226E+02  0.40054175844E+02  0.51257928462E+03  0.54291686942E+03  0.17300000000E+03 0.  1.
<mgrwt>
<rscale>  2 0.17894470E+03</rscale>
<asrwt>0</asrwt>
<pdfrwt beam="1">  1        1 0.14700285E+00 0.17894470E+03</pdfrwt>
<pdfrwt beam="2">  1       -1 0.52127391E-02 0.17894470E+03</pdfrwt>
<totfact> 0.28325691E+03</totfact>
</mgrwt>
</event>
<event>
 4    3  0.7748294E-001  0.5512020E+03  0.7546771E-02  0.1001216E+00
          2   -1    0    0  502    0  0.00000000000E+00  0.00000000000E+00  0.69705632776E+03  0.69705632776E+03  0.00000000000E+00 0.  1.
         -2   -1    0    0    0  501 -0.00000000000E+00 -0.00000000000E+00 -0.45165827177E+03  0.45165827177E+03  0.00000000000E+00 0. -1.
          6    1    1    2  502    0  0.15891632681E+03 -0.49863834618E+03  0.23009566210E+03  0.59730027032E+03  0.17300000000E+03 0. -1.
         -6    1    1    2    0  501 -0.15891632681E+03  0.49863834618E+03  0.15302393890E+02  0.55141432922E+03  0.17300000000E+03 0.  1.
<mgrwt>
<rscale>  2 0.55120196E+03</rscale>
<asrwt>0</asrwt>
<pdfrwt beam="1">  1        2 0.10723944E+00 0.55120196E+03</pdfrwt>
<pdfrwt beam="2">  1       -2 0.69485887E-01 0.55120196E+03</pdfrwt>
<totfact> 0.79982834E+01</totfact>
</mgrwt>
</event>
<event>
 4    3  0.7748294E-001  0.1987424E+03  0.7546771E-02  0.1150804E+00
         -2   -1    0    0    0  501 -0.00000000000E+00  0.00000000000E+00  0.68003565274E+03  0.68003565274E+03  0.00000000000E+00 0. -1.
          2   -1    0    0  502    0  0.00000000000E+00 -0.00000000000E+00 -0.62224589433E+02  0.62224589433E+02  0.00000000000E+00 0.  1.
          6    1    1    2  502    0 -0.95297753126E+02  0.22087869173E+02  0.40465288672E+03  0.45082423898E+03  0.17300000000E+03 0. -1.
         -6    1    1    2    0  501  0.95297753126E+02 -0.22087869173E+02  0.21315817659E+03  0.29143600320E+03  0.17300000000E+03 0.  1.
<mgrwt>
<rscale>  2 0.19874239E+03</rscale>
<asrwt>0</asrwt>
<pdfrwt beam="1">  1        2 0.95730142E-02 0.19874239E+03</pdfrwt>
<pdfrwt beam="2">  1       -2 0.10462086E+00 0.19874239E+03</pdfrwt>
<totfact> 0.51904392E+02</totfact>
</mgrwt>
</event>
<event>
 4    3  0.7748294E-001  0.1963132E+03  0.7546771E-02  0.1152887E+00
          2   -1    0    0  502    0  0.00000000000E+00  0.00000000000E+00  0.32247707106E+03  0.32247707106E+03  0.00000000000E+00 0. -1.
         -2   -1    0    0    0  501 -0.00000000000E+00 -0.00000000000E+00 -0.12141011661E+03  0.12141011661E+03  0.00000000000E+00 0.  1.
          6    1    1    2  502    0 -0.36324371082E+01 -0.92718328760E+02  0.72760023085E+02  0.20936309141E+03  0.17300000000E+03 0. -1.
         -6    1    1    2    0  501  0.36324371082E+01  0.92718328760E+02  0.12830693137E+03  0.23452409626E+03  0.17300000000E+03 0.  1.
<mgrwt>
<rscale>  2 0.19631323E+03</rscale>
<asrwt>0</asrwt>
<pdfrwt beam="1">  1        2 0.49611857E-01 0.19631323E+03</pdfrwt>
<pdfrwt beam="2">  1       -2 0.18678480E-01 0.19631323E+03</pdfrwt>
<totfact> 0.23585104E+03</totfact>
</mgrwt>
</event>
<event>
 4    3  0.7748294E-001  0.2525811E+03  0.7546771E-02  0.1111684E+00
         -2   -1    0    0    0  501 -0.00000000000E+00  0.00000000000E+00  0.47046093407E+02  0.47046093407E+02  0.00000000000E+00 0.  1.
          2   -1    0    0  502    0  0.00000000000E+00 -0.00000000000E+00 -0.14250958498E+04  0.14250958498E+04  0.00000000000E+00 0. -1.
          6    1    1    2  502    0 -0.14773902975E+03 -0.10973334945E+03 -0.52701501888E+03  0.58441599826E+03  0.17300000000E+03 0. -1.
         -6    1    1    2    0  501  0.14773902975E+03  0.10973334945E+03 -0.85103473753E+03  0.88772594497E+03  0.17300000000E+03 0.  1.
<mgrwt>
<rscale>  2 0.25258113E+03</rscale>
<asrwt>0</asrwt>
<pdfrwt beam="1">  1        2 0.21924548E+00 0.25258113E+03</pdfrwt>
<pdfrwt beam="2">  1       -2 0.72378617E-02 0.25258113E+03</pdfrwt>
<totfact> 0.16584734E+03</totfact>
</mgrwt>
</event>
<event>
 4    3  0.7748294E-001  0.1979964E+03  0.7546771E-02  0.1151441E+00
         -1   -1    0    0    0  501 -0.00000000000E+00  0.00000000000E+00  0.15299498293E+03  0.15299498293E+03  0.00000000000E+00 0.  1.
          1   -1    0    0  502    0  0.00000000000E+00 -0.00000000000E+00 -0.25744541092E+03  0.25744541092E+03  0.00000000000E+00 0. -1.
          6    1    1    2  502    0  0.15709783999E+02  0.95009413017E+02 -0.66300003730E+02  0.20880200279E+03  0.17300000000E+03 0. -1.
         -6    1    1    2    0  501 -0.15709783999E+02 -0.95009413017E+02 -0.38150424259E+02  0.20163839105E+03  0.17300000000E+03 0. -1.
<mgrwt>
<rscale>  2 0.19799643E+03</rscale>
<asrwt>0</asrwt>
<pdfrwt beam="1">  1        1 0.39606986E-01 0.19799643E+03</pdfrwt>
<pdfrwt beam="2">  1       -1 0.23537690E-01 0.19799643E+03</pdfrwt>
<totfact> 0.16253327E+03</totfact>
</mgrwt>
</event>
<event>
 4    3  0.7748294E-001  0.1895309E+03  0.7546771E-02  0.1158885E+00
         -2   -1    0    0    0  501 -0.00000000000E+00  0.00000000000E+00  0.14643877025E+03  0.14643877025E+03  0.00000000000E+00 0.  1.
          2   -1    0    0  502    0  0.00000000000E+00 -0.00000000000E+00 -0.38887645739E+03  0.38887645739E+03  0.00000000000E+00 0. -1.
          6    1    1    2  502    0  0.59351264646E+02 -0.49702839777E+02 -0.28385236974E+03  0.34131233893E+03  0.17300000000E+03 0. -1.
         -6    1    1    2    0  501 -0.59351264646E+02  0.49702839777E+02  0.41414682597E+02  0.19400288872E+03  0.17300000000E+03 0.  1.
<mgrwt>
<rscale>  2 0.18953085E+03</rscale>
<asrwt>0</asrwt>
<pdfrwt beam="1">  1        2 0.59827147E-01 0.18953085E+03</pdfrwt>
<pdfrwt beam="2">  1       -2 0.22529042E-01 0.18953085E+03</pdfrwt>
<totfact> 0.13979017E+03</totfact>
</mgrwt>
</event>
<event>
 4    3  0.7748294E-001  0.1748094E+03  0.7546771E-02  0.1172923E+00
         -1   -1    0    0    0  501 -0.00000000000E+00  0.00000000000E+00  0.13103401437E+03  0.13103401437E+03  0.00000000000E+00 0.  1.
          1   -1    0    0  502    0  0.00000000000E+00 -0.00000000000E+00 -0.25100256386E+03  0.25100256386E+03  0.00000000000E+00 0. -1.
          6    1    1    2  502    0  0.18039590695E+02 -0.17432776133E+02 -0.11084303320E+03  0.20698914591E+03  0.17300000000E+03 0. -1.
         -6    1    1    2    0  501 -0.18039590695E+02  0.17432776133E+02 -0.91255162871E+01  0.17504743233E+03  0.17300000000E+03 0.  1.
<mgrwt>
<rscale>  2 0.17480941E+03</rscale>
<asrwt>0</asrwt>
<pdfrwt beam="1">  1        1 0.38615778E-01 0.17480941E+03</pdfrwt>
<pdfrwt beam="2">  1       -1 0.20159080E-01 0.17480941E+03</pdfrwt>
<totfact> 0.21525495E+03</totfact>
</mgrwt>
</event>
<event>
 4    3  0.7748294E-001  0.1804818E+03  0.7546771E-02  0.1167338E+00
         -2   -1    0    0    0  501 -0.00000000000E+00  0.00000000000E+00  0.24224119019E+02  0.24224119019E+02  0.00000000000E+00 0. -1.
          2   -1    0    0  502    0  0.00000000000E+00 -0.00000000000E+00 -0.14079157450E+04  0.14079157450E+04  0.00000000000E+00 0.  1.
          6    1    1    2  502    0 -0.87351625581E+01 -0.50679124566E+02 -0.84360328155E+03  0.86269355705E+03  0.17300000000E+03 0.  1.
         -6    1    1    2    0  501  0.87351625581E+01  0.50679124566E+02 -0.54008834444E+03  0.56944630698E+03  0.17300000000E+03 0. -1.
<mgrwt>
<rscale>  2 0.18048179E+03</rscale>
<asrwt>0</asrwt>
<pdfrwt beam="1">  1        2 0.21660241E+00 0.18048179E+03</pdfrwt>
<pdfrwt beam="2">  1       -2 0.37267878E-02 0.18048179E+03</pdfrwt>
<totfact> 0.46439326E+03</totfact>
</mgrwt>
</event>
<event>
 4    3  0.7748294E-001  0.1827730E+03  0.7546771E-02  0.1165146E+00
          2   -1    0    0  502    0  0.00000000000E+00  0.00000000000E+00  0.62154140630E+03  0.62154140630E+03  0.00000000000E+00 0.  1.
         -2   -1    0    0    0  501 -0.00000000000E+00 -0.00000000000E+00 -0.60811297652E+02  0.60811297652E+02  0.00000000000E+00 0. -1.
          6    1    1    2  502    0  0.53891982550E+02  0.23929682196E+02  0.39664954620E+03  0.43673428761E+03  0.17300000000E+03 0.  1.
         -6    1    1    2    0  501 -0.53891982550E+02 -0.23929682196E+02  0.16408056244E+03  0.24561841634E+03  0.17300000000E+03 0.  1.
<mgrwt>
<rscale>  2 0.18277302E+03</rscale>
<asrwt>0</asrwt>
<pdfrwt beam="1">  1        2 0.95621750E-01 0.18277302E+03</pdfrwt>
<pdfrwt beam="2">  1       -2 0.93555847E-02 0.18277302E+03</pdfrwt>
<totfact> 0.35172365E+03</totfact>
</mgrwt>
</event>
<event>
 4    3  0.7748294E-001  0.1955449E+03  0.7546771E-02  0.1153553E+00
         -1   -1    0    0    0  501 -0.00000000000E+00  0.00000000000E+00  0.34065910181E+03  0.34065910181E+03  0.00000000000E+00 0.  1.
          1   -1    0    0  502    0  0.00000000000E+00 -0.00000000000E+00 -0.11524931129E+03  0.11524931129E+03  0.00000000000E+00 0. -1.
          6    1    1    2  502    0  0.87173930637E+02  0.26636982072E+02  0.14949964508E+03  0.24614623067E+03  0.17300000000E+03 0.  1.
         -6    1    1    2    0  501 -0.87173930637E+02 -0.26636982072E+02  0.75910145448E+02  0.20976218243E+03  0.17300000000E+03 0. -1.
<mgrwt>
<rscale>  2 0.19554494E+03</rscale>
<asrwt>0</asrwt>
<pdfrwt beam="1">  1        1 0.17730663E-01 0.19554494E+03</pdfrwt>
<pdfrwt beam="2">  1       -1 0.52409092E-01 0.19554494E+03</pdfrwt>
<totfact> 0.11177586E+03</totfact>
</mgrwt>
</event>
<event>
 4    3  0.7748294E-001  0.2782039E+03  0.7546771E-02  0.1096674E+00
          1   -1    0    0  502    0  0.00000000000E+00  0.00000000000E+00  0.56974563596E+03  0.56974563596E+03  0.00000000000E+00 0. -1.
         -1   -1    0    0    0  501 -0.00000000000E+00 -0.00000000000E+00 -0.15380478027E+03  0.15380478027E+03  0.00000000000E+00 0.  1.
          6    1    1    2  502    0  0.16116349866E+03 -0.14661083882E+03  0.84347877022E+02  0.29070943521E+03  0.17300000000E+03 0.  1.
         -6    1    1    2    0  501 -0.16116349866E+03  0.14661083882E+03  0.33159297867E+03  0.43284098103E+03  0.17300000000E+03 0. -1.
<mgrwt>
<rscale>  2 0.27820390E+03</rscale>
<asrwt>0</asrwt>
<pdfrwt beam="1">  1        1 0.87653173E-01 0.27820390E+03</pdfrwt>
<pdfrwt beam="2">  1       -1 0.23662274E-01 0.27820390E+03</pdfrwt>
<totfact> 0.57962435E+02</totfact>
</mgrwt>
</event>
<event>
 4    3  0.7748294E-001  0.1848661E+03  0.7546771E-02  0.1163175E+00
         -2   -1    0    0    0  501 -0.00000000000E+00  0.00000000000E+00  0.41473977932E+03  0.41473977932E+03  0.00000000000E+00 0. -1.
          2   -1    0    0  502    0  0.00000000000E+00 -0.00000000000E+00 -0.84231953591E+02  0.84231953591E+02  0.00000000000E+00 0.  1.
          6    1    1    2  502    0  0.37609318510E+01 -0.65056222607E+02  0.20202510313E+03  0.27384228856E+03  0.17300000000E+03 0. -1.
         -6    1    1    2    0  501 -0.37609318510E+01  0.65056222607E+02  0.12848272260E+03  0.22512944436E+03  0.17300000000E+03 0.  1.
<mgrwt>
<rscale>  2 0.18486605E+03</rscale>
<asrwt>0</asrwt>
<pdfrwt beam="1">  1        2 0.12958762E-01 0.18486605E+03</pdfrwt>
<pdfrwt beam="2">  1       -2 0.63806119E-01 0.18486605E+03</pdfrwt>
<totfact> 0.10682914E+03</totfact>
</mgrwt>
</event>
<event>
 4    3  0.7748294E-001  0.1905879E+03  0.7546771E-02  0.1157932E+00
         -2   -1    0    0    0  501 -0.00000000000E+00  0.00000000000E+00  0.49135672958E+02  0.49135672958E+02  0.00000000000E+00 0. -1.
          2   -1    0    0  502    0  0.00000000000E+00 -0.00000000000E+00 -0.85225081552E+03  0.85225081552E+03  0.00000000000E+00 0.  1.
          6    1    1    2  502    0  0.75125994423E+02 -0.27401405267E+02 -0.56566569305E+03  0.59690989969E+03  0.17300000000E+03 0. -1.
         -6    1    1    2    0  501 -0.75125994423E+02  0.27401405267E+02 -0.23744944951E+03  0.30447658879E+03  0.17300000000E+03 0. -1.
<mgrwt>
<rscale>  2 0.19058791E+03</rscale>
<asrwt>0</asrwt>
<pdfrwt beam="1">  1        2 0.13111550E+00 0.19058791E+03</pdfrwt>
<pdfrwt beam="2">  1       -2 0.75593350E-02 0.19058791E+03</pdfrwt>
<totfact> 0.33415484E+03</totfact>
</mgrwt>
</event>
<event>
 4    3  0.7748294E-001  0.1778680E+03  0.7546771E-02  0.1169882E+00
          2   -1    0    0  502    0  0.00000000000E+00  0.00000000000E+00  0.10052356231E+04  0.10052356231E+04  0.00000000000E+00 0.  1.
         -2   -1    0    0    0  501 -0.00000000000E+00 -0.00000000000E+00 -0.34488303874E+02  0.34488303874E+02  0.00000000000E+00 0. -1.
          6    1    1    2  502    0 -0.30532308260E+02  0.27853547870E+02  0.33163942578E+03  0.37632665426E+03  0.17300000000E+03 0. -1.
         -6    1    1    2    0  501  0.30532308260E+02 -0.27853547870E+02  0.63910789343E+03  0.66339727270E+03  0.17300000000E+03 0.  1.
<mgrwt>
<rscale>  2 0.17786805E+03</rscale>
<asrwt>0</asrwt>
<pdfrwt beam="1">  1        2 0.15465161E+00 0.17786805E+03</pdfrwt>
<pdfrwt beam="2">  1       -2 0.53058937E-02 0.17786805E+03</pdfrwt>
<totfact> 0.45969599E+03</totfact>
</mgrwt>
</event>
<event>
 4    3  0.7748294E-001  0.1759111E+03  0.7546771E-02  0.1171820E+00
          1   -1    0    0  502    0  0.00000000000E+00  0.00000000000E+00  0.17028346620E+03  0.17028346620E+03  0.00000000000E+00 0. -1.
         -1   -1    0    0    0  501 -0.00000000000E+00 -0.00000000000E+00 -0.19257655140E+03  0.19257655140E+03  0.00000000000E+00 0.  1.
          6    1    1    2  502    0 -0.92567650106E+01 -0.30496425716E+02 -0.54214910411E+02  0.18407600656E+03  0.17300000000E+03 0.  1.
         -6    1    1    2    0  501  0.92567650106E+01  0.30496425716E+02  0.31921825206E+02  0.17878401104E+03  0.17300000000E+03 0. -1.
<mgrwt>
<rscale>  2 0.17591111E+03</rscale>
<asrwt>0</asrwt>
<pdfrwt beam="1">  1        1 0.26197456E-01 0.17591111E+03</pdfrwt>
<pdfrwt beam="2">  1       -1 0.29627162E-01 0.17591111E+03</pdfrwt>
<totfact> 0.18536705E+03</totfact>
</mgrwt>
</event>
<event>
 4    3  0.7748294E-001  0.1939479E+03  0.7546771E-02  0.1154948E+00
         -1   -1    0    0    0  501 -0.00000000000E+00  0.00000000000E+00  0.36025060411E+02  0.36025060411E+02  0.00000000000E+00 0.  1.
          1   -1    0    0  502    0  0.00000000000E+00 -0.00000000000E+00 -0.14950161258E+04  0.14950161258E+04  0.00000000000E+00 0. -1.
          6    1    1    2  502    0  0.22006442348E+02 -0.84867646779E+02 -0.11498876972E+04  0.11661292883E+04  0.17300000000E+03 0. -1.
         -6    1    1    2    0  501 -0.22006442348E+02  0.84867646779E+02 -0.30910336819E+03  0.36491189786E+03  0.17300000000E+03 0.  1.
<mgrwt>
<rscale>  2 0.19394793E+03</rscale>
<asrwt>0</asrwt>
<pdfrwt beam="1">  1        1 0.23000252E+00 0.19394793E+03</pdfrwt>
<pdfrwt beam="2">  1       -1 0.55423159E-02 0.19394793E+03</pdfrwt>
<totfact> 0.10922382E+03</totfact>
</mgrwt>
</event>
<event>
 4    3  0.7748294E-001  0.2190806E+03  0.7546771E-02  0.1134570E+00
          1   -1    0    0  502    0  0.00000000000E+00  0.00000000000E+00  0.21733716746E+04  0.21733716746E+04  0.00000000000E+00 0. -1.
         -1   -1    0    0    0  501 -0.00000000000E+00 -0.00000000000E+00 -0.23000811682E+02  0.23000811682E+02  0.00000000000E+00 0.  1.
          6    1    1    2  502    0  0.13014885493E+03 -0.33594662221E+02  0.85591017308E+03  0.88350356544E+03  0.17300000000E+03 0.  1.
         -6    1    1    2    0  501 -0.13014885493E+03  0.33594662221E+02  0.12944606898E+04  0.13128689208E+04  0.17300000000E+03 0. -1.
<mgrwt>
<rscale>  2 0.21908064E+03</rscale>
<asrwt>0</asrwt>
<pdfrwt beam="1">  1        1 0.33436471E+00 0.21908064E+03</pdfrwt>
<pdfrwt beam="2">  1       -1 0.35385881E-02 0.21908064E+03</pdfrwt>
<totfact> 0.77291912E+02</totfact>
</mgrwt>
</event>
<event>
 4    3  0.7748294E-001  0.2004869E+03  0.7546771E-02  0.1149329E+00
         -2   -1    0    0    0  501 -0.00000000000E+00  0.00000000000E+00  0.10976269347E+03  0.10976269347E+03  0.00000000000E+00 0. -1.
          2   -1    0    0  502    0  0.00000000000E+00 -0.00000000000E+00 -0.46067334228E+03  0.46067334228E+03  0.00000000000E+00 0.  1.
          6    1    1    2  502    0  0.22950805076E+02 -0.98687771933E+02 -0.30461792647E+03  0.36467395974E+03  0.17300000000E+03 0.  1.
         -6    1    1    2    0  501 -0.22950805076E+02  0.98687771933E+02 -0.46292722335E+02  0.20576207601E+03  0.17300000000E+03 0. -1.
<mgrwt>
<rscale>  2 0.20048695E+03</rscale>
<asrwt>0</asrwt>
<pdfrwt beam="1">  1        2 0.70872821E-01 0.20048695E+03</pdfrwt>
<pdfrwt beam="2">  1       -2 0.16886568E-01 0.20048695E+03</pdfrwt>
<totfact> 0.19002457E+03</totfact>
</mgrwt>
</event>
<event>
 4    3  0.7748294E-001  0.2042446E+03  0.7546771E-02  0.1146206E+00
         -1   -1    0    0    0  501 -0.00000000000E+00  0.00000000000E+00  0.68567176337E+02  0.68567176337E+02  0.00000000000E+00 0.  1.
          1   -1    0    0  502    0  0.00000000000E+00 -0.00000000000E+00 -0.60839571261E+03  0.60839571261E+03  0.00000000000E+00 0. -1.
          6    1    1    2  502    0 -0.32689371271E+02  0.10352894278E+03 -0.27053240092E+03  0.33897436029E+03  0.17300000000E+03 0. -1.
         -6    1    1    2    0  501  0.32689371271E+02 -0.10352894278E+03 -0.26929613535E+03  0.33798852866E+03  0.17300000000E+03 0. -1.
<mgrwt>
<rscale>  2 0.20424455E+03</rscale>
<asrwt>0</asrwt>
<pdfrwt beam="1">  1        1 0.93599339E-01 0.20424455E+03</pdfrwt>
<pdfrwt beam="2">  1       -1 0.10548796E-01 0.20424455E+03</pdfrwt>
<totfact> 0.19228797E+03</totfact>
</mgrwt>
</event>
<event>
 4    3  0.7748294E-001  0.2513926E+03  0.7546771E-02  0.1112428E+00
          2   -1    0    0  502    0  0.00000000000E+00  0.00000000000E+00  0.42637069523E+03  0.42637069523E+03  0.00000000000E+00 0. -1.
         -2   -1    0    0    0  501 -0.00000000000E+00 -0.00000000000E+00 -0.14830680834E+03  0.14830680834E+03  0.00000000000E+00 0.  1.
          6    1    1    2  502    0 -0.12172551569E+03 -0.13583856957E+03  0.14583622327E+03  0.29063107571E+03  0.17300000000E+03 0. -1.
         -6    1    1    2    0  501  0.12172551569E+03  0.13583856957E+03  0.13222766362E+03  0.28404642786E+03  0.17300000000E+03 0.  1.
<mgrwt>
<rscale>  2 0.25139256E+03</rscale>
<asrwt>0</asrwt>
<pdfrwt beam="1">  1        2 0.65595491E-01 0.25139256E+03</pdfrwt>
<pdfrwt beam="2">  1       -2 0.22816432E-01 0.25139256E+03</pdfrwt>
<totfact> 0.12425925E+03</totfact>
</mgrwt>
</event>
<event>
 4    3  0.7748294E-001  0.2678512E+03  0.7546771E-02  0.1102516E+00
         -1   -1    0    0    0  501 -0.00000000000E+00  0.00000000000E+00  0.11004559428E+04  0.11004559428E+04  0.00000000000E+00 0. -1.
          1   -1    0    0  502    0  0.00000000000E+00 -0.00000000000E+00 -0.78685283383E+02  0.78685283383E+02  0.00000000000E+00 0.  1.
          6    1    1    2  502    0 -0.37199344213E+00  0.20448747226E+03  0.75500289516E+03  0.80110775579E+03  0.17300000000E+03 0. -1.
         -6    1    1    2    0  501  0.37199344213E+00 -0.20448747226E+03  0.26676776427E+03  0.37803347041E+03  0.17300000000E+03 0.  1.
<mgrwt>
<rscale>  2 0.26785120E+03</rscale>
<asrwt>0</asrwt>
<pdfrwt beam="1">  1        1 0.12105429E-01 0.26785120E+03</pdfrwt>
<pdfrwt beam="2">  1       -1 0.16930090E+00 0.26785120E+03</pdfrwt>
<totfact> 0.13540288E+02</totfact>
</mgrwt>
</event>
<event>
 4    3  0.7748294E-001  0.2224508E+03  0.7546771E-02  0.1132069E+00
         -2   -1    0    0    0  501 -0.00000000000E+00  0.00000000000E+00  0.44609939455E+02  0.44609939455E+02  0.00000000000E+00 0. -1.
          2   -1    0    0  502    0  0.00000000000E+00 -0.00000000000E+00 -0.11104096511E+04  0.11104096511E+04  0.00000000000E+00 0.  1.
          6    1    1    2  502    0 -0.65040568603E+02  0.12379443850E+03 -0.51437504174E+03  0.56041593672E+03  0.17300000000E+03 0.  1.
         -6    1    1    2    0  501  0.65040568603E+02 -0.12379443850E+03 -0.55142466989E+03  0.59460365382E+03  0.17300000000E+03 0. -1.
<mgrwt>
<rscale>  2 0.22245076E+03</rscale>
<asrwt>0</asrwt>
<pdfrwt beam="1">  1        2 0.17083225E+00 0.22245076E+03</pdfrwt>
<pdfrwt beam="2">  1       -2 0.68630679E-02 0.22245076E+03</pdfrwt>
<totfact> 0.26984647E+03</totfact>
</mgrwt>
</event>
<event>
 4    3  0.7748294E-001  0.2196063E+03  0.7546771E-02  0.1134177E+00
         -1   -1    0    0    0  501 -0.00000000000E+00  0.00000000000E+00  0.19487476816E+02  0.19487476816E+02  0.00000000000E+00 0.  1.
          1   -1    0    0  502    0  0.00000000000E+00 -0.00000000000E+00 -0.25459696516E+04  0.25459696516E+04  0.00000000000E+00 0. -1.
          6    1    1    2  502    0 -0.13489128383E+03  0.10113589944E+02 -0.14777570351E+04  0.14939855414E+04  0.17300000000E+03 0. -1.
         -6    1    1    2    0  501  0.13489128383E+03 -0.10113589944E+02 -0.10487251397E+04  0.10714715870E+04  0.17300000000E+03 0. -1.
<mgrwt>
<rscale>  2 0.21960634E+03</rscale>
<asrwt>0</asrwt>
<pdfrwt beam="1">  1        1 0.39168747E+00 0.21960634E+03</pdfrwt>
<pdfrwt beam="2">  1       -1 0.29980746E-02 0.21960634E+03</pdfrwt>
<totfact> 0.56262937E+02</totfact>
</mgrwt>
</event>
<event>
 4    3  0.7748294E-001  0.2724370E+03  0.7546771E-02  0.1099893E+00
         -2   -1    0    0    0  501 -0.00000000000E+00  0.00000000000E+00  0.78960598243E+02  0.78960598243E+02  0.00000000000E+00 0.  1.
          2   -1    0    0  502    0  0.00000000000E+00 -0.00000000000E+00 -0.95809674831E+03  0.95809674831E+03  0.00000000000E+00 0. -1.
          6    1    1    2  502    0 -0.20641630639E+03 -0.41051592042E+02 -0.51085764379E+03  0.57896239685E+03  0.17300000000E+03 0. -1.
         -6    1    1    2    0  501  0.20641630639E+03  0.41051592042E+02 -0.36827850628E+03  0.45809494970E+03  0.17300000000E+03 0.  1.
<mgrwt>
<rscale>  2 0.27243701E+03</rscale>
<asrwt>0</asrwt>
<pdfrwt beam="1">  1        2 0.14739950E+00 0.27243701E+03</pdfrwt>
<pdfrwt beam="2">  1       -2 0.12147784E-01 0.27243701E+03</pdfrwt>
<totfact> 0.13520863E+03</totfact>
</mgrwt>
</event>
<event>
 4    3  0.7748294E-001  0.2080585E+03  0.7546771E-02  0.1143113E+00
         -2   -1    0    0    0  501 -0.00000000000E+00  0.00000000000E+00  0.33610860062E+02  0.33610860062E+02  0.00000000000E+00 0.  1.
          2   -1    0    0  502    0  0.00000000000E+00 -0.00000000000E+00 -0.17444664197E+04  0.17444664197E+04  0.00000000000E+00 0. -1.
          6    1    1    2  502    0 -0.66005200207E+02  0.94882342620E+02 -0.40061955249E+03  0.45142482346E+03  0.17300000000E+03 0.  1.
         -6    1    1    2    0  501  0.66005200207E+02 -0.94882342620E+02 -0.13102360071E+04  0.13266524563E+04  0.17300000000E+03 0. -1.
<mgrwt>
<rscale>  2 0.20805851E+03</rscale>
<asrwt>0</asrwt>
<pdfrwt beam="1">  1        2 0.26837947E+00 0.20805851E+03</pdfrwt>
<pdfrwt beam="2">  1       -2 0.51709011E-02 0.20805851E+03</pdfrwt>
<totfact> 0.18885601E+03</totfact>
</mgrwt>
</event>
<event>
 4    3  0.7748294E-001  0.2299599E+03  0.7546771E-02  0.1126668E+00
         -3   -1    0    0    0  501 -0.00000000000E+00  0.00000000000E+00  0.32929194510E+03  0.32929194510E+03  0.00000000000E+00 0. -1.
          3   -1    0    0  502    0  0.00000000000E+00 -0.00000000000E+00 -0.20057999387E+03  0.20057999387E+03  0.00000000000E+00 0.  1.
          6    1    1    2  502    0 -0.77844776886E+02  0.12997204898E+03 -0.53938299711E+02  0.23620093772E+03  0.17300000000E+03 0.  1.
         -6    1    1    2    0  501  0.77844776886E+02 -0.12997204898E+03  0.18265025095E+03  0.29367100125E+03  0.17300000000E+03 0. -1.
<mgrwt>
<rscale>  2 0.22995987E+03</rscale>
<asrwt>0</asrwt>
<pdfrwt beam="1">  1        3 0.30858461E-01 0.22995987E+03</pdfrwt>
<pdfrwt beam="2">  1       -3 0.50660299E-01 0.22995987E+03</pdfrwt>
<totfact> 0.97966576E+01</totfact>
</mgrwt>
</event>
<event>
 4    3  0.7748294E-001  0.2029297E+03  0.7546771E-02  0.1147290E+00
         -4   -1    0    0    0  501 -0.00000000000E+00  0.00000000000E+00  0.10008943341E+03  0.10008943341E+03  0.00000000000E+00 0. -1.
          4   -1    0    0  502    0  0.00000000000E+00 -0.00000000000E+00 -0.42193610230E+03  0.42193610230E+03  0.00000000000E+00 0.  1.
          6    1    1    2  502    0 -0.36875416236E+02 -0.99456914045E+02 -0.20209695593E+03  0.28639771939E+03  0.17300000000E+03 0.  1.
         -6    1    1    2    0  501  0.36875416236E+02  0.99456914045E+02 -0.11974971296E+03  0.23562781633E+03  0.17300000000E+03 0. -1.
<mgrwt>
<rscale>  2 0.20292973E+03</rscale>
<asrwt>0</asrwt>
<pdfrwt beam="1">  1        4 0.64913246E-01 0.20292973E+03</pdfrwt>
<pdfrwt beam="2">  1       -4 0.15398374E-01 0.20292973E+03</pdfrwt>
<totfact> 0.14384800E+02</totfact>
</mgrwt>
</event>
<event>
 4    3  0.7748294E-001  0.2289577E+03  0.7546771E-02  0.1127376E+00
          2   -1    0    0  502    0  0.00000000000E+00  0.00000000000E+00  0.98125939830E+03  0.98125939830E+03  0.00000000000E+00 0.  1.
         -2   -1    0    0    0  501 -0.00000000000E+00 -0.00000000000E+00 -0.63606213638E+02  0.63606213638E+02  0.00000000000E+00 0. -1.
          6    1    1    2  502    0 -0.10907005927E+03 -0.10293849681E+03  0.66786574458E+03  0.70602143362E+03  0.17300000000E+03 0.  1.
         -6    1    1    2    0  501  0.10907005927E+03  0.10293849681E+03  0.24978744008E+03  0.33884417831E+03  0.17300000000E+03 0. -1.
<mgrwt>
<rscale>  2 0.22895766E+03</rscale>
<asrwt>0</asrwt>
<pdfrwt beam="1">  1        2 0.15096297E+00 0.22895766E+03</pdfrwt>
<pdfrwt beam="2">  1       -2 0.97855720E-02 0.22895766E+03</pdfrwt>
<totfact> 0.18502024E+03</totfact>
</mgrwt>
</event>
<event>
 4    3  0.7748294E-001  0.2218838E+03  0.7546771E-02  0.1132486E+00
          1   -1    0    0  502    0  0.00000000000E+00  0.00000000000E+00  0.18022170149E+04  0.18022170149E+04  0.00000000000E+00 0. -1.
         -1   -1    0    0    0  501 -0.00000000000E+00 -0.00000000000E+00 -0.27591332264E+02  0.27591332264E+02  0.00000000000E+00 0.  1.
          6    1    1    2  502    0 -0.17999811125E+02 -0.13776581260E+03  0.79620034291E+03  0.82653941127E+03  0.17300000000E+03 0.  1.
         -6    1    1    2    0  501  0.17999811125E+02  0.13776581260E+03  0.97842533967E+03  0.10032689358E+04  0.17300000000E+03 0. -1.
<mgrwt>
<rscale>  2 0.22188378E+03</rscale>
<asrwt>0</asrwt>
<pdfrwt beam="1">  1        1 0.27726406E+00 0.22188378E+03</pdfrwt>
<pdfrwt beam="2">  1       -1 0.42448218E-02 0.22188378E+03</pdfrwt>
<totfact> 0.10245955E+03</totfact>
</mgrwt>
</event>
<event>
 4    3  0.7748294E-001  0.2041074E+03  0.7546771E-02  0.1146319E+00
          2   -1    0    0  502    0  0.00000000000E+00  0.00000000000E+00  0.31079049203E+04  0.31079049203E+04  0.00000000000E+00 0.  1.
         -2   -1    0    0    0  501 -0.00000000000E+00 -0.00000000000E+00 -0.40086224142E+02  0.40086224142E+02  0.00000000000E+00 0. -1.
          6    1    1    2  502    0  0.95155079629E+02 -0.51733443215E+02  0.28180513985E+04  0.28254333336E+04  0.17300000000E+03 0.  1.
         -6    1    1    2    0  501 -0.95155079629E+02  0.51733443215E+02  0.24976729769E+03  0.32255781082E+03  0.17300000000E+03 0. -1.
<mgrwt>
<rscale>  2 0.20410742E+03</rscale>
<asrwt>0</asrwt>
<pdfrwt beam="1">  1        2 0.47813903E+00 0.20410742E+03</pdfrwt>
<pdfrwt beam="2">  1       -2 0.61671139E-02 0.20410742E+03</pdfrwt>
<totfact> 0.26084317E+02</totfact>
</mgrwt>
</event>
<event>
 4    3  0.7748294E-001  0.2035998E+03  0.7546771E-02  0.1146737E+00
          1   -1    0    0  502    0  0.00000000000E+00  0.00000000000E+00  0.13493270252E+04  0.13493270252E+04  0.00000000000E+00 0. -1.
         -1   -1    0    0    0  501 -0.00000000000E+00 -0.00000000000E+00 -0.30732615638E+02  0.30732615638E+02  0.00000000000E+00 0.  1.
          6    1    1    2  502    0  0.30118913922E+02 -0.10303743845E+03  0.64596257195E+03  0.67728908677E+03  0.17300000000E+03 0.  1.
         -6    1    1    2    0  501 -0.30118913922E+02  0.10303743845E+03  0.67263183763E+03  0.70277055409E+03  0.17300000000E+03 0. -1.
<mgrwt>
<rscale>  2 0.20359976E+03</rscale>
<asrwt>0</asrwt>
<pdfrwt beam="1">  1        1 0.20758873E+00 0.20359976E+03</pdfrwt>
<pdfrwt beam="2">  1       -1 0.47280958E-02 0.20359976E+03</pdfrwt>
<totfact> 0.17300336E+03</totfact>
</mgrwt>
</event>
<event>
 4    3  0.7748294E-001  0.1945152E+03  0.7546771E-02  0.1154451E+00
          2   -1    0    0  502    0  0.00000000000E+00  0.00000000000E+00  0.12626602127E+04  0.12626602127E+04  0.00000000000E+00 0. -1.
         -2   -1    0    0    0  501 -0.00000000000E+00 -0.00000000000E+00 -0.33066070708E+02  0.33066070708E+02  0.00000000000E+00 0.  1.
          6    1    1    2  502    0 -0.41133983205E+02  0.78836218999E+02  0.41640796380E+03  0.45959954996E+03  0.17300000000E+03 0.  1.
         -6    1    1    2    0  501  0.41133983205E+02 -0.78836218999E+02  0.81318617824E+03  0.83612673350E+03  0.17300000000E+03 0. -1.
<mgrwt>
<rscale>  2 0.19451518E+03</rscale>
<asrwt>0</asrwt>
<pdfrwt beam="1">  1        2 0.19425538E+00 0.19451518E+03</pdfrwt>
<pdfrwt beam="2">  1       -2 0.50870888E-02 0.19451518E+03</pdfrwt>
<totfact> 0.34925919E+03</totfact>
</mgrwt>
</event>
<event>
 4    3  0.7748294E-001  0.3352619E+03  0.7546771E-02  0.1068832E+00
          2   -1    0    0  502    0  0.00000000000E+00  0.00000000000E+00  0.36271297182E+04  0.36271297182E+04  0.00000000000E+00 0. -1.
         -2   -1    0    0    0  501 -0.00000000000E+00 -0.00000000000E+00 -0.56892073435E+02  0.56892073435E+02  0.00000000000E+00 0.  1.
          6    1    1    2  502    0  0.20654119888E+03 -0.19953016362E+03  0.30280391166E+04  0.30465425394E+04  0.17300000000E+03 0. -1.
         -6    1    1    2    0  501 -0.20654119888E+03  0.19953016362E+03  0.54219852823E+03  0.63747925225E+03  0.17300000000E+03 0.  1.
<mgrwt>
<rscale>  2 0.33526192E+03</rscale>
<asrwt>0</asrwt>
<pdfrwt beam="1">  1        2 0.55801977E+00 0.33526192E+03</pdfrwt>
<pdfrwt beam="2">  1       -2 0.87526295E-02 0.33526192E+03</pdfrwt>
<totfact> 0.66755095E+01</totfact>
</mgrwt>
</event>
<event>
 4    3  0.7748294E-001  0.3681229E+03  0.7546771E-02  0.1055413E+00
          3   -1    0    0  502    0  0.00000000000E+00  0.00000000000E+00  0.32831179697E+03  0.32831179697E+03  0.00000000000E+00 0.  1.
         -3   -1    0    0    0  501 -0.00000000000E+00 -0.00000000000E+00 -0.41343825202E+03  0.41343825202E+03  0.00000000000E+00 0. -1.
          6    1    1    2  502    0  0.30387228578E+02  0.32351515287E+03 -0.57569343629E+02  0.37259719151E+03  0.17300000000E+03 0.  1.
         -6    1    1    2    0  501 -0.30387228578E+02 -0.32351515287E+03 -0.27557111428E+02  0.36915285748E+03  0.17300000000E+03 0. -1.
<mgrwt>
<rscale>  2 0.36812286E+03</rscale>
<asrwt>0</asrwt>
<pdfrwt beam="1">  1        3 0.50509508E-01 0.36812286E+03</pdfrwt>
<pdfrwt beam="2">  1       -3 0.63605884E-01 0.36812286E+03</pdfrwt>
<totfact> 0.24029256E+01</totfact>
</mgrwt>
</event>
<event>
 4    3  0.7748294E-001  0.2793764E+03  0.7546771E-02  0.1096030E+00
         -2   -1    0    0    0  501 -0.00000000000E+00  0.00000000000E+00  0.25377368711E+02  0.25377368711E+02  0.00000000000E+00 0. -1.
          2   -1    0    0  502    0  0.00000000000E+00 -0.00000000000E+00 -0.31109022034E+04  0.31109022034E+04  0.00000000000E+00 0.  1.
          6    1    1    2  502    0  0.57880473307E+02 -0.21159403680E+03 -0.13757652697E+04  0.14038451706E+04  0.17300000000E+03 0. -1.
         -6    1    1    2    0  501 -0.57880473307E+02  0.21159403680E+03 -0.17097595650E+04  0.17324344015E+04  0.17300000000E+03 0.  1.
<mgrwt>
<rscale>  2 0.27937642E+03</rscale>
<asrwt>0</asrwt>
<pdfrwt beam="1">  1        2 0.47860038E+00 0.27937642E+03</pdfrwt>
<pdfrwt beam="2">  1       -2 0.39042102E-02 0.27937642E+03</pdfrwt>
<totfact> 0.50865238E+02</totfact>
</mgrwt>
</event>
<event>
 4    3  0.7748294E-001  0.3679530E+03  0.7546771E-02  0.1055478E+00
          1   -1    0    0  502    0  0.00000000000E+00  0.00000000000E+00  0.97812304086E+03  0.97812304086E+03  0.00000000000E+00 0.  1.
         -1   -1    0    0    0  501 -0.00000000000E+00 -0.00000000000E+00 -0.14771505364E+03  0.14771505364E+03  0.00000000000E+00 0. -1.
          6    1    1    2  502    0 -0.32297920633E+03 -0.33835738579E+02  0.27397754844E+03  0.45875169970E+03  0.17300000000E+03 0.  1.
         -6    1    1    2    0  501  0.32297920633E+03  0.33835738579E+02  0.55643043878E+03  0.66708639480E+03  0.17300000000E+03 0. -1.
<mgrwt>
<rscale>  2 0.36795302E+03</rscale>
<asrwt>0</asrwt>
<pdfrwt beam="1">  1        1 0.15048046E+00 0.36795302E+03</pdfrwt>
<pdfrwt beam="2">  1       -1 0.22725394E-01 0.36795302E+03</pdfrwt>
<totfact> 0.27021899E+02</totfact>
</mgrwt>
</event>
<event>
 4    3  0.7748294E-001  0.2043853E+03  0.7546771E-02  0.1146091E+00
          1   -1    0    0  502    0  0.00000000000E+00  0.00000000000E+00  0.61081280744E+03  0.61081280744E+03  0.00000000000E+00 0. -1.
         -1   -1    0    0    0  501 -0.00000000000E+00 -0.00000000000E+00 -0.73104248280E+02  0.73104248280E+02  0.00000000000E+00 0.  1.
          6    1    1    2  502    0 -0.22557575393E+02  0.10646841903E+03  0.18201476970E+03  0.27368365834E+03  0.17300000000E+03 0. -1.
         -6    1    1    2    0  501  0.22557575393E+02 -0.10646841903E+03  0.35569378946E+03  0.41023339737E+03  0.17300000000E+03 0.  1.
<mgrwt>
<rscale>  2 0.20438534E+03</rscale>
<asrwt>0</asrwt>
<pdfrwt beam="1">  1        1 0.93971198E-01 0.20438534E+03</pdfrwt>
<pdfrwt beam="2">  1       -1 0.11246808E-01 0.20438534E+03</pdfrwt>
<totfact> 0.17316367E+03</totfact>
</mgrwt>
</event>
<event>
 4    3  0.7748294E-001  0.1788805E+03  0.7546771E-02  0.1168891E+00
          2   -1    0    0  502    0  0.00000000000E+00  0.00000000000E+00  0.14281896804E+02  0.14281896804E+02  0.00000000000E+00 0.  1.
         -2   -1    0    0    0  501 -0.00000000000E+00 -0.00000000000E+00 -0.23997463212E+04  0.23997463212E+04  0.00000000000E+00 0. -1.
          6    1    1    2  502    0  0.27022181829E+02 -0.36592671279E+02 -0.88177580804E+03  0.89973707134E+03  0.17300000000E+03 0.  1.
         -6    1    1    2    0  501 -0.27022181829E+02  0.36592671279E+02 -0.15036886164E+04  0.15142911467E+04  0.17300000000E+03 0. -1.
<mgrwt>
<rscale>  2 0.17888047E+03</rscale>
<asrwt>0</asrwt>
<pdfrwt beam="1">  1        2 0.21972141E-02 0.17888047E+03</pdfrwt>
<pdfrwt beam="2">  1       -2 0.36919188E+00 0.17888047E+03</pdfrwt>
<totfact> 0.68534673E+01</totfact>
</mgrwt>
</event>
<event>
 4    3  0.7748294E-001  0.2358350E+03  0.7546771E-02  0.1122599E+00
         -1   -1    0    0    0  501 -0.00000000000E+00  0.00000000000E+00  0.85569161361E+03  0.85569161361E+03  0.00000000000E+00 0.  1.
          1   -1    0    0  502    0  0.00000000000E+00 -0.00000000000E+00 -0.66931230919E+02  0.66931230919E+02  0.00000000000E+00 0. -1.
          6    1    1    2  502    0  0.93923800269E+02 -0.12987478594E+03  0.31597673342E+03  0.39428344670E+03  0.17300000000E+03 0. -1.
         -6    1    1    2    0  501 -0.93923800269E+02  0.12987478594E+03  0.47278364927E+03  0.52833939783E+03  0.17300000000E+03 0.  1.
<mgrwt>
<rscale>  2 0.23583499E+03</rscale>
<asrwt>0</asrwt>
<pdfrwt beam="1">  1        1 0.10297113E-01 0.23583499E+03</pdfrwt>
<pdfrwt beam="2">  1       -1 0.13164486E+00 0.23583499E+03</pdfrwt>
<totfact> 0.32625858E+02</totfact>
</mgrwt>
</event>
<event>
 4    3  0.7748294E-001  0.1984154E+03  0.7546771E-02  0.1151083E+00
          2   -1    0    0  502    0  0.00000000000E+00  0.00000000000E+00  0.22877810069E+03  0.22877810069E+03  0.00000000000E+00 0. -1.
         -2   -1    0    0    0  501 -0.00000000000E+00 -0.00000000000E+00 -0.17406859305E+03  0.17406859305E+03  0.00000000000E+00 0.  1.
          6    1    1    2  502    0  0.26866960449E+02  0.93369410980E+02  0.58387151226E+01  0.19850131250E+03  0.17300000000E+03 0. -1.
         -6    1    1    2    0  501 -0.26866960449E+02 -0.93369410980E+02  0.48870792523E+02  0.20434538124E+03  0.17300000000E+03 0.  1.
<mgrwt>
<rscale>  2 0.19841542E+03</rscale>
<asrwt>0</asrwt>
<pdfrwt beam="1">  1        2 0.35196631E-01 0.19841542E+03</pdfrwt>
<pdfrwt beam="2">  1       -2 0.26779784E-01 0.19841542E+03</pdfrwt>
<totfact> 0.18276319E+03</totfact>
</mgrwt>
</event>
<event>
 4    3  0.7748294E-001  0.2416449E+03  0.7546771E-02  0.1118702E+00
         -1   -1    0    0    0  501 -0.00000000000E+00  0.00000000000E+00  0.49039668322E+02  0.49039668322E+02  0.00000000000E+00 0.  1.
          1   -1    0    0  502    0  0.00000000000E+00 -0.00000000000E+00 -0.13299023257E+04  0.13299023257E+04  0.00000000000E+00 0. -1.
          6    1    1    2  502    0 -0.86251258100E+02  0.14499644863E+03 -0.41737909338E+03  0.48228368958E+03  0.17300000000E+03 0.  1.
         -6    1    1    2    0  501  0.86251258100E+02 -0.14499644863E+03 -0.86348356396E+03  0.89665830441E+03  0.17300000000E+03 0. -1.
<mgrwt>
<rscale>  2 0.24164488E+03</rscale>
<asrwt>0</asrwt>
<pdfrwt beam="1">  1        1 0.20460037E+00 0.24164488E+03</pdfrwt>
<pdfrwt beam="2">  1       -1 0.75445640E-02 0.24164488E+03</pdfrwt>
<totfact> 0.88003973E+02</totfact>
</mgrwt>
</event>
<event>
 4    3  0.7748294E-001  0.1968940E+03  0.7546771E-02  0.1152386E+00
         -2   -1    0    0    0  501 -0.00000000000E+00  0.00000000000E+00  0.28829085876E+03  0.28829085876E+03  0.00000000000E+00 0.  1.
          2   -1    0    0  502    0  0.00000000000E+00 -0.00000000000E+00 -0.17333844516E+03  0.17333844516E+03  0.00000000000E+00 0. -1.
          6    1    1    2  502    0 -0.80784874974E+02 -0.48083765810E+02 -0.51818601757E+02  0.20359865434E+03  0.17300000000E+03 0. -1.
         -6    1    1    2    0  501  0.80784874974E+02  0.48083765810E+02  0.16677101536E+03  0.25803064958E+03  0.17300000000E+03 0.  1.
<mgrwt>
<rscale>  2 0.19689399E+03</rscale>
<asrwt>0</asrwt>
<pdfrwt beam="1">  1        2 0.26667453E-01 0.19689399E+03</pdfrwt>
<pdfrwt beam="2">  1       -2 0.44352440E-01 0.19689399E+03</pdfrwt>
<totfact> 0.96967432E+02</totfact>
</mgrwt>
</event>
<event>
 4    3  0.7748294E-001  0.2056821E+03  0.7546771E-02  0.1145032E+00
         -1   -1    0    0    0  501 -0.00000000000E+00  0.00000000000E+00  0.31502226184E+03  0.31502226184E+03  0.00000000000E+00 0.  1.
          1   -1    0    0  502    0  0.00000000000E+00 -0.00000000000E+00 -0.29037176472E+03  0.29037176472E+03  0.00000000000E+00 0. -1.
          6    1    1    2  502    0  0.81560235611E+02 -0.75657560849E+02 -0.20959835636E+03  0.29366070479E+03  0.17300000000E+03 0. -1.
         -6    1    1    2    0  501 -0.81560235611E+02  0.75657560849E+02  0.23424885348E+03  0.31173332177E+03  0.17300000000E+03 0.  1.
<mgrwt>
<rscale>  2 0.20568213E+03</rscale>
<asrwt>0</asrwt>
<pdfrwt beam="1">  1        1 0.44672579E-01 0.20568213E+03</pdfrwt>
<pdfrwt beam="2">  1       -1 0.48464964E-01 0.20568213E+03</pdfrwt>
<totfact> 0.40112258E+02</totfact>
</mgrwt>
</event>
<event>
 4    3  0.7748294E-001  0.1739394E+03  0.7546771E-02  0.1173801E+00
         -2   -1    0    0    0  501 -0.00000000000E+00  0.00000000000E+00  0.10555503797E+03  0.10555503797E+03  0.00000000000E+00 0. -1.
          2   -1    0    0  502    0  0.00000000000E+00 -0.00000000000E+00 -0.29277054323E+03  0.29277054323E+03  0.00000000000E+00 0.  1.
          6    1    1    2  502    0 -0.24759925012E+01 -0.17882639406E+02 -0.64757109911E+02  0.18560280875E+03  0.17300000000E+03 0.  1.
         -6    1    1    2    0  501  0.24759925012E+01  0.17882639406E+02 -0.12245839534E+03  0.21272277245E+03  0.17300000000E+03 0.  1.
<mgrwt>
<rscale>  2 0.17393941E+03</rscale>
<asrwt>0</asrwt>
<pdfrwt beam="1">  1        2 0.45041622E-01 0.17393941E+03</pdfrwt>
<pdfrwt beam="2">  1       -2 0.16239237E-01 0.17393941E+03</pdfrwt>
<totfact> 0.32906760E+03</totfact>
</mgrwt>
</event>
<event>
 4    3  0.7748294E-001  0.1850695E+03  0.7546771E-02  0.1162985E+00
         -1   -1    0    0    0  501 -0.00000000000E+00  0.00000000000E+00  0.13955125143E+03  0.13955125143E+03  0.00000000000E+00 0.  1.
          1   -1    0    0  502    0  0.00000000000E+00 -0.00000000000E+00 -0.27699672007E+03  0.27699672007E+03  0.00000000000E+00 0. -1.
          6    1    1    2  502    0 -0.39108566741E+02 -0.52841774217E+02 -0.13902663828E+03  0.23147168131E+03  0.17300000000E+03 0. -1.
         -6    1    1    2    0  501  0.39108566741E+02  0.52841774217E+02  0.15811696343E+01  0.18507629019E+03  0.17300000000E+03 0.  1.
<mgrwt>
<rscale>  2 0.18506954E+03</rscale>
<asrwt>0</asrwt>
<pdfrwt beam="1">  1        1 0.42614880E-01 0.18506954E+03</pdfrwt>
<pdfrwt beam="2">  1       -1 0.21469424E-01 0.18506954E+03</pdfrwt>
<totfact> 0.17216882E+03</totfact>
</mgrwt>
</event>
<event>
 4    3  0.7748294E-001  0.1942638E+03  0.7546771E-02  0.1154671E+00
         -1   -1    0    0    0  501 -0.00000000000E+00  0.00000000000E+00  0.30634962129E+02  0.30634962129E+02  0.00000000000E+00 0.  1.
          1   -1    0    0  502    0  0.00000000000E+00 -0.00000000000E+00 -0.12792499066E+04  0.12792499066E+04  0.00000000000E+00 0. -1.
          6    1    1    2  502    0 -0.47941272734E+02 -0.74236524393E+02 -0.75034565362E+03  0.77508517409E+03  0.17300000000E+03 0. -1.
         -6    1    1    2    0  501  0.47941272734E+02  0.74236524393E+02 -0.49826929088E+03  0.53479969467E+03  0.17300000000E+03 0.  1.
<mgrwt>
<rscale>  2 0.19426381E+03</rscale>
<asrwt>0</asrwt>
<pdfrwt beam="1">  1        1 0.19680768E+00 0.19426381E+03</pdfrwt>
<pdfrwt beam="2">  1       -1 0.47130711E-02 0.19426381E+03</pdfrwt>
<totfact> 0.19384052E+03</totfact>
</mgrwt>
</event>
<event>
 4    3  0.7748294E-001  0.2021322E+03  0.7546771E-02  0.1147952E+00
         -2   -1    0    0    0  501 -0.00000000000E+00  0.00000000000E+00  0.54185768266E+02  0.54185768266E+02  0.00000000000E+00 0. -1.
          2   -1    0    0  502    0  0.00000000000E+00 -0.00000000000E+00 -0.75605525281E+03  0.75605525281E+03  0.00000000000E+00 0.  1.
          6    1    1    2  502    0  0.10406149341E+03 -0.99805880085E+01 -0.32993969760E+03  0.38693359974E+03  0.17300000000E+03 0.  1.
         -6    1    1    2    0  501 -0.10406149341E+03  0.99805880085E+01 -0.37192978694E+03  0.42330742134E+03  0.17300000000E+03 0. -1.
<mgrwt>
<rscale>  2 0.20213215E+03</rscale>
<asrwt>0</asrwt>
<pdfrwt beam="1">  1        2 0.11631618E+00 0.20213215E+03</pdfrwt>
<pdfrwt beam="2">  1       -2 0.83362729E-02 0.20213215E+03</pdfrwt>
<totfact> 0.33438874E+03</totfact>
</mgrwt>
</event>
<event>
 4    3  0.7748294E-001  0.1836970E+03  0.7546771E-02  0.1164272E+00
          2   -1    0    0  502    0  0.00000000000E+00  0.00000000000E+00  0.36320878829E+03  0.36320878829E+03  0.00000000000E+00 0.  1.
         -2   -1    0    0    0  501 -0.00000000000E+00 -0.00000000000E+00 -0.18838309912E+03  0.18838309912E+03  0.00000000000E+00 0. -1.
          6    1    1    2  502    0  0.55998721647E+02 -0.26071380115E+02 -0.10892980505E+03  0.21356562484E+03  0.17300000000E+03 0. -1.
         -6    1    1    2    0  501 -0.55998721647E+02  0.26071380115E+02  0.28375549422E+03  0.33802626257E+03  0.17300000000E+03 0.  1.
<mgrwt>
<rscale>  2 0.18369696E+03</rscale>
<asrwt>0</asrwt>
<pdfrwt beam="1">  1        2 0.55878275E-01 0.18369696E+03</pdfrwt>
<pdfrwt beam="2">  1       -2 0.28982015E-01 0.18369696E+03</pdfrwt>
<totfact> 0.96412564E+02</totfact>
</mgrwt>
</event>
<event>
 4    3  0.7748294E-001  0.5396116E+03  0.7546771E-02  0.1003927E+00
         -2   -1    0    0    0  501 -0.00000000000E+00  0.00000000000E+00  0.11245252614E+04  0.11245252614E+04  0.00000000000E+00 0. -1.
          2   -1    0    0  502    0  0.00000000000E+00 -0.00000000000E+00 -0.36234519986E+03  0.36234519986E+03  0.00000000000E+00 0.  1.
          6    1    1    2  502    0 -0.25178090085E+03 -0.44481234531E+03 -0.16065306698E+02  0.53985066329E+03  0.17300000000E+03 0.  1.
         -6    1    1    2    0  501  0.25178090085E+03  0.44481234531E+03  0.77824536823E+03  0.94701979797E+03  0.17300000000E+03 0.  1.
<mgrwt>
<rscale>  2 0.53961157E+03</rscale>
<asrwt>0</asrwt>
<pdfrwt beam="1">  1        2 0.55745416E-01 0.53961157E+03</pdfrwt>
<pdfrwt beam="2">  1       -2 0.17300389E+00 0.53961157E+03</pdfrwt>
<totfact> 0.18689942E+01</totfact>
</mgrwt>
</event>
<event>
 4    3  0.7748294E-001  0.1993652E+03  0.7546771E-02  0.1150276E+00
          1   -1    0    0  502    0  0.00000000000E+00  0.00000000000E+00  0.24398007347E+03  0.24398007347E+03  0.00000000000E+00 0. -1.
         -1   -1    0    0    0  501 -0.00000000000E+00 -0.00000000000E+00 -0.21377991309E+03  0.21377991309E+03  0.00000000000E+00 0.  1.
          6    1    1    2  502    0  0.49128895168E+02  0.86045492835E+02 -0.96550364146E+02  0.22151399052E+03  0.17300000000E+03 0.  1.
         -6    1    1    2    0  501 -0.49128895168E+02 -0.86045492835E+02  0.12675052453E+03  0.23624599604E+03  0.17300000000E+03 0. -1.
<mgrwt>
<rscale>  2 0.19936518E+03</rscale>
<asrwt>0</asrwt>
<pdfrwt beam="1">  1        1 0.37535396E-01 0.19936518E+03</pdfrwt>
<pdfrwt beam="2">  1       -1 0.32889217E-01 0.19936518E+03</pdfrwt>
<totfact> 0.99097400E+02</totfact>
</mgrwt>
</event>
<event>
 4    3  0.7748294E-001  0.1815170E+03  0.7546771E-02  0.1166343E+00
         -2   -1    0    0    0  501 -0.00000000000E+00  0.00000000000E+00  0.26908553326E+02  0.26908553326E+02  0.00000000000E+00 0. -1.
          2   -1    0    0  502    0  0.00000000000E+00 -0.00000000000E+00 -0.12457223340E+04  0.12457223340E+04  0.00000000000E+00 0.  1.
          6    1    1    2  502    0 -0.51072334546E+02 -0.20273842762E+02 -0.52627251333E+03  0.55669665918E+03  0.17300000000E+03 0. -1.
         -6    1    1    2    0  501  0.51072334546E+02  0.20273842762E+02 -0.69254126737E+03  0.71593422817E+03  0.17300000000E+03 0.  1.
<mgrwt>
<rscale>  2 0.18151697E+03</rscale>
<asrwt>0</asrwt>
<pdfrwt beam="1">  1        2 0.19164956E+00 0.18151697E+03</pdfrwt>
<pdfrwt beam="2">  1       -2 0.41397781E-02 0.18151697E+03</pdfrwt>
<totfact> 0.48617334E+03</totfact>
</mgrwt>
</event>
<event>
 4    3  0.7748294E-001  0.4859780E+03  0.7546771E-02  0.1017505E+00
         -2   -1    0    0    0  501 -0.00000000000E+00  0.00000000000E+00  0.15936410637E+03  0.15936410637E+03  0.00000000000E+00 0. -1.
          2   -1    0    0  502    0  0.00000000000E+00 -0.00000000000E+00 -0.17563357154E+04  0.17563357154E+04  0.00000000000E+00 0.  1.
          6    1    1    2  502    0 -0.15351686752E+03 -0.42740871462E+03 -0.11770587832E+04  0.12734370880E+04  0.17300000000E+03 0. -1.
         -6    1    1    2    0  501  0.15351686752E+03  0.42740871462E+03 -0.41991282590E+03  0.64226273386E+03  0.17300000000E+03 0.  1.
<mgrwt>
<rscale>  2 0.48597802E+03</rscale>
<asrwt>0</asrwt>
<pdfrwt beam="1">  1        2 0.27020550E+00 0.48597802E+03</pdfrwt>
<pdfrwt beam="2">  1       -2 0.24517554E-01 0.48597802E+03</pdfrwt>
<totfact> 0.14238330E+02</totfact>
</mgrwt>
</event>
<event>
 4    3  0.7748294E-001  0.2060818E+03  0.7546771E-02  0.1144707E+00
         -3   -1    0    0    0  501 -0.00000000000E+00  0.00000000000E+00  0.11818371990E+04  0.11818371990E+04  0.00000000000E+00 0.  1.
          3   -1    0    0  502    0  0.00000000000E+00 -0.00000000000E+00 -0.65215978062E+02  0.65215978062E+02  0.00000000000E+00 0. -1.
          6    1    1    2  502    0 -0.63966288921E+02 -0.91918490835E+02  0.97611058190E+03  0.99762796832E+03  0.17300000000E+03 0.  1.
         -6    1    1    2    0  501  0.63966288921E+02  0.91918490835E+02  0.14051063905E+03  0.24942520875E+03  0.17300000000E+03 0. -1.
<mgrwt>
<rscale>  2 0.20608177E+03</rscale>
<asrwt>0</asrwt>
<pdfrwt beam="1">  1        3 0.10033228E-01 0.20608177E+03</pdfrwt>
<pdfrwt beam="2">  1       -3 0.18182109E+00 0.20608177E+03</pdfrwt>
<totfact> 0.37306034E+01</totfact>
</mgrwt>
</event>
<event>
 4    3  0.7748294E-001  0.2258824E+03  0.7546771E-02  0.1129572E+00
         -2   -1    0    0    0  501 -0.00000000000E+00  0.00000000000E+00  0.32341393393E+03  0.32341393393E+03  0.00000000000E+00 0.  1.
          2   -1    0    0  502    0  0.00000000000E+00 -0.00000000000E+00 -0.16698051035E+03  0.16698051035E+03  0.00000000000E+00 0. -1.
          6    1    1    2  502    0 -0.95687377973E+02 -0.10926008885E+03  0.20608685289E+02  0.22682054410E+03  0.17300000000E+03 0. -1.
         -6    1    1    2    0  501  0.95687377973E+02  0.10926008885E+03  0.13582473829E+03  0.26357390017E+03  0.17300000000E+03 0.  1.
<mgrwt>
<rscale>  2 0.22588236E+03</rscale>
<asrwt>0</asrwt>
<pdfrwt beam="1">  1        2 0.25689309E-01 0.22588236E+03</pdfrwt>
<pdfrwt beam="2">  1       -2 0.49755990E-01 0.22588236E+03</pdfrwt>
<totfact> 0.80807564E+02</totfact>
</mgrwt>
</event>
<event>
 4    3  0.7748294E-001  0.1984965E+03  0.7546771E-02  0.1151014E+00
         -2   -1    0    0    0  501 -0.00000000000E+00  0.00000000000E+00  0.40816583820E+02  0.40816583820E+02  0.00000000000E+00 0.  1.
          2   -1    0    0  502    0  0.00000000000E+00 -0.00000000000E+00 -0.10019147380E+04  0.10019147380E+04  0.00000000000E+00 0. -1.
          6    1    1    2  502    0 -0.37477379262E+02 -0.89818103590E+02 -0.38090116616E+03  0.42951896823E+03  0.17300000000E+03 0.  1.
         -6    1    1    2    0  501  0.37477379262E+02  0.89818103590E+02 -0.58019698807E+03  0.61321235363E+03  0.17300000000E+03 0. -1.
<mgrwt>
<rscale>  2 0.19849646E+03</rscale>
<asrwt>0</asrwt>
<pdfrwt beam="1">  1        2 0.15414070E+00 0.19849646E+03</pdfrwt>
<pdfrwt beam="2">  1       -2 0.62794755E-02 0.19849646E+03</pdfrwt>
<totfact> 0.35823690E+03</totfact>
</mgrwt>
</event>
<event>
 4    3  0.7748294E-001  0.2116583E+03  0.7546771E-02  0.1140259E+00
          1   -1    0    0  502    0  0.00000000000E+00  0.00000000000E+00  0.20513177775E+03  0.20513177775E+03  0.00000000000E+00 0.  1.
         -1   -1    0    0    0  501 -0.00000000000E+00 -0.00000000000E+00 -0.24490717956E+03  0.24490717956E+03  0.00000000000E+00 0. -1.
          6    1    1    2  502    0  0.10494987793E+03  0.62094755113E+02 -0.93927085099E+02  0.23156323716E+03  0.17300000000E+03 0. -1.
         -6    1    1    2    0  501 -0.10494987793E+03 -0.62094755113E+02  0.54151683291E+02  0.21847572015E+03  0.17300000000E+03 0.  1.
<mgrwt>
<rscale>  2 0.21165830E+03</rscale>
<asrwt>0</asrwt>
<pdfrwt beam="1">  1        1 0.31558735E-01 0.21165830E+03</pdfrwt>
<pdfrwt beam="2">  1       -1 0.37678028E-01 0.21165830E+03</pdfrwt>
<totfact> 0.97366419E+02</totfact>
</mgrwt>
</event>
<event>
 4    3  0.7748294E-001  0.2142580E+03  0.7546771E-02  0.1138238E+00
          2   -1    0    0  502    0  0.00000000000E+00  0.00000000000E+00  0.66973941388E+02  0.66973941388E+02  0.00000000000E+00 0. -1.
         -2   -1    0    0    0  501 -0.00000000000E+00 -0.00000000000E+00 -0.86696273359E+03  0.86696273359E+03  0.00000000000E+00 0.  1.
          6    1    1    2  502    0  0.11989289833E+03 -0.40039786134E+02 -0.18631876433E+03  0.28393867909E+03  0.17300000000E+03 0. -1.
         -6    1    1    2    0  501 -0.11989289833E+03  0.40039786134E+02 -0.61367002787E+03  0.64999799589E+03  0.17300000000E+03 0.  1.
<mgrwt>
<rscale>  2 0.21425800E+03</rscale>
<asrwt>0</asrwt>
<pdfrwt beam="1">  1        2 0.10303683E-01 0.21425800E+03</pdfrwt>
<pdfrwt beam="2">  1       -2 0.13337888E+00 0.21425800E+03</pdfrwt>
<totfact> 0.26389134E+02</totfact>
</mgrwt>
</event>
<event>
 4    3  0.7748294E-001  0.2633050E+03  0.7546771E-02  0.1105174E+00
         -1   -1    0    0    0  501 -0.00000000000E+00  0.00000000000E+00  0.85347555641E+03  0.85347555641E+03  0.00000000000E+00 0. -1.
          1   -1    0    0  502    0  0.00000000000E+00 -0.00000000000E+00 -0.89286406336E+02  0.89286406336E+02  0.00000000000E+00 0.  1.
          6    1    1    2  502    0  0.12965786396E+03  0.15029758661E+03  0.24051644965E+03  0.35661980986E+03  0.17300000000E+03 0.  1.
         -6    1    1    2    0  501 -0.12965786396E+03 -0.15029758661E+03  0.52367270042E+03  0.58614215289E+03  0.17300000000E+03 0. -1.
<mgrwt>
<rscale>  2 0.26330501E+03</rscale>
<asrwt>0</asrwt>
<pdfrwt beam="1">  1        1 0.13736371E-01 0.26330501E+03</pdfrwt>
<pdfrwt beam="2">  1       -1 0.13130393E+00 0.26330501E+03</pdfrwt>
<totfact> 0.22318190E+02</totfact>
</mgrwt>
</event>
<event>
 4    3  0.7748294E-001  0.2130764E+03  0.7546771E-02  0.1139153E+00
         -2   -1    0    0    0  501 -0.00000000000E+00  0.00000000000E+00  0.60871657067E+02  0.60871657067E+02  0.00000000000E+00 0.  1.
          2   -1    0    0  502    0  0.00000000000E+00 -0.00000000000E+00 -0.10912042480E+04  0.10912042480E+04  0.00000000000E+00 0. -1.
          6    1    1    2  502    0 -0.39008423020E+01  0.12432757746E+03 -0.19110590243E+03  0.28622199257E+03  0.17300000000E+03 0.  1.
         -6    1    1    2    0  501  0.39008423020E+01 -0.12432757746E+03 -0.83922668851E+03  0.86585391250E+03  0.17300000000E+03 0. -1.
<mgrwt>
<rscale>  2 0.21307643E+03</rscale>
<asrwt>0</asrwt>
<pdfrwt beam="1">  1        2 0.16787759E+00 0.21307643E+03</pdfrwt>
<pdfrwt beam="2">  1       -2 0.93648698E-02 0.21307643E+03</pdfrwt>
<totfact> 0.17033871E+03</totfact>
</mgrwt>
</event>
<event>
 4    3  0.7748294E-001  0.2026325E+03  0.7546771E-02  0.1147537E+00
          2   -1    0    0  502    0  0.00000000000E+00  0.00000000000E+00  0.99471545656E+03  0.99471545656E+03  0.00000000000E+00 0.  1.
         -2   -1    0    0    0  501 -0.00000000000E+00 -0.00000000000E+00 -0.52703462657E+02  0.52703462657E+02  0.00000000000E+00 0. -1.
          6    1    1    2  502    0  0.81111678587E+02 -0.67467228230E+02  0.22716514478E+03  0.30440751353E+03  0.17300000000E+03 0. -1.
         -6    1    1    2    0  501 -0.81111678587E+02  0.67467228230E+02  0.71484684912E+03  0.74301140569E+03  0.17300000000E+03 0.  1.
<mgrwt>
<rscale>  2 0.20263250E+03</rscale>
<asrwt>0</asrwt>
<pdfrwt beam="1">  1        2 0.15303313E+00 0.20263250E+03</pdfrwt>
<pdfrwt beam="2">  1       -2 0.81082258E-02 0.20263250E+03</pdfrwt>
<totfact> 0.24376576E+03</totfact>
</mgrwt>
</event>
<event>
 4    3  0.7748294E-001  0.2723240E+03  0.7546771E-02  0.1099957E+00
          2   -1    0    0  502    0  0.00000000000E+00  0.00000000000E+00  0.60001350998E+03  0.60001350998E+03  0.00000000000E+00 0.  1.
         -2   -1    0    0    0  501 -0.00000000000E+00 -0.00000000000E+00 -0.26731508549E+03  0.26731508549E+03  0.00000000000E+00 0. -1.
          6    1    1    2  502    0 -0.90070627753E+02  0.19004910911E+03 -0.15162826362E+03  0.31169137329E+03  0.17300000000E+03 0. -1.
         -6    1    1    2    0  501  0.90070627753E+02 -0.19004910911E+03  0.48432668811E+03  0.55563722218E+03  0.17300000000E+03 0.  1.
<mgrwt>
<rscale>  2 0.27232404E+03</rscale>
<asrwt>0</asrwt>
<pdfrwt beam="1">  1        2 0.92309771E-01 0.27232404E+03</pdfrwt>
<pdfrwt beam="2">  1       -2 0.41125398E-01 0.27232404E+03</pdfrwt>
<totfact> 0.28723441E+02</totfact>
</mgrwt>
</event>
<event>
 4    3  0.7748294E-001  0.2366776E+03  0.7546771E-02  0.1122026E+00
          1   -1    0    0  502    0  0.00000000000E+00  0.00000000000E+00  0.24431536085E+03  0.24431536085E+03  0.00000000000E+00 0.  1.
         -1   -1    0    0    0  501 -0.00000000000E+00 -0.00000000000E+00 -0.23375674421E+03  0.23375674421E+03  0.00000000000E+00 0. -1.
          6    1    1    2  502    0  0.13965265973E+03 -0.81144460423E+02  0.38364175204E+02  0.23976675910E+03  0.17300000000E+03 0.  1.
         -6    1    1    2    0  501 -0.13965265973E+03  0.81144460423E+02 -0.27805558572E+02  0.23830534597E+03  0.17300000000E+03 0. -1.
<mgrwt>
<rscale>  2 0.23667761E+03</rscale>
<asrwt>0</asrwt>
<pdfrwt beam="1">  1        1 0.37586979E-01 0.23667761E+03</pdfrwt>
<pdfrwt beam="2">  1       -1 0.35962576E-01 0.23667761E+03</pdfrwt>
<totfact> 0.84888001E+02</totfact>
</mgrwt>
</event>
<event>
 4    3  0.7748294E-001  0.1746513E+03  0.7546771E-02  0.1173082E+00
         -1   -1    0    0    0  501 -0.00000000000E+00  0.00000000000E+00  0.25376942889E+02  0.25376942889E+02  0.00000000000E+00 0. -1.
          1   -1    0    0  502    0  0.00000000000E+00 -0.00000000000E+00 -0.12581274045E+04  0.12581274045E+04  0.00000000000E+00 0.  1.
          6    1    1    2  502    0 -0.11440028733E+01  0.23932237835E+02 -0.48082624650E+03  0.51156323175E+03  0.17300000000E+03 0. -1.
         -6    1    1    2    0  501  0.11440028733E+01 -0.23932237835E+02 -0.75192421510E+03  0.77194111563E+03  0.17300000000E+03 0.  1.
<mgrwt>
<rscale>  2 0.17465125E+03</rscale>
<asrwt>0</asrwt>
<pdfrwt beam="1">  1        1 0.19355803E+00 0.17465125E+03</pdfrwt>
<pdfrwt beam="2">  1       -1 0.39041456E-02 0.17465125E+03</pdfrwt>
<totfact> 0.26464759E+03</totfact>
</mgrwt>
</event>
<event>
 4    3  0.7748294E-001  0.2344122E+03  0.7546771E-02  0.1123572E+00
         -1   -1    0    0    0  501 -0.00000000000E+00  0.00000000000E+00  0.61905172340E+02  0.61905172340E+02  0.00000000000E+00 0. -1.
          1   -1    0    0  502    0  0.00000000000E+00 -0.00000000000E+00 -0.88889181694E+03  0.88889181694E+03  0.00000000000E+00 0.  1.
          6    1    1    2  502    0  0.78365885166E+02  0.13740043017E+03 -0.43138162492E+03  0.49095742839E+03  0.17300000000E+03 0. -1.
         -6    1    1    2    0  501 -0.78365885166E+02 -0.13740043017E+03 -0.39560501968E+03  0.45983956089E+03  0.17300000000E+03 0.  1.
<mgrwt>
<rscale>  2 0.23441222E+03</rscale>
<asrwt>0</asrwt>
<pdfrwt beam="1">  1        1 0.13675259E+00 0.23441222E+03</pdfrwt>
<pdfrwt beam="2">  1       -1 0.95238724E-02 0.23441222E+03</pdfrwt>
<totfact> 0.12825888E+03</totfact>
</mgrwt>
</event>
<event>
 4    3  0.7748294E-001  0.1804907E+03  0.7546771E-02  0.1167329E+00
         -1   -1    0    0    0  501 -0.00000000000E+00  0.00000000000E+00  0.93176108935E+01  0.93176108935E+01  0.00000000000E+00 0. -1.
          1   -1    0    0  502    0  0.00000000000E+00 -0.00000000000E+00 -0.35304617090E+04  0.35304617090E+04  0.00000000000E+00 0.  1.
          6    1    1    2  502    0  0.36680027458E+02 -0.36089762812E+02 -0.19347457960E+04  0.19431464666E+04  0.17300000000E+03 0.  1.
         -6    1    1    2    0  501 -0.36680027458E+02  0.36089762812E+02 -0.15863983021E+04  0.15966328533E+04  0.17300000000E+03 0. -1.
<mgrwt>
<rscale>  2 0.18049071E+03</rscale>
<asrwt>0</asrwt>
<pdfrwt beam="1">  1        1 0.54314741E+00 0.18049071E+03</pdfrwt>
<pdfrwt beam="2">  1       -1 0.14334800E-02 0.18049071E+03</pdfrwt>
<totfact> 0.33964549E+02</totfact>
</mgrwt>
</event>
<event>
 4    3  0.7748294E-001  0.2920605E+03  0.7546771E-02  0.1089278E+00
         -1   -1    0    0    0  501 -0.00000000000E+00  0.00000000000E+00  0.15940994951E+04  0.15940994951E+04  0.00000000000E+00 0.  1.
          1   -1    0    0  502    0  0.00000000000E+00 -0.00000000000E+00 -0.14079735598E+03  0.14079735598E+03  0.00000000000E+00 0. -1.
          6    1    1    2  502    0 -0.17425868702E+03  0.15812722747E+03  0.14096555794E+04  0.14395930545E+04  0.17300000000E+03 0.  1.
         -6    1    1    2    0  501  0.17425868702E+03 -0.15812722747E+03  0.43646559691E+02  0.29530379653E+03  0.17300000000E+03 0. -1.
<mgrwt>
<rscale>  2 0.29206046E+03</rscale>
<asrwt>0</asrwt>
<pdfrwt beam="1">  1        1 0.21661133E-01 0.29206046E+03</pdfrwt>
<pdfrwt beam="2">  1       -1 0.24524606E+00 0.29206046E+03</pdfrwt>
<totfact> 0.19585412E+01</totfact>
</mgrwt>
</event>
<event>
 4    3  0.7748294E-001  0.1764882E+03  0.7546771E-02  0.1171246E+00
          2   -1    0    0  502    0  0.00000000000E+00  0.00000000000E+00  0.12181925985E+04  0.12181925985E+04  0.00000000000E+00 0. -1.
         -2   -1    0    0    0  501 -0.00000000000E+00 -0.00000000000E+00 -0.26798916350E+02  0.26798916350E+02  0.00000000000E+00 0.  1.
          6    1    1    2  502    0  0.74703118501E+01  0.34106643613E+02  0.46234446385E+03  0.49488430158E+03  0.17300000000E+03 0.  1.
         -6    1    1    2    0  501 -0.74703118501E+01 -0.34106643613E+02  0.72904921832E+03  0.75010721329E+03  0.17300000000E+03 0. -1.
<mgrwt>
<rscale>  2 0.17648815E+03</rscale>
<asrwt>0</asrwt>
<pdfrwt beam="1">  1        2 0.18741420E+00 0.17648815E+03</pdfrwt>
<pdfrwt beam="2">  1       -2 0.41229112E-02 0.17648815E+03</pdfrwt>
<totfact> 0.50630293E+03</totfact>
</mgrwt>
</event>
<event>
 4    3  0.7748294E-001  0.1902008E+03  0.7546771E-02  0.1158280E+00
          1   -1    0    0  502    0  0.00000000000E+00  0.00000000000E+00  0.19077948272E+03  0.19077948272E+03  0.00000000000E+00 0. -1.
         -1   -1    0    0    0  501 -0.00000000000E+00 -0.00000000000E+00 -0.25471127905E+03  0.25471127905E+03  0.00000000000E+00 0.  1.
          6    1    1    2  502    0 -0.76690175486E+02 -0.19130207163E+02 -0.14456451098E+03  0.23890426048E+03  0.17300000000E+03 0.  1.
         -6    1    1    2    0  501  0.76690175486E+02  0.19130207163E+02  0.80632714644E+02  0.20658650128E+03  0.17300000000E+03 0. -1.
<mgrwt>
<rscale>  2 0.19020081E+03</rscale>
<asrwt>0</asrwt>
<pdfrwt beam="1">  1        1 0.29350690E-01 0.19020081E+03</pdfrwt>
<pdfrwt beam="2">  1       -1 0.39186351E-01 0.19020081E+03</pdfrwt>
<totfact> 0.99418018E+02</totfact>
</mgrwt>
</event>
<event>
 4    3  0.7748294E-001  0.1982222E+03  0.7546771E-02  0.1151248E+00
         -2   -1    0    0    0  501 -0.00000000000E+00  0.00000000000E+00  0.19272718985E+03  0.19272718985E+03  0.00000000000E+00 0. -1.
          2   -1    0    0  502    0  0.00000000000E+00 -0.00000000000E+00 -0.23027350653E+03  0.23027350653E+03  0.00000000000E+00 0.  1.
          6    1    1    2  502    0 -0.51364243341E+02 -0.82004509505E+02 -0.90385624012E+02  0.21785680182E+03  0.17300000000E+03 0.  1.
         -6    1    1    2    0  501  0.51364243341E+02  0.82004509505E+02  0.52839307338E+02  0.20514389455E+03  0.17300000000E+03 0. -1.
<mgrwt>
<rscale>  2 0.19822216E+03</rscale>
<asrwt>0</asrwt>
<pdfrwt beam="1">  1        2 0.35426693E-01 0.19822216E+03</pdfrwt>
<pdfrwt beam="2">  1       -2 0.29650337E-01 0.19822216E+03</pdfrwt>
<totfact> 0.15117395E+03</totfact>
</mgrwt>
</event>
<event>
 4    3  0.7748294E-001  0.2069172E+03  0.7546771E-02  0.1144031E+00
          2   -1    0    0  502    0  0.00000000000E+00  0.00000000000E+00  0.85204624130E+03  0.85204624130E+03  0.00000000000E+00 0.  1.
         -2   -1    0    0    0  501 -0.00000000000E+00 -0.00000000000E+00 -0.51775122128E+02  0.51775122128E+02  0.00000000000E+00 0. -1.
          6    1    1    2  502    0  0.25628547679E+01  0.11348646877E+03  0.47771394152E+03  0.52060095730E+03  0.17300000000E+03 0.  1.
         -6    1    1    2    0  501 -0.25628547679E+01 -0.11348646877E+03  0.32255717765E+03  0.38322040613E+03  0.17300000000E+03 0. -1.
<mgrwt>
<rscale>  2 0.20691725E+03</rscale>
<asrwt>0</asrwt>
<pdfrwt beam="1">  1        2 0.13108403E+00 0.20691725E+03</pdfrwt>
<pdfrwt beam="2">  1       -2 0.79654040E-02 0.20691725E+03</pdfrwt>
<totfact> 0.30873467E+03</totfact>
</mgrwt>
</event>
<event>
 4    3  0.7748294E-001  0.3218636E+03  0.7546771E-02  0.1074795E+00
         -2   -1    0    0    0  501 -0.00000000000E+00  0.00000000000E+00  0.69125519089E+02  0.69125519089E+02  0.00000000000E+00 0. -1.
          2   -1    0    0  502    0  0.00000000000E+00 -0.00000000000E+00 -0.26877390168E+04  0.26877390168E+04  0.00000000000E+00 0.  1.
          6    1    1    2  502    0 -0.24832473789E+03 -0.10955360336E+03 -0.22261516517E+04  0.22492993006E+04  0.17300000000E+03 0.  1.
         -6    1    1    2    0  501  0.24832473789E+03  0.10955360336E+03 -0.39246184598E+03  0.50756523523E+03  0.17300000000E+03 0. -1.
<mgrwt>
<rscale>  2 0.32186359E+03</rscale>
<asrwt>0</asrwt>
<pdfrwt beam="1">  1        2 0.41349818E+00 0.32186359E+03</pdfrwt>
<pdfrwt beam="2">  1       -2 0.10634699E-01 0.32186359E+03</pdfrwt>
<totfact> 0.18750231E+02</totfact>
</mgrwt>
</event>
<event>
 4    3  0.7748294E-001  0.3058442E+03  0.7546771E-02  0.1082355E+00
          1   -1    0    0  502    0  0.00000000000E+00  0.00000000000E+00  0.42851894285E+03  0.42851894285E+03  0.00000000000E+00 0.  1.
         -1   -1    0    0    0  501 -0.00000000000E+00 -0.00000000000E+00 -0.21838047371E+03  0.21838047371E+03  0.00000000000E+00 0. -1.
          6    1    1    2  502    0 -0.13585604254E+03 -0.21249666480E+03  0.98426233673E+02  0.32129179934E+03  0.17300000000E+03 0. -1.
         -6    1    1    2    0  501  0.13585604254E+03  0.21249666480E+03  0.11171223547E+03  0.32560761723E+03  0.17300000000E+03 0.  1.
<mgrwt>
<rscale>  2 0.30584424E+03</rscale>
<asrwt>0</asrwt>
<pdfrwt beam="1">  1        1 0.65925991E-01 0.30584424E+03</pdfrwt>
<pdfrwt beam="2">  1       -1 0.33596996E-01 0.30584424E+03</pdfrwt>
<totfact> 0.46718575E+02</totfact>
</mgrwt>
</event>
<event>
 4    3  0.7748294E-001  0.2001478E+03  0.7546771E-02  0.1149614E+00
         -2   -1    0    0    0  501 -0.00000000000E+00  0.00000000000E+00  0.46261238851E+02  0.46261238851E+02  0.00000000000E+00 0.  1.
          2   -1    0    0  502    0  0.00000000000E+00 -0.00000000000E+00 -0.13015976236E+04  0.13015976236E+04  0.00000000000E+00 0. -1.
          6    1    1    2  502    0  0.68591647831E+02 -0.73656726619E+02 -0.23776906776E+03  0.31079455772E+03  0.17300000000E+03 0. -1.
         -6    1    1    2    0  501 -0.68591647831E+02  0.73656726619E+02 -0.10175673170E+04  0.10370643047E+04  0.17300000000E+03 0. -1.
<mgrwt>
<rscale>  2 0.20014776E+03</rscale>
<asrwt>0</asrwt>
<pdfrwt beam="1">  1        2 0.20024581E+00 0.20014776E+03</pdfrwt>
<pdfrwt beam="2">  1       -2 0.71171128E-02 0.20014776E+03</pdfrwt>
<totfact> 0.19888487E+03</totfact>
</mgrwt>
</event>
<event>
 4    3  0.7748294E-001  0.1798180E+03  0.7546771E-02  0.1167979E+00
         -2   -1    0    0    0  501 -0.00000000000E+00  0.00000000000E+00  0.95967841335E+02  0.95967841335E+02  0.00000000000E+00 0. -1.
          2   -1    0    0  502    0  0.00000000000E+00 -0.00000000000E+00 -0.36691019372E+03  0.36691019372E+03  0.00000000000E+00 0.  1.
          6    1    1    2  502    0 -0.34232683423E+02  0.35123355186E+02 -0.20162694537E+03  0.27016282459E+03  0.17300000000E+03 0.  1.
         -6    1    1    2    0  501  0.34232683423E+02 -0.35123355186E+02 -0.69315407018E+02  0.19271521046E+03  0.17300000000E+03 0. -1.
<mgrwt>
<rscale>  2 0.17981804E+03</rscale>
<asrwt>0</asrwt>
<pdfrwt beam="1">  1        2 0.56447722E-01 0.17981804E+03</pdfrwt>
<pdfrwt beam="2">  1       -2 0.14764283E-01 0.17981804E+03</pdfrwt>
<totfact> 0.30281293E+03</totfact>
</mgrwt>
</event>
<event>
 4    3  0.7748294E-001  0.2341622E+03  0.7546771E-02  0.1123744E+00
          1   -1    0    0  502    0  0.00000000000E+00  0.00000000000E+00  0.69628843994E+03  0.69628843994E+03  0.00000000000E+00 0. -1.
         -1   -1    0    0    0  501 -0.00000000000E+00 -0.00000000000E+00 -0.12715986457E+03  0.12715986457E+03  0.00000000000E+00 0.  1.
          6    1    1    2  502    0  0.76234379199E+02  0.13817114598E+03  0.30523646507E+02  0.23614325980E+03  0.17300000000E+03 0.  1.
         -6    1    1    2    0  501 -0.76234379199E+02 -0.13817114598E+03  0.53860492886E+03  0.58730504471E+03  0.17300000000E+03 0. -1.
<mgrwt>
<rscale>  2 0.23416222E+03</rscale>
<asrwt>0</asrwt>
<pdfrwt beam="1">  1        1 0.10712130E+00 0.23416222E+03</pdfrwt>
<pdfrwt beam="2">  1       -1 0.19563057E-01 0.23416222E+03</pdfrwt>
<totfact> 0.59788487E+02</totfact>
</mgrwt>
</event>
<event>
 4    3  0.7748294E-001  0.1819365E+03  0.7546771E-02  0.1165942E+00
         -2   -1    0    0    0  501 -0.00000000000E+00  0.00000000000E+00  0.16984015109E+02  0.16984015109E+02  0.00000000000E+00 0.  1.
          2   -1    0    0  502    0  0.00000000000E+00 -0.00000000000E+00 -0.19504836449E+04  0.19504836449E+04  0.00000000000E+00 0. -1.
          6    1    1    2  502    0 -0.48151593623E+02  0.29211249967E+02 -0.93909994284E+03  0.95656132879E+03  0.17300000000E+03 0. -1.
         -6    1    1    2    0  501  0.48151593623E+02 -0.29211249967E+02 -0.99439968694E+03  0.10109063312E+04  0.17300000000E+03 0. -1.
<mgrwt>
<rscale>  2 0.18193645E+03</rscale>
<asrwt>0</asrwt>
<pdfrwt beam="1">  1        2 0.30007439E+00 0.18193645E+03</pdfrwt>
<pdfrwt beam="2">  1       -2 0.26129255E-02 0.18193645E+03</pdfrwt>
<totfact> 0.40981077E+03</totfact>
</mgrwt>
</event>
<event>
 4    3  0.7748294E-001  0.1903034E+03  0.7546771E-02  0.1158188E+00
          1   -1    0    0  502    0  0.00000000000E+00  0.00000000000E+00  0.44769785165E+03  0.44769785165E+03  0.00000000000E+00 0.  1.
         -1   -1    0    0    0  501 -0.00000000000E+00 -0.00000000000E+00 -0.86606906005E+02  0.86606906005E+02  0.00000000000E+00 0. -1.
          6    1    1    2  502    0  0.84512189583E+01  0.78835114271E+02  0.11192268764E+03  0.22077610005E+03  0.17300000000E+03 0. -1.
         -6    1    1    2    0  501 -0.84512189583E+01 -0.78835114271E+02  0.24916825801E+03  0.31352865761E+03  0.17300000000E+03 0.  1.
<mgrwt>
<rscale>  2 0.19030344E+03</rscale>
<asrwt>0</asrwt>
<pdfrwt beam="1">  1        1 0.68876591E-01 0.19030344E+03</pdfrwt>
<pdfrwt beam="2">  1       -1 0.13324140E-01 0.19030344E+03</pdfrwt>
<totfact> 0.20106518E+03</totfact>
</mgrwt>
</event>
<event>
 4    3  0.7748294E-001  0.2067614E+03  0.7546771E-02  0.1144157E+00
         -1   -1    0    0    0  501 -0.00000000000E+00  0.00000000000E+00  0.59398958968E+03  0.59398958968E+03  0.00000000000E+00 0. -1.
          1   -1    0    0  502    0  0.00000000000E+00 -0.00000000000E+00 -0.77578351628E+02  0.77578351628E+02  0.00000000000E+00 0.  1.
          6    1    1    2  502    0  0.53502497787E+02  0.99793555678E+02  0.34847750710E+03  0.40519975812E+03  0.17300000000E+03 0.  1.
         -6    1    1    2    0  501 -0.53502497787E+02 -0.99793555678E+02  0.16793373095E+03  0.26636818319E+03  0.17300000000E+03 0.  1.
<mgrwt>
<rscale>  2 0.20676139E+03</rscale>
<asrwt>0</asrwt>
<pdfrwt beam="1">  1        1 0.11935131E-01 0.20676139E+03</pdfrwt>
<pdfrwt beam="2">  1       -1 0.91383011E-01 0.20676139E+03</pdfrwt>
<totfact> 0.62082043E+02</totfact>
</mgrwt>
</event>
<event>
 4    3  0.7748294E-001  0.1923265E+03  0.7546771E-02  0.1156380E+00
         -1   -1    0    0    0  501 -0.00000000000E+00  0.00000000000E+00  0.80261215847E+02  0.80261215847E+02  0.00000000000E+00 0.  1.
          1   -1    0    0  502    0  0.00000000000E+00 -0.00000000000E+00 -0.50958182507E+03  0.50958182507E+03  0.00000000000E+00 0. -1.
          6    1    1    2  502    0  0.78197579481E+02  0.30751091639E+02 -0.30584967505E+03  0.36129422193E+03  0.17300000000E+03 0. -1.
         -6    1    1    2    0  501 -0.78197579481E+02 -0.30751091639E+02 -0.12347093417E+03  0.22854881898E+03  0.17300000000E+03 0. -1.
<mgrwt>
<rscale>  2 0.19232652E+03</rscale>
<asrwt>0</asrwt>
<pdfrwt beam="1">  1        1 0.78397204E-01 0.19232652E+03</pdfrwt>
<pdfrwt beam="2">  1       -1 0.12347879E-01 0.19232652E+03</pdfrwt>
<totfact> 0.19120698E+03</totfact>
</mgrwt>
</event>
<event>
 4    3  0.7748294E-001  0.3245587E+03  0.7546771E-02  0.1073570E+00
          3   -1    0    0  502    0  0.00000000000E+00  0.00000000000E+00  0.51958228289E+03  0.51958228289E+03  0.00000000000E+00 0.  1.
         -3   -1    0    0    0  501 -0.00000000000E+00 -0.00000000000E+00 -0.24062223269E+03  0.24062223269E+03  0.00000000000E+00 0. -1.
          6    1    1    2  502    0  0.25356915433E+03  0.10541375241E+03  0.29030369951E+03  0.43544760095E+03  0.17300000000E+03 0. -1.
         -6    1    1    2    0  501 -0.25356915433E+03 -0.10541375241E+03 -0.11343649309E+02  0.32475691464E+03  0.17300000000E+03 0.  1.
<mgrwt>
<rscale>  2 0.32455874E+03</rscale>
<asrwt>0</asrwt>
<pdfrwt beam="1">  1        3 0.79935735E-01 0.32455874E+03</pdfrwt>
<pdfrwt beam="2">  1       -3 0.37018805E-01 0.32455874E+03</pdfrwt>
<totfact> 0.27041783E+01</totfact>
</mgrwt>
</event>
<event>
 4    3  0.7748294E-001  0.2115471E+03  0.7546771E-02  0.1140347E+00
          2   -1    0    0  502    0  0.00000000000E+00  0.00000000000E+00  0.35644103347E+03  0.35644103347E+03  0.00000000000E+00 0.  1.
         -2   -1    0    0    0  501 -0.00000000000E+00 -0.00000000000E+00 -0.12564072822E+03  0.12564072822E+03  0.00000000000E+00 0. -1.
          6    1    1    2  502    0 -0.69737951567E+02 -0.99798870792E+02  0.10902626395E+03  0.23798933323E+03  0.17300000000E+03 0.  1.
         -6    1    1    2    0  501  0.69737951567E+02  0.99798870792E+02  0.12177404130E+03  0.24409242847E+03  0.17300000000E+03 0.  1.
<mgrwt>
<rscale>  2 0.21154715E+03</rscale>
<asrwt>0</asrwt>
<pdfrwt beam="1">  1        2 0.54837082E-01 0.21154715E+03</pdfrwt>
<pdfrwt beam="2">  1       -2 0.19329343E-01 0.21154715E+03</pdfrwt>
<totfact> 0.20024751E+03</totfact>
</mgrwt>
</event>
<event>
 4    3  0.7748294E-001  0.2205207E+03  0.7546771E-02  0.1133495E+00
          1   -1    0    0  502    0  0.00000000000E+00  0.00000000000E+00  0.11069828069E+04  0.11069828069E+04  0.00000000000E+00 0. -1.
         -1   -1    0    0    0  501 -0.00000000000E+00 -0.00000000000E+00 -0.68792825691E+02  0.68792825691E+02  0.00000000000E+00 0.  1.
          6    1    1    2  502    0 -0.12343648109E+03  0.58854352529E+02  0.87252297106E+03  0.89995874056E+03  0.17300000000E+03 0. -1.
         -6    1    1    2    0  501  0.12343648109E+03 -0.58854352529E+02  0.16566701013E+03  0.27581689202E+03  0.17300000000E+03 0.  1.
<mgrwt>
<rscale>  2 0.22052075E+03</rscale>
<asrwt>0</asrwt>
<pdfrwt beam="1">  1        1 0.17030503E+00 0.22052075E+03</pdfrwt>
<pdfrwt beam="2">  1       -1 0.10583512E-01 0.22052075E+03</pdfrwt>
<totfact> 0.74850796E+02</totfact>
</mgrwt>
</event>
<event>
 4    3  0.7748294E-001  0.2801250E+03  0.7546771E-02  0.1095621E+00
         -2   -1    0    0    0  501 -0.00000000000E+00  0.00000000000E+00  0.14948774719E+03  0.14948774719E+03  0.00000000000E+00 0. -1.
          2   -1    0    0  502    0  0.00000000000E+00 -0.00000000000E+00 -0.58334443754E+03  0.58334443754E+03  0.00000000000E+00 0.  1.
          6    1    1    2  502    0  0.21646428871E+03  0.41039319627E+02 -0.10097407236E+03  0.29776799246E+03  0.17300000000E+03 0.  1.
         -6    1    1    2    0  501 -0.21646428871E+03 -0.41039319627E+02 -0.33288261798E+03  0.43506419228E+03  0.17300000000E+03 0.  1.
<mgrwt>
<rscale>  2 0.28012500E+03</rscale>
<asrwt>0</asrwt>
<pdfrwt beam="1">  1        2 0.89745297E-01 0.28012500E+03</pdfrwt>
<pdfrwt beam="2">  1       -2 0.22998115E-01 0.28012500E+03</pdfrwt>
<totfact> 0.86157717E+02</totfact>
</mgrwt>
</event>
<event>
 4    3  0.7748294E-001  0.2009077E+03  0.7546771E-02  0.1148975E+00
          1   -1    0    0  502    0  0.00000000000E+00  0.00000000000E+00  0.10070959274E+04  0.10070959274E+04  0.00000000000E+00 0. -1.
         -1   -1    0    0    0  501 -0.00000000000E+00 -0.00000000000E+00 -0.40601512077E+02  0.40601512077E+02  0.00000000000E+00 0.  1.
          6    1    1    2  502    0 -0.26791435397E+02  0.98575375522E+02  0.54264652896E+03  0.57864422668E+03  0.17300000000E+03 0. -1.
         -6    1    1    2    0  501  0.26791435397E+02 -0.98575375522E+02  0.42384788640E+03  0.46905321284E+03  0.17300000000E+03 0.  1.
<mgrwt>
<rscale>  2 0.20090765E+03</rscale>
<asrwt>0</asrwt>
<pdfrwt beam="1">  1        1 0.15493782E+00 0.20090765E+03</pdfrwt>
<pdfrwt beam="2">  1       -1 0.62463872E-02 0.20090765E+03</pdfrwt>
<totfact> 0.19798979E+03</totfact>
</mgrwt>
</event>
<event>
 4    3  0.7748294E-001  0.2443175E+03  0.7546771E-02  0.1116950E+00
          2   -1    0    0  502    0  0.00000000000E+00  0.00000000000E+00  0.18799129962E+04  0.18799129962E+04  0.00000000000E+00 0.  1.
         -2   -1    0    0    0  501 -0.00000000000E+00 -0.00000000000E+00 -0.33411828774E+02  0.33411828774E+02  0.00000000000E+00 0. -1.
          6    1    1    2  502    0  0.11276862544E+03  0.13055762607E+03  0.11364745980E+04  0.11624394902E+04  0.17300000000E+03 0.  1.
         -6    1    1    2    0  501 -0.11276862544E+03 -0.13055762607E+03  0.71002656951E+03  0.75088533480E+03  0.17300000000E+03 0. -1.
<mgrwt>
<rscale>  2 0.24431753E+03</rscale>
<asrwt>0</asrwt>
<pdfrwt beam="1">  1        2 0.28921730E+00 0.24431753E+03</pdfrwt>
<pdfrwt beam="2">  1       -2 0.51402828E-02 0.24431753E+03</pdfrwt>
<totfact> 0.16156712E+03</totfact>
</mgrwt>
</event>
<event>
 4    3  0.7748294E-001  0.1909847E+03  0.7546771E-02  0.1157576E+00
         -4   -1    0    0    0  501 -0.00000000000E+00  0.00000000000E+00  0.15185672098E+03  0.15185672098E+03  0.00000000000E+00 0.  1.
          4   -1    0    0  502    0  0.00000000000E+00 -0.00000000000E+00 -0.51746512809E+03  0.51746512809E+03  0.00000000000E+00 0. -1.
          6    1    1    2  502    0 -0.13254608359E+00  0.80908186279E+02  0.62167758198E+02  0.20084815741E+03  0.17300000000E+03 0.  1.
         -6    1    1    2    0  501  0.13254608359E+00 -0.80908186279E+02 -0.42777616531E+03  0.46847369166E+03  0.17300000000E+03 0. -1.
<mgrwt>
<rscale>  2 0.19098469E+03</rscale>
<asrwt>0</asrwt>
<pdfrwt beam="1">  1        4 0.79610019E-01 0.19098469E+03</pdfrwt>
<pdfrwt beam="2">  1       -4 0.23362573E-01 0.19098469E+03</pdfrwt>
<totfact> 0.43092050E+01</totfact>
</mgrwt>
</event>
<event>
 4    3  0.7748294E-001  0.2102906E+03  0.7546771E-02  0.1141336E+00
          2   -1    0    0  502    0  0.00000000000E+00  0.00000000000E+00  0.14678212964E+04  0.14678212964E+04  0.00000000000E+00 0. -1.
         -2   -1    0    0    0  501 -0.00000000000E+00 -0.00000000000E+00 -0.30129137498E+02  0.30129137498E+02  0.00000000000E+00 0.  1.
          6    1    1    2  502    0  0.10403981687E+03 -0.58896883044E+02  0.72396198341E+03  0.75388532268E+03  0.17300000000E+03 0. -1.
         -6    1    1    2    0  501 -0.10403981687E+03  0.58896883044E+02  0.71373017547E+03  0.74406511120E+03  0.17300000000E+03 0. -1.
<mgrwt>
<rscale>  2 0.21029058E+03</rscale>
<asrwt>0</asrwt>
<pdfrwt beam="1">  1        2 0.22581860E+00 0.21029058E+03</pdfrwt>
<pdfrwt beam="2">  1       -2 0.46352531E-02 0.21029058E+03</pdfrwt>
<totfact> 0.31155543E+03</totfact>
</mgrwt>
</event>
<event>
 4    3  0.7748294E-001  0.1747614E+03  0.7546771E-02  0.1172972E+00
         -2   -1    0    0    0  501 -0.00000000000E+00  0.00000000000E+00  0.30293314412E+02  0.30293314412E+02  0.00000000000E+00 0. -1.
          2   -1    0    0  502    0  0.00000000000E+00 -0.00000000000E+00 -0.11536048968E+04  0.11536048968E+04  0.00000000000E+00 0.  1.
          6    1    1    2  502    0 -0.24617910720E+02 -0.25480443298E+01 -0.77181793292E+03  0.79135608649E+03  0.17300000000E+03 0.  1.
         -6    1    1    2    0  501  0.24617910720E+02  0.25480443298E+01 -0.35149364945E+03  0.39254212469E+03  0.17300000000E+03 0. -1.
<mgrwt>
<rscale>  2 0.17476136E+03</rscale>
<asrwt>0</asrwt>
<pdfrwt beam="1">  1        2 0.17747768E+00 0.17476136E+03</pdfrwt>
<pdfrwt beam="2">  1       -2 0.46605098E-02 0.17476136E+03</pdfrwt>
<totfact> 0.45779858E+03</totfact>
</mgrwt>
</event>
<event>
 4    3  0.7748294E-001  0.2029319E+03  0.7546771E-02  0.1147289E+00
          2   -1    0    0  502    0  0.00000000000E+00  0.00000000000E+00  0.43319447747E+03  0.43319447747E+03  0.00000000000E+00 0. -1.
         -2   -1    0    0    0  501 -0.00000000000E+00 -0.00000000000E+00 -0.98407289825E+02  0.98407289825E+02  0.00000000000E+00 0.  1.
          6    1    1    2  502    0  0.40102123858E+02  0.98204808910E+02  0.21638332472E+03  0.29665317805E+03  0.17300000000E+03 0. -1.
         -6    1    1    2    0  501 -0.40102123858E+02 -0.98204808910E+02  0.11840386292E+03  0.23494858924E+03  0.17300000000E+03 0.  1.
<mgrwt>
<rscale>  2 0.20293192E+03</rscale>
<asrwt>0</asrwt>
<pdfrwt beam="1">  1        2 0.66645303E-01 0.20293192E+03</pdfrwt>
<pdfrwt beam="2">  1       -2 0.15139583E-01 0.20293192E+03</pdfrwt>
<totfact> 0.24376592E+03</totfact>
</mgrwt>
</event>
<event>
 4    3  0.7748294E-001  0.1755151E+03  0.7546771E-02  0.1172215E+00
         -2   -1    0    0    0  501 -0.00000000000E+00  0.00000000000E+00  0.40353132286E+02  0.40353132286E+02  0.00000000000E+00 0.  1.
          2   -1    0    0  502    0  0.00000000000E+00 -0.00000000000E+00 -0.82140285461E+03  0.82140285461E+03  0.00000000000E+00 0. -1.
          6    1    1    2  502    0 -0.27066071308E+02 -0.11999774875E+02 -0.27602572051E+03  0.32710207152E+03  0.17300000000E+03 0.  1.
         -6    1    1    2    0  501  0.27066071308E+02  0.11999774875E+02 -0.50502400182E+03  0.53465391538E+03  0.17300000000E+03 0. -1.
<mgrwt>
<rscale>  2 0.17551515E+03</rscale>
<asrwt>0</asrwt>
<pdfrwt beam="1">  1        2 0.12636967E+00 0.17551515E+03</pdfrwt>
<pdfrwt beam="2">  1       -2 0.62081744E-02 0.17551515E+03</pdfrwt>
<totfact> 0.47319271E+03</totfact>
</mgrwt>
</event>
<event>
 4    3  0.7748294E-001  0.2435034E+03  0.7546771E-02  0.1117481E+00
          2   -1    0    0  502    0  0.00000000000E+00  0.00000000000E+00  0.15321199717E+04  0.15321199717E+04  0.00000000000E+00 0. -1.
         -2   -1    0    0    0  501 -0.00000000000E+00 -0.00000000000E+00 -0.39042517738E+02  0.39042517738E+02  0.00000000000E+00 0.  1.
          6    1    1    2  502    0 -0.99743147946E+02  0.13934208230E+03  0.67301897471E+03  0.71571534270E+03  0.17300000000E+03 0.  1.
         -6    1    1    2    0  501  0.99743147946E+02 -0.13934208230E+03  0.82005847922E+03  0.85544714670E+03  0.17300000000E+03 0. -1.
<mgrwt>
<rscale>  2 0.24350341E+03</rscale>
<asrwt>0</asrwt>
<pdfrwt beam="1">  1        2 0.23571072E+00 0.24350341E+03</pdfrwt>
<pdfrwt beam="2">  1       -2 0.60065424E-02 0.24350341E+03</pdfrwt>
<totfact> 0.19396827E+03</totfact>
</mgrwt>
</event>
<event>
 4    3  0.7748294E-001  0.2484753E+03  0.7546771E-02  0.1114272E+00
         -1   -1    0    0    0  501 -0.00000000000E+00  0.00000000000E+00  0.57743956556E+03  0.57743956556E+03  0.00000000000E+00 0.  1.
          1   -1    0    0  502    0  0.00000000000E+00 -0.00000000000E+00 -0.10978846840E+03  0.10978846840E+03  0.00000000000E+00 0. -1.
          6    1    1    2  502    0 -0.14313431211E+03 -0.10641206576E+03  0.17828608000E+03  0.30582002120E+03  0.17300000000E+03 0.  1.
         -6    1    1    2    0  501  0.14313431211E+03  0.10641206576E+03  0.28936501716E+03  0.38140801276E+03  0.17300000000E+03 0. -1.
<mgrwt>
<rscale>  2 0.24847527E+03</rscale>
<asrwt>0</asrwt>
<pdfrwt beam="1">  1        1 0.16890534E-01 0.24847527E+03</pdfrwt>
<pdfrwt beam="2">  1       -1 0.88836855E-01 0.24847527E+03</pdfrwt>
<totfact> 0.41755445E+02</totfact>
</mgrwt>
</event>
<event>
 4    3  0.7748294E-001  0.2192973E+03  0.7546771E-02  0.1134408E+00
         -2   -1    0    0    0  501 -0.00000000000E+00  0.00000000000E+00  0.12563920666E+04  0.12563920666E+04  0.00000000000E+00 0. -1.
          2   -1    0    0  502    0  0.00000000000E+00 -0.00000000000E+00 -0.46591280675E+02  0.46591280675E+02  0.00000000000E+00 0.  1.
          6    1    1    2  502    0 -0.98005172970E+02  0.92505739699E+02  0.88010799882E+03  0.90701786939E+03  0.17300000000E+03 0. -1.
         -6    1    1    2    0  501  0.98005172970E+02 -0.92505739699E+02  0.32969278710E+03  0.39596547787E+03  0.17300000000E+03 0.  1.
<mgrwt>
<rscale>  2 0.21929735E+03</rscale>
<asrwt>0</asrwt>
<pdfrwt beam="1">  1        2 0.71678903E-02 0.21929735E+03</pdfrwt>
<pdfrwt beam="2">  1       -2 0.19329106E+00 0.21929735E+03</pdfrwt>
<totfact> 0.15596621E+02</totfact>
</mgrwt>
</event>
<event>
 4    3  0.7748294E-001  0.1789550E+03  0.7546771E-02  0.1168818E+00
         -1   -1    0    0    0  501 -0.00000000000E+00  0.00000000000E+00  0.25516927208E+02  0.25516927208E+02  0.00000000000E+00 0.  1.
          1   -1    0    0  502    0  0.00000000000E+00 -0.00000000000E+00 -0.12957702870E+04  0.12957702870E+04  0.00000000000E+00 0. -1.
          6    1    1    2  502    0 -0.35593615203E+02  0.28792329285E+02 -0.75224716093E+03  0.77324038616E+03  0.17300000000E+03 0.  1.
         -6    1    1    2    0  501  0.35593615203E+02 -0.28792329285E+02 -0.51800619888E+03  0.54804682806E+03  0.17300000000E+03 0.  1.
<mgrwt>
<rscale>  2 0.17895503E+03</rscale>
<asrwt>0</asrwt>
<pdfrwt beam="1">  1        1 0.19934925E+00 0.17895503E+03</pdfrwt>
<pdfrwt beam="2">  1       -1 0.39256815E-02 0.17895503E+03</pdfrwt>
<totfact> 0.24759470E+03</totfact>
</mgrwt>
</event>
<event>
 4    3  0.7748294E-001  0.1945439E+03  0.7546771E-02  0.1154426E+00
          2   -1    0    0  502    0  0.00000000000E+00  0.00000000000E+00  0.89356274342E+03  0.89356274342E+03  0.00000000000E+00 0.  1.
         -2   -1    0    0    0  501 -0.00000000000E+00 -0.00000000000E+00 -0.42357523922E+02  0.42357523922E+02  0.00000000000E+00 0. -1.
          6    1    1    2  502    0  0.79007785259E+02  0.40939957626E+02  0.42237994228E+03  0.46502916673E+03  0.17300000000E+03 0. -1.
         -6    1    1    2    0  501 -0.79007785259E+02 -0.40939957626E+02  0.42882527721E+03  0.47089110061E+03  0.17300000000E+03 0.  1.
<mgrwt>
<rscale>  2 0.19454385E+03</rscale>
<asrwt>0</asrwt>
<pdfrwt beam="1">  1        2 0.13747118E+00 0.19454385E+03</pdfrwt>
<pdfrwt beam="2">  1       -2 0.65165428E-02 0.19454385E+03</pdfrwt>
<totfact> 0.39520695E+03</totfact>
</mgrwt>
</event>
<event>
 4    3  0.7748294E-001  0.2132042E+03  0.7546771E-02  0.1139053E+00
          1   -1    0    0  502    0  0.00000000000E+00  0.00000000000E+00  0.52914367984E+03  0.52914367984E+03  0.00000000000E+00 0.  1.
         -1   -1    0    0    0  501 -0.00000000000E+00 -0.00000000000E+00 -0.11890393742E+03  0.11890393742E+03  0.00000000000E+00 0. -1.
          6    1    1    2  502    0 -0.17744870836E+02 -0.12333762027E+03  0.37581819825E+03  0.43208259297E+03  0.17300000000E+03 0.  1.
         -6    1    1    2    0  501  0.17744870836E+02  0.12333762027E+03  0.34421544170E+02  0.21596502429E+03  0.17300000000E+03 0. -1.
<mgrwt>
<rscale>  2 0.21320424E+03</rscale>
<asrwt>0</asrwt>
<pdfrwt beam="1">  1        1 0.81406719E-01 0.21320424E+03</pdfrwt>
<pdfrwt beam="2">  1       -1 0.18292914E-01 0.21320424E+03</pdfrwt>
<totfact> 0.97718265E+02</totfact>
</mgrwt>
</event>
<event>
 4    3  0.7748294E-001  0.1752871E+03  0.7546771E-02  0.1172444E+00
         -1   -1    0    0    0  501 -0.00000000000E+00  0.00000000000E+00  0.39048014844E+03  0.39048014844E+03  0.00000000000E+00 0.  1.
          1   -1    0    0  502    0  0.00000000000E+00 -0.00000000000E+00 -0.81286285812E+02  0.81286285812E+02  0.00000000000E+00 0. -1.
          6    1    1    2  502    0 -0.18445683846E+01 -0.28162982475E+02  0.11241284271E+03  0.20823593163E+03  0.17300000000E+03 0. -1.
         -6    1    1    2    0  501  0.18445683846E+01  0.28162982475E+02  0.19678101992E+03  0.26353050263E+03  0.17300000000E+03 0.  1.
<mgrwt>
<rscale>  2 0.17528707E+03</rscale>
<asrwt>0</asrwt>
<pdfrwt beam="1">  1        1 0.12505583E-01 0.17528707E+03</pdfrwt>
<pdfrwt beam="2">  1       -1 0.60073868E-01 0.17528707E+03</pdfrwt>
<totfact> 0.13600642E+03</totfact>
</mgrwt>
</event>
<event>
 4    3  0.7748294E-001  0.1735700E+03  0.7546771E-02  0.1174175E+00
         -1   -1    0    0    0  501 -0.00000000000E+00  0.00000000000E+00  0.96423278175E+02  0.96423278175E+02  0.00000000000E+00 0.  1.
          1   -1    0    0  502    0  0.00000000000E+00 -0.00000000000E+00 -0.37731548924E+03  0.37731548924E+03  0.00000000000E+00 0. -1.
          6    1    1    2  502    0 -0.57850415618E+01 -0.12809042536E+02 -0.42227169166E+02  0.17863278560E+03  0.17300000000E+03 0.  1.
         -6    1    1    2    0  501  0.57850415618E+01  0.12809042536E+02 -0.23866504190E+03  0.29510598182E+03  0.17300000000E+03 0. -1.
<mgrwt>
<rscale>  2 0.17356998E+03</rscale>
<asrwt>0</asrwt>
<pdfrwt beam="1">  1        1 0.58048537E-01 0.17356998E+03</pdfrwt>
<pdfrwt beam="2">  1       -1 0.14834350E-01 0.17356998E+03</pdfrwt>
<totfact> 0.21081630E+03</totfact>
</mgrwt>
</event>
<event>
 4    3  0.7748294E-001  0.1926785E+03  0.7546771E-02  0.1156067E+00
         -1   -1    0    0    0  501 -0.00000000000E+00  0.00000000000E+00  0.25652088654E+03  0.25652088654E+03  0.00000000000E+00 0.  1.
          1   -1    0    0  502    0  0.00000000000E+00 -0.00000000000E+00 -0.16629842207E+03  0.16629842207E+03  0.00000000000E+00 0. -1.
          6    1    1    2  502    0 -0.82877865172E+02  0.18090822688E+02 -0.31033343864E+02  0.19516169407E+03  0.17300000000E+03 0. -1.
         -6    1    1    2    0  501  0.82877865172E+02 -0.18090822688E+02  0.12125580834E+03  0.22765761454E+03  0.17300000000E+03 0.  1.
<mgrwt>
<rscale>  2 0.19267854E+03</rscale>
<asrwt>0</asrwt>
<pdfrwt beam="1">  1        1 0.25584373E-01 0.19267854E+03</pdfrwt>
<pdfrwt beam="2">  1       -1 0.39464752E-01 0.19267854E+03</pdfrwt>
<totfact> 0.11678636E+03</totfact>
</mgrwt>
</event>
<event>
 4    3  0.7748294E-001  0.4762277E+03  0.7546771E-02  0.1020177E+00
         -2   -1    0    0    0  501 -0.00000000000E+00  0.00000000000E+00  0.89986800781E+03  0.89986800781E+03  0.00000000000E+00 0.  1.
          2   -1    0    0  502    0  0.00000000000E+00 -0.00000000000E+00 -0.27275976915E+03  0.27275976915E+03  0.00000000000E+00 0. -1.
          6    1    1    2  502    0  0.12644366551E+03 -0.42529493287E+03  0.47519393895E+03  0.67275705875E+03  0.17300000000E+03 0. -1.
         -6    1    1    2    0  501 -0.12644366551E+03  0.42529493287E+03  0.15191429970E+03  0.49987071822E+03  0.17300000000E+03 0.  1.
<mgrwt>
<rscale>  2 0.47622766E+03</rscale>
<asrwt>0</asrwt>
<pdfrwt beam="1">  1        2 0.41963042E-01 0.47622766E+03</pdfrwt>
<pdfrwt beam="2">  1       -2 0.13844123E+00 0.47622766E+03</pdfrwt>
<totfact> 0.46548262E+01</totfact>
</mgrwt>
</event>
<event>
 4    3  0.7748294E-001  0.2131282E+03  0.7546771E-02  0.1139112E+00
          1   -1    0    0  502    0  0.00000000000E+00  0.00000000000E+00  0.22325035310E+03  0.22325035310E+03  0.00000000000E+00 0. -1.
         -1   -1    0    0    0  501 -0.00000000000E+00 -0.00000000000E+00 -0.37438311990E+03  0.37438311990E+03  0.00000000000E+00 0.  1.
          6    1    1    2  502    0  0.11954090100E+03 -0.34707246331E+02  0.12633575420E+03  0.24775863809E+03  0.17300000000E+03 0. -1.
         -6    1    1    2    0  501 -0.11954090100E+03  0.34707246331E+02 -0.27746852100E+03  0.34987483491E+03  0.17300000000E+03 0.  1.
<mgrwt>
<rscale>  2 0.21312818E+03</rscale>
<asrwt>0</asrwt>
<pdfrwt beam="1">  1        1 0.34346208E-01 0.21312818E+03</pdfrwt>
<pdfrwt beam="2">  1       -1 0.57597403E-01 0.21312818E+03</pdfrwt>
<totfact> 0.40389755E+02</totfact>
</mgrwt>
</event>
<event>
 4    3  0.7748294E-001  0.2603277E+03  0.7546771E-02  0.1106946E+00
         -3   -1    0    0    0  501 -0.00000000000E+00  0.00000000000E+00  0.18723862082E+03  0.18723862082E+03  0.00000000000E+00 0.  1.
          3   -1    0    0  502    0  0.00000000000E+00 -0.00000000000E+00 -0.46148955264E+03  0.46148955264E+03  0.00000000000E+00 0. -1.
          6    1    1    2  502    0 -0.19452015608E+03  0.18533578598E+01  0.13519772803E+02  0.26067855744E+03  0.17300000000E+03 0. -1.
         -6    1    1    2    0  501  0.19452015608E+03 -0.18533578598E+01 -0.28777070461E+03  0.38804961601E+03  0.17300000000E+03 0. -1.
<mgrwt>
<rscale>  2 0.26032773E+03</rscale>
<asrwt>0</asrwt>
<pdfrwt beam="1">  1        3 0.70998392E-01 0.26032773E+03</pdfrwt>
<pdfrwt beam="2">  1       -3 0.28805942E-01 0.26032773E+03</pdfrwt>
<totfact> 0.55693037E+01</totfact>
</mgrwt>
</event>
<event>
 4    3  0.7748294E-001  0.1986136E+03  0.7546771E-02  0.1150914E+00
          1   -1    0    0  502    0  0.00000000000E+00  0.00000000000E+00  0.54901342258E+03  0.54901342258E+03  0.00000000000E+00 0.  1.
         -1   -1    0    0    0  501 -0.00000000000E+00 -0.00000000000E+00 -0.91735241596E+02  0.91735241596E+02  0.00000000000E+00 0. -1.
          6    1    1    2  502    0  0.36730515581E+02 -0.90383854650E+02  0.79483348499E+02  0.21392749857E+03  0.17300000000E+03 0.  1.
         -6    1    1    2    0  501 -0.36730515581E+02  0.90383854650E+02  0.37779483248E+03  0.42682116560E+03  0.17300000000E+03 0. -1.
<mgrwt>
<rscale>  2 0.19861362E+03</rscale>
<asrwt>0</asrwt>
<pdfrwt beam="1">  1        1 0.84463602E-01 0.19861362E+03</pdfrwt>
<pdfrwt beam="2">  1       -1 0.14113114E-01 0.19861362E+03</pdfrwt>
<totfact> 0.14045698E+03</totfact>
</mgrwt>
</event>
<event>
 4    3  0.7748294E-001  0.1962331E+03  0.7546771E-02  0.1152957E+00
          1   -1    0    0  502    0  0.00000000000E+00  0.00000000000E+00  0.92008478122E+03  0.92008478122E+03  0.00000000000E+00 0. -1.
         -1   -1    0    0    0  501 -0.00000000000E+00 -0.00000000000E+00 -0.79019373665E+02  0.79019373665E+02  0.00000000000E+00 0.  1.
          6    1    1    2  502    0  0.69084240292E+02 -0.61691192551E+02  0.77926979497E+02  0.21113988166E+03  0.17300000000E+03 0.  1.
         -6    1    1    2    0  501 -0.69084240292E+02  0.61691192551E+02  0.76313842806E+03  0.78796427322E+03  0.17300000000E+03 0. -1.
<mgrwt>
<rscale>  2 0.19623312E+03</rscale>
<asrwt>0</asrwt>
<pdfrwt beam="1">  1        1 0.14155150E+00 0.19623312E+03</pdfrwt>
<pdfrwt beam="2">  1       -1 0.12156827E-01 0.19623312E+03</pdfrwt>
<totfact> 0.83130891E+02</totfact>
</mgrwt>
</event>
<event>
 4    3  0.7748294E-001  0.1827958E+03  0.7546771E-02  0.1165124E+00
          1   -1    0    0  502    0  0.00000000000E+00  0.00000000000E+00  0.90664504554E+03  0.90664504554E+03  0.00000000000E+00 0. -1.
         -1   -1    0    0    0  501 -0.00000000000E+00 -0.00000000000E+00 -0.39626648436E+02  0.39626648436E+02  0.00000000000E+00 0.  1.
          6    1    1    2  502    0  0.46266843908E+02 -0.36669969550E+02  0.30837687235E+03  0.35848375544E+03  0.17300000000E+03 0.  1.
         -6    1    1    2    0  501 -0.46266843908E+02  0.36669969550E+02  0.55864152475E+03  0.58778793854E+03  0.17300000000E+03 0. -1.
<mgrwt>
<rscale>  2 0.18279581E+03</rscale>
<asrwt>0</asrwt>
<pdfrwt beam="1">  1        1 0.13948384E+00 0.18279581E+03</pdfrwt>
<pdfrwt beam="2">  1       -1 0.60964082E-02 0.18279581E+03</pdfrwt>
<totfact> 0.24430746E+03</totfact>
</mgrwt>
</event>
<event>
 4    3  0.7748294E-001  0.1968702E+03  0.7546771E-02  0.1152407E+00
         -1   -1    0    0    0  501 -0.00000000000E+00  0.00000000000E+00  0.46940851244E+03  0.46940851244E+03  0.00000000000E+00 0.  1.
          1   -1    0    0  502    0  0.00000000000E+00 -0.00000000000E+00 -0.84950961263E+02  0.84950961263E+02  0.00000000000E+00 0. -1.
          6    1    1    2  502    0 -0.54757661643E+02  0.76357618607E+02  0.14580062725E+03  0.24498104076E+03  0.17300000000E+03 0. -1.
         -6    1    1    2    0  501  0.54757661643E+02 -0.76357618607E+02  0.23865692393E+03  0.30937843294E+03  0.17300000000E+03 0.  1.
<mgrwt>
<rscale>  2 0.19687023E+03</rscale>
<asrwt>0</asrwt>
<pdfrwt beam="1">  1        1 0.13069379E-01 0.19687023E+03</pdfrwt>
<pdfrwt beam="2">  1       -1 0.72216693E-01 0.19687023E+03</pdfrwt>
<totfact> 0.89712459E+02</totfact>
</mgrwt>
</event>
<event>
 4    3  0.7748294E-001  0.2014073E+03  0.7546771E-02  0.1148557E+00
         -2   -1    0    0    0  501 -0.00000000000E+00  0.00000000000E+00  0.14976368832E+02  0.14976368832E+02  0.00000000000E+00 0.  1.
          2   -1    0    0  502    0  0.00000000000E+00 -0.00000000000E+00 -0.27315373533E+04  0.27315373533E+04  0.00000000000E+00 0. -1.
          6    1    1    2  502    0 -0.10312953383E+03 -0.45733928233E+00 -0.14841359737E+04  0.14977397966E+04  0.17300000000E+03 0. -1.
         -6    1    1    2    0  501  0.10312953383E+03  0.45733928233E+00 -0.12324250108E+04  0.12487739256E+04  0.17300000000E+03 0. -1.
<mgrwt>
<rscale>  2 0.20140732E+03</rscale>
<asrwt>0</asrwt>
<pdfrwt beam="1">  1        2 0.42023619E+00 0.20140732E+03</pdfrwt>
<pdfrwt beam="2">  1       -2 0.23040586E-02 0.20140732E+03</pdfrwt>
<totfact> 0.18854825E+03</totfact>
</mgrwt>
</event>
<event>
 4    3  0.7748294E-001  0.1970190E+03  0.7546771E-02  0.1152279E+00
         -1   -1    0    0    0  501 -0.00000000000E+00  0.00000000000E+00  0.20965877205E+02  0.20965877205E+02  0.00000000000E+00 0. -1.
          1   -1    0    0  502    0  0.00000000000E+00 -0.00000000000E+00 -0.22609251090E+04  0.22609251090E+04  0.00000000000E+00 0.  1.
          6    1    1    2  502    0 -0.93694301319E+02 -0.10433155179E+02 -0.63440518527E+03  0.66429391983E+03  0.17300000000E+03 0. -1.
         -6    1    1    2    0  501  0.93694301319E+02  0.10433155179E+02 -0.16055540465E+04  0.16175970663E+04  0.17300000000E+03 0.  1.
<mgrwt>
<rscale>  2 0.19701897E+03</rscale>
<asrwt>0</asrwt>
<pdfrwt beam="1">  1        1 0.34783481E+00 0.19701897E+03</pdfrwt>
<pdfrwt beam="2">  1       -1 0.32255179E-02 0.19701897E+03</pdfrwt>
<totfact> 0.78008345E+02</totfact>
</mgrwt>
</event>
<event>
 4    3  0.7748294E-001  0.3391016E+03  0.7546771E-02  0.1067179E+00
         -1   -1    0    0    0  501 -0.00000000000E+00  0.00000000000E+00  0.69074204149E+02  0.69074204149E+02  0.00000000000E+00 0.  1.
          1   -1    0    0  502    0  0.00000000000E+00 -0.00000000000E+00 -0.16746422026E+04  0.16746422026E+04  0.00000000000E+00 0. -1.
          6    1    1    2  502    0  0.14776953271E+03  0.25144595867E+03 -0.73570781887E+03  0.81009622865E+03  0.17300000000E+03 0.  1.
         -6    1    1    2    0  501 -0.14776953271E+03 -0.25144595867E+03 -0.86986017961E+03  0.93362017813E+03  0.17300000000E+03 0. -1.
<mgrwt>
<rscale>  2 0.33910161E+03</rscale>
<asrwt>0</asrwt>
<pdfrwt beam="1">  1        1 0.25763726E+00 0.33910161E+03</pdfrwt>
<pdfrwt beam="2">  1       -1 0.10626801E-01 0.33910161E+03</pdfrwt>
<totfact> 0.30205225E+02</totfact>
</mgrwt>
</event>
<event>
 4    3  0.7748294E-001  0.2343205E+03  0.7546771E-02  0.1123635E+00
         -3   -1    0    0    0  501 -0.00000000000E+00  0.00000000000E+00  0.61176634444E+03  0.61176634444E+03  0.00000000000E+00 0.  1.
          3   -1    0    0  502    0  0.00000000000E+00 -0.00000000000E+00 -0.92350177862E+02  0.92350177862E+02  0.00000000000E+00 0. -1.
          6    1    1    2  502    0 -0.96154156202E+02  0.12542519594E+03  0.20063531075E+03  0.30848116548E+03  0.17300000000E+03 0.  1.
         -6    1    1    2    0  501  0.96154156202E+02 -0.12542519594E+03  0.31878085583E+03  0.39563535683E+03  0.17300000000E+03 0. -1.
<mgrwt>
<rscale>  2 0.23432051E+03</rscale>
<asrwt>0</asrwt>
<pdfrwt beam="1">  1        3 0.14207720E-01 0.23432051E+03</pdfrwt>
<pdfrwt beam="2">  1       -3 0.94117896E-01 0.23432051E+03</pdfrwt>
<totfact> 0.10481409E+02</totfact>
</mgrwt>
</event>
<event>
 4    3  0.7748294E-001  0.2096062E+03  0.7546771E-02  0.1141878E+00
          2   -1    0    0  502    0  0.00000000000E+00  0.00000000000E+00  0.18414560811E+04  0.18414560811E+04  0.00000000000E+00 0. -1.
         -2   -1    0    0    0  501 -0.00000000000E+00 -0.00000000000E+00 -0.29883588721E+02  0.29883588721E+02  0.00000000000E+00 0.  1.
          6    1    1    2  502    0  0.73882065067E+02 -0.92450980210E+02  0.48565898356E+03  0.52896067113E+03  0.17300000000E+03 0.  1.
         -6    1    1    2    0  501 -0.73882065067E+02  0.92450980210E+02  0.13259135088E+04  0.13423789987E+04  0.17300000000E+03 0. -1.
<mgrwt>
<rscale>  2 0.20960616E+03</rscale>
<asrwt>0</asrwt>
<pdfrwt beam="1">  1        2 0.28330085E+00 0.20960616E+03</pdfrwt>
<pdfrwt beam="2">  1       -2 0.45974766E-02 0.20960616E+03</pdfrwt>
<totfact> 0.20090338E+03</totfact>
</mgrwt>
</event>
<event>
 4    3  0.7748294E-001  0.2168509E+03  0.7546771E-02  0.1136253E+00
         -1   -1    0    0    0  501 -0.00000000000E+00  0.00000000000E+00  0.21609735608E+03  0.21609735608E+03  0.00000000000E+00 0. -1.
          1   -1    0    0  502    0  0.00000000000E+00 -0.00000000000E+00 -0.33114654191E+03  0.33114654191E+03  0.00000000000E+00 0.  1.
          6    1    1    2  502    0 -0.26022614593E+02 -0.12813335591E+03  0.10269442678E+03  0.23993848932E+03  0.17300000000E+03 0.  1.
         -6    1    1    2    0  501  0.26022614593E+02  0.12813335591E+03 -0.21774361261E+03  0.30730540867E+03  0.17300000000E+03 0.  1.
<mgrwt>
<rscale>  2 0.21685095E+03</rscale>
<asrwt>0</asrwt>
<pdfrwt beam="1">  1        1 0.50945622E-01 0.21685095E+03</pdfrwt>
<pdfrwt beam="2">  1       -1 0.33245747E-01 0.21685095E+03</pdfrwt>
<totfact> 0.66355405E+02</totfact>
</mgrwt>
</event>
<event>
 4    3  0.7748294E-001  0.1760766E+03  0.7546771E-02  0.1171655E+00
         -1   -1    0    0    0  501 -0.00000000000E+00  0.00000000000E+00  0.39696860046E+02  0.39696860046E+02  0.00000000000E+00 0.  1.
          1   -1    0    0  502    0  0.00000000000E+00 -0.00000000000E+00 -0.10670106348E+04  0.10670106348E+04  0.00000000000E+00 0. -1.
          6    1    1    2  502    0  0.24503673184E+02  0.21761011394E+02 -0.80015043973E+03  0.81929463431E+03  0.17300000000E+03 0. -1.
         -6    1    1    2    0  501 -0.24503673184E+02 -0.21761011394E+02 -0.22716333499E+03  0.28741286050E+03  0.17300000000E+03 0.  1.
<mgrwt>
<rscale>  2 0.17607661E+03</rscale>
<asrwt>0</asrwt>
<pdfrwt beam="1">  1        1 0.16415545E+00 0.17607661E+03</pdfrwt>
<pdfrwt beam="2">  1       -1 0.61072105E-02 0.17607661E+03</pdfrwt>
<totfact> 0.18496468E+03</totfact>
</mgrwt>
</event>
<event>
 4    3  0.7748294E-001  0.2069785E+03  0.7546771E-02  0.1143981E+00
          1   -1    0    0  502    0  0.00000000000E+00  0.00000000000E+00  0.69548878786E+02  0.69548878786E+02  0.00000000000E+00 0.  1.
         -1   -1    0    0    0  501 -0.00000000000E+00 -0.00000000000E+00 -0.63871871636E+03  0.63871871636E+03  0.00000000000E+00 0. -1.
          6    1    1    2  502    0  0.11033284776E+03 -0.27162063910E+02 -0.21775385775E+03  0.30042779095E+03  0.17300000000E+03 0.  1.
         -6    1    1    2    0  501 -0.11033284776E+03  0.27162063910E+02 -0.35141597982E+03  0.40783980419E+03  0.17300000000E+03 0. -1.
<mgrwt>
<rscale>  2 0.20697854E+03</rscale>
<asrwt>0</asrwt>
<pdfrwt beam="1">  1        1 0.10699828E-01 0.20697854E+03</pdfrwt>
<pdfrwt beam="2">  1       -1 0.98264416E-01 0.20697854E+03</pdfrwt>
<totfact> 0.61303358E+02</totfact>
</mgrwt>
</event>
<event>
 4    3  0.7748294E-001  0.2042458E+03  0.7546771E-02  0.1146205E+00
          1   -1    0    0  502    0  0.00000000000E+00  0.00000000000E+00  0.19931035538E+04  0.19931035538E+04  0.00000000000E+00 0. -1.
         -1   -1    0    0    0  501 -0.00000000000E+00 -0.00000000000E+00 -0.23750327125E+02  0.23750327125E+02  0.00000000000E+00 0.  1.
          6    1    1    2  502    0  0.61624455313E+02  0.89385628840E+02  0.13321584274E+04  0.13477249125E+04  0.17300000000E+03 0.  1.
         -6    1    1    2    0  501 -0.61624455313E+02 -0.89385628840E+02  0.63719479928E+03  0.66912896841E+03  0.17300000000E+03 0. -1.
<mgrwt>
<rscale>  2 0.20424584E+03</rscale>
<asrwt>0</asrwt>
<pdfrwt beam="1">  1        1 0.30663118E+00 0.20424584E+03</pdfrwt>
<pdfrwt beam="2">  1       -1 0.36538981E-02 0.20424584E+03</pdfrwt>
<totfact> 0.96568127E+02</totfact>
</mgrwt>
</event>
<event>
 4    3  0.7748294E-001  0.2062331E+03  0.7546771E-02  0.1144584E+00
         -1   -1    0    0    0  501 -0.00000000000E+00  0.00000000000E+00  0.36790007977E+02  0.36790007977E+02  0.00000000000E+00 0. -1.
          1   -1    0    0  502    0  0.00000000000E+00 -0.00000000000E+00 -0.11704808458E+04  0.11704808458E+04  0.00000000000E+00 0.  1.
          6    1    1    2  502    0  0.58895891865E+02  0.95573815498E+02 -0.63380805156E+03  0.66651686138E+03  0.17300000000E+03 0. -1.
         -6    1    1    2    0  501 -0.58895891865E+02 -0.95573815498E+02 -0.49988278627E+03  0.54075399240E+03  0.17300000000E+03 0. -1.
<mgrwt>
<rscale>  2 0.20623307E+03</rscale>
<asrwt>0</asrwt>
<pdfrwt beam="1">  1        1 0.18007394E+00 0.20623307E+03</pdfrwt>
<pdfrwt beam="2">  1       -1 0.56600022E-02 0.20623307E+03</pdfrwt>
<totfact> 0.17524855E+03</totfact>
</mgrwt>
</event>
<event>
 4    3  0.7748294E-001  0.1851113E+03  0.7546771E-02  0.1162946E+00
         -1   -1    0    0    0  501 -0.00000000000E+00  0.00000000000E+00  0.59711751652E+03  0.59711751652E+03  0.00000000000E+00 0. -1.
          1   -1    0    0  502    0  0.00000000000E+00 -0.00000000000E+00 -0.77994985083E+02  0.77994985083E+02  0.00000000000E+00 0.  1.
          6    1    1    2  502    0 -0.49913498263E+02 -0.42963298492E+02  0.43307778444E+03  0.47098043452E+03  0.17300000000E+03 0. -1.
         -6    1    1    2    0  501  0.49913498263E+02  0.42963298492E+02  0.86044747002E+02  0.20413206709E+03  0.17300000000E+03 0.  1.
<mgrwt>
<rscale>  2 0.18511132E+03</rscale>
<asrwt>0</asrwt>
<pdfrwt beam="1">  1        1 0.11999229E-01 0.18511132E+03</pdfrwt>
<pdfrwt beam="2">  1       -1 0.91864230E-01 0.18511132E+03</pdfrwt>
<totfact> 0.60899916E+02</totfact>
</mgrwt>
</event>
<event>
 4    3  0.7748294E-001  0.1972306E+03  0.7546771E-02  0.1152097E+00
         -1   -1    0    0    0  501 -0.00000000000E+00  0.00000000000E+00  0.20145376050E+02  0.20145376050E+02  0.00000000000E+00 0. -1.
          1   -1    0    0  502    0  0.00000000000E+00 -0.00000000000E+00 -0.19599830583E+04  0.19599830583E+04  0.00000000000E+00 0.  1.
          6    1    1    2  502    0 -0.84513431631E+02 -0.42759582832E+02 -0.10903984996E+04  0.11080924104E+04  0.17300000000E+03 0. -1.
         -6    1    1    2    0  501  0.84513431631E+02  0.42759582832E+02 -0.84943918261E+03  0.87203602392E+03  0.17300000000E+03 0. -1.
<mgrwt>
<rscale>  2 0.19723058E+03</rscale>
<asrwt>0</asrwt>
<pdfrwt beam="1">  1        1 0.30153590E+00 0.19723058E+03</pdfrwt>
<pdfrwt beam="2">  1       -1 0.30992882E-02 0.19723058E+03</pdfrwt>
<totfact> 0.12939067E+03</totfact>
</mgrwt>
</event>
<event>
 4    3  0.7748294E-001  0.2922259E+03  0.7546771E-02  0.1089193E+00
          2   -1    0    0  502    0  0.00000000000E+00  0.00000000000E+00  0.74317550051E+03  0.74317550051E+03  0.00000000000E+00 0.  1.
         -2   -1    0    0    0  501 -0.00000000000E+00 -0.00000000000E+00 -0.12826989344E+03  0.12826989344E+03  0.00000000000E+00 0. -1.
          6    1    1    2  502    0  0.11475548873E+03  0.20566510426E+03  0.44809008812E+03  0.53495858193E+03  0.17300000000E+03 0.  1.
         -6    1    1    2    0  501 -0.11475548873E+03 -0.20566510426E+03  0.16681551895E+03  0.33648681203E+03  0.17300000000E+03 0. -1.
<mgrwt>
<rscale>  2 0.29222587E+03</rscale>
<asrwt>0</asrwt>
<pdfrwt beam="1">  1        2 0.11433469E+00 0.29222587E+03</pdfrwt>
<pdfrwt beam="2">  1       -2 0.19733830E-01 0.29222587E+03</pdfrwt>
<totfact> 0.83975527E+02</totfact>
</mgrwt>
</event>
<event>
 4    3  0.7748294E-001  0.1794711E+03  0.7546771E-02  0.1168316E+00
         -1   -1    0    0    0  501 -0.00000000000E+00  0.00000000000E+00  0.11977261961E+03  0.11977261961E+03  0.00000000000E+00 0. -1.
          1   -1    0    0  502    0  0.00000000000E+00 -0.00000000000E+00 -0.56146307958E+03  0.56146307958E+03  0.00000000000E+00 0.  1.
          6    1    1    2  502    0  0.31999836903E+02  0.35452380992E+02 -0.46671093089E+03  0.50002895305E+03  0.17300000000E+03 0.  1.
         -6    1    1    2    0  501 -0.31999836903E+02 -0.35452380992E+02  0.25020470925E+02  0.18120674614E+03  0.17300000000E+03 0. -1.
<mgrwt>
<rscale>  2 0.17947106E+03</rscale>
<asrwt>0</asrwt>
<pdfrwt beam="1">  1        1 0.86378935E-01 0.17947106E+03</pdfrwt>
<pdfrwt beam="2">  1       -1 0.18426557E-01 0.17947106E+03</pdfrwt>
<totfact> 0.89126536E+02</totfact>
</mgrwt>
</event>
<event>
 4    3  0.7748294E-001  0.2604305E+03  0.7546771E-02  0.1106885E+00
         -2   -1    0    0    0  501 -0.00000000000E+00  0.00000000000E+00  0.12804661429E+03  0.12804661429E+03  0.00000000000E+00 0.  1.
          2   -1    0    0  502    0  0.00000000000E+00 -0.00000000000E+00 -0.53561741259E+03  0.53561741259E+03  0.00000000000E+00 0. -1.
          6    1    1    2  502    0 -0.12232539679E+03 -0.15143171176E+03 -0.16885578860E+03  0.31038096490E+03  0.17300000000E+03 0.  1.
         -6    1    1    2    0  501  0.12232539679E+03  0.15143171176E+03 -0.23871500970E+03  0.35328306198E+03  0.17300000000E+03 0. -1.
<mgrwt>
<rscale>  2 0.26043054E+03</rscale>
<asrwt>0</asrwt>
<pdfrwt beam="1">  1        2 0.82402678E-01 0.26043054E+03</pdfrwt>
<pdfrwt beam="2">  1       -2 0.19699479E-01 0.26043054E+03</pdfrwt>
<totfact> 0.12422505E+03</totfact>
</mgrwt>
</event>
<event>
 4    3  0.7748294E-001  0.1967412E+03  0.7546771E-02  0.1152518E+00
         -2   -1    0    0    0  501 -0.00000000000E+00  0.00000000000E+00  0.18001378918E+03  0.18001378918E+03  0.00000000000E+00 0. -1.
          2   -1    0    0  502    0  0.00000000000E+00 -0.00000000000E+00 -0.21790029764E+03  0.21790029764E+03  0.00000000000E+00 0.  1.
          6    1    1    2  502    0  0.80219060258E+02 -0.48404398445E+02 -0.41806182093E+02  0.20113388645E+03  0.17300000000E+03 0.  1.
         -6    1    1    2    0  501 -0.80219060258E+02  0.48404398445E+02  0.39196736293E+01  0.19678020037E+03  0.17300000000E+03 0. -1.
<mgrwt>
<rscale>  2 0.19674116E+03</rscale>
<asrwt>0</asrwt>
<pdfrwt beam="1">  1        2 0.33523123E-01 0.19674116E+03</pdfrwt>
<pdfrwt beam="2">  1       -2 0.27694429E-01 0.19674116E+03</pdfrwt>
<totfact> 0.18142920E+03</totfact>
</mgrwt>
</event>
<event>
 4    3  0.7748294E-001  0.1768088E+03  0.7546771E-02  0.1170928E+00
          2   -1    0    0  502    0  0.00000000000E+00  0.00000000000E+00  0.14759208948E+04  0.14759208948E+04  0.00000000000E+00 0.  1.
         -2   -1    0    0    0  501 -0.00000000000E+00 -0.00000000000E+00 -0.33691716607E+02  0.33691716607E+02  0.00000000000E+00 0. -1.
          6    1    1    2  502    0 -0.26144772364E+02  0.25471464540E+02  0.11810709624E+04  0.11942319552E+04  0.17300000000E+03 0.  1.
         -6    1    1    2    0  501  0.26144772364E+02 -0.25471464540E+02  0.26115821582E+03  0.31538065622E+03  0.17300000000E+03 0. -1.
<mgrwt>
<rscale>  2 0.17680878E+03</rscale>
<asrwt>0</asrwt>
<pdfrwt beam="1">  1        2 0.22706470E+00 0.17680878E+03</pdfrwt>
<pdfrwt beam="2">  1       -2 0.51833422E-02 0.17680878E+03</pdfrwt>
<totfact> 0.26022104E+03</totfact>
</mgrwt>
</event>
<event>
 4    3  0.7748294E-001  0.2103964E+03  0.7546771E-02  0.1141252E+00
         -1   -1    0    0    0  501 -0.00000000000E+00  0.00000000000E+00  0.58364490927E+02  0.58364490927E+02  0.00000000000E+00 0.  1.
          1   -1    0    0  502    0  0.00000000000E+00 -0.00000000000E+00 -0.10537456755E+04  0.10537456755E+04  0.00000000000E+00 0. -1.
          6    1    1    2  502    0  0.11730787414E+03  0.24011011624E+02 -0.79204935644E+03  0.81951744890E+03  0.17300000000E+03 0. -1.
         -6    1    1    2    0  501 -0.11730787414E+03 -0.24011011624E+02 -0.20333182812E+03  0.29259271751E+03  0.17300000000E+03 0.  1.
<mgrwt>
<rscale>  2 0.21039645E+03</rscale>
<asrwt>0</asrwt>
<pdfrwt beam="1">  1        1 0.16211471E+00 0.21039645E+03</pdfrwt>
<pdfrwt beam="2">  1       -1 0.89791529E-02 0.21039645E+03</pdfrwt>
<totfact> 0.10541741E+03</totfact>
</mgrwt>
</event>
<event>
 4    3  0.7748294E-001  0.2276652E+03  0.7546771E-02  0.1128294E+00
         -1   -1    0    0    0  501 -0.00000000000E+00  0.00000000000E+00  0.33693877243E+03  0.33693877243E+03  0.00000000000E+00 0.  1.
          1   -1    0    0  502    0  0.00000000000E+00 -0.00000000000E+00 -0.66370031936E+03  0.66370031936E+03  0.00000000000E+00 0. -1.
          6    1    1    2  502    0  0.14396259078E+03 -0.34310553977E+02 -0.60190251702E+03  0.64352007090E+03  0.17300000000E+03 0. -1.
         -6    1    1    2    0  501 -0.14396259078E+03  0.34310553977E+02  0.27514097009E+03  0.35711902088E+03  0.17300000000E+03 0.  1.
<mgrwt>
<rscale>  2 0.22766520E+03</rscale>
<asrwt>0</asrwt>
<pdfrwt beam="1">  1        1 0.10210774E+00 0.22766520E+03</pdfrwt>
<pdfrwt beam="2">  1       -1 0.51836735E-01 0.22766520E+03</pdfrwt>
<totfact> 0.11949586E+02</totfact>
</mgrwt>
</event>
<event>
 4    3  0.7748294E-001  0.3353375E+03  0.7546771E-02  0.1068799E+00
         -3   -1    0    0    0  501 -0.00000000000E+00  0.00000000000E+00  0.23592306668E+03  0.23592306668E+03  0.00000000000E+00 0.  1.
          3   -1    0    0  502    0  0.00000000000E+00 -0.00000000000E+00 -0.56851872968E+03  0.56851872968E+03  0.00000000000E+00 0. -1.
          6    1    1    2  502    0 -0.26190031507E+03 -0.11802726206E+03 -0.32799087203E+03  0.46907272545E+03  0.17300000000E+03 0. -1.
         -6    1    1    2    0  501  0.26190031507E+03  0.11802726206E+03 -0.46047909764E+01  0.33536907091E+03  0.17300000000E+03 0.  1.
<mgrwt>
<rscale>  2 0.33533746E+03</rscale>
<asrwt>0</asrwt>
<pdfrwt beam="1">  1        3 0.87464420E-01 0.33533746E+03</pdfrwt>
<pdfrwt beam="2">  1       -3 0.36295856E-01 0.33533746E+03</pdfrwt>
<totfact> 0.23026603E+01</totfact>
</mgrwt>
</event>
<event>
 4    3  0.7748294E-001  0.2778242E+03  0.7546771E-02  0.1096883E+00
         -3   -1    0    0    0  501 -0.00000000000E+00  0.00000000000E+00  0.99335163090E+03  0.99335163090E+03  0.00000000000E+00 0. -1.
          3   -1    0    0  502    0  0.00000000000E+00 -0.00000000000E+00 -0.98257695641E+02  0.98257695641E+02  0.00000000000E+00 0.  1.
          6    1    1    2  502    0 -0.73802704161E+02  0.20447608016E+03  0.19790908345E+03  0.34110747839E+03  0.17300000000E+03 0. -1.
         -6    1    1    2    0  501  0.73802704161E+02 -0.20447608016E+03  0.69718485181E+03  0.75050184816E+03  0.17300000000E+03 0.  1.
<mgrwt>
<rscale>  2 0.27782424E+03</rscale>
<asrwt>0</asrwt>
<pdfrwt beam="1">  1        3 0.15116569E-01 0.27782424E+03</pdfrwt>
<pdfrwt beam="2">  1       -3 0.15282332E+00 0.27782424E+03</pdfrwt>
<totfact> 0.29760951E+01</totfact>
</mgrwt>
</event>
<event>
 4    3  0.7748294E-001  0.1855430E+03  0.7546771E-02  0.1162544E+00
          2   -1    0    0  502    0  0.00000000000E+00  0.00000000000E+00  0.99005390197E+03  0.99005390197E+03  0.00000000000E+00 0. -1.
         -2   -1    0    0    0  501 -0.00000000000E+00 -0.00000000000E+00 -0.52239808288E+02  0.52239808288E+02  0.00000000000E+00 0.  1.
          6    1    1    2  502    0 -0.38845914909E+02 -0.54664488791E+02  0.77026164663E+03  0.79229364235E+03  0.17300000000E+03 0. -1.
         -6    1    1    2    0  501  0.38845914909E+02  0.54664488791E+02  0.16755244705E+03  0.25000006790E+03  0.17300000000E+03 0.  1.
<mgrwt>
<rscale>  2 0.18554302E+03</rscale>
<asrwt>0</asrwt>
<pdfrwt beam="1">  1        2 0.15231597E+00 0.18554302E+03</pdfrwt>
<pdfrwt beam="2">  1       -2 0.80368943E-02 0.18554302E+03</pdfrwt>
<totfact> 0.24845087E+03</totfact>
</mgrwt>
</event>
<event>
 4    3  0.7748294E-001  0.2950362E+03  0.7546771E-02  0.1087749E+00
         -1   -1    0    0    0  501 -0.00000000000E+00  0.00000000000E+00  0.10652316414E+03  0.10652316414E+03  0.00000000000E+00 0. -1.
          1   -1    0    0  502    0  0.00000000000E+00 -0.00000000000E+00 -0.84046275523E+03  0.84046275523E+03  0.00000000000E+00 0.  1.
          6    1    1    2  502    0 -0.97832670929E+02 -0.21805079073E+03 -0.28812631341E+03  0.41238713767E+03  0.17300000000E+03 0. -1.
         -6    1    1    2    0  501  0.97832670929E+02  0.21805079073E+03 -0.44581327768E+03  0.53459878170E+03  0.17300000000E+03 0.  1.
<mgrwt>
<rscale>  2 0.29503623E+03</rscale>
<asrwt>0</asrwt>
<pdfrwt beam="1">  1        1 0.12930197E+00 0.29503623E+03</pdfrwt>
<pdfrwt beam="2">  1       -1 0.16388179E-01 0.29503623E+03</pdfrwt>
<totfact> 0.59614053E+02</totfact>
</mgrwt>
</event>
<event>
 4    3  0.7748294E-001  0.4810924E+03  0.7546771E-02  0.1018835E+00
          2   -1    0    0  502    0  0.00000000000E+00  0.00000000000E+00  0.54432104012E+03  0.54432104012E+03  0.00000000000E+00 0. -1.
         -2   -1    0    0    0  501 -0.00000000000E+00 -0.00000000000E+00 -0.42864247646E+03  0.42864247646E+03  0.00000000000E+00 0.  1.
          6    1    1    2  502    0 -0.42080800197E+03  0.15633794380E+03  0.10138227586E+03  0.49165871603E+03  0.17300000000E+03 0. -1.
         -6    1    1    2    0  501  0.42080800197E+03 -0.15633794380E+03  0.14296287803E+02  0.48130480056E+03  0.17300000000E+03 0.  1.
<mgrwt>
<rscale>  2 0.48109243E+03</rscale>
<asrwt>0</asrwt>
<pdfrwt beam="1">  1        2 0.83741698E-01 0.48109243E+03</pdfrwt>
<pdfrwt beam="2">  1       -2 0.65944996E-01 0.48109243E+03</pdfrwt>
<totfact> 0.12126775E+02</totfact>
</mgrwt>
</event>
<event>
 4    3  0.7748294E-001  0.2073116E+03  0.7546771E-02  0.1143713E+00
          1   -1    0    0  502    0  0.00000000000E+00  0.00000000000E+00  0.15838634362E+03  0.15838634362E+03  0.00000000000E+00 0.  1.
         -1   -1    0    0    0  501 -0.00000000000E+00 -0.00000000000E+00 -0.29289861438E+03  0.29289861438E+03  0.00000000000E+00 0. -1.
          6    1    1    2  502    0 -0.66548000128E+02  0.92846536105E+02 -0.60530845034E+01  0.20739998896E+03  0.17300000000E+03 0.  1.
         -6    1    1    2    0  501  0.66548000128E+02 -0.92846536105E+02 -0.12845918626E+03  0.24388496904E+03  0.17300000000E+03 0.  1.
<mgrwt>
<rscale>  2 0.20731164E+03</rscale>
<asrwt>0</asrwt>
<pdfrwt beam="1">  1        1 0.24367130E-01 0.20731164E+03</pdfrwt>
<pdfrwt beam="2">  1       -1 0.45061325E-01 0.20731164E+03</pdfrwt>
<totfact> 0.98153011E+02</totfact>
</mgrwt>
</event>
<event>
 4    3  0.7748294E-001  0.2282942E+03  0.7546771E-02  0.1127846E+00
         -2   -1    0    0    0  501 -0.00000000000E+00  0.00000000000E+00  0.16680583152E+02  0.16680583152E+02  0.00000000000E+00 0. -1.
          2   -1    0    0  502    0  0.00000000000E+00 -0.00000000000E+00 -0.31807728404E+04  0.31807728404E+04  0.00000000000E+00 0.  1.
          6    1    1    2  502    0  0.97753841076E+02  0.11239855837E+03 -0.17947185355E+04  0.18091801655E+04  0.17300000000E+03 0.  1.
         -6    1    1    2    0  501 -0.97753841076E+02 -0.11239855837E+03 -0.13693737218E+04  0.13882732581E+04  0.17300000000E+03 0.  1.
<mgrwt>
<rscale>  2 0.22829422E+03</rscale>
<asrwt>0</asrwt>
<pdfrwt beam="1">  1        2 0.48934949E+00 0.22829422E+03</pdfrwt>
<pdfrwt beam="2">  1       -2 0.25662445E-02 0.22829422E+03</pdfrwt>
<totfact> 0.87428183E+02</totfact>
</mgrwt>
</event>
<event>
 4    3  0.7748294E-001  0.2697809E+03  0.7546771E-02  0.1101405E+00
         -2   -1    0    0    0  501 -0.00000000000E+00  0.00000000000E+00  0.48399919006E+02  0.48399919006E+02  0.00000000000E+00 0.  1.
          2   -1    0    0  502    0  0.00000000000E+00 -0.00000000000E+00 -0.17194985562E+04  0.17194985562E+04  0.00000000000E+00 0. -1.
          6    1    1    2  502    0  0.27603822484E+02 -0.20516030969E+03 -0.52244202634E+03  0.58798587957E+03  0.17300000000E+03 0.  1.
         -6    1    1    2    0  501 -0.27603822484E+02  0.20516030969E+03 -0.11486566109E+04  0.11799125956E+04  0.17300000000E+03 0. -1.
<mgrwt>
<rscale>  2 0.26978088E+03</rscale>
<asrwt>0</asrwt>
<pdfrwt beam="1">  1        2 0.26453825E+00 0.26978088E+03</pdfrwt>
<pdfrwt beam="2">  1       -2 0.74461410E-02 0.26978088E+03</pdfrwt>
<totfact> 0.11049879E+03</totfact>
</mgrwt>
</event>
<event>
 4    3  0.7748294E-001  0.1756748E+03  0.7546771E-02  0.1172056E+00
         -2   -1    0    0    0  501 -0.00000000000E+00  0.00000000000E+00  0.10508817205E+04  0.10508817205E+04  0.00000000000E+00 0.  1.
          2   -1    0    0  502    0  0.00000000000E+00 -0.00000000000E+00 -0.60870731973E+02  0.60870731973E+02  0.00000000000E+00 0. -1.
          6    1    1    2  502    0  0.12033178870E+02 -0.28068663803E+02  0.95104768938E+02  0.19976627432E+03  0.17300000000E+03 0. -1.
         -6    1    1    2    0  501 -0.12033178870E+02  0.28068663803E+02  0.89490621956E+03  0.91198617813E+03  0.17300000000E+03 0.  1.
<mgrwt>
<rscale>  2 0.17567483E+03</rscale>
<asrwt>0</asrwt>
<pdfrwt beam="1">  1        2 0.93647288E-02 0.17567483E+03</pdfrwt>
<pdfrwt beam="2">  1       -2 0.16167410E+00 0.17567483E+03</pdfrwt>
<totfact> 0.18138429E+02</totfact>
</mgrwt>
</event>
<event>
 4    3  0.7748294E-001  0.1964988E+03  0.7546771E-02  0.1152727E+00
         -1   -1    0    0    0  501 -0.00000000000E+00  0.00000000000E+00  0.38955508503E+03  0.38955508503E+03  0.00000000000E+00 0. -1.
          1   -1    0    0  502    0  0.00000000000E+00 -0.00000000000E+00 -0.11993731201E+03  0.11993731201E+03  0.00000000000E+00 0.  1.
          6    1    1    2  502    0 -0.73136783790E+02 -0.57739105238E+02  0.24094597177E+03  0.31091277672E+03  0.17300000000E+03 0. -1.
         -6    1    1    2    0  501  0.73136783790E+02  0.57739105238E+02  0.28671801241E+02  0.19857962031E+03  0.17300000000E+03 0.  1.
<mgrwt>
<rscale>  2 0.19649884E+03</rscale>
<asrwt>0</asrwt>
<pdfrwt beam="1">  1        1 0.18451894E-01 0.19649884E+03</pdfrwt>
<pdfrwt beam="2">  1       -1 0.59931551E-01 0.19649884E+03</pdfrwt>
<totfact> 0.82432250E+02</totfact>
</mgrwt>
</event>
<event>
 4    3  0.7748294E-001  0.2296998E+03  0.7546771E-02  0.1126851E+00
          1   -1    0    0  502    0  0.00000000000E+00  0.00000000000E+00  0.33623410429E+03  0.33623410429E+03  0.00000000000E+00 0. -1.
         -1   -1    0    0    0  501 -0.00000000000E+00 -0.00000000000E+00 -0.15962985280E+03  0.15962985280E+03  0.00000000000E+00 0.  1.
          6    1    1    2  502    0 -0.13034682636E+03  0.76437486342E+02  0.56001001518E+02  0.23642778312E+03  0.17300000000E+03 0.  1.
         -6    1    1    2    0  501  0.13034682636E+03 -0.76437486342E+02  0.12060324997E+03  0.25943617397E+03  0.17300000000E+03 0. -1.
<mgrwt>
<rscale>  2 0.22969977E+03</rscale>
<asrwt>0</asrwt>
<pdfrwt beam="1">  1        1 0.51728324E-01 0.22969977E+03</pdfrwt>
<pdfrwt beam="2">  1       -1 0.24558439E-01 0.22969977E+03</pdfrwt>
<totfact> 0.10863608E+03</totfact>
</mgrwt>
</event>
<event>
 4    3  0.7748294E-001  0.2004866E+03  0.7546771E-02  0.1149329E+00
          2   -1    0    0  502    0  0.00000000000E+00  0.00000000000E+00  0.43201721166E+04  0.43201721166E+04  0.00000000000E+00 0.  1.
         -2   -1    0    0    0  501 -0.00000000000E+00 -0.00000000000E+00 -0.11650950959E+02  0.11650950959E+02  0.00000000000E+00 0. -1.
          6    1    1    2  502    0 -0.12963794467E+02 -0.10048789982E+03  0.31263631879E+04  0.31327849688E+04  0.17300000000E+03 0.  1.
         -6    1    1    2    0  501  0.12963794467E+02  0.10048789982E+03  0.11821579777E+04  0.11990380988E+04  0.17300000000E+03 0. -1.
<mgrwt>
<rscale>  2 0.20048660E+03</rscale>
<asrwt>0</asrwt>
<pdfrwt beam="1">  1        2 0.66464059E+00 0.20048660E+03</pdfrwt>
<pdfrwt beam="2">  1       -2 0.17924574E-02 0.20048660E+03</pdfrwt>
<totfact> 0.23045352E+02</totfact>
</mgrwt>
</event>
<event>
 4    3  0.7748294E-001  0.1896597E+03  0.7546771E-02  0.1158769E+00
         -2   -1    0    0    0  501 -0.00000000000E+00  0.00000000000E+00  0.30212389227E+02  0.30212389227E+02  0.00000000000E+00 0. -1.
          2   -1    0    0  502    0  0.00000000000E+00 -0.00000000000E+00 -0.14086934359E+04  0.14086934359E+04  0.00000000000E+00 0.  1.
          6    1    1    2  502    0  0.21101508557E+02 -0.74809958526E+02 -0.40615501558E+03  0.44825517313E+03  0.17300000000E+03 0. -1.
         -6    1    1    2    0  501 -0.21101508557E+02  0.74809958526E+02 -0.97232603111E+03  0.99065065201E+03  0.17300000000E+03 0.  1.
<mgrwt>
<rscale>  2 0.18965970E+03</rscale>
<asrwt>0</asrwt>
<pdfrwt beam="1">  1        2 0.21672208E+00 0.18965970E+03</pdfrwt>
<pdfrwt beam="2">  1       -2 0.46480597E-02 0.18965970E+03</pdfrwt>
<totfact> 0.33335030E+03</totfact>
</mgrwt>
</event>
<event>
 4    3  0.7748294E-001  0.2334308E+03  0.7546771E-02  0.1124248E+00
         -3   -1    0    0    0  501 -0.00000000000E+00  0.00000000000E+00  0.13801888629E+03  0.13801888629E+03  0.00000000000E+00 0. -1.
          3   -1    0    0  502    0  0.00000000000E+00 -0.00000000000E+00 -0.42691745733E+03  0.42691745733E+03  0.00000000000E+00 0.  1.
          6    1    1    2  502    0 -0.10363806684E+03 -0.11755878045E+03 -0.22192493536E+03  0.32208786486E+03  0.17300000000E+03 0.  1.
         -6    1    1    2    0  501  0.10363806684E+03  0.11755878045E+03 -0.66973635688E+02  0.24284847876E+03  0.17300000000E+03 0. -1.
<mgrwt>
<rscale>  2 0.23343075E+03</rscale>
<asrwt>0</asrwt>
<pdfrwt beam="1">  1        3 0.65679608E-01 0.23343075E+03</pdfrwt>
<pdfrwt beam="2">  1       -3 0.21233675E-01 0.23343075E+03</pdfrwt>
<totfact> 0.11386973E+02</totfact>
</mgrwt>
</event>
<event>
 4    3  0.7748294E-001  0.1803696E+03  0.7546771E-02  0.1167446E+00
         -1   -1    0    0    0  501 -0.00000000000E+00  0.00000000000E+00  0.76807063502E+03  0.76807063502E+03  0.00000000000E+00 0.  1.
          1   -1    0    0  502    0  0.00000000000E+00 -0.00000000000E+00 -0.44658375034E+02  0.44658375034E+02  0.00000000000E+00 0. -1.
          6    1    1    2  502    0 -0.50661420070E+02  0.61315362813E+01  0.45395416117E+03  0.48847472367E+03  0.17300000000E+03 0.  1.
         -6    1    1    2    0  501  0.50661420070E+02 -0.61315362813E+01  0.26945809882E+03  0.32425428638E+03  0.17300000000E+03 0. -1.
<mgrwt>
<rscale>  2 0.18036955E+03</rscale>
<asrwt>0</asrwt>
<pdfrwt beam="1">  1        1 0.68705198E-02 0.18036955E+03</pdfrwt>
<pdfrwt beam="2">  1       -1 0.11816470E+00 0.18036955E+03</pdfrwt>
<totfact> 0.73124244E+02</totfact>
</mgrwt>
</event>
<event>
 4    3  0.7748294E-001  0.1829555E+03  0.7546771E-02  0.1164973E+00
          1   -1    0    0  502    0  0.00000000000E+00  0.00000000000E+00  0.74633559218E+03  0.74633559218E+03  0.00000000000E+00 0.  1.
         -1   -1    0    0    0  501 -0.00000000000E+00 -0.00000000000E+00 -0.46705337555E+02  0.46705337555E+02  0.00000000000E+00 0. -1.
          6    1    1    2  502    0 -0.59523412483E+02  0.81936051066E+00  0.42885811127E+03  0.46625313681E+03  0.17300000000E+03 0. -1.
         -6    1    1    2    0  501  0.59523412483E+02 -0.81936051066E+00  0.27077214335E+03  0.32678779292E+03  0.17300000000E+03 0. -1.
<mgrwt>
<rscale>  2 0.18295548E+03</rscale>
<asrwt>0</asrwt>
<pdfrwt beam="1">  1        1 0.11482085E+00 0.18295548E+03</pdfrwt>
<pdfrwt beam="2">  1       -1 0.71854371E-02 0.18295548E+03</pdfrwt>
<totfact> 0.25756983E+03</totfact>
</mgrwt>
</event>
<event>
 4    3  0.7748294E-001  0.2792716E+03  0.7546771E-02  0.1096087E+00
          2   -1    0    0  502    0  0.00000000000E+00  0.00000000000E+00  0.41453744875E+03  0.41453744875E+03  0.00000000000E+00 0.  1.
         -2   -1    0    0    0  501 -0.00000000000E+00 -0.00000000000E+00 -0.19029082982E+03  0.19029082982E+03  0.00000000000E+00 0. -1.
          6    1    1    2  502    0  0.11685129567E+03 -0.18549775965E+03  0.14424614240E+03  0.31432402666E+03  0.17300000000E+03 0.  1.
         -6    1    1    2    0  501 -0.11685129567E+03  0.18549775965E+03  0.80000476531E+02  0.29050425192E+03  0.17300000000E+03 0. -1.
<mgrwt>
<rscale>  2 0.27927163E+03</rscale>
<asrwt>0</asrwt>
<pdfrwt beam="1">  1        2 0.63774992E-01 0.27927163E+03</pdfrwt>
<pdfrwt beam="2">  1       -2 0.29275512E-01 0.27927163E+03</pdfrwt>
<totfact> 0.82298605E+02</totfact>
</mgrwt>
</event>
<event>
 4    3  0.7748294E-001  0.1911180E+03  0.7546771E-02  0.1157457E+00
         -1   -1    0    0    0  501 -0.00000000000E+00  0.00000000000E+00  0.10256174352E+03  0.10256174352E+03  0.00000000000E+00 0.  1.
          1   -1    0    0  502    0  0.00000000000E+00 -0.00000000000E+00 -0.37063602407E+03  0.37063602407E+03  0.00000000000E+00 0. -1.
          6    1    1    2  502    0  0.16691922459E+02  0.79488900042E+02 -0.18083192763E+03  0.26310889676E+03  0.17300000000E+03 0. -1.
         -6    1    1    2    0  501 -0.16691922459E+02 -0.79488900042E+02 -0.87242352917E+02  0.21008887083E+03  0.17300000000E+03 0.  1.
<mgrwt>
<rscale>  2 0.19111804E+03</rscale>
<asrwt>0</asrwt>
<pdfrwt beam="1">  1        1 0.57020928E-01 0.19111804E+03</pdfrwt>
<pdfrwt beam="2">  1       -1 0.15778730E-01 0.19111804E+03</pdfrwt>
<totfact> 0.19611238E+03</totfact>
</mgrwt>
</event>
<event>
 4    3  0.7748294E-001  0.2923026E+03  0.7546771E-02  0.1089153E+00
         -3   -1    0    0    0  501 -0.00000000000E+00  0.00000000000E+00  0.50757444498E+03  0.50757444498E+03  0.00000000000E+00 0. -1.
          3   -1    0    0  502    0  0.00000000000E+00 -0.00000000000E+00 -0.18405442128E+03  0.18405442128E+03  0.00000000000E+00 0.  1.
          6    1    1    2  502    0  0.22982896201E+02  0.23448586146E+03  0.26283293776E+03  0.39309284643E+03  0.17300000000E+03 0. -1.
         -6    1    1    2    0  501 -0.22982896201E+02 -0.23448586146E+03  0.60687085935E+02  0.29853601984E+03  0.17300000000E+03 0.  1.
<mgrwt>
<rscale>  2 0.29230264E+03</rscale>
<asrwt>0</asrwt>
<pdfrwt beam="1">  1        3 0.28316065E-01 0.29230264E+03</pdfrwt>
<pdfrwt beam="2">  1       -3 0.78088376E-01 0.29230264E+03</pdfrwt>
<totfact> 0.47057566E+01</totfact>
</mgrwt>
</event>
<event>
 4    3  0.7748294E-001  0.1769358E+03  0.7546771E-02  0.1170802E+00
         -2   -1    0    0    0  501 -0.00000000000E+00  0.00000000000E+00  0.24354800559E+02  0.24354800559E+02  0.00000000000E+00 0.  1.
          2   -1    0    0  502    0  0.00000000000E+00 -0.00000000000E+00 -0.12865103708E+04  0.12865103708E+04  0.00000000000E+00 0. -1.
          6    1    1    2  502    0 -0.32733808549E+02 -0.17486524595E+02 -0.65011125480E+03  0.67375880283E+03  0.17300000000E+03 0.  1.
         -6    1    1    2    0  501  0.32733808549E+02  0.17486524595E+02 -0.61204431543E+03  0.63710636853E+03  0.17300000000E+03 0. -1.
<mgrwt>
<rscale>  2 0.17693581E+03</rscale>
<asrwt>0</asrwt>
<pdfrwt beam="1">  1        2 0.19792467E+00 0.17693581E+03</pdfrwt>
<pdfrwt beam="2">  1       -2 0.37468925E-02 0.17693581E+03</pdfrwt>
<totfact> 0.53556135E+03</totfact>
</mgrwt>
</event>
<event>
 4    3  0.7748294E-001  0.2103080E+03  0.7546771E-02  0.1141322E+00
          1   -1    0    0  502    0  0.00000000000E+00  0.00000000000E+00  0.22857664558E+04  0.22857664558E+04  0.00000000000E+00 0. -1.
         -1   -1    0    0    0  501 -0.00000000000E+00 -0.00000000000E+00 -0.20228556527E+02  0.20228556527E+02  0.00000000000E+00 0.  1.
          6    1    1    2  502    0 -0.11955166757E+03  0.28038428703E+01  0.13730632962E+04  0.13890760519E+04  0.17300000000E+03 0. -1.
         -6    1    1    2    0  501  0.11955166757E+03 -0.28038428703E+01  0.89247460309E+03  0.91691896039E+03  0.17300000000E+03 0.  1.
<mgrwt>
<rscale>  2 0.21030802E+03</rscale>
<asrwt>0</asrwt>
<pdfrwt beam="1">  1        1 0.35165617E+00 0.21030802E+03</pdfrwt>
<pdfrwt beam="2">  1       -1 0.31120874E-02 0.21030802E+03</pdfrwt>
<totfact> 0.79073355E+02</totfact>
</mgrwt>
</event>
<event>
 4    3  0.7748294E-001  0.2417423E+03  0.7546771E-02  0.1118638E+00
          2   -1    0    0  502    0  0.00000000000E+00  0.00000000000E+00  0.31400015209E+03  0.31400015209E+03  0.00000000000E+00 0. -1.
         -2   -1    0    0    0  501 -0.00000000000E+00 -0.00000000000E+00 -0.20239914413E+03  0.20239914413E+03  0.00000000000E+00 0.  1.
          6    1    1    2  502    0 -0.13495926223E+03  0.10147078078E+03  0.12904389633E+03  0.27402855507E+03  0.17300000000E+03 0. -1.
         -6    1    1    2    0  501  0.13495926223E+03 -0.10147078078E+03 -0.17442888361E+02  0.24237074115E+03  0.17300000000E+03 0. -1.
<mgrwt>
<rscale>  2 0.24174226E+03</rscale>
<asrwt>0</asrwt>
<pdfrwt beam="1">  1        2 0.48307716E-01 0.24174226E+03</pdfrwt>
<pdfrwt beam="2">  1       -2 0.31138330E-01 0.24174226E+03</pdfrwt>
<totfact> 0.99347906E+02</totfact>
</mgrwt>
</event>
<event>
 4    3  0.7748294E-001  0.1241290E+04  0.7546771E-02  0.9077464E-01
         -2   -1    0    0    0  501 -0.00000000000E+00  0.00000000000E+00  0.48002688227E+03  0.48002688227E+03  0.00000000000E+00 0. -1.
          2   -1    0    0  502    0  0.00000000000E+00 -0.00000000000E+00 -0.32440349807E+04  0.32440349807E+04  0.00000000000E+00 0.  1.
          6    1    1    2  502    0  0.11310350227E+04 -0.48128177213E+03 -0.11907843137E+04  0.17201071620E+04  0.17300000000E+03 0. -1.
         -6    1    1    2    0  501 -0.11310350227E+04  0.48128177213E+03 -0.15732237847E+04  0.20039547010E+04  0.17300000000E+03 0.  1.
<mgrwt>
<rscale>  2 0.12412902E+04</rscale>
<asrwt>0</asrwt>
<pdfrwt beam="1">  1        2 0.49908231E+00 0.12412902E+04</pdfrwt>
<pdfrwt beam="2">  1       -2 0.73850288E-01 0.12412902E+04</pdfrwt>
<totfact> 0.19920400E+00</totfact>
</mgrwt>
</event>
<event>
 4    3  0.7748294E-001  0.1742532E+03  0.7546771E-02  0.1173484E+00
          2   -1    0    0  502    0  0.00000000000E+00  0.00000000000E+00  0.21931189779E+04  0.21931189779E+04  0.00000000000E+00 0. -1.
         -2   -1    0    0    0  501 -0.00000000000E+00 -0.00000000000E+00 -0.13874491366E+02  0.13874491366E+02  0.00000000000E+00 0.  1.
          6    1    1    2  502    0 -0.16981205458E+02 -0.12116080379E+02  0.11403290857E+04  0.11535660295E+04  0.17300000000E+03 0.  1.
         -6    1    1    2    0  501  0.16981205458E+02  0.12116080379E+02  0.10389154009E+04  0.10534274398E+04  0.17300000000E+03 0. -1.
<mgrwt>
<rscale>  2 0.17425315E+03</rscale>
<asrwt>0</asrwt>
<pdfrwt beam="1">  1        2 0.33740264E+00 0.17425315E+03</pdfrwt>
<pdfrwt beam="2">  1       -2 0.21345389E-02 0.17425315E+03</pdfrwt>
<totfact> 0.41248371E+03</totfact>
</mgrwt>
</event>
<event>
 4    3  0.7748294E-001  0.1810767E+03  0.7546771E-02  0.1166765E+00
         -2   -1    0    0    0  501 -0.00000000000E+00  0.00000000000E+00  0.84858757712E+02  0.84858757712E+02  0.00000000000E+00 0. -1.
          2   -1    0    0  502    0  0.00000000000E+00 -0.00000000000E+00 -0.50101632006E+03  0.50101632006E+03  0.00000000000E+00 0.  1.
          6    1    1    2  502    0  0.17740429230E+02  0.50448397689E+02 -0.34819456617E+03  0.39246429082E+03  0.17300000000E+03 0.  1.
         -6    1    1    2    0  501 -0.17740429230E+02 -0.50448397689E+02 -0.67962996174E+02  0.19341078695E+03  0.17300000000E+03 0. -1.
<mgrwt>
<rscale>  2 0.18107668E+03</rscale>
<asrwt>0</asrwt>
<pdfrwt beam="1">  1        2 0.77079432E-01 0.18107668E+03</pdfrwt>
<pdfrwt beam="2">  1       -2 0.13055194E-01 0.18107668E+03</pdfrwt>
<totfact> 0.26374825E+03</totfact>
</mgrwt>
</event>
<event>
 4    3  0.7748294E-001  0.1964946E+03  0.7546771E-02  0.1152731E+00
         -1   -1    0    0    0  501 -0.00000000000E+00  0.00000000000E+00  0.69070442819E+03  0.69070442819E+03  0.00000000000E+00 0. -1.
          1   -1    0    0  502    0  0.00000000000E+00 -0.00000000000E+00 -0.57060999102E+02  0.57060999102E+02  0.00000000000E+00 0.  1.
          6    1    1    2  502    0 -0.76723773235E+02  0.52863816193E+02  0.26348193098E+03  0.32868350795E+03  0.17300000000E+03 0.  1.
         -6    1    1    2    0  501  0.76723773235E+02 -0.52863816193E+02  0.37016149811E+03  0.41908191934E+03  0.17300000000E+03 0. -1.
<mgrwt>
<rscale>  2 0.19649458E+03</rscale>
<asrwt>0</asrwt>
<pdfrwt beam="1">  1        1 0.87786157E-02 0.19649458E+03</pdfrwt>
<pdfrwt beam="2">  1       -1 0.10626221E+00 0.19649458E+03</pdfrwt>
<totfact> 0.67086793E+02</totfact>
</mgrwt>
</event>
<event>
 4    3  0.7748294E-001  0.2177559E+03  0.7546771E-02  0.1135567E+00
          1   -1    0    0  502    0  0.00000000000E+00  0.00000000000E+00  0.24038969006E+03  0.24038969006E+03  0.00000000000E+00 0.  1.
         -1   -1    0    0    0  501 -0.00000000000E+00 -0.00000000000E+00 -0.22420763912E+03  0.22420763912E+03  0.00000000000E+00 0. -1.
          6    1    1    2  502    0  0.12851322729E+03  0.31192351891E+02  0.88635812521E+02  0.23510406136E+03  0.17300000000E+03 0.  1.
         -6    1    1    2    0  501 -0.12851322729E+03 -0.31192351891E+02 -0.72453761584E+02  0.22949326782E+03  0.17300000000E+03 0. -1.
<mgrwt>
<rscale>  2 0.21775586E+03</rscale>
<asrwt>0</asrwt>
<pdfrwt beam="1">  1        1 0.36983029E-01 0.21775586E+03</pdfrwt>
<pdfrwt beam="2">  1       -1 0.34493483E-01 0.21775586E+03</pdfrwt>
<totfact> 0.93084178E+02</totfact>
</mgrwt>
</event>
<event>
 4    3  0.7748294E-001  0.1804410E+03  0.7546771E-02  0.1167377E+00
          2   -1    0    0  502    0  0.00000000000E+00  0.00000000000E+00  0.43350460268E+03  0.43350460268E+03  0.00000000000E+00 0.  1.
         -2   -1    0    0    0  501 -0.00000000000E+00 -0.00000000000E+00 -0.79348285312E+02  0.79348285312E+02  0.00000000000E+00 0. -1.
          6    1    1    2  502    0  0.33564438620E+02 -0.38773255228E+02  0.23636760872E+03  0.29736943910E+03  0.17300000000E+03 0.  1.
         -6    1    1    2    0  501 -0.33564438620E+02  0.38773255228E+02  0.11778870865E+03  0.21548344889E+03  0.17300000000E+03 0. -1.
<mgrwt>
<rscale>  2 0.18044095E+03</rscale>
<asrwt>0</asrwt>
<pdfrwt beam="1">  1        2 0.66693014E-01 0.18044095E+03</pdfrwt>
<pdfrwt beam="2">  1       -2 0.12207429E-01 0.18044095E+03</pdfrwt>
<totfact> 0.34457008E+03</totfact>
</mgrwt>
</event>
<event>
 4    3  0.7748294E-001  0.1867679E+03  0.7546771E-02  0.1161409E+00
          2   -1    0    0  502    0  0.00000000000E+00  0.00000000000E+00  0.20902193973E+04  0.20902193973E+04  0.00000000000E+00 0.  1.
         -2   -1    0    0    0  501 -0.00000000000E+00 -0.00000000000E+00 -0.17726950349E+02  0.17726950349E+02  0.00000000000E+00 0. -1.
          6    1    1    2  502    0 -0.61104079924E+02  0.34922112251E+02  0.12913646416E+04  0.13048007128E+04  0.17300000000E+03 0. -1.
         -6    1    1    2    0  501  0.61104079924E+02 -0.34922112251E+02  0.78112780533E+03  0.80314563484E+03  0.17300000000E+03 0. -1.
<mgrwt>
<rscale>  2 0.18676794E+03</rscale>
<asrwt>0</asrwt>
<pdfrwt beam="1">  1        2 0.32157202E+00 0.18676794E+03</pdfrwt>
<pdfrwt beam="2">  1       -2 0.27272248E-02 0.18676794E+03</pdfrwt>
<totfact> 0.32556331E+03</totfact>
</mgrwt>
</event>
<event>
 4    3  0.7748294E-001  0.2918201E+03  0.7546771E-02  0.1089403E+00
         -2   -1    0    0    0  501 -0.00000000000E+00  0.00000000000E+00  0.56883791110E+02  0.56883791110E+02  0.00000000000E+00 0. -1.
          2   -1    0    0  502    0  0.00000000000E+00 -0.00000000000E+00 -0.17788799376E+04  0.17788799376E+04  0.00000000000E+00 0.  1.
          6    1    1    2  502    0  0.85344149399E+02  0.21896654752E+03 -0.49566227995E+03  0.57518698571E+03  0.17300000000E+03 0. -1.
         -6    1    1    2    0  501 -0.85344149399E+02 -0.21896654752E+03 -0.12263338666E+04  0.12605767430E+04  0.17300000000E+03 0.  1.
<mgrwt>
<rscale>  2 0.29182010E+03</rscale>
<asrwt>0</asrwt>
<pdfrwt beam="1">  1        2 0.27367378E+00 0.29182010E+03</pdfrwt>
<pdfrwt beam="2">  1       -2 0.87513544E-02 0.29182010E+03</pdfrwt>
<totfact> 0.79585981E+02</totfact>
</mgrwt>
</event>
<event>
 4    3  0.7748294E-001  0.1872171E+03  0.7546771E-02  0.1160996E+00
         -2   -1    0    0    0  501 -0.00000000000E+00  0.00000000000E+00  0.13072602644E+02  0.13072602644E+02  0.00000000000E+00 0. -1.
          2   -1    0    0  502    0  0.00000000000E+00 -0.00000000000E+00 -0.29510649284E+04  0.29510649284E+04  0.00000000000E+00 0.  1.
          6    1    1    2  502    0  0.20746638676E+02 -0.68489500692E+02 -0.19171776238E+04  0.19262970373E+04  0.17300000000E+03 0.  1.
         -6    1    1    2    0  501 -0.20746638676E+02  0.68489500692E+02 -0.10208147020E+04  0.10378404938E+04  0.17300000000E+03 0. -1.
<mgrwt>
<rscale>  2 0.18721708E+03</rscale>
<asrwt>0</asrwt>
<pdfrwt beam="1">  1        2 0.45401031E+00 0.18721708E+03</pdfrwt>
<pdfrwt beam="2">  1       -2 0.20111682E-02 0.18721708E+03</pdfrwt>
<totfact> 0.17299071E+03</totfact>
</mgrwt>
</event>
<event>
 4    3  0.7748294E-001  0.2128467E+03  0.7546771E-02  0.1139331E+00
          2   -1    0    0  502    0  0.00000000000E+00  0.00000000000E+00  0.87117748840E+03  0.87117748840E+03  0.00000000000E+00 0. -1.
         -2   -1    0    0    0  501 -0.00000000000E+00 -0.00000000000E+00 -0.52035864911E+02  0.52035864911E+02  0.00000000000E+00 0.  1.
          6    1    1    2  502    0  0.61213983243E+02  0.10783117887E+03  0.39794412637E+03  0.45129064093E+03  0.17300000000E+03 0.  1.
         -6    1    1    2    0  501 -0.61213983243E+02 -0.10783117887E+03  0.42119749712E+03  0.47192271238E+03  0.17300000000E+03 0.  1.
<mgrwt>
<rscale>  2 0.21284669E+03</rscale>
<asrwt>0</asrwt>
<pdfrwt beam="1">  1        2 0.13402730E+00 0.21284669E+03</pdfrwt>
<pdfrwt beam="2">  1       -2 0.80055183E-02 0.21284669E+03</pdfrwt>
<totfact> 0.29775303E+03</totfact>
</mgrwt>
</event>
<event>
 4    3  0.7748294E-001  0.1941841E+03  0.7546771E-02  0.1154741E+00
          2   -1    0    0  502    0  0.00000000000E+00  0.00000000000E+00  0.15410092893E+04  0.15410092893E+04  0.00000000000E+00 0.  1.
         -2   -1    0    0    0  501 -0.00000000000E+00 -0.00000000000E+00 -0.29277604449E+02  0.29277604449E+02  0.00000000000E+00 0. -1.
          6    1    1    2  502    0 -0.88158845191E+02  0.25467816057E+01  0.43768372341E+03  0.47882617913E+03  0.17300000000E+03 0.  1.
         -6    1    1    2    0  501  0.88158845191E+02 -0.25467816057E+01  0.10740479615E+04  0.10914607147E+04  0.17300000000E+03 0.  1.
<mgrwt>
<rscale>  2 0.19418411E+03</rscale>
<asrwt>0</asrwt>
<pdfrwt beam="1">  1        2 0.23707829E+00 0.19418411E+03</pdfrwt>
<pdfrwt beam="2">  1       -2 0.45042481E-02 0.19418411E+03</pdfrwt>
<totfact> 0.29740489E+03</totfact>
</mgrwt>
</event>
<event>
 4    3  0.7748294E-001  0.2280893E+03  0.7546771E-02  0.1127992E+00
         -1   -1    0    0    0  501 -0.00000000000E+00  0.00000000000E+00  0.38083678821E+02  0.38083678821E+02  0.00000000000E+00 0. -1.
          1   -1    0    0  502    0  0.00000000000E+00 -0.00000000000E+00 -0.13688732325E+04  0.13688732325E+04  0.00000000000E+00 0.  1.
          6    1    1    2  502    0 -0.14857150801E+03  0.47137283478E+01 -0.63352164669E+03  0.67333081695E+03  0.17300000000E+03 0. -1.
         -6    1    1    2    0  501  0.14857150801E+03 -0.47137283478E+01 -0.69726790696E+03  0.73362609434E+03  0.17300000000E+03 0.  1.
<mgrwt>
<rscale>  2 0.22808926E+03</rscale>
<asrwt>0</asrwt>
<pdfrwt beam="1">  1        1 0.21059586E+00 0.22808926E+03</pdfrwt>
<pdfrwt beam="2">  1       -1 0.58590281E-02 0.22808926E+03</pdfrwt>
<totfact> 0.12162581E+03</totfact>
</mgrwt>
</event>
<event>
 4    3  0.7748294E-001  0.2251843E+03  0.7546771E-02  0.1130076E+00
         -2   -1    0    0    0  501 -0.00000000000E+00  0.00000000000E+00  0.28237782565E+02  0.28237782565E+02  0.00000000000E+00 0.  1.
          2   -1    0    0  502    0  0.00000000000E+00 -0.00000000000E+00 -0.21625733872E+04  0.21625733872E+04  0.00000000000E+00 0. -1.
          6    1    1    2  502    0 -0.14090647077E+03  0.30403101746E+02 -0.15183151062E+04  0.15349230417E+04  0.17300000000E+03 0. -1.
         -6    1    1    2    0  501  0.14090647077E+03 -0.30403101746E+02 -0.61602049846E+03  0.65588812813E+03  0.17300000000E+03 0.  1.
<mgrwt>
<rscale>  2 0.22518433E+03</rscale>
<asrwt>0</asrwt>
<pdfrwt beam="1">  1        2 0.33270372E+00 0.22518433E+03</pdfrwt>
<pdfrwt beam="2">  1       -2 0.43442726E-02 0.22518433E+03</pdfrwt>
<totfact> 0.14851762E+03</totfact>
</mgrwt>
</event>
<event>
 4    3  0.7748294E-001  0.1811192E+03  0.7546771E-02  0.1166724E+00
          2   -1    0    0  502    0  0.00000000000E+00  0.00000000000E+00  0.32899506402E+03  0.32899506402E+03  0.00000000000E+00 0. -1.
         -2   -1    0    0    0  501 -0.00000000000E+00 -0.00000000000E+00 -0.10663580914E+03  0.10663580914E+03  0.00000000000E+00 0.  1.
          6    1    1    2  502    0  0.83912990894E+01 -0.52959985222E+02  0.16668884781E+03  0.24614903193E+03  0.17300000000E+03 0. -1.
         -6    1    1    2    0  501 -0.83912990894E+01  0.52959985222E+02  0.55670407062E+02  0.18948184123E+03  0.17300000000E+03 0.  1.
<mgrwt>
<rscale>  2 0.18111923E+03</rscale>
<asrwt>0</asrwt>
<pdfrwt beam="1">  1        2 0.50614625E-01 0.18111923E+03</pdfrwt>
<pdfrwt beam="2">  1       -2 0.16405509E-01 0.18111923E+03</pdfrwt>
<totfact> 0.28608917E+03</totfact>
</mgrwt>
</event>
<event>
 4    3  0.7748294E-001  0.2007700E+03  0.7546771E-02  0.1149091E+00
          3   -1    0    0  502    0  0.00000000000E+00  0.00000000000E+00  0.10924474875E+03  0.10924474875E+03  0.00000000000E+00 0.  1.
         -3   -1    0    0    0  501 -0.00000000000E+00 -0.00000000000E+00 -0.43047092366E+03  0.43047092366E+03  0.00000000000E+00 0. -1.
          6    1    1    2  502    0  0.49389761825E+02 -0.89107985969E+02 -0.26260982220E+03  0.33056391281E+03  0.17300000000E+03 0. -1.
         -6    1    1    2    0  501 -0.49389761825E+02  0.89107985969E+02 -0.58616352712E+02  0.20915175960E+03  0.17300000000E+03 0.  1.
<mgrwt>
<rscale>  2 0.20076997E+03</rscale>
<asrwt>0</asrwt>
<pdfrwt beam="1">  1        3 0.16806884E-01 0.20076997E+03</pdfrwt>
<pdfrwt beam="2">  1       -3 0.66226296E-01 0.20076997E+03</pdfrwt>
<totfact> 0.16664351E+02</totfact>
</mgrwt>
</event>
<event>
 4    3  0.7748294E-001  0.1852870E+03  0.7546771E-02  0.1162782E+00
         -1   -1    0    0    0  501 -0.00000000000E+00  0.00000000000E+00  0.33408510501E+03  0.33408510501E+03  0.00000000000E+00 0.  1.
          1   -1    0    0  502    0  0.00000000000E+00 -0.00000000000E+00 -0.19565011012E+03  0.19565011012E+03  0.00000000000E+00 0. -1.
          6    1    1    2  502    0 -0.54575723279E+02  0.37732774245E+02  0.25171996303E+03  0.31256073268E+03  0.17300000000E+03 0.  1.
         -6    1    1    2    0  501  0.54575723279E+02 -0.37732774245E+02 -0.11328496814E+03  0.21717448246E+03  0.17300000000E+03 0. -1.
<mgrwt>
<rscale>  2 0.18528700E+03</rscale>
<asrwt>0</asrwt>
<pdfrwt beam="1">  1        1 0.30100017E-01 0.18528700E+03</pdfrwt>
<pdfrwt beam="2">  1       -1 0.51397709E-01 0.18528700E+03</pdfrwt>
<totfact> 0.59037180E+02</totfact>
</mgrwt>
</event>
<event>
 4    3  0.7748294E-001  0.2590807E+03  0.7546771E-02  0.1107697E+00
         -2   -1    0    0    0  501 -0.00000000000E+00  0.00000000000E+00  0.34878094818E+03  0.34878094818E+03  0.00000000000E+00 0.  1.
          2   -1    0    0  502    0  0.00000000000E+00 -0.00000000000E+00 -0.19256697144E+03  0.19256697144E+03  0.00000000000E+00 0. -1.
          6    1    1    2  502    0 -0.16943470670E+03 -0.92117726302E+02  0.84786077707E+02  0.27260131017E+03  0.17300000000E+03 0.  1.
         -6    1    1    2    0  501  0.16943470670E+03  0.92117726302E+02  0.71427899032E+02  0.26874660945E+03  0.17300000000E+03 0. -1.
<mgrwt>
<rscale>  2 0.25908067E+03</rscale>
<asrwt>0</asrwt>
<pdfrwt beam="1">  1        2 0.29625688E-01 0.25908067E+03</pdfrwt>
<pdfrwt beam="2">  1       -2 0.53658608E-01 0.25908067E+03</pdfrwt>
<totfact> 0.59350031E+02</totfact>
</mgrwt>
</event>
<event>
 4    3  0.7748294E-001  0.2293495E+03  0.7546771E-02  0.1127098E+00
          1   -1    0    0  502    0  0.00000000000E+00  0.00000000000E+00  0.64943228779E+03  0.64943228779E+03  0.00000000000E+00 0. -1.
         -1   -1    0    0    0  501 -0.00000000000E+00 -0.00000000000E+00 -0.83643025790E+02  0.83643025790E+02  0.00000000000E+00 0.  1.
          6    1    1    2  502    0  0.77710965110E+01 -0.15037227664E+03  0.21768543505E+03  0.31620904502E+03  0.17300000000E+03 0.  1.
         -6    1    1    2    0  501 -0.77710965110E+01  0.15037227664E+03  0.34810382695E+03  0.41686626855E+03  0.17300000000E+03 0. -1.
<mgrwt>
<rscale>  2 0.22934954E+03</rscale>
<asrwt>0</asrwt>
<pdfrwt beam="1">  1        1 0.99912657E-01 0.22934954E+03</pdfrwt>
<pdfrwt beam="2">  1       -1 0.12868158E-01 0.22934954E+03</pdfrwt>
<totfact> 0.12892501E+03</totfact>
</mgrwt>
</event>
<event>
 4    3  0.7748294E-001  0.1774307E+03  0.7546771E-02  0.1170313E+00
         -1   -1    0    0    0  501 -0.00000000000E+00  0.00000000000E+00  0.39570794345E+02  0.39570794345E+02  0.00000000000E+00 0.  1.
          1   -1    0    0  502    0  0.00000000000E+00 -0.00000000000E+00 -0.10346696610E+04  0.10346696610E+04  0.00000000000E+00 0. -1.
          6    1    1    2  502    0 -0.25731612255E+02 -0.29841817518E+02 -0.23935139100E+03  0.29794418658E+03  0.17300000000E+03 0.  1.
         -6    1    1    2    0  501  0.25731612255E+02  0.29841817518E+02 -0.75574747563E+03  0.77629626874E+03  0.17300000000E+03 0. -1.
<mgrwt>
<rscale>  2 0.17743069E+03</rscale>
<asrwt>0</asrwt>
<pdfrwt beam="1">  1        1 0.15917998E+00 0.17743069E+03</pdfrwt>
<pdfrwt beam="2">  1       -1 0.60878133E-02 0.17743069E+03</pdfrwt>
<totfact> 0.19616384E+03</totfact>
</mgrwt>
</event>
<event>
 4    3  0.7748294E-001  0.2082003E+03  0.7546771E-02  0.1142999E+00
          1   -1    0    0  502    0  0.00000000000E+00  0.00000000000E+00  0.19419804537E+03  0.19419804537E+03  0.00000000000E+00 0.  1.
         -1   -1    0    0    0  501 -0.00000000000E+00 -0.00000000000E+00 -0.24330720809E+03  0.24330720809E+03  0.00000000000E+00 0. -1.
          6    1    1    2  502    0  0.77856547408E+02  0.85771244010E+02  0.38312204097E+02  0.21169594530E+03  0.17300000000E+03 0.  1.
         -6    1    1    2    0  501 -0.77856547408E+02 -0.85771244010E+02 -0.87421366819E+02  0.22580930816E+03  0.17300000000E+03 0. -1.
<mgrwt>
<rscale>  2 0.20820026E+03</rscale>
<asrwt>0</asrwt>
<pdfrwt beam="1">  1        1 0.29876623E-01 0.20820026E+03</pdfrwt>
<pdfrwt beam="2">  1       -1 0.37431878E-01 0.20820026E+03</pdfrwt>
<totfact> 0.10549803E+03</totfact>
</mgrwt>
</event>
<event>
 4    3  0.7748294E-001  0.1791513E+03  0.7546771E-02  0.1168627E+00
         -2   -1    0    0    0  501 -0.00000000000E+00  0.00000000000E+00  0.89651590924E+03  0.89651590924E+03  0.00000000000E+00 0. -1.
          2   -1    0    0  502    0  0.00000000000E+00 -0.00000000000E+00 -0.36343856833E+02  0.36343856833E+02  0.00000000000E+00 0.  1.
          6    1    1    2  502    0 -0.11346268003E+02 -0.45138280917E+02  0.48714752142E+03  0.51904519054E+03  0.17300000000E+03 0. -1.
         -6    1    1    2    0  501  0.11346268003E+02  0.45138280917E+02  0.37302453100E+03  0.41381457554E+03  0.17300000000E+03 0.  1.
<mgrwt>
<rscale>  2 0.17915134E+03</rscale>
<asrwt>0</asrwt>
<pdfrwt beam="1">  1        2 0.55913633E-02 0.17915134E+03</pdfrwt>
<pdfrwt beam="2">  1       -2 0.13792551E+00 0.17915134E+03</pdfrwt>
<totfact> 0.52699412E+02</totfact>
</mgrwt>
</event>
<event>
 4    3  0.7748294E-001  0.1756750E+03  0.7546771E-02  0.1172056E+00
         -2   -1    0    0    0  501 -0.00000000000E+00  0.00000000000E+00  0.88284758868E+03  0.88284758868E+03  0.00000000000E+00 0. -1.
          2   -1    0    0  502    0  0.00000000000E+00 -0.00000000000E+00 -0.38092615025E+02  0.38092615025E+02  0.00000000000E+00 0.  1.
          6    1    1    2  502    0 -0.23895215976E+02  0.19019306326E+02  0.55448923952E+03  0.58165284501E+03  0.17300000000E+03 0. -1.
         -6    1    1    2    0  501  0.23895215976E+02 -0.19019306326E+02  0.29026573413E+03  0.33928735870E+03  0.17300000000E+03 0.  1.
<mgrwt>
<rscale>  2 0.17567503E+03</rscale>
<asrwt>0</asrwt>
<pdfrwt beam="1">  1        2 0.58604030E-02 0.17567503E+03</pdfrwt>
<pdfrwt beam="2">  1       -2 0.13582269E+00 0.17567503E+03</pdfrwt>
<totfact> 0.51483211E+02</totfact>
</mgrwt>
</event>
<event>
 4    3  0.7748294E-001  0.1731659E+03  0.7546771E-02  0.1174586E+00
         -1   -1    0    0    0  501 -0.00000000000E+00  0.00000000000E+00  0.46115343258E+02  0.46115343258E+02  0.00000000000E+00 0. -1.
          1   -1    0    0  502    0  0.00000000000E+00 -0.00000000000E+00 -0.73296761954E+03  0.73296761954E+03  0.00000000000E+00 0.  1.
          6    1    1    2  502    0  0.63493687274E+01 -0.41370250740E+01 -0.21256386572E+03  0.27417116273E+03  0.17300000000E+03 0. -1.
         -6    1    1    2    0  501 -0.63493687274E+01  0.41370250740E+01 -0.47428841056E+03  0.50491180007E+03  0.17300000000E+03 0.  1.
<mgrwt>
<rscale>  2 0.17316590E+03</rscale>
<asrwt>0</asrwt>
<pdfrwt beam="1">  1        1 0.11276425E+00 0.17316590E+03</pdfrwt>
<pdfrwt beam="2">  1       -1 0.70946680E-02 0.17316590E+03</pdfrwt>
<totfact> 0.26928335E+03</totfact>
</mgrwt>
</event>
<event>
 4    3  0.7748294E-001  0.1836714E+03  0.7546771E-02  0.1164296E+00
          2   -1    0    0  502    0  0.00000000000E+00  0.00000000000E+00  0.75779287475E+03  0.75779287475E+03  0.00000000000E+00 0. -1.
         -2   -1    0    0    0  501 -0.00000000000E+00 -0.00000000000E+00 -0.47484808417E+02  0.47484808417E+02  0.00000000000E+00 0.  1.
          6    1    1    2  502    0  0.21091769487E+02  0.57976901830E+02  0.25450579268E+03  0.31386045051E+03  0.17300000000E+03 0.  1.
         -6    1    1    2    0  501 -0.21091769487E+02 -0.57976901830E+02  0.45580227366E+03  0.49141723266E+03  0.17300000000E+03 0.  1.
<mgrwt>
<rscale>  2 0.18367140E+03</rscale>
<asrwt>0</asrwt>
<pdfrwt beam="1">  1        2 0.11658351E+00 0.18367140E+03</pdfrwt>
<pdfrwt beam="2">  1       -2 0.73053557E-02 0.18367140E+03</pdfrwt>
<totfact> 0.40821729E+03</totfact>
</mgrwt>
</event>
<event>
 4    3  0.7748294E-001  0.2189984E+03  0.7546771E-02  0.1134632E+00
          2   -1    0    0  502    0  0.00000000000E+00  0.00000000000E+00  0.49089434032E+04  0.49089434032E+04  0.00000000000E+00 0.  1.
         -2   -1    0    0    0  501 -0.00000000000E+00 -0.00000000000E+00 -0.97767998133E+01  0.97767998133E+01  0.00000000000E+00 0. -1.
          6    1    1    2  502    0 -0.19270492998E+02  0.13289079056E+03  0.25145037145E+04  0.25240224334E+04  0.17300000000E+03 0. -1.
         -6    1    1    2    0  501  0.19270492998E+02 -0.13289079056E+03  0.23846628888E+04  0.23946977696E+04  0.17300000000E+03 0.  1.
<mgrwt>
<rscale>  2 0.21899843E+03</rscale>
<asrwt>0</asrwt>
<pdfrwt beam="1">  1        2 0.75522009E+00 0.21899843E+03</pdfrwt>
<pdfrwt beam="2">  1       -2 0.15041270E-02 0.21899843E+03</pdfrwt>
<totfact> 0.78301870E+01</totfact>
</mgrwt>
</event>
<event>
 4    3  0.7748294E-001  0.1892878E+03  0.7546771E-02  0.1159105E+00
          1   -1    0    0  502    0  0.00000000000E+00  0.00000000000E+00  0.24158965055E+02  0.24158965055E+02  0.00000000000E+00 0.  1.
         -1   -1    0    0    0  501 -0.00000000000E+00 -0.00000000000E+00 -0.14833254904E+04  0.14833254904E+04  0.00000000000E+00 0. -1.
          6    1    1    2  502    0 -0.76155980161E+02  0.10057425369E+02 -0.73910900556E+03  0.76296265126E+03  0.17300000000E+03 0. -1.
         -6    1    1    2    0  501  0.76155980161E+02 -0.10057425369E+02 -0.72005751974E+03  0.74452180415E+03  0.17300000000E+03 0.  1.
<mgrwt>
<rscale>  2 0.18928784E+03</rscale>
<asrwt>0</asrwt>
<pdfrwt beam="1">  1        1 0.37167635E-02 0.18928784E+03</pdfrwt>
<pdfrwt beam="2">  1       -1 0.22820394E+00 0.18928784E+03</pdfrwt>
<totfact> 0.27593189E+02</totfact>
</mgrwt>
</event>
<event>
 4    3  0.7748294E-001  0.1835812E+03  0.7546771E-02  0.1164382E+00
         -1   -1    0    0    0  501 -0.00000000000E+00  0.00000000000E+00  0.14174836842E+03  0.14174836842E+03  0.00000000000E+00 0.  1.
          1   -1    0    0  502    0  0.00000000000E+00 -0.00000000000E+00 -0.36118094067E+03  0.36118094067E+03  0.00000000000E+00 0. -1.
          6    1    1    2  502    0  0.17399815273E+02  0.58909140814E+02 -0.25671366962E+03  0.31560093253E+03  0.17300000000E+03 0. -1.
         -6    1    1    2    0  501 -0.17399815273E+02 -0.58909140814E+02  0.37281097368E+02  0.18732837656E+03  0.17300000000E+03 0.  1.
<mgrwt>
<rscale>  2 0.18358115E+03</rscale>
<asrwt>0</asrwt>
<pdfrwt beam="1">  1        1 0.55566298E-01 0.18358115E+03</pdfrwt>
<pdfrwt beam="2">  1       -1 0.21807442E-01 0.18358115E+03</pdfrwt>
<totfact> 0.12033204E+03</totfact>
</mgrwt>
</event>
<event>
 4    3  0.7748294E-001  0.2356263E+03  0.7546771E-02  0.1122741E+00
         -2   -1    0    0    0  501 -0.00000000000E+00  0.00000000000E+00  0.56849816739E+02  0.56849816739E+02  0.00000000000E+00 0.  1.
          2   -1    0    0  502    0  0.00000000000E+00 -0.00000000000E+00 -0.97755855067E+03  0.97755855067E+03  0.00000000000E+00 0. -1.
          6    1    1    2  502    0 -0.14665819398E+03 -0.63891423201E+02 -0.47651895248E+03  0.53159199759E+03  0.17300000000E+03 0.  1.
         -6    1    1    2    0  501  0.14665819398E+03  0.63891423201E+02 -0.44418978145E+03  0.50281636983E+03  0.17300000000E+03 0.  1.
<mgrwt>
<rscale>  2 0.23562627E+03</rscale>
<asrwt>0</asrwt>
<pdfrwt beam="1">  1        2 0.15039362E+00 0.23562627E+03</pdfrwt>
<pdfrwt beam="2">  1       -2 0.87461260E-02 0.23562627E+03</pdfrwt>
<totfact> 0.22218694E+03</totfact>
</mgrwt>
</event>
<event>
 4    3  0.7748294E-001  0.2176680E+03  0.7546771E-02  0.1135634E+00
          1   -1    0    0  502    0  0.00000000000E+00  0.00000000000E+00  0.88401511712E+02  0.88401511712E+02  0.00000000000E+00 0. -1.
         -1   -1    0    0    0  501 -0.00000000000E+00 -0.00000000000E+00 -0.64610088140E+03  0.64610088140E+03  0.00000000000E+00 0.  1.
          6    1    1    2  502    0  0.64998247406E+02 -0.11500264259E+03 -0.43048274118E+03  0.48238446329E+03  0.17300000000E+03 0.  1.
         -6    1    1    2    0  501 -0.64998247406E+02  0.11500264259E+03 -0.12721662850E+03  0.25211792982E+03  0.17300000000E+03 0. -1.
<mgrwt>
<rscale>  2 0.21766805E+03</rscale>
<asrwt>0</asrwt>
<pdfrwt beam="1">  1        1 0.13600232E-01 0.21766805E+03</pdfrwt>
<pdfrwt beam="2">  1       -1 0.99400139E-01 0.21766805E+03</pdfrwt>
<totfact> 0.43468251E+02</totfact>
</mgrwt>
</event>
<event>
 4    3  0.7748294E-001  0.2288952E+03  0.7546771E-02  0.1127420E+00
         -2   -1    0    0    0  501 -0.00000000000E+00  0.00000000000E+00  0.26545415014E+02  0.26545415014E+02  0.00000000000E+00 0.  1.
          2   -1    0    0  502    0  0.00000000000E+00 -0.00000000000E+00 -0.21229059181E+04  0.21229059181E+04  0.00000000000E+00 0. -1.
          6    1    1    2  502    0  0.10647482042E+03 -0.10548523630E+03 -0.76327083513E+03  0.79685343083E+03  0.17300000000E+03 0.  1.
         -6    1    1    2    0  501 -0.10647482042E+03  0.10548523630E+03 -0.13330896679E+04  0.13525979022E+04  0.17300000000E+03 0. -1.
<mgrwt>
<rscale>  2 0.22889522E+03</rscale>
<asrwt>0</asrwt>
<pdfrwt beam="1">  1        2 0.32660093E+00 0.22889522E+03</pdfrwt>
<pdfrwt beam="2">  1       -2 0.40839097E-02 0.22889522E+03</pdfrwt>
<totfact> 0.17098978E+03</totfact>
</mgrwt>
</event>
<event>
 4    3  0.7748294E-001  0.2240893E+03  0.7546771E-02  0.1130871E+00
         -2   -1    0    0    0  501 -0.00000000000E+00  0.00000000000E+00  0.28569473836E+02  0.28569473836E+02  0.00000000000E+00 0.  1.
          2   -1    0    0  502    0  0.00000000000E+00 -0.00000000000E+00 -0.17685695756E+04  0.17685695756E+04  0.00000000000E+00 0. -1.
          6    1    1    2  502    0  0.55037269296E+02 -0.13136929260E+03 -0.79949072020E+03  0.83030199550E+03  0.17300000000E+03 0.  1.
         -6    1    1    2    0  501 -0.55037269296E+02  0.13136929260E+03 -0.94050938157E+03  0.96683705394E+03  0.17300000000E+03 0.  1.
<mgrwt>
<rscale>  2 0.22408925E+03</rscale>
<asrwt>0</asrwt>
<pdfrwt beam="1">  1        2 0.27208768E+00 0.22408925E+03</pdfrwt>
<pdfrwt beam="2">  1       -2 0.43953028E-02 0.22408925E+03</pdfrwt>
<totfact> 0.23453233E+03</totfact>
</mgrwt>
</event>
<event>
 4    3  0.7748294E-001  0.2524019E+03  0.7546771E-02  0.1111796E+00
          2   -1    0    0  502    0  0.00000000000E+00  0.00000000000E+00  0.29210157905E+04  0.29210157905E+04  0.00000000000E+00 0.  1.
         -2   -1    0    0    0  501 -0.00000000000E+00 -0.00000000000E+00 -0.38968756951E+02  0.38968756951E+02  0.00000000000E+00 0. -1.
          6    1    1    2  502    0  0.13268166797E+03  0.12717420070E+03  0.45894342319E+03  0.52377072086E+03  0.17300000000E+03 0. -1.
         -6    1    1    2    0  501 -0.13268166797E+03 -0.12717420070E+03  0.24231036104E+04  0.24362138266E+04  0.17300000000E+03 0.  1.
<mgrwt>
<rscale>  2 0.25240187E+03</rscale>
<asrwt>0</asrwt>
<pdfrwt beam="1">  1        2 0.44938687E+00 0.25240187E+03</pdfrwt>
<pdfrwt beam="2">  1       -2 0.59951957E-02 0.25240187E+03</pdfrwt>
<totfact> 0.34562693E+02</totfact>
</mgrwt>
</event>
<event>
 4    3  0.7748294E-001  0.2161082E+03  0.7546771E-02  0.1136818E+00
         -1   -1    0    0    0  501 -0.00000000000E+00  0.00000000000E+00  0.55862192240E+02  0.55862192240E+02  0.00000000000E+00 0.  1.
          1   -1    0    0  502    0  0.00000000000E+00 -0.00000000000E+00 -0.83647789654E+03  0.83647789654E+03  0.00000000000E+00 0. -1.
          6    1    1    2  502    0 -0.10039512618E+03 -0.81820363374E+02 -0.40057329064E+03  0.45515021081E+03  0.17300000000E+03 0. -1.
         -6    1    1    2    0  501  0.10039512618E+03  0.81820363374E+02 -0.38004241366E+03  0.43718987797E+03  0.17300000000E+03 0. -1.
<mgrwt>
<rscale>  2 0.21610820E+03</rscale>
<asrwt>0</asrwt>
<pdfrwt beam="1">  1        1 0.12868890E+00 0.21610820E+03</pdfrwt>
<pdfrwt beam="2">  1       -1 0.85941836E-02 0.21610820E+03</pdfrwt>
<totfact> 0.16535594E+03</totfact>
</mgrwt>
</event>
<event>
 4    3  0.7748294E-001  0.1972787E+03  0.7546771E-02  0.1152055E+00
         -2   -1    0    0    0  501 -0.00000000000E+00  0.00000000000E+00  0.28039102590E+02  0.28039102590E+02  0.00000000000E+00 0. -1.
          2   -1    0    0  502    0  0.00000000000E+00 -0.00000000000E+00 -0.14101724123E+04  0.14101724123E+04  0.00000000000E+00 0.  1.
          6    1    1    2  502    0 -0.19754395674E+02 -0.92734309153E+02 -0.60094096136E+03  0.63249421126E+03  0.17300000000E+03 0.  1.
         -6    1    1    2    0  501  0.19754395674E+02  0.92734309153E+02 -0.78119234835E+03  0.80571730362E+03  0.17300000000E+03 0.  1.
<mgrwt>
<rscale>  2 0.19727871E+03</rscale>
<asrwt>0</asrwt>
<pdfrwt beam="1">  1        2 0.21694954E+00 0.19727871E+03</pdfrwt>
<pdfrwt beam="2">  1       -2 0.43137092E-02 0.19727871E+03</pdfrwt>
<totfact> 0.37253695E+03</totfact>
</mgrwt>
</event>
<event>
 4    3  0.7748294E-001  0.1801226E+03  0.7546771E-02  0.1167684E+00
          3   -1    0    0  502    0  0.00000000000E+00  0.00000000000E+00  0.73298093296E+02  0.73298093296E+02  0.00000000000E+00 0. -1.
         -3   -1    0    0    0  501 -0.00000000000E+00 -0.00000000000E+00 -0.47991984326E+03  0.47991984326E+03  0.00000000000E+00 0.  1.
          6    1    1    2  502    0  0.28992649639E+02 -0.40921500999E+02 -0.12620975948E+03  0.21993873321E+03  0.17300000000E+03 0. -1.
         -6    1    1    2    0  501 -0.28992649639E+02  0.40921500999E+02 -0.28041199049E+03  0.33327920335E+03  0.17300000000E+03 0. -1.
<mgrwt>
<rscale>  2 0.18012258E+03</rscale>
<asrwt>0</asrwt>
<pdfrwt beam="1">  1        3 0.11276630E-01 0.18012258E+03</pdfrwt>
<pdfrwt beam="2">  1       -3 0.73833820E-01 0.18012258E+03</pdfrwt>
<totfact> 0.25844341E+02</totfact>
</mgrwt>
</event>
<event>
 4    3  0.7748294E-001  0.1868547E+03  0.7546771E-02  0.1161329E+00
          1   -1    0    0  502    0  0.00000000000E+00  0.00000000000E+00  0.75249907822E+03  0.75249907822E+03  0.00000000000E+00 0. -1.
         -1   -1    0    0    0  501 -0.00000000000E+00 -0.00000000000E+00 -0.65514263070E+02  0.65514263070E+02  0.00000000000E+00 0.  1.
          6    1    1    2  502    0 -0.23251273076E+02  0.66671311106E+02  0.12255948374E+03  0.22346255275E+03  0.17300000000E+03 0. -1.
         -6    1    1    2    0  501  0.23251273076E+02 -0.66671311106E+02  0.56442533140E+03  0.59455078854E+03  0.17300000000E+03 0. -1.
<mgrwt>
<rscale>  2 0.18685472E+03</rscale>
<asrwt>0</asrwt>
<pdfrwt beam="1">  1        1 0.11576908E+00 0.18685472E+03</pdfrwt>
<pdfrwt beam="2">  1       -1 0.10079118E-01 0.18685472E+03</pdfrwt>
<totfact> 0.15191788E+03</totfact>
</mgrwt>
</event>
<event>
 4    3  0.7748294E-001  0.2891278E+03  0.7546771E-02  0.1090805E+00
         -2   -1    0    0    0  501 -0.00000000000E+00  0.00000000000E+00  0.30963685983E+02  0.30963685983E+02  0.00000000000E+00 0.  1.
          2   -1    0    0  502    0  0.00000000000E+00 -0.00000000000E+00 -0.30307039532E+04  0.30307039532E+04  0.00000000000E+00 0. -1.
          6    1    1    2  502    0 -0.22958861395E+03 -0.30902691609E+02 -0.99401598997E+03  0.10352114259E+04  0.17300000000E+03 0.  1.
         -6    1    1    2    0  501  0.22958861395E+03  0.30902691609E+02 -0.20057242773E+04  0.20264562133E+04  0.17300000000E+03 0. -1.
<mgrwt>
<rscale>  2 0.28912784E+03</rscale>
<asrwt>0</asrwt>
<pdfrwt beam="1">  1        2 0.46626218E+00 0.28912784E+03</pdfrwt>
<pdfrwt beam="2">  1       -2 0.47636437E-02 0.28912784E+03</pdfrwt>
<totfact> 0.41936617E+02</totfact>
</mgrwt>
</event>
<event>
 4    3  0.7748294E-001  0.1930897E+03  0.7546771E-02  0.1155704E+00
          1   -1    0    0  502    0  0.00000000000E+00  0.00000000000E+00  0.24218913543E+03  0.24218913543E+03  0.00000000000E+00 0. -1.
         -1   -1    0    0    0  501 -0.00000000000E+00 -0.00000000000E+00 -0.22610464744E+03  0.22610464744E+03  0.00000000000E+00 0.  1.
          6    1    1    2  502    0  0.23022806096E+02 -0.82611000995E+02 -0.12423437381E+03  0.22960358604E+03  0.17300000000E+03 0.  1.
         -6    1    1    2    0  501 -0.23022806096E+02  0.82611000995E+02  0.14031886180E+03  0.23869019683E+03  0.17300000000E+03 0. -1.
<mgrwt>
<rscale>  2 0.19308969E+03</rscale>
<asrwt>0</asrwt>
<pdfrwt beam="1">  1        1 0.37259867E-01 0.19308969E+03</pdfrwt>
<pdfrwt beam="2">  1       -1 0.34785330E-01 0.19308969E+03</pdfrwt>
<totfact> 0.90777344E+02</totfact>
</mgrwt>
</event>
<event>
 4    3  0.7748294E-001  0.1789202E+03  0.7546771E-02  0.1168852E+00
          2   -1    0    0  502    0  0.00000000000E+00  0.00000000000E+00  0.15075669204E+04  0.15075669204E+04  0.00000000000E+00 0.  1.
         -2   -1    0    0    0  501 -0.00000000000E+00 -0.00000000000E+00 -0.24580550205E+02  0.24580550205E+02  0.00000000000E+00 0. -1.
          6    1    1    2  502    0  0.30204805112E+02  0.34221352997E+02  0.45884842690E+03  0.49249803058E+03  0.17300000000E+03 0. -1.
         -6    1    1    2    0  501 -0.30204805112E+02 -0.34221352997E+02  0.10241379432E+04  0.10396494400E+04  0.17300000000E+03 0. -1.
<mgrwt>
<rscale>  2 0.17892018E+03</rscale>
<asrwt>0</asrwt>
<pdfrwt beam="1">  1        2 0.23193330E+00 0.17892018E+03</pdfrwt>
<pdfrwt beam="2">  1       -2 0.37816243E-02 0.17892018E+03</pdfrwt>
<totfact> 0.40225289E+03</totfact>
</mgrwt>
</event>
<event>
 4    3  0.7748294E-001  0.1857708E+03  0.7546771E-02  0.1162332E+00
         -1   -1    0    0    0  501 -0.00000000000E+00  0.00000000000E+00  0.23156149738E+02  0.23156149738E+02  0.00000000000E+00 0. -1.
          1   -1    0    0  502    0  0.00000000000E+00 -0.00000000000E+00 -0.17837617237E+04  0.17837617237E+04  0.00000000000E+00 0.  1.
          6    1    1    2  502    0  0.60657275564E+02 -0.30041475752E+02 -0.12467216710E+04  0.12604863031E+04  0.17300000000E+03 0.  1.
         -6    1    1    2    0  501 -0.60657275564E+02  0.30041475752E+02 -0.51388390293E+03  0.54643157031E+03  0.17300000000E+03 0. -1.
<mgrwt>
<rscale>  2 0.18577081E+03</rscale>
<asrwt>0</asrwt>
<pdfrwt beam="1">  1        1 0.27442490E+00 0.18577081E+03</pdfrwt>
<pdfrwt beam="2">  1       -1 0.35624844E-02 0.18577081E+03</pdfrwt>
<totfact> 0.13691638E+03</totfact>
</mgrwt>
</event>
<event>
 4    3  0.7748294E-001  0.1780867E+03  0.7546771E-02  0.1169668E+00
          2   -1    0    0  502    0  0.00000000000E+00  0.00000000000E+00  0.81397852052E+03  0.81397852052E+03  0.00000000000E+00 0.  1.
         -2   -1    0    0    0  501 -0.00000000000E+00 -0.00000000000E+00 -0.40346011657E+02  0.40346011657E+02  0.00000000000E+00 0. -1.
          6    1    1    2  502    0  0.34002092497E+02  0.25094568062E+02  0.30772337077E+03  0.35553980446E+03  0.17300000000E+03 0. -1.
         -6    1    1    2    0  501 -0.34002092497E+02 -0.25094568062E+02  0.46590913810E+03  0.49878472772E+03  0.17300000000E+03 0.  1.
<mgrwt>
<rscale>  2 0.17808672E+03</rscale>
<asrwt>0</asrwt>
<pdfrwt beam="1">  1        2 0.12522745E+00 0.17808672E+03</pdfrwt>
<pdfrwt beam="2">  1       -2 0.62070793E-02 0.17808672E+03</pdfrwt>
<totfact> 0.47905505E+03</totfact>
</mgrwt>
</event>
<event>
 4    3  0.7748294E-001  0.1782876E+03  0.7546771E-02  0.1169471E+00
         -2   -1    0    0    0  501 -0.00000000000E+00  0.00000000000E+00  0.13623848406E+03  0.13623848406E+03  0.00000000000E+00 0. -1.
          2   -1    0    0  502    0  0.00000000000E+00 -0.00000000000E+00 -0.24396702232E+03  0.24396702232E+03  0.00000000000E+00 0.  1.
          6    1    1    2  502    0  0.24980641797E+02 -0.35120146421E+02 -0.93587318732E+02  0.20135799804E+03  0.17300000000E+03 0.  1.
         -6    1    1    2    0  501 -0.24980641797E+02  0.35120146421E+02 -0.14141219523E+02  0.17884750834E+03  0.17300000000E+03 0. -1.
<mgrwt>
<rscale>  2 0.17828757E+03</rscale>
<asrwt>0</asrwt>
<pdfrwt beam="1">  1        2 0.37533388E-01 0.17828757E+03</pdfrwt>
<pdfrwt beam="2">  1       -2 0.20959767E-01 0.17828757E+03</pdfrwt>
<totfact> 0.26052332E+03</totfact>
</mgrwt>
</event>
<event>
 4    3  0.7748294E-001  0.2682305E+03  0.7546771E-02  0.1102297E+00
         -2   -1    0    0    0  501 -0.00000000000E+00  0.00000000000E+00  0.38543202061E+03  0.38543202061E+03  0.00000000000E+00 0.  1.
          2   -1    0    0  502    0  0.00000000000E+00 -0.00000000000E+00 -0.18697851907E+03  0.18697851907E+03  0.00000000000E+00 0. -1.
          6    1    1    2  502    0  0.19994852110E+03 -0.45157205096E+02  0.11090186664E+03  0.29025300737E+03  0.17300000000E+03 0. -1.
         -6    1    1    2    0  501 -0.19994852110E+03  0.45157205096E+02  0.87551634898E+02  0.28215753230E+03  0.17300000000E+03 0.  1.
<mgrwt>
<rscale>  2 0.26823047E+03</rscale>
<asrwt>0</asrwt>
<pdfrwt beam="1">  1        2 0.28765926E-01 0.26823047E+03</pdfrwt>
<pdfrwt beam="2">  1       -2 0.59297234E-01 0.26823047E+03</pdfrwt>
<totfact> 0.49960938E+02</totfact>
</mgrwt>
</event>
<event>
 4    3  0.7748294E-001  0.1850149E+03  0.7546771E-02  0.1163036E+00
         -2   -1    0    0    0  501 -0.00000000000E+00  0.00000000000E+00  0.94710359204E+01  0.94710359204E+01  0.00000000000E+00 0.  1.
          2   -1    0    0  502    0  0.00000000000E+00 -0.00000000000E+00 -0.36148271440E+04  0.36148271440E+04  0.00000000000E+00 0. -1.
          6    1    1    2  502    0  0.18933835870E+02 -0.62793546764E+02 -0.18259330731E+04  0.18352825688E+04  0.17300000000E+03 0.  1.
         -6    1    1    2    0  501 -0.18933835870E+02  0.62793546764E+02 -0.17794230350E+04  0.17890156112E+04  0.17300000000E+03 0. -1.
<mgrwt>
<rscale>  2 0.18501492E+03</rscale>
<asrwt>0</asrwt>
<pdfrwt beam="1">  1        2 0.55612713E+00 0.18501492E+03</pdfrwt>
<pdfrwt beam="2">  1       -2 0.14570828E-02 0.18501492E+03</pdfrwt>
<totfact> 0.10685665E+03</totfact>
</mgrwt>
</event>
<event>
 4    3  0.7748294E-001  0.2336892E+03  0.7546771E-02  0.1124070E+00
          2   -1    0    0  502    0  0.00000000000E+00  0.00000000000E+00  0.68920293175E+03  0.68920293175E+03  0.00000000000E+00 0. -1.
         -2   -1    0    0    0  501 -0.00000000000E+00 -0.00000000000E+00 -0.88201773434E+02  0.88201773434E+02  0.00000000000E+00 0.  1.
          6    1    1    2  502    0 -0.56997973153E+02 -0.14639974118E+03  0.17658146147E+03  0.29290214355E+03  0.17300000000E+03 0.  1.
         -6    1    1    2    0  501  0.56997973153E+02  0.14639974118E+03  0.42441969685E+03  0.48450256164E+03  0.17300000000E+03 0. -1.
<mgrwt>
<rscale>  2 0.23368922E+03</rscale>
<asrwt>0</asrwt>
<pdfrwt beam="1">  1        2 0.10603122E+00 0.23368922E+03</pdfrwt>
<pdfrwt beam="2">  1       -2 0.13569504E-01 0.23368922E+03</pdfrwt>
<totfact> 0.17239514E+03</totfact>
</mgrwt>
</event>
<event>
 4    3  0.7748294E-001  0.2510174E+03  0.7546771E-02  0.1112664E+00
          2   -1    0    0  502    0  0.00000000000E+00  0.00000000000E+00  0.22304996062E+04  0.22304996062E+04  0.00000000000E+00 0. -1.
         -2   -1    0    0    0  501 -0.00000000000E+00 -0.00000000000E+00 -0.45619151219E+02  0.45619151219E+02  0.00000000000E+00 0.  1.
          6    1    1    2  502    0  0.11251589629E+03  0.14290172160E+03  0.39019113823E+03  0.46395996951E+03  0.17300000000E+03 0.  1.
         -6    1    1    2    0  501 -0.11251589629E+03 -0.14290172160E+03  0.17946893168E+04  0.18121587880E+04  0.17300000000E+03 0. -1.
<mgrwt>
<rscale>  2 0.25101739E+03</rscale>
<asrwt>0</asrwt>
<pdfrwt beam="1">  1        2 0.34315370E+00 0.25101739E+03</pdfrwt>
<pdfrwt beam="2">  1       -2 0.70183327E-02 0.25101739E+03</pdfrwt>
<totfact> 0.65368217E+02</totfact>
</mgrwt>
</event>
<event>
 4    3  0.7748294E-001  0.3260250E+03  0.7546771E-02  0.1072909E+00
         -1   -1    0    0    0  501 -0.00000000000E+00  0.00000000000E+00  0.73130131001E+02  0.73130131001E+02  0.00000000000E+00 0.  1.
          1   -1    0    0  502    0  0.00000000000E+00 -0.00000000000E+00 -0.15531980672E+04  0.15531980672E+04  0.00000000000E+00 0. -1.
          6    1    1    2  502    0  0.27147672121E+03  0.51610968841E+02 -0.94608648342E+03  0.10006857331E+04  0.17300000000E+03 0. -1.
         -6    1    1    2    0  501 -0.27147672121E+03 -0.51610968841E+02 -0.53398145281E+03  0.62564246516E+03  0.17300000000E+03 0.  1.
<mgrwt>
<rscale>  2 0.32602500E+03</rscale>
<asrwt>0</asrwt>
<pdfrwt beam="1">  1        1 0.23895355E+00 0.32602500E+03</pdfrwt>
<pdfrwt beam="2">  1       -1 0.11250789E-01 0.32602500E+03</pdfrwt>
<totfact> 0.33294548E+02</totfact>
</mgrwt>
</event>
<event>
 4    3  0.7748294E-001  0.1813207E+03  0.7546771E-02  0.1166531E+00
          2   -1    0    0  502    0  0.00000000000E+00  0.00000000000E+00  0.10303702418E+04  0.10303702418E+04  0.00000000000E+00 0. -1.
         -2   -1    0    0    0  501 -0.00000000000E+00 -0.00000000000E+00 -0.63255424323E+02  0.63255424323E+02  0.00000000000E+00 0.  1.
          6    1    1    2  502    0 -0.14588756215E+02  0.52300546532E+02  0.98620193080E+02  0.20640523603E+03  0.17300000000E+03 0. -1.
         -6    1    1    2    0  501  0.14588756215E+02 -0.52300546532E+02  0.86849462436E+03  0.88722043006E+03  0.17300000000E+03 0. -1.
<mgrwt>
<rscale>  2 0.18132065E+03</rscale>
<asrwt>0</asrwt>
<pdfrwt beam="1">  1        2 0.15851849E+00 0.18132065E+03</pdfrwt>
<pdfrwt beam="2">  1       -2 0.97316045E-02 0.18132065E+03</pdfrwt>
<totfact> 0.17402639E+03</totfact>
</mgrwt>
</event>
<event>
 4    3  0.7748294E-001  0.2300718E+03  0.7546771E-02  0.1126589E+00
         -2   -1    0    0    0  501 -0.00000000000E+00  0.00000000000E+00  0.18859330682E+02  0.18859330682E+02  0.00000000000E+00 0.  1.
          2   -1    0    0  502    0  0.00000000000E+00 -0.00000000000E+00 -0.28069146523E+04  0.28069146523E+04  0.00000000000E+00 0. -1.
          6    1    1    2  502    0 -0.57142916697E+02 -0.14049459045E+03 -0.14054976931E+04  0.14242039209E+04  0.17300000000E+03 0. -1.
         -6    1    1    2    0  501  0.57142916697E+02  0.14049459045E+03 -0.13825576285E+04  0.14015700621E+04  0.17300000000E+03 0.  1.
<mgrwt>
<rscale>  2 0.23007182E+03</rscale>
<asrwt>0</asrwt>
<pdfrwt beam="1">  1        2 0.43183280E+00 0.23007182E+03</pdfrwt>
<pdfrwt beam="2">  1       -2 0.29014370E-02 0.23007182E+03</pdfrwt>
<totfact> 0.12097628E+03</totfact>
</mgrwt>
</event>
<event>
 4    3  0.7748294E-001  0.1753351E+03  0.7546771E-02  0.1172396E+00
          2   -1    0    0  502    0  0.00000000000E+00  0.00000000000E+00  0.19484981637E+04  0.19484981637E+04  0.00000000000E+00 0. -1.
         -2   -1    0    0    0  501 -0.00000000000E+00 -0.00000000000E+00 -0.15788114812E+02  0.15788114812E+02  0.00000000000E+00 0.  1.
          6    1    1    2  502    0  0.15303529806E+02 -0.24066653662E+02  0.99183851283E+03  0.10072169763E+04  0.17300000000E+03 0. -1.
         -6    1    1    2    0  501 -0.15303529806E+02  0.24066653662E+02  0.94087153605E+03  0.95706930219E+03  0.17300000000E+03 0.  1.
<mgrwt>
<rscale>  2 0.17533511E+03</rscale>
<asrwt>0</asrwt>
<pdfrwt beam="1">  1        2 0.29976876E+00 0.17533511E+03</pdfrwt>
<pdfrwt beam="2">  1       -2 0.24289423E-02 0.17533511E+03</pdfrwt>
<totfact> 0.45725549E+03</totfact>
</mgrwt>
</event>
<event>
 4    3  0.7748294E-001  0.1788777E+03  0.7546771E-02  0.1168894E+00
          1   -1    0    0  502    0  0.00000000000E+00  0.00000000000E+00  0.23802099379E+03  0.23802099379E+03  0.00000000000E+00 0. -1.
         -1   -1    0    0    0  501 -0.00000000000E+00 -0.00000000000E+00 -0.13621358218E+03  0.13621358218E+03  0.00000000000E+00 0.  1.
          6    1    1    2  502    0 -0.45394181317E+02  0.27595374354E+01  0.29494181455E+02  0.18129300451E+03  0.17300000000E+03 0. -1.
         -6    1    1    2    0  501  0.45394181317E+02 -0.27595374354E+01  0.72313230158E+02  0.19294157147E+03  0.17300000000E+03 0.  1.
<mgrwt>
<rscale>  2 0.17887774E+03</rscale>
<asrwt>0</asrwt>
<pdfrwt beam="1">  1        1 0.36618614E-01 0.17887774E+03</pdfrwt>
<pdfrwt beam="2">  1       -1 0.20955936E-01 0.17887774E+03</pdfrwt>
<totfact> 0.21615189E+03</totfact>
</mgrwt>
</event>
<event>
 4    3  0.7748294E-001  0.1859923E+03  0.7546771E-02  0.1162126E+00
          1   -1    0    0  502    0  0.00000000000E+00  0.00000000000E+00  0.81119204703E+03  0.81119204703E+03  0.00000000000E+00 0. -1.
         -1   -1    0    0    0  501 -0.00000000000E+00 -0.00000000000E+00 -0.58565173658E+02  0.58565173658E+02  0.00000000000E+00 0.  1.
          6    1    1    2  502    0  0.67974607506E+02 -0.66034025741E+01  0.60305151444E+03  0.63108183404E+03  0.17300000000E+03 0. -1.
         -6    1    1    2    0  501 -0.67974607506E+02  0.66034025741E+01  0.14957535894E+03  0.23867538665E+03  0.17300000000E+03 0.  1.
<mgrwt>
<rscale>  2 0.18599234E+03</rscale>
<asrwt>0</asrwt>
<pdfrwt beam="1">  1        1 0.12479877E+00 0.18599234E+03</pdfrwt>
<pdfrwt beam="2">  1       -1 0.90100273E-02 0.18599234E+03</pdfrwt>
<totfact> 0.16108731E+03</totfact>
</mgrwt>
</event>
<event>
 4    3  0.7748294E-001  0.1948594E+03  0.7546771E-02  0.1154150E+00
         -2   -1    0    0    0  501 -0.00000000000E+00  0.00000000000E+00  0.97126622843E+02  0.97126622843E+02  0.00000000000E+00 0.  1.
          2   -1    0    0  502    0  0.00000000000E+00 -0.00000000000E+00 -0.11829470885E+04  0.11829470885E+04  0.00000000000E+00 0. -1.
          6    1    1    2  502    0 -0.62363079755E+02  0.64436406932E+02 -0.19203441464E+02  0.19580341268E+03  0.17300000000E+03 0.  1.
         -6    1    1    2    0  501  0.62363079755E+02 -0.64436406932E+02 -0.10666170242E+04  0.10842702987E+04  0.17300000000E+03 0. -1.
<mgrwt>
<rscale>  2 0.19485945E+03</rscale>
<asrwt>0</asrwt>
<pdfrwt beam="1">  1        2 0.18199187E+00 0.19485945E+03</pdfrwt>
<pdfrwt beam="2">  1       -2 0.14942557E-01 0.19485945E+03</pdfrwt>
<totfact> 0.71119787E+02</totfact>
</mgrwt>
</event>
<event>
 4    3  0.7748294E-001  0.3000788E+03  0.7546771E-02  0.1085201E+00
         -2   -1    0    0    0  501 -0.00000000000E+00  0.00000000000E+00  0.19808970437E+03  0.19808970437E+03  0.00000000000E+00 0.  1.
          2   -1    0    0  502    0  0.00000000000E+00 -0.00000000000E+00 -0.45457836415E+03  0.45457836415E+03  0.00000000000E+00 0. -1.
          6    1    1    2  502    0 -0.12660247752E+03 -0.20997643617E+03 -0.12830089636E+03  0.32635626402E+03  0.17300000000E+03 0. -1.
         -6    1    1    2    0  501  0.12660247752E+03  0.20997643617E+03 -0.12818776343E+03  0.32631180449E+03  0.17300000000E+03 0.  1.
<mgrwt>
<rscale>  2 0.30007881E+03</rscale>
<asrwt>0</asrwt>
<pdfrwt beam="1">  1        2 0.69935133E-01 0.30007881E+03</pdfrwt>
<pdfrwt beam="2">  1       -2 0.30475339E-01 0.30007881E+03</pdfrwt>
<totfact> 0.69071481E+02</totfact>
</mgrwt>
</event>
<event>
 4    3  0.7748294E-001  0.2368874E+03  0.7546771E-02  0.1121884E+00
          3   -1    0    0  502    0  0.00000000000E+00  0.00000000000E+00  0.59486066481E+03  0.59486066481E+03  0.00000000000E+00 0. -1.
         -3   -1    0    0    0  501 -0.00000000000E+00 -0.00000000000E+00 -0.94616498835E+02  0.94616498835E+02  0.00000000000E+00 0.  1.
          6    1    1    2  502    0  0.14950717482E+03 -0.61921251282E+02  0.23128779431E+03  0.33107352730E+03  0.17300000000E+03 0.  1.
         -6    1    1    2    0  501 -0.14950717482E+03  0.61921251282E+02  0.26895637166E+03  0.35840363634E+03  0.17300000000E+03 0. -1.
<mgrwt>
<rscale>  2 0.23688739E+03</rscale>
<asrwt>0</asrwt>
<pdfrwt beam="1">  1        3 0.91517023E-01 0.23688739E+03</pdfrwt>
<pdfrwt beam="2">  1       -3 0.14556385E-01 0.23688739E+03</pdfrwt>
<totfact> 0.10738353E+02</totfact>
</mgrwt>
</event>
<event>
 4    3  0.7748294E-001  0.2194499E+03  0.7546771E-02  0.1134294E+00
          1   -1    0    0  502    0  0.00000000000E+00  0.00000000000E+00  0.86117208124E+03  0.86117208124E+03  0.00000000000E+00 0. -1.
         -1   -1    0    0    0  501 -0.00000000000E+00 -0.00000000000E+00 -0.14517547136E+03  0.14517547136E+03  0.00000000000E+00 0.  1.
          6    1    1    2  502    0  0.10359342961E+03 -0.86589011708E+02  0.75253238771E+03  0.78387706317E+03  0.17300000000E+03 0. -1.
         -6    1    1    2    0  501 -0.10359342961E+03  0.86589011708E+02 -0.36535777825E+02  0.22247048943E+03  0.17300000000E+03 0.  1.
<mgrwt>
<rscale>  2 0.21944989E+03</rscale>
<asrwt>0</asrwt>
<pdfrwt beam="1">  1        1 0.13248801E+00 0.21944989E+03</pdfrwt>
<pdfrwt beam="2">  1       -1 0.22334688E-01 0.21944989E+03</pdfrwt>
<totfact> 0.34936535E+02</totfact>
</mgrwt>
</event>
<event>
 4    3  0.7748294E-001  0.2578537E+03  0.7546771E-02  0.1108440E+00
          2   -1    0    0  502    0  0.00000000000E+00  0.00000000000E+00  0.96251038871E+03  0.96251038871E+03  0.00000000000E+00 0. -1.
         -2   -1    0    0    0  501 -0.00000000000E+00 -0.00000000000E+00 -0.88356492666E+02  0.88356492666E+02  0.00000000000E+00 0.  1.
          6    1    1    2  502    0 -0.18716896408E+03  0.39081043202E+02  0.19164448145E+03  0.32127271332E+03  0.17300000000E+03 0. -1.
         -6    1    1    2    0  501  0.18716896408E+03 -0.39081043202E+02  0.68250941459E+03  0.72959416806E+03  0.17300000000E+03 0. -1.
<mgrwt>
<rscale>  2 0.25785374E+03</rscale>
<asrwt>0</asrwt>
<pdfrwt beam="1">  1        2 0.14807851E+00 0.25785374E+03</pdfrwt>
<pdfrwt beam="2">  1       -2 0.13593307E-01 0.25785374E+03</pdfrwt>
<totfact> 0.11185168E+03</totfact>
</mgrwt>
</event>
<event>
 4    3  0.7748294E-001  0.2046472E+03  0.7546771E-02  0.1145876E+00
         -4   -1    0    0    0  501 -0.00000000000E+00  0.00000000000E+00  0.53589370847E+03  0.53589370847E+03  0.00000000000E+00 0. -1.
          4   -1    0    0  502    0  0.00000000000E+00 -0.00000000000E+00 -0.14117118796E+03  0.14117118796E+03  0.00000000000E+00 0.  1.
          6    1    1    2  502    0 -0.86970203530E+02 -0.66239348557E+02 -0.28826006966E+02  0.20666738078E+03  0.17300000000E+03 0.  1.
         -6    1    1    2    0  501  0.86970203530E+02  0.66239348557E+02  0.42354852748E+03  0.47039751565E+03  0.17300000000E+03 0. -1.
<mgrwt>
<rscale>  2 0.20464718E+03</rscale>
<asrwt>0</asrwt>
<pdfrwt beam="1">  1        4 0.21718645E-01 0.20464718E+03</pdfrwt>
<pdfrwt beam="2">  1       -4 0.82445185E-01 0.20464718E+03</pdfrwt>
<totfact> 0.45939190E+01</totfact>
</mgrwt>
</event>
<event>
 4    3  0.7748294E-001  0.1760273E+03  0.7546771E-02  0.1171704E+00
          2   -1    0    0  502    0  0.00000000000E+00  0.00000000000E+00  0.14326981676E+04  0.14326981676E+04  0.00000000000E+00 0. -1.
         -2   -1    0    0    0  501 -0.00000000000E+00 -0.00000000000E+00 -0.67498468930E+02  0.67498468930E+02  0.00000000000E+00 0.  1.
          6    1    1    2  502    0  0.54393953541E+00 -0.32501011753E+02  0.64241239157E+02  0.18738342628E+03  0.17300000000E+03 0.  1.
         -6    1    1    2    0  501 -0.54393953541E+00  0.32501011753E+02  0.13009584595E+04  0.13128132103E+04  0.17300000000E+03 0. -1.
<mgrwt>
<rscale>  2 0.17602730E+03</rscale>
<asrwt>0</asrwt>
<pdfrwt beam="1">  1        2 0.22041508E+00 0.17602730E+03</pdfrwt>
<pdfrwt beam="2">  1       -2 0.10384381E-01 0.17602730E+03</pdfrwt>
<totfact> 0.93654222E+02</totfact>
</mgrwt>
</event>
<event>
 4    3  0.7748294E-001  0.2259178E+03  0.7546771E-02  0.1129546E+00
         -2   -1    0    0    0  501 -0.00000000000E+00  0.00000000000E+00  0.39656219644E+02  0.39656219644E+02  0.00000000000E+00 0. -1.
          2   -1    0    0  502    0  0.00000000000E+00 -0.00000000000E+00 -0.22397434246E+04  0.22397434246E+04  0.00000000000E+00 0.  1.
          6    1    1    2  502    0  0.63725270934E+02 -0.13057152379E+03 -0.18433570306E+04  0.18571494219E+04  0.17300000000E+03 0.  1.
         -6    1    1    2    0  501 -0.63725270934E+02  0.13057152379E+03 -0.35673017437E+03  0.42225022236E+03  0.17300000000E+03 0. -1.
<mgrwt>
<rscale>  2 0.22591776E+03</rscale>
<asrwt>0</asrwt>
<pdfrwt beam="1">  1        2 0.34457597E+00 0.22591776E+03</pdfrwt>
<pdfrwt beam="2">  1       -2 0.61009558E-02 0.22591776E+03</pdfrwt>
<totfact> 0.80614242E+02</totfact>
</mgrwt>
</event>
<event>
 4    3  0.7748294E-001  0.1770731E+03  0.7546771E-02  0.1170666E+00
          1   -1    0    0  502    0  0.00000000000E+00  0.00000000000E+00  0.98094858145E+03  0.98094858145E+03  0.00000000000E+00 0. -1.
         -1   -1    0    0    0  501 -0.00000000000E+00 -0.00000000000E+00 -0.33714466067E+02  0.33714466067E+02  0.00000000000E+00 0.  1.
          6    1    1    2  502    0 -0.29917687092E+02 -0.23039314713E+02  0.35801086617E+03  0.39940788465E+03  0.17300000000E+03 0.  1.
         -6    1    1    2    0  501  0.29917687092E+02  0.23039314713E+02  0.58922324922E+03  0.61525516287E+03  0.17300000000E+03 0. -1.
<mgrwt>
<rscale>  2 0.17707309E+03</rscale>
<asrwt>0</asrwt>
<pdfrwt beam="1">  1        1 0.15091514E+00 0.17707309E+03</pdfrwt>
<pdfrwt beam="2">  1       -1 0.51868417E-02 0.17707309E+03</pdfrwt>
<totfact> 0.27304776E+03</totfact>
</mgrwt>
</event>
<event>
 4    3  0.7748294E-001  0.2357829E+03  0.7546771E-02  0.1122634E+00
         -2   -1    0    0    0  501 -0.00000000000E+00  0.00000000000E+00  0.67318016617E+02  0.67318016617E+02  0.00000000000E+00 0.  1.
          2   -1    0    0  502    0  0.00000000000E+00 -0.00000000000E+00 -0.11876513681E+04  0.11876513681E+04  0.00000000000E+00 0. -1.
          6    1    1    2  502    0  0.56499971514E+02  0.14990778949E+03 -0.90650662930E+03  0.93666849050E+03  0.17300000000E+03 0. -1.
         -6    1    1    2    0  501 -0.56499971514E+02 -0.14990778949E+03 -0.21382672214E+03  0.31830089418E+03  0.17300000000E+03 0.  1.
<mgrwt>
<rscale>  2 0.23578293E+03</rscale>
<asrwt>0</asrwt>
<pdfrwt beam="1">  1        2 0.18271559E+00 0.23578293E+03</pdfrwt>
<pdfrwt beam="2">  1       -2 0.10356618E-01 0.23578293E+03</pdfrwt>
<totfact> 0.12768771E+03</totfact>
</mgrwt>
</event>
<event>
 4    3  0.7748294E-001  0.1752333E+03  0.7546771E-02  0.1172498E+00
          2   -1    0    0  502    0  0.00000000000E+00  0.00000000000E+00  0.14750528298E+04  0.14750528298E+04  0.00000000000E+00 0. -1.
         -2   -1    0    0    0  501 -0.00000000000E+00 -0.00000000000E+00 -0.30932326243E+02  0.30932326243E+02  0.00000000000E+00 0.  1.
          6    1    1    2  502    0 -0.24319181150E+02  0.13648066530E+02  0.29146739626E+03  0.34008812884E+03  0.17300000000E+03 0.  1.
         -6    1    1    2    0  501  0.24319181150E+02 -0.13648066530E+02  0.11526531073E+04  0.11658970272E+04  0.17300000000E+03 0. -1.
<mgrwt>
<rscale>  2 0.17523325E+03</rscale>
<asrwt>0</asrwt>
<pdfrwt beam="1">  1        2 0.22693115E+00 0.17523325E+03</pdfrwt>
<pdfrwt beam="2">  1       -2 0.47588205E-02 0.17523325E+03</pdfrwt>
<totfact> 0.29637137E+03</totfact>
</mgrwt>
</event>
<event>
 4    3  0.7748294E-001  0.1731707E+03  0.7546771E-02  0.1174581E+00
         -2   -1    0    0    0  501 -0.00000000000E+00  0.00000000000E+00  0.12163649748E+03  0.12163649748E+03  0.00000000000E+00 0.  1.
          2   -1    0    0  502    0  0.00000000000E+00 -0.00000000000E+00 -0.26096340376E+03  0.26096340376E+03  0.00000000000E+00 0. -1.
          6    1    1    2  502    0 -0.59187876335E+01  0.49048977577E+01 -0.24687515656E+02  0.17492159243E+03  0.17300000000E+03 0.  1.
         -6    1    1    2    0  501  0.59187876335E+01 -0.49048977577E+01 -0.11463939062E+03  0.20767830881E+03  0.17300000000E+03 0. -1.
<mgrwt>
<rscale>  2 0.17317070E+03</rscale>
<asrwt>0</asrwt>
<pdfrwt beam="1">  1        2 0.40148215E-01 0.17317070E+03</pdfrwt>
<pdfrwt beam="2">  1       -2 0.18713308E-01 0.17317070E+03</pdfrwt>
<totfact> 0.29351883E+03</totfact>
</mgrwt>
</event>
<event>
 4    3  0.7748294E-001  0.1748481E+03  0.7546771E-02  0.1172884E+00
          1   -1    0    0  502    0  0.00000000000E+00  0.00000000000E+00  0.70844944323E+03  0.70844944323E+03  0.00000000000E+00 0. -1.
         -1   -1    0    0    0  501 -0.00000000000E+00 -0.00000000000E+00 -0.44750025634E+02  0.44750025634E+02  0.00000000000E+00 0.  1.
          6    1    1    2  502    0  0.24010609787E+02 -0.81457883892E+01  0.26071008115E+03  0.31391337924E+03  0.17300000000E+03 0.  1.
         -6    1    1    2    0  501 -0.24010609787E+02  0.81457883892E+01  0.40298933645E+03  0.43928608963E+03  0.17300000000E+03 0. -1.
<mgrwt>
<rscale>  2 0.17484811E+03</rscale>
<asrwt>0</asrwt>
<pdfrwt beam="1">  1        1 0.10899221E+00 0.17484811E+03</pdfrwt>
<pdfrwt beam="2">  1       -1 0.68846198E-02 0.17484811E+03</pdfrwt>
<totfact> 0.29617793E+03</totfact>
</mgrwt>
</event>
<event>
 4    3  0.7748294E-001  0.1973715E+03  0.7546771E-02  0.1151976E+00
          2   -1    0    0  502    0  0.00000000000E+00  0.00000000000E+00  0.26869254861E+03  0.26869254861E+03  0.00000000000E+00 0.  1.
         -2   -1    0    0    0  501 -0.00000000000E+00 -0.00000000000E+00 -0.20931153767E+03  0.20931153767E+03  0.00000000000E+00 0. -1.
          6    1    1    2  502    0  0.44352301562E+02  0.84020156657E+02  0.16218905385E+03  0.25546193956E+03  0.17300000000E+03 0. -1.
         -6    1    1    2    0  501 -0.44352301562E+02 -0.84020156657E+02 -0.10280804291E+03  0.22254214672E+03  0.17300000000E+03 0. -1.
<mgrwt>
<rscale>  2 0.19737151E+03</rscale>
<asrwt>0</asrwt>
<pdfrwt beam="1">  1        2 0.41337316E-01 0.19737151E+03</pdfrwt>
<pdfrwt beam="2">  1       -2 0.32201775E-01 0.19737151E+03</pdfrwt>
<totfact> 0.11012883E+03</totfact>
</mgrwt>
</event>
<event>
 4    3  0.7748294E-001  0.1886740E+03  0.7546771E-02  0.1159663E+00
         -1   -1    0    0    0  501 -0.00000000000E+00  0.00000000000E+00  0.11798677823E+02  0.11798677823E+02  0.00000000000E+00 0.  1.
          1   -1    0    0  502    0  0.00000000000E+00 -0.00000000000E+00 -0.30603338124E+04  0.30603338124E+04  0.00000000000E+00 0. -1.
          6    1    1    2  502    0 -0.72441709339E+02  0.20520521033E+02 -0.13417125338E+04  0.13549134350E+04  0.17300000000E+03 0.  1.
         -6    1    1    2    0  501  0.72441709339E+02 -0.20520521033E+02 -0.17068226008E+04  0.17172190552E+04  0.17300000000E+03 0.  1.
<mgrwt>
<rscale>  2 0.18867404E+03</rscale>
<asrwt>0</asrwt>
<pdfrwt beam="1">  1        1 0.47082081E+00 0.18867404E+03</pdfrwt>
<pdfrwt beam="2">  1       -1 0.18151803E-02 0.18867404E+03</pdfrwt>
<totfact> 0.52719966E+02</totfact>
</mgrwt>
</event>
<event>
 4    3  0.7748294E-001  0.1879928E+03  0.7546771E-02  0.1160284E+00
         -2   -1    0    0    0  501 -0.00000000000E+00  0.00000000000E+00  0.26575562447E+02  0.26575562447E+02  0.00000000000E+00 0. -1.
          2   -1    0    0  502    0  0.00000000000E+00 -0.00000000000E+00 -0.24872549801E+04  0.24872549801E+04  0.00000000000E+00 0.  1.
          6    1    1    2  502    0  0.71184561759E+02  0.18575648005E+02 -0.37292675448E+03  0.41763101027E+03  0.17300000000E+03 0. -1.
         -6    1    1    2    0  501 -0.71184561759E+02 -0.18575648005E+02 -0.20877526632E+04  0.20961995323E+04  0.17300000000E+03 0.  1.
<mgrwt>
<rscale>  2 0.18799281E+03</rscale>
<asrwt>0</asrwt>
<pdfrwt beam="1">  1        2 0.38265467E+00 0.18799281E+03</pdfrwt>
<pdfrwt beam="2">  1       -2 0.40885475E-02 0.18799281E+03</pdfrwt>
<totfact> 0.10987805E+03</totfact>
</mgrwt>
</event>
<event>
 4    3  0.7748294E-001  0.2878247E+03  0.7546771E-02  0.1091490E+00
         -2   -1    0    0    0  501 -0.00000000000E+00  0.00000000000E+00  0.81438261390E+03  0.81438261390E+03  0.00000000000E+00 0.  1.
          2   -1    0    0  502    0  0.00000000000E+00 -0.00000000000E+00 -0.10187152513E+03  0.10187152513E+03  0.00000000000E+00 0. -1.
          6    1    1    2  502    0  0.22143275409E+03  0.62302236313E+02  0.33887813442E+03  0.44461379109E+03  0.17300000000E+03 0.  1.
         -6    1    1    2    0  501 -0.22143275409E+03 -0.62302236313E+02  0.37363295435E+03  0.47164034795E+03  0.17300000000E+03 0. -1.
<mgrwt>
<rscale>  2 0.28782466E+03</rscale>
<asrwt>0</asrwt>
<pdfrwt beam="1">  1        2 0.15672543E-01 0.28782466E+03</pdfrwt>
<pdfrwt beam="2">  1       -2 0.12528963E+00 0.28782466E+03</pdfrwt>
<totfact> 0.18519701E+02</totfact>
</mgrwt>
</event>
<event>
 4    3  0.7748294E-001  0.2452061E+03  0.7546771E-02  0.1116372E+00
          1   -1    0    0  502    0  0.00000000000E+00  0.00000000000E+00  0.17190309618E+04  0.17190309618E+04  0.00000000000E+00 0. -1.
         -1   -1    0    0    0  501 -0.00000000000E+00 -0.00000000000E+00 -0.36691468000E+02  0.36691468000E+02  0.00000000000E+00 0.  1.
          6    1    1    2  502    0 -0.14826530341E+02  0.17313926653E+03  0.65139173102E+03  0.69601524327E+03  0.17300000000E+03 0. -1.
         -6    1    1    2    0  501  0.14826530341E+02 -0.17313926653E+03  0.10309477628E+04  0.10597071865E+04  0.17300000000E+03 0. -1.
<mgrwt>
<rscale>  2 0.24520610E+03</rscale>
<asrwt>0</asrwt>
<pdfrwt beam="1">  1        1 0.26446624E+00 0.24520610E+03</pdfrwt>
<pdfrwt beam="2">  1       -1 0.56448426E-02 0.24520610E+03</pdfrwt>
<totfact> 0.75510571E+02</totfact>
</mgrwt>
</event>
<event>
 4    3  0.7748294E-001  0.1815140E+03  0.7546771E-02  0.1166346E+00
          1   -1    0    0  502    0  0.00000000000E+00  0.00000000000E+00  0.79908102803E+03  0.79908102803E+03  0.00000000000E+00 0. -1.
         -1   -1    0    0    0  501 -0.00000000000E+00 -0.00000000000E+00 -0.48901237676E+02  0.48901237676E+02  0.00000000000E+00 0.  1.
          6    1    1    2  502    0 -0.54686779755E+02 -0.52632362894E+01  0.54300347613E+03  0.57253831367E+03  0.17300000000E+03 0. -1.
         -6    1    1    2    0  501  0.54686779755E+02  0.52632362894E+01  0.20717631423E+03  0.27544395204E+03  0.17300000000E+03 0.  1.
<mgrwt>
<rscale>  2 0.18151404E+03</rscale>
<asrwt>0</asrwt>
<pdfrwt beam="1">  1        1 0.12293553E+00 0.18151404E+03</pdfrwt>
<pdfrwt beam="2">  1       -1 0.75232679E-02 0.18151404E+03</pdfrwt>
<totfact> 0.21682361E+03</totfact>
</mgrwt>
</event>
<event>
 4    3  0.7748294E-001  0.1932644E+03  0.7546771E-02  0.1155550E+00
         -4   -1    0    0    0  501 -0.00000000000E+00  0.00000000000E+00  0.91032323695E+03  0.91032323695E+03  0.00000000000E+00 0. -1.
          4   -1    0    0  502    0  0.00000000000E+00 -0.00000000000E+00 -0.41311331373E+02  0.41311331373E+02  0.00000000000E+00 0.  1.
          6    1    1    2  502    0  0.40883854729E+02 -0.75832974105E+02  0.39528363037E+03  0.44000031588E+03  0.17300000000E+03 0.  1.
         -6    1    1    2    0  501 -0.40883854729E+02  0.75832974105E+02  0.47372827521E+03  0.51163425245E+03  0.17300000000E+03 0. -1.
<mgrwt>
<rscale>  2 0.19326440E+03</rscale>
<asrwt>0</asrwt>
<pdfrwt beam="1">  1        4 0.63555901E-02 0.19326440E+03</pdfrwt>
<pdfrwt beam="2">  1       -4 0.14004971E+00 0.19326440E+03</pdfrwt>
<totfact> 0.10825759E+02</totfact>
</mgrwt>
</event>
<event>
 4    3  0.7748294E-001  0.1908866E+03  0.7546771E-02  0.1157664E+00
          2   -1    0    0  502    0  0.00000000000E+00  0.00000000000E+00  0.98598483908E+03  0.98598483908E+03  0.00000000000E+00 0. -1.
         -2   -1    0    0    0  501 -0.00000000000E+00 -0.00000000000E+00 -0.49953283628E+02  0.49953283628E+02  0.00000000000E+00 0.  1.
          6    1    1    2  502    0  0.75280294369E+02 -0.29010153715E+02  0.73222862162E+03  0.75670104140E+03  0.17300000000E+03 0. -1.
         -6    1    1    2    0  501 -0.75280294369E+02  0.29010153715E+02  0.20380293384E+03  0.27923708131E+03  0.17300000000E+03 0.  1.
<mgrwt>
<rscale>  2 0.19088665E+03</rscale>
<asrwt>0</asrwt>
<pdfrwt beam="1">  1        2 0.15168996E+00 0.19088665E+03</pdfrwt>
<pdfrwt beam="2">  1       -2 0.76851213E-02 0.19088665E+03</pdfrwt>
<totfact> 0.26800439E+03</totfact>
</mgrwt>
</event>
<event>
 4    3  0.7748294E-001  0.2097268E+03  0.7546771E-02  0.1141783E+00
         -2   -1    0    0    0  501 -0.00000000000E+00  0.00000000000E+00  0.21349404688E+02  0.21349404688E+02  0.00000000000E+00 0. -1.
          2   -1    0    0  502    0  0.00000000000E+00 -0.00000000000E+00 -0.23301334782E+04  0.23301334782E+04  0.00000000000E+00 0.  1.
          6    1    1    2  502    0 -0.10598704298E+03  0.53132660726E+02 -0.15545221273E+04  0.15686058706E+04  0.17300000000E+03 0.  1.
         -6    1    1    2    0  501  0.10598704298E+03 -0.53132660726E+02 -0.75426194626E+03  0.78287701237E+03  0.17300000000E+03 0. -1.
<mgrwt>
<rscale>  2 0.20972681E+03</rscale>
<asrwt>0</asrwt>
<pdfrwt beam="1">  1        2 0.35848179E+00 0.20972681E+03</pdfrwt>
<pdfrwt beam="2">  1       -2 0.32845264E-02 0.20972681E+03</pdfrwt>
<totfact> 0.18445475E+03</totfact>
</mgrwt>
</event>
<event>
 4    3  0.7748294E-001  0.2649012E+03  0.7546771E-02  0.1104234E+00
          2   -1    0    0  502    0  0.00000000000E+00  0.00000000000E+00  0.45876016577E+03  0.45876016577E+03  0.00000000000E+00 0. -1.
         -2   -1    0    0    0  501 -0.00000000000E+00 -0.00000000000E+00 -0.16655112723E+03  0.16655112723E+03  0.00000000000E+00 0.  1.
          6    1    1    2  502    0 -0.20013631134E+03 -0.13751626376E+02  0.23541367991E+03  0.35438997028E+03  0.17300000000E+03 0. -1.
         -6    1    1    2    0  501  0.20013631134E+03  0.13751626376E+02  0.56795358637E+02  0.27092132272E+03  0.17300000000E+03 0.  1.
<mgrwt>
<rscale>  2 0.26490121E+03</rscale>
<asrwt>0</asrwt>
<pdfrwt beam="1">  1        2 0.70578487E-01 0.26490121E+03</pdfrwt>
<pdfrwt beam="2">  1       -2 0.25623250E-01 0.26490121E+03</pdfrwt>
<totfact> 0.93471244E+02</totfact>
</mgrwt>
</event>
<event>
 4    3  0.7748294E-001  0.2055532E+03  0.7546771E-02  0.1145137E+00
          2   -1    0    0  502    0  0.00000000000E+00  0.00000000000E+00  0.84625045383E+03  0.84625045383E+03  0.00000000000E+00 0.  1.
         -2   -1    0    0    0  501 -0.00000000000E+00 -0.00000000000E+00 -0.56316924541E+02  0.56316924541E+02  0.00000000000E+00 0. -1.
          6    1    1    2  502    0 -0.89163694939E+02  0.66128409555E+02  0.24297417064E+03  0.31825866625E+03  0.17300000000E+03 0. -1.
         -6    1    1    2    0  501  0.89163694939E+02 -0.66128409555E+02  0.54695935865E+03  0.58430871212E+03  0.17300000000E+03 0.  1.
<mgrwt>
<rscale>  2 0.20555323E+03</rscale>
<asrwt>0</asrwt>
<pdfrwt beam="1">  1        2 0.13019237E+00 0.20555323E+03</pdfrwt>
<pdfrwt beam="2">  1       -2 0.86641428E-02 0.20555323E+03</pdfrwt>
<totfact> 0.27306003E+03</totfact>
</mgrwt>
</event>
<event>
 4    3  0.7748294E-001  0.1743456E+03  0.7546771E-02  0.1173390E+00
         -1   -1    0    0    0  501 -0.00000000000E+00  0.00000000000E+00  0.17459452952E+03  0.17459452952E+03  0.00000000000E+00 0.  1.
          1   -1    0    0  502    0  0.00000000000E+00 -0.00000000000E+00 -0.20286771025E+03  0.20286771025E+03  0.00000000000E+00 0. -1.
          6    1    1    2  502    0 -0.20998839083E+02 -0.51420751898E+01  0.56937610099E+02  0.18340742521E+03  0.17300000000E+03 0.  1.
         -6    1    1    2    0  501  0.20998839083E+02  0.51420751898E+01 -0.85210790829E+02  0.19405481456E+03  0.17300000000E+03 0. -1.
<mgrwt>
<rscale>  2 0.17434561E+03</rscale>
<asrwt>0</asrwt>
<pdfrwt beam="1">  1        1 0.31210417E-01 0.17434561E+03</pdfrwt>
<pdfrwt beam="2">  1       -1 0.26860697E-01 0.17434561E+03</pdfrwt>
<totfact> 0.17531817E+03</totfact>
</mgrwt>
</event>
<event>
 4    3  0.7748294E-001  0.1928654E+03  0.7546771E-02  0.1155902E+00
          2   -1    0    0  502    0  0.00000000000E+00  0.00000000000E+00  0.23091204293E+04  0.23091204293E+04  0.00000000000E+00 0.  1.
         -2   -1    0    0    0  501 -0.00000000000E+00 -0.00000000000E+00 -0.48170301182E+02  0.48170301182E+02  0.00000000000E+00 0. -1.
          6    1    1    2  502    0  0.43312152624E+02 -0.73431111499E+02  0.20920555868E+04  0.21009268547E+04  0.17300000000E+03 0.  1.
         -6    1    1    2    0  501 -0.43312152624E+02  0.73431111499E+02  0.16889454133E+03  0.25636387576E+03  0.17300000000E+03 0. -1.
<mgrwt>
<rscale>  2 0.19286542E+03</rscale>
<asrwt>0</asrwt>
<pdfrwt beam="1">  1        2 0.35524921E+00 0.19286542E+03</pdfrwt>
<pdfrwt beam="2">  1       -2 0.74108174E-02 0.19286542E+03</pdfrwt>
<totfact> 0.55263221E+02</totfact>
</mgrwt>
</event>
<event>
 4    3  0.7748294E-001  0.2688810E+03  0.7546771E-02  0.1101922E+00
          2   -1    0    0  502    0  0.00000000000E+00  0.00000000000E+00  0.16941380050E+03  0.16941380050E+03  0.00000000000E+00 0. -1.
         -2   -1    0    0    0  501 -0.00000000000E+00 -0.00000000000E+00 -0.46755521627E+03  0.46755521627E+03  0.00000000000E+00 0.  1.
          6    1    1    2  502    0  0.92787019914E+02  0.18373503067E+03 -0.24316008524E+03  0.36252423314E+03  0.17300000000E+03 0.  1.
         -6    1    1    2    0  501 -0.92787019914E+02 -0.18373503067E+03 -0.54981330528E+02  0.27444478364E+03  0.17300000000E+03 0.  1.
<mgrwt>
<rscale>  2 0.26888100E+03</rscale>
<asrwt>0</asrwt>
<pdfrwt beam="1">  1        2 0.26063662E-01 0.26888100E+03</pdfrwt>
<pdfrwt beam="2">  1       -2 0.71931571E-01 0.26888100E+03</pdfrwt>
<totfact> 0.37048972E+02</totfact>
</mgrwt>
</event>
<event>
 4    3  0.7748294E-001  0.2159549E+03  0.7546771E-02  0.1136935E+00
         -2   -1    0    0    0  501 -0.00000000000E+00  0.00000000000E+00  0.10989361575E+02  0.10989361575E+02  0.00000000000E+00 0. -1.
          2   -1    0    0  502    0  0.00000000000E+00 -0.00000000000E+00 -0.42580163236E+04  0.42580163236E+04  0.00000000000E+00 0.  1.
          6    1    1    2  502    0 -0.12678698910E+03  0.25151164148E+02 -0.22469002858E+04  0.22572543977E+04  0.17300000000E+03 0. -1.
         -6    1    1    2    0  501  0.12678698910E+03 -0.25151164148E+02 -0.20001266763E+04  0.20117512875E+04  0.17300000000E+03 0.  1.
<mgrwt>
<rscale>  2 0.21595491E+03</rscale>
<asrwt>0</asrwt>
<pdfrwt beam="1">  1        2 0.65507919E+00 0.21595491E+03</pdfrwt>
<pdfrwt beam="2">  1       -2 0.16906716E-02 0.21595491E+03</pdfrwt>
<totfact> 0.28118555E+02</totfact>
</mgrwt>
</event>
<event>
 4    3  0.7748294E-001  0.2045035E+03  0.7546771E-02  0.1145994E+00
         -1   -1    0    0    0  501 -0.00000000000E+00  0.00000000000E+00  0.21939275968E+03  0.21939275968E+03  0.00000000000E+00 0. -1.
          1   -1    0    0  502    0  0.00000000000E+00 -0.00000000000E+00 -0.55318629239E+03  0.55318629239E+03  0.00000000000E+00 0.  1.
          6    1    1    2  502    0 -0.33851733792E+02  0.10366643533E+03  0.14583222990E+03  0.25117465830E+03  0.17300000000E+03 0. -1.
         -6    1    1    2    0  501  0.33851733792E+02 -0.10366643533E+03 -0.47962576260E+03  0.52140439377E+03  0.17300000000E+03 0.  1.
<mgrwt>
<rscale>  2 0.20450347E+03</rscale>
<asrwt>0</asrwt>
<pdfrwt beam="1">  1        1 0.85105583E-01 0.20450347E+03</pdfrwt>
<pdfrwt beam="2">  1       -1 0.33752733E-01 0.20450347E+03</pdfrwt>
<totfact> 0.33271224E+02</totfact>
</mgrwt>
</event>
<event>
 4    3  0.7748294E-001  0.1748836E+03  0.7546771E-02  0.1172849E+00
          2   -1    0    0  502    0  0.00000000000E+00  0.00000000000E+00  0.91526794094E+03  0.91526794094E+03  0.00000000000E+00 0.  1.
         -2   -1    0    0    0  501 -0.00000000000E+00 -0.00000000000E+00 -0.50005734716E+02  0.50005734716E+02  0.00000000000E+00 0. -1.
          6    1    1    2  502    0 -0.16887559617E+01 -0.25542825121E+02  0.71062461055E+03  0.73182759236E+03  0.17300000000E+03 0.  1.
         -6    1    1    2    0  501  0.16887559617E+01  0.25542825121E+02  0.15463759567E+03  0.23344608329E+03  0.17300000000E+03 0. -1.
<mgrwt>
<rscale>  2 0.17488364E+03</rscale>
<asrwt>0</asrwt>
<pdfrwt beam="1">  1        2 0.14081044E+00 0.17488364E+03</pdfrwt>
<pdfrwt beam="2">  1       -2 0.76931906E-02 0.17488364E+03</pdfrwt>
<totfact> 0.29550588E+03</totfact>
</mgrwt>
</event>
<event>
 4    3  0.7748294E-001  0.2004529E+03  0.7546771E-02  0.1149357E+00
          1   -1    0    0  502    0  0.00000000000E+00  0.00000000000E+00  0.93111625223E+03  0.93111625223E+03  0.00000000000E+00 0. -1.
         -1   -1    0    0    0  501 -0.00000000000E+00 -0.00000000000E+00 -0.74604029900E+02  0.74604029900E+02  0.00000000000E+00 0.  1.
          6    1    1    2  502    0  0.76279270368E+02  0.66587082109E+02  0.10176092713E+03  0.22480358734E+03  0.17300000000E+03 0.  1.
         -6    1    1    2    0  501 -0.76279270368E+02 -0.66587082109E+02  0.75475129520E+03  0.78091669479E+03  0.17300000000E+03 0. -1.
<mgrwt>
<rscale>  2 0.20045290E+03</rscale>
<asrwt>0</asrwt>
<pdfrwt beam="1">  1        1 0.14324865E+00 0.20045290E+03</pdfrwt>
<pdfrwt beam="2">  1       -1 0.11477544E-01 0.20045290E+03</pdfrwt>
<totfact> 0.89135747E+02</totfact>
</mgrwt>
</event>
<event>
 4    3  0.7748294E-001  0.1840648E+03  0.7546771E-02  0.1163926E+00
         -2   -1    0    0    0  501 -0.00000000000E+00  0.00000000000E+00  0.60550964720E+02  0.60550964720E+02  0.00000000000E+00 0. -1.
          2   -1    0    0  502    0  0.00000000000E+00 -0.00000000000E+00 -0.60211832989E+03  0.60211832989E+03  0.00000000000E+00 0.  1.
          6    1    1    2  502    0  0.29890454810E+02  0.55293753279E+02 -0.35890717106E+03  0.40335368584E+03  0.17300000000E+03 0.  1.
         -6    1    1    2    0  501 -0.29890454810E+02 -0.55293753279E+02 -0.18266019410E+03  0.25931560877E+03  0.17300000000E+03 0. -1.
<mgrwt>
<rscale>  2 0.18406477E+03</rscale>
<asrwt>0</asrwt>
<pdfrwt beam="1">  1        2 0.92633584E-01 0.18406477E+03</pdfrwt>
<pdfrwt beam="2">  1       -2 0.93155336E-02 0.18406477E+03</pdfrwt>
<totfact> 0.36744533E+03</totfact>
</mgrwt>
</event>
<event>
 4    3  0.7748294E-001  0.2201703E+03  0.7546771E-02  0.1133756E+00
         -2   -1    0    0    0  501 -0.00000000000E+00  0.00000000000E+00  0.39637908246E+02  0.39637908246E+02  0.00000000000E+00 0.  1.
          2   -1    0    0  502    0  0.00000000000E+00 -0.00000000000E+00 -0.14323320195E+04  0.14323320195E+04  0.00000000000E+00 0. -1.
          6    1    1    2  502    0 -0.43950384122E+02 -0.12889663765E+03 -0.97774571729E+03  0.10022283508E+04  0.17300000000E+03 0. -1.
         -6    1    1    2    0  501  0.43950384122E+02  0.12889663765E+03 -0.41494839399E+03  0.46974157697E+03  0.17300000000E+03 0.  1.
<mgrwt>
<rscale>  2 0.22017034E+03</rscale>
<asrwt>0</asrwt>
<pdfrwt beam="1">  1        2 0.22035875E+00 0.22017034E+03</pdfrwt>
<pdfrwt beam="2">  1       -2 0.60981404E-02 0.22017034E+03</pdfrwt>
<totfact> 0.21435391E+03</totfact>
</mgrwt>
</event>
<event>
 4    3  0.7748294E-001  0.1976883E+03  0.7546771E-02  0.1151704E+00
          1   -1    0    0  502    0  0.00000000000E+00  0.00000000000E+00  0.49370371935E+03  0.49370371935E+03  0.00000000000E+00 0. -1.
         -1   -1    0    0    0  501 -0.00000000000E+00 -0.00000000000E+00 -0.10217318856E+03  0.10217318856E+03  0.00000000000E+00 0.  1.
          6    1    1    2  502    0  0.22070267112E+02 -0.93083650331E+02  0.33717006122E+03  0.39085075519E+03  0.17300000000E+03 0.  1.
         -6    1    1    2    0  501 -0.22070267112E+02  0.93083650331E+02  0.54360469577E+02  0.20502615273E+03  0.17300000000E+03 0.  1.
<mgrwt>
<rscale>  2 0.19768830E+03</rscale>
<asrwt>0</asrwt>
<pdfrwt beam="1">  1        1 0.75954417E-01 0.19768830E+03</pdfrwt>
<pdfrwt beam="2">  1       -1 0.15718952E-01 0.19768830E+03</pdfrwt>
<totfact> 0.13645421E+03</totfact>
</mgrwt>
</event>
<event>
 4    3  0.7748294E-001  0.4828531E+03  0.7546771E-02  0.1018354E+00
          2   -1    0    0  502    0  0.00000000000E+00  0.00000000000E+00  0.15205258327E+03  0.15205258327E+03  0.00000000000E+00 0. -1.
         -2   -1    0    0    0  501 -0.00000000000E+00 -0.00000000000E+00 -0.15381876270E+04  0.15381876270E+04  0.00000000000E+00 0.  1.
          6    1    1    2  502    0 -0.20372964820E+03  0.40213473584E+03 -0.64558547207E+03  0.80618094562E+03  0.17300000000E+03 0.  1.
         -6    1    1    2    0  501  0.20372964820E+03 -0.40213473584E+03 -0.74054957168E+03  0.88405926467E+03  0.17300000000E+03 0. -1.
<mgrwt>
<rscale>  2 0.48285310E+03</rscale>
<asrwt>0</asrwt>
<pdfrwt beam="1">  1        2 0.23392704E-01 0.48285310E+03</pdfrwt>
<pdfrwt beam="2">  1       -2 0.23664426E+00 0.48285310E+03</pdfrwt>
<totfact> 0.19345234E+01</totfact>
</mgrwt>
</event>
<event>
 4    3  0.7748294E-001  0.2852924E+03  0.7546771E-02  0.1092833E+00
          1   -1    0    0  502    0  0.00000000000E+00  0.00000000000E+00  0.10243320572E+03  0.10243320572E+03  0.00000000000E+00 0.  1.
         -1   -1    0    0    0  501 -0.00000000000E+00 -0.00000000000E+00 -0.79753934044E+03  0.79753934044E+03  0.00000000000E+00 0. -1.
          6    1    1    2  502    0  0.48094363580E+02 -0.22169729240E+03 -0.37494658555E+03  0.47114403242E+03  0.17300000000E+03 0.  1.
         -6    1    1    2    0  501 -0.48094363580E+02  0.22169729240E+03 -0.32015954918E+03  0.42882851374E+03  0.17300000000E+03 0. -1.
<mgrwt>
<rscale>  2 0.28529241E+03</rscale>
<asrwt>0</asrwt>
<pdfrwt beam="1">  1        1 0.15758955E-01 0.28529241E+03</pdfrwt>
<pdfrwt beam="2">  1       -1 0.12269836E+00 0.28529241E+03</pdfrwt>
<totfact> 0.21934529E+02</totfact>
</mgrwt>
</event>
<event>
 4    3  0.7748294E-001  0.2624191E+03  0.7546771E-02  0.1105698E+00
         -2   -1    0    0    0  501 -0.00000000000E+00  0.00000000000E+00  0.78740165597E+02  0.78740165597E+02  0.00000000000E+00 0. -1.
          2   -1    0    0  502    0  0.00000000000E+00 -0.00000000000E+00 -0.13221119704E+04  0.13221119704E+04  0.00000000000E+00 0.  1.
          6    1    1    2  502    0  0.14315699201E+03  0.13579721037E+03 -0.21416964097E+03  0.33872177642E+03  0.17300000000E+03 0. -1.
         -6    1    1    2    0  501 -0.14315699201E+03 -0.13579721037E+03 -0.10292021639E+04  0.10621303596E+04  0.17300000000E+03 0.  1.
<mgrwt>
<rscale>  2 0.26241914E+03</rscale>
<asrwt>0</asrwt>
<pdfrwt beam="1">  1        2 0.20340185E+00 0.26241914E+03</pdfrwt>
<pdfrwt beam="2">  1       -2 0.12113871E-01 0.26241914E+03</pdfrwt>
<totfact> 0.83307572E+02</totfact>
</mgrwt>
</event>
<event>
 4    3  0.7748294E-001  0.1848641E+03  0.7546771E-02  0.1163177E+00
         -1   -1    0    0    0  501 -0.00000000000E+00  0.00000000000E+00  0.38001978226E+03  0.38001978226E+03  0.00000000000E+00 0.  1.
          1   -1    0    0  502    0  0.00000000000E+00 -0.00000000000E+00 -0.94478894213E+02  0.94478894213E+02  0.00000000000E+00 0. -1.
          6    1    1    2  502    0  0.36246646223E+01  0.65058302479E+02  0.19483570680E+03  0.26858085107E+03  0.17300000000E+03 0. -1.
         -6    1    1    2    0  501 -0.36246646223E+01 -0.65058302479E+02  0.90705181247E+02  0.20591782541E+03  0.17300000000E+03 0. -1.
<mgrwt>
<rscale>  2 0.18486406E+03</rscale>
<asrwt>0</asrwt>
<pdfrwt beam="1">  1        1 0.14535215E-01 0.18486406E+03</pdfrwt>
<pdfrwt beam="2">  1       -1 0.58464581E-01 0.18486406E+03</pdfrwt>
<totfact> 0.11772136E+03</totfact>
</mgrwt>
</event>
<event>
 4    3  0.7748294E-001  0.2867759E+03  0.7546771E-02  0.1092045E+00
         -1   -1    0    0    0  501 -0.00000000000E+00  0.00000000000E+00  0.80850542616E+02  0.80850542616E+02  0.00000000000E+00 0.  1.
          1   -1    0    0  502    0  0.00000000000E+00 -0.00000000000E+00 -0.10230312478E+04  0.10230312478E+04  0.00000000000E+00 0. -1.
          6    1    1    2  502    0  0.11756607472E+03 -0.19618781809E+03 -0.51279311902E+03  0.58753487114E+03  0.17300000000E+03 0. -1.
         -6    1    1    2    0  501 -0.11756607472E+03  0.19618781809E+03 -0.42938758616E+03  0.51634691927E+03  0.17300000000E+03 0.  1.
<mgrwt>
<rscale>  2 0.28677594E+03</rscale>
<asrwt>0</asrwt>
<pdfrwt beam="1">  1        1 0.15738943E+00 0.28677594E+03</pdfrwt>
<pdfrwt beam="2">  1       -1 0.12438544E-01 0.28677594E+03</pdfrwt>
<totfact> 0.66664774E+02</totfact>
</mgrwt>
</event>
<event>
 4    3  0.7748294E-001  0.1747421E+03  0.7546771E-02  0.1172991E+00
         -1   -1    0    0    0  501 -0.00000000000E+00  0.00000000000E+00  0.17864536449E+03  0.17864536449E+03  0.00000000000E+00 0. -1.
          1   -1    0    0  502    0  0.00000000000E+00 -0.00000000000E+00 -0.21236663613E+03  0.21236663613E+03  0.00000000000E+00 0.  1.
          6    1    1    2  502    0 -0.47151993806E+01  0.24157472502E+02  0.69504720392E+02  0.18805776437E+03  0.17300000000E+03 0. -1.
         -6    1    1    2    0  501  0.47151993806E+01 -0.24157472502E+02 -0.10322599203E+03  0.20295423626E+03  0.17300000000E+03 0.  1.
<mgrwt>
<rscale>  2 0.17474214E+03</rscale>
<asrwt>0</asrwt>
<pdfrwt beam="1">  1        1 0.32671790E-01 0.17474214E+03</pdfrwt>
<pdfrwt beam="2">  1       -1 0.27483902E-01 0.17474214E+03</pdfrwt>
<totfact> 0.15935861E+03</totfact>
</mgrwt>
</event>
<event>
 4    3  0.7748294E-001  0.2126155E+03  0.7546771E-02  0.1139511E+00
         -2   -1    0    0    0  501 -0.00000000000E+00  0.00000000000E+00  0.26332155354E+02  0.26332155354E+02  0.00000000000E+00 0.  1.
          2   -1    0    0  502    0  0.00000000000E+00 -0.00000000000E+00 -0.19892066653E+04  0.19892066653E+04  0.00000000000E+00 0. -1.
          6    1    1    2  502    0  0.29774847844E+02  0.11995756882E+03 -0.60846109792E+03  0.64453880222E+03  0.17300000000E+03 0.  1.
         -6    1    1    2    0  501 -0.29774847844E+02 -0.11995756882E+03 -0.13544134120E+04  0.13710000184E+04  0.17300000000E+03 0. -1.
<mgrwt>
<rscale>  2 0.21261552E+03</rscale>
<asrwt>0</asrwt>
<pdfrwt beam="1">  1        2 0.30603190E+00 0.21261552E+03</pdfrwt>
<pdfrwt beam="2">  1       -2 0.40510994E-02 0.21261552E+03</pdfrwt>
<totfact> 0.20362116E+03</totfact>
</mgrwt>
</event>
<event>
 4    3  0.7748294E-001  0.1738164E+03  0.7546771E-02  0.1173925E+00
          1   -1    0    0  502    0  0.00000000000E+00  0.00000000000E+00  0.15601531877E+04  0.15601531877E+04  0.00000000000E+00 0. -1.
         -1   -1    0    0    0  501 -0.00000000000E+00 -0.00000000000E+00 -0.21040439182E+02  0.21040439182E+02  0.00000000000E+00 0.  1.
          6    1    1    2  502    0  0.10260243466E+02  0.13336663987E+02  0.99266218053E+03  0.10077650241E+04  0.17300000000E+03 0. -1.
         -6    1    1    2    0  501 -0.10260243466E+02 -0.13336663987E+02  0.54645056799E+03  0.57342860275E+03  0.17300000000E+03 0.  1.
<mgrwt>
<rscale>  2 0.17381640E+03</rscale>
<asrwt>0</asrwt>
<pdfrwt beam="1">  1        1 0.24002348E+00 0.17381640E+03</pdfrwt>
<pdfrwt beam="2">  1       -1 0.32369919E-02 0.17381640E+03</pdfrwt>
<totfact> 0.21989926E+03</totfact>
</mgrwt>
</event>
<event>
 4    3  0.7748294E-001  0.2034311E+03  0.7546771E-02  0.1146876E+00
         -1   -1    0    0    0  501 -0.00000000000E+00  0.00000000000E+00  0.35730920485E+02  0.35730920485E+02  0.00000000000E+00 0. -1.
          1   -1    0    0  502    0  0.00000000000E+00 -0.00000000000E+00 -0.11960201949E+04  0.11960201949E+04  0.00000000000E+00 0.  1.
          6    1    1    2  502    0  0.70120820044E+02 -0.80859647742E+02 -0.47065335941E+03  0.51273657638E+03  0.17300000000E+03 0.  1.
         -6    1    1    2    0  501 -0.70120820044E+02  0.80859647742E+02 -0.68963591505E+03  0.71901453905E+03  0.17300000000E+03 0. -1.
<mgrwt>
<rscale>  2 0.20343110E+03</rscale>
<asrwt>0</asrwt>
<pdfrwt beam="1">  1        1 0.18400309E+00 0.20343110E+03</pdfrwt>
<pdfrwt beam="2">  1       -1 0.54970652E-02 0.20343110E+03</pdfrwt>
<totfact> 0.17573360E+03</totfact>
</mgrwt>
</event>
<event>
 4    3  0.7748294E-001  0.1817038E+03  0.7546771E-02  0.1166164E+00
          3   -1    0    0  502    0  0.00000000000E+00  0.00000000000E+00  0.99545194987E+03  0.99545194987E+03  0.00000000000E+00 0. -1.
         -3   -1    0    0    0  501 -0.00000000000E+00 -0.00000000000E+00 -0.45606053884E+02  0.45606053884E+02  0.00000000000E+00 0.  1.
          6    1    1    2  502    0 -0.26507735252E+02 -0.48832485361E+02  0.74677042669E+03  0.76855861314E+03  0.17300000000E+03 0. -1.
         -6    1    1    2    0  501  0.26507735252E+02  0.48832485361E+02  0.20307546930E+03  0.27249939062E+03  0.17300000000E+03 0.  1.
<mgrwt>
<rscale>  2 0.18170380E+03</rscale>
<asrwt>0</asrwt>
<pdfrwt beam="1">  1        3 0.15314644E+00 0.18170380E+03</pdfrwt>
<pdfrwt beam="2">  1       -3 0.70163167E-02 0.18170380E+03</pdfrwt>
<totfact> 0.10447910E+02</totfact>
</mgrwt>
</event>
<event>
 4    3  0.7748294E-001  0.2745162E+03  0.7546771E-02  0.1098722E+00
          2   -1    0    0  502    0  0.00000000000E+00  0.00000000000E+00  0.31480175131E+03  0.31480175131E+03  0.00000000000E+00 0. -1.
         -2   -1    0    0    0  501 -0.00000000000E+00 -0.00000000000E+00 -0.24504007577E+03  0.24504007577E+03  0.00000000000E+00 0.  1.
          6    1    1    2  502    0  0.53032214206E+02  0.20644063795E+03 -0.76393402614E+01  0.27462249045E+03  0.17300000000E+03 0.  1.
         -6    1    1    2    0  501 -0.53032214206E+02 -0.20644063795E+03  0.77401015796E+02  0.28521933663E+03  0.17300000000E+03 0. -1.
<mgrwt>
<rscale>  2 0.27451622E+03</rscale>
<asrwt>0</asrwt>
<pdfrwt beam="1">  1        2 0.48431038E-01 0.27451622E+03</pdfrwt>
<pdfrwt beam="2">  1       -2 0.37698473E-01 0.27451622E+03</pdfrwt>
<totfact> 0.69455287E+02</totfact>
</mgrwt>
</event>
<event>
 4    3  0.7748294E-001  0.2046400E+03  0.7546771E-02  0.1145882E+00
         -2   -1    0    0    0  501 -0.00000000000E+00  0.00000000000E+00  0.27494542026E+03  0.27494542026E+03  0.00000000000E+00 0. -1.
          2   -1    0    0  502    0  0.00000000000E+00 -0.00000000000E+00 -0.23302784502E+03  0.23302784502E+03  0.00000000000E+00 0.  1.
          6    1    1    2  502    0 -0.77040019997E+02  0.77545758877E+02 -0.12852225867E+03  0.24165156812E+03  0.17300000000E+03 0.  1.
         -6    1    1    2    0  501  0.77040019997E+02 -0.77545758877E+02  0.17043983391E+03  0.26632169717E+03  0.17300000000E+03 0. -1.
<mgrwt>
<rscale>  2 0.20463995E+03</rscale>
<asrwt>0</asrwt>
<pdfrwt beam="1">  1        2 0.35850438E-01 0.20463995E+03</pdfrwt>
<pdfrwt beam="2">  1       -2 0.42299295E-01 0.20463995E+03</pdfrwt>
<totfact> 0.76948352E+02</totfact>
</mgrwt>
</event>
<event>
 4    3  0.7748294E-001  0.2102902E+03  0.7546771E-02  0.1141336E+00
          1   -1    0    0  502    0  0.00000000000E+00  0.00000000000E+00  0.17958697630E+03  0.17958697630E+03  0.00000000000E+00 0.  1.
         -1   -1    0    0    0  501 -0.00000000000E+00 -0.00000000000E+00 -0.25862020476E+03  0.25862020476E+03  0.00000000000E+00 0. -1.
          6    1    1    2  502    0 -0.11277010612E+02 -0.11902016206E+03  0.84165380316E+01  0.21045856613E+03  0.17300000000E+03 0.  1.
         -6    1    1    2    0  501  0.11277010612E+02  0.11902016206E+03 -0.87449766499E+02  0.22774861493E+03  0.17300000000E+03 0. -1.
<mgrwt>
<rscale>  2 0.21029020E+03</rscale>
<asrwt>0</asrwt>
<pdfrwt beam="1">  1        1 0.27628766E-01 0.21029020E+03</pdfrwt>
<pdfrwt beam="2">  1       -1 0.39787723E-01 0.21029020E+03</pdfrwt>
<totfact> 0.10459211E+03</totfact>
</mgrwt>
</event>
<event>
 4    3  0.7748294E-001  0.2096700E+03  0.7546771E-02  0.1141828E+00
          1   -1    0    0  502    0  0.00000000000E+00  0.00000000000E+00  0.97827049424E+03  0.97827049424E+03  0.00000000000E+00 0.  1.
         -1   -1    0    0    0  501 -0.00000000000E+00 -0.00000000000E+00 -0.90327261627E+02  0.90327261627E+02  0.00000000000E+00 0. -1.
          6    1    1    2  502    0  0.44112683159E+02 -0.10993895470E+03  0.65222627915E+02  0.21958026725E+03  0.17300000000E+03 0. -1.
         -6    1    1    2    0  501 -0.44112683159E+02  0.10993895470E+03  0.82272060470E+03  0.84901748861E+03  0.17300000000E+03 0.  1.
<mgrwt>
<rscale>  2 0.20966998E+03</rscale>
<asrwt>0</asrwt>
<pdfrwt beam="1">  1        1 0.15050315E+00 0.20966998E+03</pdfrwt>
<pdfrwt beam="2">  1       -1 0.13896502E-01 0.20966998E+03</pdfrwt>
<totfact> 0.60829922E+02</totfact>
</mgrwt>
</event>
<event>
 4    3  0.7748294E-001  0.1744366E+03  0.7546771E-02  0.1173299E+00
         -3   -1    0    0    0  501 -0.00000000000E+00  0.00000000000E+00  0.27912164780E+03  0.27912164780E+03  0.00000000000E+00 0. -1.
          3   -1    0    0  502    0  0.00000000000E+00 -0.00000000000E+00 -0.11016416555E+03  0.11016416555E+03  0.00000000000E+00 0.  1.
          6    1    1    2  502    0  0.20869493969E+01 -0.22243413861E+02  0.64589082622E+02  0.18601041479E+03  0.17300000000E+03 0.  1.
         -6    1    1    2    0  501 -0.20869493969E+01  0.22243413861E+02  0.10436839963E+03  0.20327539856E+03  0.17300000000E+03 0. -1.
<mgrwt>
<rscale>  2 0.17443659E+03</rscale>
<asrwt>0</asrwt>
<pdfrwt beam="1">  1        3 0.16948333E-01 0.17443659E+03</pdfrwt>
<pdfrwt beam="2">  1       -3 0.42941792E-01 0.17443659E+03</pdfrwt>
<totfact> 0.38998238E+02</totfact>
</mgrwt>
</event>
<event>
 4    3  0.7748294E-001  0.2363510E+03  0.7546771E-02  0.1122248E+00
          2   -1    0    0  502    0  0.00000000000E+00  0.00000000000E+00  0.13007717639E+04  0.13007717639E+04  0.00000000000E+00 0.  1.
         -2   -1    0    0    0  501 -0.00000000000E+00 -0.00000000000E+00 -0.54144395348E+02  0.54144395348E+02  0.00000000000E+00 0. -1.
          6    1    1    2  502    0 -0.75427838111E+02  0.14227950415E+03  0.31520752033E+03  0.39397664516E+03  0.17300000000E+03 0. -1.
         -6    1    1    2    0  501  0.75427838111E+02 -0.14227950415E+03  0.93141984822E+03  0.96093951408E+03  0.17300000000E+03 0. -1.
<mgrwt>
<rscale>  2 0.23635104E+03</rscale>
<asrwt>0</asrwt>
<pdfrwt beam="1">  1        2 0.20011871E+00 0.23635104E+03</pdfrwt>
<pdfrwt beam="2">  1       -2 0.83299080E-02 0.23635104E+03</pdfrwt>
<totfact> 0.15575282E+03</totfact>
</mgrwt>
</event>
<event>
 4    3  0.7748294E-001  0.1839614E+03  0.7546771E-02  0.1164023E+00
          2   -1    0    0  502    0  0.00000000000E+00  0.00000000000E+00  0.17637949415E+03  0.17637949415E+03  0.00000000000E+00 0.  1.
         -2   -1    0    0    0  501 -0.00000000000E+00 -0.00000000000E+00 -0.20194529792E+03  0.20194529792E+03  0.00000000000E+00 0. -1.
          6    1    1    2  502    0  0.36819077960E+02 -0.50568331780E+02 -0.55036443450E+02  0.19201773561E+03  0.17300000000E+03 0. -1.
         -6    1    1    2    0  501 -0.36819077960E+02  0.50568331780E+02  0.29470639681E+02  0.18630705645E+03  0.17300000000E+03 0.  1.
<mgrwt>
<rscale>  2 0.18396141E+03</rscale>
<asrwt>0</asrwt>
<pdfrwt beam="1">  1        2 0.27135307E-01 0.18396141E+03</pdfrwt>
<pdfrwt beam="2">  1       -2 0.31068507E-01 0.18396141E+03</pdfrwt>
<totfact> 0.18538689E+03</totfact>
</mgrwt>
</event>
<event>
 4    3  0.7748294E-001  0.2502368E+03  0.7546771E-02  0.1113155E+00
          1   -1    0    0  502    0  0.00000000000E+00  0.00000000000E+00  0.38252354494E+03  0.38252354494E+03  0.00000000000E+00 0. -1.
         -1   -1    0    0    0  501 -0.00000000000E+00 -0.00000000000E+00 -0.20574434631E+03  0.20574434631E+03  0.00000000000E+00 0.  1.
          6    1    1    2  502    0  0.38464944445E+02 -0.17666322327E+03  0.22135660187E+03  0.33409159163E+03  0.17300000000E+03 0. -1.
         -6    1    1    2    0  501 -0.38464944445E+02  0.17666322327E+03 -0.44577403247E+02  0.25417629962E+03  0.17300000000E+03 0.  1.
<mgrwt>
<rscale>  2 0.25023678E+03</rscale>
<asrwt>0</asrwt>
<pdfrwt beam="1">  1        1 0.58849776E-01 0.25023678E+03</pdfrwt>
<pdfrwt beam="2">  1       -1 0.31652976E-01 0.25023678E+03</pdfrwt>
<totfact> 0.60086747E+02</totfact>
</mgrwt>
</event>
<event>
 4    3  0.7748294E-001  0.1851783E+03  0.7546771E-02  0.1162883E+00
          1   -1    0    0  502    0  0.00000000000E+00  0.00000000000E+00  0.31181661644E+04  0.31181661644E+04  0.00000000000E+00 0.  1.
         -1   -1    0    0    0  501 -0.00000000000E+00 -0.00000000000E+00 -0.14759988073E+02  0.14759988073E+02  0.00000000000E+00 0. -1.
          6    1    1    2  502    0 -0.77510044138E+01 -0.65589200459E+02  0.76078148370E+03  0.78299392541E+03  0.17300000000E+03 0. -1.
         -6    1    1    2    0  501  0.77510044138E+01  0.65589200459E+02  0.23426246926E+04  0.23499322270E+04  0.17300000000E+03 0.  1.
<mgrwt>
<rscale>  2 0.18517835E+03</rscale>
<asrwt>0</asrwt>
<pdfrwt beam="1">  1        1 0.47971735E+00 0.18517835E+03</pdfrwt>
<pdfrwt beam="2">  1       -1 0.22707699E-02 0.18517835E+03</pdfrwt>
<totfact> 0.34702087E+02</totfact>
</mgrwt>
</event>
<event>
 4    3  0.7748294E-001  0.2036128E+03  0.7546771E-02  0.1146726E+00
         -2   -1    0    0    0  501 -0.00000000000E+00  0.00000000000E+00  0.25178104000E+02  0.25178104000E+02  0.00000000000E+00 0. -1.
          2   -1    0    0  502    0  0.00000000000E+00 -0.00000000000E+00 -0.16523131320E+04  0.16523131320E+04  0.00000000000E+00 0.  1.
          6    1    1    2  502    0 -0.99267325552E+02  0.40928743437E+02 -0.76423022687E+03  0.79088937509E+03  0.17300000000E+03 0.  1.
         -6    1    1    2    0  501  0.99267325552E+02 -0.40928743437E+02 -0.86290480111E+03  0.88660186089E+03  0.17300000000E+03 0. -1.
<mgrwt>
<rscale>  2 0.20361278E+03</rscale>
<asrwt>0</asrwt>
<pdfrwt beam="1">  1        2 0.25420209E+00 0.20361278E+03</pdfrwt>
<pdfrwt beam="2">  1       -2 0.38735533E-02 0.20361278E+03</pdfrwt>
<totfact> 0.32623538E+03</totfact>
</mgrwt>
</event>
<event>
 4    3  0.7748294E-001  0.2279585E+03  0.7546771E-02  0.1128085E+00
         -2   -1    0    0    0  501 -0.00000000000E+00  0.00000000000E+00  0.50395250810E+02  0.50395250810E+02  0.00000000000E+00 0. -1.
          2   -1    0    0  502    0  0.00000000000E+00 -0.00000000000E+00 -0.37063814354E+04  0.37063814354E+04  0.00000000000E+00 0.  1.
          6    1    1    2  502    0  0.11825298082E+03  0.89734718723E+02 -0.34238390533E+04  0.34314193784E+04  0.17300000000E+03 0.  1.
         -6    1    1    2    0  501 -0.11825298082E+03 -0.89734718723E+02 -0.23214713132E+03  0.32535730789E+03  0.17300000000E+03 0. -1.
<mgrwt>
<rscale>  2 0.22795852E+03</rscale>
<asrwt>0</asrwt>
<pdfrwt beam="1">  1        2 0.57021238E+00 0.22795852E+03</pdfrwt>
<pdfrwt beam="2">  1       -2 0.77531175E-02 0.22795852E+03</pdfrwt>
<totfact> 0.74512949E+01</totfact>
</mgrwt>
</event>
<event>
 4    3  0.7748294E-001  0.2043077E+03  0.7546771E-02  0.1146155E+00
         -2   -1    0    0    0  501 -0.00000000000E+00  0.00000000000E+00  0.81009328138E+02  0.81009328138E+02  0.00000000000E+00 0. -1.
          2   -1    0    0  502    0  0.00000000000E+00 -0.00000000000E+00 -0.52500691486E+03  0.52500691486E+03  0.00000000000E+00 0.  1.
          6    1    1    2  502    0 -0.42831744255E+02 -0.99890430073E+02 -0.26326437750E+03  0.33324133717E+03  0.17300000000E+03 0.  1.
         -6    1    1    2    0  501  0.42831744255E+02  0.99890430073E+02 -0.18073320922E+03  0.27277490583E+03  0.17300000000E+03 0. -1.
<mgrwt>
<rscale>  2 0.20430775E+03</rscale>
<asrwt>0</asrwt>
<pdfrwt beam="1">  1        2 0.80770293E-01 0.20430775E+03</pdfrwt>
<pdfrwt beam="2">  1       -2 0.12462974E-01 0.20430775E+03</pdfrwt>
<totfact> 0.27083462E+03</totfact>
</mgrwt>
</event>
<event>
 4    3  0.7748294E-001  0.1745043E+03  0.7546771E-02  0.1173230E+00
          1   -1    0    0  502    0  0.00000000000E+00  0.00000000000E+00  0.22719509330E+04  0.22719509330E+04  0.00000000000E+00 0.  1.
         -1   -1    0    0    0  501 -0.00000000000E+00 -0.00000000000E+00 -0.14887420537E+02  0.14887420537E+02  0.00000000000E+00 0. -1.
          6    1    1    2  502    0  0.10180010904E+02 -0.20472642650E+02  0.76751904954E+03  0.78710688799E+03  0.17300000000E+03 0. -1.
         -6    1    1    2    0  501 -0.10180010904E+02  0.20472642650E+02  0.14895444630E+04  0.14997314656E+04  0.17300000000E+03 0.  1.
<mgrwt>
<rscale>  2 0.17450433E+03</rscale>
<asrwt>0</asrwt>
<pdfrwt beam="1">  1        1 0.34953064E+00 0.17450433E+03</pdfrwt>
<pdfrwt beam="2">  1       -1 0.22903742E-02 0.17450433E+03</pdfrwt>
<totfact> 0.12705739E+03</totfact>
</mgrwt>
</event>
<event>
 4    3  0.7748294E-001  0.2051169E+03  0.7546771E-02  0.1145492E+00
         -2   -1    0    0    0  501 -0.00000000000E+00  0.00000000000E+00  0.38253675613E+02  0.38253675613E+02  0.00000000000E+00 0.  1.
          2   -1    0    0  502    0  0.00000000000E+00 -0.00000000000E+00 -0.11404403458E+04  0.11404403458E+04  0.00000000000E+00 0. -1.
          6    1    1    2  502    0  0.98733545689E+02 -0.48945339321E+02 -0.66229070969E+03  0.69332672199E+03  0.17300000000E+03 0.  1.
         -6    1    1    2    0  501 -0.98733545689E+02  0.48945339321E+02 -0.43989596049E+03  0.48536729941E+03  0.17300000000E+03 0. -1.
<mgrwt>
<rscale>  2 0.20511694E+03</rscale>
<asrwt>0</asrwt>
<pdfrwt beam="1">  1        2 0.17545237E+00 0.20511694E+03</pdfrwt>
<pdfrwt beam="2">  1       -2 0.58851807E-02 0.20511694E+03</pdfrwt>
<totfact> 0.32804803E+03</totfact>
</mgrwt>
</event>
<event>
 4    3  0.7748294E-001  0.1849995E+03  0.7546771E-02  0.1163050E+00
         -2   -1    0    0    0  501 -0.00000000000E+00  0.00000000000E+00  0.73695261223E+02  0.73695261223E+02  0.00000000000E+00 0.  1.
          2   -1    0    0  502    0  0.00000000000E+00 -0.00000000000E+00 -0.51566711731E+03  0.51566711731E+03  0.00000000000E+00 0. -1.
          6    1    1    2  502    0  0.63270815705E+02  0.17106332093E+02 -0.12807978891E+03  0.22500945546E+03  0.17300000000E+03 0. -1.
         -6    1    1    2    0  501 -0.63270815705E+02 -0.17106332093E+02 -0.31389206717E+03  0.36435292307E+03  0.17300000000E+03 0. -1.
<mgrwt>
<rscale>  2 0.18499952E+03</rscale>
<asrwt>0</asrwt>
<pdfrwt beam="1">  1        2 0.79333399E-01 0.18499952E+03</pdfrwt>
<pdfrwt beam="2">  1       -2 0.11337733E-01 0.18499952E+03</pdfrwt>
<totfact> 0.32076863E+03</totfact>
</mgrwt>
</event>
<event>
 4    3  0.7748294E-001  0.2507267E+03  0.7546771E-02  0.1112846E+00
          2   -1    0    0  502    0  0.00000000000E+00  0.00000000000E+00  0.10237661415E+03  0.10237661415E+03  0.00000000000E+00 0.  1.
         -2   -1    0    0    0  501 -0.00000000000E+00 -0.00000000000E+00 -0.62120787983E+03  0.62120787983E+03  0.00000000000E+00 0. -1.
          6    1    1    2  502    0  0.11436430947E+02  0.18111902871E+03 -0.22056743756E+03  0.33393695367E+03  0.17300000000E+03 0.  1.
         -6    1    1    2    0  501 -0.11436430947E+02 -0.18111902871E+03 -0.29826382811E+03  0.38964754031E+03  0.17300000000E+03 0. -1.
<mgrwt>
<rscale>  2 0.25072673E+03</rscale>
<asrwt>0</asrwt>
<pdfrwt beam="1">  1        2 0.15750248E-01 0.25072673E+03</pdfrwt>
<pdfrwt beam="2">  1       -2 0.95570444E-01 0.25072673E+03</pdfrwt>
<totfact> 0.35084588E+02</totfact>
</mgrwt>
</event>
<event>
 4    3  0.7748294E-001  0.2257399E+03  0.7546771E-02  0.1129675E+00
          1   -1    0    0  502    0  0.00000000000E+00  0.00000000000E+00  0.37260784717E+02  0.37260784717E+02  0.00000000000E+00 0.  1.
         -1   -1    0    0    0  501 -0.00000000000E+00 -0.00000000000E+00 -0.14347079730E+04  0.14347079730E+04  0.00000000000E+00 0. -1.
          6    1    1    2  502    0  0.14261721794E+03 -0.26264446358E+02 -0.53956940632E+03  0.58488771250E+03  0.17300000000E+03 0.  1.
         -6    1    1    2    0  501 -0.14261721794E+03  0.26264446358E+02 -0.85787778193E+03  0.88708104519E+03  0.17300000000E+03 0.  1.
<mgrwt>
<rscale>  2 0.22573988E+03</rscale>
<asrwt>0</asrwt>
<pdfrwt beam="1">  1        1 0.57324287E-02 0.22573988E+03</pdfrwt>
<pdfrwt beam="2">  1       -1 0.22072429E+00 0.22573988E+03</pdfrwt>
<totfact> 0.16863293E+02</totfact>
</mgrwt>
</event>
<event>
 4    3  0.7748294E-001  0.1904460E+03  0.7546771E-02  0.1158060E+00
          1   -1    0    0  502    0  0.00000000000E+00  0.00000000000E+00  0.63847578004E+03  0.63847578004E+03  0.00000000000E+00 0. -1.
         -1   -1    0    0    0  501 -0.00000000000E+00 -0.00000000000E+00 -0.95529470028E+02  0.95529470028E+02  0.00000000000E+00 0.  1.
          6    1    1    2  502    0 -0.73587554404E+02 -0.30423089548E+02  0.37813474360E+02  0.19416372314E+03  0.17300000000E+03 0.  1.
         -6    1    1    2    0  501  0.73587554404E+02  0.30423089548E+02  0.50513283565E+03  0.53984152693E+03  0.17300000000E+03 0. -1.
<mgrwt>
<rscale>  2 0.19044604E+03</rscale>
<asrwt>0</asrwt>
<pdfrwt beam="1">  1        1 0.98227040E-01 0.19044604E+03</pdfrwt>
<pdfrwt beam="2">  1       -1 0.14696842E-01 0.19044604E+03</pdfrwt>
<totfact> 0.10703306E+03</totfact>
</mgrwt>
</event>
<event>
 4    3  0.7748294E-001  0.1765232E+03  0.7546771E-02  0.1171211E+00
         -1   -1    0    0    0  501 -0.00000000000E+00  0.00000000000E+00  0.26274285104E+03  0.26274285104E+03  0.00000000000E+00 0.  1.
          1   -1    0    0  502    0  0.00000000000E+00 -0.00000000000E+00 -0.12099705848E+03  0.12099705848E+03  0.00000000000E+00 0. -1.
          6    1    1    2  502    0  0.21101867967E+02  0.28038623555E+02  0.97897004216E+02  0.20185211586E+03  0.17300000000E+03 0.  1.
         -6    1    1    2    0  501 -0.21101867967E+02 -0.28038623555E+02  0.43848788341E+02  0.18188779366E+03  0.17300000000E+03 0. -1.
<mgrwt>
<rscale>  2 0.17652324E+03</rscale>
<asrwt>0</asrwt>
<pdfrwt beam="1">  1        1 0.18614932E-01 0.17652324E+03</pdfrwt>
<pdfrwt beam="2">  1       -1 0.40421977E-01 0.17652324E+03</pdfrwt>
<totfact> 0.16759573E+03</totfact>
</mgrwt>
</event>
<event>
 4    3  0.7748294E-001  0.2163224E+03  0.7546771E-02  0.1136655E+00
          1   -1    0    0  502    0  0.00000000000E+00  0.00000000000E+00  0.10195214945E+03  0.10195214945E+03  0.00000000000E+00 0. -1.
         -1   -1    0    0    0  501 -0.00000000000E+00 -0.00000000000E+00 -0.48784781523E+03  0.48784781523E+03  0.00000000000E+00 0.  1.
          6    1    1    2  502    0  0.66731261403E+02 -0.11141506304E+03 -0.26466740399E+03  0.34182482685E+03  0.17300000000E+03 0.  1.
         -6    1    1    2    0  501 -0.66731261403E+02  0.11141506304E+03 -0.12122826179E+03  0.24797513782E+03  0.17300000000E+03 0. -1.
<mgrwt>
<rscale>  2 0.21632239E+03</rscale>
<asrwt>0</asrwt>
<pdfrwt beam="1">  1        1 0.15684946E-01 0.21632239E+03</pdfrwt>
<pdfrwt beam="2">  1       -1 0.75053511E-01 0.21632239E+03</pdfrwt>
<totfact> 0.65380132E+02</totfact>
</mgrwt>
</event>
<event>
 4    3  0.7748294E-001  0.1998639E+03  0.7546771E-02  0.1149854E+00
          2   -1    0    0  502    0  0.00000000000E+00  0.00000000000E+00  0.10445583694E+04  0.10445583694E+04  0.00000000000E+00 0.  1.
         -2   -1    0    0    0  501 -0.00000000000E+00 -0.00000000000E+00 -0.50729890515E+02  0.50729890515E+02  0.00000000000E+00 0. -1.
          6    1    1    2  502    0  0.99210504549E+02 -0.13185864539E+02  0.76863188302E+03  0.79419176704E+03  0.17300000000E+03 0.  1.
         -6    1    1    2    0  501 -0.99210504549E+02  0.13185864539E+02  0.22519659589E+03  0.30109649290E+03  0.17300000000E+03 0.  1.
<mgrwt>
<rscale>  2 0.19986393E+03</rscale>
<asrwt>0</asrwt>
<pdfrwt beam="1">  1        2 0.16070127E+00 0.19986393E+03</pdfrwt>
<pdfrwt beam="2">  1       -2 0.78045993E-02 0.19986393E+03</pdfrwt>
<totfact> 0.24138868E+03</totfact>
</mgrwt>
</event>
<event>
 4    3  0.7748294E-001  0.1818589E+03  0.7546771E-02  0.1166016E+00
          3   -1    0    0  502    0  0.00000000000E+00  0.00000000000E+00  0.50842578637E+02  0.50842578637E+02  0.00000000000E+00 0. -1.
         -3   -1    0    0    0  501 -0.00000000000E+00 -0.00000000000E+00 -0.66718808538E+03  0.66718808538E+03  0.00000000000E+00 0.  1.
          6    1    1    2  502    0  0.54423662443E+00 -0.56065571836E+02 -0.36496747586E+03  0.40776697141E+03  0.17300000000E+03 0.  1.
         -6    1    1    2    0  501 -0.54423662443E+00  0.56065571836E+02 -0.25137803088E+03  0.31026369261E+03  0.17300000000E+03 0. -1.
<mgrwt>
<rscale>  2 0.18185886E+03</rscale>
<asrwt>0</asrwt>
<pdfrwt beam="1">  1        3 0.78219346E-02 0.18185886E+03</pdfrwt>
<pdfrwt beam="2">  1       -3 0.10264433E+00 0.18185886E+03</pdfrwt>
<totfact> 0.22803158E+02</totfact>
</mgrwt>
</event>
<event>
 4    3  0.7748294E-001  0.2011813E+03  0.7546771E-02  0.1148746E+00
          1   -1    0    0  502    0  0.00000000000E+00  0.00000000000E+00  0.15389828161E+04  0.15389828161E+04  0.00000000000E+00 0.  1.
         -1   -1    0    0    0  501 -0.00000000000E+00 -0.00000000000E+00 -0.39293524951E+02  0.39293524951E+02  0.00000000000E+00 0. -1.
          6    1    1    2  502    0  0.10265273527E+03 -0.27089796476E+01  0.12036508616E+04  0.12203480321E+04  0.17300000000E+03 0.  1.
         -6    1    1    2    0  501 -0.10265273527E+03  0.27089796476E+01  0.29603842951E+03  0.35792830899E+03  0.17300000000E+03 0. -1.
<mgrwt>
<rscale>  2 0.20118132E+03</rscale>
<asrwt>0</asrwt>
<pdfrwt beam="1">  1        1 0.23676654E+00 0.20118132E+03</pdfrwt>
<pdfrwt beam="2">  1       -1 0.60451589E-02 0.20118132E+03</pdfrwt>
<totfact> 0.89662086E+02</totfact>
</mgrwt>
</event>
<event>
 4    3  0.7748294E-001  0.1822783E+03  0.7546771E-02  0.1165616E+00
         -1   -1    0    0    0  501 -0.00000000000E+00  0.00000000000E+00  0.58258368351E+03  0.58258368351E+03  0.00000000000E+00 0. -1.
          1   -1    0    0  502    0  0.00000000000E+00 -0.00000000000E+00 -0.75968304965E+02  0.75968304965E+02  0.00000000000E+00 0.  1.
          6    1    1    2  502    0 -0.56301345906E+02 -0.11248255458E+02  0.88907522333E+02  0.20280510923E+03  0.17300000000E+03 0.  1.
         -6    1    1    2    0  501  0.56301345906E+02  0.11248255458E+02  0.41770785621E+03  0.45574687925E+03  0.17300000000E+03 0.  1.
<mgrwt>
<rscale>  2 0.18227826E+03</rscale>
<asrwt>0</asrwt>
<pdfrwt beam="1">  1        1 0.11687432E-01 0.18227826E+03</pdfrwt>
<pdfrwt beam="2">  1       -1 0.89628256E-01 0.18227826E+03</pdfrwt>
<totfact> 0.66469241E+02</totfact>
</mgrwt>
</event>
<event>
 4    3  0.7748294E-001  0.3335944E+03  0.7546771E-02  0.1069557E+00
         -2   -1    0    0    0  501 -0.00000000000E+00  0.00000000000E+00  0.14813902294E+03  0.14813902294E+03  0.00000000000E+00 0. -1.
          2   -1    0    0  502    0  0.00000000000E+00 -0.00000000000E+00 -0.19652518297E+04  0.19652518297E+04  0.00000000000E+00 0.  1.
          6    1    1    2  502    0  0.17410507655E+03 -0.22592843806E+03 -0.78026125197E+02  0.34259788823E+03  0.17300000000E+03 0. -1.
         -6    1    1    2    0  501 -0.17410507655E+03  0.22592843806E+03 -0.17390866816E+04  0.17707929644E+04  0.17300000000E+03 0.  1.
<mgrwt>
<rscale>  2 0.33359442E+03</rscale>
<asrwt>0</asrwt>
<pdfrwt beam="1">  1        2 0.30234643E+00 0.33359442E+03</pdfrwt>
<pdfrwt beam="2">  1       -2 0.22790619E-01 0.33359442E+03</pdfrwt>
<totfact> 0.12877545E+02</totfact>
</mgrwt>
</event>
<event>
 4    3  0.7748294E-001  0.1776126E+03  0.7546771E-02  0.1170134E+00
          1   -1    0    0  502    0  0.00000000000E+00  0.00000000000E+00  0.34014906653E+03  0.34014906653E+03  0.00000000000E+00 0.  1.
         -1   -1    0    0    0  501 -0.00000000000E+00 -0.00000000000E+00 -0.97726576999E+02  0.97726576999E+02  0.00000000000E+00 0. -1.
          6    1    1    2  502    0 -0.27181740468E+02  0.29637890192E+02  0.17065481230E+03  0.24631142180E+03  0.17300000000E+03 0.  1.
         -6    1    1    2    0  501  0.27181740468E+02 -0.29637890192E+02  0.71767677231E+02  0.19156422173E+03  0.17300000000E+03 0. -1.
<mgrwt>
<rscale>  2 0.17761264E+03</rscale>
<asrwt>0</asrwt>
<pdfrwt beam="1">  1        1 0.52330625E-01 0.17761264E+03</pdfrwt>
<pdfrwt beam="2">  1       -1 0.15034858E-01 0.17761264E+03</pdfrwt>
<totfact> 0.23537456E+03</totfact>
</mgrwt>
</event>
<event>
 4    3  0.7748294E-001  0.1765746E+03  0.7546771E-02  0.1171160E+00
          2   -1    0    0  502    0  0.00000000000E+00  0.00000000000E+00  0.14532208154E+03  0.14532208154E+03  0.00000000000E+00 0. -1.
         -2   -1    0    0    0  501 -0.00000000000E+00 -0.00000000000E+00 -0.22560211575E+03  0.22560211575E+03  0.00000000000E+00 0.  1.
          6    1    1    2  502    0 -0.23734032964E+02 -0.26197077340E+02 -0.81192708865E+02  0.19434723346E+03  0.17300000000E+03 0. -1.
         -6    1    1    2    0  501  0.23734032964E+02  0.26197077340E+02  0.91267465578E+00  0.17657696383E+03  0.17300000000E+03 0. -1.
<mgrwt>
<rscale>  2 0.17657461E+03</rscale>
<asrwt>0</asrwt>
<pdfrwt beam="1">  1        2 0.22357243E-01 0.17657461E+03</pdfrwt>
<pdfrwt beam="2">  1       -2 0.34708018E-01 0.17657461E+03</pdfrwt>
<totfact> 0.18741012E+03</totfact>
</mgrwt>
</event>
<event>
 4    3  0.7748294E-001  0.2215003E+03  0.7546771E-02  0.1132769E+00
         -2   -1    0    0    0  501 -0.00000000000E+00  0.00000000000E+00  0.35454037133E+02  0.35454037133E+02  0.00000000000E+00 0. -1.
          2   -1    0    0  502    0  0.00000000000E+00 -0.00000000000E+00 -0.14574661349E+04  0.14574661349E+04  0.00000000000E+00 0.  1.
          6    1    1    2  502    0 -0.95492848581E+02  0.10007250011E+03 -0.87879000014E+03  0.90627493276E+03  0.17300000000E+03 0. -1.
         -6    1    1    2    0  501  0.95492848581E+02 -0.10007250011E+03 -0.54322209763E+03  0.58664523927E+03  0.17300000000E+03 0. -1.
<mgrwt>
<rscale>  2 0.22150031E+03</rscale>
<asrwt>0</asrwt>
<pdfrwt beam="1">  1        2 0.22422561E+00 0.22150031E+03</pdfrwt>
<pdfrwt beam="2">  1       -2 0.54544661E-02 0.22150031E+03</pdfrwt>
<totfact> 0.24649416E+03</totfact>
</mgrwt>
</event>
<event>
 4    3  0.7748294E-001  0.2048161E+03  0.7546771E-02  0.1145738E+00
          1   -1    0    0  502    0  0.00000000000E+00  0.00000000000E+00  0.22061597499E+04  0.22061597499E+04  0.00000000000E+00 0. -1.
         -1   -1    0    0    0  501 -0.00000000000E+00 -0.00000000000E+00 -0.21102895240E+02  0.21102895240E+02  0.00000000000E+00 0.  1.
          6    1    1    2  502    0 -0.29790685740E+02  0.10551381958E+03  0.14428341509E+04  0.14572988843E+04  0.17300000000E+03 0. -1.
         -6    1    1    2    0  501  0.29790685740E+02 -0.10551381958E+03  0.74222270372E+03  0.76996376083E+03  0.17300000000E+03 0.  1.
<mgrwt>
<rscale>  2 0.20481614E+03</rscale>
<asrwt>0</asrwt>
<pdfrwt beam="1">  1        1 0.33940901E+00 0.20481614E+03</pdfrwt>
<pdfrwt beam="2">  1       -1 0.32466010E-02 0.20481614E+03</pdfrwt>
<totfact> 0.83754017E+02</totfact>
</mgrwt>
</event>
<event>
 4    3  0.7748294E-001  0.1827388E+03  0.7546771E-02  0.1165178E+00
          2   -1    0    0  502    0  0.00000000000E+00  0.00000000000E+00  0.50494088953E+03  0.50494088953E+03  0.00000000000E+00 0. -1.
         -2   -1    0    0    0  501 -0.00000000000E+00 -0.00000000000E+00 -0.68620720527E+02  0.68620720527E+02  0.00000000000E+00 0.  1.
          6    1    1    2  502    0  0.50378149271E+02 -0.30438835843E+02  0.27275904479E+03  0.32831536237E+03  0.17300000000E+03 0. -1.
         -6    1    1    2    0  501 -0.50378149271E+02  0.30438835843E+02  0.16356112421E+03  0.24524624769E+03  0.17300000000E+03 0.  1.
<mgrwt>
<rscale>  2 0.18273883E+03</rscale>
<asrwt>0</asrwt>
<pdfrwt beam="1">  1        2 0.77683211E-01 0.18273883E+03</pdfrwt>
<pdfrwt beam="2">  1       -2 0.10557034E-01 0.18273883E+03</pdfrwt>
<totfact> 0.36777182E+03</totfact>
</mgrwt>
</event>
<event>
 4    3  0.7748294E-001  0.2248524E+03  0.7546771E-02  0.1130316E+00
         -1   -1    0    0    0  501 -0.00000000000E+00  0.00000000000E+00  0.11645771597E+03  0.11645771597E+03  0.00000000000E+00 0. -1.
          1   -1    0    0  502    0  0.00000000000E+00 -0.00000000000E+00 -0.48317760533E+03  0.48317760533E+03  0.00000000000E+00 0.  1.
          6    1    1    2  502    0  0.55567576991E+02 -0.13244559085E+03 -0.87842602555E+02  0.24140197383E+03  0.17300000000E+03 0. -1.
         -6    1    1    2    0  501 -0.55567576991E+02  0.13244559085E+03 -0.27887728680E+03  0.35823334747E+03  0.17300000000E+03 0.  1.
<mgrwt>
<rscale>  2 0.22485237E+03</rscale>
<asrwt>0</asrwt>
<pdfrwt beam="1">  1        1 0.74335016E-01 0.22485237E+03</pdfrwt>
<pdfrwt beam="2">  1       -1 0.17916572E-01 0.22485237E+03</pdfrwt>
<totfact> 0.11404885E+03</totfact>
</mgrwt>
</event>
<event>
 4    3  0.7748294E-001  0.2796300E+03  0.7546771E-02  0.1095891E+00
         -1   -1    0    0    0  501 -0.00000000000E+00  0.00000000000E+00  0.50756213189E+03  0.50756213189E+03  0.00000000000E+00 0. -1.
          1   -1    0    0  502    0  0.00000000000E+00 -0.00000000000E+00 -0.19865605914E+03  0.19865605914E+03  0.00000000000E+00 0.  1.
          6    1    1    2  502    0 -0.10128696050E+03 -0.19494846917E+03 -0.12858572842E+02  0.27992552026E+03  0.17300000000E+03 0.  1.
         -6    1    1    2    0  501  0.10128696050E+03  0.19494846917E+03  0.32176464559E+03  0.42629267077E+03  0.17300000000E+03 0. -1.
<mgrwt>
<rscale>  2 0.27963003E+03</rscale>
<asrwt>0</asrwt>
<pdfrwt beam="1">  1        1 0.30562471E-01 0.27963003E+03</pdfrwt>
<pdfrwt beam="2">  1       -1 0.78086481E-01 0.27963003E+03</pdfrwt>
<totfact> 0.25511851E+02</totfact>
</mgrwt>
</event>
<event>
 4    3  0.7748294E-001  0.3440528E+03  0.7546771E-02  0.1065083E+00
          1   -1    0    0  502    0  0.00000000000E+00  0.00000000000E+00  0.13677665385E+04  0.13677665385E+04  0.00000000000E+00 0.  1.
         -1   -1    0    0    0  501 -0.00000000000E+00 -0.00000000000E+00 -0.93497699711E+02  0.93497699711E+02  0.00000000000E+00 0. -1.
          6    1    1    2  502    0  0.26614052432E+02  0.29620099559E+03  0.83638439001E+03  0.90438442348E+03  0.17300000000E+03 0.  1.
         -6    1    1    2    0  501 -0.26614052432E+02 -0.29620099559E+03  0.43788444877E+03  0.55687981472E+03  0.17300000000E+03 0. -1.
<mgrwt>
<rscale>  2 0.34405281E+03</rscale>
<asrwt>0</asrwt>
<pdfrwt beam="1">  1        1 0.21042561E+00 0.34405281E+03</pdfrwt>
<pdfrwt beam="2">  1       -1 0.14384262E-01 0.34405281E+03</pdfrwt>
<totfact> 0.30001694E+02</totfact>
</mgrwt>
</event>
<event>
 4    3  0.7748294E-001  0.2411941E+03  0.7546771E-02  0.1119000E+00
         -2   -1    0    0    0  501 -0.00000000000E+00  0.00000000000E+00  0.10836500105E+04  0.10836500105E+04  0.00000000000E+00 0.  1.
          2   -1    0    0  502    0  0.00000000000E+00 -0.00000000000E+00 -0.60049378672E+02  0.60049378672E+02  0.00000000000E+00 0. -1.
          6    1    1    2  502    0  0.16054154953E+03 -0.49719172554E+02  0.69798430693E+03  0.73848268630E+03  0.17300000000E+03 0.  1.
         -6    1    1    2    0  501 -0.16054154953E+03  0.49719172554E+02  0.32561632488E+03  0.40521670285E+03  0.17300000000E+03 0. -1.
<mgrwt>
<rscale>  2 0.24119408E+03</rscale>
<asrwt>0</asrwt>
<pdfrwt beam="1">  1        2 0.92383668E-02 0.24119408E+03</pdfrwt>
<pdfrwt beam="2">  1       -2 0.16671537E+00 0.24119408E+03</pdfrwt>
<totfact> 0.16998758E+02</totfact>
</mgrwt>
</event>
<event>
 4    3  0.7748294E-001  0.2212846E+03  0.7546771E-02  0.1132929E+00
         -2   -1    0    0    0  501 -0.00000000000E+00  0.00000000000E+00  0.23312879308E+02  0.23312879308E+02  0.00000000000E+00 0. -1.
          2   -1    0    0  502    0  0.00000000000E+00 -0.00000000000E+00 -0.22940366421E+04  0.22940366421E+04  0.00000000000E+00 0.  1.
          6    1    1    2  502    0  0.73170809152E+02 -0.11697825559E+03 -0.79874901620E+03  0.82883464604E+03  0.17300000000E+03 0. -1.
         -6    1    1    2    0  501 -0.73170809152E+02  0.11697825559E+03 -0.14719747466E+04  0.14885148754E+04  0.17300000000E+03 0.  1.
<mgrwt>
<rscale>  2 0.22128461E+03</rscale>
<asrwt>0</asrwt>
<pdfrwt beam="1">  1        2 0.35292872E+00 0.22128461E+03</pdfrwt>
<pdfrwt beam="2">  1       -2 0.35865968E-02 0.22128461E+03</pdfrwt>
<totfact> 0.16884244E+03</totfact>
</mgrwt>
</event>
<event>
 4    3  0.7748294E-001  0.2132139E+03  0.7546771E-02  0.1139046E+00
          1   -1    0    0  502    0  0.00000000000E+00  0.00000000000E+00  0.85421150401E+03  0.85421150401E+03  0.00000000000E+00 0. -1.
         -1   -1    0    0    0  501 -0.00000000000E+00 -0.00000000000E+00 -0.53911454306E+02  0.53911454306E+02  0.00000000000E+00 0.  1.
          6    1    1    2  502    0  0.33011423149E+02  0.12017236522E+03  0.45161569584E+03  0.49941654773E+03  0.17300000000E+03 0. -1.
         -6    1    1    2    0  501 -0.33011423149E+02 -0.12017236522E+03  0.34868435386E+03  0.40870641058E+03  0.17300000000E+03 0.  1.
<mgrwt>
<rscale>  2 0.21321386E+03</rscale>
<asrwt>0</asrwt>
<pdfrwt beam="1">  1        1 0.13141714E+00 0.21321386E+03</pdfrwt>
<pdfrwt beam="2">  1       -1 0.82940705E-02 0.21321386E+03</pdfrwt>
<totfact> 0.16891487E+03</totfact>
</mgrwt>
</event>
<event>
 4    3  0.7748294E-001  0.1780759E+03  0.7546771E-02  0.1169678E+00
          2   -1    0    0  502    0  0.00000000000E+00  0.00000000000E+00  0.13742676085E+04  0.13742676085E+04  0.00000000000E+00 0.  1.
         -2   -1    0    0    0  501 -0.00000000000E+00 -0.00000000000E+00 -0.49165367908E+02  0.49165367908E+02  0.00000000000E+00 0. -1.
          6    1    1    2  502    0  0.12699501489E+02 -0.40258418136E+02  0.14408696200E+03  0.22906782879E+03  0.17300000000E+03 0. -1.
         -6    1    1    2    0  501 -0.12699501489E+02  0.40258418136E+02  0.11810152786E+04  0.11943651476E+04  0.17300000000E+03 0.  1.
<mgrwt>
<rscale>  2 0.17807588E+03</rscale>
<asrwt>0</asrwt>
<pdfrwt beam="1">  1        2 0.21142576E+00 0.17807588E+03</pdfrwt>
<pdfrwt beam="2">  1       -2 0.75639038E-02 0.17807588E+03</pdfrwt>
<totfact> 0.16531011E+03</totfact>
</mgrwt>
</event>
<event>
 4    3  0.7748294E-001  0.2001703E+03  0.7546771E-02  0.1149595E+00
         -1   -1    0    0    0  501 -0.00000000000E+00  0.00000000000E+00  0.12845687309E+03  0.12845687309E+03  0.00000000000E+00 0.  1.
          1   -1    0    0  502    0  0.00000000000E+00 -0.00000000000E+00 -0.32145888059E+03  0.32145888059E+03  0.00000000000E+00 0. -1.
          6    1    1    2  502    0  0.21700003501E+02  0.98327223091E+02 -0.13525451893E+03  0.24158211408E+03  0.17300000000E+03 0. -1.
         -6    1    1    2    0  501 -0.21700003501E+02 -0.98327223091E+02 -0.57747488565E+02  0.20833363960E+03  0.17300000000E+03 0.  1.
<mgrwt>
<rscale>  2 0.20017026E+03</rscale>
<asrwt>0</asrwt>
<pdfrwt beam="1">  1        1 0.49455212E-01 0.20017026E+03</pdfrwt>
<pdfrwt beam="2">  1       -1 0.19762596E-01 0.20017026E+03</pdfrwt>
<totfact> 0.16379019E+03</totfact>
</mgrwt>
</event>
<event>
 4    3  0.7748294E-001  0.1798313E+03  0.7546771E-02  0.1167966E+00
          2   -1    0    0  502    0  0.00000000000E+00  0.00000000000E+00  0.46825790943E+03  0.46825790943E+03  0.00000000000E+00 0. -1.
         -2   -1    0    0    0  501 -0.00000000000E+00 -0.00000000000E+00 -0.78607733593E+02  0.78607733593E+02  0.00000000000E+00 0.  1.
          6    1    1    2  502    0  0.39155681810E+02  0.29616379774E+02  0.99545505427E+02  0.20554465456E+03  0.17300000000E+03 0.  1.
         -6    1    1    2    0  501 -0.39155681810E+02 -0.29616379774E+02  0.29010467041E+03  0.34132098846E+03  0.17300000000E+03 0. -1.
<mgrwt>
<rscale>  2 0.17983130E+03</rscale>
<asrwt>0</asrwt>
<pdfrwt beam="1">  1        2 0.72039677E-01 0.17983130E+03</pdfrwt>
<pdfrwt beam="2">  1       -2 0.12093498E-01 0.17983130E+03</pdfrwt>
<totfact> 0.32148948E+03</totfact>
</mgrwt>
</event>
<event>
 4    3  0.7748294E-001  0.3440784E+03  0.7546771E-02  0.1065072E+00
         -2   -1    0    0    0  501 -0.00000000000E+00  0.00000000000E+00  0.11992360091E+03  0.11992360091E+03  0.00000000000E+00 0.  1.
          2   -1    0    0  502    0  0.00000000000E+00 -0.00000000000E+00 -0.14476989326E+04  0.14476989326E+04  0.00000000000E+00 0. -1.
          6    1    1    2  502    0  0.92959766513E+02 -0.28252336046E+03 -0.11059476753E+04  0.11582358257E+04  0.17300000000E+03 0. -1.
         -6    1    1    2    0  501 -0.92959766513E+02  0.28252336046E+03 -0.22182765640E+03  0.40938670782E+03  0.17300000000E+03 0.  1.
<mgrwt>
<rscale>  2 0.34407843E+03</rscale>
<asrwt>0</asrwt>
<pdfrwt beam="1">  1        2 0.22272292E+00 0.34407843E+03</pdfrwt>
<pdfrwt beam="2">  1       -2 0.18449784E-01 0.34407843E+03</pdfrwt>
<totfact> 0.35006700E+02</totfact>
</mgrwt>
</event>
<event>
 4    3  0.7748294E-001  0.2742625E+03  0.7546771E-02  0.1098865E+00
          2   -1    0    0  502    0  0.00000000000E+00  0.00000000000E+00  0.31468041357E+04  0.31468041357E+04  0.00000000000E+00 0.  1.
         -2   -1    0    0    0  501 -0.00000000000E+00 -0.00000000000E+00 -0.72401104067E+02  0.72401104067E+02  0.00000000000E+00 0. -1.
          6    1    1    2  502    0  0.21184908819E+03 -0.20269601362E+02  0.28545656860E+04  0.28677107854E+04  0.17300000000E+03 0.  1.
         -6    1    1    2    0  501 -0.21184908819E+03  0.20269601362E+02  0.21983734555E+03  0.35149445431E+03  0.17300000000E+03 0. -1.
<mgrwt>
<rscale>  2 0.27426245E+03</rscale>
<asrwt>0</asrwt>
<pdfrwt beam="1">  1        2 0.48412361E+00 0.27426245E+03</pdfrwt>
<pdfrwt beam="2">  1       -2 0.11138634E-01 0.27426245E+03</pdfrwt>
<totfact> 0.95019911E+01</totfact>
</mgrwt>
</event>
<event>
 4    3  0.7748294E-001  0.1886220E+03  0.7546771E-02  0.1159710E+00
         -2   -1    0    0    0  501 -0.00000000000E+00  0.00000000000E+00  0.37764150459E+02  0.37764150459E+02  0.00000000000E+00 0. -1.
          2   -1    0    0  502    0  0.00000000000E+00 -0.00000000000E+00 -0.97051787509E+03  0.97051787509E+03  0.00000000000E+00 0.  1.
          6    1    1    2  502    0 -0.37018568380E+02 -0.65413288460E+02 -0.55261733847E+03  0.58392139496E+03  0.17300000000E+03 0.  1.
         -6    1    1    2    0  501  0.37018568380E+02  0.65413288460E+02 -0.38013638616E+03  0.42436063059E+03  0.17300000000E+03 0. -1.
<mgrwt>
<rscale>  2 0.18862204E+03</rscale>
<asrwt>0</asrwt>
<pdfrwt beam="1">  1        2 0.14931046E+00 0.18862204E+03</pdfrwt>
<pdfrwt beam="2">  1       -2 0.58098688E-02 0.18862204E+03</pdfrwt>
<totfact> 0.42114209E+03</totfact>
</mgrwt>
</event>
<event>
 4    3  0.7748294E-001  0.1749484E+03  0.7546771E-02  0.1172783E+00
          1   -1    0    0  502    0  0.00000000000E+00  0.00000000000E+00  0.77788281477E+03  0.77788281477E+03  0.00000000000E+00 0.  1.
         -1   -1    0    0    0  501 -0.00000000000E+00 -0.00000000000E+00 -0.51338264971E+02  0.51338264971E+02  0.00000000000E+00 0. -1.
          6    1    1    2  502    0  0.21801062145E+02  0.14236140897E+02  0.56365560123E+03  0.59018182861E+03  0.17300000000E+03 0.  1.
         -6    1    1    2    0  501 -0.21801062145E+02 -0.14236140897E+02  0.16288894857E+03  0.23903925114E+03  0.17300000000E+03 0.  1.
<mgrwt>
<rscale>  2 0.17494843E+03</rscale>
<asrwt>0</asrwt>
<pdfrwt beam="1">  1        1 0.11967427E+00 0.17494843E+03</pdfrwt>
<pdfrwt beam="2">  1       -1 0.78981952E-02 0.17494843E+03</pdfrwt>
<totfact> 0.20963150E+03</totfact>
</mgrwt>
</event>
<event>
 4    3  0.7748294E-001  0.1965448E+03  0.7546771E-02  0.1152687E+00
         -3   -1    0    0    0  501 -0.00000000000E+00  0.00000000000E+00  0.16835518235E+03  0.16835518235E+03  0.00000000000E+00 0. -1.
          3   -1    0    0  502    0  0.00000000000E+00 -0.00000000000E+00 -0.25941881598E+03  0.25941881598E+03  0.00000000000E+00 0.  1.
          6    1    1    2  502    0  0.90835756055E+02 -0.21206388674E+02 -0.11822374838E+03  0.22936150544E+03  0.17300000000E+03 0. -1.
         -6    1    1    2    0  501 -0.90835756055E+02  0.21206388674E+02  0.27160114750E+02  0.19841249288E+03  0.17300000000E+03 0. -1.
<mgrwt>
<rscale>  2 0.19654477E+03</rscale>
<asrwt>0</asrwt>
<pdfrwt beam="1">  1        3 0.39910587E-01 0.19654477E+03</pdfrwt>
<pdfrwt beam="2">  1       -3 0.25900797E-01 0.19654477E+03</pdfrwt>
<totfact> 0.21419091E+02</totfact>
</mgrwt>
</event>
<event>
 4    3  0.7748294E-001  0.2019040E+03  0.7546771E-02  0.1148142E+00
          2   -1    0    0  502    0  0.00000000000E+00  0.00000000000E+00  0.52763905073E+03  0.52763905073E+03  0.00000000000E+00 0.  1.
         -2   -1    0    0    0  501 -0.00000000000E+00 -0.00000000000E+00 -0.78498584484E+02  0.78498584484E+02  0.00000000000E+00 0. -1.
          6    1    1    2  502    0 -0.81041365945E+02 -0.65333927923E+02  0.18649619419E+03  0.27485642721E+03  0.17300000000E+03 0.  1.
         -6    1    1    2    0  501  0.81041365945E+02  0.65333927923E+02  0.26264427206E+03  0.33128120801E+03  0.17300000000E+03 0.  1.
<mgrwt>
<rscale>  2 0.20190400E+03</rscale>
<asrwt>0</asrwt>
<pdfrwt beam="1">  1        2 0.81175236E-01 0.20190400E+03</pdfrwt>
<pdfrwt beam="2">  1       -2 0.12076706E-01 0.20190400E+03</pdfrwt>
<totfact> 0.28326762E+03</totfact>
</mgrwt>
</event>
<event>
 4    3  0.7748294E-001  0.3503218E+03  0.7546771E-02  0.1062483E+00
         -2   -1    0    0    0  501 -0.00000000000E+00  0.00000000000E+00  0.86249976399E+03  0.86249976399E+03  0.00000000000E+00 0. -1.
          2   -1    0    0  502    0  0.00000000000E+00 -0.00000000000E+00 -0.25396726965E+03  0.25396726965E+03  0.00000000000E+00 0.  1.
          6    1    1    2  502    0 -0.30450956173E+03  0.83833768892E+01 -0.65910244185E+02  0.35646811145E+03  0.17300000000E+03 0.  1.
         -6    1    1    2    0  501  0.30450956173E+03 -0.83833768892E+01  0.67444273853E+03  0.75999892220E+03  0.17300000000E+03 0. -1.
<mgrwt>
<rscale>  2 0.35032179E+03</rscale>
<asrwt>0</asrwt>
<pdfrwt beam="1">  1        2 0.39071888E-01 0.35032179E+03</pdfrwt>
<pdfrwt beam="2">  1       -2 0.13269227E+00 0.35032179E+03</pdfrwt>
<totfact> 0.56744391E+01</totfact>
</mgrwt>
</event>
<event>
 4    3  0.7748294E-001  0.1793478E+03  0.7546771E-02  0.1168436E+00
          2   -1    0    0  502    0  0.00000000000E+00  0.00000000000E+00  0.45950152731E+04  0.45950152731E+04  0.00000000000E+00 0.  1.
         -2   -1    0    0    0  501 -0.00000000000E+00 -0.00000000000E+00 -0.13181200329E+02  0.13181200329E+02  0.00000000000E+00 0. -1.
          6    1    1    2  502    0  0.45349207012E+02  0.13418875838E+02  0.71310224712E+03  0.73530975218E+03  0.17300000000E+03 0. -1.
         -6    1    1    2    0  501 -0.45349207012E+02 -0.13418875838E+02  0.38687318257E+04  0.38728867213E+04  0.17300000000E+03 0.  1.
<mgrwt>
<rscale>  2 0.17934775E+03</rscale>
<asrwt>0</asrwt>
<pdfrwt beam="1">  1        2 0.70692415E+00 0.17934775E+03</pdfrwt>
<pdfrwt beam="2">  1       -2 0.20278806E-02 0.17934775E+03</pdfrwt>
<totfact> 0.11006192E+02</totfact>
</mgrwt>
</event>
<event>
 4    3  0.7748294E-001  0.1739877E+03  0.7546771E-02  0.1173752E+00
          2   -1    0    0  502    0  0.00000000000E+00  0.00000000000E+00  0.34668999586E+04  0.34668999586E+04  0.00000000000E+00 0. -1.
         -2   -1    0    0    0  501 -0.00000000000E+00 -0.00000000000E+00 -0.10710222933E+02  0.10710222933E+02  0.00000000000E+00 0.  1.
          6    1    1    2  502    0 -0.12727499486E+02  0.13443265499E+02  0.24754536601E+04  0.24815605038E+04  0.17300000000E+03 0. -1.
         -6    1    1    2    0  501  0.12727499486E+02 -0.13443265499E+02  0.98073607557E+03  0.99604967776E+03  0.17300000000E+03 0.  1.
<mgrwt>
<rscale>  2 0.17398767E+03</rscale>
<asrwt>0</asrwt>
<pdfrwt beam="1">  1        2 0.53336833E+00 0.17398767E+03</pdfrwt>
<pdfrwt beam="2">  1       -2 0.16477294E-02 0.17398767E+03</pdfrwt>
<totfact> 0.11230037E+03</totfact>
</mgrwt>
</event>
<event>
 4    3  0.7748294E-001  0.1744510E+03  0.7546771E-02  0.1173284E+00
          1   -1    0    0  502    0  0.00000000000E+00  0.00000000000E+00  0.27582046162E+03  0.27582046162E+03  0.00000000000E+00 0. -1.
         -1   -1    0    0    0  501 -0.00000000000E+00 -0.00000000000E+00 -0.11244619556E+03  0.11244619556E+03  0.00000000000E+00 0.  1.
          6    1    1    2  502    0 -0.29310315712E+01  0.22260918062E+02  0.10827659821E+03  0.20532160417E+03  0.17300000000E+03 0. -1.
         -6    1    1    2    0  501  0.29310315712E+01 -0.22260918062E+02  0.55097667840E+02  0.18294505301E+03  0.17300000000E+03 0. -1.
<mgrwt>
<rscale>  2 0.17445097E+03</rscale>
<asrwt>0</asrwt>
<pdfrwt beam="1">  1        1 0.42433917E-01 0.17445097E+03</pdfrwt>
<pdfrwt beam="2">  1       -1 0.17299415E-01 0.17445097E+03</pdfrwt>
<totfact> 0.24468481E+03</totfact>
</mgrwt>
</event>
<event>
 4    3  0.7748294E-001  0.2154704E+03  0.7546771E-02  0.1137306E+00
         -1   -1    0    0    0  501 -0.00000000000E+00  0.00000000000E+00  0.67374894493E+02  0.67374894493E+02  0.00000000000E+00 0. -1.
          1   -1    0    0  502    0  0.00000000000E+00 -0.00000000000E+00 -0.70053107491E+03  0.70053107491E+03  0.00000000000E+00 0.  1.
          6    1    1    2  502    0 -0.10792141904E+03 -0.69652313518E+02 -0.26751370395E+03  0.34349826676E+03  0.17300000000E+03 0.  1.
         -6    1    1    2    0  501  0.10792141904E+03  0.69652313518E+02 -0.36564247647E+03  0.42440770265E+03  0.17300000000E+03 0. -1.
<mgrwt>
<rscale>  2 0.21547036E+03</rscale>
<asrwt>0</asrwt>
<pdfrwt beam="1">  1        1 0.10777400E+00 0.21547036E+03</pdfrwt>
<pdfrwt beam="2">  1       -1 0.10365369E-01 0.21547036E+03</pdfrwt>
<totfact> 0.16186916E+03</totfact>
</mgrwt>
</event>
<event>
 4    3  0.7748294E-001  0.2217879E+03  0.7546771E-02  0.1132557E+00
          2   -1    0    0  502    0  0.00000000000E+00  0.00000000000E+00  0.14981399234E+03  0.14981399234E+03  0.00000000000E+00 0.  1.
         -2   -1    0    0    0  501 -0.00000000000E+00 -0.00000000000E+00 -0.32834855368E+03  0.32834855368E+03  0.00000000000E+00 0. -1.
          6    1    1    2  502    0 -0.47895887804E+02 -0.13025687148E+03 -0.90514674116E+02  0.23954702016E+03  0.17300000000E+03 0. -1.
         -6    1    1    2    0  501  0.47895887804E+02  0.13025687148E+03 -0.88019887224E+02  0.23861552587E+03  0.17300000000E+03 0. -1.
<mgrwt>
<rscale>  2 0.22178789E+03</rscale>
<asrwt>0</asrwt>
<pdfrwt beam="1">  1        2 0.23048307E-01 0.22178789E+03</pdfrwt>
<pdfrwt beam="2">  1       -2 0.50515162E-01 0.22178789E+03</pdfrwt>
<totfact> 0.88519631E+02</totfact>
</mgrwt>
</event>
<event>
 4    3  0.7748294E-001  0.2012709E+03  0.7546771E-02  0.1148671E+00
         -2   -1    0    0    0  501 -0.00000000000E+00  0.00000000000E+00  0.43877695508E+02  0.43877695508E+02  0.00000000000E+00 0. -1.
          2   -1    0    0  502    0  0.00000000000E+00 -0.00000000000E+00 -0.99835665434E+03  0.99835665434E+03  0.00000000000E+00 0.  1.
          6    1    1    2  502    0 -0.92847548061E+02 -0.44275255188E+02 -0.33430419698E+03  0.39021694161E+03  0.17300000000E+03 0.  1.
         -6    1    1    2    0  501  0.92847548061E+02  0.44275255188E+02 -0.62017476185E+03  0.65201740824E+03  0.17300000000E+03 0.  1.
<mgrwt>
<rscale>  2 0.20127088E+03</rscale>
<asrwt>0</asrwt>
<pdfrwt beam="1">  1        2 0.15359332E+00 0.20127088E+03</pdfrwt>
<pdfrwt beam="2">  1       -2 0.67504152E-02 0.20127088E+03</pdfrwt>
<totfact> 0.32221911E+03</totfact>
</mgrwt>
</event>
<event>
 4    3  0.7748294E-001  0.2139079E+03  0.7546771E-02  0.1138508E+00
         -1   -1    0    0    0  501 -0.00000000000E+00  0.00000000000E+00  0.10964604321E+04  0.10964604321E+04  0.00000000000E+00 0.  1.
          1   -1    0    0  502    0  0.00000000000E+00 -0.00000000000E+00 -0.41945021237E+02  0.41945021237E+02  0.00000000000E+00 0. -1.
          6    1    1    2  502    0 -0.14544182001E+02 -0.12496424088E+03  0.48661655983E+03  0.53155646081E+03  0.17300000000E+03 0.  1.
         -6    1    1    2    0  501  0.14544182001E+02  0.12496424088E+03  0.56789885107E+03  0.60684899256E+03  0.17300000000E+03 0. -1.
<mgrwt>
<rscale>  2 0.21390791E+03</rscale>
<asrwt>0</asrwt>
<pdfrwt beam="1">  1        1 0.64530810E-02 0.21390791E+03</pdfrwt>
<pdfrwt beam="2">  1       -1 0.16868620E+00 0.21390791E+03</pdfrwt>
<totfact> 0.32196331E+02</totfact>
</mgrwt>
</event>
<event>
 4    3  0.7748294E-001  0.1973151E+03  0.7546771E-02  0.1152024E+00
          1   -1    0    0  502    0  0.00000000000E+00  0.00000000000E+00  0.39538916520E+02  0.39538916520E+02  0.00000000000E+00 0.  1.
         -1   -1    0    0    0  501 -0.00000000000E+00 -0.00000000000E+00 -0.10557857687E+04  0.10557857687E+04  0.00000000000E+00 0. -1.
          6    1    1    2  502    0 -0.61277700206E+02 -0.72451998164E+02 -0.36599788752E+03  0.41579766985E+03  0.17300000000E+03 0.  1.
         -6    1    1    2    0  501  0.61277700206E+02  0.72451998164E+02 -0.65024896464E+03  0.67952701536E+03  0.17300000000E+03 0. -1.
<mgrwt>
<rscale>  2 0.19731510E+03</rscale>
<asrwt>0</asrwt>
<pdfrwt beam="1">  1        1 0.60829105E-02 0.19731510E+03</pdfrwt>
<pdfrwt beam="2">  1       -1 0.16242857E+00 0.19731510E+03</pdfrwt>
<totfact> 0.38739053E+02</totfact>
</mgrwt>
</event>
<event>
 4    3  0.7748294E-001  0.2586676E+03  0.7546771E-02  0.1107946E+00
         -1   -1    0    0    0  501 -0.00000000000E+00  0.00000000000E+00  0.54880826700E+03  0.54880826700E+03  0.00000000000E+00 0.  1.
          1   -1    0    0  502    0  0.00000000000E+00 -0.00000000000E+00 -0.14662216320E+03  0.14662216320E+03  0.00000000000E+00 0. -1.
          6    1    1    2  502    0 -0.19193117612E+03  0.11930416944E+02  0.34382463723E+03  0.43026072605E+03  0.17300000000E+03 0.  1.
         -6    1    1    2    0  501  0.19193117612E+03 -0.11930416944E+02  0.58361466567E+02  0.26516970414E+03  0.17300000000E+03 0. -1.
<mgrwt>
<rscale>  2 0.25866757E+03</rscale>
<asrwt>0</asrwt>
<pdfrwt beam="1">  1        1 0.22557256E-01 0.25866757E+03</pdfrwt>
<pdfrwt beam="2">  1       -1 0.84432040E-01 0.25866757E+03</pdfrwt>
<totfact> 0.31972138E+02</totfact>
</mgrwt>
</event>
<event>
 4    3  0.7748294E-001  0.3237822E+03  0.7546771E-02  0.1073922E+00
          2   -1    0    0  502    0  0.00000000000E+00  0.00000000000E+00  0.25506746356E+03  0.25506746356E+03  0.00000000000E+00 0.  1.
         -2   -1    0    0    0  501 -0.00000000000E+00 -0.00000000000E+00 -0.42098078842E+03  0.42098078842E+03  0.00000000000E+00 0. -1.
          6    1    1    2  502    0  0.25181273747E+03  0.10722059854E+03 -0.13498172573E+03  0.35079192948E+03  0.17300000000E+03 0. -1.
         -6    1    1    2    0  501 -0.25181273747E+03 -0.10722059854E+03 -0.30931599127E+02  0.32525632250E+03  0.17300000000E+03 0.  1.
<mgrwt>
<rscale>  2 0.32378220E+03</rscale>
<asrwt>0</asrwt>
<pdfrwt beam="1">  1        2 0.39241148E-01 0.32378220E+03</pdfrwt>
<pdfrwt beam="2">  1       -2 0.64766275E-01 0.32378220E+03</pdfrwt>
<totfact> 0.29504867E+02</totfact>
</mgrwt>
</event>
<event>
 4    3  0.7748294E-001  0.2411171E+03  0.7546771E-02  0.1119051E+00
         -1   -1    0    0    0  501 -0.00000000000E+00  0.00000000000E+00  0.16497586271E+03  0.16497586271E+03  0.00000000000E+00 0.  1.
          1   -1    0    0  502    0  0.00000000000E+00 -0.00000000000E+00 -0.37720981680E+03  0.37720981680E+03  0.00000000000E+00 0. -1.
          6    1    1    2  502    0 -0.14951945197E+03  0.76500953951E+02 -0.17564181831E+03  0.29830774514E+03  0.17300000000E+03 0. -1.
         -6    1    1    2    0  501  0.14951945197E+03 -0.76500953951E+02 -0.36592135781E+02  0.24387793437E+03  0.17300000000E+03 0.  1.
<mgrwt>
<rscale>  2 0.24111711E+03</rscale>
<asrwt>0</asrwt>
<pdfrwt beam="1">  1        1 0.58032278E-01 0.24111711E+03</pdfrwt>
<pdfrwt beam="2">  1       -1 0.25380902E-01 0.24111711E+03</pdfrwt>
<totfact> 0.88885951E+02</totfact>
</mgrwt>
</event>
<event>
 4    3  0.7748294E-001  0.1967240E+03  0.7546771E-02  0.1152533E+00
         -2   -1    0    0    0  501 -0.00000000000E+00  0.00000000000E+00  0.16741613822E+03  0.16741613822E+03  0.00000000000E+00 0.  1.
          2   -1    0    0  502    0  0.00000000000E+00 -0.00000000000E+00 -0.25556965583E+03  0.25556965583E+03  0.00000000000E+00 0. -1.
          6    1    1    2  502    0  0.33500599862E+02 -0.87458879921E+02 -0.10943480306E+03  0.22511401997E+03  0.17300000000E+03 0. -1.
         -6    1    1    2    0  501 -0.33500599862E+02  0.87458879921E+02  0.21281285444E+02  0.19787177408E+03  0.17300000000E+03 0.  1.
<mgrwt>
<rscale>  2 0.19672403E+03</rscale>
<asrwt>0</asrwt>
<pdfrwt beam="1">  1        2 0.39318408E-01 0.19672403E+03</pdfrwt>
<pdfrwt beam="2">  1       -2 0.25756329E-01 0.19672403E+03</pdfrwt>
<totfact> 0.17372266E+03</totfact>
</mgrwt>
</event>
<event>
 4    3  0.7748294E-001  0.2189739E+03  0.7546771E-02  0.1134650E+00
         -1   -1    0    0    0  501 -0.00000000000E+00  0.00000000000E+00  0.71067818809E+02  0.71067818809E+02  0.00000000000E+00 0.  1.
          1   -1    0    0  502    0  0.00000000000E+00 -0.00000000000E+00 -0.72305615129E+03  0.72305615129E+03  0.00000000000E+00 0. -1.
          6    1    1    2  502    0  0.84091827595E+02 -0.10463801086E+03 -0.42867570850E+03  0.48136515437E+03  0.17300000000E+03 0. -1.
         -6    1    1    2    0  501 -0.84091827595E+02  0.10463801086E+03 -0.22331262398E+03  0.31275881573E+03  0.17300000000E+03 0.  1.
<mgrwt>
<rscale>  2 0.21897385E+03</rscale>
<asrwt>0</asrwt>
<pdfrwt beam="1">  1        1 0.11123941E+00 0.21897385E+03</pdfrwt>
<pdfrwt beam="2">  1       -1 0.10933510E-01 0.21897385E+03</pdfrwt>
<totfact> 0.14230408E+03</totfact>
</mgrwt>
</event>
<event>
 4    3  0.7748294E-001  0.2060367E+03  0.7546771E-02  0.1144743E+00
         -1   -1    0    0    0  501 -0.00000000000E+00  0.00000000000E+00  0.85264958071E+03  0.85264958071E+03  0.00000000000E+00 0. -1.
          1   -1    0    0  502    0  0.00000000000E+00 -0.00000000000E+00 -0.58954185216E+02  0.58954185216E+02  0.00000000000E+00 0.  1.
          6    1    1    2  502    0 -0.13810218493E+02  0.11104688436E+03  0.21711406504E+03  0.29931530181E+03  0.17300000000E+03 0.  1.
         -6    1    1    2    0  501  0.13810218493E+02 -0.11104688436E+03  0.57658133045E+03  0.61228846411E+03  0.17300000000E+03 0. -1.
<mgrwt>
<rscale>  2 0.20603673E+03</rscale>
<asrwt>0</asrwt>
<pdfrwt beam="1">  1        1 0.90698752E-02 0.20603673E+03</pdfrwt>
<pdfrwt beam="2">  1       -1 0.13117685E+00 0.20603673E+03</pdfrwt>
<totfact> 0.39070000E+02</totfact>
</mgrwt>
</event>
<event>
 4    3  0.7748294E-001  0.2044991E+03  0.7546771E-02  0.1145998E+00
          1   -1    0    0  502    0  0.00000000000E+00  0.00000000000E+00  0.28781666750E+03  0.28781666750E+03  0.00000000000E+00 0. -1.
         -1   -1    0    0    0  501 -0.00000000000E+00 -0.00000000000E+00 -0.18399853489E+03  0.18399853489E+03  0.00000000000E+00 0.  1.
          6    1    1    2  502    0 -0.89988373166E+02 -0.61586990030E+02 -0.56279161884E+02  0.21210188285E+03  0.17300000000E+03 0.  1.
         -6    1    1    2    0  501  0.89988373166E+02  0.61586990030E+02  0.16009729449E+03  0.25971331955E+03  0.17300000000E+03 0. -1.
<mgrwt>
<rscale>  2 0.20449906E+03</rscale>
<asrwt>0</asrwt>
<pdfrwt beam="1">  1        1 0.44279488E-01 0.20449906E+03</pdfrwt>
<pdfrwt beam="2">  1       -1 0.28307467E-01 0.20449906E+03</pdfrwt>
<totfact> 0.10403705E+03</totfact>
</mgrwt>
</event>
<event>
 4    3  0.7748294E-001  0.1838267E+03  0.7546771E-02  0.1164150E+00
         -1   -1    0    0    0  501 -0.00000000000E+00  0.00000000000E+00  0.70025214629E+02  0.70025214629E+02  0.00000000000E+00 0.  1.
          1   -1    0    0  502    0  0.00000000000E+00 -0.00000000000E+00 -0.49563988127E+03  0.49563988127E+03  0.00000000000E+00 0. -1.
          6    1    1    2  502    0  0.18844950742E+02 -0.59229559064E+02 -0.16688399635E+03  0.24827915957E+03  0.17300000000E+03 0.  1.
         -6    1    1    2    0  501 -0.18844950742E+02  0.59229559064E+02 -0.25873067028E+03  0.31738593633E+03  0.17300000000E+03 0. -1.
<mgrwt>
<rscale>  2 0.18382675E+03</rscale>
<asrwt>0</asrwt>
<pdfrwt beam="1">  1        1 0.76252289E-01 0.18382675E+03</pdfrwt>
<pdfrwt beam="2">  1       -1 0.10773110E-01 0.18382675E+03</pdfrwt>
<totfact> 0.24481484E+03</totfact>
</mgrwt>
</event>
<event>
 4    3  0.7748294E-001  0.2292697E+03  0.7546771E-02  0.1127155E+00
          2   -1    0    0  502    0  0.00000000000E+00  0.00000000000E+00  0.14766405249E+03  0.14766405249E+03  0.00000000000E+00 0.  1.
         -2   -1    0    0    0  501 -0.00000000000E+00 -0.00000000000E+00 -0.35761087193E+03  0.35761087193E+03  0.00000000000E+00 0. -1.
          6    1    1    2  502    0  0.15041587104E+03  0.32652424376E+01 -0.12206452537E+03  0.25973899288E+03  0.17300000000E+03 0.  1.
         -6    1    1    2    0  501 -0.15041587104E+03 -0.32652424376E+01 -0.87882294067E+02  0.24553593154E+03  0.17300000000E+03 0. -1.
<mgrwt>
<rscale>  2 0.22926970E+03</rscale>
<asrwt>0</asrwt>
<pdfrwt beam="1">  1        2 0.22717547E-01 0.22926970E+03</pdfrwt>
<pdfrwt beam="2">  1       -2 0.55017056E-01 0.22926970E+03</pdfrwt>
<totfact> 0.75783563E+02</totfact>
</mgrwt>
</event>
<event>
 4    3  0.7748294E-001  0.2382225E+03  0.7546771E-02  0.1120983E+00
          2   -1    0    0  502    0  0.00000000000E+00  0.00000000000E+00  0.14690916633E+04  0.14690916633E+04  0.00000000000E+00 0.  1.
         -2   -1    0    0    0  501 -0.00000000000E+00 -0.00000000000E+00 -0.66278146316E+02  0.66278146316E+02  0.00000000000E+00 0. -1.
          6    1    1    2  502    0  0.53722802236E+02  0.15470886279E+03  0.11972408569E+04  0.12207111211E+04  0.17300000000E+03 0.  1.
         -6    1    1    2    0  501 -0.53722802236E+02 -0.15470886279E+03  0.20557266013E+03  0.31465868858E+03  0.17300000000E+03 0. -1.
<mgrwt>
<rscale>  2 0.23822253E+03</rscale>
<asrwt>0</asrwt>
<pdfrwt beam="1">  1        2 0.22601408E+00 0.23822253E+03</pdfrwt>
<pdfrwt beam="2">  1       -2 0.10196639E-01 0.23822253E+03</pdfrwt>
<totfact> 0.91636744E+02</totfact>
</mgrwt>
</event>
<event>
 4    3  0.7748294E-001  0.2082700E+03  0.7546771E-02  0.1142943E+00
         -2   -1    0    0    0  501 -0.00000000000E+00  0.00000000000E+00  0.39302431005E+02  0.39302431005E+02  0.00000000000E+00 0. -1.
          2   -1    0    0  502    0  0.00000000000E+00 -0.00000000000E+00 -0.11651028985E+04  0.11651028985E+04  0.00000000000E+00 0.  1.
          6    1    1    2  502    0 -0.11428781239E+03 -0.19639098262E+02 -0.42460493478E+03  0.47293313363E+03  0.17300000000E+03 0. -1.
         -6    1    1    2    0  501  0.11428781239E+03  0.19639098262E+02 -0.70119553269E+03  0.73147219585E+03  0.17300000000E+03 0.  1.
<mgrwt>
<rscale>  2 0.20827001E+03</rscale>
<asrwt>0</asrwt>
<pdfrwt beam="1">  1        2 0.17924657E+00 0.20827001E+03</pdfrwt>
<pdfrwt beam="2">  1       -2 0.60465289E-02 0.20827001E+03</pdfrwt>
<totfact> 0.30475044E+03</totfact>
</mgrwt>
</event>
<event>
 4    3  0.7748294E-001  0.1885984E+03  0.7546771E-02  0.1159732E+00
          2   -1    0    0  502    0  0.00000000000E+00  0.00000000000E+00  0.30857502493E+04  0.30857502493E+04  0.00000000000E+00 0. -1.
         -2   -1    0    0    0  501 -0.00000000000E+00 -0.00000000000E+00 -0.11531989563E+02  0.11531989563E+02  0.00000000000E+00 0.  1.
          6    1    1    2  502    0 -0.73134838055E+01  0.74745280869E+02  0.15047927551E+04  0.15165653893E+04  0.17300000000E+03 0. -1.
         -6    1    1    2    0  501  0.73134838055E+01 -0.74745280869E+02  0.15694255046E+04  0.15807168496E+04  0.17300000000E+03 0. -1.
<mgrwt>
<rscale>  2 0.18859837E+03</rscale>
<asrwt>0</asrwt>
<pdfrwt beam="1">  1        2 0.47473015E+00 0.18859837E+03</pdfrwt>
<pdfrwt beam="2">  1       -2 0.17741547E-02 0.18859837E+03</pdfrwt>
<totfact> 0.17312482E+03</totfact>
</mgrwt>
</event>
<event>
 4    3  0.7748294E-001  0.1927668E+03  0.7546771E-02  0.1155989E+00
         -2   -1    0    0    0  501 -0.00000000000E+00  0.00000000000E+00  0.19119549157E+02  0.19119549157E+02  0.00000000000E+00 0.  1.
          2   -1    0    0  502    0  0.00000000000E+00 -0.00000000000E+00 -0.20288780394E+04  0.20288780394E+04  0.00000000000E+00 0. -1.
          6    1    1    2  502    0  0.46598368100E+02  0.71124082974E+02 -0.79483148736E+03  0.81787293413E+03  0.17300000000E+03 0.  1.
         -6    1    1    2    0  501 -0.46598368100E+02 -0.71124082974E+02 -0.12149270029E+04  0.12301246545E+04  0.17300000000E+03 0. -1.
<mgrwt>
<rscale>  2 0.19276681E+03</rscale>
<asrwt>0</asrwt>
<pdfrwt beam="1">  1        2 0.31213513E+00 0.19276681E+03</pdfrwt>
<pdfrwt beam="2">  1       -2 0.29414687E-02 0.19276681E+03</pdfrwt>
<totfact> 0.31327798E+03</totfact>
</mgrwt>
</event>
<event>
 4    3  0.7748294E-001  0.2576711E+03  0.7546771E-02  0.1108551E+00
          2   -1    0    0  502    0  0.00000000000E+00  0.00000000000E+00  0.51498307323E+03  0.51498307323E+03  0.00000000000E+00 0.  1.
         -2   -1    0    0    0  501 -0.00000000000E+00 -0.00000000000E+00 -0.15372632167E+03  0.15372632167E+03  0.00000000000E+00 0. -1.
          6    1    1    2  502    0 -0.10158733675E+03 -0.16169546729E+03  0.46331159552E+02  0.26180333740E+03  0.17300000000E+03 0. -1.
         -6    1    1    2    0  501  0.10158733675E+03  0.16169546729E+03  0.31492559201E+03  0.40690605750E+03  0.17300000000E+03 0.  1.
<mgrwt>
<rscale>  2 0.25767113E+03</rscale>
<asrwt>0</asrwt>
<pdfrwt beam="1">  1        2 0.79228164E-01 0.25767113E+03</pdfrwt>
<pdfrwt beam="2">  1       -2 0.23650204E-01 0.25767113E+03</pdfrwt>
<totfact> 0.94601735E+02</totfact>
</mgrwt>
</event>
<event>
 4    3  0.7748294E-001  0.1787006E+03  0.7546771E-02  0.1169067E+00
         -2   -1    0    0    0  501 -0.00000000000E+00  0.00000000000E+00  0.95628355184E+02  0.95628355184E+02  0.00000000000E+00 0.  1.
          2   -1    0    0  502    0  0.00000000000E+00 -0.00000000000E+00 -0.13690099810E+04  0.13690099810E+04  0.00000000000E+00 0. -1.
          6    1    1    2  502    0  0.36909168744E+02 -0.25350235312E+02  0.78925194443E-01  0.17870066423E+03  0.17300000000E+03 0.  1.
         -6    1    1    2    0  501 -0.36909168744E+02  0.25350235312E+02 -0.12734605511E+04  0.12859376720E+04  0.17300000000E+03 0. -1.
<mgrwt>
<rscale>  2 0.17870065E+03</rscale>
<asrwt>0</asrwt>
<pdfrwt beam="1">  1        2 0.21061690E+00 0.17870065E+03</pdfrwt>
<pdfrwt beam="2">  1       -2 0.14712056E-01 0.17870065E+03</pdfrwt>
<totfact> 0.57748213E+02</totfact>
</mgrwt>
</event>
<event>
 4    3  0.7748294E-001  0.1781876E+03  0.7546771E-02  0.1169569E+00
         -1   -1    0    0    0  501 -0.00000000000E+00  0.00000000000E+00  0.55376796102E+03  0.55376796102E+03  0.00000000000E+00 0. -1.
          1   -1    0    0  502    0  0.00000000000E+00 -0.00000000000E+00 -0.74964661652E+02  0.74964661652E+02  0.00000000000E+00 0.  1.
          6    1    1    2  502    0 -0.39668290885E+02  0.15756187952E+02  0.86955107097E+02  0.19827259370E+03  0.17300000000E+03 0.  1.
         -6    1    1    2    0  501  0.39668290885E+02 -0.15756187952E+02  0.39184819227E+03  0.43046002898E+03  0.17300000000E+03 0. -1.
<mgrwt>
<rscale>  2 0.17818763E+03</rscale>
<asrwt>0</asrwt>
<pdfrwt beam="1">  1        1 0.11533025E-01 0.17818763E+03</pdfrwt>
<pdfrwt beam="2">  1       -1 0.85195068E-01 0.17818763E+03</pdfrwt>
<totfact> 0.75296342E+02</totfact>
</mgrwt>
</event>
<event>
 4    3  0.7748294E-001  0.1833121E+03  0.7546771E-02  0.1164636E+00
          2   -1    0    0  502    0  0.00000000000E+00  0.00000000000E+00  0.72626696431E+03  0.72626696431E+03  0.00000000000E+00 0. -1.
         -2   -1    0    0    0  501 -0.00000000000E+00 -0.00000000000E+00 -0.64869519579E+02  0.64869519579E+02  0.00000000000E+00 0.  1.
          6    1    1    2  502    0 -0.38893540552E+02  0.46493076206E+02  0.54251969581E+03  0.57265254210E+03  0.17300000000E+03 0. -1.
         -6    1    1    2    0  501  0.38893540552E+02 -0.46493076206E+02  0.11887774893E+03  0.21848394179E+03  0.17300000000E+03 0.  1.
<mgrwt>
<rscale>  2 0.18331207E+03</rscale>
<asrwt>0</asrwt>
<pdfrwt beam="1">  1        2 0.11173337E+00 0.18331207E+03</pdfrwt>
<pdfrwt beam="2">  1       -2 0.99799266E-02 0.18331207E+03</pdfrwt>
<totfact> 0.26403557E+03</totfact>
</mgrwt>
</event>
<event>
 4    3  0.7748294E-001  0.2073307E+03  0.7546771E-02  0.1143697E+00
          2   -1    0    0  502    0  0.00000000000E+00  0.00000000000E+00  0.15264488093E+03  0.15264488093E+03  0.00000000000E+00 0.  1.
         -2   -1    0    0    0  501 -0.00000000000E+00 -0.00000000000E+00 -0.28253911605E+03  0.28253911605E+03  0.00000000000E+00 0. -1.
          6    1    1    2  502    0 -0.64346455660E+02 -0.94427415645E+02 -0.77439079745E+02  0.22132061416E+03  0.17300000000E+03 0.  1.
         -6    1    1    2    0  501  0.64346455660E+02  0.94427415645E+02 -0.52455155374E+02  0.21386338281E+03  0.17300000000E+03 0.  1.
<mgrwt>
<rscale>  2 0.20733066E+03</rscale>
<asrwt>0</asrwt>
<pdfrwt beam="1">  1        2 0.23483828E-01 0.20733066E+03</pdfrwt>
<pdfrwt beam="2">  1       -2 0.43467556E-01 0.20733066E+03</pdfrwt>
<totfact> 0.11633658E+03</totfact>
</mgrwt>
</event>
<event>
 4    3  0.7748294E-001  0.1740031E+03  0.7546771E-02  0.1173736E+00
         -1   -1    0    0    0  501 -0.00000000000E+00  0.00000000000E+00  0.26076372227E+03  0.26076372227E+03  0.00000000000E+00 0.  1.
          1   -1    0    0  502    0  0.00000000000E+00 -0.00000000000E+00 -0.11902613725E+03  0.11902613725E+03  0.00000000000E+00 0. -1.
          6    1    1    2  502    0 -0.13807908066E+02  0.12547322985E+02  0.41141990557E+02  0.17880088654E+03  0.17300000000E+03 0. -1.
         -6    1    1    2    0  501  0.13807908066E+02 -0.12547322985E+02  0.10059559446E+03  0.20098897299E+03  0.17300000000E+03 0.  1.
<mgrwt>
<rscale>  2 0.17400314E+03</rscale>
<asrwt>0</asrwt>
<pdfrwt beam="1">  1        1 0.18311713E-01 0.17400314E+03</pdfrwt>
<pdfrwt beam="2">  1       -1 0.40117496E-01 0.17400314E+03</pdfrwt>
<totfact> 0.17340033E+03</totfact>
</mgrwt>
</event>
<event>
 4    3  0.7748294E-001  0.1814319E+03  0.7546771E-02  0.1166424E+00
         -1   -1    0    0    0  501 -0.00000000000E+00  0.00000000000E+00  0.94368327851E+02  0.94368327851E+02  0.00000000000E+00 0.  1.
          1   -1    0    0  502    0  0.00000000000E+00 -0.00000000000E+00 -0.40206946313E+03  0.40206946313E+03  0.00000000000E+00 0. -1.
          6    1    1    2  502    0 -0.29193869725E+02  0.46219798625E+02 -0.63518433767E+02  0.19222940265E+03  0.17300000000E+03 0.  1.
         -6    1    1    2    0  501  0.29193869725E+02 -0.46219798625E+02 -0.24418270151E+03  0.30420838834E+03  0.17300000000E+03 0. -1.
<mgrwt>
<rscale>  2 0.18143195E+03</rscale>
<asrwt>0</asrwt>
<pdfrwt beam="1">  1        1 0.61856842E-01 0.18143195E+03</pdfrwt>
<pdfrwt beam="2">  1       -1 0.14518204E-01 0.18143195E+03</pdfrwt>
<totfact> 0.20144971E+03</totfact>
</mgrwt>
</event>
<event>
 4    3  0.7748294E-001  0.2018013E+03  0.7546771E-02  0.1148228E+00
          2   -1    0    0  502    0  0.00000000000E+00  0.00000000000E+00  0.49351703623E+03  0.49351703623E+03  0.00000000000E+00 0.  1.
         -2   -1    0    0    0  501 -0.00000000000E+00 -0.00000000000E+00 -0.10100881457E+03  0.10100881457E+03  0.00000000000E+00 0. -1.
          6    1    1    2  502    0  0.85230040328E+02  0.59418792295E+02  0.69066168637E+02  0.21329296356E+03  0.17300000000E+03 0. -1.
         -6    1    1    2    0  501 -0.85230040328E+02 -0.59418792295E+02  0.32344205303E+03  0.38123288725E+03  0.17300000000E+03 0.  1.
<mgrwt>
<rscale>  2 0.20180127E+03</rscale>
<asrwt>0</asrwt>
<pdfrwt beam="1">  1        2 0.75925696E-01 0.20180127E+03</pdfrwt>
<pdfrwt beam="2">  1       -2 0.15539818E-01 0.20180127E+03</pdfrwt>
<totfact> 0.20221733E+03</totfact>
</mgrwt>
</event>
<event>
 4    3  0.7748294E-001  0.2949810E+03  0.7546771E-02  0.1087777E+00
          2   -1    0    0  502    0  0.00000000000E+00  0.00000000000E+00  0.56566634773E+03  0.56566634773E+03  0.00000000000E+00 0.  1.
         -2   -1    0    0    0  501 -0.00000000000E+00 -0.00000000000E+00 -0.16213407037E+03  0.16213407037E+03  0.00000000000E+00 0. -1.
          6    1    1    2  502    0  0.13455251572E+03  0.19743462854E+03  0.11938784674E+03  0.31822518754E+03  0.17300000000E+03 0. -1.
         -6    1    1    2    0  501 -0.13455251572E+03 -0.19743462854E+03  0.28414443062E+03  0.40957523056E+03  0.17300000000E+03 0.  1.
<mgrwt>
<rscale>  2 0.29498104E+03</rscale>
<asrwt>0</asrwt>
<pdfrwt beam="1">  1        2 0.87025591E-01 0.29498104E+03</pdfrwt>
<pdfrwt beam="2">  1       -2 0.24943703E-01 0.29498104E+03</pdfrwt>
<totfact> 0.77365807E+02</totfact>
</mgrwt>
</event>
<event>
 4    3  0.7748294E-001  0.2347638E+03  0.7546771E-02  0.1123331E+00
          2   -1    0    0  502    0  0.00000000000E+00  0.00000000000E+00  0.40970018364E+02  0.40970018364E+02  0.00000000000E+00 0. -1.
         -2   -1    0    0    0  501 -0.00000000000E+00 -0.00000000000E+00 -0.13967557745E+04  0.13967557745E+04  0.00000000000E+00 0.  1.
          6    1    1    2  502    0  0.12086279000E+03  0.10284560581E+03 -0.53982113814E+03  0.58866025331E+03  0.17300000000E+03 0.  1.
         -6    1    1    2    0  501 -0.12086279000E+03 -0.10284560581E+03 -0.81596461804E+03  0.84906553960E+03  0.17300000000E+03 0. -1.
<mgrwt>
<rscale>  2 0.23476378E+03</rscale>
<asrwt>0</asrwt>
<pdfrwt beam="1">  1        2 0.63030804E-02 0.23476378E+03</pdfrwt>
<pdfrwt beam="2">  1       -2 0.21488548E+00 0.23476378E+03</pdfrwt>
<totfact> 0.13485774E+02</totfact>
</mgrwt>
</event>
<event>
 4    3  0.7748294E-001  0.1853837E+03  0.7546771E-02  0.1162692E+00
          2   -1    0    0  502    0  0.00000000000E+00  0.00000000000E+00  0.17816744789E+04  0.17816744789E+04  0.00000000000E+00 0.  1.
         -2   -1    0    0    0  501 -0.00000000000E+00 -0.00000000000E+00 -0.25589485704E+02  0.25589485704E+02  0.00000000000E+00 0. -1.
          6    1    1    2  502    0 -0.47668139854E+02 -0.46538664762E+02  0.13264165594E+04  0.13393087724E+04  0.17300000000E+03 0.  1.
         -6    1    1    2    0  501  0.47668139854E+02  0.46538664762E+02  0.42966843380E+03  0.46795519217E+03  0.17300000000E+03 0.  1.
<mgrwt>
<rscale>  2 0.18538365E+03</rscale>
<asrwt>0</asrwt>
<pdfrwt beam="1">  1        2 0.27410367E+00 0.18538365E+03</pdfrwt>
<pdfrwt beam="2">  1       -2 0.39368454E-02 0.18538365E+03</pdfrwt>
<totfact> 0.27268112E+03</totfact>
</mgrwt>
</event>
<event>
 4    3  0.7748294E-001  0.2105792E+03  0.7546771E-02  0.1141108E+00
         -3   -1    0    0    0  501 -0.00000000000E+00  0.00000000000E+00  0.54482527383E+03  0.54482527383E+03  0.00000000000E+00 0. -1.
          3   -1    0    0  502    0  0.00000000000E+00 -0.00000000000E+00 -0.10233368280E+03  0.10233368280E+03  0.00000000000E+00 0.  1.
          6    1    1    2  502    0 -0.11969801564E+03 -0.93276133257E+01  0.36762947867E+03  0.42366856493E+03  0.17300000000E+03 0. -1.
         -6    1    1    2    0  501  0.11969801564E+03  0.93276133257E+01  0.74862112359E+02  0.22349039171E+03  0.17300000000E+03 0.  1.
<mgrwt>
<rscale>  2 0.21057925E+03</rscale>
<asrwt>0</asrwt>
<pdfrwt beam="1">  1        3 0.15743644E-01 0.21057925E+03</pdfrwt>
<pdfrwt beam="2">  1       -3 0.83819271E-01 0.21057925E+03</pdfrwt>
<totfact> 0.11270774E+02</totfact>
</mgrwt>
</event>
<event>
 4    3  0.7748294E-001  0.1844607E+03  0.7546771E-02  0.1163554E+00
         -2   -1    0    0    0  501 -0.00000000000E+00  0.00000000000E+00  0.44598350105E+02  0.44598350105E+02  0.00000000000E+00 0. -1.
          2   -1    0    0  502    0  0.00000000000E+00 -0.00000000000E+00 -0.15382299118E+04  0.15382299118E+04  0.00000000000E+00 0.  1.
          6    1    1    2  502    0 -0.44278682955E+02  0.46218362553E+02 -0.13086730898E+04  0.13216092444E+04  0.17300000000E+03 0.  1.
         -6    1    1    2    0  501  0.44278682955E+02 -0.46218362553E+02 -0.18495847188E+03  0.26121901754E+03  0.17300000000E+03 0. -1.
<mgrwt>
<rscale>  2 0.18446067E+03</rscale>
<asrwt>0</asrwt>
<pdfrwt beam="1">  1        2 0.23665074E+00 0.18446067E+03</pdfrwt>
<pdfrwt beam="2">  1       -2 0.68612852E-02 0.18446067E+03</pdfrwt>
<totfact> 0.15723373E+03</totfact>
</mgrwt>
</event>
<event>
 4    3  0.7748294E-001  0.1830182E+03  0.7546771E-02  0.1164914E+00
          2   -1    0    0  502    0  0.00000000000E+00  0.00000000000E+00  0.14518703465E+03  0.14518703465E+03  0.00000000000E+00 0.  1.
         -2   -1    0    0    0  501 -0.00000000000E+00 -0.00000000000E+00 -0.37256017315E+03  0.37256017315E+03  0.00000000000E+00 0. -1.
          6    1    1    2  502    0 -0.56714670932E+02 -0.18711422567E+02  0.46051716831E+02  0.18872316195E+03  0.17300000000E+03 0.  1.
         -6    1    1    2    0  501  0.56714670932E+02  0.18711422567E+02 -0.27342485533E+03  0.32902404585E+03  0.17300000000E+03 0. -1.
<mgrwt>
<rscale>  2 0.18301823E+03</rscale>
<asrwt>0</asrwt>
<pdfrwt beam="1">  1        2 0.22336467E-01 0.18301823E+03</pdfrwt>
<pdfrwt beam="2">  1       -2 0.57316949E-01 0.18301823E+03</pdfrwt>
<totfact> 0.70776856E+02</totfact>
</mgrwt>
</event>
<event>
 4    3  0.7748294E-001  0.1834214E+03  0.7546771E-02  0.1164532E+00
         -2   -1    0    0    0  501 -0.00000000000E+00  0.00000000000E+00  0.45544000842E+02  0.45544000842E+02  0.00000000000E+00 0. -1.
          2   -1    0    0  502    0  0.00000000000E+00 -0.00000000000E+00 -0.79992736654E+03  0.79992736654E+03  0.00000000000E+00 0.  1.
          6    1    1    2  502    0 -0.28580495365E+02  0.53829001789E+02 -0.26023842727E+03  0.31838254534E+03  0.17300000000E+03 0. -1.
         -6    1    1    2    0  501  0.28580495365E+02 -0.53829001789E+02 -0.49414493842E+03  0.52708882204E+03  0.17300000000E+03 0.  1.
<mgrwt>
<rscale>  2 0.18342139E+03</rscale>
<asrwt>0</asrwt>
<pdfrwt beam="1">  1        2 0.12306574E+00 0.18342139E+03</pdfrwt>
<pdfrwt beam="2">  1       -2 0.70067697E-02 0.18342139E+03</pdfrwt>
<totfact> 0.40696603E+03</totfact>
</mgrwt>
</event>
<event>
 4    3  0.7748294E-001  0.2758638E+03  0.7546771E-02  0.1097970E+00
         -2   -1    0    0    0  501 -0.00000000000E+00  0.00000000000E+00  0.13587571512E+03  0.13587571512E+03  0.00000000000E+00 0. -1.
          2   -1    0    0  502    0  0.00000000000E+00 -0.00000000000E+00 -0.71862907473E+03  0.71862907473E+03  0.00000000000E+00 0.  1.
          6    1    1    2  502    0  0.10873364317E+02  0.21460106588E+03 -0.90690145418E+02  0.29038861893E+03  0.17300000000E+03 0. -1.
         -6    1    1    2    0  501 -0.10873364317E+02 -0.21460106588E+03 -0.49206321419E+03  0.56411617092E+03  0.17300000000E+03 0.  1.
<mgrwt>
<rscale>  2 0.27586382E+03</rscale>
<asrwt>0</asrwt>
<pdfrwt beam="1">  1        2 0.11055832E+00 0.27586382E+03</pdfrwt>
<pdfrwt beam="2">  1       -2 0.20903956E-01 0.27586382E+03</pdfrwt>
<totfact> 0.79306410E+02</totfact>
</mgrwt>
</event>
<event>
 4    3  0.7748294E-001  0.1891618E+03  0.7546771E-02  0.1159220E+00
          2   -1    0    0  502    0  0.00000000000E+00  0.00000000000E+00  0.14229421511E+04  0.14229421511E+04  0.00000000000E+00 0.  1.
         -2   -1    0    0    0  501 -0.00000000000E+00 -0.00000000000E+00 -0.25182090139E+02  0.25182090139E+02  0.00000000000E+00 0. -1.
          6    1    1    2  502    0  0.90679998977E+00  0.76500685220E+02  0.72605678835E+03  0.75029370051E+03  0.17300000000E+03 0. -1.
         -6    1    1    2    0  501 -0.90679998977E+00 -0.76500685220E+02  0.67170327257E+03  0.69783054068E+03  0.17300000000E+03 0. -1.
<mgrwt>
<rscale>  2 0.18916178E+03</rscale>
<asrwt>0</asrwt>
<pdfrwt beam="1">  1        2 0.21891411E+00 0.18916178E+03</pdfrwt>
<pdfrwt beam="2">  1       -2 0.38741688E-02 0.18916178E+03</pdfrwt>
<totfact> 0.43060198E+03</totfact>
</mgrwt>
</event>
<event>
 4    3  0.7748294E-001  0.1846276E+03  0.7546771E-02  0.1163398E+00
          2   -1    0    0  502    0  0.00000000000E+00  0.00000000000E+00  0.99971599740E+02  0.99971599740E+02  0.00000000000E+00 0.  1.
         -2   -1    0    0    0  501 -0.00000000000E+00 -0.00000000000E+00 -0.43390113871E+03  0.43390113871E+03  0.00000000000E+00 0. -1.
          6    1    1    2  502    0  0.62149471590E+02 -0.17198958019E+02 -0.29050031596E+03  0.34420603502E+03  0.17300000000E+03 0.  1.
         -6    1    1    2    0  501 -0.62149471590E+02  0.17198958019E+02 -0.43429223010E+02  0.18966670342E+03  0.17300000000E+03 0.  1.
<mgrwt>
<rscale>  2 0.18462763E+03</rscale>
<asrwt>0</asrwt>
<pdfrwt beam="1">  1        2 0.15380246E-01 0.18462763E+03</pdfrwt>
<pdfrwt beam="2">  1       -2 0.66754022E-01 0.18462763E+03</pdfrwt>
<totfact> 0.79238383E+02</totfact>
</mgrwt>
</event>
<event>
 4    3  0.7748294E-001  0.2532557E+03  0.7546771E-02  0.1111264E+00
          2   -1    0    0  502    0  0.00000000000E+00  0.00000000000E+00  0.23149910521E+04  0.23149910521E+04  0.00000000000E+00 0. -1.
         -2   -1    0    0    0  501 -0.00000000000E+00 -0.00000000000E+00 -0.38804099683E+02  0.38804099683E+02  0.00000000000E+00 0.  1.
          6    1    1    2  502    0  0.13687705243E+03 -0.12439493080E+03  0.50868842640E+03  0.56824496605E+03  0.17300000000E+03 0.  1.
         -6    1    1    2    0  501 -0.13687705243E+03  0.12439493080E+03  0.17674985260E+04  0.17855501858E+04  0.17300000000E+03 0. -1.
<mgrwt>
<rscale>  2 0.25325565E+03</rscale>
<asrwt>0</asrwt>
<pdfrwt beam="1">  1        2 0.35615236E+00 0.25325565E+03</pdfrwt>
<pdfrwt beam="2">  1       -2 0.59698633E-02 0.25325565E+03</pdfrwt>
<totfact> 0.75630186E+02</totfact>
</mgrwt>
</event>
<event>
 4    3  0.7748294E-001  0.2834169E+03  0.7546771E-02  0.1093837E+00
         -2   -1    0    0    0  501 -0.00000000000E+00  0.00000000000E+00  0.92498751717E+02  0.92498751717E+02  0.00000000000E+00 0. -1.
          2   -1    0    0  502    0  0.00000000000E+00 -0.00000000000E+00 -0.11357322887E+04  0.11357322887E+04  0.00000000000E+00 0.  1.
          6    1    1    2  502    0 -0.34051557641E+02 -0.22189332458E+03 -0.81956750829E+03  0.86718859351E+03  0.17300000000E+03 0.  1.
         -6    1    1    2    0  501  0.34051557641E+02  0.22189332458E+03 -0.22366602867E+03  0.36104244689E+03  0.17300000000E+03 0. -1.
<mgrwt>
<rscale>  2 0.28341693E+03</rscale>
<asrwt>0</asrwt>
<pdfrwt beam="1">  1        2 0.17472805E+00 0.28341693E+03</pdfrwt>
<pdfrwt beam="2">  1       -2 0.14230577E-01 0.28341693E+03</pdfrwt>
<totfact> 0.81485358E+02</totfact>
</mgrwt>
</event>
<event>
 4    3  0.7748294E-001  0.2112109E+03  0.7546771E-02  0.1140611E+00
         -2   -1    0    0    0  501 -0.00000000000E+00  0.00000000000E+00  0.17144259102E+02  0.17144259102E+02  0.00000000000E+00 0.  1.
          2   -1    0    0  502    0  0.00000000000E+00 -0.00000000000E+00 -0.26020631538E+04  0.26020631538E+04  0.00000000000E+00 0. -1.
          6    1    1    2  502    0  0.12116342071E+03  0.68273609631E+00 -0.12964017798E+04  0.13134944292E+04  0.17300000000E+03 0.  1.
         -6    1    1    2    0  501 -0.12116342071E+03 -0.68273609631E+00 -0.12885171148E+04  0.13057129837E+04  0.17300000000E+03 0.  1.
<mgrwt>
<rscale>  2 0.21121089E+03</rscale>
<asrwt>0</asrwt>
<pdfrwt beam="1">  1        2 0.40031710E+00 0.21121089E+03</pdfrwt>
<pdfrwt beam="2">  1       -2 0.26375803E-02 0.21121089E+03</pdfrwt>
<totfact> 0.18200974E+03</totfact>
</mgrwt>
</event>
<event>
 4    3  0.7748294E-001  0.2231146E+03  0.7546771E-02  0.1131582E+00
          1   -1    0    0  502    0  0.00000000000E+00  0.00000000000E+00  0.21374073160E+03  0.21374073160E+03  0.00000000000E+00 0. -1.
         -1   -1    0    0    0  501 -0.00000000000E+00 -0.00000000000E+00 -0.23383783854E+03  0.23383783854E+03  0.00000000000E+00 0.  1.
          6    1    1    2  502    0  0.97649743067E+02  0.10156598103E+03 -0.24224413984E+02  0.22442580747E+03  0.17300000000E+03 0. -1.
         -6    1    1    2    0  501 -0.97649743067E+02 -0.10156598103E+03  0.41273070450E+01  0.22315276267E+03  0.17300000000E+03 0. -1.
<mgrwt>
<rscale>  2 0.22311459E+03</rscale>
<asrwt>0</asrwt>
<pdfrwt beam="1">  1        1 0.32883190E-01 0.22311459E+03</pdfrwt>
<pdfrwt beam="2">  1       -1 0.35975052E-01 0.22311459E+03</pdfrwt>
<totfact> 0.10031350E+03</totfact>
</mgrwt>
</event>
<event>
 4    3  0.7748294E-001  0.2264262E+03  0.7546771E-02  0.1129181E+00
         -2   -1    0    0    0  501 -0.00000000000E+00  0.00000000000E+00  0.21494241891E+02  0.21494241891E+02  0.00000000000E+00 0.  1.
          2   -1    0    0  502    0  0.00000000000E+00 -0.00000000000E+00 -0.26525708785E+04  0.26525708785E+04  0.00000000000E+00 0. -1.
          6    1    1    2  502    0 -0.55666723537E+02  0.13505945606E+03 -0.17399978106E+04  0.17546684079E+04  0.17300000000E+03 0. -1.
         -6    1    1    2    0  501  0.55666723537E+02 -0.13505945606E+03 -0.89107882597E+03  0.91939671245E+03  0.17300000000E+03 0.  1.
<mgrwt>
<rscale>  2 0.22642624E+03</rscale>
<asrwt>0</asrwt>
<pdfrwt beam="1">  1        2 0.40808777E+00 0.22642624E+03</pdfrwt>
<pdfrwt beam="2">  1       -2 0.33068069E-02 0.22642624E+03</pdfrwt>
<totfact> 0.12167062E+03</totfact>
</mgrwt>
</event>
<event>
 4    3  0.7748294E-001  0.1841693E+03  0.7546771E-02  0.1163828E+00
         -2   -1    0    0    0  501 -0.00000000000E+00  0.00000000000E+00  0.31765985816E+03  0.31765985816E+03  0.00000000000E+00 0. -1.
          2   -1    0    0  502    0  0.00000000000E+00 -0.00000000000E+00 -0.10830441547E+03  0.10830441547E+03  0.00000000000E+00 0.  1.
          6    1    1    2  502    0 -0.59821854329E+02 -0.20265370799E+02  0.79373686240E+02  0.20054555985E+03  0.17300000000E+03 0. -1.
         -6    1    1    2    0  501  0.59821854329E+02  0.20265370799E+02  0.12998175645E+03  0.22541871377E+03  0.17300000000E+03 0. -1.
<mgrwt>
<rscale>  2 0.18416932E+03</rscale>
<asrwt>0</asrwt>
<pdfrwt beam="1">  1        2 0.16662218E-01 0.18416932E+03</pdfrwt>
<pdfrwt beam="2">  1       -2 0.48870747E-01 0.18416932E+03</pdfrwt>
<totfact> 0.13648975E+03</totfact>
</mgrwt>
</event>
<event>
 4    3  0.7748294E-001  0.1880435E+03  0.7546771E-02  0.1160238E+00
          2   -1    0    0  502    0  0.00000000000E+00  0.00000000000E+00  0.34744852137E+02  0.34744852137E+02  0.00000000000E+00 0.  1.
         -2   -1    0    0    0  501 -0.00000000000E+00 -0.00000000000E+00 -0.10189246845E+04  0.10189246845E+04  0.00000000000E+00 0. -1.
          6    1    1    2  502    0 -0.67686813832E+02 -0.29152186630E+02 -0.51024306825E+03  0.54379071659E+03  0.17300000000E+03 0.  1.
         -6    1    1    2    0  501  0.67686813832E+02  0.29152186630E+02 -0.47393676408E+03  0.50987882001E+03  0.17300000000E+03 0.  1.
<mgrwt>
<rscale>  2 0.18804349E+03</rscale>
<asrwt>0</asrwt>
<pdfrwt beam="1">  1        2 0.53453624E-02 0.18804349E+03</pdfrwt>
<pdfrwt beam="2">  1       -2 0.15675763E+00 0.18804349E+03</pdfrwt>
<totfact> 0.40342340E+02</totfact>
</mgrwt>
</event>
<event>
 4    3  0.7748294E-001  0.2105285E+03  0.7546771E-02  0.1141148E+00
         -2   -1    0    0    0  501 -0.00000000000E+00  0.00000000000E+00  0.38242248546E+02  0.38242248546E+02  0.00000000000E+00 0. -1.
          2   -1    0    0  502    0  0.00000000000E+00 -0.00000000000E+00 -0.13107742801E+04  0.13107742801E+04  0.00000000000E+00 0.  1.
          6    1    1    2  502    0 -0.20275778000E+02 -0.11824608259E+03 -0.86579734422E+03  0.89102597295E+03  0.17300000000E+03 0. -1.
         -6    1    1    2    0  501  0.20275778000E+02  0.11824608259E+03 -0.40673468733E+03  0.45799055569E+03  0.17300000000E+03 0. -1.
<mgrwt>
<rscale>  2 0.21052849E+03</rscale>
<asrwt>0</asrwt>
<pdfrwt beam="1">  1        2 0.20165757E+00 0.21052849E+03</pdfrwt>
<pdfrwt beam="2">  1       -2 0.58834232E-02 0.21052849E+03</pdfrwt>
<totfact> 0.26353891E+03</totfact>
</mgrwt>
</event>
<event>
 4    3  0.7748294E-001  0.2535689E+03  0.7546771E-02  0.1111070E+00
         -2   -1    0    0    0  501 -0.00000000000E+00  0.00000000000E+00  0.52322076781E+02  0.52322076781E+02  0.00000000000E+00 0. -1.
          2   -1    0    0  502    0  0.00000000000E+00 -0.00000000000E+00 -0.12891490352E+04  0.12891490352E+04  0.00000000000E+00 0.  1.
          6    1    1    2  502    0  0.15174676990E+03  0.10649454454E+03 -0.76344863749E+03  0.80445695489E+03  0.17300000000E+03 0.  1.
         -6    1    1    2    0  501 -0.15174676990E+03 -0.10649454454E+03 -0.47337832098E+03  0.53701415713E+03  0.17300000000E+03 0. -1.
<mgrwt>
<rscale>  2 0.25356887E+03</rscale>
<asrwt>0</asrwt>
<pdfrwt beam="1">  1        2 0.19833059E+00 0.25356887E+03</pdfrwt>
<pdfrwt beam="2">  1       -2 0.80495515E-02 0.25356887E+03</pdfrwt>
<totfact> 0.16672842E+03</totfact>
</mgrwt>
</event>
<event>
 4    3  0.7748294E-001  0.1997283E+03  0.7546771E-02  0.1149968E+00
         -1   -1    0    0    0  501 -0.00000000000E+00  0.00000000000E+00  0.35212463342E+03  0.35212463342E+03  0.00000000000E+00 0. -1.
          1   -1    0    0  502    0  0.00000000000E+00 -0.00000000000E+00 -0.17077661987E+03  0.17077661987E+03  0.00000000000E+00 0.  1.
          6    1    1    2  502    0 -0.23828697930E+01  0.99783422056E+02  0.24236763715E+03  0.31405967733E+03  0.17300000000E+03 0. -1.
         -6    1    1    2    0  501  0.23828697930E+01 -0.99783422056E+02 -0.61019623595E+02  0.20884157596E+03  0.17300000000E+03 0.  1.
<mgrwt>
<rscale>  2 0.19972834E+03</rscale>
<asrwt>0</asrwt>
<pdfrwt beam="1">  1        1 0.26273326E-01 0.19972834E+03</pdfrwt>
<pdfrwt beam="2">  1       -1 0.54173020E-01 0.19972834E+03</pdfrwt>
<totfact> 0.63552936E+02</totfact>
</mgrwt>
</event>
<event>
 4    3  0.7748294E-001  0.1940424E+03  0.7546771E-02  0.1154865E+00
          3   -1    0    0  502    0  0.00000000000E+00  0.00000000000E+00  0.32478126458E+03  0.32478126458E+03  0.00000000000E+00 0. -1.
         -3   -1    0    0    0  501 -0.00000000000E+00 -0.00000000000E+00 -0.12134504256E+03  0.12134504256E+03  0.00000000000E+00 0.  1.
          6    1    1    2  502    0  0.83303619843E+02  0.27999325578E+02  0.14883191738E+03  0.24454732659E+03  0.17300000000E+03 0. -1.
         -6    1    1    2    0  501 -0.83303619843E+02 -0.27999325578E+02  0.54604304641E+02  0.20157898054E+03  0.17300000000E+03 0.  1.
<mgrwt>
<rscale>  2 0.19404241E+03</rscale>
<asrwt>0</asrwt>
<pdfrwt beam="1">  1        3 0.49966348E-01 0.19404241E+03</pdfrwt>
<pdfrwt beam="2">  1       -3 0.18668468E-01 0.19404241E+03</pdfrwt>
<totfact> 0.24700003E+02</totfact>
</mgrwt>
</event>
<event>
 4    3  0.7748294E-001  0.3243907E+03  0.7546771E-02  0.1073646E+00
         -1   -1    0    0    0  501 -0.00000000000E+00  0.00000000000E+00  0.78969941144E+02  0.78969941144E+02  0.00000000000E+00 0.  1.
          1   -1    0    0  502    0  0.00000000000E+00 -0.00000000000E+00 -0.13375824266E+04  0.13375824266E+04  0.00000000000E+00 0. -1.
          6    1    1    2  502    0  0.17912561145E+02 -0.27382384020E+03 -0.58575076566E+03  0.66957696703E+03  0.17300000000E+03 0.  1.
         -6    1    1    2    0  501 -0.17912561145E+02  0.27382384020E+03 -0.67286171982E+03  0.74697540074E+03  0.17300000000E+03 0. -1.
<mgrwt>
<rscale>  2 0.32439074E+03</rscale>
<asrwt>0</asrwt>
<pdfrwt beam="1">  1        1 0.20578191E+00 0.32439074E+03</pdfrwt>
<pdfrwt beam="2">  1       -1 0.12149222E-01 0.32439074E+03</pdfrwt>
<totfact> 0.41221963E+02</totfact>
</mgrwt>
</event>
<event>
 4    3  0.7748294E-001  0.2070491E+03  0.7546771E-02  0.1143924E+00
         -1   -1    0    0    0  501 -0.00000000000E+00  0.00000000000E+00  0.60745059179E+02  0.60745059179E+02  0.00000000000E+00 0. -1.
          1   -1    0    0  502    0  0.00000000000E+00 -0.00000000000E+00 -0.75212700544E+03  0.75212700544E+03  0.00000000000E+00 0.  1.
          6    1    1    2  502    0 -0.44813768637E+02  0.10455641775E+03 -0.24473916450E+03  0.32057226486E+03  0.17300000000E+03 0.  1.
         -6    1    1    2    0  501  0.44813768637E+02 -0.10455641775E+03 -0.44664278176E+03  0.49229979976E+03  0.17300000000E+03 0. -1.
<mgrwt>
<rscale>  2 0.20704907E+03</rscale>
<asrwt>0</asrwt>
<pdfrwt beam="1">  1        1 0.11571185E+00 0.20704907E+03</pdfrwt>
<pdfrwt beam="2">  1       -1 0.93453933E-02 0.20704907E+03</pdfrwt>
<totfact> 0.17095760E+03</totfact>
</mgrwt>
</event>
<event>
 4    3  0.7748294E-001  0.2429317E+03  0.7546771E-02  0.1117855E+00
          2   -1    0    0  502    0  0.00000000000E+00  0.00000000000E+00  0.13695215939E+04  0.13695215939E+04  0.00000000000E+00 0. -1.
         -2   -1    0    0    0  501 -0.00000000000E+00 -0.00000000000E+00 -0.53320513488E+02  0.53320513488E+02  0.00000000000E+00 0.  1.
          6    1    1    2  502    0  0.14728572632E+03  0.85986702667E+02  0.34651304485E+03  0.42318682454E+03  0.17300000000E+03 0.  1.
         -6    1    1    2    0  501 -0.14728572632E+03 -0.85986702667E+02  0.96968803552E+03  0.99965528281E+03  0.17300000000E+03 0. -1.
<mgrwt>
<rscale>  2 0.24293167E+03</rscale>
<asrwt>0</asrwt>
<pdfrwt beam="1">  1        2 0.21069560E+00 0.24293167E+03</pdfrwt>
<pdfrwt beam="2">  1       -2 0.82031569E-02 0.24293167E+03</pdfrwt>
<totfact> 0.14624519E+03</totfact>
</mgrwt>
</event>
<event>
 4    3  0.7748294E-001  0.1991449E+03  0.7546771E-02  0.1150462E+00
          4   -1    0    0  502    0  0.00000000000E+00  0.00000000000E+00  0.29512580448E+02  0.29512580448E+02  0.00000000000E+00 0. -1.
         -4   -1    0    0    0  501 -0.00000000000E+00 -0.00000000000E+00 -0.13608299695E+04  0.13608299695E+04  0.00000000000E+00 0.  1.
          6    1    1    2  502    0 -0.81422185748E+02  0.55678653370E+02 -0.58786661307E+03  0.62068175383E+03  0.17300000000E+03 0.  1.
         -6    1    1    2    0  501  0.81422185748E+02 -0.55678653370E+02 -0.74345077594E+03  0.76966079607E+03  0.17300000000E+03 0.  1.
<mgrwt>
<rscale>  2 0.19914488E+03</rscale>
<asrwt>0</asrwt>
<pdfrwt beam="1">  1        4 0.45403976E-02 0.19914488E+03</pdfrwt>
<pdfrwt beam="2">  1       -4 0.20935843E+00 0.19914488E+03</pdfrwt>
<totfact> 0.62980364E+01</totfact>
</mgrwt>
</event>
<event>
 4    3  0.7748294E-001  0.2882195E+03  0.7546771E-02  0.1091282E+00
          2   -1    0    0  502    0  0.00000000000E+00  0.00000000000E+00  0.31523693809E+03  0.31523693809E+03  0.00000000000E+00 0. -1.
         -2   -1    0    0    0  501 -0.00000000000E+00 -0.00000000000E+00 -0.26765002234E+03  0.26765002234E+03  0.00000000000E+00 0.  1.
          6    1    1    2  502    0  0.22602610353E+03  0.45317603806E+02 -0.12420208543E+02  0.28848699498E+03  0.17300000000E+03 0.  1.
         -6    1    1    2    0  501 -0.22602610353E+03 -0.45317603806E+02  0.60007124286E+02  0.29439996545E+03  0.17300000000E+03 0.  1.
<mgrwt>
<rscale>  2 0.28821951E+03</rscale>
<asrwt>0</asrwt>
<pdfrwt beam="1">  1        2 0.48497991E-01 0.28821951E+03</pdfrwt>
<pdfrwt beam="2">  1       -2 0.41176926E-01 0.28821951E+03</pdfrwt>
<totfact> 0.58581127E+02</totfact>
</mgrwt>
</event>
<event>
 4    3  0.7748294E-001  0.1805720E+03  0.7546771E-02  0.1167251E+00
          2   -1    0    0  502    0  0.00000000000E+00  0.00000000000E+00  0.15763217975E+04  0.15763217975E+04  0.00000000000E+00 0. -1.
         -2   -1    0    0    0  501 -0.00000000000E+00 -0.00000000000E+00 -0.22787585694E+02  0.22787585694E+02  0.00000000000E+00 0.  1.
          6    1    1    2  502    0 -0.10576651199E+02 -0.50649438325E+02  0.10196376821E+04  0.10355033723E+04  0.17300000000E+03 0. -1.
         -6    1    1    2    0  501  0.10576651199E+02  0.50649438325E+02  0.53389652964E+03  0.56360601090E+03  0.17300000000E+03 0.  1.
<mgrwt>
<rscale>  2 0.18057196E+03</rscale>
<asrwt>0</asrwt>
<pdfrwt beam="1">  1        2 0.24251096E+00 0.18057196E+03</pdfrwt>
<pdfrwt beam="2">  1       -2 0.35057836E-02 0.18057196E+03</pdfrwt>
<totfact> 0.41447905E+03</totfact>
</mgrwt>
</event>
<event>
 4    3  0.7748294E-001  0.2171013E+03  0.7546771E-02  0.1136063E+00
          1   -1    0    0  502    0  0.00000000000E+00  0.00000000000E+00  0.14343080685E+04  0.14343080685E+04  0.00000000000E+00 0. -1.
         -1   -1    0    0    0  501 -0.00000000000E+00 -0.00000000000E+00 -0.39192931591E+02  0.39192931591E+02  0.00000000000E+00 0.  1.
          6    1    1    2  502    0  0.13107021243E+03  0.49579351043E+01  0.99368610870E+03  0.10171258842E+04  0.17300000000E+03 0.  1.
         -6    1    1    2    0  501 -0.13107021243E+03 -0.49579351043E+01  0.40142902822E+03  0.45637511589E+03  0.17300000000E+03 0.  1.
<mgrwt>
<rscale>  2 0.21710132E+03</rscale>
<asrwt>0</asrwt>
<pdfrwt beam="1">  1        1 0.22066274E+00 0.21710132E+03</pdfrwt>
<pdfrwt beam="2">  1       -1 0.60296829E-02 0.21710132E+03</pdfrwt>
<totfact> 0.10538054E+03</totfact>
</mgrwt>
</event>
<event>
 4    3  0.7748294E-001  0.1881686E+03  0.7546771E-02  0.1160124E+00
         -1   -1    0    0    0  501 -0.00000000000E+00  0.00000000000E+00  0.18586846481E+03  0.18586846481E+03  0.00000000000E+00 0. -1.
          1   -1    0    0  502    0  0.00000000000E+00 -0.00000000000E+00 -0.23425014095E+03  0.23425014095E+03  0.00000000000E+00 0.  1.
          6    1    1    2  502    0  0.62025073019E+02  0.40389274981E+02 -0.11497417023E+03  0.22051408807E+03  0.17300000000E+03 0.  1.
         -6    1    1    2    0  501 -0.62025073019E+02 -0.40389274981E+02  0.66592494078E+02  0.19960451769E+03  0.17300000000E+03 0. -1.
<mgrwt>
<rscale>  2 0.18816855E+03</rscale>
<asrwt>0</asrwt>
<pdfrwt beam="1">  1        1 0.36038483E-01 0.18816855E+03</pdfrwt>
<pdfrwt beam="2">  1       -1 0.28595149E-01 0.18816855E+03</pdfrwt>
<totfact> 0.13213987E+03</totfact>
</mgrwt>
</event>
<event>
 4    3  0.7748294E-001  0.1771451E+03  0.7546771E-02  0.1170595E+00
          1   -1    0    0  502    0  0.00000000000E+00  0.00000000000E+00  0.51269828442E+02  0.51269828442E+02  0.00000000000E+00 0. -1.
         -1   -1    0    0    0  501 -0.00000000000E+00 -0.00000000000E+00 -0.18614679087E+04  0.18614679087E+04  0.00000000000E+00 0.  1.
          6    1    1    2  502    0  0.29558993686E+02 -0.24034249773E+02 -0.16886174576E+04  0.16978837703E+04  0.17300000000E+03 0.  1.
         -6    1    1    2    0  501 -0.29558993686E+02  0.24034249773E+02 -0.12158062266E+03  0.21485396686E+03  0.17300000000E+03 0. -1.
<mgrwt>
<rscale>  2 0.17714508E+03</rscale>
<asrwt>0</asrwt>
<pdfrwt beam="1">  1        1 0.78876669E-02 0.17714508E+03</pdfrwt>
<pdfrwt beam="2">  1       -1 0.28637964E+00 0.17714508E+03</pdfrwt>
<totfact> 0.42661824E+01</totfact>
</mgrwt>
</event>
<event>
 4    3  0.7748294E-001  0.3442514E+03  0.7546771E-02  0.1065000E+00
         -2   -1    0    0    0  501 -0.00000000000E+00  0.00000000000E+00  0.16042370603E+03  0.16042370603E+03  0.00000000000E+00 0.  1.
          2   -1    0    0  502    0  0.00000000000E+00 -0.00000000000E+00 -0.32888410261E+04  0.32888410261E+04  0.00000000000E+00 0. -1.
          6    1    1    2  502    0  0.29652299118E+03 -0.25575732909E+02 -0.30828494539E+04  0.31020105992E+04  0.17300000000E+03 0. -1.
         -6    1    1    2    0  501 -0.29652299118E+03  0.25575732909E+02 -0.45567866216E+02  0.34725413294E+03  0.17300000000E+03 0.  1.
<mgrwt>
<rscale>  2 0.34425137E+03</rscale>
<asrwt>0</asrwt>
<pdfrwt beam="1">  1        2 0.50597551E+00 0.34425137E+03</pdfrwt>
<pdfrwt beam="2">  1       -2 0.24680572E-01 0.34425137E+03</pdfrwt>
<totfact> 0.19722211E+01</totfact>
</mgrwt>
</event>
<event>
 4    3  0.7748294E-001  0.3622145E+03  0.7546771E-02  0.1057710E+00
          2   -1    0    0  502    0  0.00000000000E+00  0.00000000000E+00  0.12223746880E+04  0.12223746880E+04  0.00000000000E+00 0. -1.
         -2   -1    0    0    0  501 -0.00000000000E+00 -0.00000000000E+00 -0.21803301662E+03  0.21803301662E+03  0.00000000000E+00 0.  1.
          6    1    1    2  502    0  0.12015595369E+03  0.29467424907E+03  0.10153523471E+04  0.10780258601E+04  0.17300000000E+03 0. -1.
         -6    1    1    2    0  501 -0.12015595369E+03 -0.29467424907E+03 -0.11010675716E+02  0.36238184454E+03  0.17300000000E+03 0.  1.
<mgrwt>
<rscale>  2 0.36221453E+03</rscale>
<asrwt>0</asrwt>
<pdfrwt beam="1">  1        2 0.18805764E+00 0.36221453E+03</pdfrwt>
<pdfrwt beam="2">  1       -2 0.33543542E-01 0.36221453E+03</pdfrwt>
<totfact> 0.16069595E+02</totfact>
</mgrwt>
</event>
<event>
 4    3  0.7748294E-001  0.2278821E+03  0.7546771E-02  0.1128139E+00
         -2   -1    0    0    0  501 -0.00000000000E+00  0.00000000000E+00  0.32584175618E+02  0.32584175618E+02  0.00000000000E+00 0. -1.
          2   -1    0    0  502    0  0.00000000000E+00 -0.00000000000E+00 -0.19369811287E+04  0.19369811287E+04  0.00000000000E+00 0.  1.
          6    1    1    2  502    0  0.11012899472E+03 -0.99362329233E+02 -0.53763997834E+03  0.58394093388E+03  0.17300000000E+03 0. -1.
         -6    1    1    2    0  501 -0.11012899472E+03  0.99362329233E+02 -0.13667569748E+04  0.13856243705E+04  0.17300000000E+03 0.  1.
<mgrwt>
<rscale>  2 0.22788214E+03</rscale>
<asrwt>0</asrwt>
<pdfrwt beam="1">  1        2 0.29799710E+00 0.22788214E+03</pdfrwt>
<pdfrwt beam="2">  1       -2 0.50129500E-02 0.22788214E+03</pdfrwt>
<totfact> 0.15692521E+03</totfact>
</mgrwt>
</event>
<event>
 4    3  0.7748294E-001  0.1802253E+03  0.7546771E-02  0.1167585E+00
         -1   -1    0    0    0  501 -0.00000000000E+00  0.00000000000E+00  0.72763552733E+02  0.72763552733E+02  0.00000000000E+00 0.  1.
          1   -1    0    0  502    0  0.00000000000E+00 -0.00000000000E+00 -0.50227071902E+03  0.50227071902E+03  0.00000000000E+00 0. -1.
          6    1    1    2  502    0 -0.39298171408E+02  0.31745843298E+02 -0.11885462013E+03  0.21588785415E+03  0.17300000000E+03 0.  1.
         -6    1    1    2    0  501  0.39298171408E+02 -0.31745843298E+02 -0.31065254616E+03  0.35914641760E+03  0.17300000000E+03 0. -1.
<mgrwt>
<rscale>  2 0.18022526E+03</rscale>
<asrwt>0</asrwt>
<pdfrwt beam="1">  1        1 0.77272416E-01 0.18022526E+03</pdfrwt>
<pdfrwt beam="2">  1       -1 0.11194393E-01 0.18022526E+03</pdfrwt>
<totfact> 0.22659213E+03</totfact>
</mgrwt>
</event>
<event>
 4    3  0.7748294E-001  0.1891912E+03  0.7546771E-02  0.1159193E+00
          2   -1    0    0  502    0  0.00000000000E+00  0.00000000000E+00  0.12383891604E+03  0.12383891604E+03  0.00000000000E+00 0. -1.
         -2   -1    0    0    0  501 -0.00000000000E+00 -0.00000000000E+00 -0.34467975126E+03  0.34467975126E+03  0.00000000000E+00 0.  1.
          6    1    1    2  502    0  0.43688988118E+02 -0.62893436763E+02 -0.16293052812E+02  0.18989148385E+03  0.17300000000E+03 0. -1.
         -6    1    1    2    0  501 -0.43688988118E+02  0.62893436763E+02 -0.20454778240E+03  0.27862718345E+03  0.17300000000E+03 0.  1.
<mgrwt>
<rscale>  2 0.18919121E+03</rscale>
<asrwt>0</asrwt>
<pdfrwt beam="1">  1        2 0.19052141E-01 0.18919121E+03</pdfrwt>
<pdfrwt beam="2">  1       -2 0.53027653E-01 0.18919121E+03</pdfrwt>
<totfact> 0.99380795E+02</totfact>
</mgrwt>
</event>
<event>
 4    3  0.7748294E-001  0.2588959E+03  0.7546771E-02  0.1107808E+00
         -1   -1    0    0    0  501 -0.00000000000E+00  0.00000000000E+00  0.94573970000E+02  0.94573970000E+02  0.00000000000E+00 0.  1.
          1   -1    0    0  502    0  0.00000000000E+00 -0.00000000000E+00 -0.89559854060E+03  0.89559854060E+03  0.00000000000E+00 0. -1.
          6    1    1    2  502    0 -0.69452344602E+02  0.17965096293E+03 -0.17436252856E+03  0.31213680978E+03  0.17300000000E+03 0. -1.
         -6    1    1    2    0  501  0.69452344602E+02 -0.17965096293E+03 -0.62666204205E+03  0.67803570083E+03  0.17300000000E+03 0.  1.
<mgrwt>
<rscale>  2 0.25889592E+03</rscale>
<asrwt>0</asrwt>
<pdfrwt beam="1">  1        1 0.13778439E+00 0.25889592E+03</pdfrwt>
<pdfrwt beam="2">  1       -1 0.14549842E-01 0.25889592E+03</pdfrwt>
<totfact> 0.65250402E+02</totfact>
</mgrwt>
</event>
<event>
 4    3  0.7748294E-001  0.1838204E+03  0.7546771E-02  0.1164156E+00
         -1   -1    0    0    0  501 -0.00000000000E+00  0.00000000000E+00  0.12352936805E+03  0.12352936805E+03  0.00000000000E+00 0.  1.
          1   -1    0    0  502    0  0.00000000000E+00 -0.00000000000E+00 -0.32168679185E+03  0.32168679185E+03  0.00000000000E+00 0. -1.
          6    1    1    2  502    0 -0.51070232324E+02  0.35394341868E+02 -0.18520163589E+03  0.26093978999E+03  0.17300000000E+03 0.  1.
         -6    1    1    2    0  501  0.51070232324E+02 -0.35394341868E+02 -0.12955787914E+02  0.18427636991E+03  0.17300000000E+03 0.  1.
<mgrwt>
<rscale>  2 0.18382037E+03</rscale>
<asrwt>0</asrwt>
<pdfrwt beam="1">  1        1 0.49490275E-01 0.18382037E+03</pdfrwt>
<pdfrwt beam="2">  1       -1 0.19004519E-01 0.18382037E+03</pdfrwt>
<totfact> 0.17396498E+03</totfact>
</mgrwt>
</event>
<event>
 4    3  0.7748294E-001  0.1894159E+03  0.7546771E-02  0.1158989E+00
          1   -1    0    0  502    0  0.00000000000E+00  0.00000000000E+00  0.33340244241E+03  0.33340244241E+03  0.00000000000E+00 0.  1.
         -1   -1    0    0    0  501 -0.00000000000E+00 -0.00000000000E+00 -0.10809556606E+03  0.10809556606E+03  0.00000000000E+00 0. -1.
          6    1    1    2  502    0 -0.66164443072E+02 -0.39644130425E+02  0.12740492715E+03  0.22827703798E+03  0.17300000000E+03 0.  1.
         -6    1    1    2    0  501  0.66164443072E+02  0.39644130425E+02  0.97901949190E+02  0.21322097050E+03  0.17300000000E+03 0. -1.
<mgrwt>
<rscale>  2 0.18941592E+03</rscale>
<asrwt>0</asrwt>
<pdfrwt beam="1">  1        1 0.51292683E-01 0.18941592E+03</pdfrwt>
<pdfrwt beam="2">  1       -1 0.16630087E-01 0.18941592E+03</pdfrwt>
<totfact> 0.20612188E+03</totfact>
</mgrwt>
</event>
<event>
 4    3  0.7748294E-001  0.2900539E+03  0.7546771E-02  0.1090321E+00
         -2   -1    0    0    0  501 -0.00000000000E+00  0.00000000000E+00  0.40058539912E+03  0.40058539912E+03  0.00000000000E+00 0.  1.
          2   -1    0    0  502    0  0.00000000000E+00 -0.00000000000E+00 -0.37942298888E+03  0.37942298888E+03  0.00000000000E+00 0. -1.
          6    1    1    2  502    0 -0.12018994319E+03  0.19939066906E+03  0.27117674629E+03  0.39707441252E+03  0.17300000000E+03 0.  1.
         -6    1    1    2    0  501  0.12018994319E+03 -0.19939066906E+03 -0.25001433605E+03  0.38293397548E+03  0.17300000000E+03 0. -1.
<mgrwt>
<rscale>  2 0.29005389E+03</rscale>
<asrwt>0</asrwt>
<pdfrwt beam="1">  1        2 0.58372767E-01 0.29005389E+03</pdfrwt>
<pdfrwt beam="2">  1       -2 0.61628523E-01 0.29005389E+03</pdfrwt>
<totfact> 0.21296356E+02</totfact>
</mgrwt>
</event>
<event>
 4    3  0.7748294E-001  0.1876845E+03  0.7546771E-02  0.1160567E+00
         -1   -1    0    0    0  501 -0.00000000000E+00  0.00000000000E+00  0.11409298563E+02  0.11409298563E+02  0.00000000000E+00 0. -1.
          1   -1    0    0  502    0  0.00000000000E+00 -0.00000000000E+00 -0.40903101763E+04  0.40903101763E+04  0.00000000000E+00 0.  1.
          6    1    1    2  502    0 -0.50511073990E+02  0.52393656940E+02 -0.10239471106E+04  0.10410058353E+04  0.17300000000E+03 0. -1.
         -6    1    1    2    0  501  0.50511073990E+02 -0.52393656940E+02 -0.30549537671E+04  0.30607136395E+04  0.17300000000E+03 0.  1.
<mgrwt>
<rscale>  2 0.18768448E+03</rscale>
<asrwt>0</asrwt>
<pdfrwt beam="1">  1        1 0.62927917E+00 0.18768448E+03</pdfrwt>
<pdfrwt beam="2">  1       -1 0.17552748E-02 0.18768448E+03</pdfrwt>
<totfact> 0.90100593E+01</totfact>
</mgrwt>
</event>
<event>
 4    3  0.7748294E-001  0.3407317E+03  0.7546771E-02  0.1066485E+00
          2   -1    0    0  502    0  0.00000000000E+00  0.00000000000E+00  0.76313814889E+03  0.76313814889E+03  0.00000000000E+00 0. -1.
         -2   -1    0    0    0  501 -0.00000000000E+00 -0.00000000000E+00 -0.30742158100E+03  0.30742158100E+03  0.00000000000E+00 0.  1.
          6    1    1    2  502    0 -0.24839876037E+03 -0.15641976034E+03 -0.15258002645E+03  0.37333463548E+03  0.17300000000E+03 0.  1.
         -6    1    1    2    0  501  0.24839876037E+03  0.15641976034E+03  0.60829659435E+03  0.69722509441E+03  0.17300000000E+03 0. -1.
<mgrwt>
<rscale>  2 0.34073169E+03</rscale>
<asrwt>0</asrwt>
<pdfrwt beam="1">  1        2 0.11740587E+00 0.34073169E+03</pdfrwt>
<pdfrwt beam="2">  1       -2 0.47295628E-01 0.34073169E+03</pdfrwt>
<totfact> 0.16204786E+02</totfact>
</mgrwt>
</event>
<event>
 4    3  0.7748294E-001  0.1766242E+03  0.7546771E-02  0.1171111E+00
         -1   -1    0    0    0  501 -0.00000000000E+00  0.00000000000E+00  0.12053135508E+03  0.12053135508E+03  0.00000000000E+00 0. -1.
          1   -1    0    0  502    0  0.00000000000E+00 -0.00000000000E+00 -0.27074495295E+03  0.27074495295E+03  0.00000000000E+00 0.  1.
          6    1    1    2  502    0  0.25135564086E+01  0.35507843682E+02 -0.34051279578E+02  0.17987666488E+03  0.17300000000E+03 0. -1.
         -6    1    1    2    0  501 -0.25135564086E+01 -0.35507843682E+02 -0.11616231829E+03  0.21139964314E+03  0.17300000000E+03 0. -1.
<mgrwt>
<rscale>  2 0.17662425E+03</rscale>
<asrwt>0</asrwt>
<pdfrwt beam="1">  1        1 0.41653069E-01 0.17662425E+03</pdfrwt>
<pdfrwt beam="2">  1       -1 0.18543286E-01 0.17662425E+03</pdfrwt>
<totfact> 0.22418001E+03</totfact>
</mgrwt>
</event>
<event>
 4    3  0.7748294E-001  0.1927824E+03  0.7546771E-02  0.1155975E+00
          1   -1    0    0  502    0  0.00000000000E+00  0.00000000000E+00  0.11965746438E+04  0.11965746438E+04  0.00000000000E+00 0.  1.
         -1   -1    0    0    0  501 -0.00000000000E+00 -0.00000000000E+00 -0.31252028822E+02  0.31252028822E+02  0.00000000000E+00 0. -1.
          6    1    1    2  502    0 -0.84611194445E+02  0.87743704062E+01  0.63084322900E+03  0.65964249664E+03  0.17300000000E+03 0.  1.
         -6    1    1    2    0  501  0.84611194445E+02 -0.87743704062E+01  0.53447938602E+03  0.56818417603E+03  0.17300000000E+03 0.  1.
<mgrwt>
<rscale>  2 0.19278237E+03</rscale>
<asrwt>0</asrwt>
<pdfrwt beam="1">  1        1 0.18408837E+00 0.19278237E+03</pdfrwt>
<pdfrwt beam="2">  1       -1 0.48080054E-02 0.19278237E+03</pdfrwt>
<totfact> 0.21443144E+03</totfact>
</mgrwt>
</event>
<event>
 4    3  0.7748294E-001  0.1975173E+03  0.7546771E-02  0.1151851E+00
         -4   -1    0    0    0  501 -0.00000000000E+00  0.00000000000E+00  0.62778776648E+02  0.62778776648E+02  0.00000000000E+00 0.  1.
          4   -1    0    0  502    0  0.00000000000E+00 -0.00000000000E+00 -0.89327387715E+03  0.89327387715E+03  0.00000000000E+00 0. -1.
          6    1    1    2  502    0  0.65996187778E+02 -0.68764841809E+02 -0.15154574421E+03  0.24895624687E+03  0.17300000000E+03 0.  1.
         -6    1    1    2    0  501 -0.65996187778E+02  0.68764841809E+02 -0.67894935630E+03  0.70709640693E+03  0.17300000000E+03 0. -1.
<mgrwt>
<rscale>  2 0.19751734E+03</rscale>
<asrwt>0</asrwt>
<pdfrwt beam="1">  1        4 0.13742676E+00 0.19751734E+03</pdfrwt>
<pdfrwt beam="2">  1       -4 0.96582729E-02 0.19751734E+03</pdfrwt>
<totfact> 0.56669388E+01</totfact>
</mgrwt>
</event>
<event>
 4    3  0.7748294E-001  0.1892509E+03  0.7546771E-02  0.1159139E+00
         -1   -1    0    0    0  501 -0.00000000000E+00  0.00000000000E+00  0.15823677801E+04  0.15823677801E+04  0.00000000000E+00 0. -1.
          1   -1    0    0  502    0  0.00000000000E+00 -0.00000000000E+00 -0.87611874790E+02  0.87611874790E+02  0.00000000000E+00 0.  1.
          6    1    1    2  502    0  0.72224424083E+02  0.25894472864E+02  0.28291301633E+02  0.19135383170E+03  0.17300000000E+03 0.  1.
         -6    1    1    2    0  501 -0.72224424083E+02 -0.25894472864E+02  0.14664646036E+04  0.14786258231E+04  0.17300000000E+03 0. -1.
<mgrwt>
<rscale>  2 0.18925087E+03</rscale>
<asrwt>0</asrwt>
<pdfrwt beam="1">  1        1 0.13478751E-01 0.18925087E+03</pdfrwt>
<pdfrwt beam="2">  1       -1 0.24344118E+00 0.18925087E+03</pdfrwt>
<totfact> 0.38415812E+01</totfact>
</mgrwt>
</event>
<event>
 4    3  0.7748294E-001  0.1771545E+03  0.7546771E-02  0.1170586E+00
         -2   -1    0    0    0  501 -0.00000000000E+00  0.00000000000E+00  0.10318235176E+03  0.10318235176E+03  0.00000000000E+00 0.  1.
          2   -1    0    0  502    0  0.00000000000E+00 -0.00000000000E+00 -0.34590334759E+03  0.34590334759E+03  0.00000000000E+00 0. -1.
          6    1    1    2  502    0  0.11614908796E+02  0.36329378285E+02 -0.43354807127E+02  0.18238248034E+03  0.17300000000E+03 0.  1.
         -6    1    1    2    0  501 -0.11614908796E+02 -0.36329378285E+02 -0.19936618871E+03  0.26670321901E+03  0.17300000000E+03 0. -1.
<mgrwt>
<rscale>  2 0.17715454E+03</rscale>
<asrwt>0</asrwt>
<pdfrwt beam="1">  1        2 0.53215899E-01 0.17715454E+03</pdfrwt>
<pdfrwt beam="2">  1       -2 0.15874208E-01 0.17715454E+03</pdfrwt>
<totfact> 0.28610667E+03</totfact>
</mgrwt>
</event>
<event>
 4    3  0.7748294E-001  0.2551884E+03  0.7546771E-02  0.1110069E+00
         -2   -1    0    0    0  501 -0.00000000000E+00  0.00000000000E+00  0.10330250327E+03  0.10330250327E+03  0.00000000000E+00 0.  1.
          2   -1    0    0  502    0  0.00000000000E+00 -0.00000000000E+00 -0.63056619305E+03  0.63056619305E+03  0.00000000000E+00 0. -1.
          6    1    1    2  502    0 -0.15068089107E+03  0.11174698343E+03 -0.26972249033E+03  0.37131030289E+03  0.17300000000E+03 0.  1.
         -6    1    1    2    0  501  0.15068089107E+03 -0.11174698343E+03 -0.25754119945E+03  0.36255839344E+03  0.17300000000E+03 0. -1.
<mgrwt>
<rscale>  2 0.25518840E+03</rscale>
<asrwt>0</asrwt>
<pdfrwt beam="1">  1        2 0.97010182E-01 0.25518840E+03</pdfrwt>
<pdfrwt beam="2">  1       -2 0.15892693E-01 0.25518840E+03</pdfrwt>
<totfact> 0.14778293E+03</totfact>
</mgrwt>
</event>
<event>
 4    3  0.7748294E-001  0.2681145E+03  0.7546771E-02  0.1102364E+00
         -2   -1    0    0    0  501 -0.00000000000E+00  0.00000000000E+00  0.14470318330E+03  0.14470318330E+03  0.00000000000E+00 0.  1.
          2   -1    0    0  502    0  0.00000000000E+00 -0.00000000000E+00 -0.51269099044E+03  0.51269099044E+03  0.00000000000E+00 0. -1.
          6    1    1    2  502    0  0.14258961944E+03 -0.14705299381E+03 -0.12608549946E+03  0.29628185185E+03  0.17300000000E+03 0.  1.
         -6    1    1    2    0  501 -0.14258961944E+03  0.14705299381E+03 -0.24190230767E+03  0.36111232189E+03  0.17300000000E+03 0. -1.
<mgrwt>
<rscale>  2 0.26811450E+03</rscale>
<asrwt>0</asrwt>
<pdfrwt beam="1">  1        2 0.78875537E-01 0.26811450E+03</pdfrwt>
<pdfrwt beam="2">  1       -2 0.22262028E-01 0.26811450E+03</pdfrwt>
<totfact> 0.10570836E+03</totfact>
</mgrwt>
</event>
<event>
 4    3  0.7748294E-001  0.4678637E+03  0.7546771E-02  0.1022525E+00
         -2   -1    0    0    0  501 -0.00000000000E+00  0.00000000000E+00  0.22767392184E+03  0.22767392184E+03  0.00000000000E+00 0. -1.
          2   -1    0    0  502    0  0.00000000000E+00 -0.00000000000E+00 -0.10862062433E+04  0.10862062433E+04  0.00000000000E+00 0.  1.
          6    1    1    2  502    0 -0.23165133774E+03 -0.36783847836E+03 -0.65190727813E+03  0.80242107881E+03  0.17300000000E+03 0.  1.
         -6    1    1    2    0  501  0.23165133774E+03  0.36783847836E+03 -0.20662504330E+03  0.51145908630E+03  0.17300000000E+03 0.  1.
<mgrwt>
<rscale>  2 0.46786375E+03</rscale>
<asrwt>0</asrwt>
<pdfrwt beam="1">  1        2 0.16710865E+00 0.46786375E+03</pdfrwt>
<pdfrwt beam="2">  1       -2 0.35026757E-01 0.46786375E+03</pdfrwt>
<totfact> 0.17586960E+02</totfact>
</mgrwt>
</event>
<event>
 4    3  0.7748294E-001  0.1947189E+03  0.7546771E-02  0.1154273E+00
         -1   -1    0    0    0  501 -0.00000000000E+00  0.00000000000E+00  0.11457041694E+02  0.11457041694E+02  0.00000000000E+00 0. -1.
          1   -1    0    0  502    0  0.00000000000E+00 -0.00000000000E+00 -0.37999328695E+04  0.37999328695E+04  0.00000000000E+00 0.  1.
          6    1    1    2  502    0 -0.88188840921E+02  0.14462682853E+02 -0.12095092258E+04  0.12250828577E+04  0.17300000000E+03 0. -1.
         -6    1    1    2    0  501  0.88188840921E+02 -0.14462682853E+02 -0.25789666020E+04  0.25863070535E+04  0.17300000000E+03 0.  1.
<mgrwt>
<rscale>  2 0.19471888E+03</rscale>
<asrwt>0</asrwt>
<pdfrwt beam="1">  1        1 0.58460441E+00 0.19471888E+03</pdfrwt>
<pdfrwt beam="2">  1       -1 0.17626237E-02 0.19471888E+03</pdfrwt>
<totfact> 0.15496937E+02</totfact>
</mgrwt>
</event>
<event>
 4    3  0.7748294E-001  0.2889682E+03  0.7546771E-02  0.1090889E+00
         -1   -1    0    0    0  501 -0.00000000000E+00  0.00000000000E+00  0.27076945507E+03  0.27076945507E+03  0.00000000000E+00 0. -1.
          1   -1    0    0  502    0  0.00000000000E+00 -0.00000000000E+00 -0.90308931438E+03  0.90308931438E+03  0.00000000000E+00 0.  1.
          6    1    1    2  502    0 -0.12061812286E+03 -0.19754711802E+03  0.16012760564E+03  0.33036865089E+03  0.17300000000E+03 0. -1.
         -6    1    1    2    0  501  0.12061812286E+03  0.19754711802E+03 -0.79244746495E+03  0.84349011856E+03  0.17300000000E+03 0.  1.
<mgrwt>
<rscale>  2 0.28896816E+03</rscale>
<asrwt>0</asrwt>
<pdfrwt beam="1">  1        1 0.13893682E+00 0.28896816E+03</pdfrwt>
<pdfrwt beam="2">  1       -1 0.41656840E-01 0.28896816E+03</pdfrwt>
<totfact> 0.11001066E+02</totfact>
</mgrwt>
</event>
<event>
 4    3  0.7748294E-001  0.2389530E+03  0.7546771E-02  0.1120492E+00
         -2   -1    0    0    0  501 -0.00000000000E+00  0.00000000000E+00  0.45075899518E+03  0.45075899518E+03  0.00000000000E+00 0.  1.
          2   -1    0    0  502    0  0.00000000000E+00 -0.00000000000E+00 -0.21416352449E+03  0.21416352449E+03  0.00000000000E+00 0. -1.
          6    1    1    2  502    0  0.35584870047E+02  0.16094492356E+03 -0.94198500667E+02  0.25684997357E+03  0.17300000000E+03 0. -1.
         -6    1    1    2    0  501 -0.35584870047E+02 -0.16094492356E+03  0.33079397136E+03  0.40807254610E+03  0.17300000000E+03 0.  1.
<mgrwt>
<rscale>  2 0.23895303E+03</rscale>
<asrwt>0</asrwt>
<pdfrwt beam="1">  1        2 0.32948235E-01 0.23895303E+03</pdfrwt>
<pdfrwt beam="2">  1       -2 0.69347537E-01 0.23895303E+03</pdfrwt>
<totfact> 0.30940586E+02</totfact>
</mgrwt>
</event>
<event>
 4    3  0.7748294E-001  0.2422779E+03  0.7546771E-02  0.1118285E+00
          1   -1    0    0  502    0  0.00000000000E+00  0.00000000000E+00  0.51929827143E+03  0.51929827143E+03  0.00000000000E+00 0.  1.
         -1   -1    0    0    0  501 -0.00000000000E+00 -0.00000000000E+00 -0.11881369969E+03  0.11881369969E+03  0.00000000000E+00 0. -1.
          6    1    1    2  502    0 -0.15206469221E+03  0.75139160792E+02  0.12987487608E+03  0.27489279281E+03  0.17300000000E+03 0. -1.
         -6    1    1    2    0  501  0.15206469221E+03 -0.75139160792E+02  0.27060969566E+03  0.36321917830E+03  0.17300000000E+03 0.  1.
<mgrwt>
<rscale>  2 0.24227787E+03</rscale>
<asrwt>0</asrwt>
<pdfrwt beam="1">  1        1 0.79892041E-01 0.24227787E+03</pdfrwt>
<pdfrwt beam="2">  1       -1 0.18279031E-01 0.24227787E+03</pdfrwt>
<totfact> 0.10037683E+03</totfact>
</mgrwt>
</event>
<event>
 4    3  0.7748294E-001  0.1980603E+03  0.7546771E-02  0.1151386E+00
         -1   -1    0    0    0  501 -0.00000000000E+00  0.00000000000E+00  0.61276059675E+03  0.61276059675E+03  0.00000000000E+00 0.  1.
          1   -1    0    0  502    0  0.00000000000E+00 -0.00000000000E+00 -0.12745150784E+03  0.12745150784E+03  0.00000000000E+00 0. -1.
          6    1    1    2  502    0 -0.38752827527E+02  0.88301295419E+02  0.50375761960E+03  0.54129441131E+03  0.17300000000E+03 0.  1.
         -6    1    1    2    0  501  0.38752827527E+02 -0.88301295419E+02 -0.18448530682E+02  0.19891769328E+03  0.17300000000E+03 0. -1.
<mgrwt>
<rscale>  2 0.19806035E+03</rscale>
<asrwt>0</asrwt>
<pdfrwt beam="1">  1        1 0.19607925E-01 0.19806035E+03</pdfrwt>
<pdfrwt beam="2">  1       -1 0.94270859E-01 0.19806035E+03</pdfrwt>
<totfact> 0.30335196E+02</totfact>
</mgrwt>
</event>
<event>
 4    3  0.7748294E-001  0.1819037E+03  0.7546771E-02  0.1165973E+00
         -3   -1    0    0    0  501 -0.00000000000E+00  0.00000000000E+00  0.55829355213E+03  0.55829355213E+03  0.00000000000E+00 0. -1.
          3   -1    0    0  502    0  0.00000000000E+00 -0.00000000000E+00 -0.65593564702E+02  0.65593564702E+02  0.00000000000E+00 0.  1.
          6    1    1    2  502    0 -0.23977677124E+02 -0.50843334432E+02  0.34322084698E+03  0.38844500699E+03  0.17300000000E+03 0. -1.
         -6    1    1    2    0  501  0.23977677124E+02  0.50843334432E+02  0.14947914045E+03  0.23544210984E+03  0.17300000000E+03 0. -1.
<mgrwt>
<rscale>  2 0.18190375E+03</rscale>
<asrwt>0</asrwt>
<pdfrwt beam="1">  1        3 0.10091318E-01 0.18190375E+03</pdfrwt>
<pdfrwt beam="2">  1       -3 0.85891312E-01 0.18190375E+03</pdfrwt>
<totfact> 0.22391738E+02</totfact>
</mgrwt>
</event>
<event>
 4    3  0.7748294E-001  0.2226425E+03  0.7546771E-02  0.1131928E+00
         -4   -1    0    0    0  501 -0.00000000000E+00  0.00000000000E+00  0.11652823944E+03  0.11652823944E+03  0.00000000000E+00 0.  1.
          4   -1    0    0  502    0  0.00000000000E+00 -0.00000000000E+00 -0.60848319437E+03  0.60848319437E+03  0.00000000000E+00 0. -1.
          6    1    1    2  502    0  0.10029342087E+03 -0.97887204266E+02 -0.47125715802E+02  0.22757528011E+03  0.17300000000E+03 0.  1.
         -6    1    1    2    0  501 -0.10029342087E+03  0.97887204266E+02 -0.44482923912E+03  0.49743615370E+03  0.17300000000E+03 0. -1.
<mgrwt>
<rscale>  2 0.22264248E+03</rscale>
<asrwt>0</asrwt>
<pdfrwt beam="1">  1        4 0.93612798E-01 0.22264248E+03</pdfrwt>
<pdfrwt beam="2">  1       -4 0.17927422E-01 0.22264248E+03</pdfrwt>
<totfact> 0.49215355E+01</totfact>
</mgrwt>
</event>
<event>
 4    3  0.7748294E-001  0.1966385E+03  0.7546771E-02  0.1152606E+00
          2   -1    0    0  502    0  0.00000000000E+00  0.00000000000E+00  0.32386382502E+04  0.32386382502E+04  0.00000000000E+00 0.  1.
         -2   -1    0    0    0  501 -0.00000000000E+00 -0.00000000000E+00 -0.12884562548E+02  0.12884562548E+02  0.00000000000E+00 0. -1.
          6    1    1    2  502    0 -0.78354928491E+02 -0.50972585722E+02  0.20532539645E+04  0.20626484291E+04  0.17300000000E+03 0. -1.
         -6    1    1    2    0  501  0.78354928491E+02  0.50972585722E+02  0.11724997231E+04  0.11888743836E+04  0.17300000000E+03 0.  1.
<mgrwt>
<rscale>  2 0.19663850E+03</rscale>
<asrwt>0</asrwt>
<pdfrwt beam="1">  1        2 0.49825139E+00 0.19663850E+03</pdfrwt>
<pdfrwt beam="2">  1       -2 0.19822430E-02 0.19663850E+03</pdfrwt>
<totfact> 0.11874630E+03</totfact>
</mgrwt>
</event>
<event>
 4    3  0.7748294E-001  0.2210224E+03  0.7546771E-02  0.1133123E+00
          2   -1    0    0  502    0  0.00000000000E+00  0.00000000000E+00  0.18569935092E+04  0.18569935092E+04  0.00000000000E+00 0. -1.
         -2   -1    0    0    0  501 -0.00000000000E+00 -0.00000000000E+00 -0.26898199338E+02  0.26898199338E+02  0.00000000000E+00 0.  1.
          6    1    1    2  502    0 -0.11855441975E+03 -0.69761967842E+02  0.10547610440E+04  0.10776695888E+04  0.17300000000E+03 0. -1.
         -6    1    1    2    0  501  0.11855441975E+03  0.69761967842E+02  0.77533426582E+03  0.80622211974E+03  0.17300000000E+03 0.  1.
<mgrwt>
<rscale>  2 0.22102236E+03</rscale>
<asrwt>0</asrwt>
<pdfrwt beam="1">  1        2 0.28569121E+00 0.22102236E+03</pdfrwt>
<pdfrwt beam="2">  1       -2 0.41381860E-02 0.22102236E+03</pdfrwt>
<totfact> 0.23100455E+03</totfact>
</mgrwt>
</event>
<event>
 4    3  0.7748294E-001  0.2137397E+03  0.7546771E-02  0.1138638E+00
          3   -1    0    0  502    0  0.00000000000E+00  0.00000000000E+00  0.57956577215E+03  0.57956577215E+03  0.00000000000E+00 0.  1.
         -3   -1    0    0    0  501 -0.00000000000E+00 -0.00000000000E+00 -0.81094959274E+02  0.81094959274E+02  0.00000000000E+00 0. -1.
          6    1    1    2  502    0  0.12534696957E+03 -0.66189882552E+01  0.19397751977E+03  0.28863809860E+03  0.17300000000E+03 0.  1.
         -6    1    1    2    0  501 -0.12534696957E+03  0.66189882552E+01  0.30449329310E+03  0.37202263282E+03  0.17300000000E+03 0.  1.
<mgrwt>
<rscale>  2 0.21373973E+03</rscale>
<asrwt>0</asrwt>
<pdfrwt beam="1">  1        3 0.89163962E-01 0.21373973E+03</pdfrwt>
<pdfrwt beam="2">  1       -3 0.12476148E-01 0.21373973E+03</pdfrwt>
<totfact> 0.14687889E+02</totfact>
</mgrwt>
</event>
<event>
 4    3  0.7748294E-001  0.1742549E+03  0.7546771E-02  0.1173482E+00
          2   -1    0    0  502    0  0.00000000000E+00  0.00000000000E+00  0.25289195678E+04  0.25289195678E+04  0.00000000000E+00 0. -1.
         -2   -1    0    0    0  501 -0.00000000000E+00 -0.00000000000E+00 -0.17201018992E+02  0.17201018992E+02  0.00000000000E+00 0.  1.
          6    1    1    2  502    0 -0.20188993522E+02  0.53093473341E+01  0.19554158908E+04  0.19631648150E+04  0.17300000000E+03 0. -1.
         -6    1    1    2    0  501  0.20188993522E+02 -0.53093473341E+01  0.55630265804E+03  0.58295577188E+03  0.17300000000E+03 0.  1.
<mgrwt>
<rscale>  2 0.17425494E+03</rscale>
<asrwt>0</asrwt>
<pdfrwt beam="1">  1        2 0.38906425E+00 0.17425494E+03</pdfrwt>
<pdfrwt beam="2">  1       -2 0.26463126E-02 0.17425494E+03</pdfrwt>
<totfact> 0.19953787E+03</totfact>
</mgrwt>
</event>
<event>
 4    3  0.7748294E-001  0.2792175E+03  0.7546771E-02  0.1096117E+00
         -1   -1    0    0    0  501 -0.00000000000E+00  0.00000000000E+00  0.22100434806E+03  0.22100434806E+03  0.00000000000E+00 0.  1.
          1   -1    0    0  502    0  0.00000000000E+00 -0.00000000000E+00 -0.35512386199E+03  0.35512386199E+03  0.00000000000E+00 0. -1.
          6    1    1    2  502    0 -0.89407067335E+02 -0.20009941105E+03 -0.43577808525E+02  0.28259763514E+03  0.17300000000E+03 0. -1.
         -6    1    1    2    0  501  0.89407067335E+02  0.20009941105E+03 -0.90541705404E+02  0.29353057491E+03  0.17300000000E+03 0. -1.
<mgrwt>
<rscale>  2 0.27921747E+03</rscale>
<asrwt>0</asrwt>
<pdfrwt beam="1">  1        1 0.54634440E-01 0.27921747E+03</pdfrwt>
<pdfrwt beam="2">  1       -1 0.34000669E-01 0.27921747E+03</pdfrwt>
<totfact> 0.58357542E+02</totfact>
</mgrwt>
</event>
<event>
 4    3  0.7748294E-001  0.2054296E+03  0.7546771E-02  0.1145237E+00
          1   -1    0    0  502    0  0.00000000000E+00  0.00000000000E+00  0.64606601869E+03  0.64606601869E+03  0.00000000000E+00 0.  1.
         -1   -1    0    0    0  501 -0.00000000000E+00 -0.00000000000E+00 -0.15027768174E+03  0.15027768174E+03  0.00000000000E+00 0. -1.
          6    1    1    2  502    0  0.83803932943E+02  0.72451618983E+02 -0.51486279573E+02  0.21178331675E+03  0.17300000000E+03 0. -1.
         -6    1    1    2    0  501 -0.83803932943E+02 -0.72451618983E+02  0.54727461653E+03  0.58456038368E+03  0.17300000000E+03 0.  1.
<mgrwt>
<rscale>  2 0.20542964E+03</rscale>
<asrwt>0</asrwt>
<pdfrwt beam="1">  1        1 0.99394770E-01 0.20542964E+03</pdfrwt>
<pdfrwt beam="2">  1       -1 0.23119644E-01 0.20542964E+03</pdfrwt>
<totfact> 0.50749817E+02</totfact>
</mgrwt>
</event>
<event>
 4    3  0.7748294E-001  0.1793814E+03  0.7546771E-02  0.1168403E+00
         -1   -1    0    0    0  501 -0.00000000000E+00  0.00000000000E+00  0.40209522789E+02  0.40209522789E+02  0.00000000000E+00 0. -1.
          1   -1    0    0  502    0  0.00000000000E+00 -0.00000000000E+00 -0.10201844961E+04  0.10201844961E+04  0.00000000000E+00 0.  1.
          6    1    1    2  502    0  0.52663755810E+01  0.47126895070E+02 -0.24381223775E+03  0.30269140429E+03  0.17300000000E+03 0. -1.
         -6    1    1    2    0  501 -0.52663755810E+01 -0.47126895070E+02 -0.73616273555E+03  0.75770261459E+03  0.17300000000E+03 0.  1.
<mgrwt>
<rscale>  2 0.17938138E+03</rscale>
<asrwt>0</asrwt>
<pdfrwt beam="1">  1        1 0.15695144E+00 0.17938138E+03</pdfrwt>
<pdfrwt beam="2">  1       -1 0.61860813E-02 0.17938138E+03</pdfrwt>
<totfact> 0.19625590E+03</totfact>
</mgrwt>
</event>
<event>
 4    3  0.7748294E-001  0.6293053E+03  0.7546771E-02  0.9846405E-01
         -2   -1    0    0    0  501 -0.00000000000E+00  0.00000000000E+00  0.88095520755E+02  0.88095520755E+02  0.00000000000E+00 0.  1.
          2   -1    0    0  502    0  0.00000000000E+00 -0.00000000000E+00 -0.46576734252E+04  0.46576734252E+04  0.00000000000E+00 0. -1.
          6    1    1    2  502    0 -0.20703610261E+03  0.56853511091E+03 -0.27276912557E+04  0.27993436207E+04  0.17300000000E+03 0.  1.
         -6    1    1    2    0  501  0.20703610261E+03 -0.56853511091E+03 -0.18418866488E+04  0.19464253253E+04  0.17300000000E+03 0. -1.
<mgrwt>
<rscale>  2 0.62930527E+03</rscale>
<asrwt>0</asrwt>
<pdfrwt beam="1">  1        2 0.71656530E+00 0.62930527E+03</pdfrwt>
<pdfrwt beam="2">  1       -2 0.13553154E-01 0.62930527E+03</pdfrwt>
<totfact> 0.41724972E+00</totfact>
</mgrwt>
</event>
<event>
 4    3  0.7748294E-001  0.2361124E+03  0.7546771E-02  0.1122410E+00
         -1   -1    0    0    0  501 -0.00000000000E+00  0.00000000000E+00  0.31842929608E+03  0.31842929608E+03  0.00000000000E+00 0.  1.
          1   -1    0    0  502    0  0.00000000000E+00 -0.00000000000E+00 -0.19740114756E+03  0.19740114756E+03  0.00000000000E+00 0. -1.
          6    1    1    2  502    0 -0.13371860976E+02 -0.16012884566E+03 -0.26223578001E+02  0.23756415959E+03  0.17300000000E+03 0. -1.
         -6    1    1    2    0  501  0.13371860976E+02  0.16012884566E+03  0.14725172652E+03  0.27826628405E+03  0.17300000000E+03 0.  1.
<mgrwt>
<rscale>  2 0.23611238E+03</rscale>
<asrwt>0</asrwt>
<pdfrwt beam="1">  1        1 0.30369407E-01 0.23611238E+03</pdfrwt>
<pdfrwt beam="2">  1       -1 0.48989123E-01 0.23611238E+03</pdfrwt>
<totfact> 0.63814854E+02</totfact>
</mgrwt>
</event>
<event>
 4    3  0.7748294E-001  0.2159945E+03  0.7546771E-02  0.1136905E+00
         -1   -1    0    0    0  501 -0.00000000000E+00  0.00000000000E+00  0.61689847672E+02  0.61689847672E+02  0.00000000000E+00 0.  1.
          1   -1    0    0  502    0  0.00000000000E+00 -0.00000000000E+00 -0.13211996953E+04  0.13211996953E+04  0.00000000000E+00 0. -1.
          6    1    1    2  502    0  0.12920461150E+03  0.55487901651E+01 -0.17761385338E+03  0.27964316837E+03  0.17300000000E+03 0.  1.
         -6    1    1    2    0  501 -0.12920461150E+03 -0.55487901651E+01 -0.10818959943E+04  0.11032463746E+04  0.17300000000E+03 0. -1.
<mgrwt>
<rscale>  2 0.21599449E+03</rscale>
<asrwt>0</asrwt>
<pdfrwt beam="1">  1        1 0.20326146E+00 0.21599449E+03</pdfrwt>
<pdfrwt beam="2">  1       -1 0.94907471E-02 0.21599449E+03</pdfrwt>
<totfact> 0.62908714E+02</totfact>
</mgrwt>
</event>
<event>
 4    3  0.7748294E-001  0.1815597E+03  0.7546771E-02  0.1166302E+00
         -2   -1    0    0    0  501 -0.00000000000E+00  0.00000000000E+00  0.82333376879E+02  0.82333376879E+02  0.00000000000E+00 0.  1.
          2   -1    0    0  502    0  0.00000000000E+00 -0.00000000000E+00 -0.40044562489E+03  0.40044562489E+03  0.00000000000E+00 0. -1.
          6    1    1    2  502    0 -0.31220620780E+01 -0.55001530022E+02 -0.15576601058E+03  0.23922158270E+03  0.17300000000E+03 0. -1.
         -6    1    1    2    0  501  0.31220620780E+01  0.55001530022E+02 -0.16234623743E+03  0.24355741907E+03  0.17300000000E+03 0.  1.
<mgrwt>
<rscale>  2 0.18155967E+03</rscale>
<asrwt>0</asrwt>
<pdfrwt beam="1">  1        2 0.61607019E-01 0.18155967E+03</pdfrwt>
<pdfrwt beam="2">  1       -2 0.12666673E-01 0.18155967E+03</pdfrwt>
<totfact> 0.35387486E+03</totfact>
</mgrwt>
</event>
<event>
 4    3  0.7748294E-001  0.5911699E+03  0.7546771E-02  0.9923897E-01
         -2   -1    0    0    0  501 -0.00000000000E+00  0.00000000000E+00  0.40984649368E+03  0.40984649368E+03  0.00000000000E+00 0.  1.
          2   -1    0    0  502    0  0.00000000000E+00 -0.00000000000E+00 -0.10921500719E+04  0.10921500719E+04  0.00000000000E+00 0. -1.
          6    1    1    2  502    0  0.32969682153E+03 -0.45918721277E+03 -0.69278709113E+03  0.91073368452E+03  0.17300000000E+03 0. -1.
         -6    1    1    2    0  501 -0.32969682153E+03  0.45918721277E+03  0.10483512888E+02  0.59126288108E+03  0.17300000000E+03 0.  1.
<mgrwt>
<rscale>  2 0.59116993E+03</rscale>
<asrwt>0</asrwt>
<pdfrwt beam="1">  1        2 0.16802309E+00 0.59116993E+03</pdfrwt>
<pdfrwt beam="2">  1       -2 0.63053307E-01 0.59116993E+03</pdfrwt>
<totfact> 0.53020138E+01</totfact>
</mgrwt>
</event>
<event>
 4    3  0.7748294E-001  0.1878294E+03  0.7546771E-02  0.1160434E+00
          1   -1    0    0  502    0  0.00000000000E+00  0.00000000000E+00  0.39508693200E+03  0.39508693200E+03  0.00000000000E+00 0. -1.
         -1   -1    0    0    0  501 -0.00000000000E+00 -0.00000000000E+00 -0.92499017002E+02  0.92499017002E+02  0.00000000000E+00 0.  1.
          6    1    1    2  502    0  0.27766459627E+02 -0.67675069503E+02  0.10593151337E+03  0.21564177897E+03  0.17300000000E+03 0. -1.
         -6    1    1    2    0  501 -0.27766459627E+02  0.67675069503E+02  0.19665640162E+03  0.27194417003E+03  0.17300000000E+03 0.  1.
<mgrwt>
<rscale>  2 0.18782942E+03</rscale>
<asrwt>0</asrwt>
<pdfrwt beam="1">  1        1 0.60782604E-01 0.18782942E+03</pdfrwt>
<pdfrwt beam="2">  1       -1 0.14230618E-01 0.18782942E+03</pdfrwt>
<totfact> 0.21278754E+03</totfact>
</mgrwt>
</event>
<event>
 4    3  0.7748294E-001  0.1736483E+03  0.7546771E-02  0.1174096E+00
         -2   -1    0    0    0  501 -0.00000000000E+00  0.00000000000E+00  0.22401685928E+03  0.22401685928E+03  0.00000000000E+00 0.  1.
          2   -1    0    0  502    0  0.00000000000E+00 -0.00000000000E+00 -0.17877778525E+03  0.17877778525E+03  0.00000000000E+00 0. -1.
          6    1    1    2  502    0 -0.14655488781E+02  0.31515563078E+01 -0.77490108710E+02  0.19015370784E+03  0.17300000000E+03 0. -1.
         -6    1    1    2    0  501  0.14655488781E+02 -0.31515563078E+01  0.12272918274E+03  0.21264093669E+03  0.17300000000E+03 0.  1.
<mgrwt>
<rscale>  2 0.17364825E+03</rscale>
<asrwt>0</asrwt>
<pdfrwt beam="1">  1        2 0.27504275E-01 0.17364825E+03</pdfrwt>
<pdfrwt beam="2">  1       -2 0.34464132E-01 0.17364825E+03</pdfrwt>
<totfact> 0.15070422E+03</totfact>
</mgrwt>
</event>
<event>
 4    3  0.7748294E-001  0.1808704E+03  0.7546771E-02  0.1166963E+00
          1   -1    0    0  502    0  0.00000000000E+00  0.00000000000E+00  0.33910936194E+04  0.33910936194E+04  0.00000000000E+00 0.  1.
         -1   -1    0    0    0  501 -0.00000000000E+00 -0.00000000000E+00 -0.97701266179E+01  0.97701266179E+01  0.00000000000E+00 0. -1.
          6    1    1    2  502    0  0.50077448699E+02  0.16654196003E+02  0.14998241565E+04  0.15106907736E+04  0.17300000000E+03 0. -1.
         -6    1    1    2    0  501 -0.50077448699E+02 -0.16654196003E+02  0.18814993363E+04  0.18901729724E+04  0.17300000000E+03 0.  1.
<mgrwt>
<rscale>  2 0.18087043E+03</rscale>
<asrwt>0</asrwt>
<pdfrwt beam="1">  1        1 0.52170577E+00 0.18087043E+03</pdfrwt>
<pdfrwt beam="2">  1       -1 0.15030991E-02 0.18087043E+03</pdfrwt>
<totfact> 0.40253835E+02</totfact>
</mgrwt>
</event>
<event>
 4    3  0.7748294E-001  0.1767812E+03  0.7546771E-02  0.1170955E+00
          2   -1    0    0  502    0  0.00000000000E+00  0.00000000000E+00  0.10045343964E+03  0.10045343964E+03  0.00000000000E+00 0.  1.
         -2   -1    0    0    0  501 -0.00000000000E+00 -0.00000000000E+00 -0.56531014359E+03  0.56531014359E+03  0.00000000000E+00 0. -1.
          6    1    1    2  502    0  0.98994230962E+01  0.34994009268E+02 -0.92054670566E+01  0.17702067644E+03  0.17300000000E+03 0.  1.
         -6    1    1    2    0  501 -0.98994230962E+01 -0.34994009268E+02 -0.45565123689E+03  0.48874290679E+03  0.17300000000E+03 0. -1.
<mgrwt>
<rscale>  2 0.17678116E+03</rscale>
<asrwt>0</asrwt>
<pdfrwt beam="1">  1        2 0.15454376E-01 0.17678116E+03</pdfrwt>
<pdfrwt beam="2">  1       -2 0.86970790E-01 0.17678116E+03</pdfrwt>
<totfact> 0.44277194E+02</totfact>
</mgrwt>
</event>
<event>
 4    3  0.7748294E-001  0.1757300E+03  0.7546771E-02  0.1172001E+00
          2   -1    0    0  502    0  0.00000000000E+00  0.00000000000E+00  0.82886501655E+02  0.82886501655E+02  0.00000000000E+00 0.  1.
         -2   -1    0    0    0  501 -0.00000000000E+00 -0.00000000000E+00 -0.55176281994E+03  0.55176281994E+03  0.00000000000E+00 0. -1.
          6    1    1    2  502    0 -0.27999401221E+02  0.12963585209E+02 -0.41527543357E+03  0.45092649816E+03  0.17300000000E+03 0. -1.
         -6    1    1    2    0  501  0.27999401221E+02 -0.12963585209E+02 -0.53600884711E+02  0.18372282344E+03  0.17300000000E+03 0.  1.
<mgrwt>
<rscale>  2 0.17572997E+03</rscale>
<asrwt>0</asrwt>
<pdfrwt beam="1">  1        2 0.12751769E-01 0.17572997E+03</pdfrwt>
<pdfrwt beam="2">  1       -2 0.84886588E-01 0.17572997E+03</pdfrwt>
<totfact> 0.58730625E+02</totfact>
</mgrwt>
</event>
<event>
 4    3  0.7748294E-001  0.3102576E+03  0.7546771E-02  0.1080222E+00
         -2   -1    0    0    0  501 -0.00000000000E+00  0.00000000000E+00  0.20579349140E+03  0.20579349140E+03  0.00000000000E+00 0.  1.
          2   -1    0    0  502    0  0.00000000000E+00 -0.00000000000E+00 -0.66546515202E+03  0.66546515202E+03  0.00000000000E+00 0. -1.
          6    1    1    2  502    0 -0.23662428969E+02 -0.25645828223E+03  0.76158202532E+01  0.31035102995E+03  0.17300000000E+03 0.  1.
         -6    1    1    2    0  501  0.23662428969E+02  0.25645828223E+03 -0.46728748087E+03  0.56090761347E+03  0.17300000000E+03 0. -1.
<mgrwt>
<rscale>  2 0.31025757E+03</rscale>
<asrwt>0</asrwt>
<pdfrwt beam="1">  1        2 0.10237925E+00 0.31025757E+03</pdfrwt>
<pdfrwt beam="2">  1       -2 0.31660537E-01 0.31025757E+03</pdfrwt>
<totfact> 0.41475700E+02</totfact>
</mgrwt>
</event>
<event>
 4    3  0.7748294E-001  0.2488797E+03  0.7546771E-02  0.1114015E+00
         -1   -1    0    0    0  501 -0.00000000000E+00  0.00000000000E+00  0.41862131632E+02  0.41862131632E+02  0.00000000000E+00 0.  1.
          1   -1    0    0  502    0  0.00000000000E+00 -0.00000000000E+00 -0.15093182726E+04  0.15093182726E+04  0.00000000000E+00 0. -1.
          6    1    1    2  502    0  0.31126258325E+02  0.17619099149E+03 -0.62497991971E+03  0.67271168377E+03  0.17300000000E+03 0. -1.
         -6    1    1    2    0  501 -0.31126258325E+02 -0.17619099149E+03 -0.84247622123E+03  0.87846872043E+03  0.17300000000E+03 0. -1.
<mgrwt>
<rscale>  2 0.24887971E+03</rscale>
<asrwt>0</asrwt>
<pdfrwt beam="1">  1        1 0.23220277E+00 0.24887971E+03</pdfrwt>
<pdfrwt beam="2">  1       -1 0.64403292E-02 0.24887971E+03</pdfrwt>
<totfact> 0.84862652E+02</totfact>
</mgrwt>
</event>
<event>
 4    3  0.7748294E-001  0.2358582E+03  0.7546771E-02  0.1122583E+00
          2   -1    0    0  502    0  0.00000000000E+00  0.00000000000E+00  0.12497958629E+03  0.12497958629E+03  0.00000000000E+00 0.  1.
         -2   -1    0    0    0  501 -0.00000000000E+00 -0.00000000000E+00 -0.44510772371E+03  0.44510772371E+03  0.00000000000E+00 0. -1.
          6    1    1    2  502    0 -0.15550240734E+03  0.38975486170E+02 -0.16071706944E+03  0.28541034252E+03  0.17300000000E+03 0.  1.
         -6    1    1    2    0  501  0.15550240734E+03 -0.38975486170E+02 -0.15941106799E+03  0.28467696747E+03  0.17300000000E+03 0.  1.
<mgrwt>
<rscale>  2 0.23585819E+03</rscale>
<asrwt>0</asrwt>
<pdfrwt beam="1">  1        2 0.19227629E-01 0.23585819E+03</pdfrwt>
<pdfrwt beam="2">  1       -2 0.68478109E-01 0.23585819E+03</pdfrwt>
<totfact> 0.58126305E+02</totfact>
</mgrwt>
</event>
<event>
 4    3  0.7748294E-001  0.1811987E+03  0.7546771E-02  0.1166648E+00
         -2   -1    0    0    0  501 -0.00000000000E+00  0.00000000000E+00  0.76089931930E+02  0.76089931930E+02  0.00000000000E+00 0.  1.
          2   -1    0    0  502    0  0.00000000000E+00 -0.00000000000E+00 -0.66217399144E+03  0.66217399144E+03  0.00000000000E+00 0. -1.
          6    1    1    2  502    0 -0.42749507153E+02  0.32809359604E+02 -0.51090971441E+03  0.54209013154E+03  0.17300000000E+03 0. -1.
         -6    1    1    2    0  501  0.42749507153E+02 -0.32809359604E+02 -0.75174345106E+02  0.19617379183E+03  0.17300000000E+03 0.  1.
<mgrwt>
<rscale>  2 0.18119872E+03</rscale>
<asrwt>0</asrwt>
<pdfrwt beam="1">  1        2 0.10187292E+00 0.18119872E+03</pdfrwt>
<pdfrwt beam="2">  1       -2 0.11706143E-01 0.18119872E+03</pdfrwt>
<totfact> 0.22869528E+03</totfact>
</mgrwt>
</event>
<event>
 4    3  0.7748294E-001  0.2718710E+03  0.7546771E-02  0.1100214E+00
          1   -1    0    0  502    0  0.00000000000E+00  0.00000000000E+00  0.15396617075E+04  0.15396617075E+04  0.00000000000E+00 0. -1.
         -1   -1    0    0    0  501 -0.00000000000E+00 -0.00000000000E+00 -0.48441397395E+02  0.48441397395E+02  0.00000000000E+00 0.  1.
          6    1    1    2  502    0 -0.67804208022E+02 -0.19846270460E+03  0.82084272319E+03  0.86469453100E+03  0.17300000000E+03 0. -1.
         -6    1    1    2    0  501  0.67804208022E+02  0.19846270460E+03  0.67037758696E+03  0.72340857393E+03  0.17300000000E+03 0.  1.
<mgrwt>
<rscale>  2 0.27187103E+03</rscale>
<asrwt>0</asrwt>
<pdfrwt beam="1">  1        1 0.23687099E+00 0.27187103E+03</pdfrwt>
<pdfrwt beam="2">  1       -1 0.74525238E-02 0.27187103E+03</pdfrwt>
<totfact> 0.64737950E+02</totfact>
</mgrwt>
</event>
<event>
 4    3  0.7748294E-001  0.1742118E+03  0.7546771E-02  0.1173525E+00
          2   -1    0    0  502    0  0.00000000000E+00  0.00000000000E+00  0.18124210325E+04  0.18124210325E+04  0.00000000000E+00 0.  1.
         -2   -1    0    0    0  501 -0.00000000000E+00 -0.00000000000E+00 -0.39079535668E+02  0.39079535668E+02  0.00000000000E+00 0. -1.
          6    1    1    2  502    0 -0.74527057050E+01 -0.19110648550E+02  0.15865183725E+04  0.15960546062E+04  0.17300000000E+03 0.  1.
         -6    1    1    2    0  501  0.74527057050E+01  0.19110648550E+02  0.18682312443E+03  0.25544596206E+03  0.17300000000E+03 0. -1.
<mgrwt>
<rscale>  2 0.17421182E+03</rscale>
<asrwt>0</asrwt>
<pdfrwt beam="1">  1        2 0.27883394E+00 0.17421182E+03</pdfrwt>
<pdfrwt beam="2">  1       -2 0.60122377E-02 0.17421182E+03</pdfrwt>
<totfact> 0.13877104E+03</totfact>
</mgrwt>
</event>
<event>
 4    3  0.7748294E-001  0.2152358E+03  0.7546771E-02  0.1137486E+00
          2   -1    0    0  502    0  0.00000000000E+00  0.00000000000E+00  0.22575485583E+04  0.22575485583E+04  0.00000000000E+00 0.  1.
         -2   -1    0    0    0  501 -0.00000000000E+00 -0.00000000000E+00 -0.76812729381E+02  0.76812729381E+02  0.00000000000E+00 0. -1.
          6    1    1    2  502    0 -0.10036250147E+03  0.79528814380E+02  0.91185107053E+02  0.23375454598E+03  0.17300000000E+03 0. -1.
         -6    1    1    2    0  501  0.10036250147E+03 -0.79528814380E+02  0.20895507218E+04  0.21006067417E+04  0.17300000000E+03 0.  1.
<mgrwt>
<rscale>  2 0.21523583E+03</rscale>
<asrwt>0</asrwt>
<pdfrwt beam="1">  1        2 0.34731511E+00 0.21523583E+03</pdfrwt>
<pdfrwt beam="2">  1       -2 0.11817345E-01 0.21523583E+03</pdfrwt>
<totfact> 0.27998519E+02</totfact>
</mgrwt>
</event>
<event>
 4    3  0.7748294E-001  0.6207120E+03  0.7546771E-02  0.9863343E-01
          2   -1    0    0  502    0  0.00000000000E+00  0.00000000000E+00  0.26155609052E+03  0.26155609052E+03  0.00000000000E+00 0. -1.
         -2   -1    0    0    0  501 -0.00000000000E+00 -0.00000000000E+00 -0.15196007848E+04  0.15196007848E+04  0.00000000000E+00 0.  1.
          6    1    1    2  502    0 -0.57817456841E+03  0.14515012203E+03 -0.78490694141E+03  0.10006809163E+04  0.17300000000E+03 0.  1.
         -6    1    1    2    0  501  0.57817456841E+03 -0.14515012203E+03 -0.47313775283E+03  0.78047595904E+03  0.17300000000E+03 0. -1.
<mgrwt>
<rscale>  2 0.62071200E+03</rscale>
<asrwt>0</asrwt>
<pdfrwt beam="1">  1        2 0.40239399E-01 0.62071200E+03</pdfrwt>
<pdfrwt beam="2">  1       -2 0.23378473E+00 0.62071200E+03</pdfrwt>
<totfact> 0.10752811E+01</totfact>
</mgrwt>
</event>
<event>
 4    3  0.7748294E-001  0.1839312E+03  0.7546771E-02  0.1164052E+00
          1   -1    0    0  502    0  0.00000000000E+00  0.00000000000E+00  0.26698591634E+03  0.26698591634E+03  0.00000000000E+00 0.  1.
         -1   -1    0    0    0  501 -0.00000000000E+00 -0.00000000000E+00 -0.13802196033E+03  0.13802196033E+03  0.00000000000E+00 0. -1.
          6    1    1    2  502    0  0.50266351916E+02  0.37080523275E+02  0.12244681391E+03  0.22096129430E+03  0.17300000000E+03 0.  1.
         -6    1    1    2    0  501 -0.50266351916E+02 -0.37080523275E+02  0.65171420922E+01  0.18404658237E+03  0.17300000000E+03 0. -1.
<mgrwt>
<rscale>  2 0.18393116E+03</rscale>
<asrwt>0</asrwt>
<pdfrwt beam="1">  1        1 0.41074756E-01 0.18393116E+03</pdfrwt>
<pdfrwt beam="2">  1       -1 0.21234148E-01 0.18393116E+03</pdfrwt>
<totfact> 0.18348926E+03</totfact>
</mgrwt>
</event>
<event>
 4    3  0.7748294E-001  0.1735573E+03  0.7546771E-02  0.1174188E+00
          1   -1    0    0  502    0  0.00000000000E+00  0.00000000000E+00  0.27416544280E+03  0.27416544280E+03  0.00000000000E+00 0.  1.
         -1   -1    0    0    0  501 -0.00000000000E+00 -0.00000000000E+00 -0.12631940726E+03  0.12631940726E+03  0.00000000000E+00 0. -1.
          6    1    1    2  502    0  0.13627960908E+02 -0.27200360814E+01  0.14618622574E+03  0.22691966092E+03  0.17300000000E+03 0.  1.
         -6    1    1    2    0  501 -0.13627960908E+02  0.27200360814E+01  0.16598098075E+01  0.17356518915E+03  0.17300000000E+03 0. -1.
<mgrwt>
<rscale>  2 0.17355725E+03</rscale>
<asrwt>0</asrwt>
<pdfrwt beam="1">  1        1 0.42179299E-01 0.17355725E+03</pdfrwt>
<pdfrwt beam="2">  1       -1 0.19433755E-01 0.17355725E+03</pdfrwt>
<totfact> 0.20455448E+03</totfact>
</mgrwt>
</event>
<event>
 4    3  0.7748294E-001  0.1776393E+03  0.7546771E-02  0.1170107E+00
          2   -1    0    0  502    0  0.00000000000E+00  0.00000000000E+00  0.19098609725E+04  0.19098609725E+04  0.00000000000E+00 0.  1.
         -2   -1    0    0    0  501 -0.00000000000E+00 -0.00000000000E+00 -0.21981953918E+02  0.21981953918E+02  0.00000000000E+00 0. -1.
          6    1    1    2  502    0 -0.37544054839E+02 -0.14736676329E+02  0.14253131191E+04  0.14363402150E+04  0.17300000000E+03 0.  1.
         -6    1    1    2    0  501  0.37544054839E+02  0.14736676329E+02  0.46256589951E+03  0.49550271147E+03  0.17300000000E+03 0. -1.
<mgrwt>
<rscale>  2 0.17763931E+03</rscale>
<asrwt>0</asrwt>
<pdfrwt beam="1">  1        2 0.29382463E+00 0.17763931E+03</pdfrwt>
<pdfrwt beam="2">  1       -2 0.33818406E-02 0.17763931E+03</pdfrwt>
<totfact> 0.29364006E+03</totfact>
</mgrwt>
</event>
<event>
 4    3  0.7748294E-001  0.2059662E+03  0.7546771E-02  0.1144801E+00
         -2   -1    0    0    0  501 -0.00000000000E+00  0.00000000000E+00  0.75481391583E+02  0.75481391583E+02  0.00000000000E+00 0.  1.
          2   -1    0    0  502    0  0.00000000000E+00 -0.00000000000E+00 -0.68098503831E+03  0.68098503831E+03  0.00000000000E+00 0. -1.
          6    1    1    2  502    0  0.10298213956E+03 -0.43448388078E+02 -0.14466350327E+03  0.25169348953E+03  0.17300000000E+03 0.  1.
         -6    1    1    2    0  501 -0.10298213956E+03  0.43448388078E+02 -0.46084014346E+03  0.50477294036E+03  0.17300000000E+03 0.  1.
<mgrwt>
<rscale>  2 0.20596622E+03</rscale>
<asrwt>0</asrwt>
<pdfrwt beam="1">  1        2 0.10476693E+00 0.20596622E+03</pdfrwt>
<pdfrwt beam="2">  1       -2 0.11612522E-01 0.20596622E+03</pdfrwt>
<totfact> 0.22468714E+03</totfact>
</mgrwt>
</event>
<event>
 4    3  0.7748294E-001  0.2015455E+03  0.7546771E-02  0.1148442E+00
          3   -1    0    0  502    0  0.00000000000E+00  0.00000000000E+00  0.37199353954E+03  0.37199353954E+03  0.00000000000E+00 0. -1.
         -3   -1    0    0    0  501 -0.00000000000E+00 -0.00000000000E+00 -0.11020780471E+03  0.11020780471E+03  0.00000000000E+00 0.  1.
          6    1    1    2  502    0 -0.92154119667E+02  0.46895493131E+02  0.15398326195E+03  0.25363638148E+03  0.17300000000E+03 0. -1.
         -6    1    1    2    0  501  0.92154119667E+02 -0.46895493131E+02  0.10780247288E+03  0.22856496277E+03  0.17300000000E+03 0.  1.
<mgrwt>
<rscale>  2 0.20154545E+03</rscale>
<asrwt>0</asrwt>
<pdfrwt beam="1">  1        3 0.57229775E-01 0.20154545E+03</pdfrwt>
<pdfrwt beam="2">  1       -3 0.16955047E-01 0.20154545E+03</pdfrwt>
<totfact> 0.22277813E+02</totfact>
</mgrwt>
</event>
<event>
 4    3  0.7748294E-001  0.2321626E+03  0.7546771E-02  0.1125127E+00
          3   -1    0    0  502    0  0.00000000000E+00  0.00000000000E+00  0.44464832349E+03  0.44464832349E+03  0.00000000000E+00 0. -1.
         -3   -1    0    0    0  501 -0.00000000000E+00 -0.00000000000E+00 -0.12131526859E+03  0.12131526859E+03  0.00000000000E+00 0.  1.
          6    1    1    2  502    0  0.19634625176E+02  0.15357394234E+03  0.16967068541E+03  0.28755454397E+03  0.17300000000E+03 0. -1.
         -6    1    1    2    0  501 -0.19634625176E+02 -0.15357394234E+03  0.15366236949E+03  0.27840904811E+03  0.17300000000E+03 0.  1.
<mgrwt>
<rscale>  2 0.23216260E+03</rscale>
<asrwt>0</asrwt>
<pdfrwt beam="1">  1        3 0.68407434E-01 0.23216260E+03</pdfrwt>
<pdfrwt beam="2">  1       -3 0.18663888E-01 0.23216260E+03</pdfrwt>
<totfact> 0.13135176E+02</totfact>
</mgrwt>
</event>
<event>
 4    3  0.7748294E-001  0.2480385E+03  0.7546771E-02  0.1114551E+00
          1   -1    0    0  502    0  0.00000000000E+00  0.00000000000E+00  0.30302442506E+04  0.30302442506E+04  0.00000000000E+00 0.  1.
         -1   -1    0    0    0  501 -0.00000000000E+00 -0.00000000000E+00 -0.22252301864E+02  0.22252301864E+02  0.00000000000E+00 0. -1.
          6    1    1    2  502    0  0.12901266284E+03  0.12226946348E+03  0.19557227140E+04  0.19713889578E+04  0.17300000000E+03 0.  1.
         -6    1    1    2    0  501 -0.12901266284E+03 -0.12226946348E+03  0.10522692348E+04  0.10811075947E+04  0.17300000000E+03 0. -1.
<mgrwt>
<rscale>  2 0.24803848E+03</rscale>
<asrwt>0</asrwt>
<pdfrwt beam="1">  1        1 0.46619109E+00 0.24803848E+03</pdfrwt>
<pdfrwt beam="2">  1       -1 0.34234335E-02 0.24803848E+03</pdfrwt>
<totfact> 0.21491435E+02</totfact>
</mgrwt>
</event>
<event>
 4    3  0.7748294E-001  0.2318774E+03  0.7546771E-02  0.1125325E+00
         -2   -1    0    0    0  501 -0.00000000000E+00  0.00000000000E+00  0.37291460926E+03  0.37291460926E+03  0.00000000000E+00 0.  1.
          2   -1    0    0  502    0  0.00000000000E+00 -0.00000000000E+00 -0.19913178877E+03  0.19913178877E+03  0.00000000000E+00 0. -1.
          6    1    1    2  502    0  0.77611826839E+02  0.13347105722E+03  0.23714290519E+03  0.33166832267E+03  0.17300000000E+03 0.  1.
         -6    1    1    2    0  501 -0.77611826839E+02 -0.13347105722E+03 -0.63360084702E+02  0.24037807536E+03  0.17300000000E+03 0.  1.
<mgrwt>
<rscale>  2 0.23187738E+03</rscale>
<asrwt>0</asrwt>
<pdfrwt beam="1">  1        2 0.30635660E-01 0.23187738E+03</pdfrwt>
<pdfrwt beam="2">  1       -2 0.57371478E-01 0.23187738E+03</pdfrwt>
<totfact> 0.49861138E+02</totfact>
</mgrwt>
</event>
<event>
 4    3  0.7748294E-001  0.4514363E+03  0.7546771E-02  0.1027295E+00
          1   -1    0    0  502    0  0.00000000000E+00  0.00000000000E+00  0.16559404633E+04  0.16559404633E+04  0.00000000000E+00 0.  1.
         -1   -1    0    0    0  501 -0.00000000000E+00 -0.00000000000E+00 -0.14938674409E+03  0.14938674409E+03  0.00000000000E+00 0. -1.
          6    1    1    2  502    0  0.36910288438E+03  0.19398151234E+03  0.37440261806E+03  0.58649133566E+03  0.17300000000E+03 0. -1.
         -6    1    1    2    0  501 -0.36910288438E+03 -0.19398151234E+03  0.11321511011E+04  0.12188358717E+04  0.17300000000E+03 0.  1.
<mgrwt>
<rscale>  2 0.45143634E+03</rscale>
<asrwt>0</asrwt>
<pdfrwt beam="1">  1        1 0.25476006E+00 0.45143634E+03</pdfrwt>
<pdfrwt beam="2">  1       -1 0.22982577E-01 0.45143634E+03</pdfrwt>
<totfact> 0.87956157E+01</totfact>
</mgrwt>
</event>
<event>
 4    3  0.7748294E-001  0.1859656E+03  0.7546771E-02  0.1162151E+00
         -2   -1    0    0    0  501 -0.00000000000E+00  0.00000000000E+00  0.17849286659E+03  0.17849286659E+03  0.00000000000E+00 0. -1.
          2   -1    0    0  502    0  0.00000000000E+00 -0.00000000000E+00 -0.19385225864E+03  0.19385225864E+03  0.00000000000E+00 0.  1.
          6    1    1    2  502    0  0.28712662492E+02 -0.61885376246E+02 -0.11929318128E+02  0.18634786130E+03  0.17300000000E+03 0.  1.
         -6    1    1    2    0  501 -0.28712662492E+02  0.61885376246E+02 -0.34300739189E+01  0.18599726393E+03  0.17300000000E+03 0. -1.
<mgrwt>
<rscale>  2 0.18596563E+03</rscale>
<asrwt>0</asrwt>
<pdfrwt beam="1">  1        2 0.29823424E-01 0.18596563E+03</pdfrwt>
<pdfrwt beam="2">  1       -2 0.27460441E-01 0.18596563E+03</pdfrwt>
<totfact> 0.20883938E+03</totfact>
</mgrwt>
</event>
<event>
 4    3  0.7748294E-001  0.2288822E+03  0.7546771E-02  0.1127429E+00
         -2   -1    0    0    0  501 -0.00000000000E+00  0.00000000000E+00  0.68606244833E+02  0.68606244833E+02  0.00000000000E+00 0. -1.
          2   -1    0    0  502    0  0.00000000000E+00 -0.00000000000E+00 -0.11090124845E+04  0.11090124845E+04  0.00000000000E+00 0.  1.
          6    1    1    2  502    0 -0.14686590195E+03  0.29807031398E+02 -0.19159241786E+03  0.29848736465E+03  0.17300000000E+03 0. -1.
         -6    1    1    2    0  501  0.14686590195E+03 -0.29807031398E+02 -0.84881382179E+03  0.87913136466E+03  0.17300000000E+03 0.  1.
<mgrwt>
<rscale>  2 0.22888218E+03</rscale>
<asrwt>0</asrwt>
<pdfrwt beam="1">  1        2 0.17061729E+00 0.22888218E+03</pdfrwt>
<pdfrwt beam="2">  1       -2 0.10554808E-01 0.22888218E+03</pdfrwt>
<totfact> 0.13751916E+03</totfact>
</mgrwt>
</event>
<event>
 4    3  0.7748294E-001  0.1979171E+03  0.7546771E-02  0.1151508E+00
          1   -1    0    0  502    0  0.00000000000E+00  0.00000000000E+00  0.78087377603E+02  0.78087377603E+02  0.00000000000E+00 0. -1.
         -1   -1    0    0    0  501 -0.00000000000E+00 -0.00000000000E+00 -0.53868499059E+03  0.53868499059E+03  0.00000000000E+00 0.  1.
          6    1    1    2  502    0 -0.30552712098E+02 -0.91152087313E+02 -0.14941979795E+03  0.24798678848E+03  0.17300000000E+03 0.  1.
         -6    1    1    2    0  501  0.30552712098E+02  0.91152087313E+02 -0.31117781503E+03  0.36878557972E+03  0.17300000000E+03 0. -1.
<mgrwt>
<rscale>  2 0.19791708E+03</rscale>
<asrwt>0</asrwt>
<pdfrwt beam="1">  1        1 0.12013443E-01 0.19791708E+03</pdfrwt>
<pdfrwt beam="2">  1       -1 0.82874615E-01 0.19791708E+03</pdfrwt>
<totfact> 0.75679205E+02</totfact>
</mgrwt>
</event>
<event>
 4    3  0.7748294E-001  0.1964857E+03  0.7546771E-02  0.1152738E+00
         -3   -1    0    0    0  501 -0.00000000000E+00  0.00000000000E+00  0.13288090103E+03  0.13288090103E+03  0.00000000000E+00 0.  1.
          3   -1    0    0  502    0  0.00000000000E+00 -0.00000000000E+00 -0.40323549770E+03  0.40323549770E+03  0.00000000000E+00 0. -1.
          6    1    1    2  502    0  0.55019280983E+02  0.75169845619E+02  0.65363098457E+01  0.19659438018E+03  0.17300000000E+03 0.  1.
         -6    1    1    2    0  501 -0.55019280983E+02 -0.75169845619E+02 -0.27689090652E+03  0.33952201856E+03  0.17300000000E+03 0. -1.
<mgrwt>
<rscale>  2 0.19648569E+03</rscale>
<asrwt>0</asrwt>
<pdfrwt beam="1">  1        3 0.62036230E-01 0.19648569E+03</pdfrwt>
<pdfrwt beam="2">  1       -3 0.20443216E-01 0.19648569E+03</pdfrwt>
<totfact> 0.13523320E+02</totfact>
</mgrwt>
</event>
<event>
 4    3  0.7748294E-001  0.1915035E+03  0.7546771E-02  0.1157112E+00
         -2   -1    0    0    0  501 -0.00000000000E+00  0.00000000000E+00  0.20020042516E+02  0.20020042516E+02  0.00000000000E+00 0. -1.
          2   -1    0    0  502    0  0.00000000000E+00 -0.00000000000E+00 -0.18384620308E+04  0.18384620308E+04  0.00000000000E+00 0.  1.
          6    1    1    2  502    0 -0.76391669220E+02  0.30147972601E+02 -0.85346680011E+03  0.87468803940E+03  0.17300000000E+03 0.  1.
         -6    1    1    2    0  501  0.76391669220E+02 -0.30147972601E+02 -0.96497518814E+03  0.98379403388E+03  0.17300000000E+03 0.  1.
<mgrwt>
<rscale>  2 0.19150349E+03</rscale>
<asrwt>0</asrwt>
<pdfrwt beam="1">  1        2 0.28284028E+00 0.19150349E+03</pdfrwt>
<pdfrwt beam="2">  1       -2 0.30800069E-02 0.19150349E+03</pdfrwt>
<totfact> 0.36734124E+03</totfact>
</mgrwt>
</event>
<event>
 4    3  0.7748294E-001  0.3381820E+03  0.7546771E-02  0.1067573E+00
         -2   -1    0    0    0  501 -0.00000000000E+00  0.00000000000E+00  0.10638593171E+03  0.10638593171E+03  0.00000000000E+00 0. -1.
          2   -1    0    0  502    0  0.00000000000E+00 -0.00000000000E+00 -0.18086677587E+04  0.18086677587E+04  0.00000000000E+00 0.  1.
          6    1    1    2  502    0  0.28473937245E+03 -0.57979135934E+02 -0.14609798062E+04  0.14996096440E+04  0.17300000000E+03 0.  1.
         -6    1    1    2    0  501 -0.28473937245E+03  0.57979135934E+02 -0.24130202081E+03  0.41544404638E+03  0.17300000000E+03 0. -1.
<mgrwt>
<rscale>  2 0.33818204E+03</rscale>
<asrwt>0</asrwt>
<pdfrwt beam="1">  1        2 0.27825655E+00 0.33818204E+03</pdfrwt>
<pdfrwt beam="2">  1       -2 0.16367068E-01 0.33818204E+03</pdfrwt>
<totfact> 0.27502421E+02</totfact>
</mgrwt>
</event>
<event>
 4    3  0.7748294E-001  0.1790291E+03  0.7546771E-02  0.1168746E+00
          3   -1    0    0  502    0  0.00000000000E+00  0.00000000000E+00  0.14909475439E+03  0.14909475439E+03  0.00000000000E+00 0.  1.
         -3   -1    0    0    0  501 -0.00000000000E+00 -0.00000000000E+00 -0.23984376208E+03  0.23984376208E+03  0.00000000000E+00 0. -1.
          6    1    1    2  502    0 -0.42814748630E+02  0.17009518139E+02  0.17247450733E+02  0.17985800223E+03  0.17300000000E+03 0.  1.
         -6    1    1    2    0  501  0.42814748630E+02 -0.17009518139E+02 -0.10799645842E+03  0.20908051425E+03  0.17300000000E+03 0. -1.
<mgrwt>
<rscale>  2 0.17902912E+03</rscale>
<asrwt>0</asrwt>
<pdfrwt beam="1">  1        3 0.22937655E-01 0.17902912E+03</pdfrwt>
<pdfrwt beam="2">  1       -3 0.36899040E-01 0.17902912E+03</pdfrwt>
<totfact> 0.30726063E+02</totfact>
</mgrwt>
</event>
<event>
 4    3  0.7748294E-001  0.2115682E+03  0.7546771E-02  0.1140330E+00
          1   -1    0    0  502    0  0.00000000000E+00  0.00000000000E+00  0.20507265866E+03  0.20507265866E+03  0.00000000000E+00 0.  1.
         -1   -1    0    0    0  501 -0.00000000000E+00 -0.00000000000E+00 -0.23480361653E+03  0.23480361653E+03  0.00000000000E+00 0. -1.
          6    1    1    2  502    0  0.35703011890E+02 -0.11643620362E+03 -0.73228723051E+02  0.22388287217E+03  0.17300000000E+03 0. -1.
         -6    1    1    2    0  501 -0.35703011890E+02  0.11643620362E+03  0.43497765184E+02  0.21599340302E+03  0.17300000000E+03 0.  1.
<mgrwt>
<rscale>  2 0.21156818E+03</rscale>
<asrwt>0</asrwt>
<pdfrwt beam="1">  1        1 0.31549640E-01 0.21156818E+03</pdfrwt>
<pdfrwt beam="2">  1       -1 0.36123633E-01 0.21156818E+03</pdfrwt>
<totfact> 0.10484632E+03</totfact>
</mgrwt>
</event>
<event>
 4    3  0.7748294E-001  0.2984085E+03  0.7546771E-02  0.1086039E+00
          2   -1    0    0  502    0  0.00000000000E+00  0.00000000000E+00  0.22144797198E+04  0.22144797198E+04  0.00000000000E+00 0.  1.
         -2   -1    0    0    0  501 -0.00000000000E+00 -0.00000000000E+00 -0.40904237034E+02  0.40904237034E+02  0.00000000000E+00 0. -1.
          6    1    1    2  502    0  0.75380071427E+01 -0.24302641159E+03  0.94003865874E+03  0.98626585575E+03  0.17300000000E+03 0.  1.
         -6    1    1    2    0  501 -0.75380071427E+01  0.24302641159E+03  0.12335368240E+04  0.12691181010E+04  0.17300000000E+03 0.  1.
<mgrwt>
<rscale>  2 0.29840854E+03</rscale>
<asrwt>0</asrwt>
<pdfrwt beam="1">  1        2 0.34068909E+00 0.29840854E+03</pdfrwt>
<pdfrwt beam="2">  1       -2 0.62929613E-02 0.29840854E+03</pdfrwt>
<totfact> 0.78353514E+02</totfact>
</mgrwt>
</event>
<event>
 4    3  0.7748294E-001  0.2376411E+03  0.7546771E-02  0.1121374E+00
         -2   -1    0    0    0  501 -0.00000000000E+00  0.00000000000E+00  0.11643794760E+04  0.11643794760E+04  0.00000000000E+00 0. -1.
          2   -1    0    0  502    0  0.00000000000E+00 -0.00000000000E+00 -0.65652382688E+02  0.65652382688E+02  0.00000000000E+00 0.  1.
          6    1    1    2  502    0  0.74544374589E+02  0.14487036306E+03  0.86371376396E+03  0.89580955115E+03  0.17300000000E+03 0.  1.
         -6    1    1    2    0  501 -0.74544374589E+02 -0.14487036306E+03  0.23501332932E+03  0.33422230751E+03  0.17300000000E+03 0.  1.
<mgrwt>
<rscale>  2 0.23764109E+03</rscale>
<asrwt>0</asrwt>
<pdfrwt beam="1">  1        2 0.10100367E-01 0.23764109E+03</pdfrwt>
<pdfrwt beam="2">  1       -2 0.17913529E+00 0.23764109E+03</pdfrwt>
<totfact> 0.12503871E+02</totfact>
</mgrwt>
</event>
<event>
 4    3  0.7748294E-001  0.3606928E+03  0.7546771E-02  0.1058310E+00
         -1   -1    0    0    0  501 -0.00000000000E+00  0.00000000000E+00  0.25299643448E+03  0.25299643448E+03  0.00000000000E+00 0.  1.
          1   -1    0    0  502    0  0.00000000000E+00 -0.00000000000E+00 -0.90708402889E+03  0.90708402889E+03  0.00000000000E+00 0. -1.
          6    1    1    2  502    0  0.17207047182E+03 -0.26563522637E+03  0.54678787781E+02  0.36481377522E+03  0.17300000000E+03 0. -1.
         -6    1    1    2    0  501 -0.17207047182E+03  0.26563522637E+03 -0.70876638219E+03  0.79526668815E+03  0.17300000000E+03 0.  1.
<mgrwt>
<rscale>  2 0.36069283E+03</rscale>
<asrwt>0</asrwt>
<pdfrwt beam="1">  1        1 0.13955139E+00 0.36069283E+03</pdfrwt>
<pdfrwt beam="2">  1       -1 0.38922528E-01 0.36069283E+03</pdfrwt>
<totfact> 0.12181803E+02</totfact>
</mgrwt>
</event>
<event>
 4    3  0.7748294E-001  0.2609886E+03  0.7546771E-02  0.1106551E+00
         -1   -1    0    0    0  501 -0.00000000000E+00  0.00000000000E+00  0.58566782052E+02  0.58566782052E+02  0.00000000000E+00 0. -1.
          1   -1    0    0  502    0  0.00000000000E+00 -0.00000000000E+00 -0.11729753788E+04  0.11729753788E+04  0.00000000000E+00 0.  1.
          6    1    1    2  502    0  0.12825982440E+03 -0.14742955245E+03 -0.50051035358E+03  0.56446936988E+03  0.17300000000E+03 0. -1.
         -6    1    1    2    0  501 -0.12825982440E+03  0.14742955245E+03 -0.61389824318E+03  0.66707279098E+03  0.17300000000E+03 0.  1.
<mgrwt>
<rscale>  2 0.26098861E+03</rscale>
<asrwt>0</asrwt>
<pdfrwt beam="1">  1        1 0.18045775E+00 0.26098861E+03</pdfrwt>
<pdfrwt beam="2">  1       -1 0.90102741E-02 0.26098861E+03</pdfrwt>
<totfact> 0.85931840E+02</totfact>
</mgrwt>
</event>
<event>
 4    3  0.7748294E-001  0.2083743E+03  0.7546771E-02  0.1142860E+00
          2   -1    0    0  502    0  0.00000000000E+00  0.00000000000E+00  0.26546264819E+04  0.26546264819E+04  0.00000000000E+00 0. -1.
         -2   -1    0    0    0  501 -0.00000000000E+00 -0.00000000000E+00 -0.18062421966E+02  0.18062421966E+02  0.00000000000E+00 0.  1.
          6    1    1    2  502    0  0.76048579883E+02 -0.87792099532E+02  0.90757059265E+03  0.93118431037E+03  0.17300000000E+03 0. -1.
         -6    1    1    2    0  501 -0.76048579883E+02  0.87792099532E+02  0.17289934673E+04  0.17415045935E+04  0.17300000000E+03 0.  1.
<mgrwt>
<rscale>  2 0.20837428E+03</rscale>
<asrwt>0</asrwt>
<pdfrwt beam="1">  1        2 0.40840376E+00 0.20837428E+03</pdfrwt>
<pdfrwt beam="2">  1       -2 0.27788363E-02 0.20837428E+03</pdfrwt>
<totfact> 0.15765157E+03</totfact>
</mgrwt>
</event>
<event>
 4    3  0.7748294E-001  0.2632476E+03  0.7546771E-02  0.1105208E+00
         -1   -1    0    0    0  501 -0.00000000000E+00  0.00000000000E+00  0.17171359074E+03  0.17171359074E+03  0.00000000000E+00 0. -1.
          1   -1    0    0  502    0  0.00000000000E+00 -0.00000000000E+00 -0.55823836137E+03  0.55823836137E+03  0.00000000000E+00 0.  1.
          6    1    1    2  502    0  0.70404588692E+02  0.18550881120E+03 -0.38537153868E+03  0.46670177626E+03  0.17300000000E+03 0.  1.
         -6    1    1    2    0  501 -0.70404588692E+02 -0.18550881120E+03 -0.11532319577E+01  0.26325017585E+03  0.17300000000E+03 0. -1.
<mgrwt>
<rscale>  2 0.26324765E+03</rscale>
<asrwt>0</asrwt>
<pdfrwt beam="1">  1        1 0.85882827E-01 0.26324765E+03</pdfrwt>
<pdfrwt beam="2">  1       -1 0.26417475E-01 0.26324765E+03</pdfrwt>
<totfact> 0.49628223E+02</totfact>
</mgrwt>
</event>
<event>
 4    3  0.7748294E-001  0.2001119E+03  0.7546771E-02  0.1149645E+00
          1   -1    0    0  502    0  0.00000000000E+00  0.00000000000E+00  0.23030427660E+04  0.23030427660E+04  0.00000000000E+00 0. -1.
         -1   -1    0    0    0  501 -0.00000000000E+00 -0.00000000000E+00 -0.22874094181E+02  0.22874094181E+02  0.00000000000E+00 0.  1.
          6    1    1    2  502    0 -0.47292386002E+00 -0.10057605374E+03  0.57053260990E+03  0.60460915077E+03  0.17300000000E+03 0.  1.
         -6    1    1    2    0  501  0.47292386002E+00  0.10057605374E+03  0.17096360619E+04  0.17213077094E+04  0.17300000000E+03 0. -1.
<mgrwt>
<rscale>  2 0.20011188E+03</rscale>
<asrwt>0</asrwt>
<pdfrwt beam="1">  1        1 0.35431409E+00 0.20011188E+03</pdfrwt>
<pdfrwt beam="2">  1       -1 0.35190932E-02 0.20011188E+03</pdfrwt>
<totfact> 0.64380066E+02</totfact>
</mgrwt>
</event>
<event>
 4    3  0.7748294E-001  0.2479565E+03  0.7546771E-02  0.1114603E+00
          1   -1    0    0  502    0  0.00000000000E+00  0.00000000000E+00  0.76187303626E+03  0.76187303626E+03  0.00000000000E+00 0.  1.
         -1   -1    0    0    0  501 -0.00000000000E+00 -0.00000000000E+00 -0.85545896795E+02  0.85545896795E+02  0.00000000000E+00 0. -1.
          6    1    1    2  502    0  0.17624969288E+03  0.22124338994E+02  0.23730852840E+03  0.34321680942E+03  0.17300000000E+03 0. -1.
         -6    1    1    2    0  501 -0.17624969288E+03 -0.22124338994E+02  0.43901861106E+03  0.50420212363E+03  0.17300000000E+03 0. -1.
<mgrwt>
<rscale>  2 0.24795653E+03</rscale>
<asrwt>0</asrwt>
<pdfrwt beam="1">  1        1 0.11721123E+00 0.24795653E+03</pdfrwt>
<pdfrwt beam="2">  1       -1 0.13160908E-01 0.24795653E+03</pdfrwt>
<totfact> 0.98536645E+02</totfact>
</mgrwt>
</event>
<event>
 4    3  0.7748294E-001  0.1883433E+03  0.7546771E-02  0.1159964E+00
         -2   -1    0    0    0  501 -0.00000000000E+00  0.00000000000E+00  0.21817470333E+03  0.21817470333E+03  0.00000000000E+00 0. -1.
          2   -1    0    0  502    0  0.00000000000E+00 -0.00000000000E+00 -0.30174932503E+03  0.30174932503E+03  0.00000000000E+00 0.  1.
          6    1    1    2  502    0 -0.24521461389E+02  0.70305681013E+02  0.13475211518E+03  0.23158437641E+03  0.17300000000E+03 0. -1.
         -6    1    1    2    0  501  0.24521461389E+02 -0.70305681013E+02 -0.21832673688E+03  0.28833965195E+03  0.17300000000E+03 0.  1.
<mgrwt>
<rscale>  2 0.18834328E+03</rscale>
<asrwt>0</asrwt>
<pdfrwt beam="1">  1        2 0.46422973E-01 0.18834328E+03</pdfrwt>
<pdfrwt beam="2">  1       -2 0.33565339E-01 0.18834328E+03</pdfrwt>
<totfact> 0.90038990E+02</totfact>
</mgrwt>
</event>
<event>
 4    3  0.7748294E-001  0.2015127E+03  0.7546771E-02  0.1148469E+00
         -2   -1    0    0    0  501 -0.00000000000E+00  0.00000000000E+00  0.57940858958E+02  0.57940858958E+02  0.00000000000E+00 0.  1.
          2   -1    0    0  502    0  0.00000000000E+00 -0.00000000000E+00 -0.81730274273E+03  0.81730274273E+03  0.00000000000E+00 0. -1.
          6    1    1    2  502    0 -0.10735650282E+02 -0.10277700144E+03 -0.54487633538E+03  0.58094542521E+03  0.17300000000E+03 0. -1.
         -6    1    1    2    0  501  0.10735650282E+02  0.10277700144E+03 -0.21448554839E+03  0.29429817648E+03  0.17300000000E+03 0.  1.
<mgrwt>
<rscale>  2 0.20151269E+03</rscale>
<asrwt>0</asrwt>
<pdfrwt beam="1">  1        2 0.12573887E+00 0.20151269E+03</pdfrwt>
<pdfrwt beam="2">  1       -2 0.89139790E-02 0.20151269E+03</pdfrwt>
<totfact> 0.27297401E+03</totfact>
</mgrwt>
</event>
<event>
 4    3  0.7748294E-001  0.2034457E+03  0.7546771E-02  0.1146864E+00
         -4   -1    0    0    0  501 -0.00000000000E+00  0.00000000000E+00  0.16168526660E+04  0.16168526660E+04  0.00000000000E+00 0. -1.
          4   -1    0    0  502    0  0.00000000000E+00 -0.00000000000E+00 -0.52616692969E+02  0.52616692969E+02  0.00000000000E+00 0.  1.
          6    1    1    2  502    0 -0.74850833439E+02 -0.76540761803E+02  0.18396923229E+03  0.27428965331E+03  0.17300000000E+03 0.  1.
         -6    1    1    2    0  501  0.74850833439E+02  0.76540761803E+02  0.13802667407E+04  0.13951797056E+04  0.17300000000E+03 0. -1.
<mgrwt>
<rscale>  2 0.20344566E+03</rscale>
<asrwt>0</asrwt>
<pdfrwt beam="1">  1        4 0.80948771E-02 0.20344566E+03</pdfrwt>
<pdfrwt beam="2">  1       -4 0.24874653E+00 0.20344566E+03</pdfrwt>
<totfact> 0.14193292E+01</totfact>
</mgrwt>
</event>
<event>
 4    3  0.7748294E-001  0.2361831E+03  0.7546771E-02  0.1122362E+00
          2   -1    0    0  502    0  0.00000000000E+00  0.00000000000E+00  0.34118046010E+03  0.34118046010E+03  0.00000000000E+00 0.  1.
         -2   -1    0    0    0  501 -0.00000000000E+00 -0.00000000000E+00 -0.18095788395E+03  0.18095788395E+03  0.00000000000E+00 0. -1.
          6    1    1    2  502    0  0.15967195269E+03 -0.18929391177E+02  0.16120416749E+03  0.28595320936E+03  0.17300000000E+03 0.  1.
         -6    1    1    2    0  501 -0.15967195269E+03  0.18929391177E+02 -0.98159134475E+00  0.23618513469E+03  0.17300000000E+03 0. -1.
<mgrwt>
<rscale>  2 0.23618309E+03</rscale>
<asrwt>0</asrwt>
<pdfrwt beam="1">  1        2 0.52489302E-01 0.23618309E+03</pdfrwt>
<pdfrwt beam="2">  1       -2 0.27839674E-01 0.23618309E+03</pdfrwt>
<totfact> 0.11125068E+03</totfact>
</mgrwt>
</event>
<event>
 4    3  0.7748294E-001  0.2014534E+03  0.7546771E-02  0.1148519E+00
         -1   -1    0    0    0  501 -0.00000000000E+00  0.00000000000E+00  0.44066471673E+02  0.44066471673E+02  0.00000000000E+00 0. -1.
          1   -1    0    0  502    0  0.00000000000E+00 -0.00000000000E+00 -0.97546652779E+03  0.97546652779E+03  0.00000000000E+00 0.  1.
          6    1    1    2  502    0 -0.55432548122E+02  0.87073040464E+02 -0.34519998743E+03  0.39968301577E+03  0.17300000000E+03 0.  1.
         -6    1    1    2    0  501  0.55432548122E+02 -0.87073040464E+02 -0.58620006868E+03  0.61984998370E+03  0.17300000000E+03 0.  1.
<mgrwt>
<rscale>  2 0.20145342E+03</rscale>
<asrwt>0</asrwt>
<pdfrwt beam="1">  1        1 0.15007176E+00 0.20145342E+03</pdfrwt>
<pdfrwt beam="2">  1       -1 0.67794578E-02 0.20145342E+03</pdfrwt>
<totfact> 0.18473753E+03</totfact>
</mgrwt>
</event>
<event>
 4    3  0.7748294E-001  0.1739890E+03  0.7546771E-02  0.1173751E+00
          1   -1    0    0  502    0  0.00000000000E+00  0.00000000000E+00  0.58859822645E+03  0.58859822645E+03  0.00000000000E+00 0.  1.
         -1   -1    0    0    0  501 -0.00000000000E+00 -0.00000000000E+00 -0.51433508706E+02  0.51433508706E+02  0.00000000000E+00 0. -1.
          6    1    1    2  502    0  0.18216723870E+02 -0.33647372338E+01  0.26632861582E+03  0.31812435004E+03  0.17300000000E+03 0. -1.
         -6    1    1    2    0  501 -0.18216723870E+02  0.33647372338E+01  0.27083610192E+03  0.32190738511E+03  0.17300000000E+03 0. -1.
<mgrwt>
<rscale>  2 0.17398900E+03</rscale>
<asrwt>0</asrwt>
<pdfrwt beam="1">  1        1 0.90553569E-01 0.17398900E+03</pdfrwt>
<pdfrwt beam="2">  1       -1 0.79128479E-02 0.17398900E+03</pdfrwt>
<totfact> 0.31129787E+03</totfact>
</mgrwt>
</event>
<event>
 4    3  0.7748294E-001  0.2147127E+03  0.7546771E-02  0.1137887E+00
         -2   -1    0    0    0  501 -0.00000000000E+00  0.00000000000E+00  0.91519956463E+02  0.91519956463E+02  0.00000000000E+00 0.  1.
          2   -1    0    0  502    0  0.00000000000E+00 -0.00000000000E+00 -0.50466688442E+03  0.50466688442E+03  0.00000000000E+00 0. -1.
          6    1    1    2  502    0  0.12717135074E+03  0.82958753992E-01 -0.21940138553E+03  0.30698294302E+03  0.17300000000E+03 0. -1.
         -6    1    1    2    0  501 -0.12717135074E+03 -0.82958753992E-01 -0.19374554243E+03  0.28920389787E+03  0.17300000000E+03 0. -1.
<mgrwt>
<rscale>  2 0.21471274E+03</rscale>
<asrwt>0</asrwt>
<pdfrwt beam="1">  1        2 0.77641060E-01 0.21471274E+03</pdfrwt>
<pdfrwt beam="2">  1       -2 0.14079993E-01 0.21471274E+03</pdfrwt>
<totfact> 0.23239511E+03</totfact>
</mgrwt>
</event>
<event>
 4    3  0.7748294E-001  0.1795277E+03  0.7546771E-02  0.1168261E+00
          1   -1    0    0  502    0  0.00000000000E+00  0.00000000000E+00  0.52719164076E+02  0.52719164076E+02  0.00000000000E+00 0.  1.
         -1   -1    0    0    0  501 -0.00000000000E+00 -0.00000000000E+00 -0.63232672177E+03  0.63232672177E+03  0.00000000000E+00 0. -1.
          6    1    1    2  502    0  0.42425762945E+02 -0.22388227440E+02 -0.35218091447E+03  0.39529934810E+03  0.17300000000E+03 0.  1.
         -6    1    1    2    0  501 -0.42425762945E+02  0.22388227440E+02 -0.22742664322E+03  0.28974653775E+03  0.17300000000E+03 0.  1.
<mgrwt>
<rscale>  2 0.17952765E+03</rscale>
<asrwt>0</asrwt>
<pdfrwt beam="1">  1        1 0.81106396E-02 0.17952765E+03</pdfrwt>
<pdfrwt beam="2">  1       -1 0.97281046E-01 0.17952765E+03</pdfrwt>
<totfact> 0.90767149E+02</totfact>
</mgrwt>
</event>
<event>
 4    3  0.7748294E-001  0.1865886E+03  0.7546771E-02  0.1161575E+00
          2   -1    0    0  502    0  0.00000000000E+00  0.00000000000E+00  0.15026585494E+04  0.15026585494E+04  0.00000000000E+00 0. -1.
         -2   -1    0    0    0  501 -0.00000000000E+00 -0.00000000000E+00 -0.25387473913E+02  0.25387473913E+02  0.00000000000E+00 0.  1.
          6    1    1    2  502    0 -0.79846071196E+00 -0.69897558027E+02  0.96448037277E+03  0.98236332160E+03  0.17300000000E+03 0. -1.
         -6    1    1    2    0  501  0.79846071196E+00  0.69897558027E+02  0.51279070269E+03  0.54568270169E+03  0.17300000000E+03 0.  1.
<mgrwt>
<rscale>  2 0.18658860E+03</rscale>
<asrwt>0</asrwt>
<pdfrwt beam="1">  1        2 0.23117817E+00 0.18658860E+03</pdfrwt>
<pdfrwt beam="2">  1       -2 0.39057664E-02 0.18658860E+03</pdfrwt>
<totfact> 0.38581383E+03</totfact>
</mgrwt>
</event>
<event>
 4    3  0.7748294E-001  0.1839008E+03  0.7546771E-02  0.1164080E+00
          2   -1    0    0  502    0  0.00000000000E+00  0.00000000000E+00  0.11489057763E+04  0.11489057763E+04  0.00000000000E+00 0. -1.
         -2   -1    0    0    0  501 -0.00000000000E+00 -0.00000000000E+00 -0.30265375411E+02  0.30265375411E+02  0.00000000000E+00 0.  1.
          6    1    1    2  502    0  0.41982108527E+02  0.46130422783E+02  0.65690356675E+03  0.68215966559E+03  0.17300000000E+03 0.  1.
         -6    1    1    2    0  501 -0.41982108527E+02 -0.46130422783E+02  0.46173683418E+03  0.49701148617E+03  0.17300000000E+03 0.  1.
<mgrwt>
<rscale>  2 0.18390082E+03</rscale>
<asrwt>0</asrwt>
<pdfrwt beam="1">  1        2 0.17675470E+00 0.18390082E+03</pdfrwt>
<pdfrwt beam="2">  1       -2 0.46562125E-02 0.18390082E+03</pdfrwt>
<totfact> 0.46189015E+03</totfact>
</mgrwt>
</event>
<event>
 4    3  0.7748294E-001  0.2286576E+03  0.7546771E-02  0.1127588E+00
         -4   -1    0    0    0  501 -0.00000000000E+00  0.00000000000E+00  0.62322004346E+03  0.62322004346E+03  0.00000000000E+00 0.  1.
          4   -1    0    0  502    0  0.00000000000E+00 -0.00000000000E+00 -0.84123539864E+02  0.84123539864E+02  0.00000000000E+00 0. -1.
          6    1    1    2  502    0 -0.14761188332E+03 -0.23791279363E+02  0.25106549164E+03  0.33958529733E+03  0.17300000000E+03 0.  1.
         -6    1    1    2    0  501  0.14761188332E+03  0.23791279363E+02  0.28803101195E+03  0.36775828599E+03  0.17300000000E+03 0. -1.
<mgrwt>
<rscale>  2 0.22865759E+03</rscale>
<asrwt>0</asrwt>
<pdfrwt beam="1">  1        4 0.12942083E-01 0.22865759E+03</pdfrwt>
<pdfrwt beam="2">  1       -4 0.95880004E-01 0.22865759E+03</pdfrwt>
<totfact> 0.83088611E+01</totfact>
</mgrwt>
</event>
<event>
 4    3  0.7748294E-001  0.2213594E+03  0.7546771E-02  0.1132874E+00
          1   -1    0    0  502    0  0.00000000000E+00  0.00000000000E+00  0.30857576129E+03  0.30857576129E+03  0.00000000000E+00 0. -1.
         -1   -1    0    0    0  501 -0.00000000000E+00 -0.00000000000E+00 -0.21534855514E+03  0.21534855514E+03  0.00000000000E+00 0.  1.
          6    1    1    2  502    0  0.93656699001E+02  0.10148607807E+03  0.18085952501E+03  0.28584990659E+03  0.17300000000E+03 0. -1.
         -6    1    1    2    0  501 -0.93656699001E+02 -0.10148607807E+03 -0.87632318863E+02  0.23807440984E+03  0.17300000000E+03 0.  1.
<mgrwt>
<rscale>  2 0.22135944E+03</rscale>
<asrwt>0</asrwt>
<pdfrwt beam="1">  1        1 0.47473194E-01 0.22135944E+03</pdfrwt>
<pdfrwt beam="2">  1       -1 0.33130547E-01 0.22135944E+03</pdfrwt>
<totfact> 0.72962807E+02</totfact>
</mgrwt>
</event>
<event>
 4    3  0.7748294E-001  0.1829908E+03  0.7546771E-02  0.1164940E+00
         -2   -1    0    0    0  501 -0.00000000000E+00  0.00000000000E+00  0.27164558618E+03  0.27164558618E+03  0.00000000000E+00 0.  1.
          2   -1    0    0  502    0  0.00000000000E+00 -0.00000000000E+00 -0.13751295366E+03  0.13751295366E+03  0.00000000000E+00 0. -1.
          6    1    1    2  502    0  0.56498718896E+02  0.19092656819E+02  0.12253197586E+01  0.18299490755E+03  0.17300000000E+03 0. -1.
         -6    1    1    2    0  501 -0.56498718896E+02 -0.19092656819E+02  0.13290731276E+03  0.22616363228E+03  0.17300000000E+03 0.  1.
<mgrwt>
<rscale>  2 0.18299081E+03</rscale>
<asrwt>0</asrwt>
<pdfrwt beam="1">  1        2 0.21155839E-01 0.18299081E+03</pdfrwt>
<pdfrwt beam="2">  1       -2 0.41791629E-01 0.18299081E+03</pdfrwt>
<totfact> 0.14070137E+03</totfact>
</mgrwt>
</event>
<event>
 4    3  0.7748294E-001  0.1740773E+03  0.7546771E-02  0.1173661E+00
         -1   -1    0    0    0  501 -0.00000000000E+00  0.00000000000E+00  0.14526474238E+03  0.14526474238E+03  0.00000000000E+00 0.  1.
          1   -1    0    0  502    0  0.00000000000E+00 -0.00000000000E+00 -0.21062470134E+03  0.21062470134E+03  0.00000000000E+00 0. -1.
          6    1    1    2  502    0  0.11128395606E+02 -0.15813201413E+02 -0.15253353855E+02  0.17474427982E+03  0.17300000000E+03 0.  1.
         -6    1    1    2    0  501 -0.11128395606E+02  0.15813201413E+02 -0.50106605103E+02  0.18114516390E+03  0.17300000000E+03 0.  1.
<mgrwt>
<rscale>  2 0.17407728E+03</rscale>
<asrwt>0</asrwt>
<pdfrwt beam="1">  1        1 0.32403800E-01 0.17407728E+03</pdfrwt>
<pdfrwt beam="2">  1       -1 0.22348422E-01 0.17407728E+03</pdfrwt>
<totfact> 0.22655125E+03</totfact>
</mgrwt>
</event>
<event>
 4    3  0.7748294E-001  0.2705886E+03  0.7546771E-02  0.1100943E+00
          3   -1    0    0  502    0  0.00000000000E+00  0.00000000000E+00  0.26668550258E+03  0.26668550258E+03  0.00000000000E+00 0.  1.
         -3   -1    0    0    0  501 -0.00000000000E+00 -0.00000000000E+00 -0.29688343356E+03  0.29688343356E+03  0.00000000000E+00 0. -1.
          6    1    1    2  502    0  0.17177143885E+03 -0.11740422656E+03  0.62189319505E+02  0.27764310018E+03  0.17300000000E+03 0.  1.
         -6    1    1    2    0  501 -0.17177143885E+03  0.11740422656E+03 -0.92387250483E+02  0.28592583596E+03  0.17300000000E+03 0. -1.
<mgrwt>
<rscale>  2 0.27058858E+03</rscale>
<asrwt>0</asrwt>
<pdfrwt beam="1">  1        3 0.41028539E-01 0.27058858E+03</pdfrwt>
<pdfrwt beam="2">  1       -3 0.45674374E-01 0.27058858E+03</pdfrwt>
<totfact> 0.70733014E+01</totfact>
</mgrwt>
</event>
<event>
 4    3  0.7748294E-001  0.1968908E+03  0.7546771E-02  0.1152389E+00
          3   -1    0    0  502    0  0.00000000000E+00  0.00000000000E+00  0.60398380549E+02  0.60398380549E+02  0.00000000000E+00 0.  1.
         -3   -1    0    0    0  501 -0.00000000000E+00 -0.00000000000E+00 -0.66251264863E+03  0.66251264863E+03  0.00000000000E+00 0. -1.
          6    1    1    2  502    0  0.91144709575E+02 -0.23013316987E+02 -0.23720466511E+03  0.30827264555E+03  0.17300000000E+03 0.  1.
         -6    1    1    2    0  501 -0.91144709575E+02  0.23013316987E+02 -0.36490960297E+03  0.41463838364E+03  0.17300000000E+03 0. -1.
<mgrwt>
<rscale>  2 0.19689076E+03</rscale>
<asrwt>0</asrwt>
<pdfrwt beam="1">  1        3 0.92920578E-02 0.19689076E+03</pdfrwt>
<pdfrwt beam="2">  1       -3 0.10192503E+00 0.19689076E+03</pdfrwt>
<totfact> 0.17605563E+02</totfact>
</mgrwt>
</event>
<event>
 4    3  0.7748294E-001  0.2213728E+03  0.7546771E-02  0.1132864E+00
          1   -1    0    0  502    0  0.00000000000E+00  0.00000000000E+00  0.21013670126E+02  0.21013670126E+02  0.00000000000E+00 0. -1.
         -1   -1    0    0    0  501 -0.00000000000E+00 -0.00000000000E+00 -0.24581756834E+04  0.24581756834E+04  0.00000000000E+00 0.  1.
          6    1    1    2  502    0 -0.43729349095E+02 -0.13101401739E+03 -0.14993137823E+04  0.15155684565E+04  0.17300000000E+03 0.  1.
         -6    1    1    2    0  501  0.43729349095E+02  0.13101401739E+03 -0.93784823097E+03  0.96362089696E+03  0.17300000000E+03 0. -1.
<mgrwt>
<rscale>  2 0.22137283E+03</rscale>
<asrwt>0</asrwt>
<pdfrwt beam="1">  1        1 0.32328731E-02 0.22137283E+03</pdfrwt>
<pdfrwt beam="2">  1       -1 0.37818078E+00 0.22137283E+03</pdfrwt>
<totfact> 0.37971487E+01</totfact>
</mgrwt>
</event>
<event>
 4    3  0.7748294E-001  0.1836837E+03  0.7546771E-02  0.1164285E+00
          2   -1    0    0  502    0  0.00000000000E+00  0.00000000000E+00  0.24677743997E+04  0.24677743997E+04  0.00000000000E+00 0.  1.
         -2   -1    0    0    0  501 -0.00000000000E+00 -0.00000000000E+00 -0.17001384778E+02  0.17001384778E+02  0.00000000000E+00 0. -1.
          6    1    1    2  502    0  0.57801960728E+02  0.21671139329E+02  0.67560604320E+03  0.70013086673E+03  0.17300000000E+03 0. -1.
         -6    1    1    2    0  501 -0.57801960728E+02 -0.21671139329E+02  0.17751669717E+04  0.17846449178E+04  0.17300000000E+03 0.  1.
<mgrwt>
<rscale>  2 0.18368371E+03</rscale>
<asrwt>0</asrwt>
<pdfrwt beam="1">  1        2 0.37965732E+00 0.18368371E+03</pdfrwt>
<pdfrwt beam="2">  1       -2 0.26155996E-02 0.18368371E+03</pdfrwt>
<totfact> 0.21877488E+03</totfact>
</mgrwt>
</event>
<event>
 4    3  0.7748294E-001  0.2821024E+03  0.7546771E-02  0.1094546E+00
         -1   -1    0    0    0  501 -0.00000000000E+00  0.00000000000E+00  0.14178584597E+04  0.14178584597E+04  0.00000000000E+00 0. -1.
          1   -1    0    0  502    0  0.00000000000E+00 -0.00000000000E+00 -0.58546475262E+02  0.58546475262E+02  0.00000000000E+00 0.  1.
          6    1    1    2  502    0 -0.16540017281E+03 -0.14931695762E+03  0.52962445653E+03  0.60006985923E+03  0.17300000000E+03 0.  1.
         -6    1    1    2    0  501  0.16540017281E+03  0.14931695762E+03  0.82968752794E+03  0.87633507577E+03  0.17300000000E+03 0. -1.
<mgrwt>
<rscale>  2 0.28210241E+03</rscale>
<asrwt>0</asrwt>
<pdfrwt beam="1">  1        1 0.90071511E-02 0.28210241E+03</pdfrwt>
<pdfrwt beam="2">  1       -1 0.21813205E+00 0.28210241E+03</pdfrwt>
<totfact> 0.93768101E+01</totfact>
</mgrwt>
</event>
<event>
 4    3  0.7748294E-001  0.1785372E+03  0.7546771E-02  0.1169226E+00
          2   -1    0    0  502    0  0.00000000000E+00  0.00000000000E+00  0.44949677791E+03  0.44949677791E+03  0.00000000000E+00 0.  1.
         -2   -1    0    0    0  501 -0.00000000000E+00 -0.00000000000E+00 -0.76339113973E+02  0.76339113973E+02  0.00000000000E+00 0. -1.
          6    1    1    2  502    0 -0.42967660028E+02 -0.10015619397E+02  0.11648845202E+03  0.21317854464E+03  0.17300000000E+03 0. -1.
         -6    1    1    2    0  501  0.42967660028E+02  0.10015619397E+02  0.25666921192E+03  0.31265734725E+03  0.17300000000E+03 0.  1.
<mgrwt>
<rscale>  2 0.17853720E+03</rscale>
<asrwt>0</asrwt>
<pdfrwt beam="1">  1        2 0.69153349E-01 0.17853720E+03</pdfrwt>
<pdfrwt beam="2">  1       -2 0.11744479E-01 0.17853720E+03</pdfrwt>
<totfact> 0.35231036E+03</totfact>
</mgrwt>
</event>
<event>
 4    3  0.7748294E-001  0.1753191E+03  0.7546771E-02  0.1172412E+00
         -2   -1    0    0    0  501 -0.00000000000E+00  0.00000000000E+00  0.16656005018E+02  0.16656005018E+02  0.00000000000E+00 0.  1.
          2   -1    0    0  502    0  0.00000000000E+00 -0.00000000000E+00 -0.20065315343E+04  0.20065315343E+04  0.00000000000E+00 0. -1.
          6    1    1    2  502    0  0.20220400339E+02  0.19973217436E+02 -0.70826303332E+03  0.72963916998E+03  0.17300000000E+03 0.  1.
         -6    1    1    2    0  501 -0.20220400339E+02 -0.19973217436E+02 -0.12816124959E+04  0.12935483693E+04  0.17300000000E+03 0. -1.
<mgrwt>
<rscale>  2 0.17531912E+03</rscale>
<asrwt>0</asrwt>
<pdfrwt beam="1">  1        2 0.30869720E+00 0.17531912E+03</pdfrwt>
<pdfrwt beam="2">  1       -2 0.25624620E-02 0.17531912E+03</pdfrwt>
<totfact> 0.39443903E+03</totfact>
</mgrwt>
</event>
<event>
 4    3  0.7748294E-001  0.1835786E+03  0.7546771E-02  0.1164384E+00
          2   -1    0    0  502    0  0.00000000000E+00  0.00000000000E+00  0.20563053587E+02  0.20563053587E+02  0.00000000000E+00 0.  1.
         -2   -1    0    0    0  501 -0.00000000000E+00 -0.00000000000E+00 -0.16403453157E+04  0.16403453157E+04  0.00000000000E+00 0. -1.
          6    1    1    2  502    0 -0.53679795418E+02 -0.29842425270E+02 -0.78536609446E+03  0.80653641772E+03  0.17300000000E+03 0.  1.
         -6    1    1    2    0  501  0.53679795418E+02  0.29842425270E+02 -0.83441616767E+03  0.85437195158E+03  0.17300000000E+03 0. -1.
<mgrwt>
<rscale>  2 0.18357857E+03</rscale>
<asrwt>0</asrwt>
<pdfrwt beam="1">  1        2 0.31635454E-02 0.18357857E+03</pdfrwt>
<pdfrwt beam="2">  1       -2 0.25236092E+00 0.18357857E+03</pdfrwt>
<totfact> 0.20203230E+02</totfact>
</mgrwt>
</event>
<event>
 4    3  0.7748294E-001  0.1801436E+03  0.7546771E-02  0.1167664E+00
          1   -1    0    0  502    0  0.00000000000E+00  0.00000000000E+00  0.51266049771E+02  0.51266049771E+02  0.00000000000E+00 0. -1.
         -1   -1    0    0    0  501 -0.00000000000E+00 -0.00000000000E+00 -0.67736690274E+03  0.67736690274E+03  0.00000000000E+00 0.  1.
          6    1    1    2  502    0  0.75906400125E+01  0.49649860991E+02 -0.40628266581E+03  0.44442921939E+03  0.17300000000E+03 0.  1.
         -6    1    1    2    0  501 -0.75906400125E+01 -0.49649860991E+02 -0.21981818715E+03  0.28420373311E+03  0.17300000000E+03 0. -1.
<mgrwt>
<rscale>  2 0.18014363E+03</rscale>
<asrwt>0</asrwt>
<pdfrwt beam="1">  1        1 0.78870849E-02 0.18014363E+03</pdfrwt>
<pdfrwt beam="2">  1       -1 0.10421029E+00 0.18014363E+03</pdfrwt>
<totfact> 0.80914536E+02</totfact>
</mgrwt>
</event>
<event>
 4    3  0.7748294E-001  0.2717892E+03  0.7546771E-02  0.1100260E+00
          1   -1    0    0  502    0  0.00000000000E+00  0.00000000000E+00  0.32641439505E+04  0.32641439505E+04  0.00000000000E+00 0.  1.
         -1   -1    0    0    0  501 -0.00000000000E+00 -0.00000000000E+00 -0.32047127340E+02  0.32047127340E+02  0.00000000000E+00 0. -1.
          6    1    1    2  502    0 -0.21710492456E+02  0.20849226658E+03  0.25094246251E+04  0.25241001009E+04  0.17300000000E+03 0.  1.
         -6    1    1    2    0  501  0.21710492456E+02 -0.20849226658E+03  0.72267219812E+03  0.77209097693E+03  0.17300000000E+03 0. -1.
<mgrwt>
<rscale>  2 0.27178920E+03</rscale>
<asrwt>0</asrwt>
<pdfrwt beam="1">  1        1 0.50217573E+00 0.27178920E+03</pdfrwt>
<pdfrwt beam="2">  1       -1 0.49303299E-02 0.27178920E+03</pdfrwt>
<totfact> 0.84277267E+01</totfact>
</mgrwt>
</event>
<event>
 4    3  0.7748294E-001  0.1780406E+03  0.7546771E-02  0.1169713E+00
         -2   -1    0    0    0  501 -0.00000000000E+00  0.00000000000E+00  0.23295666263E+03  0.23295666263E+03  0.00000000000E+00 0.  1.
          2   -1    0    0  502    0  0.00000000000E+00 -0.00000000000E+00 -0.14807910906E+03  0.14807910906E+03  0.00000000000E+00 0. -1.
          6    1    1    2  502    0 -0.26469166846E+02  0.32693260164E+02  0.96693823302E+02  0.20260345880E+03  0.17300000000E+03 0.  1.
         -6    1    1    2    0  501  0.26469166846E+02 -0.32693260164E+02 -0.11816269735E+02  0.17843231289E+03  0.17300000000E+03 0. -1.
<mgrwt>
<rscale>  2 0.17804063E+03</rscale>
<asrwt>0</asrwt>
<pdfrwt beam="1">  1        2 0.22781401E-01 0.17804063E+03</pdfrwt>
<pdfrwt beam="2">  1       -2 0.35839486E-01 0.17804063E+03</pdfrwt>
<totfact> 0.17292241E+03</totfact>
</mgrwt>
</event>
<event>
 4    3  0.7748294E-001  0.1758739E+03  0.7546771E-02  0.1171857E+00
          1   -1    0    0  502    0  0.00000000000E+00  0.00000000000E+00  0.52891180352E+03  0.52891180352E+03  0.00000000000E+00 0.  1.
         -1   -1    0    0    0  501 -0.00000000000E+00 -0.00000000000E+00 -0.59214763194E+02  0.59214763194E+02  0.00000000000E+00 0. -1.
          6    1    1    2  502    0  0.87773599775E+01 -0.30423230438E+02  0.26756921429E+03  0.32019509590E+03  0.17300000000E+03 0.  1.
         -6    1    1    2    0  501 -0.87773599775E+01  0.30423230438E+02  0.20212782604E+03  0.26793147082E+03  0.17300000000E+03 0. -1.
<mgrwt>
<rscale>  2 0.17587386E+03</rscale>
<asrwt>0</asrwt>
<pdfrwt beam="1">  1        1 0.81371044E-01 0.17587386E+03</pdfrwt>
<pdfrwt beam="2">  1       -1 0.91099639E-02 0.17587386E+03</pdfrwt>
<totfact> 0.29025712E+03</totfact>
</mgrwt>
</event>
<event>
 4    3  0.7748294E-001  0.6343832E+03  0.7546771E-02  0.9836532E-01
         -1   -1    0    0    0  501 -0.00000000000E+00  0.00000000000E+00  0.33922022582E+03  0.33922022582E+03  0.00000000000E+00 0.  1.
          1   -1    0    0  502    0  0.00000000000E+00 -0.00000000000E+00 -0.13185727382E+04  0.13185727382E+04  0.00000000000E+00 0. -1.
          6    1    1    2  502    0  0.25102547023E+03  0.55632656120E+03 -0.22721691465E+03  0.67384683401E+03  0.17300000000E+03 0.  1.
         -6    1    1    2    0  501 -0.25102547023E+03 -0.55632656120E+03 -0.75213559776E+03  0.98394613004E+03  0.17300000000E+03 0. -1.
<mgrwt>
<rscale>  2 0.63438319E+03</rscale>
<asrwt>0</asrwt>
<pdfrwt beam="1">  1        1 0.20285735E+00 0.63438319E+03</pdfrwt>
<pdfrwt beam="2">  1       -1 0.52187727E-01 0.63438319E+03</pdfrwt>
<totfact> 0.33883212E+01</totfact>
</mgrwt>
</event>
<event>
 4    3  0.7748294E-001  0.1860397E+03  0.7546771E-02  0.1162083E+00
          2   -1    0    0  502    0  0.00000000000E+00  0.00000000000E+00  0.32031834674E+04  0.32031834674E+04  0.00000000000E+00 0. -1.
         -2   -1    0    0    0  501 -0.00000000000E+00 -0.00000000000E+00 -0.29071728774E+02  0.29071728774E+02  0.00000000000E+00 0.  1.
          6    1    1    2  502    0  0.45698415074E+02  0.50925586743E+02  0.28681152470E+04  0.28741426253E+04  0.17300000000E+03 0. -1.
         -6    1    1    2    0  501 -0.45698415074E+02 -0.50925586743E+02  0.30599649162E+03  0.35811257086E+03  0.17300000000E+03 0.  1.
<mgrwt>
<rscale>  2 0.18603967E+03</rscale>
<asrwt>0</asrwt>
<pdfrwt beam="1">  1        2 0.49279718E+00 0.18603967E+03</pdfrwt>
<pdfrwt beam="2">  1       -2 0.44725762E-02 0.18603967E+03</pdfrwt>
<totfact> 0.37480042E+02</totfact>
</mgrwt>
</event>
<event>
 4    3  0.7748294E-001  0.1790672E+03  0.7546771E-02  0.1168709E+00
          3   -1    0    0  502    0  0.00000000000E+00  0.00000000000E+00  0.50769384879E+03  0.50769384879E+03  0.00000000000E+00 0. -1.
         -3   -1    0    0    0  501 -0.00000000000E+00 -0.00000000000E+00 -0.93287759843E+02  0.93287759843E+02  0.00000000000E+00 0.  1.
          6    1    1    2  502    0  0.10818468683E+01  0.46204703951E+02  0.36431687765E+02  0.18273563674E+03  0.17300000000E+03 0.  1.
         -6    1    1    2    0  501 -0.10818468683E+01 -0.46204703951E+02  0.37797440118E+03  0.41824597190E+03  0.17300000000E+03 0. -1.
<mgrwt>
<rscale>  2 0.17906715E+03</rscale>
<asrwt>0</asrwt>
<pdfrwt beam="1">  1        3 0.78106744E-01 0.17906715E+03</pdfrwt>
<pdfrwt beam="2">  1       -3 0.14351963E-01 0.17906715E+03</pdfrwt>
<totfact> 0.15214447E+02</totfact>
</mgrwt>
</event>
<event>
 4    3  0.7748294E-001  0.3837900E+03  0.7546771E-02  0.1049542E+00
         -2   -1    0    0    0  501 -0.00000000000E+00  0.00000000000E+00  0.19854991584E+03  0.19854991584E+03  0.00000000000E+00 0.  1.
          2   -1    0    0  502    0  0.00000000000E+00 -0.00000000000E+00 -0.83318809635E+03  0.83318809635E+03  0.00000000000E+00 0. -1.
          6    1    1    2  502    0 -0.28195472538E+03 -0.19459528425E+03 -0.14651925067E+03  0.41080735465E+03  0.17300000000E+03 0. -1.
         -6    1    1    2    0  501  0.28195472538E+03  0.19459528425E+03 -0.48811892983E+03  0.62093065754E+03  0.17300000000E+03 0.  1.
<mgrwt>
<rscale>  2 0.38379004E+03</rscale>
<asrwt>0</asrwt>
<pdfrwt beam="1">  1        2 0.12818279E+00 0.38379004E+03</pdfrwt>
<pdfrwt beam="2">  1       -2 0.30546140E-01 0.38379004E+03</pdfrwt>
<totfact> 0.33224430E+02</totfact>
</mgrwt>
</event>
<event>
 4    3  0.7748294E-001  0.1773861E+03  0.7546771E-02  0.1170357E+00
         -2   -1    0    0    0  501 -0.00000000000E+00  0.00000000000E+00  0.49481005950E+02  0.49481005950E+02  0.00000000000E+00 0. -1.
          2   -1    0    0  502    0  0.00000000000E+00 -0.00000000000E+00 -0.63826505869E+03  0.63826505869E+03  0.00000000000E+00 0.  1.
          6    1    1    2  502    0 -0.12310804491E+02  0.37219203743E+02 -0.31524794403E+03  0.36172792434E+03  0.17300000000E+03 0.  1.
         -6    1    1    2    0  501  0.12310804491E+02 -0.37219203743E+02 -0.27353610871E+03  0.32601814030E+03  0.17300000000E+03 0. -1.
<mgrwt>
<rscale>  2 0.17738609E+03</rscale>
<asrwt>0</asrwt>
<pdfrwt beam="1">  1        2 0.98194613E-01 0.17738609E+03</pdfrwt>
<pdfrwt beam="2">  1       -2 0.76124633E-02 0.17738609E+03</pdfrwt>
<totfact> 0.46996658E+03</totfact>
</mgrwt>
</event>
<event>
 4    3  0.7748294E-001  0.2257019E+03  0.7546771E-02  0.1129702E+00
          1   -1    0    0  502    0  0.00000000000E+00  0.00000000000E+00  0.18169332296E+04  0.18169332296E+04  0.00000000000E+00 0.  1.
         -1   -1    0    0    0  501 -0.00000000000E+00 -0.00000000000E+00 -0.28069103526E+02  0.28069103526E+02  0.00000000000E+00 0. -1.
          6    1    1    2  502    0  0.12222384057E+03  0.77933962302E+02  0.92562682259E+03  0.95274675774E+03  0.17300000000E+03 0.  1.
         -6    1    1    2    0  501 -0.12222384057E+03 -0.77933962302E+02  0.86323730349E+03  0.89225557539E+03  0.17300000000E+03 0. -1.
<mgrwt>
<rscale>  2 0.22570195E+03</rscale>
<asrwt>0</asrwt>
<pdfrwt beam="1">  1        1 0.27952810E+00 0.22570195E+03</pdfrwt>
<pdfrwt beam="2">  1       -1 0.43183250E-02 0.22570195E+03</pdfrwt>
<totfact> 0.97671427E+02</totfact>
</mgrwt>
</event>
<event>
 4    3  0.7748294E-001  0.3384472E+03  0.7546771E-02  0.1067459E+00
          2   -1    0    0  502    0  0.00000000000E+00  0.00000000000E+00  0.11566007990E+03  0.11566007990E+03  0.00000000000E+00 0. -1.
         -2   -1    0    0    0  501 -0.00000000000E+00 -0.00000000000E+00 -0.99183278880E+03  0.99183278880E+03  0.00000000000E+00 0.  1.
          6    1    1    2  502    0  0.29088436029E+03 -0.19567135680E+01 -0.45933544054E+03  0.57055725982E+03  0.17300000000E+03 0.  1.
         -6    1    1    2    0  501 -0.29088436029E+03  0.19567135680E+01 -0.41683726836E+03  0.53693560888E+03  0.17300000000E+03 0. -1.
<mgrwt>
<rscale>  2 0.33844725E+03</rscale>
<asrwt>0</asrwt>
<pdfrwt beam="1">  1        2 0.17793859E-01 0.33844725E+03</pdfrwt>
<pdfrwt beam="2">  1       -2 0.15258966E+00 0.33844725E+03</pdfrwt>
<totfact> 0.96425085E+01</totfact>
</mgrwt>
</event>
<event>
 4    3  0.7748294E-001  0.2278388E+03  0.7546771E-02  0.1128170E+00
         -1   -1    0    0    0  501 -0.00000000000E+00  0.00000000000E+00  0.23651276040E+03  0.23651276040E+03  0.00000000000E+00 0. -1.
          1   -1    0    0  502    0  0.00000000000E+00 -0.00000000000E+00 -0.23985926022E+03  0.23985926022E+03  0.00000000000E+00 0.  1.
          6    1    1    2  502    0 -0.10264838487E+03 -0.10698051470E+03 -0.71095812113E+02  0.23867370182E+03  0.17300000000E+03 0.  1.
         -6    1    1    2    0  501  0.10264838487E+03  0.10698051470E+03  0.67749312296E+02  0.23769831880E+03  0.17300000000E+03 0. -1.
<mgrwt>
<rscale>  2 0.22783881E+03</rscale>
<asrwt>0</asrwt>
<pdfrwt beam="1">  1        1 0.36901425E-01 0.22783881E+03</pdfrwt>
<pdfrwt beam="2">  1       -1 0.36386578E-01 0.22783881E+03</pdfrwt>
<totfact> 0.85091740E+02</totfact>
</mgrwt>
</event>
<event>
 4    3  0.7748294E-001  0.2021215E+03  0.7546771E-02  0.1147961E+00
          2   -1    0    0  502    0  0.00000000000E+00  0.00000000000E+00  0.17755047430E+04  0.17755047430E+04  0.00000000000E+00 0.  1.
         -2   -1    0    0    0  501 -0.00000000000E+00 -0.00000000000E+00 -0.39443317296E+02  0.39443317296E+02  0.00000000000E+00 0. -1.
          6    1    1    2  502    0 -0.10451694163E+03  0.55433063858E+00  0.14537904669E+04  0.14677737632E+04  0.17300000000E+03 0.  1.
         -6    1    1    2    0  501  0.10451694163E+03 -0.55433063858E+00  0.28227095887E+03  0.34717429714E+03  0.17300000000E+03 0. -1.
<mgrwt>
<rscale>  2 0.20212149E+03</rscale>
<asrwt>0</asrwt>
<pdfrwt beam="1">  1        2 0.27315451E+00 0.20212149E+03</pdfrwt>
<pdfrwt beam="2">  1       -2 0.60682040E-02 0.20212149E+03</pdfrwt>
<totfact> 0.14260742E+03</totfact>
</mgrwt>
</event>
<event>
 4    3  0.7748294E-001  0.2558786E+03  0.7546771E-02  0.1109645E+00
          1   -1    0    0  502    0  0.00000000000E+00  0.00000000000E+00  0.89454158309E+03  0.89454158309E+03  0.00000000000E+00 0.  1.
         -1   -1    0    0    0  501 -0.00000000000E+00 -0.00000000000E+00 -0.80520696927E+02  0.80520696927E+02  0.00000000000E+00 0. -1.
          6    1    1    2  502    0  0.18851797377E+03 -0.24135453971E+01  0.55408694571E+03  0.61031647122E+03  0.17300000000E+03 0.  1.
         -6    1    1    2    0  501 -0.18851797377E+03  0.24135453971E+01  0.25993394045E+03  0.36474580880E+03  0.17300000000E+03 0. -1.
<mgrwt>
<rscale>  2 0.25587859E+03</rscale>
<asrwt>0</asrwt>
<pdfrwt beam="1">  1        1 0.13762178E+00 0.25587859E+03</pdfrwt>
<pdfrwt beam="2">  1       -1 0.12387800E-01 0.25587859E+03</pdfrwt>
<totfact> 0.84291904E+02</totfact>
</mgrwt>
</event>
<event>
 4    3  0.7748294E-001  0.1905997E+03  0.7546771E-02  0.1157922E+00
          1   -1    0    0  502    0  0.00000000000E+00  0.00000000000E+00  0.49984470154E+03  0.49984470154E+03  0.00000000000E+00 0. -1.
         -1   -1    0    0    0  501 -0.00000000000E+00 -0.00000000000E+00 -0.21128525790E+03  0.21128525790E+03  0.00000000000E+00 0.  1.
          6    1    1    2  502    0 -0.31449358572E+02  0.73553919629E+02 -0.14370915424E+03  0.23870601639E+03  0.17300000000E+03 0.  1.
         -6    1    1    2    0  501  0.31449358572E+02 -0.73553919629E+02  0.43226859789E+03  0.47242394305E+03  0.17300000000E+03 0. -1.
<mgrwt>
<rscale>  2 0.19059969E+03</rscale>
<asrwt>0</asrwt>
<pdfrwt beam="1">  1        1 0.76899185E-01 0.19059969E+03</pdfrwt>
<pdfrwt beam="2">  1       -1 0.32505424E-01 0.19059969E+03</pdfrwt>
<totfact> 0.40695504E+02</totfact>
</mgrwt>
</event>
<event>
 4    3  0.7748294E-001  0.2000788E+03  0.7546771E-02  0.1149673E+00
         -2   -1    0    0    0  501 -0.00000000000E+00  0.00000000000E+00  0.10041938788E+03  0.10041938788E+03  0.00000000000E+00 0.  1.
          2   -1    0    0  502    0  0.00000000000E+00 -0.00000000000E+00 -0.41196831550E+03  0.41196831550E+03  0.00000000000E+00 0. -1.
          6    1    1    2  502    0 -0.21686861402E+02  0.98143857930E+02 -0.20184967210E+03  0.28420912535E+03  0.17300000000E+03 0. -1.
         -6    1    1    2    0  501  0.21686861402E+02 -0.98143857930E+02 -0.10969925553E+03  0.22817857803E+03  0.17300000000E+03 0.  1.
<mgrwt>
<rscale>  2 0.20007883E+03</rscale>
<asrwt>0</asrwt>
<pdfrwt beam="1">  1        2 0.63379742E-01 0.20007883E+03</pdfrwt>
<pdfrwt beam="2">  1       -2 0.15449136E-01 0.20007883E+03</pdfrwt>
<totfact> 0.24890529E+03</totfact>
</mgrwt>
</event>
<event>
 4    3  0.7748294E-001  0.1957445E+03  0.7546771E-02  0.1153380E+00
         -2   -1    0    0    0  501 -0.00000000000E+00  0.00000000000E+00  0.45753116213E+02  0.45753116213E+02  0.00000000000E+00 0. -1.
          2   -1    0    0  502    0  0.00000000000E+00 -0.00000000000E+00 -0.91925021483E+03  0.91925021483E+03  0.00000000000E+00 0.  1.
          6    1    1    2  502    0  0.35061956007E+02 -0.84602490902E+02 -0.29281547017E+03  0.35221700952E+03  0.17300000000E+03 0.  1.
         -6    1    1    2    0  501 -0.35061956007E+02  0.84602490902E+02 -0.58068162846E+03  0.61278632153E+03  0.17300000000E+03 0. -1.
<mgrwt>
<rscale>  2 0.19574453E+03</rscale>
<asrwt>0</asrwt>
<pdfrwt beam="1">  1        2 0.14142310E+00 0.19574453E+03</pdfrwt>
<pdfrwt beam="2">  1       -2 0.70389412E-02 0.19574453E+03</pdfrwt>
<totfact> 0.33798791E+03</totfact>
</mgrwt>
</event>
<event>
 4    3  0.7748294E-001  0.1799483E+03  0.7546771E-02  0.1167853E+00
          2   -1    0    0  502    0  0.00000000000E+00  0.00000000000E+00  0.13344820247E+04  0.13344820247E+04  0.00000000000E+00 0.  1.
         -2   -1    0    0    0  501 -0.00000000000E+00 -0.00000000000E+00 -0.38976672115E+02  0.38976672115E+02  0.00000000000E+00 0. -1.
          6    1    1    2  502    0  0.29644911808E+02  0.39668321176E+02  0.22585013116E+03  0.28877271036E+03  0.17300000000E+03 0. -1.
         -6    1    1    2    0  501 -0.29644911808E+02 -0.39668321176E+02  0.10696552214E+04  0.10846859864E+04  0.17300000000E+03 0.  1.
<mgrwt>
<rscale>  2 0.17994832E+03</rscale>
<asrwt>0</asrwt>
<pdfrwt beam="1">  1        2 0.20530489E+00 0.17994832E+03</pdfrwt>
<pdfrwt beam="2">  1       -2 0.59964121E-02 0.17994832E+03</pdfrwt>
<totfact> 0.24821053E+03</totfact>
</mgrwt>
</event>
<event>
 4    3  0.7748294E-001  0.2031334E+03  0.7546771E-02  0.1147122E+00
          2   -1    0    0  502    0  0.00000000000E+00  0.00000000000E+00  0.40888458308E+03  0.40888458308E+03  0.00000000000E+00 0. -1.
         -2   -1    0    0    0  501 -0.00000000000E+00 -0.00000000000E+00 -0.12552688965E+03  0.12552688965E+03  0.00000000000E+00 0.  1.
          6    1    1    2  502    0  0.93346363386E+02  0.51192198920E+02  0.25999307867E+03  0.32993876059E+03  0.17300000000E+03 0. -1.
         -6    1    1    2    0  501 -0.93346363386E+02 -0.51192198920E+02  0.23364614763E+02  0.20447271214E+03  0.17300000000E+03 0.  1.
<mgrwt>
<rscale>  2 0.20313342E+03</rscale>
<asrwt>0</asrwt>
<pdfrwt beam="1">  1        2 0.62905320E-01 0.20313342E+03</pdfrwt>
<pdfrwt beam="2">  1       -2 0.19311829E-01 0.20313342E+03</pdfrwt>
<totfact> 0.17271821E+03</totfact>
</mgrwt>
</event>
<event>
 4    3  0.7748294E-001  0.2733634E+03  0.7546771E-02  0.1099370E+00
         -2   -1    0    0    0  501 -0.00000000000E+00  0.00000000000E+00  0.72788130000E+02  0.72788130000E+02  0.00000000000E+00 0. -1.
          2   -1    0    0  502    0  0.00000000000E+00 -0.00000000000E+00 -0.10282278608E+04  0.10282278608E+04  0.00000000000E+00 0.  1.
          6    1    1    2  502    0  0.85221576119E+02 -0.19374171780E+03 -0.45612058355E+03  0.53176456914E+03  0.17300000000E+03 0.  1.
         -6    1    1    2    0  501 -0.85221576119E+02  0.19374171780E+03 -0.49931914724E+03  0.56925142165E+03  0.17300000000E+03 0. -1.
<mgrwt>
<rscale>  2 0.27336344E+03</rscale>
<asrwt>0</asrwt>
<pdfrwt beam="1">  1        2 0.15818888E+00 0.27336344E+03</pdfrwt>
<pdfrwt beam="2">  1       -2 0.11198176E-01 0.27336344E+03</pdfrwt>
<totfact> 0.13960504E+03</totfact>
</mgrwt>
</event>
<event>
 4    3  0.7748294E-001  0.1903804E+03  0.7546771E-02  0.1158119E+00
         -1   -1    0    0    0  501 -0.00000000000E+00  0.00000000000E+00  0.28429412624E+02  0.28429412624E+02  0.00000000000E+00 0. -1.
          1   -1    0    0  502    0  0.00000000000E+00 -0.00000000000E+00 -0.14827360339E+04  0.14827360339E+04  0.00000000000E+00 0.  1.
          6    1    1    2  502    0 -0.54528917849E+02  0.57812426208E+02 -0.44426842992E+03  0.48334161556E+03  0.17300000000E+03 0.  1.
         -6    1    1    2    0  501  0.54528917849E+02 -0.57812426208E+02 -0.10100381913E+04  0.10278238309E+04  0.17300000000E+03 0.  1.
<mgrwt>
<rscale>  2 0.19038035E+03</rscale>
<asrwt>0</asrwt>
<pdfrwt beam="1">  1        1 0.22811329E+00 0.19038035E+03</pdfrwt>
<pdfrwt beam="2">  1       -1 0.43737547E-02 0.19038035E+03</pdfrwt>
<totfact> 0.15843091E+03</totfact>
</mgrwt>
</event>
<event>
 4    3  0.7748294E-001  0.2619321E+03  0.7546771E-02  0.1105988E+00
         -2   -1    0    0    0  501 -0.00000000000E+00  0.00000000000E+00  0.43944125455E+03  0.43944125455E+03  0.00000000000E+00 0. -1.
          2   -1    0    0  502    0  0.00000000000E+00 -0.00000000000E+00 -0.16078388769E+03  0.16078388769E+03  0.00000000000E+00 0.  1.
          6    1    1    2  502    0 -0.16909938401E+03  0.10042310846E+03  0.19040699378E+03  0.32382591877E+03  0.17300000000E+03 0.  1.
         -6    1    1    2    0  501  0.16909938401E+03 -0.10042310846E+03  0.88250373087E+02  0.27639922347E+03  0.17300000000E+03 0.  1.
<mgrwt>
<rscale>  2 0.26193206E+03</rscale>
<asrwt>0</asrwt>
<pdfrwt beam="1">  1        2 0.24735983E-01 0.26193206E+03</pdfrwt>
<pdfrwt beam="2">  1       -2 0.67606346E-01 0.26193206E+03</pdfrwt>
<totfact> 0.44879087E+02</totfact>
</mgrwt>
</event>
<event>
 4    3  0.7748294E-001  0.2626759E+03  0.7546771E-02  0.1105546E+00
         -2   -1    0    0    0  501 -0.00000000000E+00  0.00000000000E+00  0.53700576115E+03  0.53700576115E+03  0.00000000000E+00 0. -1.
          2   -1    0    0  502    0  0.00000000000E+00 -0.00000000000E+00 -0.16980709573E+03  0.16980709573E+03  0.00000000000E+00 0.  1.
          6    1    1    2  502    0 -0.17458641358E+02 -0.19688781362E+03  0.35792996397E+03  0.44397350644E+03  0.17300000000E+03 0. -1.
         -6    1    1    2    0  501  0.17458641358E+02  0.19688781362E+03  0.92687014530E+01  0.26283935044E+03  0.17300000000E+03 0.  1.
<mgrwt>
<rscale>  2 0.26267588E+03</rscale>
<asrwt>0</asrwt>
<pdfrwt beam="1">  1        2 0.26124169E-01 0.26267588E+03</pdfrwt>
<pdfrwt beam="2">  1       -2 0.82616270E-01 0.26267588E+03</pdfrwt>
<totfact> 0.27266851E+02</totfact>
</mgrwt>
</event>
<event>
 4    3  0.7748294E-001  0.2119455E+03  0.7546771E-02  0.1140035E+00
          1   -1    0    0  502    0  0.00000000000E+00  0.00000000000E+00  0.32244356052E+03  0.32244356052E+03  0.00000000000E+00 0.  1.
         -1   -1    0    0    0  501 -0.00000000000E+00 -0.00000000000E+00 -0.26726125156E+03  0.26726125156E+03  0.00000000000E+00 0. -1.
          6    1    1    2  502    0  0.64776899136E+02  0.10390307658E+03  0.23160149953E+03  0.31394290973E+03  0.17300000000E+03 0.  1.
         -6    1    1    2    0  501 -0.64776899136E+02 -0.10390307658E+03 -0.17641919057E+03  0.27576190235E+03  0.17300000000E+03 0. -1.
<mgrwt>
<rscale>  2 0.21194550E+03</rscale>
<asrwt>0</asrwt>
<pdfrwt beam="1">  1        1 0.49606702E-01 0.21194550E+03</pdfrwt>
<pdfrwt beam="2">  1       -1 0.41117116E-01 0.21194550E+03</pdfrwt>
<totfact> 0.47312295E+02</totfact>
</mgrwt>
</event>
<event>
 4    3  0.7748294E-001  0.2193069E+03  0.7546771E-02  0.1134401E+00
         -1   -1    0    0    0  501 -0.00000000000E+00  0.00000000000E+00  0.13426265249E+03  0.13426265249E+03  0.00000000000E+00 0.  1.
          1   -1    0    0  502    0  0.00000000000E+00 -0.00000000000E+00 -0.45071005054E+03  0.45071005054E+03  0.00000000000E+00 0. -1.
          6    1    1    2  502    0  0.10639779937E+03  0.82740659219E+02 -0.25726858165E+02  0.22081073259E+03  0.17300000000E+03 0.  1.
         -6    1    1    2    0  501 -0.10639779937E+03 -0.82740659219E+02 -0.29072053988E+03  0.36416197043E+03  0.17300000000E+03 0. -1.
<mgrwt>
<rscale>  2 0.21930688E+03</rscale>
<asrwt>0</asrwt>
<pdfrwt beam="1">  1        1 0.69340008E-01 0.21930688E+03</pdfrwt>
<pdfrwt beam="2">  1       -1 0.20655793E-01 0.21930688E+03</pdfrwt>
<totfact> 0.99204175E+02</totfact>
</mgrwt>
</event>
<event>
 4    3  0.7748294E-001  0.2103915E+03  0.7546771E-02  0.1141256E+00
         -1   -1    0    0    0  501 -0.00000000000E+00  0.00000000000E+00  0.65239646030E+02  0.65239646030E+02  0.00000000000E+00 0.  1.
          1   -1    0    0  502    0  0.00000000000E+00 -0.00000000000E+00 -0.68499319070E+03  0.68499319070E+03  0.00000000000E+00 0. -1.
          6    1    1    2  502    0 -0.97826662961E+02 -0.69032788275E+02 -0.34642088213E+03  0.40530483518E+03  0.17300000000E+03 0. -1.
         -6    1    1    2    0  501  0.97826662961E+02  0.69032788275E+02 -0.27333266254E+03  0.34492800155E+03  0.17300000000E+03 0. -1.
<mgrwt>
<rscale>  2 0.21039150E+03</rscale>
<asrwt>0</asrwt>
<pdfrwt beam="1">  1        1 0.10538357E+00 0.21039150E+03</pdfrwt>
<pdfrwt beam="2">  1       -1 0.10036869E-01 0.21039150E+03</pdfrwt>
<totfact> 0.17568987E+03</totfact>
</mgrwt>
</event>
<event>
 4    3  0.7748294E-001  0.1840134E+03  0.7546771E-02  0.1163974E+00
          2   -1    0    0  502    0  0.00000000000E+00  0.00000000000E+00  0.10516243861E+04  0.10516243861E+04  0.00000000000E+00 0.  1.
         -2   -1    0    0    0  501 -0.00000000000E+00 -0.00000000000E+00 -0.32861359422E+02  0.32861359422E+02  0.00000000000E+00 0. -1.
          6    1    1    2  502    0  0.56825713607E+02 -0.26509544578E+02  0.43237939947E+03  0.46990729167E+03  0.17300000000E+03 0.  1.
         -6    1    1    2    0  501 -0.56825713607E+02  0.26509544578E+02  0.58638362723E+03  0.61457845387E+03  0.17300000000E+03 0.  1.
<mgrwt>
<rscale>  2 0.18401336E+03</rscale>
<asrwt>0</asrwt>
<pdfrwt beam="1">  1        2 0.16178834E+00 0.18401336E+03</pdfrwt>
<pdfrwt beam="2">  1       -2 0.50555946E-02 0.18401336E+03</pdfrwt>
<totfact> 0.46452027E+03</totfact>
</mgrwt>
</event>
<event>
 4    3  0.7748294E-001  0.2199916E+03  0.7546771E-02  0.1133889E+00
         -1   -1    0    0    0  501 -0.00000000000E+00  0.00000000000E+00  0.10031762824E+03  0.10031762824E+03  0.00000000000E+00 0. -1.
          1   -1    0    0  502    0  0.00000000000E+00 -0.00000000000E+00 -0.50113176214E+03  0.50113176214E+03  0.00000000000E+00 0.  1.
          6    1    1    2  502    0 -0.11150682541E+03 -0.77675807094E+02 -0.14231373021E+03  0.26201049774E+03  0.17300000000E+03 0. -1.
         -6    1    1    2    0  501  0.11150682541E+03  0.77675807094E+02 -0.25850040370E+03  0.33943889264E+03  0.17300000000E+03 0.  1.
<mgrwt>
<rscale>  2 0.21999160E+03</rscale>
<asrwt>0</asrwt>
<pdfrwt beam="1">  1        1 0.77097193E-01 0.21999160E+03</pdfrwt>
<pdfrwt beam="2">  1       -1 0.15433481E-01 0.21999160E+03</pdfrwt>
<totfact> 0.13792218E+03</totfact>
</mgrwt>
</event>
<event>
 4    3  0.7748294E-001  0.2308828E+03  0.7546771E-02  0.1126020E+00
          2   -1    0    0  502    0  0.00000000000E+00  0.00000000000E+00  0.17979363095E+04  0.17979363095E+04  0.00000000000E+00 0. -1.
         -2   -1    0    0    0  501 -0.00000000000E+00 -0.00000000000E+00 -0.29811359266E+02  0.29811359266E+02  0.00000000000E+00 0.  1.
          6    1    1    2  502    0  0.76669078593E+02  0.13228646826E+03  0.95152306944E+03  0.97913380545E+03  0.17300000000E+03 0. -1.
         -6    1    1    2    0  501 -0.76669078593E+02 -0.13228646826E+03  0.81660188077E+03  0.84861386330E+03  0.17300000000E+03 0.  1.
<mgrwt>
<rscale>  2 0.23088278E+03</rscale>
<asrwt>0</asrwt>
<pdfrwt beam="1">  1        2 0.27660550E+00 0.23088278E+03</pdfrwt>
<pdfrwt beam="2">  1       -2 0.45863644E-02 0.23088278E+03</pdfrwt>
<totfact> 0.21222828E+03</totfact>
</mgrwt>
</event>
<event>
 4    3  0.7748294E-001  0.1980391E+03  0.7546771E-02  0.1151404E+00
          2   -1    0    0  502    0  0.00000000000E+00  0.00000000000E+00  0.51024498111E+03  0.51024498111E+03  0.00000000000E+00 0. -1.
         -2   -1    0    0    0  501 -0.00000000000E+00 -0.00000000000E+00 -0.83608977442E+02  0.83608977442E+02  0.00000000000E+00 0.  1.
          6    1    1    2  502    0  0.65717379769E+02 -0.70510265893E+02  0.12898193008E+03  0.23633833774E+03  0.17300000000E+03 0.  1.
         -6    1    1    2    0  501 -0.65717379769E+02  0.70510265893E+02  0.29765407359E+03  0.35751562081E+03  0.17300000000E+03 0. -1.
<mgrwt>
<rscale>  2 0.19803907E+03</rscale>
<asrwt>0</asrwt>
<pdfrwt beam="1">  1        2 0.78499226E-01 0.19803907E+03</pdfrwt>
<pdfrwt beam="2">  1       -2 0.12862920E-01 0.19803907E+03</pdfrwt>
<totfact> 0.26545245E+03</totfact>
</mgrwt>
</event>
<event>
 4    3  0.7748294E-001  0.3148417E+03  0.7546771E-02  0.1078048E+00
         -1   -1    0    0    0  501 -0.00000000000E+00  0.00000000000E+00  0.81763825317E+02  0.81763825317E+02  0.00000000000E+00 0.  1.
          1   -1    0    0  502    0  0.00000000000E+00 -0.00000000000E+00 -0.13210399924E+04  0.13210399924E+04  0.00000000000E+00 0. -1.
          6    1    1    2  502    0  0.15818447286E+03  0.21017610960E+03 -0.41843743641E+03  0.52365562414E+03  0.17300000000E+03 0.  1.
         -6    1    1    2    0  501 -0.15818447286E+03 -0.21017610960E+03 -0.82083873070E+03  0.87914819361E+03  0.17300000000E+03 0. -1.
<mgrwt>
<rscale>  2 0.31484175E+03</rscale>
<asrwt>0</asrwt>
<pdfrwt beam="1">  1        1 0.20323693E+00 0.31484175E+03</pdfrwt>
<pdfrwt beam="2">  1       -1 0.12579050E-01 0.31484175E+03</pdfrwt>
<totfact> 0.40097684E+02</totfact>
</mgrwt>
</event>
<event>
 4    3  0.7748294E-001  0.1879453E+03  0.7546771E-02  0.1160328E+00
         -2   -1    0    0    0  501 -0.00000000000E+00  0.00000000000E+00  0.17618906398E+02  0.17618906398E+02  0.00000000000E+00 0. -1.
          2   -1    0    0  502    0  0.00000000000E+00 -0.00000000000E+00 -0.24416070236E+04  0.24416070236E+04  0.00000000000E+00 0.  1.
          6    1    1    2  502    0 -0.73412980857E+02  0.22311647875E+01 -0.69194365426E+03  0.71701427080E+03  0.17300000000E+03 0. -1.
         -6    1    1    2    0  501  0.73412980857E+02 -0.22311647875E+01 -0.17320444630E+04  0.17422116592E+04  0.17300000000E+03 0.  1.
<mgrwt>
<rscale>  2 0.18794532E+03</rscale>
<asrwt>0</asrwt>
<pdfrwt beam="1">  1        2 0.37563209E+00 0.18794532E+03</pdfrwt>
<pdfrwt beam="2">  1       -2 0.27105992E-02 0.18794532E+03</pdfrwt>
<totfact> 0.21428752E+03</totfact>
</mgrwt>
</event>
<event>
 4    3  0.7748294E-001  0.2158870E+03  0.7546771E-02  0.1136987E+00
          2   -1    0    0  502    0  0.00000000000E+00  0.00000000000E+00  0.13465014377E+03  0.13465014377E+03  0.00000000000E+00 0. -1.
         -2   -1    0    0    0  501 -0.00000000000E+00 -0.00000000000E+00 -0.69718697212E+03  0.69718697212E+03  0.00000000000E+00 0.  1.
          6    1    1    2  502    0  0.10239742970E+03  0.78695491140E+02 -0.57640223390E+03  0.61550527957E+03  0.17300000000E+03 0.  1.
         -6    1    1    2    0  501 -0.10239742970E+03 -0.78695491140E+02  0.13865405543E+02  0.21633183632E+03  0.17300000000E+03 0.  1.
<mgrwt>
<rscale>  2 0.21588704E+03</rscale>
<asrwt>0</asrwt>
<pdfrwt beam="1">  1        2 0.20715407E-01 0.21588704E+03</pdfrwt>
<pdfrwt beam="2">  1       -2 0.10725953E+00 0.21588704E+03</pdfrwt>
<totfact> 0.19494651E+02</totfact>
</mgrwt>
</event>
<event>
 4    3  0.7748294E-001  0.1810098E+03  0.7546771E-02  0.1166829E+00
          2   -1    0    0  502    0  0.00000000000E+00  0.00000000000E+00  0.57791130189E+03  0.57791130189E+03  0.00000000000E+00 0. -1.
         -2   -1    0    0    0  501 -0.00000000000E+00 -0.00000000000E+00 -0.66551695233E+02  0.66551695233E+02  0.00000000000E+00 0.  1.
          6    1    1    2  502    0  0.31253345943E+02  0.43113425899E+02  0.13166900244E+03  0.22383311938E+03  0.17300000000E+03 0.  1.
         -6    1    1    2    0  501 -0.31253345943E+02 -0.43113425899E+02  0.37969060421E+03  0.42062987775E+03  0.17300000000E+03 0. -1.
<mgrwt>
<rscale>  2 0.18100978E+03</rscale>
<asrwt>0</asrwt>
<pdfrwt beam="1">  1        2 0.88909428E-01 0.18100978E+03</pdfrwt>
<pdfrwt beam="2">  1       -2 0.10238723E-01 0.18100978E+03</pdfrwt>
<totfact> 0.33155476E+03</totfact>
</mgrwt>
</event>
<event>
 4    3  0.7748294E-001  0.1913232E+03  0.7546771E-02  0.1157273E+00
         -1   -1    0    0    0  501 -0.00000000000E+00  0.00000000000E+00  0.21705008679E+03  0.21705008679E+03  0.00000000000E+00 0.  1.
          1   -1    0    0  502    0  0.00000000000E+00 -0.00000000000E+00 -0.17577643685E+03  0.17577643685E+03  0.00000000000E+00 0. -1.
          6    1    1    2  502    0  0.29713520891E+02  0.76109507407E+02  0.60197123651E+02  0.20056979867E+03  0.17300000000E+03 0.  1.
         -6    1    1    2    0  501 -0.29713520891E+02 -0.76109507407E+02 -0.18923473713E+02  0.19225672498E+03  0.17300000000E+03 0.  1.
<mgrwt>
<rscale>  2 0.19132316E+03</rscale>
<asrwt>0</asrwt>
<pdfrwt beam="1">  1        1 0.27042529E-01 0.19132316E+03</pdfrwt>
<pdfrwt beam="2">  1       -1 0.33392321E-01 0.19132316E+03</pdfrwt>
<totfact> 0.14560237E+03</totfact>
</mgrwt>
</event>
<event>
 4    3  0.7748294E-001  0.1757280E+03  0.7546771E-02  0.1172003E+00
         -2   -1    0    0    0  501 -0.00000000000E+00  0.00000000000E+00  0.95218594210E+02  0.95218594210E+02  0.00000000000E+00 0. -1.
          2   -1    0    0  502    0  0.00000000000E+00 -0.00000000000E+00 -0.73835809107E+03  0.73835809107E+03  0.00000000000E+00 0.  1.
          6    1    1    2  502    0  0.10075494412E+02  0.29151278833E+02 -0.63367968896E+03  0.65759429806E+03  0.17300000000E+03 0.  1.
         -6    1    1    2    0  501 -0.10075494412E+02 -0.29151278833E+02 -0.94598079008E+01  0.17598238722E+03  0.17300000000E+03 0. -1.
<mgrwt>
<rscale>  2 0.17572795E+03</rscale>
<asrwt>0</asrwt>
<pdfrwt beam="1">  1        2 0.11359355E+00 0.17572795E+03</pdfrwt>
<pdfrwt beam="2">  1       -2 0.14649015E-01 0.17572795E+03</pdfrwt>
<totfact> 0.13943596E+03</totfact>
</mgrwt>
</event>
<event>
 4    3  0.7748294E-001  0.1980705E+03  0.7546771E-02  0.1151377E+00
          4   -1    0    0  502    0  0.00000000000E+00  0.00000000000E+00  0.13452655261E+04  0.13452655261E+04  0.00000000000E+00 0.  1.
         -4   -1    0    0    0  501 -0.00000000000E+00 -0.00000000000E+00 -0.39677028002E+02  0.39677028002E+02  0.00000000000E+00 0. -1.
          6    1    1    2  502    0 -0.72317305624E+02  0.63821053870E+02  0.29632861545E+03  0.35643031289E+03  0.17300000000E+03 0. -1.
         -6    1    1    2    0  501  0.72317305624E+02 -0.63821053870E+02  0.10092598827E+04  0.10285122412E+04  0.17300000000E+03 0.  1.
<mgrwt>
<rscale>  2 0.19807049E+03</rscale>
<asrwt>0</asrwt>
<pdfrwt beam="1">  1        4 0.20696389E+00 0.19807049E+03</pdfrwt>
<pdfrwt beam="2">  1       -4 0.61041592E-02 0.19807049E+03</pdfrwt>
<totfact> 0.40261942E+01</totfact>
</mgrwt>
</event>
<event>
 4    3  0.7748294E-001  0.2425425E+03  0.7546771E-02  0.1118111E+00
         -2   -1    0    0    0  501 -0.00000000000E+00  0.00000000000E+00  0.21041759604E+03  0.21041759604E+03  0.00000000000E+00 0. -1.
          2   -1    0    0  502    0  0.00000000000E+00 -0.00000000000E+00 -0.39968809507E+03  0.39968809507E+03  0.00000000000E+00 0.  1.
          6    1    1    2  502    0 -0.16966927035E+03  0.10498023117E+02  0.72595086582E+02  0.25317368818E+03  0.17300000000E+03 0. -1.
         -6    1    1    2    0  501  0.16966927035E+03 -0.10498023117E+02 -0.26186558561E+03  0.35693200293E+03  0.17300000000E+03 0.  1.
<mgrwt>
<rscale>  2 0.24254251E+03</rscale>
<asrwt>0</asrwt>
<pdfrwt beam="1">  1        2 0.61490476E-01 0.24254251E+03</pdfrwt>
<pdfrwt beam="2">  1       -2 0.32371938E-01 0.24254251E+03</pdfrwt>
<totfact> 0.71226781E+02</totfact>
</mgrwt>
</event>
<event>
 4    3  0.7748294E-001  0.1958521E+03  0.7546771E-02  0.1153287E+00
         -2   -1    0    0    0  501 -0.00000000000E+00  0.00000000000E+00  0.87245795483E+02  0.87245795483E+02  0.00000000000E+00 0. -1.
          2   -1    0    0  502    0  0.00000000000E+00 -0.00000000000E+00 -0.58046701503E+03  0.58046701503E+03  0.00000000000E+00 0.  1.
          6    1    1    2  502    0  0.80314827010E+02  0.44481030613E+02 -0.82176810434E+02  0.21239364796E+03  0.17300000000E+03 0. -1.
         -6    1    1    2    0  501 -0.80314827010E+02 -0.44481030613E+02 -0.41104440911E+03  0.45531916255E+03  0.17300000000E+03 0.  1.
<mgrwt>
<rscale>  2 0.19585207E+03</rscale>
<asrwt>0</asrwt>
<pdfrwt beam="1">  1        2 0.89302615E-01 0.19585207E+03</pdfrwt>
<pdfrwt beam="2">  1       -2 0.13422431E-01 0.19585207E+03</pdfrwt>
<totfact> 0.21404794E+03</totfact>
</mgrwt>
</event>
<event>
 4    3  0.7748294E-001  0.2097115E+03  0.7546771E-02  0.1141795E+00
         -2   -1    0    0    0  501 -0.00000000000E+00  0.00000000000E+00  0.50350092015E+02  0.50350092015E+02  0.00000000000E+00 0.  1.
          2   -1    0    0  502    0  0.00000000000E+00 -0.00000000000E+00 -0.10318371150E+04  0.10318371150E+04  0.00000000000E+00 0. -1.
          6    1    1    2  502    0  0.94058144966E+02  0.72131799861E+02 -0.27875650907E+03  0.34883251359E+03  0.17300000000E+03 0.  1.
         -6    1    1    2    0  501 -0.94058144966E+02 -0.72131799861E+02 -0.70273051388E+03  0.73335469340E+03  0.17300000000E+03 0.  1.
<mgrwt>
<rscale>  2 0.20971154E+03</rscale>
<asrwt>0</asrwt>
<pdfrwt beam="1">  1        2 0.15874416E+00 0.20971154E+03</pdfrwt>
<pdfrwt beam="2">  1       -2 0.77461687E-02 0.20971154E+03</pdfrwt>
<totfact> 0.24868506E+03</totfact>
</mgrwt>
</event>
<event>
 4    3  0.7748294E-001  0.3368611E+03  0.7546771E-02  0.1068141E+00
         -2   -1    0    0    0  501 -0.00000000000E+00  0.00000000000E+00  0.16389753977E+03  0.16389753977E+03  0.00000000000E+00 0. -1.
          2   -1    0    0  502    0  0.00000000000E+00 -0.00000000000E+00 -0.86789657478E+03  0.86789657478E+03  0.00000000000E+00 0.  1.
          6    1    1    2  502    0 -0.27865094047E+03  0.76811933663E+02 -0.58401555864E+03  0.67420293125E+03  0.17300000000E+03 0.  1.
         -6    1    1    2    0  501  0.27865094047E+03 -0.76811933663E+02 -0.11998347637E+03  0.35759118331E+03  0.17300000000E+03 0. -1.
<mgrwt>
<rscale>  2 0.33686113E+03</rscale>
<asrwt>0</asrwt>
<pdfrwt beam="1">  1        2 0.13352255E+00 0.33686113E+03</pdfrwt>
<pdfrwt beam="2">  1       -2 0.25215006E-01 0.33686113E+03</pdfrwt>
<totfact> 0.44695738E+02</totfact>
</mgrwt>
</event>
<event>
 4    3  0.7748294E-001  0.2055254E+03  0.7546771E-02  0.1145159E+00
          1   -1    0    0  502    0  0.00000000000E+00  0.00000000000E+00  0.82024651209E+03  0.82024651209E+03  0.00000000000E+00 0.  1.
         -1   -1    0    0    0  501 -0.00000000000E+00 -0.00000000000E+00 -0.92791261553E+02  0.92791261553E+02  0.00000000000E+00 0. -1.
          6    1    1    2  502    0  0.93762799020E+02  0.59331455231E+02  0.59185635570E+02  0.21387759003E+03  0.17300000000E+03 0. -1.
         -6    1    1    2    0  501 -0.93762799020E+02 -0.59331455231E+02  0.66826961497E+03  0.69916018361E+03  0.17300000000E+03 0.  1.
<mgrwt>
<rscale>  2 0.20552539E+03</rscale>
<asrwt>0</asrwt>
<pdfrwt beam="1">  1        1 0.12619177E+00 0.20552539E+03</pdfrwt>
<pdfrwt beam="2">  1       -1 0.14275579E-01 0.20552539E+03</pdfrwt>
<totfact> 0.77526274E+02</totfact>
</mgrwt>
</event>
<event>
 4    3  0.7748294E-001  0.2820234E+03  0.7546771E-02  0.1094589E+00
         -2   -1    0    0    0  501 -0.00000000000E+00  0.00000000000E+00  0.90835400477E+02  0.90835400477E+02  0.00000000000E+00 0.  1.
          2   -1    0    0  502    0  0.00000000000E+00 -0.00000000000E+00 -0.11080020619E+04  0.11080020619E+04  0.00000000000E+00 0. -1.
          6    1    1    2  502    0 -0.10507560055E+03  0.19638569163E+03 -0.23407086966E+03  0.36650565307E+03  0.17300000000E+03 0.  1.
         -6    1    1    2    0  501  0.10507560055E+03 -0.19638569163E+03 -0.78309579174E+03  0.83233180928E+03  0.17300000000E+03 0. -1.
<mgrwt>
<rscale>  2 0.28202344E+03</rscale>
<asrwt>0</asrwt>
<pdfrwt beam="1">  1        2 0.17046186E+00 0.28202344E+03</pdfrwt>
<pdfrwt beam="2">  1       -2 0.13974676E-01 0.28202344E+03</pdfrwt>
<totfact> 0.87168558E+02</totfact>
</mgrwt>
</event>
<event>
 4    3  0.7748294E-001  0.1882544E+03  0.7546771E-02  0.1160045E+00
         -1   -1    0    0    0  501 -0.00000000000E+00  0.00000000000E+00  0.75729046520E+02  0.75729046520E+02  0.00000000000E+00 0.  1.
          1   -1    0    0  502    0  0.00000000000E+00 -0.00000000000E+00 -0.47425547069E+03  0.47425547069E+03  0.00000000000E+00 0. -1.
          6    1    1    2  502    0  0.46413726745E+02  0.57935196717E+02 -0.16763181902E+03  0.25207171162E+03  0.17300000000E+03 0.  1.
         -6    1    1    2    0  501 -0.46413726745E+02 -0.57935196717E+02 -0.23089460514E+03  0.29791280559E+03  0.17300000000E+03 0.  1.
<mgrwt>
<rscale>  2 0.18825441E+03</rscale>
<asrwt>0</asrwt>
<pdfrwt beam="1">  1        1 0.72962380E-01 0.18825441E+03</pdfrwt>
<pdfrwt beam="2">  1       -1 0.11650623E-01 0.18825441E+03</pdfrwt>
<totfact> 0.22992184E+03</totfact>
</mgrwt>
</event>
<event>
 4    3  0.7748294E-001  0.1974095E+03  0.7546771E-02  0.1151943E+00
         -2   -1    0    0    0  501 -0.00000000000E+00  0.00000000000E+00  0.10346060538E+03  0.10346060538E+03  0.00000000000E+00 0. -1.
          2   -1    0    0  502    0  0.00000000000E+00 -0.00000000000E+00 -0.38254941521E+03  0.38254941521E+03  0.00000000000E+00 0.  1.
          6    1    1    2  502    0 -0.93984421821E+02 -0.14437214949E+02 -0.10941857214E+03  0.22570540235E+03  0.17300000000E+03 0.  1.
         -6    1    1    2    0  501  0.93984421821E+02  0.14437214949E+02 -0.16967023769E+03  0.26030461824E+03  0.17300000000E+03 0. -1.
<mgrwt>
<rscale>  2 0.19740948E+03</rscale>
<asrwt>0</asrwt>
<pdfrwt beam="1">  1        2 0.58853757E-01 0.19740948E+03</pdfrwt>
<pdfrwt beam="2">  1       -2 0.15917016E-01 0.19740948E+03</pdfrwt>
<totfact> 0.25657968E+03</totfact>
</mgrwt>
</event>
<event>
 4    3  0.7748294E-001  0.2463635E+03  0.7546771E-02  0.1115625E+00
         -1   -1    0    0    0  501 -0.00000000000E+00  0.00000000000E+00  0.55645113517E+02  0.55645113517E+02  0.00000000000E+00 0.  1.
          1   -1    0    0  502    0  0.00000000000E+00 -0.00000000000E+00 -0.22251066699E+04  0.22251066699E+04  0.00000000000E+00 0. -1.
          6    1    1    2  502    0 -0.17526606725E+03 -0.69122610411E+01 -0.27050059636E+03  0.36587640853E+03  0.17300000000E+03 0.  1.
         -6    1    1    2    0  501  0.17526606725E+03  0.69122610411E+01 -0.18989609600E+04  0.19148753749E+04  0.17300000000E+03 0. -1.
<mgrwt>
<rscale>  2 0.24636350E+03</rscale>
<asrwt>0</asrwt>
<pdfrwt beam="1">  1        1 0.34232416E+00 0.24636350E+03</pdfrwt>
<pdfrwt beam="2">  1       -1 0.85607854E-02 0.24636350E+03</pdfrwt>
<totfact> 0.18810539E+02</totfact>
</mgrwt>
</event>
<event>
 4    3  0.7748294E-001  0.2020381E+03  0.7546771E-02  0.1148031E+00
          1   -1    0    0  502    0  0.00000000000E+00  0.00000000000E+00  0.67925750373E+03  0.67925750373E+03  0.00000000000E+00 0. -1.
         -1   -1    0    0    0  501 -0.00000000000E+00 -0.00000000000E+00 -0.68416039562E+02  0.68416039562E+02  0.00000000000E+00 0.  1.
          6    1    1    2  502    0  0.42391941683E+02 -0.95358816676E+02  0.17503956648E+03  0.26731672314E+03  0.17300000000E+03 0.  1.
         -6    1    1    2    0  501 -0.42391941683E+02  0.95358816676E+02  0.43580189769E+03  0.48035682015E+03  0.17300000000E+03 0. -1.
<mgrwt>
<rscale>  2 0.20203807E+03</rscale>
<asrwt>0</asrwt>
<pdfrwt beam="1">  1        1 0.10450115E+00 0.20203807E+03</pdfrwt>
<pdfrwt beam="2">  1       -1 0.10525545E-01 0.20203807E+03</pdfrwt>
<totfact> 0.16515196E+03</totfact>
</mgrwt>
</event>
<event>
 4    3  0.7748294E-001  0.2063069E+03  0.7546771E-02  0.1144524E+00
          1   -1    0    0  502    0  0.00000000000E+00  0.00000000000E+00  0.24399708932E+04  0.24399708932E+04  0.00000000000E+00 0.  1.
         -1   -1    0    0    0  501 -0.00000000000E+00 -0.00000000000E+00 -0.17602778234E+02  0.17602778234E+02  0.00000000000E+00 0. -1.
          6    1    1    2  502    0 -0.33102963476E+02 -0.10741373429E+03  0.10944306574E+04  0.11137059668E+04  0.17300000000E+03 0.  1.
         -6    1    1    2    0  501  0.33102963476E+02  0.10741373429E+03  0.13279374575E+04  0.13438677047E+04  0.17300000000E+03 0.  1.
<mgrwt>
<rscale>  2 0.20630685E+03</rscale>
<asrwt>0</asrwt>
<pdfrwt beam="1">  1        1 0.37537987E+00 0.20630685E+03</pdfrwt>
<pdfrwt beam="2">  1       -1 0.27081217E-02 0.20630685E+03</pdfrwt>
<totfact> 0.76951407E+02</totfact>
</mgrwt>
</event>
<event>
 4    3  0.7748294E-001  0.2176184E+03  0.7546771E-02  0.1135671E+00
         -2   -1    0    0    0  501 -0.00000000000E+00  0.00000000000E+00  0.40843111238E+03  0.40843111238E+03  0.00000000000E+00 0. -1.
          2   -1    0    0  502    0  0.00000000000E+00 -0.00000000000E+00 -0.12423681438E+03  0.12423681438E+03  0.00000000000E+00 0.  1.
          6    1    1    2  502    0  0.12370332342E+03 -0.46111336505E+02  0.73313747503E+02  0.22963595788E+03  0.17300000000E+03 0.  1.
         -6    1    1    2    0  501 -0.12370332342E+03  0.46111336505E+02  0.21088055050E+03  0.30303196887E+03  0.17300000000E+03 0. -1.
<mgrwt>
<rscale>  2 0.21761840E+03</rscale>
<asrwt>0</asrwt>
<pdfrwt beam="1">  1        2 0.19113356E-01 0.21761840E+03</pdfrwt>
<pdfrwt beam="2">  1       -2 0.62835555E-01 0.21761840E+03</pdfrwt>
<totfact> 0.70099900E+02</totfact>
</mgrwt>
</event>
<event>
 4    3  0.7748294E-001  0.1884140E+03  0.7546771E-02  0.1159900E+00
          1   -1    0    0  502    0  0.00000000000E+00  0.00000000000E+00  0.64151734745E+03  0.64151734745E+03  0.00000000000E+00 0. -1.
         -1   -1    0    0    0  501 -0.00000000000E+00 -0.00000000000E+00 -0.89046774741E+02  0.89046774741E+02  0.00000000000E+00 0.  1.
          6    1    1    2  502    0 -0.18970791270E+02  0.72186807865E+02  0.50098303938E+03  0.53524184430E+03  0.17300000000E+03 0. -1.
         -6    1    1    2    0  501  0.18970791270E+02 -0.72186807865E+02  0.51487533337E+02  0.19532227789E+03  0.17300000000E+03 0.  1.
<mgrwt>
<rscale>  2 0.18841398E+03</rscale>
<asrwt>0</asrwt>
<pdfrwt beam="1">  1        1 0.98694974E-01 0.18841398E+03</pdfrwt>
<pdfrwt beam="2">  1       -1 0.13699504E-01 0.18841398E+03</pdfrwt>
<totfact> 0.11874552E+03</totfact>
</mgrwt>
</event>
<event>
 4    3  0.7748294E-001  0.2440700E+03  0.7546771E-02  0.1117111E+00
          2   -1    0    0  502    0  0.00000000000E+00  0.00000000000E+00  0.26953594001E+03  0.26953594001E+03  0.00000000000E+00 0. -1.
         -2   -1    0    0    0  501 -0.00000000000E+00 -0.00000000000E+00 -0.22118148235E+03  0.22118148235E+03  0.00000000000E+00 0.  1.
          6    1    1    2  502    0  0.71330390200E+02 -0.15669439344E+03  0.17346836683E+02  0.24468565599E+03  0.17300000000E+03 0.  1.
         -6    1    1    2    0  501 -0.71330390200E+02  0.15669439344E+03  0.31007620974E+02  0.24603176637E+03  0.17300000000E+03 0. -1.
<mgrwt>
<rscale>  2 0.24406998E+03</rscale>
<asrwt>0</asrwt>
<pdfrwt beam="1">  1        2 0.41467068E-01 0.24406998E+03</pdfrwt>
<pdfrwt beam="2">  1       -2 0.34027920E-01 0.24406998E+03</pdfrwt>
<totfact> 0.99468378E+02</totfact>
</mgrwt>
</event>
<event>
 4    3  0.7748294E-001  0.1768615E+03  0.7546771E-02  0.1170876E+00
         -2   -1    0    0    0  501 -0.00000000000E+00  0.00000000000E+00  0.10909676504E+03  0.10909676504E+03  0.00000000000E+00 0.  1.
          2   -1    0    0  502    0  0.00000000000E+00 -0.00000000000E+00 -0.29466518983E+03  0.29466518983E+03  0.00000000000E+00 0. -1.
          6    1    1    2  502    0  0.16147070548E+01  0.36720212473E+02 -0.12593883094E+03  0.21711879334E+03  0.17300000000E+03 0. -1.
         -6    1    1    2    0  501 -0.16147070548E+01 -0.36720212473E+02 -0.59629593858E+02  0.18664316153E+03  0.17300000000E+03 0.  1.
<mgrwt>
<rscale>  2 0.17686147E+03</rscale>
<asrwt>0</asrwt>
<pdfrwt beam="1">  1        2 0.45333105E-01 0.17686147E+03</pdfrwt>
<pdfrwt beam="2">  1       -2 0.16784118E-01 0.17686147E+03</pdfrwt>
<totfact> 0.30958844E+03</totfact>
</mgrwt>
</event>
<event>
 4    3  0.7748294E-001  0.3646380E+03  0.7546771E-02  0.1056762E+00
          2   -1    0    0  502    0  0.00000000000E+00  0.00000000000E+00  0.39953720987E+03  0.39953720987E+03  0.00000000000E+00 0.  1.
         -2   -1    0    0    0  501 -0.00000000000E+00 -0.00000000000E+00 -0.34178038201E+03  0.34178038201E+03  0.00000000000E+00 0. -1.
          6    1    1    2  502    0  0.26816101418E+03 -0.17641293680E+03 -0.31247041348E+02  0.36597435892E+03  0.17300000000E+03 0. -1.
         -6    1    1    2    0  501 -0.26816101418E+03  0.17641293680E+03  0.89003869205E+02  0.37534323296E+03  0.17300000000E+03 0.  1.
<mgrwt>
<rscale>  2 0.36463798E+03</rscale>
<asrwt>0</asrwt>
<pdfrwt beam="1">  1        2 0.61467263E-01 0.36463798E+03</pdfrwt>
<pdfrwt beam="2">  1       -2 0.52581598E-01 0.36463798E+03</pdfrwt>
<totfact> 0.27799994E+02</totfact>
</mgrwt>
</event>
<event>
 4    3  0.7748294E-001  0.2587632E+03  0.7546771E-02  0.1107889E+00
          2   -1    0    0  502    0  0.00000000000E+00  0.00000000000E+00  0.10134534586E+03  0.10134534586E+03  0.00000000000E+00 0. -1.
         -2   -1    0    0    0  501 -0.00000000000E+00 -0.00000000000E+00 -0.11579715046E+04  0.11579715046E+04  0.00000000000E+00 0.  1.
          6    1    1    2  502    0 -0.17577212733E+03 -0.78316846251E+02 -0.11568856384E+03  0.28344701967E+03  0.17300000000E+03 0. -1.
         -6    1    1    2    0  501  0.17577212733E+03  0.78316846251E+02 -0.94093759486E+03  0.97586983075E+03  0.17300000000E+03 0.  1.
<mgrwt>
<rscale>  2 0.25876315E+03</rscale>
<asrwt>0</asrwt>
<pdfrwt beam="1">  1        2 0.15591593E-01 0.25876315E+03</pdfrwt>
<pdfrwt beam="2">  1       -2 0.17814945E+00 0.25876315E+03</pdfrwt>
<totfact> 0.74786711E+01</totfact>
</mgrwt>
</event>
<event>
 4    3  0.7748294E-001  0.2733865E+03  0.7546771E-02  0.1099357E+00
          1   -1    0    0  502    0  0.00000000000E+00  0.00000000000E+00  0.55783896365E+03  0.55783896365E+03  0.00000000000E+00 0. -1.
         -1   -1    0    0    0  501 -0.00000000000E+00 -0.00000000000E+00 -0.16527257658E+03  0.16527257658E+03  0.00000000000E+00 0.  1.
          6    1    1    2  502    0 -0.89978231525E+02 -0.19161183068E+03  0.38963090734E+02  0.27614905077E+03  0.17300000000E+03 0.  1.
         -6    1    1    2    0  501  0.89978231525E+02  0.19161183068E+03  0.35360329633E+03  0.44696248945E+03  0.17300000000E+03 0. -1.
<mgrwt>
<rscale>  2 0.27338650E+03</rscale>
<asrwt>0</asrwt>
<pdfrwt beam="1">  1        1 0.85821378E-01 0.27338650E+03</pdfrwt>
<pdfrwt beam="2">  1       -1 0.25426550E-01 0.27338650E+03</pdfrwt>
<totfact> 0.52937397E+02</totfact>
</mgrwt>
</event>
<event>
 4    3  0.7748294E-001  0.1841636E+03  0.7546771E-02  0.1163833E+00
          1   -1    0    0  502    0  0.00000000000E+00  0.00000000000E+00  0.14533540708E+04  0.14533540708E+04  0.00000000000E+00 0.  1.
         -1   -1    0    0    0  501 -0.00000000000E+00 -0.00000000000E+00 -0.23750735151E+02  0.23750735151E+02  0.00000000000E+00 0. -1.
          6    1    1    2  502    0  0.23375347650E+02 -0.58658604565E+02  0.81233460304E+03  0.83294882560E+03  0.17300000000E+03 0.  1.
         -6    1    1    2    0  501 -0.23375347650E+02  0.58658604565E+02  0.61726873259E+03  0.64415598034E+03  0.17300000000E+03 0.  1.
<mgrwt>
<rscale>  2 0.18416362E+03</rscale>
<asrwt>0</asrwt>
<pdfrwt beam="1">  1        1 0.22359287E+00 0.18416362E+03</pdfrwt>
<pdfrwt beam="2">  1       -1 0.36539604E-02 0.18416362E+03</pdfrwt>
<totfact> 0.21615320E+03</totfact>
</mgrwt>
</event>
<event>
 4    3  0.7748294E-001  0.1809515E+03  0.7546771E-02  0.1166885E+00
          1   -1    0    0  502    0  0.00000000000E+00  0.00000000000E+00  0.19548241645E+03  0.19548241645E+03  0.00000000000E+00 0.  1.
         -1   -1    0    0    0  501 -0.00000000000E+00 -0.00000000000E+00 -0.19214744499E+03  0.19214744499E+03  0.00000000000E+00 0. -1.
          6    1    1    2  502    0 -0.16542078687E+02  0.50406516300E+02 -0.67746823056E+02  0.19321772508E+03  0.17300000000E+03 0. -1.
         -6    1    1    2    0  501  0.16542078687E+02 -0.50406516300E+02  0.71081794518E+02  0.19441213636E+03  0.17300000000E+03 0.  1.
<mgrwt>
<rscale>  2 0.18095153E+03</rscale>
<asrwt>0</asrwt>
<pdfrwt beam="1">  1        1 0.30074218E-01 0.18095153E+03</pdfrwt>
<pdfrwt beam="2">  1       -1 0.29561145E-01 0.18095153E+03</pdfrwt>
<totfact> 0.15654888E+03</totfact>
</mgrwt>
</event>
<event>
 4    3  0.7748294E-001  0.2271238E+03  0.7546771E-02  0.1128681E+00
         -2   -1    0    0    0  501 -0.00000000000E+00  0.00000000000E+00  0.42547938197E+03  0.42547938197E+03  0.00000000000E+00 0. -1.
          2   -1    0    0  502    0  0.00000000000E+00 -0.00000000000E+00 -0.12838207689E+03  0.12838207689E+03  0.00000000000E+00 0.  1.
          6    1    1    2  502    0  0.14012889277E+03  0.44945690235E+02  0.83231992863E+02  0.24189416342E+03  0.17300000000E+03 0.  1.
         -6    1    1    2    0  501 -0.14012889277E+03 -0.44945690235E+02  0.21386531221E+03  0.31196729544E+03  0.17300000000E+03 0. -1.
<mgrwt>
<rscale>  2 0.22712380E+03</rscale>
<asrwt>0</asrwt>
<pdfrwt beam="1">  1        2 0.19751089E-01 0.22712380E+03</pdfrwt>
<pdfrwt beam="2">  1       -2 0.65458366E-01 0.22712380E+03</pdfrwt>
<totfact> 0.61987074E+02</totfact>
</mgrwt>
</event>
<event>
 4    3  0.7748294E-001  0.2765994E+03  0.7546771E-02  0.1097561E+00
          2   -1    0    0  502    0  0.00000000000E+00  0.00000000000E+00  0.72905446932E+03  0.72905446932E+03  0.00000000000E+00 0.  1.
         -2   -1    0    0    0  501 -0.00000000000E+00 -0.00000000000E+00 -0.12939665167E+03  0.12939665167E+03  0.00000000000E+00 0. -1.
          6    1    1    2  502    0 -0.17689913331E+03  0.12363219435E+03  0.11322550989E+03  0.29887662829E+03  0.17300000000E+03 0. -1.
         -6    1    1    2    0  501  0.17689913331E+03 -0.12363219435E+03  0.48643230777E+03  0.55957449270E+03  0.17300000000E+03 0.  1.
<mgrwt>
<rscale>  2 0.27659939E+03</rscale>
<asrwt>0</asrwt>
<pdfrwt beam="1">  1        2 0.11216222E+00 0.27659939E+03</pdfrwt>
<pdfrwt beam="2">  1       -2 0.19907178E-01 0.27659939E+03</pdfrwt>
<totfact> 0.84749487E+02</totfact>
</mgrwt>
</event>
<event>
 4    3  0.7748294E-001  0.2595612E+03  0.7546771E-02  0.1107407E+00
         -2   -1    0    0    0  501 -0.00000000000E+00  0.00000000000E+00  0.35923848442E+03  0.35923848442E+03  0.00000000000E+00 0. -1.
          2   -1    0    0  502    0  0.00000000000E+00 -0.00000000000E+00 -0.24169221452E+03  0.24169221452E+03  0.00000000000E+00 0.  1.
          6    1    1    2  502    0 -0.17184171480E+03  0.88957609223E+02  0.20099494415E+03  0.32828493532E+03  0.17300000000E+03 0. -1.
         -6    1    1    2    0  501  0.17184171480E+03 -0.88957609223E+02 -0.83448674243E+02  0.27264576362E+03  0.17300000000E+03 0.  1.
<mgrwt>
<rscale>  2 0.25956123E+03</rscale>
<asrwt>0</asrwt>
<pdfrwt beam="1">  1        2 0.37183417E-01 0.25956123E+03</pdfrwt>
<pdfrwt beam="2">  1       -2 0.55267459E-01 0.25956123E+03</pdfrwt>
<totfact> 0.43569387E+02</totfact>
</mgrwt>
</event>
<event>
 4    3  0.7748294E-001  0.2066523E+03  0.7546771E-02  0.1144245E+00
          2   -1    0    0  502    0  0.00000000000E+00  0.00000000000E+00  0.15772130275E+04  0.15772130275E+04  0.00000000000E+00 0.  1.
         -2   -1    0    0    0  501 -0.00000000000E+00 -0.00000000000E+00 -0.43474556320E+02  0.43474556320E+02  0.00000000000E+00 0. -1.
          6    1    1    2  502    0 -0.20062021926E+02 -0.11123703617E+03  0.12645489956E+04  0.12813232712E+04  0.17300000000E+03 0.  1.
         -6    1    1    2    0  501  0.20062021926E+02  0.11123703617E+03  0.26918947554E+03  0.33936431262E+03  0.17300000000E+03 0.  1.
<mgrwt>
<rscale>  2 0.20665228E+03</rscale>
<asrwt>0</asrwt>
<pdfrwt beam="1">  1        2 0.24264811E+00 0.20665228E+03</pdfrwt>
<pdfrwt beam="2">  1       -2 0.66883945E-02 0.20665228E+03</pdfrwt>
<totfact> 0.15582246E+03</totfact>
</mgrwt>
</event>
<event>
 4    3  0.7748294E-001  0.2323717E+03  0.7546771E-02  0.1124982E+00
         -1   -1    0    0    0  501 -0.00000000000E+00  0.00000000000E+00  0.59317968433E+02  0.59317968433E+02  0.00000000000E+00 0. -1.
          1   -1    0    0  502    0  0.00000000000E+00 -0.00000000000E+00 -0.15001722074E+04  0.15001722074E+04  0.00000000000E+00 0.  1.
          6    1    1    2  502    0 -0.12889584441E+03 -0.86333393769E+02 -0.23147707565E+03  0.32799120436E+03  0.17300000000E+03 0. -1.
         -6    1    1    2    0  501  0.12889584441E+03  0.86333393769E+02 -0.12093771633E+04  0.12314989715E+04  0.17300000000E+03 0.  1.
<mgrwt>
<rscale>  2 0.23237167E+03</rscale>
<asrwt>0</asrwt>
<pdfrwt beam="1">  1        1 0.23079571E+00 0.23237167E+03</pdfrwt>
<pdfrwt beam="2">  1       -1 0.91258418E-02 0.23237167E+03</pdfrwt>
<totfact> 0.50635343E+02</totfact>
</mgrwt>
</event>
<event>
 4    3  0.7748294E-001  0.2701670E+03  0.7546771E-02  0.1101184E+00
          2   -1    0    0  502    0  0.00000000000E+00  0.00000000000E+00  0.19911985210E+04  0.19911985210E+04  0.00000000000E+00 0.  1.
         -2   -1    0    0    0  501 -0.00000000000E+00 -0.00000000000E+00 -0.44900015029E+02  0.44900015029E+02  0.00000000000E+00 0. -1.
          6    1    1    2  502    0 -0.89704851784E+02  0.18712095347E+03  0.53693098828E+03  0.60106996085E+03  0.17300000000E+03 0. -1.
         -6    1    1    2    0  501  0.89704851784E+02 -0.18712095347E+03  0.14093675177E+04  0.14350285752E+04  0.17300000000E+03 0.  1.
<mgrwt>
<rscale>  2 0.27016701E+03</rscale>
<asrwt>0</asrwt>
<pdfrwt beam="1">  1        2 0.30633816E+00 0.27016701E+03</pdfrwt>
<pdfrwt beam="2">  1       -2 0.69076962E-02 0.27016701E+03</pdfrwt>
<totfact> 0.89388807E+02</totfact>
</mgrwt>
</event>
<event>
 4    3  0.7748294E-001  0.2042941E+03  0.7546771E-02  0.1146166E+00
          2   -1    0    0  502    0  0.00000000000E+00  0.00000000000E+00  0.37696613431E+04  0.37696613431E+04  0.00000000000E+00 0. -1.
         -2   -1    0    0    0  501 -0.00000000000E+00 -0.00000000000E+00 -0.11141610214E+02  0.11141610214E+02  0.00000000000E+00 0.  1.
          6    1    1    2  502    0 -0.10087565647E+03 -0.40387991112E+02  0.17293816148E+04  0.17414065745E+04  0.17300000000E+03 0.  1.
         -6    1    1    2    0  501  0.10087565647E+03  0.40387991112E+02  0.20291381181E+04  0.20393963789E+04  0.17300000000E+03 0. -1.
<mgrwt>
<rscale>  2 0.20429412E+03</rscale>
<asrwt>0</asrwt>
<pdfrwt beam="1">  1        2 0.57994688E+00 0.20429412E+03</pdfrwt>
<pdfrwt beam="2">  1       -2 0.17140969E-02 0.20429412E+03</pdfrwt>
<totfact> 0.65538345E+02</totfact>
</mgrwt>
</event>
<event>
 4    3  0.7748294E-001  0.1739197E+03  0.7546771E-02  0.1173821E+00
          2   -1    0    0  502    0  0.00000000000E+00  0.00000000000E+00  0.15262268627E+04  0.15262268627E+04  0.00000000000E+00 0.  1.
         -2   -1    0    0    0  501 -0.00000000000E+00 -0.00000000000E+00 -0.19991833331E+02  0.19991833331E+02  0.00000000000E+00 0. -1.
          6    1    1    2  502    0  0.10516388654E+02 -0.14437918033E+02  0.68120115077E+03  0.70305266923E+03  0.17300000000E+03 0. -1.
         -6    1    1    2    0  501 -0.10516388654E+02  0.14437918033E+02  0.82503387856E+03  0.84316602676E+03  0.17300000000E+03 0.  1.
<mgrwt>
<rscale>  2 0.17391966E+03</rscale>
<asrwt>0</asrwt>
<pdfrwt beam="1">  1        2 0.23480404E+00 0.17391966E+03</pdfrwt>
<pdfrwt beam="2">  1       -2 0.30756679E-02 0.17391966E+03</pdfrwt>
<totfact> 0.53437105E+03</totfact>
</mgrwt>
</event>
<event>
 4    3  0.7748294E-001  0.2010922E+03  0.7546771E-02  0.1148821E+00
         -2   -1    0    0    0  501 -0.00000000000E+00  0.00000000000E+00  0.14003787203E+03  0.14003787203E+03  0.00000000000E+00 0. -1.
          2   -1    0    0  502    0  0.00000000000E+00 -0.00000000000E+00 -0.58307315805E+03  0.58307315805E+03  0.00000000000E+00 0.  1.
          6    1    1    2  502    0  0.20979548805E+02 -0.10034410391E+03 -0.47838823207E+03  0.51893485259E+03  0.17300000000E+03 0.  1.
         -6    1    1    2    0  501 -0.20979548805E+02  0.10034410391E+03  0.35352946049E+02  0.20417617748E+03  0.17300000000E+03 0. -1.
<mgrwt>
<rscale>  2 0.20109222E+03</rscale>
<asrwt>0</asrwt>
<pdfrwt beam="1">  1        2 0.89703563E-01 0.20109222E+03</pdfrwt>
<pdfrwt beam="2">  1       -2 0.21544288E-01 0.20109222E+03</pdfrwt>
<totfact> 0.96507062E+02</totfact>
</mgrwt>
</event>
<event>
 4    3  0.7748294E-001  0.1785302E+03  0.7546771E-02  0.1169233E+00
          2   -1    0    0  502    0  0.00000000000E+00  0.00000000000E+00  0.25045232179E+04  0.25045232179E+04  0.00000000000E+00 0.  1.
         -2   -1    0    0    0  501 -0.00000000000E+00 -0.00000000000E+00 -0.12924784933E+02  0.12924784933E+02  0.00000000000E+00 0. -1.
          6    1    1    2  502    0 -0.30408633437E+02 -0.31927225799E+02  0.14018282345E+04  0.14131508879E+04  0.17300000000E+03 0.  1.
         -6    1    1    2    0  501  0.30408633437E+02  0.31927225799E+02  0.10897701984E+04  0.11042971150E+04  0.17300000000E+03 0. -1.
<mgrwt>
<rscale>  2 0.17853020E+03</rscale>
<asrwt>0</asrwt>
<pdfrwt beam="1">  1        2 0.38531088E+00 0.17853020E+03</pdfrwt>
<pdfrwt beam="2">  1       -2 0.19884304E-02 0.17853020E+03</pdfrwt>
<totfact> 0.31269839E+03</totfact>
</mgrwt>
</event>
<event>
 4    3  0.7748294E-001  0.1830216E+03  0.7546771E-02  0.1164910E+00
          2   -1    0    0  502    0  0.00000000000E+00  0.00000000000E+00  0.29696205900E+04  0.29696205900E+04  0.00000000000E+00 0. -1.
         -2   -1    0    0    0  501 -0.00000000000E+00 -0.00000000000E+00 -0.12266009970E+02  0.12266009970E+02  0.00000000000E+00 0.  1.
          6    1    1    2  502    0  0.35303032527E+02 -0.48183152806E+02  0.10559310228E+04  0.10716749718E+04  0.17300000000E+03 0.  1.
         -6    1    1    2    0  501 -0.35303032527E+02  0.48183152806E+02  0.19014235572E+04  0.19102116281E+04  0.17300000000E+03 0. -1.
<mgrwt>
<rscale>  2 0.18302164E+03</rscale>
<asrwt>0</asrwt>
<pdfrwt beam="1">  1        2 0.45686413E+00 0.18302164E+03</pdfrwt>
<pdfrwt beam="2">  1       -2 0.18870808E-02 0.18302164E+03</pdfrwt>
<totfact> 0.18536353E+03</totfact>
</mgrwt>
</event>
<event>
 4    3  0.7748294E-001  0.2544242E+03  0.7546771E-02  0.1110540E+00
         -1   -1    0    0    0  501 -0.00000000000E+00  0.00000000000E+00  0.10339750557E+03  0.10339750557E+03  0.00000000000E+00 0. -1.
          1   -1    0    0  502    0  0.00000000000E+00 -0.00000000000E+00 -0.62934397074E+03  0.62934397074E+03  0.00000000000E+00 0.  1.
          6    1    1    2  502    0  0.94023174016E+02  0.16112829859E+03 -0.28949131587E+03  0.38540486222E+03  0.17300000000E+03 0.  1.
         -6    1    1    2    0  501 -0.94023174016E+02 -0.16112829859E+03 -0.23645514930E+03  0.34733661409E+03  0.17300000000E+03 0.  1.
<mgrwt>
<rscale>  2 0.25442422E+03</rscale>
<asrwt>0</asrwt>
<pdfrwt beam="1">  1        1 0.96822149E-01 0.25442422E+03</pdfrwt>
<pdfrwt beam="2">  1       -1 0.15907309E-01 0.25442422E+03</pdfrwt>
<totfact> 0.96365862E+02</totfact>
</mgrwt>
</event>
<event>
 4    3  0.7748294E-001  0.2011458E+03  0.7546771E-02  0.1148776E+00
          2   -1    0    0  502    0  0.00000000000E+00  0.00000000000E+00  0.42813861444E+03  0.42813861444E+03  0.00000000000E+00 0.  1.
         -2   -1    0    0    0  501 -0.00000000000E+00 -0.00000000000E+00 -0.95558320428E+02  0.95558320428E+02  0.00000000000E+00 0. -1.
          6    1    1    2  502    0 -0.99419022341E+02  0.25426240252E+02  0.13874994989E+03  0.24435872051E+03  0.17300000000E+03 0. -1.
         -6    1    1    2    0  501  0.99419022341E+02 -0.25426240252E+02  0.19383034412E+03  0.27933821436E+03  0.17300000000E+03 0.  1.
<mgrwt>
<rscale>  2 0.20114581E+03</rscale>
<asrwt>0</asrwt>
<pdfrwt beam="1">  1        2 0.65867478E-01 0.20114581E+03</pdfrwt>
<pdfrwt beam="2">  1       -2 0.14701280E-01 0.20114581E+03</pdfrwt>
<totfact> 0.25908919E+03</totfact>
</mgrwt>
</event>
<event>
 4    3  0.7748294E-001  0.3290729E+03  0.7546771E-02  0.1071548E+00
          2   -1    0    0  502    0  0.00000000000E+00  0.00000000000E+00  0.19739359597E+04  0.19739359597E+04  0.00000000000E+00 0.  1.
         -2   -1    0    0    0  501 -0.00000000000E+00 -0.00000000000E+00 -0.83252063984E+02  0.83252063984E+02  0.00000000000E+00 0. -1.
          6    1    1    2  502    0  0.27891094531E+03 -0.23846278317E+02  0.15460306843E+04  0.15806643658E+04  0.17300000000E+03 0.  1.
         -6    1    1    2    0  501 -0.27891094531E+03  0.23846278317E+02  0.34465321136E+03  0.47652365786E+03  0.17300000000E+03 0. -1.
<mgrwt>
<rscale>  2 0.32907288E+03</rscale>
<asrwt>0</asrwt>
<pdfrwt beam="1">  1        2 0.30368242E+00 0.32907288E+03</pdfrwt>
<pdfrwt beam="2">  1       -2 0.12808011E-01 0.32907288E+03</pdfrwt>
<totfact> 0.33829531E+02</totfact>
</mgrwt>
</event>
<event>
 4    3  0.7748294E-001  0.1857147E+03  0.7546771E-02  0.1162384E+00
          2   -1    0    0  502    0  0.00000000000E+00  0.00000000000E+00  0.36496059592E+04  0.36496059592E+04  0.00000000000E+00 0. -1.
         -2   -1    0    0    0  501 -0.00000000000E+00 -0.00000000000E+00 -0.94599468744E+01  0.94599468744E+01  0.00000000000E+00 0.  1.
          6    1    1    2  502    0 -0.67343744312E+01 -0.67198259537E+02  0.17617212567E+04  0.17714829224E+04  0.17300000000E+03 0.  1.
         -6    1    1    2    0  501  0.67343744312E+01  0.67198259537E+02  0.18784247556E+04  0.18875829837E+04  0.17300000000E+03 0. -1.
<mgrwt>
<rscale>  2 0.18571472E+03</rscale>
<asrwt>0</asrwt>
<pdfrwt beam="1">  1        2 0.56147672E+00 0.18571472E+03</pdfrwt>
<pdfrwt beam="2">  1       -2 0.14553793E-02 0.18571472E+03</pdfrwt>
<totfact> 0.10136344E+03</totfact>
</mgrwt>
</event>
<event>
 4    3  0.7748294E-001  0.1838031E+03  0.7546771E-02  0.1164172E+00
         -2   -1    0    0    0  501 -0.00000000000E+00  0.00000000000E+00  0.17311205487E+02  0.17311205487E+02  0.00000000000E+00 0.  1.
          2   -1    0    0  502    0  0.00000000000E+00 -0.00000000000E+00 -0.26038705441E+04  0.26038705441E+04  0.00000000000E+00 0. -1.
          6    1    1    2  502    0  0.47891008132E+02 -0.39509933280E+02 -0.63730074178E+03  0.66327657803E+03  0.17300000000E+03 0.  1.
         -6    1    1    2    0  501 -0.47891008132E+02  0.39509933280E+02 -0.19492585968E+04  0.19579051716E+04  0.17300000000E+03 0. -1.
<mgrwt>
<rscale>  2 0.18380311E+03</rscale>
<asrwt>0</asrwt>
<pdfrwt beam="1">  1        2 0.40059524E+00 0.18380311E+03</pdfrwt>
<pdfrwt beam="2">  1       -2 0.26632639E-02 0.18380311E+03</pdfrwt>
<totfact> 0.17969998E+03</totfact>
</mgrwt>
</event>
<event>
 4    3  0.7748294E-001  0.2669758E+03  0.7546771E-02  0.1103023E+00
          2   -1    0    0  502    0  0.00000000000E+00  0.00000000000E+00  0.29982161243E+04  0.29982161243E+04  0.00000000000E+00 0.  1.
         -2   -1    0    0    0  501 -0.00000000000E+00 -0.00000000000E+00 -0.23905295055E+02  0.23905295055E+02  0.00000000000E+00 0. -1.
          6    1    1    2  502    0 -0.10304329226E+03 -0.17529726863E+03  0.15996422738E+04  0.16217680033E+04  0.17300000000E+03 0.  1.
         -6    1    1    2    0  501  0.10304329226E+03  0.17529726863E+03  0.13746685555E+04  0.14003534161E+04  0.17300000000E+03 0. -1.
<mgrwt>
<rscale>  2 0.26697575E+03</rscale>
<asrwt>0</asrwt>
<pdfrwt beam="1">  1        2 0.46126372E+00 0.26697575E+03</pdfrwt>
<pdfrwt beam="2">  1       -2 0.36777401E-02 0.26697575E+03</pdfrwt>
<totfact> 0.65215329E+02</totfact>
</mgrwt>
</event>
<event>
 4    3  0.7748294E-001  0.1964273E+03  0.7546771E-02  0.1152789E+00
         -2   -1    0    0    0  501 -0.00000000000E+00  0.00000000000E+00  0.83974454677E+03  0.83974454677E+03  0.00000000000E+00 0. -1.
          2   -1    0    0  502    0  0.00000000000E+00 -0.00000000000E+00 -0.73182591651E+02  0.73182591651E+02  0.00000000000E+00 0.  1.
          6    1    1    2  502    0  0.47742980833E+02  0.79845357305E+02  0.10481554276E+03  0.22264314790E+03  0.17300000000E+03 0.  1.
         -6    1    1    2    0  501 -0.47742980833E+02 -0.79845357305E+02  0.66174641236E+03  0.69028399052E+03  0.17300000000E+03 0. -1.
<mgrwt>
<rscale>  2 0.19642727E+03</rscale>
<asrwt>0</asrwt>
<pdfrwt beam="1">  1        2 0.11258861E-01 0.19642727E+03</pdfrwt>
<pdfrwt beam="2">  1       -2 0.12919146E+00 0.19642727E+03</pdfrwt>
<totfact> 0.25591044E+02</totfact>
</mgrwt>
</event>
<event>
 4    3  0.7748294E-001  0.2970568E+03  0.7546771E-02  0.1086721E+00
          1   -1    0    0  502    0  0.00000000000E+00  0.00000000000E+00  0.92732402875E+03  0.92732402875E+03  0.00000000000E+00 0. -1.
         -1   -1    0    0    0  501 -0.00000000000E+00 -0.00000000000E+00 -0.95861108085E+02  0.95861108085E+02  0.00000000000E+00 0.  1.
          6    1    1    2  502    0  0.17619689659E+03 -0.16513150445E+03  0.45953011083E+03  0.54718432259E+03  0.17300000000E+03 0.  1.
         -6    1    1    2    0  501 -0.17619689659E+03  0.16513150445E+03  0.37193280984E+03  0.47600081425E+03  0.17300000000E+03 0. -1.
<mgrwt>
<rscale>  2 0.29705683E+03</rscale>
<asrwt>0</asrwt>
<pdfrwt beam="1">  1        1 0.14266523E+00 0.29705683E+03</pdfrwt>
<pdfrwt beam="2">  1       -1 0.14747863E-01 0.29705683E+03</pdfrwt>
<totfact> 0.60156903E+02</totfact>
</mgrwt>
</event>
<event>
 4    3  0.7748294E-001  0.2357604E+03  0.7546771E-02  0.1122650E+00
          2   -1    0    0  502    0  0.00000000000E+00  0.00000000000E+00  0.78384098894E+03  0.78384098894E+03  0.00000000000E+00 0. -1.
         -2   -1    0    0    0  501 -0.00000000000E+00 -0.00000000000E+00 -0.82765621281E+02  0.82765621281E+02  0.00000000000E+00 0.  1.
          6    1    1    2  502    0  0.22069628494E+02 -0.15864073886E+03  0.51452518826E+03  0.56596742122E+03  0.17300000000E+03 0. -1.
         -6    1    1    2    0  501 -0.22069628494E+02  0.15864073886E+03  0.18655017940E+03  0.30063918900E+03  0.17300000000E+03 0.  1.
<mgrwt>
<rscale>  2 0.23576037E+03</rscale>
<asrwt>0</asrwt>
<pdfrwt beam="1">  1        2 0.12059092E+00 0.23576037E+03</pdfrwt>
<pdfrwt beam="2">  1       -2 0.12733173E-01 0.23576037E+03</pdfrwt>
<totfact> 0.16319608E+03</totfact>
</mgrwt>
</event>
<event>
 4    3  0.7748294E-001  0.3846473E+03  0.7546771E-02  0.1049229E+00
         -2   -1    0    0    0  501 -0.00000000000E+00  0.00000000000E+00  0.21909173428E+03  0.21909173428E+03  0.00000000000E+00 0.  1.
          2   -1    0    0  502    0  0.00000000000E+00 -0.00000000000E+00 -0.70241108430E+03  0.70241108430E+03  0.00000000000E+00 0. -1.
          6    1    1    2  502    0 -0.16502694156E+03 -0.30131484082E+03 -0.15114637695E+03  0.41327805652E+03  0.17300000000E+03 0. -1.
         -6    1    1    2    0  501  0.16502694156E+03  0.30131484082E+03 -0.33217297307E+03  0.50822476207E+03  0.17300000000E+03 0.  1.
<mgrwt>
<rscale>  2 0.38464727E+03</rscale>
<asrwt>0</asrwt>
<pdfrwt beam="1">  1        2 0.10806324E+00 0.38464727E+03</pdfrwt>
<pdfrwt beam="2">  1       -2 0.33706421E-01 0.38464727E+03</pdfrwt>
<totfact> 0.34403131E+02</totfact>
</mgrwt>
</event>
<event>
 4    3  0.7748294E-001  0.1861309E+03  0.7546771E-02  0.1161998E+00
          2   -1    0    0  502    0  0.00000000000E+00  0.00000000000E+00  0.15377552264E+04  0.15377552264E+04  0.00000000000E+00 0.  1.
         -2   -1    0    0    0  501 -0.00000000000E+00 -0.00000000000E+00 -0.34599520520E+02  0.34599520520E+02  0.00000000000E+00 0. -1.
          6    1    1    2  502    0  0.67825272898E+02  0.10744936130E+02  0.12159231858E+04  0.12300869543E+04  0.17300000000E+03 0.  1.
         -6    1    1    2    0  501 -0.67825272898E+02 -0.10744936130E+02  0.28723252009E+03  0.34226779266E+03  0.17300000000E+03 0. -1.
<mgrwt>
<rscale>  2 0.18613093E+03</rscale>
<asrwt>0</asrwt>
<pdfrwt beam="1">  1        2 0.23657767E+00 0.18613093E+03</pdfrwt>
<pdfrwt beam="2">  1       -2 0.53230043E-02 0.18613093E+03</pdfrwt>
<totfact> 0.23190176E+03</totfact>
</mgrwt>
</event>
<event>
 4    3  0.7748294E-001  0.1851385E+03  0.7546771E-02  0.1162921E+00
          1   -1    0    0  502    0  0.00000000000E+00  0.00000000000E+00  0.10672559452E+03  0.10672559452E+03  0.00000000000E+00 0.  1.
         -1   -1    0    0    0  501 -0.00000000000E+00 -0.00000000000E+00 -0.34166519689E+03  0.34166519689E+03  0.00000000000E+00 0. -1.
          6    1    1    2  502    0  0.31771690812E+01  0.65857065906E+02 -0.62549497918E+02  0.19541926011E+03  0.17300000000E+03 0.  1.
         -6    1    1    2    0  501 -0.31771690812E+01 -0.65857065906E+02 -0.17239010445E+03  0.25297153129E+03  0.17300000000E+03 0. -1.
<mgrwt>
<rscale>  2 0.18513846E+03</rscale>
<asrwt>0</asrwt>
<pdfrwt beam="1">  1        1 0.16419322E-01 0.18513846E+03</pdfrwt>
<pdfrwt beam="2">  1       -1 0.52563876E-01 0.18513846E+03</pdfrwt>
<totfact> 0.12266316E+03</totfact>
</mgrwt>
</event>
<event>
 4    3  0.7748294E-001  0.1834677E+03  0.7546771E-02  0.1164489E+00
         -2   -1    0    0    0  501 -0.00000000000E+00  0.00000000000E+00  0.52154582682E+03  0.52154582682E+03  0.00000000000E+00 0. -1.
          2   -1    0    0  502    0  0.00000000000E+00 -0.00000000000E+00 -0.88454198743E+02  0.88454198743E+02  0.00000000000E+00 0.  1.
          6    1    1    2  502    0 -0.58126081178E+02 -0.18782178315E+02  0.37513415886E+03  0.41759555635E+03  0.17300000000E+03 0. -1.
         -6    1    1    2    0  501  0.58126081178E+02  0.18782178315E+02  0.57957469209E+02  0.19240446921E+03  0.17300000000E+03 0.  1.
<mgrwt>
<rscale>  2 0.18346774E+03</rscale>
<asrwt>0</asrwt>
<pdfrwt beam="1">  1        2 0.13608339E-01 0.18346774E+03</pdfrwt>
<pdfrwt beam="2">  1       -2 0.80237817E-01 0.18346774E+03</pdfrwt>
<totfact> 0.61599463E+02</totfact>
</mgrwt>
</event>
<event>
 4    3  0.7748294E-001  0.1758332E+03  0.7546771E-02  0.1171898E+00
          1   -1    0    0  502    0  0.00000000000E+00  0.00000000000E+00  0.25768649859E+03  0.25768649859E+03  0.00000000000E+00 0. -1.
         -1   -1    0    0    0  501 -0.00000000000E+00 -0.00000000000E+00 -0.12137876529E+03  0.12137876529E+03  0.00000000000E+00 0.  1.
          6    1    1    2  502    0 -0.28961602593E+02 -0.12228453209E+02  0.88497794860E+02  0.19684808657E+03  0.17300000000E+03 0. -1.
         -6    1    1    2    0  501  0.28961602593E+02  0.12228453209E+02  0.47809938432E+02  0.18221717731E+03  0.17300000000E+03 0.  1.
<mgrwt>
<rscale>  2 0.17583319E+03</rscale>
<asrwt>0</asrwt>
<pdfrwt beam="1">  1        1 0.39644077E-01 0.17583319E+03</pdfrwt>
<pdfrwt beam="2">  1       -1 0.18673656E-01 0.17583319E+03</pdfrwt>
<totfact> 0.23571109E+03</totfact>
</mgrwt>
</event>
<event>
 4    3  0.7748294E-001  0.1971074E+03  0.7546771E-02  0.1152203E+00
         -1   -1    0    0    0  501 -0.00000000000E+00  0.00000000000E+00  0.30345224190E+03  0.30345224190E+03  0.00000000000E+00 0.  1.
          1   -1    0    0  502    0  0.00000000000E+00 -0.00000000000E+00 -0.14403676620E+03  0.14403676620E+03  0.00000000000E+00 0. -1.
          6    1    1    2  502    0  0.59559379293E+02 -0.73314501829E+02  0.51226409765E+01  0.19717397721E+03  0.17300000000E+03 0.  1.
         -6    1    1    2    0  501 -0.59559379293E+02  0.73314501829E+02  0.15429283473E+03  0.25031503089E+03  0.17300000000E+03 0.  1.
<mgrwt>
<rscale>  2 0.19710742E+03</rscale>
<asrwt>0</asrwt>
<pdfrwt beam="1">  1        1 0.22159503E-01 0.19710742E+03</pdfrwt>
<pdfrwt beam="2">  1       -1 0.46684960E-01 0.19710742E+03</pdfrwt>
<totfact> 0.10381870E+03</totfact>
</mgrwt>
</event>
<event>
 4    3  0.7748294E-001  0.1972582E+03  0.7546771E-02  0.1152073E+00
         -2   -1    0    0    0  501 -0.00000000000E+00  0.00000000000E+00  0.25139059546E+02  0.25139059546E+02  0.00000000000E+00 0. -1.
          2   -1    0    0  502    0  0.00000000000E+00 -0.00000000000E+00 -0.15594549524E+04  0.15594549524E+04  0.00000000000E+00 0.  1.
          6    1    1    2  502    0  0.57541383150E+02 -0.75304679515E+02 -0.83558606730E+03  0.85855394787E+03  0.17300000000E+03 0.  1.
         -6    1    1    2    0  501 -0.57541383150E+02  0.75304679515E+02 -0.69872982560E+03  0.72604006412E+03  0.17300000000E+03 0.  1.
<mgrwt>
<rscale>  2 0.19725822E+03</rscale>
<asrwt>0</asrwt>
<pdfrwt beam="1">  1        2 0.23991611E+00 0.19725822E+03</pdfrwt>
<pdfrwt beam="2">  1       -2 0.38675482E-02 0.19725822E+03</pdfrwt>
<totfact> 0.36569456E+03</totfact>
</mgrwt>
</event>
<event>
 4    3  0.7748294E-001  0.2163485E+03  0.7546771E-02  0.1136635E+00
          1   -1    0    0  502    0  0.00000000000E+00  0.00000000000E+00  0.23298243233E+03  0.23298243233E+03  0.00000000000E+00 0.  1.
         -1   -1    0    0    0  501 -0.00000000000E+00 -0.00000000000E+00 -0.34776108282E+03  0.34776108282E+03  0.00000000000E+00 0. -1.
          6    1    1    2  502    0  0.11835871495E+03 -0.53562185815E+02 -0.24608586251E+03  0.32766590436E+03  0.17300000000E+03 0. -1.
         -6    1    1    2    0  501 -0.11835871495E+03  0.53562185815E+02  0.13130721202E+03  0.25307761079E+03  0.17300000000E+03 0.  1.
<mgrwt>
<rscale>  2 0.21634855E+03</rscale>
<asrwt>0</asrwt>
<pdfrwt beam="1">  1        1 0.35843451E-01 0.21634855E+03</pdfrwt>
<pdfrwt beam="2">  1       -1 0.53501705E-01 0.21634855E+03</pdfrwt>
<totfact> 0.43992632E+02</totfact>
</mgrwt>
</event>
<event>
 4    3  0.7748294E-001  0.2857065E+03  0.7546771E-02  0.1092612E+00
         -2   -1    0    0    0  501 -0.00000000000E+00  0.00000000000E+00  0.39150941075E+02  0.39150941075E+02  0.00000000000E+00 0.  1.
          2   -1    0    0  502    0  0.00000000000E+00 -0.00000000000E+00 -0.27363501904E+04  0.27363501904E+04  0.00000000000E+00 0. -1.
          6    1    1    2  502    0 -0.45303352460E+02  0.22281558337E+03 -0.20256888625E+04  0.20457378976E+04  0.17300000000E+03 0. -1.
         -6    1    1    2    0  501  0.45303352460E+02 -0.22281558337E+03 -0.67151038688E+03  0.72976323395E+03  0.17300000000E+03 0. -1.
<mgrwt>
<rscale>  2 0.28570645E+03</rscale>
<asrwt>0</asrwt>
<pdfrwt beam="1">  1        2 0.42097712E+00 0.28570645E+03</pdfrwt>
<pdfrwt beam="2">  1       -2 0.60232193E-02 0.28570645E+03</pdfrwt>
<totfact> 0.43445719E+02</totfact>
</mgrwt>
</event>
<event>
 4    3  0.7748294E-001  0.1860609E+03  0.7546771E-02  0.1162063E+00
          2   -1    0    0  502    0  0.00000000000E+00  0.00000000000E+00  0.78771017636E+03  0.78771017636E+03  0.00000000000E+00 0.  1.
         -2   -1    0    0    0  501 -0.00000000000E+00 -0.00000000000E+00 -0.51323218665E+02  0.51323218665E+02  0.00000000000E+00 0. -1.
          6    1    1    2  502    0  0.60519735143E+02 -0.32047345203E+02  0.52721848155E+03  0.55908675352E+03  0.17300000000E+03 0. -1.
         -6    1    1    2    0  501 -0.60519735143E+02  0.32047345203E+02  0.20916847615E+03  0.27994664150E+03  0.17300000000E+03 0. -1.
<mgrwt>
<rscale>  2 0.18606093E+03</rscale>
<asrwt>0</asrwt>
<pdfrwt beam="1">  1        2 0.12118617E+00 0.18606093E+03</pdfrwt>
<pdfrwt beam="2">  1       -2 0.78958804E-02 0.18606093E+03</pdfrwt>
<totfact> 0.34500300E+03</totfact>
</mgrwt>
</event>
<event>
 4    3  0.7748294E-001  0.2101276E+03  0.7546771E-02  0.1141465E+00
          1   -1    0    0  502    0  0.00000000000E+00  0.00000000000E+00  0.30390798866E+03  0.30390798866E+03  0.00000000000E+00 0. -1.
         -1   -1    0    0    0  501 -0.00000000000E+00 -0.00000000000E+00 -0.15028659662E+03  0.15028659662E+03  0.00000000000E+00 0.  1.
          6    1    1    2  502    0  0.92646646722E+02  0.75108018174E+02  0.11823517921E+03  0.24110821874E+03  0.17300000000E+03 0. -1.
         -6    1    1    2    0  501 -0.92646646722E+02 -0.75108018174E+02  0.35386212836E+02  0.21308636653E+03  0.17300000000E+03 0.  1.
<mgrwt>
<rscale>  2 0.21012762E+03</rscale>
<asrwt>0</asrwt>
<pdfrwt beam="1">  1        1 0.46755075E-01 0.21012762E+03</pdfrwt>
<pdfrwt beam="2">  1       -1 0.23121015E-01 0.21012762E+03</pdfrwt>
<totfact> 0.13615619E+03</totfact>
</mgrwt>
</event>
<event>
 4    3  0.7748294E-001  0.1925963E+03  0.7546771E-02  0.1156140E+00
          1   -1    0    0  502    0  0.00000000000E+00  0.00000000000E+00  0.30627269015E+03  0.30627269015E+03  0.00000000000E+00 0.  1.
         -1   -1    0    0    0  501 -0.00000000000E+00 -0.00000000000E+00 -0.12242758235E+03  0.12242758235E+03  0.00000000000E+00 0. -1.
          6    1    1    2  502    0 -0.76229117731E+02 -0.36789204515E+02  0.69703314826E+02  0.20482157127E+03  0.17300000000E+03 0. -1.
         -6    1    1    2    0  501  0.76229117731E+02  0.36789204515E+02  0.11414179298E+03  0.22387870123E+03  0.17300000000E+03 0.  1.
<mgrwt>
<rscale>  2 0.19259627E+03</rscale>
<asrwt>0</asrwt>
<pdfrwt beam="1">  1        1 0.47118875E-01 0.19259627E+03</pdfrwt>
<pdfrwt beam="2">  1       -1 0.18835013E-01 0.19259627E+03</pdfrwt>
<totfact> 0.18792299E+03</totfact>
</mgrwt>
</event>
<event>
 4    3  0.7748294E-001  0.2151502E+03  0.7546771E-02  0.1137551E+00
         -1   -1    0    0    0  501 -0.00000000000E+00  0.00000000000E+00  0.16658987302E+03  0.16658987302E+03  0.00000000000E+00 0.  1.
          1   -1    0    0  502    0  0.00000000000E+00 -0.00000000000E+00 -0.30058435999E+03  0.30058435999E+03  0.00000000000E+00 0. -1.
          6    1    1    2  502    0 -0.29744859880E+02  0.12440193452E+03 -0.13121540032E+03  0.25200610961E+03  0.17300000000E+03 0. -1.
         -6    1    1    2    0  501  0.29744859880E+02 -0.12440193452E+03 -0.27790866540E+01  0.21516812339E+03  0.17300000000E+03 0.  1.
<mgrwt>
<rscale>  2 0.21515018E+03</rscale>
<asrwt>0</asrwt>
<pdfrwt beam="1">  1        1 0.46243747E-01 0.21515018E+03</pdfrwt>
<pdfrwt beam="2">  1       -1 0.25629211E-01 0.21515018E+03</pdfrwt>
<totfact> 0.11644602E+03</totfact>
</mgrwt>
</event>
<event>
 4    3  0.7748294E-001  0.2097688E+03  0.7546771E-02  0.1141749E+00
          2   -1    0    0  502    0  0.00000000000E+00  0.00000000000E+00  0.12932989388E+03  0.12932989388E+03  0.00000000000E+00 0.  1.
         -2   -1    0    0    0  501 -0.00000000000E+00 -0.00000000000E+00 -0.36246845008E+03  0.36246845008E+03  0.00000000000E+00 0. -1.
          6    1    1    2  502    0 -0.34810122314E+02  0.11341164511E+03 -0.17746628967E+03  0.27476759240E+03  0.17300000000E+03 0.  1.
         -6    1    1    2    0  501  0.34810122314E+02 -0.11341164511E+03 -0.55672266530E+02  0.21703075156E+03  0.17300000000E+03 0. -1.
<mgrwt>
<rscale>  2 0.20976879E+03</rscale>
<asrwt>0</asrwt>
<pdfrwt beam="1">  1        2 0.19896907E-01 0.20976879E+03</pdfrwt>
<pdfrwt beam="2">  1       -2 0.55764376E-01 0.20976879E+03</pdfrwt>
<totfact> 0.85591311E+02</totfact>
</mgrwt>
</event>
<event>
 4    3  0.7748294E-001  0.1953346E+03  0.7546771E-02  0.1153736E+00
         -1   -1    0    0    0  501 -0.00000000000E+00  0.00000000000E+00  0.32774352312E+03  0.32774352312E+03  0.00000000000E+00 0.  1.
          1   -1    0    0  502    0  0.00000000000E+00 -0.00000000000E+00 -0.16421311771E+03  0.16421311771E+03  0.00000000000E+00 0. -1.
          6    1    1    2  502    0  0.86126343356E+02  0.28440510004E+02  0.21446786264E+03  0.29008976841E+03  0.17300000000E+03 0.  1.
         -6    1    1    2    0  501 -0.86126343356E+02 -0.28440510004E+02 -0.50937457232E+02  0.20186687241E+03  0.17300000000E+03 0. -1.
<mgrwt>
<rscale>  2 0.19533461E+03</rscale>
<asrwt>0</asrwt>
<pdfrwt beam="1">  1        1 0.25263557E-01 0.19533461E+03</pdfrwt>
<pdfrwt beam="2">  1       -1 0.50422081E-01 0.19533461E+03</pdfrwt>
<totfact> 0.76306592E+02</totfact>
</mgrwt>
</event>
<event>
 4    3  0.7748294E-001  0.2088222E+03  0.7546771E-02  0.1142502E+00
         -1   -1    0    0    0  501 -0.00000000000E+00  0.00000000000E+00  0.15190917894E+03  0.15190917894E+03  0.00000000000E+00 0.  1.
          1   -1    0    0  502    0  0.00000000000E+00 -0.00000000000E+00 -0.90427863389E+03  0.90427863389E+03  0.00000000000E+00 0. -1.
          6    1    1    2  502    0 -0.91375655014E+02  0.72994542757E+02  0.60110349482E+02  0.21730155940E+03  0.17300000000E+03 0.  1.
         -6    1    1    2    0  501  0.91375655014E+02 -0.72994542757E+02 -0.81247980443E+03  0.83888625344E+03  0.17300000000E+03 0. -1.
<mgrwt>
<rscale>  2 0.20882221E+03</rscale>
<asrwt>0</asrwt>
<pdfrwt beam="1">  1        1 0.13911979E+00 0.20882221E+03</pdfrwt>
<pdfrwt beam="2">  1       -1 0.23370643E-01 0.20882221E+03</pdfrwt>
<totfact> 0.30028244E+02</totfact>
</mgrwt>
</event>
<event>
 4    3  0.7748294E-001  0.1784674E+03  0.7546771E-02  0.1169295E+00
         -1   -1    0    0    0  501 -0.00000000000E+00  0.00000000000E+00  0.21479943243E+03  0.21479943243E+03  0.00000000000E+00 0.  1.
          1   -1    0    0  502    0  0.00000000000E+00 -0.00000000000E+00 -0.14833788456E+03  0.14833788456E+03  0.00000000000E+00 0. -1.
          6    1    1    2  502    0  0.30947169062E+02 -0.31046547260E+02  0.29666567680E+02  0.18091633593E+03  0.17300000000E+03 0. -1.
         -6    1    1    2    0  501 -0.30947169062E+02  0.31046547260E+02  0.36794980185E+02  0.18222098105E+03  0.17300000000E+03 0. -1.
<mgrwt>
<rscale>  2 0.17846741E+03</rscale>
<asrwt>0</asrwt>
<pdfrwt beam="1">  1        1 0.22821213E-01 0.17846741E+03</pdfrwt>
<pdfrwt beam="2">  1       -1 0.33046067E-01 0.17846741E+03</pdfrwt>
<totfact> 0.18342488E+03</totfact>
</mgrwt>
</event>
<event>
 4    3  0.7748294E-001  0.2484308E+03  0.7546771E-02  0.1114301E+00
          1   -1    0    0  502    0  0.00000000000E+00  0.00000000000E+00  0.30709140206E+03  0.30709140206E+03  0.00000000000E+00 0. -1.
         -1   -1    0    0    0  501 -0.00000000000E+00 -0.00000000000E+00 -0.20329386751E+03  0.20329386751E+03  0.00000000000E+00 0.  1.
          6    1    1    2  502    0  0.77551128011E+02 -0.16054489960E+03  0.79150800946E+02  0.26073490663E+03  0.17300000000E+03 0.  1.
         -6    1    1    2    0  501 -0.77551128011E+02  0.16054489960E+03  0.24646733602E+02  0.24965036295E+03  0.17300000000E+03 0. -1.
<mgrwt>
<rscale>  2 0.24843076E+03</rscale>
<asrwt>0</asrwt>
<pdfrwt beam="1">  1        1 0.47244832E-01 0.24843076E+03</pdfrwt>
<pdfrwt beam="2">  1       -1 0.31275979E-01 0.24843076E+03</pdfrwt>
<totfact> 0.81069505E+02</totfact>
</mgrwt>
</event>
<event>
 4    3  0.7748294E-001  0.3176200E+03  0.7546771E-02  0.1076750E+00
          2   -1    0    0  502    0  0.00000000000E+00  0.00000000000E+00  0.38873370964E+03  0.38873370964E+03  0.00000000000E+00 0. -1.
         -2   -1    0    0    0  501 -0.00000000000E+00 -0.00000000000E+00 -0.26305696339E+03  0.26305696339E+03  0.00000000000E+00 0.  1.
          6    1    1    2  502    0  0.26628568260E+03 -0.67359478875E+01  0.25025271648E+02  0.31860430313E+03  0.17300000000E+03 0.  1.
         -6    1    1    2    0  501 -0.26628568260E+03  0.67359478875E+01  0.10065147460E+03  0.33318636991E+03  0.17300000000E+03 0. -1.
<mgrwt>
<rscale>  2 0.31761996E+03</rscale>
<asrwt>0</asrwt>
<pdfrwt beam="1">  1        2 0.59805186E-01 0.31761996E+03</pdfrwt>
<pdfrwt beam="2">  1       -2 0.40470302E-01 0.31761996E+03</pdfrwt>
<totfact> 0.48182205E+02</totfact>
</mgrwt>
</event>
<event>
 4    3  0.7748294E-001  0.1900127E+03  0.7546771E-02  0.1158450E+00
         -2   -1    0    0    0  501 -0.00000000000E+00  0.00000000000E+00  0.23369945112E+02  0.23369945112E+02  0.00000000000E+00 0.  1.
          2   -1    0    0  502    0  0.00000000000E+00 -0.00000000000E+00 -0.17489700000E+04  0.17489700000E+04  0.00000000000E+00 0. -1.
          6    1    1    2  502    0  0.73863205764E+02 -0.26833844951E+02 -0.56011697689E+03  0.59146923521E+03  0.17300000000E+03 0.  1.
         -6    1    1    2    0  501 -0.73863205764E+02  0.26833844951E+02 -0.11654830780E+04  0.11808707099E+04  0.17300000000E+03 0. -1.
<mgrwt>
<rscale>  2 0.19001271E+03</rscale>
<asrwt>0</asrwt>
<pdfrwt beam="1">  1        2 0.26907233E+00 0.19001271E+03</pdfrwt>
<pdfrwt beam="2">  1       -2 0.35953759E-02 0.19001271E+03</pdfrwt>
<totfact> 0.32470377E+03</totfact>
</mgrwt>
</event>
<event>
 4    3  0.7748294E-001  0.2503096E+03  0.7546771E-02  0.1113109E+00
          2   -1    0    0  502    0  0.00000000000E+00  0.00000000000E+00  0.20178734694E+03  0.20178734694E+03  0.00000000000E+00 0. -1.
         -2   -1    0    0    0  501 -0.00000000000E+00 -0.00000000000E+00 -0.31207955378E+03  0.31207955378E+03  0.00000000000E+00 0.  1.
          6    1    1    2  502    0  0.92379172329E+02  0.15553779426E+03 -0.36865429994E+02  0.25300983549E+03  0.17300000000E+03 0. -1.
         -6    1    1    2    0  501 -0.92379172329E+02 -0.15553779426E+03 -0.73426776850E+02  0.26085706523E+03  0.17300000000E+03 0. -1.
<mgrwt>
<rscale>  2 0.25030964E+03</rscale>
<asrwt>0</asrwt>
<pdfrwt beam="1">  1        2 0.31044207E-01 0.25030964E+03</pdfrwt>
<pdfrwt beam="2">  1       -2 0.48012239E-01 0.25030964E+03</pdfrwt>
<totfact> 0.70437954E+02</totfact>
</mgrwt>
</event>
<event>
 4    3  0.7748294E-001  0.2163157E+03  0.7546771E-02  0.1136660E+00
         -3   -1    0    0    0  501 -0.00000000000E+00  0.00000000000E+00  0.66736614805E+02  0.66736614805E+02  0.00000000000E+00 0. -1.
          3   -1    0    0  502    0  0.00000000000E+00 -0.00000000000E+00 -0.84811505082E+03  0.84811505082E+03  0.00000000000E+00 0.  1.
          6    1    1    2  502    0  0.11253508734E+03  0.64802327253E+02 -0.58110279030E+03  0.62005882011E+03  0.17300000000E+03 0.  1.
         -6    1    1    2    0  501 -0.11253508734E+03 -0.64802327253E+02 -0.20027564571E+03  0.29479284551E+03  0.17300000000E+03 0. -1.
<mgrwt>
<rscale>  2 0.21631571E+03</rscale>
<asrwt>0</asrwt>
<pdfrwt beam="1">  1        3 0.13047924E+00 0.21631571E+03</pdfrwt>
<pdfrwt beam="2">  1       -3 0.10267172E-01 0.21631571E+03</pdfrwt>
<totfact> 0.84166428E+01</totfact>
</mgrwt>
</event>
<event>
 4    3  0.7748294E-001  0.2515424E+03  0.7546771E-02  0.1112334E+00
          2   -1    0    0  502    0  0.00000000000E+00  0.00000000000E+00  0.20783114199E+04  0.20783114199E+04  0.00000000000E+00 0.  1.
         -2   -1    0    0    0  501 -0.00000000000E+00 -0.00000000000E+00 -0.51602646856E+02  0.51602646856E+02  0.00000000000E+00 0. -1.
          6    1    1    2  502    0 -0.59800535368E+00  0.18260403397E+03  0.33143546125E+03  0.41608058812E+03  0.17300000000E+03 0. -1.
         -6    1    1    2    0  501  0.59800535368E+00 -0.18260403397E+03  0.16952733118E+04  0.17138334786E+04  0.17300000000E+03 0.  1.
<mgrwt>
<rscale>  2 0.25154242E+03</rscale>
<asrwt>0</asrwt>
<pdfrwt beam="1">  1        2 0.31974015E+00 0.25154242E+03</pdfrwt>
<pdfrwt beam="2">  1       -2 0.79388704E-02 0.25154242E+03</pdfrwt>
<totfact> 0.64920568E+02</totfact>
</mgrwt>
</event>
<event>
 4    3  0.7748294E-001  0.2052209E+03  0.7546771E-02  0.1145407E+00
          1   -1    0    0  502    0  0.00000000000E+00  0.00000000000E+00  0.47269131049E+02  0.47269131049E+02  0.00000000000E+00 0. -1.
         -1   -1    0    0    0  501 -0.00000000000E+00 -0.00000000000E+00 -0.91879692896E+03  0.91879692896E+03  0.00000000000E+00 0.  1.
          6    1    1    2  502    0 -0.53152062313E+02 -0.96754772493E+02 -0.51981790548E+03  0.55886159519E+03  0.17300000000E+03 0.  1.
         -6    1    1    2    0  501  0.53152062313E+02  0.96754772493E+02 -0.35170989243E+03  0.40720446481E+03  0.17300000000E+03 0.  1.
<mgrwt>
<rscale>  2 0.20522092E+03</rscale>
<asrwt>0</asrwt>
<pdfrwt beam="1">  1        1 0.72721736E-02 0.20522092E+03</pdfrwt>
<pdfrwt beam="2">  1       -1 0.14135338E+00 0.20522092E+03</pdfrwt>
<totfact> 0.43724897E+02</totfact>
</mgrwt>
</event>
<event>
 4    3  0.7748294E-001  0.2265783E+03  0.7546771E-02  0.1129072E+00
         -1   -1    0    0    0  501 -0.00000000000E+00  0.00000000000E+00  0.42441095944E+03  0.42441095944E+03  0.00000000000E+00 0.  1.
          1   -1    0    0  502    0  0.00000000000E+00 -0.00000000000E+00 -0.12893054980E+03  0.12893054980E+03  0.00000000000E+00 0. -1.
          6    1    1    2  502    0 -0.10513066554E+03 -0.10176583873E+03  0.78959643189E+02  0.23994242648E+03  0.17300000000E+03 0.  1.
         -6    1    1    2    0  501  0.10513066554E+03  0.10176583873E+03  0.21652076645E+03  0.31339908276E+03  0.17300000000E+03 0. -1.
<mgrwt>
<rscale>  2 0.22657834E+03</rscale>
<asrwt>0</asrwt>
<pdfrwt beam="1">  1        1 0.19835469E-01 0.22657834E+03</pdfrwt>
<pdfrwt beam="2">  1       -1 0.65293993E-01 0.22657834E+03</pdfrwt>
<totfact> 0.63664911E+02</totfact>
</mgrwt>
</event>
<event>
 4    3  0.7748294E-001  0.2501948E+03  0.7546771E-02  0.1113182E+00
          2   -1    0    0  502    0  0.00000000000E+00  0.00000000000E+00  0.98727149246E+03  0.98727149246E+03  0.00000000000E+00 0.  1.
         -2   -1    0    0    0  501 -0.00000000000E+00 -0.00000000000E+00 -0.11340671126E+03  0.11340671126E+03  0.00000000000E+00 0. -1.
          6    1    1    2  502    0 -0.16292232950E+03 -0.78260642855E+02  0.80236372286E+03  0.84046710669E+03  0.17300000000E+03 0.  1.
         -6    1    1    2    0  501  0.16292232950E+03  0.78260642855E+02  0.71501058339E+02  0.26021109702E+03  0.17300000000E+03 0. -1.
<mgrwt>
<rscale>  2 0.25019475E+03</rscale>
<asrwt>0</asrwt>
<pdfrwt beam="1">  1        2 0.15188792E+00 0.25019475E+03</pdfrwt>
<pdfrwt beam="2">  1       -2 0.17447187E-01 0.25019475E+03</pdfrwt>
<totfact> 0.71325640E+02</totfact>
</mgrwt>
</event>
<event>
 4    3  0.7748294E-001  0.1747411E+03  0.7546771E-02  0.1172992E+00
          2   -1    0    0  502    0  0.00000000000E+00  0.00000000000E+00  0.42972731699E+03  0.42972731699E+03  0.00000000000E+00 0.  1.
         -2   -1    0    0    0  501 -0.00000000000E+00 -0.00000000000E+00 -0.94263500004E+02  0.94263500004E+02  0.00000000000E+00 0. -1.
          6    1    1    2  502    0  0.22315921884E+02 -0.10366016632E+02  0.37732458974E+02  0.17876854626E+03  0.17300000000E+03 0. -1.
         -6    1    1    2    0  501 -0.22315921884E+02  0.10366016632E+02  0.29773135802E+03  0.34522227074E+03  0.17300000000E+03 0.  1.
<mgrwt>
<rscale>  2 0.17474111E+03</rscale>
<asrwt>0</asrwt>
<pdfrwt beam="1">  1        2 0.66111894E-01 0.17474111E+03</pdfrwt>
<pdfrwt beam="2">  1       -2 0.14502077E-01 0.17474111E+03</pdfrwt>
<totfact> 0.26269557E+03</totfact>
</mgrwt>
</event>
<event>
 4    3  0.7748294E-001  0.4285098E+03  0.7546771E-02  0.1034332E+00
          2   -1    0    0  502    0  0.00000000000E+00  0.00000000000E+00  0.22326951681E+04  0.22326951681E+04  0.00000000000E+00 0. -1.
         -2   -1    0    0    0  501 -0.00000000000E+00 -0.00000000000E+00 -0.82674656540E+02  0.82674656540E+02  0.00000000000E+00 0.  1.
          6    1    1    2  502    0  0.19590431427E+03 -0.33957786749E+03  0.99123219238E+03  0.10798897572E+04  0.17300000000E+03 0. -1.
         -6    1    1    2    0  501 -0.19590431427E+03  0.33957786749E+03  0.11587883192E+04  0.12354800675E+04  0.17300000000E+03 0.  1.
<mgrwt>
<rscale>  2 0.42850978E+03</rscale>
<asrwt>0</asrwt>
<pdfrwt beam="1">  1        2 0.34349152E+00 0.42850978E+03</pdfrwt>
<pdfrwt beam="2">  1       -2 0.12719180E-01 0.42850978E+03</pdfrwt>
<totfact> 0.24466425E+02</totfact>
</mgrwt>
</event>
<event>
 4    3  0.7748294E-001  0.2902281E+03  0.7546771E-02  0.1090230E+00
         -2   -1    0    0    0  501 -0.00000000000E+00  0.00000000000E+00  0.18078944987E+03  0.18078944987E+03  0.00000000000E+00 0.  1.
          2   -1    0    0  502    0  0.00000000000E+00 -0.00000000000E+00 -0.48089670359E+03  0.48089670359E+03  0.00000000000E+00 0. -1.
          6    1    1    2  502    0  0.11689707880E+03 -0.20158978403E+03 -0.91656879980E+02  0.30435727641E+03  0.17300000000E+03 0.  1.
         -6    1    1    2    0  501 -0.11689707880E+03  0.20158978403E+03 -0.20845037375E+03  0.35732887705E+03  0.17300000000E+03 0. -1.
<mgrwt>
<rscale>  2 0.29022813E+03</rscale>
<asrwt>0</asrwt>
<pdfrwt beam="1">  1        2 0.73984107E-01 0.29022813E+03</pdfrwt>
<pdfrwt beam="2">  1       -2 0.27813762E-01 0.29022813E+03</pdfrwt>
<totfact> 0.76588269E+02</totfact>
</mgrwt>
</event>
<event>
 4    3  0.7748294E-001  0.2036274E+03  0.7546771E-02  0.1146714E+00
         -2   -1    0    0    0  501 -0.00000000000E+00  0.00000000000E+00  0.16598053515E+03  0.16598053515E+03  0.00000000000E+00 0. -1.
          2   -1    0    0  502    0  0.00000000000E+00 -0.00000000000E+00 -0.25264300225E+03  0.25264300225E+03  0.00000000000E+00 0.  1.
          6    1    1    2  502    0  0.67798895012E+02 -0.83297180610E+02 -0.21178544543E+02  0.20472577076E+03  0.17300000000E+03 0. -1.
         -6    1    1    2    0  501 -0.67798895012E+02  0.83297180610E+02 -0.65483922558E+02  0.21389776665E+03  0.17300000000E+03 0. -1.
<mgrwt>
<rscale>  2 0.20362738E+03</rscale>
<asrwt>0</asrwt>
<pdfrwt beam="1">  1        2 0.38868154E-01 0.20362738E+03</pdfrwt>
<pdfrwt beam="2">  1       -2 0.25535467E-01 0.20362738E+03</pdfrwt>
<totfact> 0.17876056E+03</totfact>
</mgrwt>
</event>
<event>
 4    3  0.7748294E-001  0.2768313E+03  0.7546771E-02  0.1097432E+00
          2   -1    0    0  502    0  0.00000000000E+00  0.00000000000E+00  0.32491836141E+03  0.32491836141E+03  0.00000000000E+00 0.  1.
         -2   -1    0    0    0  501 -0.00000000000E+00 -0.00000000000E+00 -0.26311475225E+03  0.26311475225E+03  0.00000000000E+00 0. -1.
          6    1    1    2  502    0  0.15922782935E+03 -0.14612682155E+03 -0.63724707163E+02  0.28407109659E+03  0.17300000000E+03 0. -1.
         -6    1    1    2    0  501 -0.15922782935E+03  0.14612682155E+03  0.12552831633E+03  0.30396201706E+03  0.17300000000E+03 0.  1.
<mgrwt>
<rscale>  2 0.27683127E+03</rscale>
<asrwt>0</asrwt>
<pdfrwt beam="1">  1        2 0.49987440E-01 0.27683127E+03</pdfrwt>
<pdfrwt beam="2">  1       -2 0.40479193E-01 0.27683127E+03</pdfrwt>
<totfact> 0.58587563E+02</totfact>
</mgrwt>
</event>
<event>
 4    3  0.7748294E-001  0.2192905E+03  0.7546771E-02  0.1134413E+00
         -1   -1    0    0    0  501 -0.00000000000E+00  0.00000000000E+00  0.10533753915E+03  0.10533753915E+03  0.00000000000E+00 0.  1.
          1   -1    0    0  502    0  0.00000000000E+00 -0.00000000000E+00 -0.47609440966E+03  0.47609440966E+03  0.00000000000E+00 0. -1.
          6    1    1    2  502    0 -0.86340647700E+02 -0.10346320856E+03 -0.24433112038E+03  0.32830784236E+03  0.17300000000E+03 0. -1.
         -6    1    1    2    0  501  0.86340647700E+02  0.10346320856E+03 -0.12642575013E+03  0.25312410645E+03  0.17300000000E+03 0.  1.
<mgrwt>
<rscale>  2 0.21929054E+03</rscale>
<asrwt>0</asrwt>
<pdfrwt beam="1">  1        1 0.73245294E-01 0.21929054E+03</pdfrwt>
<pdfrwt beam="2">  1       -1 0.16205775E-01 0.21929054E+03</pdfrwt>
<totfact> 0.13653219E+03</totfact>
</mgrwt>
</event>
<event>
 4    3  0.7748294E-001  0.1943341E+03  0.7546771E-02  0.1154609E+00
          2   -1    0    0  502    0  0.00000000000E+00  0.00000000000E+00  0.30059468635E+03  0.30059468635E+03  0.00000000000E+00 0. -1.
         -2   -1    0    0    0  501 -0.00000000000E+00 -0.00000000000E+00 -0.16067733957E+03  0.16067733957E+03  0.00000000000E+00 0.  1.
          6    1    1    2  502    0 -0.33951838191E+02 -0.81755796937E+02 -0.37746247311E+02  0.19796594868E+03  0.17300000000E+03 0.  1.
         -6    1    1    2    0  501  0.33951838191E+02  0.81755796937E+02  0.17766359409E+03  0.26330607725E+03  0.17300000000E+03 0. -1.
<mgrwt>
<rscale>  2 0.19433409E+03</rscale>
<asrwt>0</asrwt>
<pdfrwt beam="1">  1        2 0.46245336E-01 0.19433409E+03</pdfrwt>
<pdfrwt beam="2">  1       -2 0.24719591E-01 0.19433409E+03</pdfrwt>
<totfact> 0.15687627E+03</totfact>
</mgrwt>
</event>
<event>
 4    3  0.7748294E-001  0.2081120E+03  0.7546771E-02  0.1143070E+00
         -2   -1    0    0    0  501 -0.00000000000E+00  0.00000000000E+00  0.55677108021E+02  0.55677108021E+02  0.00000000000E+00 0.  1.
          2   -1    0    0  502    0  0.00000000000E+00 -0.00000000000E+00 -0.98713359048E+03  0.98713359048E+03  0.00000000000E+00 0. -1.
          6    1    1    2  502    0  0.97617515366E+02 -0.62068037070E+02 -0.22567120594E+03  0.30698226939E+03  0.17300000000E+03 0.  1.
         -6    1    1    2    0  501 -0.97617515366E+02  0.62068037070E+02 -0.70578527652E+03  0.73582842911E+03  0.17300000000E+03 0. -1.
<mgrwt>
<rscale>  2 0.20811204E+03</rscale>
<asrwt>0</asrwt>
<pdfrwt beam="1">  1        2 0.15186670E+00 0.20811204E+03</pdfrwt>
<pdfrwt beam="2">  1       -2 0.85657094E-02 0.20811204E+03</pdfrwt>
<totfact> 0.22618405E+03</totfact>
</mgrwt>
</event>
<event>
 4    3  0.7748294E-001  0.2417415E+03  0.7546771E-02  0.1118638E+00
         -2   -1    0    0    0  501 -0.00000000000E+00  0.00000000000E+00  0.42700732614E+02  0.42700732614E+02  0.00000000000E+00 0.  1.
          2   -1    0    0  502    0  0.00000000000E+00 -0.00000000000E+00 -0.15140157767E+04  0.15140157767E+04  0.00000000000E+00 0. -1.
          6    1    1    2  502    0 -0.92377702050E+01  0.16859594624E+03 -0.49440863551E+03  0.55034428166E+03  0.17300000000E+03 0. -1.
         -6    1    1    2    0  501  0.92377702050E+01 -0.16859594624E+03 -0.97690640858E+03  0.10063722277E+04  0.17300000000E+03 0. -1.
<mgrwt>
<rscale>  2 0.24174145E+03</rscale>
<asrwt>0</asrwt>
<pdfrwt beam="1">  1        2 0.23292554E+00 0.24174145E+03</pdfrwt>
<pdfrwt beam="2">  1       -2 0.65693424E-02 0.24174145E+03</pdfrwt>
<totfact> 0.17275767E+03</totfact>
</mgrwt>
</event>
<event>
 4    3  0.7748294E-001  0.2359379E+03  0.7546771E-02  0.1122529E+00
         -1   -1    0    0    0  501 -0.00000000000E+00  0.00000000000E+00  0.14114901889E+03  0.14114901889E+03  0.00000000000E+00 0. -1.
          1   -1    0    0  502    0  0.00000000000E+00 -0.00000000000E+00 -0.41478561727E+03  0.41478561727E+03  0.00000000000E+00 0.  1.
          6    1    1    2  502    0 -0.80273710316E+02 -0.13890221063E+03 -0.19846799368E+03  0.30831191544E+03  0.17300000000E+03 0.  1.
         -6    1    1    2    0  501  0.80273710316E+02  0.13890221063E+03 -0.75168604701E+02  0.24762272072E+03  0.17300000000E+03 0.  1.
<mgrwt>
<rscale>  2 0.23593790E+03</rscale>
<asrwt>0</asrwt>
<pdfrwt beam="1">  1        1 0.63813171E-01 0.23593790E+03</pdfrwt>
<pdfrwt beam="2">  1       -1 0.21715234E-01 0.23593790E+03</pdfrwt>
<totfact> 0.10184497E+03</totfact>
</mgrwt>
</event>
<event>
 4    3  0.7748294E-001  0.1942891E+03  0.7546771E-02  0.1154649E+00
          2   -1    0    0  502    0  0.00000000000E+00  0.00000000000E+00  0.82679638172E+03  0.82679638172E+03  0.00000000000E+00 0. -1.
         -2   -1    0    0    0  501 -0.00000000000E+00 -0.00000000000E+00 -0.48425569424E+02  0.48425569424E+02  0.00000000000E+00 0.  1.
          6    1    1    2  502    0  0.84743846545E+02 -0.25253710115E+02  0.49383844991E+03  0.53068322379E+03  0.17300000000E+03 0.  1.
         -6    1    1    2    0  501 -0.84743846545E+02  0.25253710115E+02  0.28453236238E+03  0.34453872735E+03  0.17300000000E+03 0.  1.
<mgrwt>
<rscale>  2 0.19428914E+03</rscale>
<asrwt>0</asrwt>
<pdfrwt beam="1">  1        2 0.12719943E+00 0.19428914E+03</pdfrwt>
<pdfrwt beam="2">  1       -2 0.74500882E-02 0.19428914E+03</pdfrwt>
<totfact> 0.35556242E+03</totfact>
</mgrwt>
</event>
<event>
 4    3  0.7748294E-001  0.1970566E+03  0.7546771E-02  0.1152246E+00
         -2   -1    0    0    0  501 -0.00000000000E+00  0.00000000000E+00  0.91064144182E+02  0.91064144182E+02  0.00000000000E+00 0.  1.
          2   -1    0    0  502    0  0.00000000000E+00 -0.00000000000E+00 -0.45521724612E+03  0.45521724612E+03  0.00000000000E+00 0. -1.
          6    1    1    2  502    0 -0.31745355586E+02  0.88851189769E+02 -0.11337366804E+03  0.22734311102E+03  0.17300000000E+03 0.  1.
         -6    1    1    2    0  501  0.31745355586E+02 -0.88851189769E+02 -0.25077943390E+03  0.31893827928E+03  0.17300000000E+03 0.  1.
<mgrwt>
<rscale>  2 0.19705659E+03</rscale>
<asrwt>0</asrwt>
<pdfrwt beam="1">  1        2 0.70033422E-01 0.19705659E+03</pdfrwt>
<pdfrwt beam="2">  1       -2 0.14009869E-01 0.19705659E+03</pdfrwt>
<totfact> 0.26203850E+03</totfact>
</mgrwt>
</event>
<event>
 4    3  0.7748294E-001  0.2644395E+03  0.7546771E-02  0.1104505E+00
          2   -1    0    0  502    0  0.00000000000E+00  0.00000000000E+00  0.42008144746E+03  0.42008144746E+03  0.00000000000E+00 0. -1.
         -2   -1    0    0    0  501 -0.00000000000E+00 -0.00000000000E+00 -0.23027257828E+03  0.23027257828E+03  0.00000000000E+00 0.  1.
          6    1    1    2  502    0  0.18106792565E+03 -0.84933334130E+02 -0.76270299543E+02  0.27521886479E+03  0.17300000000E+03 0. -1.
         -6    1    1    2    0  501 -0.18106792565E+03  0.84933334130E+02  0.26607916873E+03  0.37513516094E+03  0.17300000000E+03 0. -1.
<mgrwt>
<rscale>  2 0.26443953E+03</rscale>
<asrwt>0</asrwt>
<pdfrwt beam="1">  1        2 0.64627915E-01 0.26443953E+03</pdfrwt>
<pdfrwt beam="2">  1       -2 0.35426551E-01 0.26443953E+03</pdfrwt>
<totfact> 0.57042566E+02</totfact>
</mgrwt>
</event>
<event>
 4    3  0.7748294E-001  0.2408531E+03  0.7546771E-02  0.1119226E+00
          2   -1    0    0  502    0  0.00000000000E+00  0.00000000000E+00  0.22429906726E+04  0.22429906726E+04  0.00000000000E+00 0.  1.
         -2   -1    0    0    0  501 -0.00000000000E+00 -0.00000000000E+00 -0.29174310759E+02  0.29174310759E+02  0.00000000000E+00 0. -1.
          6    1    1    2  502    0  0.10597154851E+03  0.12981235698E+03  0.72415671506E+03  0.76315998656E+03  0.17300000000E+03 0. -1.
         -6    1    1    2    0  501 -0.10597154851E+03 -0.12981235698E+03  0.14896596467E+04  0.15090049968E+04  0.17300000000E+03 0.  1.
<mgrwt>
<rscale>  2 0.24085310E+03</rscale>
<asrwt>0</asrwt>
<pdfrwt beam="1">  1        2 0.34507535E+00 0.24085310E+03</pdfrwt>
<pdfrwt beam="2">  1       -2 0.44883573E-02 0.24085310E+03</pdfrwt>
<totfact> 0.12792701E+03</totfact>
</mgrwt>
</event>
<event>
 4    3  0.7748294E-001  0.2478205E+03  0.7546771E-02  0.1114690E+00
          1   -1    0    0  502    0  0.00000000000E+00  0.00000000000E+00  0.65589790453E+03  0.65589790453E+03  0.00000000000E+00 0.  1.
         -1   -1    0    0    0  501 -0.00000000000E+00 -0.00000000000E+00 -0.12926640526E+03  0.12926640526E+03  0.00000000000E+00 0. -1.
          6    1    1    2  502    0 -0.12038997622E+03  0.13035426866E+03  0.46942826646E+03  0.53082754175E+03  0.17300000000E+03 0. -1.
         -6    1    1    2    0  501  0.12038997622E+03 -0.13035426866E+03  0.57203232811E+02  0.25433676804E+03  0.17300000000E+03 0.  1.
<mgrwt>
<rscale>  2 0.24782046E+03</rscale>
<asrwt>0</asrwt>
<pdfrwt beam="1">  1        1 0.10090737E+00 0.24782046E+03</pdfrwt>
<pdfrwt beam="2">  1       -1 0.19887140E-01 0.24782046E+03</pdfrwt>
<totfact> 0.63406233E+02</totfact>
</mgrwt>
</event>
<event>
 4    3  0.7748294E-001  0.1894209E+03  0.7546771E-02  0.1158985E+00
          2   -1    0    0  502    0  0.00000000000E+00  0.00000000000E+00  0.77508295209E+03  0.77508295209E+03  0.00000000000E+00 0. -1.
         -2   -1    0    0    0  501 -0.00000000000E+00 -0.00000000000E+00 -0.18167274113E+03  0.18167274113E+03  0.00000000000E+00 0.  1.
          6    1    1    2  502    0 -0.65263428582E+02 -0.41133504387E+02 -0.11625141545E+03  0.22224912123E+03  0.17300000000E+03 0.  1.
         -6    1    1    2    0  501  0.65263428582E+02  0.41133504387E+02  0.70966162642E+03  0.73450657199E+03  0.17300000000E+03 0. -1.
<mgrwt>
<rscale>  2 0.18942091E+03</rscale>
<asrwt>0</asrwt>
<pdfrwt beam="1">  1        2 0.11924353E+00 0.18942091E+03</pdfrwt>
<pdfrwt beam="2">  1       -2 0.27949653E-01 0.18942091E+03</pdfrwt>
<totfact> 0.43538808E+02</totfact>
</mgrwt>
</event>
<event>
 4    3  0.7748294E-001  0.1859388E+03  0.7546771E-02  0.1162176E+00
         -1   -1    0    0    0  501 -0.00000000000E+00  0.00000000000E+00  0.34664180711E+02  0.34664180711E+02  0.00000000000E+00 0. -1.
          1   -1    0    0  502    0  0.00000000000E+00 -0.00000000000E+00 -0.18613946516E+04  0.18613946516E+04  0.00000000000E+00 0.  1.
          6    1    1    2  502    0  0.29576864661E+02 -0.61395889658E+02 -0.26746719784E+03  0.32574828949E+03  0.17300000000E+03 0. -1.
         -6    1    1    2    0  501 -0.29576864661E+02  0.61395889658E+02 -0.15592632730E+04  0.15703105428E+04  0.17300000000E+03 0.  1.
<mgrwt>
<rscale>  2 0.18593882E+03</rscale>
<asrwt>0</asrwt>
<pdfrwt beam="1">  1        1 0.28636839E+00 0.18593882E+03</pdfrwt>
<pdfrwt beam="2">  1       -1 0.53329512E-02 0.18593882E+03</pdfrwt>
<totfact> 0.67066274E+02</totfact>
</mgrwt>
</event>
<event>
 4    3  0.7748294E-001  0.2160798E+03  0.7546771E-02  0.1136840E+00
         -2   -1    0    0    0  501 -0.00000000000E+00  0.00000000000E+00  0.80138707510E+02  0.80138707510E+02  0.00000000000E+00 0. -1.
          2   -1    0    0  502    0  0.00000000000E+00 -0.00000000000E+00 -0.58290833408E+03  0.58290833408E+03  0.00000000000E+00 0.  1.
          6    1    1    2  502    0 -0.84626693593E+02 -0.97978484629E+02 -0.24401900263E+03  0.32593823704E+03  0.17300000000E+03 0.  1.
         -6    1    1    2    0  501  0.84626693593E+02  0.97978484629E+02 -0.25875062394E+03  0.33710880456E+03  0.17300000000E+03 0. -1.
<mgrwt>
<rscale>  2 0.21607976E+03</rscale>
<asrwt>0</asrwt>
<pdfrwt beam="1">  1        2 0.89678206E-01 0.21607976E+03</pdfrwt>
<pdfrwt beam="2">  1       -2 0.12329032E-01 0.21607976E+03</pdfrwt>
<totfact> 0.24507065E+03</totfact>
</mgrwt>
</event>
<event>
 4    3  0.7748294E-001  0.2139024E+03  0.7546771E-02  0.1138512E+00
          2   -1    0    0  502    0  0.00000000000E+00  0.00000000000E+00  0.14573155906E+03  0.14573155906E+03  0.00000000000E+00 0. -1.
         -2   -1    0    0    0  501 -0.00000000000E+00 -0.00000000000E+00 -0.31720745678E+03  0.31720745678E+03  0.00000000000E+00 0.  1.
          6    1    1    2  502    0 -0.17952534312E+02 -0.12451078577E+03 -0.62326213743E+02  0.22279763504E+03  0.17300000000E+03 0. -1.
         -6    1    1    2    0  501  0.17952534312E+02  0.12451078577E+03 -0.10914968398E+03  0.24014138080E+03  0.17300000000E+03 0. -1.
<mgrwt>
<rscale>  2 0.21390238E+03</rscale>
<asrwt>0</asrwt>
<pdfrwt beam="1">  1        2 0.22420240E-01 0.21390238E+03</pdfrwt>
<pdfrwt beam="2">  1       -2 0.48801146E-01 0.21390238E+03</pdfrwt>
<totfact> 0.97753351E+02</totfact>
</mgrwt>
</event>
<event>
 4    3  0.7748294E-001  0.2467459E+03  0.7546771E-02  0.1115379E+00
          1   -1    0    0  502    0  0.00000000000E+00  0.00000000000E+00  0.70527237563E+03  0.70527237563E+03  0.00000000000E+00 0. -1.
         -1   -1    0    0    0  501 -0.00000000000E+00 -0.00000000000E+00 -0.17456411723E+03  0.17456411723E+03  0.00000000000E+00 0.  1.
          6    1    1    2  502    0  0.68626241869E+02 -0.16200308931E+03 -0.47413529988E+02  0.25126003432E+03  0.17300000000E+03 0.  1.
         -6    1    1    2    0  501 -0.68626241869E+02  0.16200308931E+03  0.57812178839E+03  0.62857645854E+03  0.17300000000E+03 0. -1.
<mgrwt>
<rscale>  2 0.24674595E+03</rscale>
<asrwt>0</asrwt>
<pdfrwt beam="1">  1        1 0.10850344E+00 0.24674595E+03</pdfrwt>
<pdfrwt beam="2">  1       -1 0.26856018E-01 0.24674595E+03</pdfrwt>
<totfact> 0.34745936E+02</totfact>
</mgrwt>
</event>
<event>
 4    3  0.7748294E-001  0.1853639E+03  0.7546771E-02  0.1162710E+00
          1   -1    0    0  502    0  0.00000000000E+00  0.00000000000E+00  0.14156717398E+04  0.14156717398E+04  0.00000000000E+00 0. -1.
         -1   -1    0    0    0  501 -0.00000000000E+00 -0.00000000000E+00 -0.30708337152E+02  0.30708337152E+02  0.00000000000E+00 0.  1.
          6    1    1    2  502    0 -0.38502154558E+02 -0.54298962424E+02  0.36136824473E+03  0.40613643216E+03  0.17300000000E+03 0.  1.
         -6    1    1    2    0  501  0.38502154558E+02  0.54298962424E+02  0.10235951579E+04  0.10402436448E+04  0.17300000000E+03 0. -1.
<mgrwt>
<rscale>  2 0.18536395E+03</rscale>
<asrwt>0</asrwt>
<pdfrwt beam="1">  1        1 0.21779560E+00 0.18536395E+03</pdfrwt>
<pdfrwt beam="2">  1       -1 0.47243607E-02 0.18536395E+03</pdfrwt>
<totfact> 0.15644327E+03</totfact>
</mgrwt>
</event>
<event>
 4    3  0.7748294E-001  0.2078222E+03  0.7546771E-02  0.1143302E+00
          2   -1    0    0  502    0  0.00000000000E+00  0.00000000000E+00  0.26663233170E+02  0.26663233170E+02  0.00000000000E+00 0. -1.
         -2   -1    0    0    0  501 -0.00000000000E+00 -0.00000000000E+00 -0.16545362101E+04  0.16545362101E+04  0.00000000000E+00 0.  1.
          6    1    1    2  502    0  0.82067659690E+02  0.80783335372E+02 -0.69219989965E+03  0.72272453198E+03  0.17300000000E+03 0.  1.
         -6    1    1    2    0  501 -0.82067659690E+02 -0.80783335372E+02 -0.93567307730E+03  0.95847491132E+03  0.17300000000E+03 0.  1.
<mgrwt>
<rscale>  2 0.20782215E+03</rscale>
<asrwt>0</asrwt>
<pdfrwt beam="1">  1        2 0.41020357E-02 0.20782215E+03</pdfrwt>
<pdfrwt beam="2">  1       -2 0.25454404E+00 0.20782215E+03</pdfrwt>
<totfact> 0.13828592E+02</totfact>
</mgrwt>
</event>
<event>
 4    3  0.7748294E-001  0.3205507E+03  0.7546771E-02  0.1075396E+00
         -1   -1    0    0    0  501 -0.00000000000E+00  0.00000000000E+00  0.11160763111E+03  0.11160763111E+03  0.00000000000E+00 0.  1.
          1   -1    0    0  502    0  0.00000000000E+00 -0.00000000000E+00 -0.94616443733E+03  0.94616443733E+03  0.00000000000E+00 0. -1.
          6    1    1    2  502    0 -0.25656736679E+03  0.83647572584E+02 -0.50411103544E+03  0.59739489967E+03  0.17300000000E+03 0. -1.
         -6    1    1    2    0  501  0.25656736679E+03 -0.83647572584E+02 -0.33044577078E+03  0.46037716878E+03  0.17300000000E+03 0.  1.
<mgrwt>
<rscale>  2 0.32055067E+03</rscale>
<asrwt>0</asrwt>
<pdfrwt beam="1">  1        1 0.14556376E+00 0.32055067E+03</pdfrwt>
<pdfrwt beam="2">  1       -1 0.17170405E-01 0.32055067E+03</pdfrwt>
<totfact> 0.45484095E+02</totfact>
</mgrwt>
</event>
<event>
 4    3  0.7748294E-001  0.1927098E+03  0.7546771E-02  0.1156040E+00
         -2   -1    0    0    0  501 -0.00000000000E+00  0.00000000000E+00  0.74143352082E+02  0.74143352082E+02  0.00000000000E+00 0. -1.
          2   -1    0    0  502    0  0.00000000000E+00 -0.00000000000E+00 -0.68319742759E+03  0.68319742759E+03  0.00000000000E+00 0.  1.
          6    1    1    2  502    0  0.74034096933E+02  0.41557403851E+02 -0.10891299511E+03  0.22135741647E+03  0.17300000000E+03 0. -1.
         -6    1    1    2    0  501 -0.74034096933E+02 -0.41557403851E+02 -0.50014108040E+03  0.53598336320E+03  0.17300000000E+03 0.  1.
<mgrwt>
<rscale>  2 0.19270980E+03</rscale>
<asrwt>0</asrwt>
<pdfrwt beam="1">  1        2 0.10510730E+00 0.19270980E+03</pdfrwt>
<pdfrwt beam="2">  1       -2 0.11406670E-01 0.19270980E+03</pdfrwt>
<totfact> 0.23002860E+03</totfact>
</mgrwt>
</event>
<event>
 4    3  0.7748294E-001  0.3146140E+03  0.7546771E-02  0.1078155E+00
         -2   -1    0    0    0  501 -0.00000000000E+00  0.00000000000E+00  0.96076891447E+02  0.96076891447E+02  0.00000000000E+00 0.  1.
          2   -1    0    0  502    0  0.00000000000E+00 -0.00000000000E+00 -0.10340516605E+04  0.10340516605E+04  0.00000000000E+00 0. -1.
          6    1    1    2  502    0 -0.18397857146E+03  0.18762955985E+03 -0.43466670949E+03  0.53657908534E+03  0.17300000000E+03 0. -1.
         -6    1    1    2    0  501  0.18397857146E+03 -0.18762955985E+03 -0.50330805952E+03  0.59354946657E+03  0.17300000000E+03 0.  1.
<mgrwt>
<rscale>  2 0.31461400E+03</rscale>
<asrwt>0</asrwt>
<pdfrwt beam="1">  1        2 0.15908487E+00 0.31461400E+03</pdfrwt>
<pdfrwt beam="2">  1       -2 0.14781061E-01 0.31461400E+03</pdfrwt>
<totfact> 0.87815524E+02</totfact>
</mgrwt>
</event>
<event>
 4    3  0.7748294E-001  0.1864587E+03  0.7546771E-02  0.1161695E+00
         -1   -1    0    0    0  501 -0.00000000000E+00  0.00000000000E+00  0.38099829712E+02  0.38099829712E+02  0.00000000000E+00 0.  1.
          1   -1    0    0  502    0  0.00000000000E+00 -0.00000000000E+00 -0.97049639308E+03  0.97049639308E+03  0.00000000000E+00 0. -1.
          6    1    1    2  502    0  0.46561532907E+02 -0.51670767520E+02 -0.34293970185E+03  0.39035174351E+03  0.17300000000E+03 0.  1.
         -6    1    1    2    0  501 -0.46561532907E+02  0.51670767520E+02 -0.58945686153E+03  0.61824447928E+03  0.17300000000E+03 0. -1.
<mgrwt>
<rscale>  2 0.18645869E+03</rscale>
<asrwt>0</asrwt>
<pdfrwt beam="1">  1        1 0.14930712E+00 0.18645869E+03</pdfrwt>
<pdfrwt beam="2">  1       -1 0.58615129E-02 0.18645869E+03</pdfrwt>
<totfact> 0.23175816E+03</totfact>
</mgrwt>
</event>
<event>
 4    3  0.7748294E-001  0.1859132E+03  0.7546771E-02  0.1162200E+00
         -2   -1    0    0    0  501 -0.00000000000E+00  0.00000000000E+00  0.51738666365E+02  0.51738666365E+02  0.00000000000E+00 0. -1.
          2   -1    0    0  502    0  0.00000000000E+00 -0.00000000000E+00 -0.67217951532E+03  0.67217951532E+03  0.00000000000E+00 0.  1.
          6    1    1    2  502    0  0.35879052132E+02  0.57856713910E+02 -0.33861148230E+03  0.38629191251E+03  0.17300000000E+03 0. -1.
         -6    1    1    2    0  501 -0.35879052132E+02 -0.57856713910E+02 -0.28182936666E+03  0.33762626917E+03  0.17300000000E+03 0. -1.
<mgrwt>
<rscale>  2 0.18591317E+03</rscale>
<asrwt>0</asrwt>
<pdfrwt beam="1">  1        2 0.10341223E+00 0.18591317E+03</pdfrwt>
<pdfrwt beam="2">  1       -2 0.79597950E-02 0.18591317E+03</pdfrwt>
<totfact> 0.41332846E+03</totfact>
</mgrwt>
</event>
<event>
 4    3  0.7748294E-001  0.1748685E+03  0.7546771E-02  0.1172864E+00
          2   -1    0    0  502    0  0.00000000000E+00  0.00000000000E+00  0.29626590423E+04  0.29626590423E+04  0.00000000000E+00 0. -1.
         -2   -1    0    0    0  501 -0.00000000000E+00 -0.00000000000E+00 -0.10510329036E+02  0.10510329036E+02  0.00000000000E+00 0.  1.
          6    1    1    2  502    0 -0.30911128573E+01  0.25306858082E+02  0.12767996939E+04  0.12887189183E+04  0.17300000000E+03 0.  1.
         -6    1    1    2    0  501  0.30911128573E+01 -0.25306858082E+02  0.16753490194E+04  0.16844504530E+04  0.17300000000E+03 0. -1.
<mgrwt>
<rscale>  2 0.17486850E+03</rscale>
<asrwt>0</asrwt>
<pdfrwt beam="1">  1        2 0.45579303E+00 0.17486850E+03</pdfrwt>
<pdfrwt beam="2">  1       -2 0.16169761E-02 0.17486850E+03</pdfrwt>
<totfact> 0.23463291E+03</totfact>
</mgrwt>
</event>
<event>
 4    3  0.7748294E-001  0.1746047E+03  0.7546771E-02  0.1173129E+00
          2   -1    0    0  502    0  0.00000000000E+00  0.00000000000E+00  0.21716669360E+03  0.21716669360E+03  0.00000000000E+00 0.  1.
         -2   -1    0    0    0  501 -0.00000000000E+00 -0.00000000000E+00 -0.14235240265E+03  0.14235240265E+03  0.00000000000E+00 0. -1.
          6    1    1    2  502    0 -0.22022033384E+02 -0.85340742314E+01  0.58543512097E+02  0.18415793001E+03  0.17300000000E+03 0.  1.
         -6    1    1    2    0  501  0.22022033384E+02  0.85340742314E+01  0.16270778855E+02  0.17536116623E+03  0.17300000000E+03 0.  1.
<mgrwt>
<rscale>  2 0.17460470E+03</rscale>
<asrwt>0</asrwt>
<pdfrwt beam="1">  1        2 0.33410260E-01 0.17460470E+03</pdfrwt>
<pdfrwt beam="2">  1       -2 0.21900370E-01 0.17460470E+03</pdfrwt>
<totfact> 0.27369267E+03</totfact>
</mgrwt>
</event>
<event>
 4    3  0.7748294E-001  0.2044175E+03  0.7546771E-02  0.1146065E+00
         -1   -1    0    0    0  501 -0.00000000000E+00  0.00000000000E+00  0.17315853972E+03  0.17315853972E+03  0.00000000000E+00 0.  1.
          1   -1    0    0  502    0  0.00000000000E+00 -0.00000000000E+00 -0.27122169534E+03  0.27122169534E+03  0.00000000000E+00 0. -1.
          6    1    1    2  502    0 -0.10865429317E+03 -0.71953090151E+01  0.24744275991E+02  0.20590970616E+03  0.17300000000E+03 0.  1.
         -6    1    1    2    0  501  0.10865429317E+03  0.71953090151E+01 -0.12280743161E+03  0.23847052891E+03  0.17300000000E+03 0. -1.
<mgrwt>
<rscale>  2 0.20441753E+03</rscale>
<asrwt>0</asrwt>
<pdfrwt beam="1">  1        1 0.41726415E-01 0.20441753E+03</pdfrwt>
<pdfrwt beam="2">  1       -1 0.26639775E-01 0.20441753E+03</pdfrwt>
<totfact> 0.12408226E+03</totfact>
</mgrwt>
</event>
<event>
 4    3  0.7748294E-001  0.1934867E+03  0.7546771E-02  0.1155354E+00
          2   -1    0    0  502    0  0.00000000000E+00  0.00000000000E+00  0.76573601596E+03  0.76573601596E+03  0.00000000000E+00 0.  1.
         -2   -1    0    0    0  501 -0.00000000000E+00 -0.00000000000E+00 -0.56516883314E+02  0.56516883314E+02  0.00000000000E+00 0. -1.
          6    1    1    2  502    0  0.14160789503E+02 -0.85484390138E+02  0.20358429036E+03  0.28086237234E+03  0.17300000000E+03 0. -1.
         -6    1    1    2    0  501 -0.14160789503E+02  0.85484390138E+02  0.50563484229E+03  0.54139052694E+03  0.17300000000E+03 0.  1.
<mgrwt>
<rscale>  2 0.19348672E+03</rscale>
<asrwt>0</asrwt>
<pdfrwt beam="1">  1        2 0.11780553E+00 0.19348672E+03</pdfrwt>
<pdfrwt beam="2">  1       -2 0.86949056E-02 0.19348672E+03</pdfrwt>
<totfact> 0.30781094E+03</totfact>
</mgrwt>
</event>
<event>
 4    3  0.7748294E-001  0.2170379E+03  0.7546771E-02  0.1136111E+00
         -2   -1    0    0    0  501 -0.00000000000E+00  0.00000000000E+00  0.32451738326E+02  0.32451738326E+02  0.00000000000E+00 0.  1.
          2   -1    0    0  502    0  0.00000000000E+00 -0.00000000000E+00 -0.14915392868E+04  0.14915392868E+04  0.00000000000E+00 0. -1.
          6    1    1    2  502    0 -0.13105876593E+03  0.24505457619E+00 -0.60478141873E+03  0.64254651553E+03  0.17300000000E+03 0.  1.
         -6    1    1    2    0  501  0.13105876593E+03 -0.24505457619E+00 -0.85430612979E+03  0.88144450964E+03  0.17300000000E+03 0. -1.
<mgrwt>
<rscale>  2 0.21703792E+03</rscale>
<asrwt>0</asrwt>
<pdfrwt beam="1">  1        2 0.22946760E+00 0.21703792E+03</pdfrwt>
<pdfrwt beam="2">  1       -2 0.49925747E-02 0.21703792E+03</pdfrwt>
<totfact> 0.27046050E+03</totfact>
</mgrwt>
</event>
<event>
 4    3  0.7748294E-001  0.2620582E+03  0.7546771E-02  0.1105913E+00
          2   -1    0    0  502    0  0.00000000000E+00  0.00000000000E+00  0.22388569930E+04  0.22388569930E+04  0.00000000000E+00 0. -1.
         -2   -1    0    0    0  501 -0.00000000000E+00 -0.00000000000E+00 -0.30716627369E+02  0.30716627369E+02  0.00000000000E+00 0.  1.
          6    1    1    2  502    0  0.14817556335E+03  0.12957433110E+03  0.10617532686E+04  0.10936153384E+04  0.17300000000E+03 0.  1.
         -6    1    1    2    0  501 -0.14817556335E+03 -0.12957433110E+03  0.11463870970E+04  0.11759582820E+04  0.17300000000E+03 0. -1.
<mgrwt>
<rscale>  2 0.26205821E+03</rscale>
<asrwt>0</asrwt>
<pdfrwt beam="1">  1        2 0.34443941E+00 0.26205821E+03</pdfrwt>
<pdfrwt beam="2">  1       -2 0.47256367E-02 0.26205821E+03</pdfrwt>
<totfact> 0.11858734E+03</totfact>
</mgrwt>
</event>
<event>
 4    3  0.7748294E-001  0.1772251E+03  0.7546771E-02  0.1170516E+00
          2   -1    0    0  502    0  0.00000000000E+00  0.00000000000E+00  0.65205623428E+03  0.65205623428E+03  0.00000000000E+00 0.  1.
         -2   -1    0    0    0  501 -0.00000000000E+00 -0.00000000000E+00 -0.48851752157E+02  0.48851752157E+02  0.00000000000E+00 0. -1.
          6    1    1    2  502    0 -0.49690214530E+01  0.38145110168E+02  0.34304022605E+03  0.38611570454E+03  0.17300000000E+03 0.  1.
         -6    1    1    2    0  501  0.49690214530E+01 -0.38145110168E+02  0.26016425607E+03  0.31479228190E+03  0.17300000000E+03 0. -1.
<mgrwt>
<rscale>  2 0.17722511E+03</rscale>
<asrwt>0</asrwt>
<pdfrwt beam="1">  1        2 0.10031634E+00 0.17722511E+03</pdfrwt>
<pdfrwt beam="2">  1       -2 0.75156547E-02 0.17722511E+03</pdfrwt>
<totfact> 0.46749765E+03</totfact>
</mgrwt>
</event>
<event>
 4    3  0.7748294E-001  0.2534213E+03  0.7546771E-02  0.1111162E+00
         -2   -1    0    0    0  501 -0.00000000000E+00  0.00000000000E+00  0.76234294782E+02  0.76234294782E+02  0.00000000000E+00 0.  1.
          2   -1    0    0  502    0  0.00000000000E+00 -0.00000000000E+00 -0.85412249949E+03  0.85412249949E+03  0.00000000000E+00 0. -1.
          6    1    1    2  502    0 -0.18518191859E+03  0.99725502102E+00 -0.44336237896E+03  0.51067850607E+03  0.17300000000E+03 0. -1.
         -6    1    1    2    0  501  0.18518191859E+03 -0.99725502102E+00 -0.33452582575E+03  0.41967828820E+03  0.17300000000E+03 0.  1.
<mgrwt>
<rscale>  2 0.25342126E+03</rscale>
<asrwt>0</asrwt>
<pdfrwt beam="1">  1        2 0.13140345E+00 0.25342126E+03</pdfrwt>
<pdfrwt beam="2">  1       -2 0.11728354E-01 0.25342126E+03</pdfrwt>
<totfact> 0.16704887E+03</totfact>
</mgrwt>
</event>
<event>
 4    3  0.7748294E-001  0.1960333E+03  0.7546771E-02  0.1153130E+00
          2   -1    0    0  502    0  0.00000000000E+00  0.00000000000E+00  0.10503464276E+04  0.10503464276E+04  0.00000000000E+00 0.  1.
         -2   -1    0    0    0  501 -0.00000000000E+00 -0.00000000000E+00 -0.36853862417E+02  0.36853862417E+02  0.00000000000E+00 0. -1.
          6    1    1    2  502    0  0.45091466051E+02 -0.80416547420E+02  0.55300071562E+03  0.58671871701E+03  0.17300000000E+03 0. -1.
         -6    1    1    2    0  501 -0.45091466051E+02  0.80416547420E+02  0.46049184957E+03  0.50048157302E+03  0.17300000000E+03 0.  1.
<mgrwt>
<rscale>  2 0.19603332E+03</rscale>
<asrwt>0</asrwt>
<pdfrwt beam="1">  1        2 0.16159174E+00 0.19603332E+03</pdfrwt>
<pdfrwt beam="2">  1       -2 0.56698258E-02 0.19603332E+03</pdfrwt>
<totfact> 0.39159483E+03</totfact>
</mgrwt>
</event>
<event>
 4    3  0.7748294E-001  0.2236635E+03  0.7546771E-02  0.1131181E+00
         -1   -1    0    0    0  501 -0.00000000000E+00  0.00000000000E+00  0.33137899036E+02  0.33137899036E+02  0.00000000000E+00 0.  1.
          1   -1    0    0  502    0  0.00000000000E+00 -0.00000000000E+00 -0.15955375560E+04  0.15955375560E+04  0.00000000000E+00 0. -1.
          6    1    1    2  502    0 -0.12573348130E+03 -0.65478736814E+02 -0.59222151563E+03  0.63304952166E+03  0.17300000000E+03 0.  1.
         -6    1    1    2    0  501  0.12573348130E+03  0.65478736814E+02 -0.97017814128E+03  0.99562593333E+03  0.17300000000E+03 0.  1.
<mgrwt>
<rscale>  2 0.22366353E+03</rscale>
<asrwt>0</asrwt>
<pdfrwt beam="1">  1        1 0.24546738E+00 0.22366353E+03</pdfrwt>
<pdfrwt beam="2">  1       -1 0.50981369E-02 0.22366353E+03</pdfrwt>
<totfact> 0.10614426E+03</totfact>
</mgrwt>
</event>
<event>
 4    3  0.7748294E-001  0.2477668E+03  0.7546771E-02  0.1114724E+00
          2   -1    0    0  502    0  0.00000000000E+00  0.00000000000E+00  0.99635639763E+03  0.99635639763E+03  0.00000000000E+00 0. -1.
         -2   -1    0    0    0  501 -0.00000000000E+00 -0.00000000000E+00 -0.62505721852E+02  0.62505721852E+02  0.00000000000E+00 0.  1.
          6    1    1    2  502    0  0.22492718773E+02 -0.17593594731E+03  0.53020127105E+03  0.58523650585E+03  0.17300000000E+03 0. -1.
         -6    1    1    2    0  501 -0.22492718773E+02  0.17593594731E+03  0.40364940473E+03  0.47362561364E+03  0.17300000000E+03 0.  1.
<mgrwt>
<rscale>  2 0.24776679E+03</rscale>
<asrwt>0</asrwt>
<pdfrwt beam="1">  1        2 0.15328559E+00 0.24776679E+03</pdfrwt>
<pdfrwt beam="2">  1       -2 0.96162656E-02 0.24776679E+03</pdfrwt>
<totfact> 0.18627149E+03</totfact>
</mgrwt>
</event>
<event>
 4    3  0.7748294E-001  0.2091276E+03  0.7546771E-02  0.1142259E+00
         -2   -1    0    0    0  501 -0.00000000000E+00  0.00000000000E+00  0.70528884712E+02  0.70528884712E+02  0.00000000000E+00 0.  1.
          2   -1    0    0  502    0  0.00000000000E+00 -0.00000000000E+00 -0.81198644636E+03  0.81198644636E+03  0.00000000000E+00 0. -1.
          6    1    1    2  502    0  0.81118437820E+02 -0.85000979727E+02 -0.58523977319E+03  0.62148206702E+03  0.17300000000E+03 0. -1.
         -6    1    1    2    0  501 -0.81118437820E+02  0.85000979727E+02 -0.15621778846E+03  0.26103326405E+03  0.17300000000E+03 0.  1.
<mgrwt>
<rscale>  2 0.20912763E+03</rscale>
<asrwt>0</asrwt>
<pdfrwt beam="1">  1        2 0.12492099E+00 0.20912763E+03</pdfrwt>
<pdfrwt beam="2">  1       -2 0.10850598E-01 0.20912763E+03</pdfrwt>
<totfact> 0.20169985E+03</totfact>
</mgrwt>
</event>
<event>
 4    3  0.7748294E-001  0.1853441E+03  0.7546771E-02  0.1162729E+00
         -2   -1    0    0    0  501 -0.00000000000E+00  0.00000000000E+00  0.27206957154E+02  0.27206957154E+02  0.00000000000E+00 0.  1.
          2   -1    0    0  502    0  0.00000000000E+00 -0.00000000000E+00 -0.19782129373E+04  0.19782129373E+04  0.00000000000E+00 0. -1.
          6    1    1    2  502    0  0.55126247583E+02 -0.37209532856E+02 -0.15785724254E+04  0.15894160421E+04  0.17300000000E+03 0. -1.
         -6    1    1    2    0  501 -0.55126247583E+02  0.37209532856E+02 -0.37243355472E+03  0.41600385238E+03  0.17300000000E+03 0.  1.
<mgrwt>
<rscale>  2 0.18534415E+03</rscale>
<asrwt>0</asrwt>
<pdfrwt beam="1">  1        2 0.30434055E+00 0.18534415E+03</pdfrwt>
<pdfrwt beam="2">  1       -2 0.41856844E-02 0.18534415E+03</pdfrwt>
<totfact> 0.19680568E+03</totfact>
</mgrwt>
</event>
<event>
 4    3  0.7748294E-001  0.2264909E+03  0.7546771E-02  0.1129134E+00
          2   -1    0    0  502    0  0.00000000000E+00  0.00000000000E+00  0.37949234999E+03  0.37949234999E+03  0.00000000000E+00 0.  1.
         -2   -1    0    0    0  501 -0.00000000000E+00 -0.00000000000E+00 -0.13531336101E+03  0.13531336101E+03  0.00000000000E+00 0. -1.
          6    1    1    2  502    0 -0.12923224734E+03  0.68323808518E+02  0.11387723364E+03  0.25350767425E+03  0.17300000000E+03 0.  1.
         -6    1    1    2    0  501  0.12923224734E+03 -0.68323808518E+02  0.13030175534E+03  0.26129803674E+03  0.17300000000E+03 0. -1.
<mgrwt>
<rscale>  2 0.22649088E+03</rscale>
<asrwt>0</asrwt>
<pdfrwt beam="1">  1        2 0.58383438E-01 0.22649088E+03</pdfrwt>
<pdfrwt beam="2">  1       -2 0.20817440E-01 0.22649088E+03</pdfrwt>
<totfact> 0.16510073E+03</totfact>
</mgrwt>
</event>
<event>
 4    3  0.7748294E-001  0.1825296E+03  0.7546771E-02  0.1165377E+00
          2   -1    0    0  502    0  0.00000000000E+00  0.00000000000E+00  0.13302902905E+04  0.13302902905E+04  0.00000000000E+00 0. -1.
         -2   -1    0    0    0  501 -0.00000000000E+00 -0.00000000000E+00 -0.29375285234E+02  0.29375285234E+02  0.00000000000E+00 0.  1.
          6    1    1    2  502    0 -0.21922483141E+02  0.53920963225E+02  0.38943894983E+03  0.43009273556E+03  0.17300000000E+03 0.  1.
         -6    1    1    2    0  501  0.21922483141E+02 -0.53920963225E+02  0.91147605540E+03  0.92957284013E+03  0.17300000000E+03 0. -1.
<mgrwt>
<rscale>  2 0.18252963E+03</rscale>
<asrwt>0</asrwt>
<pdfrwt beam="1">  1        2 0.20466000E+00 0.18252963E+03</pdfrwt>
<pdfrwt beam="2">  1       -2 0.45192757E-02 0.18252963E+03</pdfrwt>
<totfact> 0.38308961E+03</totfact>
</mgrwt>
</event>
<event>
 4    3  0.7748294E-001  0.1912217E+03  0.7546771E-02  0.1157364E+00
         -1   -1    0    0    0  501 -0.00000000000E+00  0.00000000000E+00  0.23325609700E+02  0.23325609700E+02  0.00000000000E+00 0.  1.
          1   -1    0    0  502    0  0.00000000000E+00 -0.00000000000E+00 -0.15677384597E+04  0.15677384597E+04  0.00000000000E+00 0. -1.
          6    1    1    2  502    0  0.24889699387E+02 -0.77570934066E+02 -0.77905289845E+03  0.80217776430E+03  0.17300000000E+03 0.  1.
         -6    1    1    2    0  501 -0.24889699387E+02  0.77570934066E+02 -0.76535995159E+03  0.78888630515E+03  0.17300000000E+03 0.  1.
<mgrwt>
<rscale>  2 0.19122172E+03</rscale>
<asrwt>0</asrwt>
<pdfrwt beam="1">  1        1 0.24119049E+00 0.19122172E+03</pdfrwt>
<pdfrwt beam="2">  1       -1 0.35885560E-02 0.19122172E+03</pdfrwt>
<totfact> 0.18681856E+03</totfact>
</mgrwt>
</event>
<event>
 4    3  0.7748294E-001  0.2165526E+03  0.7546771E-02  0.1136480E+00
         -1   -1    0    0    0  501 -0.00000000000E+00  0.00000000000E+00  0.29547461329E+03  0.29547461329E+03  0.00000000000E+00 0.  1.
          1   -1    0    0  502    0  0.00000000000E+00 -0.00000000000E+00 -0.21036096999E+03  0.21036096999E+03  0.00000000000E+00 0. -1.
          6    1    1    2  502    0 -0.38816014277E+02  0.12433562949E+03 -0.82766644890E+02  0.23183043207E+03  0.17300000000E+03 0. -1.
         -6    1    1    2    0  501  0.38816014277E+02 -0.12433562949E+03  0.16788028819E+03  0.27400515121E+03  0.17300000000E+03 0.  1.
<mgrwt>
<rscale>  2 0.21655261E+03</rscale>
<asrwt>0</asrwt>
<pdfrwt beam="1">  1        1 0.32363226E-01 0.21655261E+03</pdfrwt>
<pdfrwt beam="2">  1       -1 0.45457632E-01 0.21655261E+03</pdfrwt>
<totfact> 0.67514409E+02</totfact>
</mgrwt>
</event>
<event>
 4    3  0.7748294E-001  0.1904206E+03  0.7546771E-02  0.1158082E+00
         -1   -1    0    0    0  501 -0.00000000000E+00  0.00000000000E+00  0.12761409514E+03  0.12761409514E+03  0.00000000000E+00 0.  1.
          1   -1    0    0  502    0  0.00000000000E+00 -0.00000000000E+00 -0.28674915578E+03  0.28674915578E+03  0.00000000000E+00 0. -1.
          6    1    1    2  502    0 -0.75993456764E+02 -0.23579944973E+02 -0.59797243847E+02  0.19958890161E+03  0.17300000000E+03 0. -1.
         -6    1    1    2    0  501  0.75993456764E+02  0.23579944973E+02 -0.99337816791E+02  0.21477434931E+03  0.17300000000E+03 0. -1.
<mgrwt>
<rscale>  2 0.19042064E+03</rscale>
<asrwt>0</asrwt>
<pdfrwt beam="1">  1        1 0.44115254E-01 0.19042064E+03</pdfrwt>
<pdfrwt beam="2">  1       -1 0.19632938E-01 0.19042064E+03</pdfrwt>
<totfact> 0.19078654E+03</totfact>
</mgrwt>
</event>
<event>
 4    3  0.7748294E-001  0.2396978E+03  0.7546771E-02  0.1119994E+00
         -2   -1    0    0    0  501 -0.00000000000E+00  0.00000000000E+00  0.17302488990E+03  0.17302488990E+03  0.00000000000E+00 0. -1.
          2   -1    0    0  502    0  0.00000000000E+00 -0.00000000000E+00 -0.33957462791E+03  0.33957462791E+03  0.00000000000E+00 0.  1.
          6    1    1    2  502    0  0.89827058917E+02  0.13948884030E+03 -0.12139626713E+03  0.26868585887E+03  0.17300000000E+03 0. -1.
         -6    1    1    2    0  501 -0.89827058917E+02 -0.13948884030E+03 -0.45153470878E+02  0.24391365894E+03  0.17300000000E+03 0.  1.
<mgrwt>
<rscale>  2 0.23969780E+03</rscale>
<asrwt>0</asrwt>
<pdfrwt beam="1">  1        2 0.52242250E-01 0.23969780E+03</pdfrwt>
<pdfrwt beam="2">  1       -2 0.26619214E-01 0.23969780E+03</pdfrwt>
<totfact> 0.12118841E+03</totfact>
</mgrwt>
</event>
<event>
 4    3  0.7748294E-001  0.3319125E+03  0.7546771E-02  0.1070294E+00
         -2   -1    0    0    0  501 -0.00000000000E+00  0.00000000000E+00  0.30619113578E+03  0.30619113578E+03  0.00000000000E+00 0. -1.
          2   -1    0    0  502    0  0.00000000000E+00 -0.00000000000E+00 -0.52756460773E+03  0.52756460773E+03  0.00000000000E+00 0.  1.
          6    1    1    2  502    0 -0.14625996259E+03 -0.24257977111E+03  0.12440001762E+03  0.35445914630E+03  0.17300000000E+03 0. -1.
         -6    1    1    2    0  501  0.14625996259E+03  0.24257977111E+03 -0.34577348956E+03  0.47929659721E+03  0.17300000000E+03 0.  1.
<mgrwt>
<rscale>  2 0.33191252E+03</rscale>
<asrwt>0</asrwt>
<pdfrwt beam="1">  1        2 0.81163785E-01 0.33191252E+03</pdfrwt>
<pdfrwt beam="2">  1       -2 0.47106329E-01 0.33191252E+03</pdfrwt>
<totfact> 0.25438072E+02</totfact>
</mgrwt>
</event>
<event>
 4    3  0.7748294E-001  0.2204142E+03  0.7546771E-02  0.1133575E+00
         -1   -1    0    0    0  501 -0.00000000000E+00  0.00000000000E+00  0.20991011327E+03  0.20991011327E+03  0.00000000000E+00 0. -1.
          1   -1    0    0  502    0  0.00000000000E+00 -0.00000000000E+00 -0.25626151986E+03  0.25626151986E+03  0.00000000000E+00 0.  1.
          6    1    1    2  502    0 -0.12097977323E+03 -0.63382131926E+02 -0.95711910164E+02  0.24029808556E+03  0.17300000000E+03 0.  1.
         -6    1    1    2    0  501  0.12097977323E+03  0.63382131926E+02  0.49360503578E+02  0.22587354757E+03  0.17300000000E+03 0. -1.
<mgrwt>
<rscale>  2 0.22041416E+03</rscale>
<asrwt>0</asrwt>
<pdfrwt beam="1">  1        1 0.39424849E-01 0.22041416E+03</pdfrwt>
<pdfrwt beam="2">  1       -1 0.32293863E-01 0.22041416E+03</pdfrwt>
<totfact> 0.96256741E+02</totfact>
</mgrwt>
</event>
<event>
 4    3  0.7748294E-001  0.1831615E+03  0.7546771E-02  0.1164778E+00
         -2   -1    0    0    0  501 -0.00000000000E+00  0.00000000000E+00  0.36830610705E+03  0.36830610705E+03  0.00000000000E+00 0. -1.
          2   -1    0    0  502    0  0.00000000000E+00 -0.00000000000E+00 -0.10342983556E+03  0.10342983556E+03  0.00000000000E+00 0.  1.
          6    1    1    2  502    0  0.15526603939E+01  0.60139334946E+02  0.21391634754E+03  0.28161738957E+03  0.17300000000E+03 0. -1.
         -6    1    1    2    0  501 -0.15526603939E+01 -0.60139334946E+02  0.50959923953E+02  0.19011855304E+03  0.17300000000E+03 0. -1.
<mgrwt>
<rscale>  2 0.18316154E+03</rscale>
<asrwt>0</asrwt>
<pdfrwt beam="1">  1        2 0.15912283E-01 0.18316154E+03</pdfrwt>
<pdfrwt beam="2">  1       -2 0.56662477E-01 0.18316154E+03</pdfrwt>
<totfact> 0.10697295E+03</totfact>
</mgrwt>
</event>
<event>
 4    3  0.7748294E-001  0.1734149E+03  0.7546771E-02  0.1174333E+00
         -2   -1    0    0    0  501 -0.00000000000E+00  0.00000000000E+00  0.21300313643E+02  0.21300313643E+02  0.00000000000E+00 0. -1.
          2   -1    0    0  502    0  0.00000000000E+00 -0.00000000000E+00 -0.38480427263E+04  0.38480427263E+04  0.00000000000E+00 0.  1.
          6    1    1    2  502    0 -0.75163764439E+01  0.93394507725E+01 -0.34527434319E+04  0.34570955914E+04  0.17300000000E+03 0.  1.
         -6    1    1    2    0  501  0.75163764439E+01 -0.93394507725E+01 -0.37399898073E+03  0.41224744856E+03  0.17300000000E+03 0. -1.
<mgrwt>
<rscale>  2 0.17341488E+03</rscale>
<asrwt>0</asrwt>
<pdfrwt beam="1">  1        2 0.59200685E+00 0.17341488E+03</pdfrwt>
<pdfrwt beam="2">  1       -2 0.32769698E-02 0.17341488E+03</pdfrwt>
<totfact> 0.22514670E+02</totfact>
</mgrwt>
</event>
<event>
 4    3  0.7748294E-001  0.1767990E+03  0.7546771E-02  0.1170937E+00
         -2   -1    0    0    0  501 -0.00000000000E+00  0.00000000000E+00  0.22383981421E+03  0.22383981421E+03  0.00000000000E+00 0. -1.
          2   -1    0    0  502    0  0.00000000000E+00 -0.00000000000E+00 -0.18273082143E+03  0.18273082143E+03  0.00000000000E+00 0.  1.
          6    1    1    2  502    0 -0.36068591279E+02 -0.52859390709E+01 -0.78158059395E+02  0.19330433693E+03  0.17300000000E+03 0.  1.
         -6    1    1    2    0  501  0.36068591279E+02  0.52859390709E+01  0.11926705218E+03  0.21326629871E+03  0.17300000000E+03 0. -1.
<mgrwt>
<rscale>  2 0.17679899E+03</rscale>
<asrwt>0</asrwt>
<pdfrwt beam="1">  1        2 0.28112434E-01 0.17679899E+03</pdfrwt>
<pdfrwt beam="2">  1       -2 0.34436895E-01 0.17679899E+03</pdfrwt>
<totfact> 0.14742261E+03</totfact>
</mgrwt>
</event>
<event>
 4    3  0.7748294E-001  0.1792517E+03  0.7546771E-02  0.1168529E+00
          1   -1    0    0  502    0  0.00000000000E+00  0.00000000000E+00  0.34817011226E+03  0.34817011226E+03  0.00000000000E+00 0.  1.
         -1   -1    0    0    0  501 -0.00000000000E+00 -0.00000000000E+00 -0.10046402082E+03  0.10046402082E+03  0.00000000000E+00 0. -1.
          6    1    1    2  502    0 -0.23577026520E+02  0.40574719115E+02  0.59852390219E+02  0.18898013818E+03  0.17300000000E+03 0. -1.
         -6    1    1    2    0  501  0.23577026520E+02 -0.40574719115E+02  0.18785370122E+03  0.25965399491E+03  0.17300000000E+03 0. -1.
<mgrwt>
<rscale>  2 0.17925173E+03</rscale>
<asrwt>0</asrwt>
<pdfrwt beam="1">  1        1 0.53564632E-01 0.17925173E+03</pdfrwt>
<pdfrwt beam="2">  1       -1 0.15456003E-01 0.17925173E+03</pdfrwt>
<totfact> 0.21888089E+03</totfact>
</mgrwt>
</event>
<event>
 4    3  0.7748294E-001  0.1882258E+03  0.7546771E-02  0.1160071E+00
         -2   -1    0    0    0  501 -0.00000000000E+00  0.00000000000E+00  0.11636641040E+03  0.11636641040E+03  0.00000000000E+00 0. -1.
          2   -1    0    0  502    0  0.00000000000E+00 -0.00000000000E+00 -0.31572086304E+03  0.31572086304E+03  0.00000000000E+00 0.  1.
          6    1    1    2  502    0 -0.72763576325E+02  0.14332301477E+02 -0.14047812963E+03  0.23486817113E+03  0.17300000000E+03 0. -1.
         -6    1    1    2    0  501  0.72763576325E+02 -0.14332301477E+02 -0.58876323014E+02  0.19721910231E+03  0.17300000000E+03 0. -1.
<mgrwt>
<rscale>  2 0.18822580E+03</rscale>
<asrwt>0</asrwt>
<pdfrwt beam="1">  1        2 0.48572440E-01 0.18822580E+03</pdfrwt>
<pdfrwt beam="2">  1       -2 0.17902525E-01 0.18822580E+03</pdfrwt>
<totfact> 0.25877529E+03</totfact>
</mgrwt>
</event>
<event>
 4    3  0.7748294E-001  0.1745677E+03  0.7546771E-02  0.1173166E+00
          2   -1    0    0  502    0  0.00000000000E+00  0.00000000000E+00  0.16786873147E+04  0.16786873147E+04  0.00000000000E+00 0. -1.
         -2   -1    0    0    0  501 -0.00000000000E+00 -0.00000000000E+00 -0.18153594351E+02  0.18153594351E+02  0.00000000000E+00 0.  1.
          6    1    1    2  502    0 -0.22465762855E+02  0.63381139620E+01  0.83304334888E+03  0.85113753489E+03  0.17300000000E+03 0.  1.
         -6    1    1    2    0  501  0.22465762855E+02 -0.63381139620E+01  0.82749037145E+03  0.84570337414E+03  0.17300000000E+03 0. -1.
<mgrwt>
<rscale>  2 0.17456770E+03</rscale>
<asrwt>0</asrwt>
<pdfrwt beam="1">  1        2 0.25825946E+00 0.17456770E+03</pdfrwt>
<pdfrwt beam="2">  1       -2 0.27928620E-02 0.17456770E+03</pdfrwt>
<totfact> 0.51320736E+03</totfact>
</mgrwt>
</event>
<event>
 4    3  0.7748294E-001  0.1933732E+03  0.7546771E-02  0.1155454E+00
          2   -1    0    0  502    0  0.00000000000E+00  0.00000000000E+00  0.33033898067E+03  0.33033898067E+03  0.00000000000E+00 0.  1.
         -2   -1    0    0    0  501 -0.00000000000E+00 -0.00000000000E+00 -0.15498720261E+03  0.15498720261E+03  0.00000000000E+00 0. -1.
          6    1    1    2  502    0 -0.28739379482E+02  0.81475449062E+02  0.21368324240E+03  0.28819043845E+03  0.17300000000E+03 0.  1.
         -6    1    1    2    0  501  0.28739379482E+02 -0.81475449062E+02 -0.38331464335E+02  0.19713574483E+03  0.17300000000E+03 0. -1.
<mgrwt>
<rscale>  2 0.19337322E+03</rscale>
<asrwt>0</asrwt>
<pdfrwt beam="1">  1        2 0.50821381E-01 0.19337322E+03</pdfrwt>
<pdfrwt beam="2">  1       -2 0.23844185E-01 0.19337322E+03</pdfrwt>
<totfact> 0.15101210E+03</totfact>
</mgrwt>
</event>
<event>
 4    3  0.7748294E-001  0.1746377E+03  0.7546771E-02  0.1173096E+00
         -2   -1    0    0    0  501 -0.00000000000E+00  0.00000000000E+00  0.38446508707E+02  0.38446508707E+02  0.00000000000E+00 0.  1.
          2   -1    0    0  502    0  0.00000000000E+00 -0.00000000000E+00 -0.98205774994E+03  0.98205774994E+03  0.00000000000E+00 0. -1.
          6    1    1    2  502    0 -0.14719465475E+02  0.18779343148E+02 -0.69552688912E+03  0.71711643398E+03  0.17300000000E+03 0. -1.
         -6    1    1    2    0  501  0.14719465475E+02 -0.18779343148E+02 -0.24808435211E+03  0.30338782467E+03  0.17300000000E+03 0.  1.
<mgrwt>
<rscale>  2 0.17463770E+03</rscale>
<asrwt>0</asrwt>
<pdfrwt beam="1">  1        2 0.15108579E+00 0.17463770E+03</pdfrwt>
<pdfrwt beam="2">  1       -2 0.59148483E-02 0.17463770E+03</pdfrwt>
<totfact> 0.40231013E+03</totfact>
</mgrwt>
</event>
<event>
 4    3  0.7748294E-001  0.1895293E+03  0.7546771E-02  0.1158887E+00
         -1   -1    0    0    0  501 -0.00000000000E+00  0.00000000000E+00  0.76123799959E+02  0.76123799959E+02  0.00000000000E+00 0.  1.
          1   -1    0    0  502    0  0.00000000000E+00 -0.00000000000E+00 -0.55336440776E+03  0.55336440776E+03  0.00000000000E+00 0. -1.
          6    1    1    2  502    0 -0.77324465514E+02 -0.36451107942E+01 -0.11784250495E+03  0.22317754317E+03  0.17300000000E+03 0.  1.
         -6    1    1    2    0  501  0.77324465514E+02  0.36451107942E+01 -0.35939810285E+03  0.40631066456E+03  0.17300000000E+03 0. -1.
<mgrwt>
<rscale>  2 0.18952931E+03</rscale>
<asrwt>0</asrwt>
<pdfrwt beam="1">  1        1 0.85132986E-01 0.18952931E+03</pdfrwt>
<pdfrwt beam="2">  1       -1 0.11711354E-01 0.18952931E+03</pdfrwt>
<totfact> 0.18590189E+03</totfact>
</mgrwt>
</event>
<event>
 4    3  0.7748294E-001  0.1785436E+03  0.7546771E-02  0.1169220E+00
         -2   -1    0    0    0  501 -0.00000000000E+00  0.00000000000E+00  0.52012204930E+02  0.52012204930E+02  0.00000000000E+00 0.  1.
          2   -1    0    0  502    0  0.00000000000E+00 -0.00000000000E+00 -0.65128044767E+03  0.65128044767E+03  0.00000000000E+00 0. -1.
          6    1    1    2  502    0  0.19081167694E+02 -0.39808785341E+02 -0.21426004222E+03  0.27889997498E+03  0.17300000000E+03 0.  1.
         -6    1    1    2    0  501 -0.19081167694E+02  0.39808785341E+02 -0.38500820052E+03  0.42439267762E+03  0.17300000000E+03 0. -1.
<mgrwt>
<rscale>  2 0.17854364E+03</rscale>
<asrwt>0</asrwt>
<pdfrwt beam="1">  1        2 0.10019700E+00 0.17854364E+03</pdfrwt>
<pdfrwt beam="2">  1       -2 0.80018770E-02 0.17854364E+03</pdfrwt>
<totfact> 0.42489811E+03</totfact>
</mgrwt>
</event>
<event>
 4    3  0.7748294E-001  0.1749858E+03  0.7546771E-02  0.1172746E+00
          2   -1    0    0  502    0  0.00000000000E+00  0.00000000000E+00  0.42421438285E+03  0.42421438285E+03  0.00000000000E+00 0. -1.
         -2   -1    0    0    0  501 -0.00000000000E+00 -0.00000000000E+00 -0.80940165868E+02  0.80940165868E+02  0.00000000000E+00 0.  1.
          6    1    1    2  502    0  0.25346218118E+02 -0.69712696109E+01  0.25472823501E+03  0.30904126437E+03  0.17300000000E+03 0. -1.
         -6    1    1    2    0  501 -0.25346218118E+02  0.69712696109E+01  0.88545981968E+02  0.19611328434E+03  0.17300000000E+03 0.  1.
<mgrwt>
<rscale>  2 0.17498580E+03</rscale>
<asrwt>0</asrwt>
<pdfrwt beam="1">  1        2 0.65263750E-01 0.17498580E+03</pdfrwt>
<pdfrwt beam="2">  1       -2 0.12452333E-01 0.17498580E+03</pdfrwt>
<totfact> 0.34125151E+03</totfact>
</mgrwt>
</event>
<event>
 4    3  0.7748294E-001  0.2608111E+03  0.7546771E-02  0.1106657E+00
         -2   -1    0    0    0  501 -0.00000000000E+00  0.00000000000E+00  0.51214078194E+02  0.51214078194E+02  0.00000000000E+00 0.  1.
          2   -1    0    0  502    0  0.00000000000E+00 -0.00000000000E+00 -0.14047259428E+04  0.14047259428E+04  0.00000000000E+00 0. -1.
          6    1    1    2  502    0 -0.12656473841E+03  0.14857596397E+03 -0.84666906179E+03  0.88592942737E+03  0.17300000000E+03 0. -1.
         -6    1    1    2    0  501  0.12656473841E+03 -0.14857596397E+03 -0.50684280280E+03  0.57001059361E+03  0.17300000000E+03 0.  1.
<mgrwt>
<rscale>  2 0.26081114E+03</rscale>
<asrwt>0</asrwt>
<pdfrwt beam="1">  1        2 0.21611167E+00 0.26081114E+03</pdfrwt>
<pdfrwt beam="2">  1       -2 0.78790893E-02 0.26081114E+03</pdfrwt>
<totfact> 0.14895420E+03</totfact>
</mgrwt>
</event>
<event>
 4    3  0.7748294E-001  0.1981806E+03  0.7546771E-02  0.1151283E+00
         -2   -1    0    0    0  501 -0.00000000000E+00  0.00000000000E+00  0.48773089748E+03  0.48773089748E+03  0.00000000000E+00 0.  1.
          2   -1    0    0  502    0  0.00000000000E+00 -0.00000000000E+00 -0.83998769780E+02  0.83998769780E+02  0.00000000000E+00 0. -1.
          6    1    1    2  502    0  0.91338019924E+01  0.96245209561E+02  0.25998155899E+03  0.32690362145E+03  0.17300000000E+03 0.  1.
         -6    1    1    2    0  501 -0.91338019924E+01 -0.96245209561E+02  0.14375056871E+03  0.24482604581E+03  0.17300000000E+03 0. -1.
<mgrwt>
<rscale>  2 0.19818064E+03</rscale>
<asrwt>0</asrwt>
<pdfrwt beam="1">  1        2 0.12922888E-01 0.19818064E+03</pdfrwt>
<pdfrwt beam="2">  1       -2 0.75035521E-01 0.19818064E+03</pdfrwt>
<totfact> 0.76017818E+02</totfact>
</mgrwt>
</event>
<event>
 4    3  0.7748294E-001  0.1954255E+03  0.7546771E-02  0.1153657E+00
          2   -1    0    0  502    0  0.00000000000E+00  0.00000000000E+00  0.14159157505E+04  0.14159157505E+04  0.00000000000E+00 0.  1.
         -2   -1    0    0    0  501 -0.00000000000E+00 -0.00000000000E+00 -0.37380927890E+02  0.37380927890E+02  0.00000000000E+00 0. -1.
          6    1    1    2  502    0  0.76165078513E+02  0.49608703208E+02  0.30583697471E+03  0.36294269205E+03  0.17300000000E+03 0. -1.
         -6    1    1    2    0  501 -0.76165078513E+02 -0.49608703208E+02  0.10726978479E+04  0.10903539863E+04  0.17300000000E+03 0.  1.
<mgrwt>
<rscale>  2 0.19542554E+03</rscale>
<asrwt>0</asrwt>
<pdfrwt beam="1">  1        2 0.21783315E+00 0.19542554E+03</pdfrwt>
<pdfrwt beam="2">  1       -2 0.57509131E-02 0.19542554E+03</pdfrwt>
<totfact> 0.23925384E+03</totfact>
</mgrwt>
</event>
<event>
 4    3  0.7748294E-001  0.2413419E+03  0.7546771E-02  0.1118902E+00
         -2   -1    0    0    0  501 -0.00000000000E+00  0.00000000000E+00  0.18587362793E+03  0.18587362793E+03  0.00000000000E+00 0.  1.
          2   -1    0    0  502    0  0.00000000000E+00 -0.00000000000E+00 -0.31657302632E+03  0.31657302632E+03  0.00000000000E+00 0. -1.
          6    1    1    2  502    0  0.13583447740E+03 -0.99327319553E+02 -0.90647097160E+02  0.25780383605E+03  0.17300000000E+03 0.  1.
         -6    1    1    2    0  501 -0.13583447740E+03  0.99327319553E+02 -0.40052301232E+02  0.24464281819E+03  0.17300000000E+03 0. -1.
<mgrwt>
<rscale>  2 0.24134192E+03</rscale>
<asrwt>0</asrwt>
<pdfrwt beam="1">  1        2 0.48703542E-01 0.24134192E+03</pdfrwt>
<pdfrwt beam="2">  1       -2 0.28595943E-01 0.24134192E+03</pdfrwt>
<totfact> 0.11496590E+03</totfact>
</mgrwt>
</event>
<event>
 4    3  0.7748294E-001  0.2668474E+03  0.7546771E-02  0.1103098E+00
          2   -1    0    0  502    0  0.00000000000E+00  0.00000000000E+00  0.14473004688E+04  0.14473004688E+04  0.00000000000E+00 0. -1.
         -2   -1    0    0    0  501 -0.00000000000E+00 -0.00000000000E+00 -0.10140540544E+03  0.10140540544E+03  0.00000000000E+00 0.  1.
          6    1    1    2  502    0 -0.16505030039E+03 -0.11847762151E+03  0.12285511731E+04  0.12571974918E+04  0.17300000000E+03 0. -1.
         -6    1    1    2    0  501  0.16505030039E+03  0.11847762151E+03  0.11734389028E+03  0.29150838246E+03  0.17300000000E+03 0.  1.
<mgrwt>
<rscale>  2 0.26684743E+03</rscale>
<asrwt>0</asrwt>
<pdfrwt beam="1">  1        2 0.22266160E+00 0.26684743E+03</pdfrwt>
<pdfrwt beam="2">  1       -2 0.15600833E-01 0.26684743E+03</pdfrwt>
<totfact> 0.46949512E+02</totfact>
</mgrwt>
</event>
<event>
 4    3  0.7748294E-001  0.2439857E+03  0.7546771E-02  0.1117166E+00
          2   -1    0    0  502    0  0.00000000000E+00  0.00000000000E+00  0.73727647715E+03  0.73727647715E+03  0.00000000000E+00 0. -1.
         -2   -1    0    0    0  501 -0.00000000000E+00 -0.00000000000E+00 -0.12253743259E+03  0.12253743259E+03  0.00000000000E+00 0.  1.
          6    1    1    2  502    0  0.76566891544E+02  0.15406988414E+03  0.56293281789E+02  0.25039559033E+03  0.17300000000E+03 0.  1.
         -6    1    1    2    0  501 -0.76566891544E+02 -0.15406988414E+03  0.55844576277E+03  0.60941831941E+03  0.17300000000E+03 0. -1.
<mgrwt>
<rscale>  2 0.24398569E+03</rscale>
<asrwt>0</asrwt>
<pdfrwt beam="1">  1        2 0.11342715E+00 0.24398569E+03</pdfrwt>
<pdfrwt beam="2">  1       -2 0.18851913E-01 0.24398569E+03</pdfrwt>
<totfact> 0.91786740E+02</totfact>
</mgrwt>
</event>
<event>
 4    3  0.7748294E-001  0.2218991E+03  0.7546771E-02  0.1132475E+00
          2   -1    0    0  502    0  0.00000000000E+00  0.00000000000E+00  0.13880554743E+03  0.13880554743E+03  0.00000000000E+00 0.  1.
         -2   -1    0    0    0  501 -0.00000000000E+00 -0.00000000000E+00 -0.37637674281E+03  0.37637674281E+03  0.00000000000E+00 0. -1.
          6    1    1    2  502    0 -0.13200678655E+03  0.43410104602E+02 -0.57017738900E+02  0.22910751063E+03  0.17300000000E+03 0. -1.
         -6    1    1    2    0  501  0.13200678655E+03 -0.43410104602E+02 -0.18055345648E+03  0.28607477960E+03  0.17300000000E+03 0.  1.
<mgrwt>
<rscale>  2 0.22189914E+03</rscale>
<asrwt>0</asrwt>
<pdfrwt beam="1">  1        2 0.21354700E-01 0.22189914E+03</pdfrwt>
<pdfrwt beam="2">  1       -2 0.57904114E-01 0.22189914E+03</pdfrwt>
<totfact> 0.73173228E+02</totfact>
</mgrwt>
</event>
<event>
 4    3  0.7748294E-001  0.2176438E+03  0.7546771E-02  0.1135652E+00
          1   -1    0    0  502    0  0.00000000000E+00  0.00000000000E+00  0.57496003099E+03  0.57496003099E+03  0.00000000000E+00 0. -1.
         -1   -1    0    0    0  501 -0.00000000000E+00 -0.00000000000E+00 -0.14369522114E+03  0.14369522114E+03  0.00000000000E+00 0.  1.
          6    1    1    2  502    0 -0.10387788263E+03 -0.81542758932E+02 -0.19077405674E+02  0.21847833632E+03  0.17300000000E+03 0.  1.
         -6    1    1    2    0  501  0.10387788263E+03  0.81542758932E+02  0.45034221553E+03  0.50017691582E+03  0.17300000000E+03 0. -1.
<mgrwt>
<rscale>  2 0.21764383E+03</rscale>
<asrwt>0</asrwt>
<pdfrwt beam="1">  1        1 0.88455388E-01 0.21764383E+03</pdfrwt>
<pdfrwt beam="2">  1       -1 0.22106957E-01 0.21764383E+03</pdfrwt>
<totfact> 0.64192583E+02</totfact>
</mgrwt>
</event>
<event>
 4    3  0.7748294E-001  0.2701917E+03  0.7546771E-02  0.1101170E+00
         -2   -1    0    0    0  501 -0.00000000000E+00  0.00000000000E+00  0.38966189125E+02  0.38966189125E+02  0.00000000000E+00 0.  1.
          2   -1    0    0  502    0  0.00000000000E+00 -0.00000000000E+00 -0.23278145445E+04  0.23278145445E+04  0.00000000000E+00 0. -1.
          6    1    1    2  502    0 -0.20621311902E+03  0.23466695430E+02 -0.16672144388E+04  0.16889664062E+04  0.17300000000E+03 0. -1.
         -6    1    1    2    0  501  0.20621311902E+03 -0.23466695430E+02 -0.62163391653E+03  0.67781432741E+03  0.17300000000E+03 0.  1.
<mgrwt>
<rscale>  2 0.27019167E+03</rscale>
<asrwt>0</asrwt>
<pdfrwt beam="1">  1        2 0.35812535E+00 0.27019167E+03</pdfrwt>
<pdfrwt beam="2">  1       -2 0.59947978E-02 0.27019167E+03</pdfrwt>
<totfact> 0.73748218E+02</totfact>
</mgrwt>
</event>
<event>
 4    3  0.7748294E-001  0.3195741E+03  0.7546771E-02  0.1075845E+00
         -2   -1    0    0    0  501 -0.00000000000E+00  0.00000000000E+00  0.10257747485E+03  0.10257747485E+03  0.00000000000E+00 0. -1.
          2   -1    0    0  502    0  0.00000000000E+00 -0.00000000000E+00 -0.12638706075E+04  0.12638706075E+04  0.00000000000E+00 0.  1.
          6    1    1    2  502    0 -0.12411773833E+03  0.23831359160E+03 -0.26588118533E+03  0.41571671318E+03  0.17300000000E+03 0. -1.
         -6    1    1    2    0  501  0.12411773833E+03 -0.23831359160E+03 -0.89541194730E+03  0.95073136914E+03  0.17300000000E+03 0.  1.
<mgrwt>
<rscale>  2 0.31957406E+03</rscale>
<asrwt>0</asrwt>
<pdfrwt beam="1">  1        2 0.19444162E+00 0.31957406E+03</pdfrwt>
<pdfrwt beam="2">  1       -2 0.15781151E-01 0.31957406E+03</pdfrwt>
<totfact> 0.57781409E+02</totfact>
</mgrwt>
</event>
<event>
 4    3  0.7748294E-001  0.1815823E+03  0.7546771E-02  0.1166280E+00
         -1   -1    0    0    0  501 -0.00000000000E+00  0.00000000000E+00  0.16934570176E+02  0.16934570176E+02  0.00000000000E+00 0.  1.
          1   -1    0    0  502    0  0.00000000000E+00 -0.00000000000E+00 -0.20065725533E+04  0.20065725533E+04  0.00000000000E+00 0. -1.
          6    1    1    2  502    0 -0.11097964438E+02 -0.54036795083E+02 -0.82053564311E+03  0.84038734025E+03  0.17300000000E+03 0.  1.
         -6    1    1    2    0  501  0.11097964438E+02  0.54036795083E+02 -0.11691023400E+04  0.11831197832E+04  0.17300000000E+03 0. -1.
<mgrwt>
<rscale>  2 0.18158232E+03</rscale>
<asrwt>0</asrwt>
<pdfrwt beam="1">  1        1 0.30870330E+00 0.18158232E+03</pdfrwt>
<pdfrwt beam="2">  1       -1 0.26053199E-02 0.18158232E+03</pdfrwt>
<totfact> 0.15596062E+03</totfact>
</mgrwt>
</event>
<event>
 4    3  0.7748294E-001  0.1849383E+03  0.7546771E-02  0.1163108E+00
          1   -1    0    0  502    0  0.00000000000E+00  0.00000000000E+00  0.19344472795E+04  0.19344472795E+04  0.00000000000E+00 0. -1.
         -1   -1    0    0    0  501 -0.00000000000E+00 -0.00000000000E+00 -0.18438371743E+02  0.18438371743E+02  0.00000000000E+00 0.  1.
          6    1    1    2  502    0  0.46360246837E+02  0.46085650445E+02  0.76005285196E+03  0.78222918472E+03  0.17300000000E+03 0. -1.
         -6    1    1    2    0  501 -0.46360246837E+02 -0.46085650445E+02  0.11559560558E+04  0.11706564665E+04  0.17300000000E+03 0. -1.
<mgrwt>
<rscale>  2 0.18493826E+03</rscale>
<asrwt>0</asrwt>
<pdfrwt beam="1">  1        1 0.29760711E+00 0.18493826E+03</pdfrwt>
<pdfrwt beam="2">  1       -1 0.28366741E-02 0.18493826E+03</pdfrwt>
<totfact> 0.15316003E+03</totfact>
</mgrwt>
</event>
<event>
 4    3  0.7748294E-001  0.1910183E+03  0.7546771E-02  0.1157546E+00
         -2   -1    0    0    0  501 -0.00000000000E+00  0.00000000000E+00  0.93727269520E+02  0.93727269520E+02  0.00000000000E+00 0. -1.
          2   -1    0    0  502    0  0.00000000000E+00 -0.00000000000E+00 -0.43023566448E+03  0.43023566448E+03  0.00000000000E+00 0.  1.
          6    1    1    2  502    0 -0.77582262579E+02  0.23237368681E+02 -0.87443150095E+02  0.21008162049E+03  0.17300000000E+03 0. -1.
         -6    1    1    2    0  501  0.77582262579E+02 -0.23237368681E+02 -0.24906524487E+03  0.31388131351E+03  0.17300000000E+03 0.  1.
<mgrwt>
<rscale>  2 0.19101828E+03</rscale>
<asrwt>0</asrwt>
<pdfrwt beam="1">  1        2 0.66190102E-01 0.19101828E+03</pdfrwt>
<pdfrwt beam="2">  1       -2 0.14419580E-01 0.19101828E+03</pdfrwt>
<totfact> 0.26560976E+03</totfact>
</mgrwt>
</event>
<event>
 4    3  0.7748294E-001  0.2164214E+03  0.7546771E-02  0.1136579E+00
          2   -1    0    0  502    0  0.00000000000E+00  0.00000000000E+00  0.11168505904E+04  0.11168505904E+04  0.00000000000E+00 0. -1.
         -2   -1    0    0    0  501 -0.00000000000E+00 -0.00000000000E+00 -0.44934918172E+02  0.44934918172E+02  0.00000000000E+00 0.  1.
          6    1    1    2  502    0  0.10823911296E+03  0.72066148301E+02  0.38593502381E+03  0.44247494608E+03  0.17300000000E+03 0.  1.
         -6    1    1    2    0  501 -0.10823911296E+03 -0.72066148301E+02  0.68598064838E+03  0.71931056245E+03  0.17300000000E+03 0. -1.
<mgrwt>
<rscale>  2 0.21642143E+03</rscale>
<asrwt>0</asrwt>
<pdfrwt beam="1">  1        2 0.17182315E+00 0.21642143E+03</pdfrwt>
<pdfrwt beam="2">  1       -2 0.69130652E-02 0.21642143E+03</pdfrwt>
<totfact> 0.26445832E+03</totfact>
</mgrwt>
</event>
<event>
 4    3  0.7748294E-001  0.2107959E+03  0.7546771E-02  0.1140937E+00
         -2   -1    0    0    0  501 -0.00000000000E+00  0.00000000000E+00  0.14523120035E+03  0.14523120035E+03  0.00000000000E+00 0.  1.
          2   -1    0    0  502    0  0.00000000000E+00 -0.00000000000E+00 -0.30596798986E+03  0.30596798986E+03  0.00000000000E+00 0. -1.
          6    1    1    2  502    0 -0.10563128911E+03 -0.57861475040E+02 -0.81530403823E+02  0.22601355331E+03  0.17300000000E+03 0. -1.
         -6    1    1    2    0  501  0.10563128911E+03  0.57861475040E+02 -0.79206385682E+02  0.22518563690E+03  0.17300000000E+03 0.  1.
<mgrwt>
<rscale>  2 0.21079592E+03</rscale>
<asrwt>0</asrwt>
<pdfrwt beam="1">  1        2 0.47071998E-01 0.21079592E+03</pdfrwt>
<pdfrwt beam="2">  1       -2 0.22343262E-01 0.21079592E+03</pdfrwt>
<totfact> 0.18399198E+03</totfact>
</mgrwt>
</event>
<event>
 4    3  0.7748294E-001  0.2892983E+03  0.7546771E-02  0.1090716E+00
          1   -1    0    0  502    0  0.00000000000E+00  0.00000000000E+00  0.28995675645E+03  0.28995675645E+03  0.00000000000E+00 0.  1.
         -1   -1    0    0    0  501 -0.00000000000E+00 -0.00000000000E+00 -0.37328654564E+03  0.37328654564E+03  0.00000000000E+00 0. -1.
          6    1    1    2  502    0  0.11687487871E+03  0.20026169391E+03 -0.19957979036E+03  0.35146205491E+03  0.17300000000E+03 0. -1.
         -6    1    1    2    0  501 -0.11687487871E+03 -0.20026169391E+03  0.11625000117E+03  0.31178124718E+03  0.17300000000E+03 0. -1.
<mgrwt>
<rscale>  2 0.28929826E+03</rscale>
<asrwt>0</asrwt>
<pdfrwt beam="1">  1        1 0.44608732E-01 0.28929826E+03</pdfrwt>
<pdfrwt beam="2">  1       -1 0.57428699E-01 0.28929826E+03</pdfrwt>
<totfact> 0.29094575E+02</totfact>
</mgrwt>
</event>
<event>
 4    3  0.7748294E-001  0.1919495E+03  0.7546771E-02  0.1156715E+00
          1   -1    0    0  502    0  0.00000000000E+00  0.00000000000E+00  0.12172264141E+04  0.12172264141E+04  0.00000000000E+00 0. -1.
         -1   -1    0    0    0  501 -0.00000000000E+00 -0.00000000000E+00 -0.31663106015E+02  0.31663106015E+02  0.00000000000E+00 0.  1.
          6    1    1    2  502    0  0.70999998413E+02 -0.43296735027E+02  0.72379527376E+03  0.74881520107E+03  0.17300000000E+03 0. -1.
         -6    1    1    2    0  501 -0.70999998413E+02  0.43296735027E+02  0.46176803428E+03  0.50007431899E+03  0.17300000000E+03 0.  1.
<mgrwt>
<rscale>  2 0.19194949E+03</rscale>
<asrwt>0</asrwt>
<pdfrwt beam="1">  1        1 0.18726557E+00 0.19194949E+03</pdfrwt>
<pdfrwt beam="2">  1       -1 0.48712480E-02 0.19194949E+03</pdfrwt>
<totfact> 0.20348362E+03</totfact>
</mgrwt>
</event>
<event>
 4    3  0.7748294E-001  0.1828766E+03  0.7546771E-02  0.1165048E+00
          2   -1    0    0  502    0  0.00000000000E+00  0.00000000000E+00  0.13894129617E+03  0.13894129617E+03  0.00000000000E+00 0.  1.
         -2   -1    0    0    0  501 -0.00000000000E+00 -0.00000000000E+00 -0.24639800753E+03  0.24639800753E+03  0.00000000000E+00 0. -1.
          6    1    1    2  502    0  0.10895313538E+02  0.58276350044E+02 -0.24441540471E+02  0.18450265508E+03  0.17300000000E+03 0.  1.
         -6    1    1    2    0  501 -0.10895313538E+02 -0.58276350044E+02 -0.83015170883E+02  0.20083664862E+03  0.17300000000E+03 0.  1.
<mgrwt>
<rscale>  2 0.18287657E+03</rscale>
<asrwt>0</asrwt>
<pdfrwt beam="1">  1        2 0.21375584E-01 0.18287657E+03</pdfrwt>
<pdfrwt beam="2">  1       -2 0.37907385E-01 0.18287657E+03</pdfrwt>
<totfact> 0.16740870E+03</totfact>
</mgrwt>
</event>
<event>
 4    3  0.7748294E-001  0.1877130E+03  0.7546771E-02  0.1160540E+00
          1   -1    0    0  502    0  0.00000000000E+00  0.00000000000E+00  0.51782944977E+03  0.51782944977E+03  0.00000000000E+00 0. -1.
         -1   -1    0    0    0  501 -0.00000000000E+00 -0.00000000000E+00 -0.70129195440E+02  0.70129195440E+02  0.00000000000E+00 0.  1.
          6    1    1    2  502    0 -0.44964150332E+01 -0.72711328979E+02  0.27451955239E+03  0.33256148267E+03  0.17300000000E+03 0. -1.
         -6    1    1    2    0  501  0.44964150332E+01  0.72711328979E+02  0.17318070194E+03  0.25539716254E+03  0.17300000000E+03 0.  1.
<mgrwt>
<rscale>  2 0.18771296E+03</rscale>
<asrwt>0</asrwt>
<pdfrwt beam="1">  1        1 0.79666067E-01 0.18771296E+03</pdfrwt>
<pdfrwt beam="2">  1       -1 0.10789107E-01 0.18771296E+03</pdfrwt>
<totfact> 0.23064981E+03</totfact>
</mgrwt>
</event>
<event>
 4    3  0.7748294E-001  0.2545879E+03  0.7546771E-02  0.1110439E+00
         -2   -1    0    0    0  501 -0.00000000000E+00  0.00000000000E+00  0.71200349876E+02  0.71200349876E+02  0.00000000000E+00 0.  1.
          2   -1    0    0  502    0  0.00000000000E+00 -0.00000000000E+00 -0.95569885172E+03  0.95569885172E+03  0.00000000000E+00 0. -1.
          6    1    1    2  502    0  0.18444473538E+03 -0.29429885846E+02 -0.33036412189E+03  0.41707964662E+03  0.17300000000E+03 0. -1.
         -6    1    1    2    0  501 -0.18444473538E+03  0.29429885846E+02 -0.55413437995E+03  0.60981955498E+03  0.17300000000E+03 0. -1.
<mgrwt>
<rscale>  2 0.25458786E+03</rscale>
<asrwt>0</asrwt>
<pdfrwt beam="1">  1        2 0.14703059E+00 0.25458786E+03</pdfrwt>
<pdfrwt beam="2">  1       -2 0.10953900E-01 0.25458786E+03</pdfrwt>
<totfact> 0.16034862E+03</totfact>
</mgrwt>
</event>
<event>
 4    3  0.7748294E-001  0.2103015E+03  0.7546771E-02  0.1141327E+00
         -2   -1    0    0    0  501 -0.00000000000E+00  0.00000000000E+00  0.57198008247E+02  0.57198008247E+02  0.00000000000E+00 0.  1.
          2   -1    0    0  502    0  0.00000000000E+00 -0.00000000000E+00 -0.78127648875E+03  0.78127648875E+03  0.00000000000E+00 0. -1.
          6    1    1    2  502    0  0.10322767132E+03 -0.60346994061E+02 -0.40460872539E+03  0.45599882947E+03  0.17300000000E+03 0. -1.
         -6    1    1    2    0  501 -0.10322767132E+03  0.60346994061E+02 -0.31946975511E+03  0.38247566753E+03  0.17300000000E+03 0.  1.
<mgrwt>
<rscale>  2 0.21030148E+03</rscale>
<asrwt>0</asrwt>
<pdfrwt beam="1">  1        2 0.12019639E+00 0.21030148E+03</pdfrwt>
<pdfrwt beam="2">  1       -2 0.87996934E-02 0.21030148E+03</pdfrwt>
<totfact> 0.29518238E+03</totfact>
</mgrwt>
</event>
<event>
 4    3  0.7748294E-001  0.1875212E+03  0.7546771E-02  0.1160716E+00
          2   -1    0    0  502    0  0.00000000000E+00  0.00000000000E+00  0.58089630575E+02  0.58089630575E+02  0.00000000000E+00 0. -1.
         -2   -1    0    0    0  501 -0.00000000000E+00 -0.00000000000E+00 -0.73630145221E+03  0.73630145221E+03  0.00000000000E+00 0.  1.
          6    1    1    2  502    0  0.35253852320E+01  0.72268787514E+02 -0.50661629716E+03  0.54020762540E+03  0.17300000000E+03 0.  1.
         -6    1    1    2    0  501 -0.35253852320E+01 -0.72268787514E+02 -0.17159552448E+03  0.25418345739E+03  0.17300000000E+03 0. -1.
<mgrwt>
<rscale>  2 0.18752121E+03</rscale>
<asrwt>0</asrwt>
<pdfrwt beam="1">  1        2 0.89368663E-02 0.18752121E+03</pdfrwt>
<pdfrwt beam="2">  1       -2 0.11327715E+00 0.18752121E+03</pdfrwt>
<totfact> 0.46816386E+02</totfact>
</mgrwt>
</event>
<event>
 4    3  0.7748294E-001  0.1779117E+03  0.7546771E-02  0.1169840E+00
          1   -1    0    0  502    0  0.00000000000E+00  0.00000000000E+00  0.27355456565E+03  0.27355456565E+03  0.00000000000E+00 0. -1.
         -1   -1    0    0    0  501 -0.00000000000E+00 -0.00000000000E+00 -0.12354625398E+03  0.12354625398E+03  0.00000000000E+00 0.  1.
          6    1    1    2  502    0 -0.30770253494E+02 -0.27870239179E+02  0.24994389958E+02  0.17965878287E+03  0.17300000000E+03 0.  1.
         -6    1    1    2    0  501  0.30770253494E+02  0.27870239179E+02  0.12501392171E+03  0.21744203676E+03  0.17300000000E+03 0. -1.
<mgrwt>
<rscale>  2 0.17791166E+03</rscale>
<asrwt>0</asrwt>
<pdfrwt beam="1">  1        1 0.42085318E-01 0.17791166E+03</pdfrwt>
<pdfrwt beam="2">  1       -1 0.19007116E-01 0.17791166E+03</pdfrwt>
<totfact> 0.21275162E+03</totfact>
</mgrwt>
</event>
<event>
 4    3  0.7748294E-001  0.1742239E+03  0.7546771E-02  0.1173513E+00
         -2   -1    0    0    0  501 -0.00000000000E+00  0.00000000000E+00  0.98499783774E+02  0.98499783774E+02  0.00000000000E+00 0. -1.
          2   -1    0    0  502    0  0.00000000000E+00 -0.00000000000E+00 -0.41686279332E+03  0.41686279332E+03  0.00000000000E+00 0.  1.
          6    1    1    2  502    0 -0.18883731543E+02  0.82691831313E+01 -0.29076486196E+03  0.33896634001E+03  0.17300000000E+03 0.  1.
         -6    1    1    2    0  501  0.18883731543E+02 -0.82691831313E+01 -0.27598147579E+02  0.17639623708E+03  0.17300000000E+03 0. -1.
<mgrwt>
<rscale>  2 0.17422392E+03</rscale>
<asrwt>0</asrwt>
<pdfrwt beam="1">  1        2 0.64132737E-01 0.17422392E+03</pdfrwt>
<pdfrwt beam="2">  1       -2 0.15153813E-01 0.17422392E+03</pdfrwt>
<totfact> 0.25257019E+03</totfact>
</mgrwt>
</event>
<event>
 4    3  0.7748294E-001  0.2200825E+03  0.7546771E-02  0.1133822E+00
         -2   -1    0    0    0  501 -0.00000000000E+00  0.00000000000E+00  0.12340683485E+03  0.12340683485E+03  0.00000000000E+00 0. -1.
          2   -1    0    0  502    0  0.00000000000E+00 -0.00000000000E+00 -0.10750434444E+04  0.10750434444E+04  0.00000000000E+00 0.  1.
          6    1    1    2  502    0  0.13255352537E+03  0.30608526196E+02  0.16498313498E+01  0.22008871145E+03  0.17300000000E+03 0. -1.
         -6    1    1    2    0  501 -0.13255352537E+03 -0.30608526196E+02 -0.95328644094E+03  0.97836156785E+03  0.17300000000E+03 0.  1.
<mgrwt>
<rscale>  2 0.22008253E+03</rscale>
<asrwt>0</asrwt>
<pdfrwt beam="1">  1        2 0.16539130E+00 0.22008253E+03</pdfrwt>
<pdfrwt beam="2">  1       -2 0.18985667E-01 0.22008253E+03</pdfrwt>
<totfact> 0.54866448E+02</totfact>
</mgrwt>
</event>
<event>
 4    3  0.7748294E-001  0.1949102E+03  0.7546771E-02  0.1154106E+00
         -2   -1    0    0    0  501 -0.00000000000E+00  0.00000000000E+00  0.40756016742E+02  0.40756016742E+02  0.00000000000E+00 0. -1.
          2   -1    0    0  502    0  0.00000000000E+00 -0.00000000000E+00 -0.96224995667E+03  0.96224995667E+03  0.00000000000E+00 0.  1.
          6    1    1    2  502    0 -0.89328167479E+02 -0.90262357327E+01 -0.37202297664E+03  0.41998939223E+03  0.17300000000E+03 0. -1.
         -6    1    1    2    0  501  0.89328167479E+02  0.90262357327E+01 -0.54947096329E+03  0.58301658118E+03  0.17300000000E+03 0.  1.
<mgrwt>
<rscale>  2 0.19491022E+03</rscale>
<asrwt>0</asrwt>
<pdfrwt beam="1">  1        2 0.14803845E+00 0.19491022E+03</pdfrwt>
<pdfrwt beam="2">  1       -2 0.62701567E-02 0.19491022E+03</pdfrwt>
<totfact> 0.37954672E+03</totfact>
</mgrwt>
</event>
<event>
 4    3  0.7748294E-001  0.1845937E+03  0.7546771E-02  0.1163430E+00
          1   -1    0    0  502    0  0.00000000000E+00  0.00000000000E+00  0.70743512074E+03  0.70743512074E+03  0.00000000000E+00 0.  1.
         -1   -1    0    0    0  501 -0.00000000000E+00 -0.00000000000E+00 -0.58746020671E+02  0.58746020671E+02  0.00000000000E+00 0. -1.
          6    1    1    2  502    0  0.63048154589E+02  0.13067273849E+02  0.48691473055E+03  0.52073100375E+03  0.17300000000E+03 0.  1.
         -6    1    1    2    0  501 -0.63048154589E+02 -0.13067273849E+02  0.16177436952E+03  0.24545013766E+03  0.17300000000E+03 0.  1.
<mgrwt>
<rscale>  2 0.18459367E+03</rscale>
<asrwt>0</asrwt>
<pdfrwt beam="1">  1        1 0.10883617E+00 0.18459367E+03</pdfrwt>
<pdfrwt beam="2">  1       -1 0.90378498E-02 0.18459367E+03</pdfrwt>
<totfact> 0.19659187E+03</totfact>
</mgrwt>
</event>
<event>
 4    3  0.7748294E-001  0.2210185E+03  0.7546771E-02  0.1133126E+00
          1   -1    0    0  502    0  0.00000000000E+00  0.00000000000E+00  0.10214479713E+04  0.10214479713E+04  0.00000000000E+00 0. -1.
         -1   -1    0    0    0  501 -0.00000000000E+00 -0.00000000000E+00 -0.53544411180E+02  0.53544411180E+02  0.00000000000E+00 0.  1.
          6    1    1    2  502    0 -0.92738715625E+01  0.13723767498E+03  0.65964384362E+03  0.69568612503E+03  0.17300000000E+03 0.  1.
         -6    1    1    2    0  501  0.92738715625E+01 -0.13723767498E+03  0.30825971651E+03  0.37930625746E+03  0.17300000000E+03 0.  1.
<mgrwt>
<rscale>  2 0.22101852E+03</rscale>
<asrwt>0</asrwt>
<pdfrwt beam="1">  1        1 0.15714583E+00 0.22101852E+03</pdfrwt>
<pdfrwt beam="2">  1       -1 0.82376025E-02 0.22101852E+03</pdfrwt>
<totfact> 0.12700593E+03</totfact>
</mgrwt>
</event>
<event>
 4    3  0.7748294E-001  0.1931775E+03  0.7546771E-02  0.1155626E+00
         -2   -1    0    0    0  501 -0.00000000000E+00  0.00000000000E+00  0.10552706674E+02  0.10552706674E+02  0.00000000000E+00 0. -1.
          2   -1    0    0  502    0  0.00000000000E+00 -0.00000000000E+00 -0.35414479028E+04  0.35414479028E+04  0.00000000000E+00 0.  1.
          6    1    1    2  502    0  0.10279801839E+02  0.85339711119E+02 -0.16977377639E+04  0.17086927914E+04  0.17300000000E+03 0.  1.
         -6    1    1    2    0  501 -0.10279801839E+02 -0.85339711119E+02 -0.18331574323E+04  0.18433078181E+04  0.17300000000E+03 0.  1.
<mgrwt>
<rscale>  2 0.19317748E+03</rscale>
<asrwt>0</asrwt>
<pdfrwt beam="1">  1        2 0.54483874E+00 0.19317748E+03</pdfrwt>
<pdfrwt beam="2">  1       -2 0.16234915E-02 0.19317748E+03</pdfrwt>
<totfact> 0.10195913E+03</totfact>
</mgrwt>
</event>
<event>
 4    3  0.7748294E-001  0.2093738E+03  0.7546771E-02  0.1142063E+00
         -1   -1    0    0    0  501 -0.00000000000E+00  0.00000000000E+00  0.31535101613E+03  0.31535101613E+03  0.00000000000E+00 0. -1.
          1   -1    0    0  502    0  0.00000000000E+00 -0.00000000000E+00 -0.14318383712E+03  0.14318383712E+03  0.00000000000E+00 0.  1.
          6    1    1    2  502    0 -0.11541899467E+03 -0.24224789124E+02  0.12522085752E+03  0.24396239033E+03  0.17300000000E+03 0. -1.
         -6    1    1    2    0  501  0.11541899467E+03  0.24224789124E+02  0.46946321489E+02  0.21457246291E+03  0.17300000000E+03 0.  1.
<mgrwt>
<rscale>  2 0.20937379E+03</rscale>
<asrwt>0</asrwt>
<pdfrwt beam="1">  1        1 0.22028283E-01 0.20937379E+03</pdfrwt>
<pdfrwt beam="2">  1       -1 0.48515541E-01 0.20937379E+03</pdfrwt>
<totfact> 0.97602546E+02</totfact>
</mgrwt>
</event>
<event>
 4    3  0.7748294E-001  0.2085502E+03  0.7546771E-02  0.1142719E+00
         -2   -1    0    0    0  501 -0.00000000000E+00  0.00000000000E+00  0.13959656180E+04  0.13959656180E+04  0.00000000000E+00 0.  1.
          2   -1    0    0  502    0  0.00000000000E+00 -0.00000000000E+00 -0.46695911139E+02  0.46695911139E+02  0.00000000000E+00 0. -1.
          6    1    1    2  502    0  0.51688312213E+02  0.10436724931E+03  0.25851897023E+03  0.33215246848E+03  0.17300000000E+03 0. -1.
         -6    1    1    2    0  501 -0.51688312213E+02 -0.10436724931E+03  0.10907507367E+04  0.11105090607E+04  0.17300000000E+03 0. -1.
<mgrwt>
<rscale>  2 0.20855024E+03</rscale>
<asrwt>0</asrwt>
<pdfrwt beam="1">  1        2 0.71839874E-02 0.20855024E+03</pdfrwt>
<pdfrwt beam="2">  1       -2 0.21476391E+00 0.20855024E+03</pdfrwt>
<totfact> 0.11421285E+02</totfact>
</mgrwt>
</event>
<event>
 4    3  0.7748294E-001  0.2347085E+03  0.7546771E-02  0.1123369E+00
          2   -1    0    0  502    0  0.00000000000E+00  0.00000000000E+00  0.19060332534E+04  0.19060332534E+04  0.00000000000E+00 0. -1.
         -2   -1    0    0    0  501 -0.00000000000E+00 -0.00000000000E+00 -0.36141462931E+02  0.36141462931E+02  0.00000000000E+00 0.  1.
          6    1    1    2  502    0 -0.15809411704E+03  0.12858909407E+02  0.13695659268E+04  0.13895319101E+04  0.17300000000E+03 0. -1.
         -6    1    1    2    0  501  0.15809411704E+03 -0.12858909407E+02  0.50032586361E+03  0.55264280615E+03  0.17300000000E+03 0.  1.
<mgrwt>
<rscale>  2 0.23470855E+03</rscale>
<asrwt>0</asrwt>
<pdfrwt beam="1">  1        2 0.29323581E+00 0.23470855E+03</pdfrwt>
<pdfrwt beam="2">  1       -2 0.55602265E-02 0.23470855E+03</pdfrwt>
<totfact> 0.13898337E+03</totfact>
</mgrwt>
</event>
<event>
 4    3  0.7748294E-001  0.3185484E+03  0.7546771E-02  0.1076319E+00
         -2   -1    0    0    0  501 -0.00000000000E+00  0.00000000000E+00  0.19406543761E+03  0.19406543761E+03  0.00000000000E+00 0. -1.
          2   -1    0    0  502    0  0.00000000000E+00 -0.00000000000E+00 -0.22128254682E+04  0.22128254682E+04  0.00000000000E+00 0.  1.
          6    1    1    2  502    0 -0.12193661062E+03  0.23806627041E+03 -0.20610732392E+04  0.20855445292E+04  0.17300000000E+03 0.  1.
         -6    1    1    2    0  501  0.12193661062E+03 -0.23806627041E+03  0.42313208602E+02  0.32134637657E+03  0.17300000000E+03 0. -1.
<mgrwt>
<rscale>  2 0.31854840E+03</rscale>
<asrwt>0</asrwt>
<pdfrwt beam="1">  1        2 0.34043470E+00 0.31854840E+03</pdfrwt>
<pdfrwt beam="2">  1       -2 0.29856220E-01 0.31854840E+03</pdfrwt>
<totfact> 0.58856864E+01</totfact>
</mgrwt>
</event>
<event>
 4    3  0.7748294E-001  0.1860050E+03  0.7546771E-02  0.1162115E+00
         -2   -1    0    0    0  501 -0.00000000000E+00  0.00000000000E+00  0.51457229631E+02  0.51457229631E+02  0.00000000000E+00 0. -1.
          2   -1    0    0  502    0  0.00000000000E+00 -0.00000000000E+00 -0.74193985300E+03  0.74193985300E+03  0.00000000000E+00 0.  1.
          6    1    1    2  502    0 -0.60285337246E+02  0.32164184123E+02 -0.22375886321E+03  0.29097402890E+03  0.17300000000E+03 0. -1.
         -6    1    1    2    0  501  0.60285337246E+02 -0.32164184123E+02 -0.46672376016E+03  0.50242305374E+03  0.17300000000E+03 0.  1.
<mgrwt>
<rscale>  2 0.18600499E+03</rscale>
<asrwt>0</asrwt>
<pdfrwt beam="1">  1        2 0.11414459E+00 0.18600499E+03</pdfrwt>
<pdfrwt beam="2">  1       -2 0.79164969E-02 0.18600499E+03</pdfrwt>
<totfact> 0.37005580E+03</totfact>
</mgrwt>
</event>
<event>
 4    3  0.7748294E-001  0.1829289E+03  0.7546771E-02  0.1164998E+00
         -1   -1    0    0    0  501 -0.00000000000E+00  0.00000000000E+00  0.20799348678E+03  0.20799348678E+03  0.00000000000E+00 0. -1.
          1   -1    0    0  502    0  0.00000000000E+00 -0.00000000000E+00 -0.20953600732E+03  0.20953600732E+03  0.00000000000E+00 0.  1.
          6    1    1    2  502    0  0.48709949918E+02 -0.34078385620E+02  0.99823308645E+02  0.20839311058E+03  0.17300000000E+03 0. -1.
         -6    1    1    2    0  501 -0.48709949918E+02  0.34078385620E+02 -0.10136582919E+03  0.20913638353E+03  0.17300000000E+03 0.  1.
<mgrwt>
<rscale>  2 0.18292894E+03</rscale>
<asrwt>0</asrwt>
<pdfrwt beam="1">  1        1 0.32236309E-01 0.18292894E+03</pdfrwt>
<pdfrwt beam="2">  1       -1 0.31998998E-01 0.18292894E+03</pdfrwt>
<totfact> 0.12547553E+03</totfact>
</mgrwt>
</event>
<event>
 4    3  0.7748294E-001  0.2380597E+03  0.7546771E-02  0.1121092E+00
         -1   -1    0    0    0  501 -0.00000000000E+00  0.00000000000E+00  0.57204827139E+02  0.57204827139E+02  0.00000000000E+00 0. -1.
          1   -1    0    0  502    0  0.00000000000E+00 -0.00000000000E+00 -0.11093794534E+04  0.11093794534E+04  0.00000000000E+00 0.  1.
          6    1    1    2  502    0 -0.16316665756E+03 -0.10957784542E+02 -0.33530138373E+03  0.41121703408E+03  0.17300000000E+03 0. -1.
         -6    1    1    2    0  501  0.16316665756E+03  0.10957784542E+02 -0.71687324254E+03  0.75536724647E+03  0.17300000000E+03 0.  1.
<mgrwt>
<rscale>  2 0.23805972E+03</rscale>
<asrwt>0</asrwt>
<pdfrwt beam="1">  1        1 0.17067374E+00 0.23805972E+03</pdfrwt>
<pdfrwt beam="2">  1       -1 0.88007437E-02 0.23805972E+03</pdfrwt>
<totfact> 0.99001120E+02</totfact>
</mgrwt>
</event>
<event>
 4    3  0.7748294E-001  0.1953341E+03  0.7546771E-02  0.1153736E+00
          2   -1    0    0  502    0  0.00000000000E+00  0.00000000000E+00  0.59275862426E+03  0.59275862426E+03  0.00000000000E+00 0.  1.
         -2   -1    0    0    0  501 -0.00000000000E+00 -0.00000000000E+00 -0.67691677663E+02  0.67691677663E+02  0.00000000000E+00 0. -1.
          6    1    1    2  502    0  0.21256843845E+02  0.88173515947E+02  0.18937394283E+03  0.27206233210E+03  0.17300000000E+03 0. -1.
         -6    1    1    2    0  501 -0.21256843845E+02 -0.88173515947E+02  0.33569300376E+03  0.38838796982E+03  0.17300000000E+03 0.  1.
<mgrwt>
<rscale>  2 0.19533413E+03</rscale>
<asrwt>0</asrwt>
<pdfrwt beam="1">  1        2 0.91193631E-01 0.19533413E+03</pdfrwt>
<pdfrwt beam="2">  1       -2 0.10414105E-01 0.19533413E+03</pdfrwt>
<totfact> 0.31427375E+03</totfact>
</mgrwt>
</event>
<event>
 4    3  0.7748294E-001  0.2297350E+03  0.7546771E-02  0.1126826E+00
          1   -1    0    0  502    0  0.00000000000E+00  0.00000000000E+00  0.17812843088E+03  0.17812843088E+03  0.00000000000E+00 0. -1.
         -1   -1    0    0    0  501 -0.00000000000E+00 -0.00000000000E+00 -0.47294121905E+03  0.47294121905E+03  0.00000000000E+00 0.  1.
          6    1    1    2  502    0  0.16604011942E+02  0.15024477234E+03 -0.34635855373E+03  0.41562294519E+03  0.17300000000E+03 0.  1.
         -6    1    1    2    0  501 -0.16604011942E+02 -0.15024477234E+03  0.51545765556E+02  0.23544670474E+03  0.17300000000E+03 0. -1.
<mgrwt>
<rscale>  2 0.22973503E+03</rscale>
<asrwt>0</asrwt>
<pdfrwt beam="1">  1        1 0.27404375E-01 0.22973503E+03</pdfrwt>
<pdfrwt beam="2">  1       -1 0.72760186E-01 0.22973503E+03</pdfrwt>
<totfact> 0.33950788E+02</totfact>
</mgrwt>
</event>
<event>
 4    3  0.7748294E-001  0.1991558E+03  0.7546771E-02  0.1150453E+00
         -2   -1    0    0    0  501 -0.00000000000E+00  0.00000000000E+00  0.75607848599E+02  0.75607848599E+02  0.00000000000E+00 0.  1.
          2   -1    0    0  502    0  0.00000000000E+00 -0.00000000000E+00 -0.64049439069E+03  0.64049439069E+03  0.00000000000E+00 0. -1.
          6    1    1    2  502    0 -0.80558329178E+02 -0.56959386517E+02 -0.43475730533E+03  0.47820176772E+03  0.17300000000E+03 0. -1.
         -6    1    1    2    0  501  0.80558329178E+02  0.56959386517E+02 -0.13012923676E+03  0.23790047157E+03  0.17300000000E+03 0.  1.
<mgrwt>
<rscale>  2 0.19915576E+03</rscale>
<asrwt>0</asrwt>
<pdfrwt beam="1">  1        2 0.98537594E-01 0.19915576E+03</pdfrwt>
<pdfrwt beam="2">  1       -2 0.11631977E-01 0.19915576E+03</pdfrwt>
<totfact> 0.24080574E+03</totfact>
</mgrwt>
</event>
<event>
 4    3  0.7748294E-001  0.3090719E+03  0.7546771E-02  0.1080792E+00
         -2   -1    0    0    0  501 -0.00000000000E+00  0.00000000000E+00  0.64852701830E+03  0.64852701830E+03  0.00000000000E+00 0.  1.
          2   -1    0    0  502    0  0.00000000000E+00 -0.00000000000E+00 -0.14920635500E+03  0.14920635500E+03  0.00000000000E+00 0. -1.
          6    1    1    2  502    0 -0.23784068435E+03  0.95017071060E+02  0.20452763542E+03  0.37061703762E+03  0.17300000000E+03 0. -1.
         -6    1    1    2    0  501  0.23784068435E+03 -0.95017071060E+02  0.29479302787E+03  0.42711633568E+03  0.17300000000E+03 0.  1.
<mgrwt>
<rscale>  2 0.30907189E+03</rscale>
<asrwt>0</asrwt>
<pdfrwt beam="1">  1        2 0.22954824E-01 0.30907189E+03</pdfrwt>
<pdfrwt beam="2">  1       -2 0.99773386E-01 0.30907189E+03</pdfrwt>
<totfact> 0.20503537E+02</totfact>
</mgrwt>
</event>
<event>
 4    3  0.7748294E-001  0.1769250E+03  0.7546771E-02  0.1170813E+00
         -1   -1    0    0    0  501 -0.00000000000E+00  0.00000000000E+00  0.22027549085E+03  0.22027549085E+03  0.00000000000E+00 0. -1.
          1   -1    0    0  502    0  0.00000000000E+00 -0.00000000000E+00 -0.15557093553E+03  0.15557093553E+03  0.00000000000E+00 0.  1.
          6    1    1    2  502    0 -0.21222357397E+02 -0.30382297000E+02  0.87638648094E+02  0.19744114329E+03  0.17300000000E+03 0. -1.
         -6    1    1    2    0  501  0.21222357397E+02  0.30382297000E+02 -0.22934092777E+02  0.17840528309E+03  0.17300000000E+03 0.  1.
<mgrwt>
<rscale>  2 0.17692505E+03</rscale>
<asrwt>0</asrwt>
<pdfrwt beam="1">  1        1 0.23933990E-01 0.17692505E+03</pdfrwt>
<pdfrwt beam="2">  1       -1 0.33888537E-01 0.17692505E+03</pdfrwt>
<totfact> 0.16532258E+03</totfact>
</mgrwt>
</event>
<event>
 4    3  0.7748294E-001  0.1909539E+03  0.7546771E-02  0.1157604E+00
         -2   -1    0    0    0  501 -0.00000000000E+00  0.00000000000E+00  0.49711244890E+02  0.49711244890E+02  0.00000000000E+00 0.  1.
          2   -1    0    0  502    0  0.00000000000E+00 -0.00000000000E+00 -0.87007608744E+03  0.87007608744E+03  0.00000000000E+00 0. -1.
          6    1    1    2  502    0 -0.18920202504E+02  0.78590128431E+02 -0.22797743692E+03  0.29738374887E+03  0.17300000000E+03 0.  1.
         -6    1    1    2    0  501  0.18920202504E+02 -0.78590128431E+02 -0.59238740563E+03  0.62240358345E+03  0.17300000000E+03 0. -1.
<mgrwt>
<rscale>  2 0.19095387E+03</rscale>
<asrwt>0</asrwt>
<pdfrwt beam="1">  1        2 0.13385785E+00 0.19095387E+03</pdfrwt>
<pdfrwt beam="2">  1       -2 0.76478845E-02 0.19095387E+03</pdfrwt>
<totfact> 0.31947357E+03</totfact>
</mgrwt>
</event>
<event>
 4    3  0.7748294E-001  0.2369838E+03  0.7546771E-02  0.1121819E+00
         -2   -1    0    0    0  501 -0.00000000000E+00  0.00000000000E+00  0.34733632369E+02  0.34733632369E+02  0.00000000000E+00 0. -1.
          2   -1    0    0  502    0  0.00000000000E+00 -0.00000000000E+00 -0.20877036351E+04  0.20877036351E+04  0.00000000000E+00 0.  1.
          6    1    1    2  502    0  0.12864988389E+03 -0.98394672325E+02 -0.52253925097E+03  0.57376700234E+03  0.17300000000E+03 0. -1.
         -6    1    1    2    0  501 -0.12864988389E+03  0.98394672325E+02 -0.15304307518E+04  0.15486702652E+04  0.17300000000E+03 0.  1.
<mgrwt>
<rscale>  2 0.23698376E+03</rscale>
<asrwt>0</asrwt>
<pdfrwt beam="1">  1        2 0.32118518E+00 0.23698376E+03</pdfrwt>
<pdfrwt beam="2">  1       -2 0.53436357E-02 0.23698376E+03</pdfrwt>
<totfact> 0.11859381E+03</totfact>
</mgrwt>
</event>
<event>
 4    3  0.7748294E-001  0.6163937E+03  0.7546771E-02  0.9871966E-01
          2   -1    0    0  502    0  0.00000000000E+00  0.00000000000E+00  0.35779821697E+04  0.35779821697E+04  0.00000000000E+00 0.  1.
         -2   -1    0    0    0  501 -0.00000000000E+00 -0.00000000000E+00 -0.17103160944E+03  0.17103160944E+03  0.00000000000E+00 0. -1.
          6    1    1    2  502    0  0.59137139965E+03 -0.17090510645E+02  0.28576728348E+04  0.29233944737E+04  0.17300000000E+03 0.  1.
         -6    1    1    2    0  501 -0.59137139965E+03  0.17090510645E+02  0.54927772546E+03  0.82561930547E+03  0.17300000000E+03 0. -1.
<mgrwt>
<rscale>  2 0.61639372E+03</rscale>
<asrwt>0</asrwt>
<pdfrwt beam="1">  1        2 0.55045874E+00 0.61639372E+03</pdfrwt>
<pdfrwt beam="2">  1       -2 0.26312558E-01 0.61639372E+03</pdfrwt>
<totfact> 0.10417206E+01</totfact>
</mgrwt>
</event>
<event>
 4    3  0.7748294E-001  0.3286751E+03  0.7546771E-02  0.1071725E+00
          1   -1    0    0  502    0  0.00000000000E+00  0.00000000000E+00  0.65735839969E+03  0.65735839969E+03  0.00000000000E+00 0.  1.
         -1   -1    0    0    0  501 -0.00000000000E+00 -0.00000000000E+00 -0.16469174892E+03  0.16469174892E+03  0.00000000000E+00 0. -1.
          6    1    1    2  502    0  0.20535167553E+03 -0.18954949931E+03  0.22721687387E+03  0.39956830593E+03  0.17300000000E+03 0. -1.
         -6    1    1    2    0  501 -0.20535167553E+03  0.18954949931E+03  0.26544977690E+03  0.42248184267E+03  0.17300000000E+03 0.  1.
<mgrwt>
<rscale>  2 0.32867510E+03</rscale>
<asrwt>0</asrwt>
<pdfrwt beam="1">  1        1 0.10113206E+00 0.32867510E+03</pdfrwt>
<pdfrwt beam="2">  1       -1 0.25337193E-01 0.32867510E+03</pdfrwt>
<totfact> 0.42150358E+02</totfact>
</mgrwt>
</event>
<event>
 4    3  0.7748294E-001  0.2015344E+03  0.7546771E-02  0.1148451E+00
          2   -1    0    0  502    0  0.00000000000E+00  0.00000000000E+00  0.18390210194E+04  0.18390210194E+04  0.00000000000E+00 0.  1.
         -2   -1    0    0    0  501 -0.00000000000E+00 -0.00000000000E+00 -0.22086701287E+02  0.22086701287E+02  0.00000000000E+00 0. -1.
          6    1    1    2  502    0 -0.92352574676E+02  0.46455636993E+02  0.90230065976E+03  0.92453372295E+03  0.17300000000E+03 0. -1.
         -6    1    1    2    0  501  0.92352574676E+02 -0.46455636993E+02  0.91463365836E+03  0.93657399775E+03  0.17300000000E+03 0.  1.
<mgrwt>
<rscale>  2 0.20153442E+03</rscale>
<asrwt>0</asrwt>
<pdfrwt beam="1">  1        2 0.28292619E+00 0.20153442E+03</pdfrwt>
<pdfrwt beam="2">  1       -2 0.33979555E-02 0.20153442E+03</pdfrwt>
<totfact> 0.31723133E+03</totfact>
</mgrwt>
</event>
<event>
 4    3  0.7748294E-001  0.1742733E+03  0.7546771E-02  0.1173463E+00
         -1   -1    0    0    0  501 -0.00000000000E+00  0.00000000000E+00  0.31658043604E+02  0.31658043604E+02  0.00000000000E+00 0.  1.
          1   -1    0    0  502    0  0.00000000000E+00 -0.00000000000E+00 -0.97966663751E+03  0.97966663751E+03  0.00000000000E+00 0. -1.
          6    1    1    2  502    0  0.17923069586E+02 -0.10998367850E+02 -0.40118804355E+03  0.43740490030E+03  0.17300000000E+03 0.  1.
         -6    1    1    2    0  501 -0.17923069586E+02  0.10998367850E+02 -0.54682055036E+03  0.57391978081E+03  0.17300000000E+03 0. -1.
<mgrwt>
<rscale>  2 0.17427335E+03</rscale>
<asrwt>0</asrwt>
<pdfrwt beam="1">  1        1 0.15071793E+00 0.17427335E+03</pdfrwt>
<pdfrwt beam="2">  1       -1 0.48704686E-02 0.17427335E+03</pdfrwt>
<totfact> 0.30043570E+03</totfact>
</mgrwt>
</event>
<event>
 4    3  0.7748294E-001  0.3617214E+03  0.7546771E-02  0.1057904E+00
          2   -1    0    0  502    0  0.00000000000E+00  0.00000000000E+00  0.60839210498E+03  0.60839210498E+03  0.00000000000E+00 0. -1.
         -2   -1    0    0    0  501 -0.00000000000E+00 -0.00000000000E+00 -0.21628088092E+03  0.21628088092E+03  0.00000000000E+00 0.  1.
          6    1    1    2  502    0  0.20226744152E+03  0.24495159516E+03  0.22700216928E+03  0.42705080111E+03  0.17300000000E+03 0. -1.
         -6    1    1    2    0  501 -0.20226744152E+03 -0.24495159516E+03  0.16510905478E+03  0.39762218479E+03  0.17300000000E+03 0. -1.
<mgrwt>
<rscale>  2 0.36172144E+03</rscale>
<asrwt>0</asrwt>
<pdfrwt beam="1">  1        2 0.93598785E-01 0.36172144E+03</pdfrwt>
<pdfrwt beam="2">  1       -2 0.33273982E-01 0.36172144E+03</pdfrwt>
<totfact> 0.41984366E+02</totfact>
</mgrwt>
</event>
<event>
 4    3  0.7748294E-001  0.1774725E+03  0.7546771E-02  0.1170272E+00
         -2   -1    0    0    0  501 -0.00000000000E+00  0.00000000000E+00  0.52163734800E+02  0.52163734800E+02  0.00000000000E+00 0. -1.
          2   -1    0    0  502    0  0.00000000000E+00 -0.00000000000E+00 -0.80575757365E+03  0.80575757365E+03  0.00000000000E+00 0.  1.
          6    1    1    2  502    0  0.31575944987E+02  0.23884215381E+02 -0.59155259655E+03  0.61760098003E+03  0.17300000000E+03 0.  1.
         -6    1    1    2    0  501 -0.31575944987E+02 -0.23884215381E+02 -0.16204124230E+03  0.24032032842E+03  0.17300000000E+03 0. -1.
<mgrwt>
<rscale>  2 0.17747252E+03</rscale>
<asrwt>0</asrwt>
<pdfrwt beam="1">  1        2 0.12396270E+00 0.17747252E+03</pdfrwt>
<pdfrwt beam="2">  1       -2 0.80251899E-02 0.17747252E+03</pdfrwt>
<totfact> 0.32651941E+03</totfact>
</mgrwt>
</event>
<event>
 4    3  0.7748294E-001  0.2226561E+03  0.7546771E-02  0.1131918E+00
          1   -1    0    0  502    0  0.00000000000E+00  0.00000000000E+00  0.47060214433E+02  0.47060214433E+02  0.00000000000E+00 0. -1.
         -1   -1    0    0    0  501 -0.00000000000E+00 -0.00000000000E+00 -0.10575018947E+04  0.10575018947E+04  0.00000000000E+00 0.  1.
          6    1    1    2  502    0  0.14012402008E+03  0.34641118861E+01 -0.53939268584E+03  0.58354109591E+03  0.17300000000E+03 0. -1.
         -6    1    1    2    0  501 -0.14012402008E+03 -0.34641118861E+01 -0.47104899446E+03  0.52102101325E+03  0.17300000000E+03 0.  1.
<mgrwt>
<rscale>  2 0.22265610E+03</rscale>
<asrwt>0</asrwt>
<pdfrwt beam="1">  1        1 0.72400324E-02 0.22265610E+03</pdfrwt>
<pdfrwt beam="2">  1       -1 0.16269261E+00 0.22265610E+03</pdfrwt>
<totfact> 0.30377011E+02</totfact>
</mgrwt>
</event>
<event>
 4    3  0.7748294E-001  0.1811059E+03  0.7546771E-02  0.1166737E+00
         -2   -1    0    0    0  501 -0.00000000000E+00  0.00000000000E+00  0.37808649050E+02  0.37808649050E+02  0.00000000000E+00 0. -1.
          2   -1    0    0  502    0  0.00000000000E+00 -0.00000000000E+00 -0.88237965763E+03  0.88237965763E+03  0.00000000000E+00 0.  1.
          6    1    1    2  502    0  0.39652037884E+02 -0.36028482027E+02 -0.48201475045E+03  0.51491509521E+03  0.17300000000E+03 0. -1.
         -6    1    1    2    0  501 -0.39652037884E+02  0.36028482027E+02 -0.36255625814E+03  0.40527321147E+03  0.17300000000E+03 0. -1.
<mgrwt>
<rscale>  2 0.18110587E+03</rscale>
<asrwt>0</asrwt>
<pdfrwt beam="1">  1        2 0.13575070E+00 0.18110587E+03</pdfrwt>
<pdfrwt beam="2">  1       -2 0.58167158E-02 0.18110587E+03</pdfrwt>
<totfact> 0.47705327E+03</totfact>
</mgrwt>
</event>
<event>
 4    3  0.7748294E-001  0.1765572E+03  0.7546771E-02  0.1171177E+00
         -2   -1    0    0    0  501 -0.00000000000E+00  0.00000000000E+00  0.22354647326E+02  0.22354647326E+02  0.00000000000E+00 0. -1.
          2   -1    0    0  502    0  0.00000000000E+00 -0.00000000000E+00 -0.13959147199E+04  0.13959147199E+04  0.00000000000E+00 0.  1.
          6    1    1    2  502    0  0.20469273029E+00 -0.35261773885E+02 -0.66380803110E+03  0.68688684421E+03  0.17300000000E+03 0. -1.
         -6    1    1    2    0  501 -0.20469273029E+00  0.35261773885E+02 -0.70975204151E+03  0.73138252305E+03  0.17300000000E+03 0.  1.
<mgrwt>
<rscale>  2 0.17655717E+03</rscale>
<asrwt>0</asrwt>
<pdfrwt beam="1">  1        2 0.21475615E+00 0.17655717E+03</pdfrwt>
<pdfrwt beam="2">  1       -2 0.34391759E-02 0.17655717E+03</pdfrwt>
<totfact> 0.53093500E+03</totfact>
</mgrwt>
</event>
<event>
 4    3  0.7748294E-001  0.1921711E+03  0.7546771E-02  0.1156518E+00
          2   -1    0    0  502    0  0.00000000000E+00  0.00000000000E+00  0.25493533194E+04  0.25493533194E+04  0.00000000000E+00 0. -1.
         -2   -1    0    0    0  501 -0.00000000000E+00 -0.00000000000E+00 -0.16744936758E+02  0.16744936758E+02  0.00000000000E+00 0.  1.
          6    1    1    2  502    0 -0.59180858131E+02  0.59146981239E+02  0.17375644714E+04  0.17481590407E+04  0.17300000000E+03 0.  1.
         -6    1    1    2    0  501  0.59180858131E+02 -0.59146981239E+02  0.79504391127E+03  0.81793921547E+03  0.17300000000E+03 0.  1.
<mgrwt>
<rscale>  2 0.19217112E+03</rscale>
<asrwt>0</asrwt>
<pdfrwt beam="1">  1        2 0.39220790E+00 0.19217112E+03</pdfrwt>
<pdfrwt beam="2">  1       -2 0.25761461E-02 0.19217112E+03</pdfrwt>
<totfact> 0.20188920E+03</totfact>
</mgrwt>
</event>
<event>
 4    3  0.7748294E-001  0.2026104E+03  0.7546771E-02  0.1147555E+00
         -2   -1    0    0    0  501 -0.00000000000E+00  0.00000000000E+00  0.29489827931E+02  0.29489827931E+02  0.00000000000E+00 0. -1.
          2   -1    0    0  502    0  0.00000000000E+00 -0.00000000000E+00 -0.18731943001E+04  0.18731943001E+04  0.00000000000E+00 0.  1.
          6    1    1    2  502    0 -0.71964715680E+02  0.77091166977E+02 -0.43969547231E+03  0.48413125979E+03  0.17300000000E+03 0.  1.
         -6    1    1    2    0  501  0.71964715680E+02 -0.77091166977E+02 -0.14040089998E+04  0.14185528682E+04  0.17300000000E+03 0.  1.
<mgrwt>
<rscale>  2 0.20261039E+03</rscale>
<asrwt>0</asrwt>
<pdfrwt beam="1">  1        2 0.28818374E+00 0.20261039E+03</pdfrwt>
<pdfrwt beam="2">  1       -2 0.45368965E-02 0.20261039E+03</pdfrwt>
<totfact> 0.19740788E+03</totfact>
</mgrwt>
</event>
<event>
 4    3  0.7748294E-001  0.2009577E+03  0.7546771E-02  0.1148933E+00
         -3   -1    0    0    0  501 -0.00000000000E+00  0.00000000000E+00  0.19309234995E+03  0.19309234995E+03  0.00000000000E+00 0.  1.
          3   -1    0    0  502    0  0.00000000000E+00 -0.00000000000E+00 -0.21630276333E+03  0.21630276333E+03  0.00000000000E+00 0. -1.
          6    1    1    2  502    0  0.97554553839E+01  0.10178330003E+03  0.25635329183E+02  0.20258622652E+03  0.17300000000E+03 0.  1.
         -6    1    1    2    0  501 -0.97554553839E+01 -0.10178330003E+03 -0.48845742572E+02  0.20680888676E+03  0.17300000000E+03 0. -1.
<mgrwt>
<rscale>  2 0.20095773E+03</rscale>
<asrwt>0</asrwt>
<pdfrwt beam="1">  1        3 0.33277348E-01 0.20095773E+03</pdfrwt>
<pdfrwt beam="2">  1       -3 0.29706516E-01 0.20095773E+03</pdfrwt>
<totfact> 0.23608800E+02</totfact>
</mgrwt>
</event>
<event>
 4    3  0.7748294E-001  0.1773716E+03  0.7546771E-02  0.1170371E+00
         -1   -1    0    0    0  501 -0.00000000000E+00  0.00000000000E+00  0.14958834003E+03  0.14958834003E+03  0.00000000000E+00 0.  1.
          1   -1    0    0  502    0  0.00000000000E+00 -0.00000000000E+00 -0.27698694675E+03  0.27698694675E+03  0.00000000000E+00 0. -1.
          6    1    1    2  502    0  0.19291445824E+02  0.34051986027E+02 -0.16834154835E+03  0.24453951528E+03  0.17300000000E+03 0. -1.
         -6    1    1    2    0  501 -0.19291445824E+02 -0.34051986027E+02  0.40942941638E+02  0.18203577150E+03  0.17300000000E+03 0.  1.
<mgrwt>
<rscale>  2 0.17737164E+03</rscale>
<asrwt>0</asrwt>
<pdfrwt beam="1">  1        1 0.42613376E-01 0.17737164E+03</pdfrwt>
<pdfrwt beam="2">  1       -1 0.23013591E-01 0.17737164E+03</pdfrwt>
<totfact> 0.15354178E+03</totfact>
</mgrwt>
</event>
<event>
 4    3  0.7748294E-001  0.2428740E+03  0.7546771E-02  0.1117893E+00
         -2   -1    0    0    0  501 -0.00000000000E+00  0.00000000000E+00  0.11376524864E+04  0.11376524864E+04  0.00000000000E+00 0.  1.
          2   -1    0    0  502    0  0.00000000000E+00 -0.00000000000E+00 -0.72797475417E+02  0.72797475417E+02  0.00000000000E+00 0. -1.
          6    1    1    2  502    0  0.14170354190E+03 -0.94756899578E+02  0.20777397101E+03  0.31962131787E+03  0.17300000000E+03 0. -1.
         -6    1    1    2    0  501 -0.14170354190E+03  0.94756899578E+02  0.85708103997E+03  0.89082864395E+03  0.17300000000E+03 0.  1.
<mgrwt>
<rscale>  2 0.24287397E+03</rscale>
<asrwt>0</asrwt>
<pdfrwt beam="1">  1        2 0.11199612E-01 0.24287397E+03</pdfrwt>
<pdfrwt beam="2">  1       -2 0.17502345E+00 0.24287397E+03</pdfrwt>
<totfact> 0.11726390E+02</totfact>
</mgrwt>
</event>
<event>
 4    3  0.7748294E-001  0.2024867E+03  0.7546771E-02  0.1147658E+00
          2   -1    0    0  502    0  0.00000000000E+00  0.00000000000E+00  0.22709344663E+03  0.22709344663E+03  0.00000000000E+00 0.  1.
         -2   -1    0    0    0  501 -0.00000000000E+00 -0.00000000000E+00 -0.19072325368E+03  0.19072325368E+03  0.00000000000E+00 0. -1.
          6    1    1    2  502    0  0.65615676465E+02  0.82258523042E+02 -0.30072186736E+02  0.20470764037E+03  0.17300000000E+03 0.  1.
         -6    1    1    2    0  501 -0.65615676465E+02 -0.82258523042E+02  0.66442379689E+02  0.21310905994E+03  0.17300000000E+03 0.  1.
<mgrwt>
<rscale>  2 0.20248674E+03</rscale>
<asrwt>0</asrwt>
<pdfrwt beam="1">  1        2 0.34937454E-01 0.20248674E+03</pdfrwt>
<pdfrwt beam="2">  1       -2 0.29342039E-01 0.20248674E+03</pdfrwt>
<totfact> 0.15648217E+03</totfact>
</mgrwt>
</event>
<event>
 4    3  0.7748294E-001  0.1745277E+03  0.7546771E-02  0.1173207E+00
          2   -1    0    0  502    0  0.00000000000E+00  0.00000000000E+00  0.10979625889E+04  0.10979625889E+04  0.00000000000E+00 0. -1.
         -2   -1    0    0    0  501 -0.00000000000E+00 -0.00000000000E+00 -0.27887044123E+02  0.27887044123E+02  0.00000000000E+00 0.  1.
          6    1    1    2  502    0 -0.25527886799E+01 -0.22900122390E+02  0.49447269195E+03  0.52436931205E+03  0.17300000000E+03 0.  1.
         -6    1    1    2    0  501  0.25527886799E+01  0.22900122390E+02  0.57560285284E+03  0.60148032099E+03  0.17300000000E+03 0. -1.
<mgrwt>
<rscale>  2 0.17452774E+03</rscale>
<asrwt>0</asrwt>
<pdfrwt beam="1">  1        2 0.16891729E+00 0.17452774E+03</pdfrwt>
<pdfrwt beam="2">  1       -2 0.42903153E-02 0.17452774E+03</pdfrwt>
<totfact> 0.55793129E+03</totfact>
</mgrwt>
</event>
<event>
 4    3  0.7748294E-001  0.2830399E+03  0.7546771E-02  0.1094040E+00
         -2   -1    0    0    0  501 -0.00000000000E+00  0.00000000000E+00  0.19838305328E+04  0.19838305328E+04  0.00000000000E+00 0. -1.
          2   -1    0    0  502    0  0.00000000000E+00 -0.00000000000E+00 -0.41256843480E+02  0.41256843480E+02  0.00000000000E+00 0.  1.
          6    1    1    2  502    0 -0.17206194283E+03  0.14344789941E+03  0.11187080450E+04  0.11539581024E+04  0.17300000000E+03 0.  1.
         -6    1    1    2    0  501  0.17206194283E+03 -0.14344789941E+03  0.82386564432E+03  0.87112927394E+03  0.17300000000E+03 0. -1.
<mgrwt>
<rscale>  2 0.28303995E+03</rscale>
<asrwt>0</asrwt>
<pdfrwt beam="1">  1        2 0.63472082E-02 0.28303995E+03</pdfrwt>
<pdfrwt beam="2">  1       -2 0.30520462E+00 0.28303995E+03</pdfrwt>
<totfact> 0.38976981E+01</totfact>
</mgrwt>
</event>
<event>
 4    3  0.7748294E-001  0.3555822E+03  0.7546771E-02  0.1060347E+00
          2   -1    0    0  502    0  0.00000000000E+00  0.00000000000E+00  0.86369936972E+03  0.86369936972E+03  0.00000000000E+00 0.  1.
         -2   -1    0    0    0  501 -0.00000000000E+00 -0.00000000000E+00 -0.14656484391E+03  0.14656484391E+03  0.00000000000E+00 0. -1.
          6    1    1    2  502    0 -0.21056501554E+03 -0.22841212783E+03  0.37591119681E+03  0.51744367210E+03  0.17300000000E+03 0. -1.
         -6    1    1    2    0  501  0.21056501554E+03  0.22841212783E+03  0.34122332899E+03  0.49282054153E+03  0.17300000000E+03 0.  1.
<mgrwt>
<rscale>  2 0.35558224E+03</rscale>
<asrwt>0</asrwt>
<pdfrwt beam="1">  1        2 0.13287682E+00 0.35558224E+03</pdfrwt>
<pdfrwt beam="2">  1       -2 0.22548438E-01 0.35558224E+03</pdfrwt>
<totfact> 0.54747449E+02</totfact>
</mgrwt>
</event>
<event>
 4    3  0.7748294E-001  0.1816554E+03  0.7546771E-02  0.1166210E+00
          2   -1    0    0  502    0  0.00000000000E+00  0.00000000000E+00  0.22569587145E+03  0.22569587145E+03  0.00000000000E+00 0. -1.
         -2   -1    0    0    0  501 -0.00000000000E+00 -0.00000000000E+00 -0.25465001008E+03  0.25465001008E+03  0.00000000000E+00 0.  1.
          6    1    1    2  502    0 -0.37694176975E+02 -0.40605992913E+02 -0.17120616412E+03  0.24962020806E+03  0.17300000000E+03 0.  1.
         -6    1    1    2    0  501  0.37694176975E+02  0.40605992913E+02  0.14225202550E+03  0.23072567347E+03  0.17300000000E+03 0. -1.
<mgrwt>
<rscale>  2 0.18165544E+03</rscale>
<asrwt>0</asrwt>
<pdfrwt beam="1">  1        2 0.34722442E-01 0.18165544E+03</pdfrwt>
<pdfrwt beam="2">  1       -2 0.39176925E-01 0.18165544E+03</pdfrwt>
<totfact> 0.92064021E+02</totfact>
</mgrwt>
</event>
<event>
 4    3  0.7748294E-001  0.1978655E+03  0.7546771E-02  0.1151552E+00
          2   -1    0    0  502    0  0.00000000000E+00  0.00000000000E+00  0.28294983759E+04  0.28294983759E+04  0.00000000000E+00 0.  1.
         -2   -1    0    0    0  501 -0.00000000000E+00 -0.00000000000E+00 -0.20503429510E+02  0.20503429510E+02  0.00000000000E+00 0. -1.
          6    1    1    2  502    0 -0.85258251758E+02  0.44190522050E+02  0.59192891990E+03  0.62412388028E+03  0.17300000000E+03 0. -1.
         -6    1    1    2    0  501  0.85258251758E+02 -0.44190522050E+02  0.22170660265E+04  0.22258779251E+04  0.17300000000E+03 0.  1.
<mgrwt>
<rscale>  2 0.19786554E+03</rscale>
<asrwt>0</asrwt>
<pdfrwt beam="1">  1        2 0.43530713E+00 0.19786554E+03</pdfrwt>
<pdfrwt beam="2">  1       -2 0.31543760E-02 0.19786554E+03</pdfrwt>
<totfact> 0.10440313E+03</totfact>
</mgrwt>
</event>
<event>
 4    3  0.7748294E-001  0.2342781E+03  0.7546771E-02  0.1123664E+00
         -2   -1    0    0    0  501 -0.00000000000E+00  0.00000000000E+00  0.35895649373E+02  0.35895649373E+02  0.00000000000E+00 0.  1.
          2   -1    0    0  502    0  0.00000000000E+00 -0.00000000000E+00 -0.15558939561E+04  0.15558939561E+04  0.00000000000E+00 0. -1.
          6    1    1    2  502    0  0.13463323857E+03  0.82650446813E+02 -0.65545557601E+03  0.69606624498E+03  0.17300000000E+03 0.  1.
         -6    1    1    2    0  501 -0.13463323857E+03 -0.82650446813E+02 -0.86454273070E+03  0.89572336047E+03  0.17300000000E+03 0.  1.
<mgrwt>
<rscale>  2 0.23427805E+03</rscale>
<asrwt>0</asrwt>
<pdfrwt beam="1">  1        2 0.23936833E+00 0.23427805E+03</pdfrwt>
<pdfrwt beam="2">  1       -2 0.55224070E-02 0.23427805E+03</pdfrwt>
<totfact> 0.21436822E+03</totfact>
</mgrwt>
</event>
<event>
 4    3  0.7748294E-001  0.2475954E+03  0.7546771E-02  0.1114834E+00
         -2   -1    0    0    0  501 -0.00000000000E+00  0.00000000000E+00  0.65227652814E+02  0.65227652814E+02  0.00000000000E+00 0. -1.
          2   -1    0    0  502    0  0.00000000000E+00 -0.00000000000E+00 -0.15687909751E+04  0.15687909751E+04  0.00000000000E+00 0.  1.
          6    1    1    2  502    0  0.13928867035E+03  0.10942187416E+03 -0.12690945171E+04  0.12930214126E+04  0.17300000000E+03 0.  1.
         -6    1    1    2    0  501 -0.13928867035E+03 -0.10942187416E+03 -0.23446880528E+03  0.34099721536E+03  0.17300000000E+03 0. -1.
<mgrwt>
<rscale>  2 0.24759540E+03</rscale>
<asrwt>0</asrwt>
<pdfrwt beam="1">  1        2 0.24135246E+00 0.24759540E+03</pdfrwt>
<pdfrwt beam="2">  1       -2 0.10035023E-01 0.24759540E+03</pdfrwt>
<totfact> 0.83098099E+02</totfact>
</mgrwt>
</event>
<event>
 4    3  0.7748294E-001  0.1739125E+03  0.7546771E-02  0.1173828E+00
          2   -1    0    0  502    0  0.00000000000E+00  0.00000000000E+00  0.55124341789E+02  0.55124341789E+02  0.00000000000E+00 0. -1.
         -2   -1    0    0    0  501 -0.00000000000E+00 -0.00000000000E+00 -0.55929125536E+03  0.55929125536E+03  0.00000000000E+00 0.  1.
          6    1    1    2  502    0 -0.33522118937E+01  0.17473141691E+02 -0.20976549328E+03  0.27248322917E+03  0.17300000000E+03 0. -1.
         -6    1    1    2    0  501  0.33522118937E+01 -0.17473141691E+02 -0.29440142029E+03  0.34193236798E+03  0.17300000000E+03 0.  1.
<mgrwt>
<rscale>  2 0.17391247E+03</rscale>
<asrwt>0</asrwt>
<pdfrwt beam="1">  1        2 0.84806686E-02 0.17391247E+03</pdfrwt>
<pdfrwt beam="2">  1       -2 0.86044802E-01 0.17391247E+03</pdfrwt>
<totfact> 0.94085939E+02</totfact>
</mgrwt>
</event>
<event>
 4    3  0.7748294E-001  0.2599637E+03  0.7546771E-02  0.1107165E+00
          2   -1    0    0  502    0  0.00000000000E+00  0.00000000000E+00  0.52530608955E+03  0.52530608955E+03  0.00000000000E+00 0. -1.
         -2   -1    0    0    0  501 -0.00000000000E+00 -0.00000000000E+00 -0.12890762370E+03  0.12890762370E+03  0.00000000000E+00 0.  1.
          6    1    1    2  502    0 -0.53362292705E+02 -0.18655991640E+03  0.18360349130E+03  0.31826306526E+03  0.17300000000E+03 0.  1.
         -6    1    1    2    0  501  0.53362292705E+02  0.18655991640E+03  0.21279497455E+03  0.33595064799E+03  0.17300000000E+03 0. -1.
<mgrwt>
<rscale>  2 0.25996372E+03</rscale>
<asrwt>0</asrwt>
<pdfrwt beam="1">  1        2 0.80816320E-01 0.25996372E+03</pdfrwt>
<pdfrwt beam="2">  1       -2 0.19831942E-01 0.25996372E+03</pdfrwt>
<totfact> 0.12554649E+03</totfact>
</mgrwt>
</event>
<event>
 4    3  0.7748294E-001  0.2748080E+03  0.7546771E-02  0.1098559E+00
          2   -1    0    0  502    0  0.00000000000E+00  0.00000000000E+00  0.51140173924E+03  0.51140173924E+03  0.00000000000E+00 0. -1.
         -2   -1    0    0    0  501 -0.00000000000E+00 -0.00000000000E+00 -0.20289767024E+03  0.20289767024E+03  0.00000000000E+00 0.  1.
          6    1    1    2  502    0 -0.21278395232E+03 -0.17704197630E+02 -0.32078628201E+02  0.27667397305E+03  0.17300000000E+03 0.  1.
         -6    1    1    2    0  501  0.21278395232E+03  0.17704197630E+02  0.34058269719E+03  0.43762543642E+03  0.17300000000E+03 0. -1.
<mgrwt>
<rscale>  2 0.27480802E+03</rscale>
<asrwt>0</asrwt>
<pdfrwt beam="1">  1        2 0.78677190E-01 0.27480802E+03</pdfrwt>
<pdfrwt beam="2">  1       -2 0.31215026E-01 0.27480802E+03</pdfrwt>
<totfact> 0.57944861E+02</totfact>
</mgrwt>
</event>
