<event>
 4    1  0.1123525E-001  0.9507536E+02  0.7546771E-02  0.1291006E+00
         -2   -1    0    0    0  501 -0.00000000000E+00  0.00000000000E+00  0.29880165188E+02  0.29880165188E+02  0.00000000000E+00 0.  1.
          2   -1    0    0  501    0  0.00000000000E+00 -0.00000000000E+00 -0.78745705515E+03  0.78745705515E+03  0.00000000000E+00 0. -1.
         24    1    1    2    0    0  0.32392689112E+02  0.39023338237E+02 -0.69948987205E+03  0.70592167008E+03  0.80419002446E+02 0. -1.
        -24    1    1    2    0    0 -0.32392689112E+02 -0.39023338237E+02 -0.58087017915E+02  0.11141555026E+03  0.80419002446E+02 0.  1.
<mgrwt>
<rscale>  0 0.95075355E+02</rscale>
<asrwt>0</asrwt>
<pdfrwt beam="1">  1        2 0.12114724E+00 0.95075355E+02</pdfrwt>
<pdfrwt beam="2">  1       -2 0.45969485E-02 0.95075355E+02</pdfrwt>
<totfact> 0.76067713E+03</totfact>
</mgrwt>
</event>
<event>
 4    1  0.1123525E-001  0.8311935E+02  0.7546771E-02  0.1320425E+00
          1   -1    0    0  501    0  0.00000000000E+00  0.00000000000E+00  0.11783519443E+04  0.11783519443E+04  0.00000000000E+00 0. -1.
         -1   -1    0    0    0  501 -0.00000000000E+00 -0.00000000000E+00 -0.10938778323E+02  0.10938778323E+02  0.00000000000E+00 0.  1.
         24    1    1    2    0    0  0.20599523283E+02  0.41556329622E+01  0.17864638624E+03  0.19703643551E+03  0.80419002446E+02 0.  0.
        -24    1    1    2    0    0 -0.20599523283E+02 -0.41556329622E+01  0.98876677977E+03  0.99225428715E+03  0.80419002446E+02 0. -1.
<mgrwt>
<rscale>  0 0.83119346E+02</rscale>
<asrwt>0</asrwt>
<pdfrwt beam="1">  1        1 0.18128481E+00 0.83119346E+02</pdfrwt>
<pdfrwt beam="2">  1       -1 0.16828899E-02 0.83119346E+02</pdfrwt>
<totfact> 0.98347354E+03</totfact>
</mgrwt>
</event>
<event>
 4    1  0.1123525E-001  0.8900530E+02  0.7546771E-02  0.1305279E+00
         -1   -1    0    0    0  501 -0.00000000000E+00  0.00000000000E+00  0.44317704857E+03  0.44317704857E+03  0.00000000000E+00 0.  1.
          1   -1    0    0  501    0  0.00000000000E+00 -0.00000000000E+00 -0.25297825840E+02  0.25297825840E+02  0.00000000000E+00 0. -1.
         24    1    1    2    0    0  0.30863184212E+02 -0.22409626782E+02  0.33581845053E+03  0.34741326282E+03  0.80419002446E+02 0.  1.
        -24    1    1    2    0    0 -0.30863184212E+02  0.22409626782E+02  0.82060772199E+02  0.12106161159E+03  0.80419002446E+02 0. -1.
<mgrwt>
<rscale>  0 0.89005300E+02</rscale>
<asrwt>0</asrwt>
<pdfrwt beam="1">  1        1 0.38919735E-02 0.89005300E+02</pdfrwt>
<pdfrwt beam="2">  1       -1 0.68181079E-01 0.89005300E+02</pdfrwt>
<totfact> 0.49336532E+03</totfact>
</mgrwt>
</event>
<event>
 4    1  0.1123525E-001  0.8062932E+02  0.7546771E-02  0.1327275E+00
          1   -1    0    0  501    0  0.00000000000E+00  0.00000000000E+00  0.22138664119E+03  0.22138664119E+03  0.00000000000E+00 0. -1.
         -1   -1    0    0    0  501 -0.00000000000E+00 -0.00000000000E+00 -0.42150425631E+02  0.42150425631E+02  0.00000000000E+00 0.  1.
         24    1    1    2    0    0  0.25383470361E+01  0.52372399358E+01  0.17047122031E+02  0.82411723752E+02  0.80419002446E+02 0.  0.
        -24    1    1    2    0    0 -0.25383470361E+01 -0.52372399358E+01  0.16218909353E+03  0.18112534307E+03  0.80419002446E+02 0. -1.
<mgrwt>
<rscale>  0 0.80629324E+02</rscale>
<asrwt>0</asrwt>
<pdfrwt beam="1">  1        1 0.34059483E-01 0.80629324E+02</pdfrwt>
<pdfrwt beam="2">  1       -1 0.64846810E-02 0.80629324E+02</pdfrwt>
<totfact> 0.13645357E+04</totfact>
</mgrwt>
</event>
<event>
 4    1  0.1123525E-001  0.8501364E+02  0.7546771E-02  0.1315397E+00
         -1   -1    0    0    0  501 -0.00000000000E+00  0.00000000000E+00  0.22483722041E+02  0.22483722041E+02  0.00000000000E+00 0.  1.
          1   -1    0    0  501    0  0.00000000000E+00 -0.00000000000E+00 -0.10949491660E+04  0.10949491660E+04  0.00000000000E+00 0. -1.
         24    1    1    2    0    0  0.25984888114E+02 -0.92134942856E+01 -0.66635716326E+02  0.10801683911E+03  0.80419002446E+02 0.  1.
        -24    1    1    2    0    0 -0.25984888114E+02  0.92134942856E+01 -0.10058297276E+04  0.10094160489E+04  0.80419002446E+02 0. -1.
<mgrwt>
<rscale>  0 0.85013639E+02</rscale>
<asrwt>0</asrwt>
<pdfrwt beam="1">  1        1 0.16845365E+00 0.85013639E+02</pdfrwt>
<pdfrwt beam="2">  1       -1 0.34590356E-02 0.85013639E+02</pdfrwt>
<totfact> 0.40072188E+03</totfact>
</mgrwt>
</event>
<event>
 4    1  0.1123525E-001  0.9747415E+02  0.7546771E-02  0.1285699E+00
          2   -1    0    0  501    0  0.00000000000E+00  0.00000000000E+00  0.11769884709E+04  0.11769884709E+04  0.00000000000E+00 0. -1.
         -2   -1    0    0    0  501 -0.00000000000E+00 -0.00000000000E+00 -0.14921419662E+02  0.14921419662E+02  0.00000000000E+00 0.  1.
         24    1    1    2    0    0 -0.48219442509E+02 -0.26624801225E+02  0.98479062080E+03  0.98960283824E+03  0.80419002446E+02 0. -1.
        -24    1    1    2    0    0  0.48219442509E+02  0.26624801225E+02  0.17727643042E+03  0.20230705231E+03  0.80419002446E+02 0.  1.
<mgrwt>
<rscale>  0 0.97474154E+02</rscale>
<asrwt>0</asrwt>
<pdfrwt beam="1">  1        2 0.18107508E+00 0.97474154E+02</pdfrwt>
<pdfrwt beam="2">  1       -2 0.22956039E-02 0.97474154E+02</pdfrwt>
<totfact> 0.12286013E+04</totfact>
</mgrwt>
</event>
<event>
 4    1  0.1123525E-001  0.9793874E+02  0.7546771E-02  0.1284691E+00
         -2   -1    0    0    0  501 -0.00000000000E+00  0.00000000000E+00  0.40399603266E+01  0.40399603266E+01  0.00000000000E+00 0.  1.
          2   -1    0    0  501    0  0.00000000000E+00 -0.00000000000E+00 -0.25985914538E+04  0.25985914538E+04  0.00000000000E+00 0. -1.
         24    1    1    2    0    0 -0.36328829187E+02  0.42485259326E+02 -0.16796066337E+04  0.16824596402E+04  0.80419002446E+02 0. -1.
        -24    1    1    2    0    0  0.36328829187E+02 -0.42485259326E+02 -0.91494485977E+03  0.92017177389E+03  0.80419002446E+02 0.  0.
<mgrwt>
<rscale>  0 0.97938741E+02</rscale>
<asrwt>0</asrwt>
<pdfrwt beam="1">  1        2 0.39978353E+00 0.97938741E+02</pdfrwt>
<pdfrwt beam="2">  1       -2 0.62153200E-03 0.97938741E+02</pdfrwt>
<totfact> 0.14635466E+04</totfact>
</mgrwt>
</event>
<event>
 4    1  0.1123525E-001  0.1131791E+03  0.7546771E-02  0.1254793E+00
         -1   -1    0    0    0  501 -0.00000000000E+00  0.00000000000E+00  0.57890297633E+03  0.57890297633E+03  0.00000000000E+00 0.  1.
          1   -1    0    0  501    0  0.00000000000E+00 -0.00000000000E+00 -0.25149236039E+02  0.25149236039E+02  0.00000000000E+00 0. -1.
         24    1    1    2    0    0 -0.77508862965E+02 -0.18293807231E+02  0.38157327074E+03  0.39800460313E+03  0.80419002446E+02 0.  1.
        -24    1    1    2    0    0  0.77508862965E+02  0.18293807231E+02  0.17218046956E+03  0.20604760924E+03  0.80419002446E+02 0. -1.
<mgrwt>
<rscale>  0 0.11317908E+03</rscale>
<asrwt>0</asrwt>
<pdfrwt beam="1">  1        1 0.38691137E-02 0.11317908E+03</pdfrwt>
<pdfrwt beam="2">  1       -1 0.89061986E-01 0.11317908E+03</pdfrwt>
<totfact> 0.29517052E+03</totfact>
</mgrwt>
</event>
<event>
 4    1  0.1123525E-001  0.1128398E+03  0.7546771E-02  0.1255400E+00
         -1   -1    0    0    0  501 -0.00000000000E+00  0.00000000000E+00  0.11617962222E+02  0.11617962222E+02  0.00000000000E+00 0.  1.
          1   -1    0    0  501    0  0.00000000000E+00 -0.00000000000E+00 -0.10979250352E+04  0.10979250352E+04  0.00000000000E+00 0. -1.
         24    1    1    2    0    0 -0.16242146796E+02  0.77471222144E+02 -0.51967926206E+03  0.53178881990E+03  0.80419002446E+02 0.  1.
        -24    1    1    2    0    0  0.16242146796E+02 -0.77471222144E+02 -0.56662781095E+03  0.57775417756E+03  0.80419002446E+02 0. -1.
<mgrwt>
<rscale>  0 0.11283977E+03</rscale>
<asrwt>0</asrwt>
<pdfrwt beam="1">  1        1 0.16891166E+00 0.11283977E+03</pdfrwt>
<pdfrwt beam="2">  1       -1 0.17873776E-02 0.11283977E+03</pdfrwt>
<totfact> 0.10451951E+04</totfact>
</mgrwt>
</event>
<event>
 4    1  0.1123525E-001  0.1233979E+03  0.7546771E-02  0.1237595E+00
          2   -1    0    0  501    0  0.00000000000E+00  0.00000000000E+00  0.31841004046E+03  0.31841004046E+03  0.00000000000E+00 0. -1.
         -2   -1    0    0    0  501 -0.00000000000E+00 -0.00000000000E+00 -0.50407065035E+02  0.50407065035E+02  0.00000000000E+00 0.  1.
         24    1    1    2    0    0 -0.79115154393E+02 -0.50006070597E+02  0.17576185379E+03  0.21475395212E+03  0.80419002446E+02 0.  1.
        -24    1    1    2    0    0  0.79115154393E+02  0.50006070597E+02  0.92241121634E+02  0.15406315337E+03  0.80419002446E+02 0.  0.
<mgrwt>
<rscale>  0 0.12339786E+03</rscale>
<asrwt>0</asrwt>
<pdfrwt beam="1">  1        2 0.48986159E-01 0.12339786E+03</pdfrwt>
<pdfrwt beam="2">  1       -2 0.77549333E-02 0.12339786E+03</pdfrwt>
<totfact> 0.95708189E+03</totfact>
</mgrwt>
</event>
<event>
 4    1  0.1123525E-001  0.1113755E+03  0.7546771E-02  0.1258044E+00
         -3   -1    0    0    0  501 -0.00000000000E+00  0.00000000000E+00  0.30369319036E+03  0.30369319036E+03  0.00000000000E+00 0.  1.
          3   -1    0    0  501    0  0.00000000000E+00 -0.00000000000E+00 -0.50452176975E+02  0.50452176975E+02  0.00000000000E+00 0. -1.
         24    1    1    2    0    0 -0.76008090543E+02 -0.12651585785E+02  0.20388813782E+03  0.23232494733E+03  0.80419002446E+02 0.  1.
        -24    1    1    2    0    0  0.76008090543E+02  0.12651585785E+02  0.49352875565E+02  0.12182042001E+03  0.80419002446E+02 0. -1.
<mgrwt>
<rscale>  0 0.11137553E+03</rscale>
<asrwt>0</asrwt>
<pdfrwt beam="1">  1        3 0.77618735E-02 0.11137553E+03</pdfrwt>
<pdfrwt beam="2">  1       -3 0.46722028E-01 0.11137553E+03</pdfrwt>
<totfact> 0.11427754E+03</totfact>
</mgrwt>
</event>
<event>
 4    1  0.1123525E-001  0.8143365E+02  0.7546771E-02  0.1325031E+00
         -1   -1    0    0    0  501 -0.00000000000E+00  0.00000000000E+00  0.11745584506E+03  0.11745584506E+03  0.00000000000E+00 0.  1.
          1   -1    0    0  501    0  0.00000000000E+00 -0.00000000000E+00 -0.88974145055E+02  0.88974145055E+02  0.00000000000E+00 0. -1.
         24    1    1    2    0    0 -0.64802375860E+01  0.11055754842E+02  0.76636419847E+02  0.11182387936E+03  0.80419002446E+02 0.  1.
        -24    1    1    2    0    0  0.64802375860E+01 -0.11055754842E+02 -0.48154719842E+02  0.94606110753E+02  0.80419002446E+02 0. -1.
<mgrwt>
<rscale>  0 0.81433649E+02</rscale>
<asrwt>0</asrwt>
<pdfrwt beam="1">  1        1 0.13688330E-01 0.81433649E+02</pdfrwt>
<pdfrwt beam="2">  1       -1 0.18070130E-01 0.81433649E+02</pdfrwt>
<totfact> 0.90087934E+03</totfact>
</mgrwt>
</event>
<event>
 4    1  0.1123525E-001  0.8839164E+02  0.7546771E-02  0.1306794E+00
         -2   -1    0    0    0  501 -0.00000000000E+00  0.00000000000E+00  0.98993782345E+02  0.98993782345E+02  0.00000000000E+00 0.  1.
          2   -1    0    0  501    0  0.00000000000E+00 -0.00000000000E+00 -0.11944425741E+03  0.11944425741E+03  0.00000000000E+00 0. -1.
         24    1    1    2    0    0 -0.36261809087E+02  0.55629818026E+01 -0.73838332427E+02  0.11517456687E+03  0.80419002446E+02 0. -1.
        -24    1    1    2    0    0  0.36261809087E+02 -0.55629818026E+01  0.53387857358E+02  0.10326347289E+03  0.80419002446E+02 0.  1.
<mgrwt>
<rscale>  0 0.88391637E+02</rscale>
<asrwt>0</asrwt>
<pdfrwt beam="1">  1        2 0.18376040E-01 0.88391637E+02</pdfrwt>
<pdfrwt beam="2">  1       -2 0.15229813E-01 0.88391637E+02</pdfrwt>
<totfact> 0.92760435E+03</totfact>
</mgrwt>
</event>
<event>
 4    1  0.1123525E-001  0.1018656E+03  0.7546771E-02  0.1276421E+00
         -2   -1    0    0    0  501 -0.00000000000E+00  0.00000000000E+00  0.95658964620E+02  0.95658964620E+02  0.00000000000E+00 0.  1.
          2   -1    0    0  501    0  0.00000000000E+00 -0.00000000000E+00 -0.16005012170E+03  0.16005012170E+03  0.00000000000E+00 0. -1.
         24    1    1    2    0    0 -0.24808712053E+02  0.57392642056E+02  0.40382991766E+02  0.10957823477E+03  0.80419002446E+02 0.  1.
        -24    1    1    2    0    0  0.24808712053E+02 -0.57392642056E+02 -0.10477414885E+03  0.14613085156E+03  0.80419002446E+02 0. -1.
<mgrwt>
<rscale>  0 0.10186563E+03</rscale>
<asrwt>0</asrwt>
<pdfrwt beam="1">  1        2 0.24623095E-01 0.10186564E+03</pdfrwt>
<pdfrwt beam="2">  1       -2 0.14716764E-01 0.10186564E+03</pdfrwt>
<totfact> 0.71708166E+03</totfact>
</mgrwt>
</event>
<event>
 4    1  0.1533614E-001  0.8725524E+02  0.7546771E-02  0.1309638E+00
         -1   -1    0    0    0  501 -0.00000000000E+00  0.00000000000E+00  0.16905749691E+04  0.16905749691E+04  0.00000000000E+00 0.  1.
          1   -1    0    0  501    0  0.00000000000E+00 -0.00000000000E+00 -0.66972151867E+01  0.66972151867E+01  0.00000000000E+00 0. -1.
         24    1    1    2    0    0  0.24753948975E+02 -0.23097668970E+02  0.13276366797E+04  0.13305008942E+04  0.80419002446E+02 0.  1.
        -24    1    1    2    0    0 -0.24753948975E+02  0.23097668970E+02  0.35624107428E+03  0.36677129012E+03  0.80419002446E+02 0. -1.
<mgrwt>
<rscale>  0 0.87255236E+02</rscale>
<asrwt>0</asrwt>
<pdfrwt beam="1">  1        1 0.10303421E-02 0.87255236E+02</pdfrwt>
<pdfrwt beam="2">  1       -1 0.26008812E+00 0.87255236E+02</pdfrwt>
<totfact> 0.10252813E+03</totfact>
</mgrwt>
</event>
<event>
 4    1  0.1123525E-001  0.8860326E+02  0.7546771E-02  0.1306270E+00
         -4   -1    0    0    0  501 -0.00000000000E+00  0.00000000000E+00  0.31667306979E+02  0.31667306979E+02  0.00000000000E+00 0.  1.
          4   -1    0    0  501    0  0.00000000000E+00 -0.00000000000E+00 -0.28649292038E+03  0.28649292038E+03  0.00000000000E+00 0. -1.
         24    1    1    2    0    0 -0.42532658312E+01 -0.36949042497E+02 -0.18579427259E+03  0.20583986420E+03  0.80419002446E+02 0. -1.
        -24    1    1    2    0    0  0.42532658312E+01  0.36949042497E+02 -0.69031340808E+02  0.11232036316E+03  0.80419002446E+02 0.  1.
<mgrwt>
<rscale>  0 0.88603262E+02</rscale>
<asrwt>0</asrwt>
<pdfrwt beam="1">  1        4 0.44075835E-01 0.88603262E+02</pdfrwt>
<pdfrwt beam="2">  1       -4 0.48718933E-02 0.88603262E+02</pdfrwt>
<totfact> 0.18499957E+03</totfact>
</mgrwt>
</event>
<event>
 4    1  0.1123525E-001  0.1078792E+03  0.7546771E-02  0.1264548E+00
         -1   -1    0    0    0  501 -0.00000000000E+00  0.00000000000E+00  0.82228136592E+01  0.82228136592E+01  0.00000000000E+00 0.  1.
          1   -1    0    0  501    0  0.00000000000E+00 -0.00000000000E+00 -0.14204064102E+04  0.14204064102E+04  0.00000000000E+00 0. -1.
         24    1    1    2    0    0  0.59465935395E+02 -0.40429100501E+02 -0.74883052540E+03  0.75656135334E+03  0.80419002446E+02 0.  1.
        -24    1    1    2    0    0 -0.59465935395E+02  0.40429100501E+02 -0.66335307111E+03  0.67206787049E+03  0.80419002446E+02 0. -1.
<mgrwt>
<rscale>  0 0.10787923E+03</rscale>
<asrwt>0</asrwt>
<pdfrwt beam="1">  1        1 0.21852395E+00 0.10787924E+03</pdfrwt>
<pdfrwt beam="2">  1       -1 0.12650489E-02 0.10787924E+03</pdfrwt>
<totfact> 0.10375241E+04</totfact>
</mgrwt>
</event>
<event>
 4    1  0.1123525E-001  0.8426484E+02  0.7546771E-02  0.1317366E+00
         -2   -1    0    0    0  501 -0.00000000000E+00  0.00000000000E+00  0.54818465060E+01  0.54818465060E+01  0.00000000000E+00 0.  1.
          2   -1    0    0  501    0  0.00000000000E+00 -0.00000000000E+00 -0.19189677839E+04  0.19189677839E+04  0.00000000000E+00 0. -1.
         24    1    1    2    0    0  0.17347335046E+02 -0.18232309451E+02 -0.15053027747E+04  0.15076594465E+04  0.80419002446E+02 0. -1.
        -24    1    1    2    0    0 -0.17347335046E+02  0.18232309451E+02 -0.40818316272E+03  0.41679018393E+03  0.80419002446E+02 0.  1.
<mgrwt>
<rscale>  0 0.84264839E+02</rscale>
<asrwt>0</asrwt>
<pdfrwt beam="1">  1        2 0.29522569E+00 0.84264839E+02</pdfrwt>
<pdfrwt beam="2">  1       -2 0.84336136E-03 0.84264839E+02</pdfrwt>
<totfact> 0.21090662E+04</totfact>
</mgrwt>
</event>
<event>
 4    1  0.1123525E-001  0.8297435E+02  0.7546771E-02  0.1320816E+00
          2   -1    0    0  501    0  0.00000000000E+00  0.00000000000E+00  0.91321534458E+03  0.91321534458E+03  0.00000000000E+00 0. -1.
         -2   -1    0    0    0  501 -0.00000000000E+00 -0.00000000000E+00 -0.16524761626E+02  0.16524761626E+02  0.00000000000E+00 0.  1.
         24    1    1    2    0    0  0.10790258962E+02  0.17352150939E+02  0.79114550941E+03  0.79548473263E+03  0.80419002446E+02 0. -1.
        -24    1    1    2    0    0 -0.10790258962E+02 -0.17352150939E+02  0.10554507355E+03  0.13425537358E+03  0.80419002446E+02 0.  1.
<mgrwt>
<rscale>  0 0.82974350E+02</rscale>
<asrwt>0</asrwt>
<pdfrwt beam="1">  1        2 0.14049463E+00 0.82974350E+02</pdfrwt>
<pdfrwt beam="2">  1       -2 0.25422717E-02 0.82974350E+02</pdfrwt>
<totfact> 0.14868085E+04</totfact>
</mgrwt>
</event>
<event>
 4    1  0.1123525E-001  0.9852807E+02  0.7546771E-02  0.1283422E+00
         -2   -1    0    0    0  501 -0.00000000000E+00  0.00000000000E+00  0.42409472214E+02  0.42409472214E+02  0.00000000000E+00 0.  1.
          2   -1    0    0  501    0  0.00000000000E+00 -0.00000000000E+00 -0.26654265302E+03  0.26654265302E+03  0.00000000000E+00 0. -1.
         24    1    1    2    0    0  0.54955367009E+02 -0.14848325384E+02 -0.17011409351E+03  0.19658734927E+03  0.80419002446E+02 0. -1.
        -24    1    1    2    0    0 -0.54955367009E+02  0.14848325384E+02 -0.54019087296E+02  0.11236477596E+03  0.80419002446E+02 0.  1.
<mgrwt>
<rscale>  0 0.98528073E+02</rscale>
<asrwt>0</asrwt>
<pdfrwt beam="1">  1        2 0.41006563E-01 0.98528073E+02</pdfrwt>
<pdfrwt beam="2">  1       -2 0.65245340E-02 0.98528073E+02</pdfrwt>
<totfact> 0.14731408E+04</totfact>
</mgrwt>
</event>
<event>
 4    1  0.1123525E-001  0.1023713E+03  0.7546771E-02  0.1275387E+00
         -1   -1    0    0    0  501 -0.00000000000E+00  0.00000000000E+00  0.82710963306E+03  0.82710963306E+03  0.00000000000E+00 0.  1.
          1   -1    0    0  501    0  0.00000000000E+00 -0.00000000000E+00 -0.13564681489E+02  0.13564681489E+02  0.00000000000E+00 0. -1.
         24    1    1    2    0    0 -0.56512388492E+02 -0.28618446123E+02  0.51469425354E+03  0.52477619619E+03  0.80419002446E+02 0.  0.
        -24    1    1    2    0    0  0.56512388492E+02  0.28618446123E+02  0.29885069803E+03  0.31589811836E+03  0.80419002446E+02 0.  1.
<mgrwt>
<rscale>  0 0.10237129E+03</rscale>
<asrwt>0</asrwt>
<pdfrwt beam="1">  1        1 0.20868747E-02 0.10237129E+03</pdfrwt>
<pdfrwt beam="2">  1       -1 0.12724760E+00 0.10237129E+03</pdfrwt>
<totfact> 0.30865383E+03</totfact>
</mgrwt>
</event>
<event>
 4    1  0.1123525E-001  0.1072645E+03  0.7546771E-02  0.1265721E+00
          2   -1    0    0  501    0  0.00000000000E+00  0.00000000000E+00  0.11782008443E+04  0.11782008443E+04  0.00000000000E+00 0. -1.
         -2   -1    0    0    0  501 -0.00000000000E+00 -0.00000000000E+00 -0.98288210364E+01  0.98288210364E+01  0.00000000000E+00 0.  1.
         24    1    1    2    0    0 -0.70875902038E+02  0.38800479678E+01  0.63188222407E+03  0.64092184337E+03  0.80419002446E+02 0. -1.
        -24    1    1    2    0    0  0.70875902038E+02 -0.38800479678E+01  0.53648979924E+03  0.54710782201E+03  0.80419002446E+02 0.  1.
<mgrwt>
<rscale>  0 0.10726446E+03</rscale>
<asrwt>0</asrwt>
<pdfrwt beam="1">  1        2 0.18126156E+00 0.10726446E+03</pdfrwt>
<pdfrwt beam="2">  1       -2 0.15121272E-02 0.10726446E+03</pdfrwt>
<totfact> 0.22518573E+04</totfact>
</mgrwt>
</event>
<event>
 4    1  0.1123525E-001  0.9127269E+02  0.7546771E-02  0.1299799E+00
         -2   -1    0    0    0  501 -0.00000000000E+00  0.00000000000E+00  0.87571790788E+01  0.87571790788E+01  0.00000000000E+00 0.  1.
          2   -1    0    0  501    0  0.00000000000E+00 -0.00000000000E+00 -0.95244346104E+03  0.95244346104E+03  0.00000000000E+00 0. -1.
         24    1    1    2    0    0 -0.42980682398E+02 -0.40179450037E+01 -0.45518618198E+03  0.46424687308E+03  0.80419002446E+02 0.  1.
        -24    1    1    2    0    0  0.42980682398E+02  0.40179450037E+01 -0.48850009998E+03  0.49695376704E+03  0.80419002446E+02 0. -1.
<mgrwt>
<rscale>  0 0.91272674E+02</rscale>
<asrwt>0</asrwt>
<pdfrwt beam="1">  1        2 0.14652976E+00 0.91272685E+02</pdfrwt>
<pdfrwt beam="2">  1       -2 0.13472583E-02 0.91272685E+02</pdfrwt>
<totfact> 0.35257926E+04</totfact>
</mgrwt>
</event>
<event>
 4    1  0.1123525E-001  0.8690743E+02  0.7546771E-02  0.1310518E+00
         -1   -1    0    0    0  501 -0.00000000000E+00  0.00000000000E+00  0.22712570151E+02  0.22712570151E+02  0.00000000000E+00 0.  1.
          1   -1    0    0  501    0  0.00000000000E+00 -0.00000000000E+00 -0.33388200144E+03  0.33388200144E+03  0.00000000000E+00 0. -1.
         24    1    1    2    0    0 -0.25110797924E+02  0.21333867456E+02 -0.14429277325E+03  0.16844377828E+03  0.80419002446E+02 0. -1.
        -24    1    1    2    0    0  0.25110797924E+02 -0.21333867456E+02 -0.16687665804E+03  0.18815079331E+03  0.80419002446E+02 0.  1.
<mgrwt>
<rscale>  0 0.86907434E+02</rscale>
<asrwt>0</asrwt>
<pdfrwt beam="1">  1        1 0.51366460E-01 0.86907434E+02</pdfrwt>
<pdfrwt beam="2">  1       -1 0.34942417E-02 0.86907434E+02</pdfrwt>
<totfact> 0.20539962E+04</totfact>
</mgrwt>
</event>
<event>
 4    1  0.1123525E-001  0.8123641E+02  0.7546771E-02  0.1325579E+00
         -1   -1    0    0    0  501 -0.00000000000E+00  0.00000000000E+00  0.27073291790E+03  0.27073291790E+03  0.00000000000E+00 0.  1.
          1   -1    0    0  501    0  0.00000000000E+00 -0.00000000000E+00 -0.43692677638E+02  0.43692677638E+02  0.00000000000E+00 0. -1.
         24    1    1    2    0    0  0.11304928023E+02  0.20824767159E+01  0.21805256118E+03  0.23269351838E+03  0.80419002446E+02 0.  1.
        -24    1    1    2    0    0 -0.11304928023E+02 -0.20824767159E+01  0.89876790868E+01  0.81732077158E+02  0.80419002446E+02 0.  0.
<mgrwt>
<rscale>  0 0.81236408E+02</rscale>
<asrwt>0</asrwt>
<pdfrwt beam="1">  1        1 0.67219506E-02 0.81236408E+02</pdfrwt>
<pdfrwt beam="2">  1       -1 0.41651217E-01 0.81236408E+02</pdfrwt>
<totfact> 0.57846198E+03</totfact>
</mgrwt>
</event>
<event>
 4    1  0.1123525E-001  0.1232604E+03  0.7546771E-02  0.1237813E+00
         -2   -1    0    0    0  501 -0.00000000000E+00  0.00000000000E+00  0.16773919693E+02  0.16773919693E+02  0.00000000000E+00 0.  1.
          2   -1    0    0  501    0  0.00000000000E+00 -0.00000000000E+00 -0.11183650015E+04  0.11183650015E+04  0.00000000000E+00 0. -1.
         24    1    1    2    0    0 -0.93226478027E+02 -0.58932604677E+01 -0.30332964060E+03  0.32741715524E+03  0.80419002446E+02 0.  1.
        -24    1    1    2    0    0  0.93226478027E+02  0.58932604677E+01 -0.79826144119E+03  0.80772176594E+03  0.80419002446E+02 0. -1.
<mgrwt>
<rscale>  0 0.12326040E+03</rscale>
<asrwt>0</asrwt>
<pdfrwt beam="1">  1        2 0.17205617E+00 0.12326042E+03</pdfrwt>
<pdfrwt beam="2">  1       -2 0.25806029E-02 0.12326042E+03</pdfrwt>
<totfact> 0.11337230E+04</totfact>
</mgrwt>
</event>
<event>
 4    1  0.1123525E-001  0.1018046E+03  0.7546771E-02  0.1276546E+00
          3   -1    0    0  501    0  0.00000000000E+00  0.00000000000E+00  0.83129691119E+03  0.83129691119E+03  0.00000000000E+00 0. -1.
         -3   -1    0    0    0  501 -0.00000000000E+00 -0.00000000000E+00 -0.15480363863E+02  0.15480363863E+02  0.00000000000E+00 0.  1.
         24    1    1    2    0    0  0.44804327590E+02  0.43468662114E+02  0.22112386633E+03  0.24343363073E+03  0.80419002446E+02 0.  1.
        -24    1    1    2    0    0 -0.44804327590E+02 -0.43468662114E+02  0.59469268099E+03  0.60334364432E+03  0.80419002446E+02 0. -1.
<mgrwt>
<rscale>  0 0.10180456E+03</rscale>
<asrwt>0</asrwt>
<pdfrwt beam="1">  1        3 0.12789180E+00 0.10180456E+03</pdfrwt>
<pdfrwt beam="2">  1       -3 0.23815951E-02 0.10180456E+03</pdfrwt>
<totfact> 0.81904811E+02</totfact>
</mgrwt>
</event>
<event>
 4    1  0.1123525E-001  0.8065922E+02  0.7546771E-02  0.1327191E+00
          1   -1    0    0  501    0  0.00000000000E+00  0.00000000000E+00  0.15767134671E+04  0.15767134671E+04  0.00000000000E+00 0. -1.
         -1   -1    0    0    0  501 -0.00000000000E+00 -0.00000000000E+00 -0.64778092990E+01  0.64778092990E+01  0.00000000000E+00 0.  1.
         24    1    1    2    0    0  0.15438115113E+00 -0.62181993229E+01  0.12620622335E+04  0.12646370970E+04  0.80419002446E+02 0.  0.
        -24    1    1    2    0    0 -0.15438115113E+00  0.62181993229E+01  0.30817342433E+03  0.31855417947E+03  0.80419002446E+02 0.  1.
<mgrwt>
<rscale>  0 0.80659205E+02</rscale>
<asrwt>0</asrwt>
<pdfrwt beam="1">  1        1 0.24257100E+00 0.80659215E+02</pdfrwt>
<pdfrwt beam="2">  1       -1 0.99658730E-03 0.80659215E+02</pdfrwt>
<totfact> 0.11350133E+04</totfact>
</mgrwt>
</event>
<event>
 4    1  0.1282387E-001  0.9455982E+02  0.7546771E-02  0.1292171E+00
          1   -1    0    0  501    0  0.00000000000E+00  0.00000000000E+00  0.31105634463E+03  0.31105634463E+03  0.00000000000E+00 0. -1.
         -1   -1    0    0    0  501 -0.00000000000E+00 -0.00000000000E+00 -0.86370537430E+02  0.86370537430E+02  0.00000000000E+00 0.  1.
         24    1    1    2    0    0 -0.49618208296E+02 -0.35180200144E+01 -0.49968475081E+02  0.10695049096E+03  0.80419002446E+02 0.  1.
        -24    1    1    2    0    0  0.49618208296E+02  0.35180200144E+01  0.27465428228E+03  0.29047639110E+03  0.80419002446E+02 0. -1.
<mgrwt>
<rscale>  0 0.94559817E+02</rscale>
<asrwt>0</asrwt>
<pdfrwt beam="1">  1        1 0.47854822E-01 0.94559817E+02</pdfrwt>
<pdfrwt beam="2">  1       -1 0.13287775E-01 0.94559817E+02</pdfrwt>
<totfact> 0.31045115E+03</totfact>
</mgrwt>
</event>
<event>
 4    1  0.1123525E-001  0.1285386E+03  0.7546771E-02  0.1229640E+00
          2   -1    0    0  501    0  0.00000000000E+00  0.00000000000E+00  0.29309263794E+03  0.29309263794E+03  0.00000000000E+00 0. -1.
         -2   -1    0    0    0  501 -0.00000000000E+00 -0.00000000000E+00 -0.56640191440E+02  0.56640191440E+02  0.00000000000E+00 0.  1.
         24    1    1    2    0    0  0.80977759304E+02  0.59140179618E+02  0.10619007015E+03  0.16672883763E+03  0.80419002446E+02 0. -1.
        -24    1    1    2    0    0 -0.80977759304E+02 -0.59140179618E+02  0.13026237636E+03  0.18300399175E+03  0.80419002446E+02 0.  0.
<mgrwt>
<rscale>  0 0.12853863E+03</rscale>
<asrwt>0</asrwt>
<pdfrwt beam="1">  1        2 0.45091174E-01 0.12853864E+03</pdfrwt>
<pdfrwt beam="2">  1       -2 0.87138758E-02 0.12853864E+03</pdfrwt>
<totfact> 0.87519714E+03</totfact>
</mgrwt>
</event>
<event>
 4    1  0.1123525E-001  0.8511554E+02  0.7546771E-02  0.1315131E+00
          2   -1    0    0  501    0  0.00000000000E+00  0.00000000000E+00  0.34773076768E+03  0.34773076768E+03  0.00000000000E+00 0. -1.
         -2   -1    0    0    0  501 -0.00000000000E+00 -0.00000000000E+00 -0.30638405288E+02  0.30638405288E+02  0.00000000000E+00 0.  1.
         24    1    1    2    0    0  0.48555000375E+01  0.27456565592E+02  0.26556527279E+03  0.27887195797E+03  0.80419002446E+02 0. -1.
        -24    1    1    2    0    0 -0.48555000375E+01 -0.27456565592E+02  0.51527089595E+02  0.99497214992E+02  0.80419002446E+02 0.  1.
<mgrwt>
<rscale>  0 0.85115538E+02</rscale>
<asrwt>0</asrwt>
<pdfrwt beam="1">  1        2 0.53497038E-01 0.85115538E+02</pdfrwt>
<pdfrwt beam="2">  1       -2 0.47136011E-02 0.85115538E+02</pdfrwt>
<totfact> 0.17872864E+04</totfact>
</mgrwt>
</event>
<event>
 4    1  0.1123525E-001  0.1360558E+03  0.7546771E-02  0.1218737E+00
          1   -1    0    0  501    0  0.00000000000E+00  0.00000000000E+00  0.35120991920E+03  0.35120991920E+03  0.00000000000E+00 0. -1.
         -1   -1    0    0    0  501 -0.00000000000E+00 -0.00000000000E+00 -0.53515923888E+02  0.53515923888E+02  0.00000000000E+00 0.  1.
         24    1    1    2    0    0  0.91158238847E+02 -0.61107553257E+02  0.12396531773E+03  0.18406133089E+03  0.80419002446E+02 0.  1.
        -24    1    1    2    0    0 -0.91158238847E+02  0.61107553257E+02  0.17372867758E+03  0.22066451220E+03  0.80419002446E+02 0.  0.
<mgrwt>
<rscale>  0 0.13605577E+03</rscale>
<asrwt>0</asrwt>
<pdfrwt beam="1">  1        1 0.54032294E-01 0.13605577E+03</pdfrwt>
<pdfrwt beam="2">  1       -1 0.82332193E-02 0.13605577E+03</pdfrwt>
<totfact> 0.56547142E+03</totfact>
</mgrwt>
</event>
<event>
 4    1  0.1197838E-001  0.1319404E+03  0.7546771E-02  0.1224605E+00
         -1   -1    0    0    0  501 -0.00000000000E+00  0.00000000000E+00  0.14797279323E+03  0.14797279323E+03  0.00000000000E+00 0.  1.
          1   -1    0    0  501    0  0.00000000000E+00 -0.00000000000E+00 -0.42020011068E+03  0.42020011068E+03  0.00000000000E+00 0. -1.
         24    1    1    2    0    0 -0.58270793032E+02  0.86865197349E+02  0.10494607153E+03  0.16858808296E+03  0.80419002446E+02 0.  1.
        -24    1    1    2    0    0  0.58270793032E+02 -0.86865197349E+02 -0.37717338898E+03  0.39958482096E+03  0.80419002446E+02 0. -1.
<mgrwt>
<rscale>  0 0.13194038E+03</rscale>
<asrwt>0</asrwt>
<pdfrwt beam="1">  1        1 0.64646168E-01 0.13194038E+03</pdfrwt>
<pdfrwt beam="2">  1       -1 0.22765046E-01 0.13194038E+03</pdfrwt>
<totfact> 0.92273212E+02</totfact>
</mgrwt>
</event>
<event>
 4    1  0.1123525E-001  0.8930904E+02  0.7546771E-02  0.1304534E+00
         -2   -1    0    0    0  501 -0.00000000000E+00  0.00000000000E+00  0.49019587554E+02  0.49019587554E+02  0.00000000000E+00 0.  1.
          2   -1    0    0  501    0  0.00000000000E+00 -0.00000000000E+00 -0.16522819090E+03  0.16522819090E+03  0.00000000000E+00 0. -1.
         24    1    1    2    0    0 -0.18238981995E+02 -0.34296175276E+02 -0.71322282543E+02  0.11429335958E+03  0.80419002446E+02 0. -1.
        -24    1    1    2    0    0  0.18238981995E+02  0.34296175276E+02 -0.44886320804E+02  0.99954418874E+02  0.80419002446E+02 0.  1.
<mgrwt>
<rscale>  0 0.89309037E+02</rscale>
<asrwt>0</asrwt>
<pdfrwt beam="1">  1        2 0.25419722E-01 0.89309037E+02</pdfrwt>
<pdfrwt beam="2">  1       -2 0.75414749E-02 0.89309037E+02</pdfrwt>
<totfact> 0.19491993E+04</totfact>
</mgrwt>
</event>
<event>
 4    1  0.1123525E-001  0.1110616E+03  0.7546771E-02  0.1258617E+00
          2   -1    0    0  501    0  0.00000000000E+00  0.00000000000E+00  0.12062696960E+04  0.12062696960E+04  0.00000000000E+00 0. -1.
         -2   -1    0    0    0  501 -0.00000000000E+00 -0.00000000000E+00 -0.10231589254E+02  0.10231589254E+02  0.00000000000E+00 0.  1.
         24    1    1    2    0    0  0.64215579945E+02 -0.41758967966E+02  0.58313737166E+03  0.59361929071E+03  0.80419002446E+02 0.  1.
        -24    1    1    2    0    0 -0.64215579945E+02  0.41758967966E+02  0.61290073507E+03  0.62288199454E+03  0.80419002446E+02 0. -1.
<mgrwt>
<rscale>  0 0.11106156E+03</rscale>
<asrwt>0</asrwt>
<pdfrwt beam="1">  1        2 0.18557984E+00 0.11106158E+03</pdfrwt>
<pdfrwt beam="2">  1       -2 0.15740916E-02 0.11106158E+03</pdfrwt>
<totfact> 0.20571007E+04</totfact>
</mgrwt>
</event>
<event>
 4    1  0.1123525E-001  0.8316288E+02  0.7546771E-02  0.1320308E+00
         -1   -1    0    0    0  501 -0.00000000000E+00  0.00000000000E+00  0.23307394780E+02  0.23307394780E+02  0.00000000000E+00 0.  1.
          1   -1    0    0  501    0  0.00000000000E+00 -0.00000000000E+00 -0.45811837775E+03  0.45811837775E+03  0.00000000000E+00 0. -1.
         24    1    1    2    0    0 -0.21095298006E+02  0.19590227595E+01 -0.74534839008E+02  0.11167590406E+03  0.80419002446E+02 0.  0.
        -24    1    1    2    0    0  0.21095298006E+02 -0.19590227595E+01 -0.36027614396E+03  0.36974986846E+03  0.80419002446E+02 0.  0.
<mgrwt>
<rscale>  0 0.83162884E+02</rscale>
<asrwt>0</asrwt>
<pdfrwt beam="1">  1        1 0.70479750E-01 0.83162884E+02</pdfrwt>
<pdfrwt beam="2">  1       -1 0.35857530E-02 0.83162884E+02</pdfrwt>
<totfact> 0.13311583E+04</totfact>
</mgrwt>
</event>
<event>
 4    1  0.1123525E-001  0.9059183E+02  0.7546771E-02  0.1301425E+00
         -2   -1    0    0    0  501 -0.00000000000E+00  0.00000000000E+00  0.34403627716E+03  0.34403627716E+03  0.00000000000E+00 0.  1.
          2   -1    0    0  501    0  0.00000000000E+00 -0.00000000000E+00 -0.28632439359E+02  0.28632439359E+02  0.00000000000E+00 0. -1.
         24    1    1    2    0    0 -0.35414319718E+02  0.22033845820E+02  0.81586045508E+02  0.12191457328E+03  0.80419002446E+02 0. -1.
        -24    1    1    2    0    0  0.35414319718E+02 -0.22033845820E+02  0.23381779230E+03  0.25075414324E+03  0.80419002446E+02 0.  1.
<mgrwt>
<rscale>  0 0.90591834E+02</rscale>
<asrwt>0</asrwt>
<pdfrwt beam="1">  1        2 0.44049909E-02 0.90591834E+02</pdfrwt>
<pdfrwt beam="2">  1       -2 0.52928655E-01 0.90591834E+02</pdfrwt>
<totfact> 0.58098550E+03</totfact>
</mgrwt>
</event>
<event>
 4    1  0.1123525E-001  0.1517250E+03  0.7546771E-02  0.1198369E+00
         -1   -1    0    0    0  501 -0.00000000000E+00  0.00000000000E+00  0.18748012043E+03  0.18748012043E+03  0.00000000000E+00 0.  1.
          1   -1    0    0  501    0  0.00000000000E+00 -0.00000000000E+00 -0.14541875812E+03  0.14541875812E+03  0.00000000000E+00 0. -1.
         24    1    1    2    0    0 -0.12355883560E+03 -0.35867620769E+02  0.86692439840E+02  0.17474572142E+03  0.80419002446E+02 0.  1.
        -24    1    1    2    0    0  0.12355883560E+03  0.35867620769E+02 -0.44631077528E+02  0.15815315713E+03  0.80419002446E+02 0. -1.
<mgrwt>
<rscale>  0 0.15172504E+03</rscale>
<asrwt>0</asrwt>
<pdfrwt beam="1">  1        1 0.22372117E-01 0.15172504E+03</pdfrwt>
<pdfrwt beam="2">  1       -1 0.28843095E-01 0.15172504E+03</pdfrwt>
<totfact> 0.23549825E+03</totfact>
</mgrwt>
</event>
<event>
 4    1  0.1123525E-001  0.9526850E+02  0.7546771E-02  0.1290572E+00
         -2   -1    0    0    0  501 -0.00000000000E+00  0.00000000000E+00  0.82252520749E+01  0.82252520749E+01  0.00000000000E+00 0.  1.
          2   -1    0    0  501    0  0.00000000000E+00 -0.00000000000E+00 -0.11179452954E+04  0.11179452954E+04  0.00000000000E+00 0. -1.
         24    1    1    2    0    0  0.34355156023E+02  0.37796755501E+02 -0.61899565334E+03  0.62628404601E+03  0.80419002446E+02 0. -1.
        -24    1    1    2    0    0 -0.34355156023E+02 -0.37796755501E+02 -0.49072439000E+03  0.49988650149E+03  0.80419002446E+02 0.  1.
<mgrwt>
<rscale>  0 0.95268502E+02</rscale>
<asrwt>0</asrwt>
<pdfrwt beam="1">  1        2 0.17199161E+00 0.95268502E+02</pdfrwt>
<pdfrwt beam="2">  1       -2 0.12654232E-02 0.95268502E+02</pdfrwt>
<totfact> 0.31050746E+04</totfact>
</mgrwt>
</event>
<event>
 4    1  0.1123525E-001  0.2758182E+03  0.7546771E-02  0.1097995E+00
          4   -1    0    0  501    0  0.00000000000E+00  0.00000000000E+00  0.11963966558E+03  0.11963966558E+03  0.00000000000E+00 0. -1.
         -4   -1    0    0    0  501 -0.00000000000E+00 -0.00000000000E+00 -0.64088055365E+03  0.64088055365E+03  0.00000000000E+00 0.  1.
         24    1    1    2    0    0 -0.19722017152E+03  0.17525037389E+03 -0.22700965162E+03  0.35722414180E+03  0.80419002446E+02 0. -1.
        -24    1    1    2    0    0  0.19722017152E+03 -0.17525037389E+03 -0.29423123646E+03  0.40329607742E+03  0.80419002446E+02 0.  1.
<mgrwt>
<rscale>  0 0.27581825E+03</rscale>
<asrwt>0</asrwt>
<pdfrwt beam="1">  1        4 0.18406102E-01 0.27581825E+03</pdfrwt>
<pdfrwt beam="2">  1       -4 0.98597008E-01 0.27581825E+03</pdfrwt>
<totfact> 0.42571832E+01</totfact>
</mgrwt>
</event>
<event>
 4    1  0.1123525E-001  0.8919788E+02  0.7546771E-02  0.1304806E+00
         -2   -1    0    0    0  501 -0.00000000000E+00  0.00000000000E+00  0.18606730688E+02  0.18606730688E+02  0.00000000000E+00 0.  1.
          2   -1    0    0  501    0  0.00000000000E+00 -0.00000000000E+00 -0.66818577720E+03  0.66818577720E+03  0.00000000000E+00 0. -1.
         24    1    1    2    0    0  0.12613746597E+02 -0.36468327596E+02 -0.53084339421E+03  0.53828521311E+03  0.80419002446E+02 0. -1.
        -24    1    1    2    0    0 -0.12613746597E+02  0.36468327596E+02 -0.11873565231E+03  0.14850729478E+03  0.80419002446E+02 0.  1.
<mgrwt>
<rscale>  0 0.89197878E+02</rscale>
<asrwt>0</asrwt>
<pdfrwt beam="1">  1        2 0.10279782E+00 0.89197878E+02</pdfrwt>
<pdfrwt beam="2">  1       -2 0.28625738E-02 0.89197878E+02</pdfrwt>
<totfact> 0.18397827E+04</totfact>
</mgrwt>
</event>
<event>
 4    1  0.1123525E-001  0.8967361E+02  0.7546771E-02  0.1303644E+00
         -2   -1    0    0    0  501 -0.00000000000E+00  0.00000000000E+00  0.37154772987E+02  0.37154772987E+02  0.00000000000E+00 0.  1.
          2   -1    0    0  501    0  0.00000000000E+00 -0.00000000000E+00 -0.29878541458E+03  0.29878541458E+03  0.00000000000E+00 0. -1.
         24    1    1    2    0    0 -0.11051964860E+02 -0.38105034146E+02 -0.21900180685E+03  0.23664984030E+03  0.80419002446E+02 0. -1.
        -24    1    1    2    0    0  0.11051964860E+02  0.38105034146E+02 -0.42628834739E+02  0.99290347266E+02  0.80419002446E+02 0.  1.
<mgrwt>
<rscale>  0 0.89673605E+02</rscale>
<asrwt>0</asrwt>
<pdfrwt beam="1">  1        2 0.45966989E-01 0.89673605E+02</pdfrwt>
<pdfrwt beam="2">  1       -2 0.57161186E-02 0.89673605E+02</pdfrwt>
<totfact> 0.15803491E+04</totfact>
</mgrwt>
</event>
<event>
 4    1  0.1123525E-001  0.1201679E+03  0.7546771E-02  0.1242820E+00
          2   -1    0    0  501    0  0.00000000000E+00  0.00000000000E+00  0.18553486413E+02  0.18553486413E+02  0.00000000000E+00 0. -1.
         -2   -1    0    0    0  501 -0.00000000000E+00 -0.00000000000E+00 -0.96872419507E+03  0.96872419507E+03  0.00000000000E+00 0.  1.
         24    1    1    2    0    0 -0.30037662875E+02  0.84088348304E+02 -0.25622799388E+03  0.28300726547E+03  0.80419002446E+02 0. -1.
        -24    1    1    2    0    0  0.30037662875E+02 -0.84088348304E+02 -0.69394271479E+03  0.70427041601E+03  0.80419002446E+02 0.  1.
<mgrwt>
<rscale>  0 0.12016791E+03</rscale>
<asrwt>0</asrwt>
<pdfrwt beam="1">  1        2 0.28543817E-02 0.12016791E+03</pdfrwt>
<pdfrwt beam="2">  1       -2 0.14903453E+00 0.12016791E+03</pdfrwt>
<totfact> 0.10385281E+03</totfact>
</mgrwt>
</event>
<event>
 4    1  0.1123525E-001  0.1097913E+03  0.7546771E-02  0.1260957E+00
          2   -1    0    0  501    0  0.00000000000E+00  0.00000000000E+00  0.99606663904E+01  0.99606663904E+01  0.00000000000E+00 0. -1.
         -2   -1    0    0    0  501 -0.00000000000E+00 -0.00000000000E+00 -0.17913076605E+04  0.17913076605E+04  0.00000000000E+00 0.  1.
         24    1    1    2    0    0  0.73551856610E+02 -0.13305887458E+02 -0.37769236797E+03  0.39332640774E+03  0.80419002446E+02 0. -1.
        -24    1    1    2    0    0 -0.73551856610E+02  0.13305887458E+02 -0.14036546261E+04  0.14079419191E+04  0.80419002446E+02 0.  1.
<mgrwt>
<rscale>  0 0.10979134E+03</rscale>
<asrwt>0</asrwt>
<pdfrwt beam="1">  1        2 0.15324100E-02 0.10979134E+03</pdfrwt>
<pdfrwt beam="2">  1       -2 0.27558583E+00 0.10979134E+03</pdfrwt>
<totfact> 0.39525127E+02</totfact>
</mgrwt>
</event>
<event>
 4    1  0.1123525E-001  0.9149719E+02  0.7546771E-02  0.1299266E+00
         -2   -1    0    0    0  501 -0.00000000000E+00  0.00000000000E+00  0.51035079019E+02  0.51035079019E+02  0.00000000000E+00 0.  1.
          2   -1    0    0  501    0  0.00000000000E+00 -0.00000000000E+00 -0.16449428439E+03  0.16449428439E+03  0.00000000000E+00 0. -1.
         24    1    1    2    0    0  0.31215572064E+02  0.30497597306E+02 -0.51058670327E+02  0.10477938323E+03  0.80419002446E+02 0. -1.
        -24    1    1    2    0    0 -0.31215572064E+02 -0.30497597306E+02 -0.62400535041E+02  0.11074998017E+03  0.80419002446E+02 0.  1.
<mgrwt>
<rscale>  0 0.91497177E+02</rscale>
<asrwt>0</asrwt>
<pdfrwt beam="1">  1        2 0.25306813E-01 0.91497189E+02</pdfrwt>
<pdfrwt beam="2">  1       -2 0.78515506E-02 0.91497189E+02</pdfrwt>
<totfact> 0.18468956E+04</totfact>
</mgrwt>
</event>
<event>
 4    1  0.1123525E-001  0.8734213E+02  0.7546771E-02  0.1309419E+00
          2   -1    0    0  501    0  0.00000000000E+00  0.00000000000E+00  0.37628563485E+02  0.37628563485E+02  0.00000000000E+00 0. -1.
         -2   -1    0    0    0  501 -0.00000000000E+00 -0.00000000000E+00 -0.25168931503E+03  0.25168931503E+03  0.00000000000E+00 0.  1.
         24    1    1    2    0    0  0.12178988195E+02  0.31829289878E+02 -0.43232539536E+02  0.97456143350E+02  0.80419002446E+02 0. -1.
        -24    1    1    2    0    0 -0.12178988195E+02 -0.31829289878E+02 -0.17082821201E+03  0.19186173517E+03  0.80419002446E+02 0.  1.
<mgrwt>
<rscale>  0 0.87342128E+02</rscale>
<asrwt>0</asrwt>
<pdfrwt beam="1">  1        2 0.57890097E-02 0.87342128E+02</pdfrwt>
<pdfrwt beam="2">  1       -2 0.38721433E-01 0.87342128E+02</pdfrwt>
<totfact> 0.74264262E+03</totfact>
</mgrwt>
</event>
<event>
 4    1  0.1123525E-001  0.2401951E+03  0.7546771E-02  0.1119663E+00
         -1   -1    0    0    0  501 -0.00000000000E+00  0.00000000000E+00  0.68426613340E+03  0.68426613340E+03  0.00000000000E+00 0.  1.
          1   -1    0    0  501    0  0.00000000000E+00 -0.00000000000E+00 -0.11108184387E+03  0.11108184387E+03  0.00000000000E+00 0. -1.
         24    1    1    2    0    0 -0.99755341409E+02  0.20316327824E+03  0.91379906212E+02  0.25699017293E+03  0.80419002446E+02 0. -1.
        -24    1    1    2    0    0  0.99755341409E+02 -0.20316327824E+03  0.48180438332E+03  0.53835780435E+03  0.80419002446E+02 0.  1.
<mgrwt>
<rscale>  0 0.24019508E+03</rscale>
<asrwt>0</asrwt>
<pdfrwt beam="1">  1        1 0.17089515E-01 0.24019511E+03</pdfrwt>
<pdfrwt beam="2">  1       -1 0.10527171E+00 0.24019511E+03</pdfrwt>
<totfact> 0.28297627E+02</totfact>
</mgrwt>
</event>
<event>
 4    1  0.1123525E-001  0.1441106E+03  0.7546771E-02  0.1207902E+00
         -2   -1    0    0    0  501 -0.00000000000E+00  0.00000000000E+00  0.23392999791E+02  0.23392999791E+02  0.00000000000E+00 0.  1.
          2   -1    0    0  501    0  0.00000000000E+00 -0.00000000000E+00 -0.11666867847E+04  0.11666867847E+04  0.00000000000E+00 0. -1.
         24    1    1    2    0    0  0.11412559878E+03 -0.35721039661E+02 -0.86258304960E+03  0.87453838016E+03  0.80419002446E+02 0. -1.
        -24    1    1    2    0    0 -0.11412559878E+03  0.35721039661E+02 -0.28071073530E+03  0.31554140432E+03  0.80419002446E+02 0.  1.
<mgrwt>
<rscale>  0 0.14411059E+03</rscale>
<asrwt>0</asrwt>
<pdfrwt beam="1">  1        2 0.17949027E+00 0.14411059E+03</pdfrwt>
<pdfrwt beam="2">  1       -2 0.35989232E-02 0.14411059E+03</pdfrwt>
<totfact> 0.65798661E+03</totfact>
</mgrwt>
</event>
<event>
 4    1  0.1123525E-001  0.1394738E+03  0.7546771E-02  0.1214039E+00
          2   -1    0    0  501    0  0.00000000000E+00  0.00000000000E+00  0.38729107152E+03  0.38729107152E+03  0.00000000000E+00 0. -1.
         -2   -1    0    0    0  501 -0.00000000000E+00 -0.00000000000E+00 -0.65127140800E+02  0.65127140800E+02  0.00000000000E+00 0.  1.
         24    1    1    2    0    0  0.10973200612E+03 -0.30734684952E+02  0.26927670615E+03  0.30325384492E+03  0.80419002446E+02 0. -1.
        -24    1    1    2    0    0 -0.10973200612E+03  0.30734684952E+02  0.52887224563E+02  0.14916436740E+03  0.80419002446E+02 0.  1.
<mgrwt>
<rscale>  0 0.13947383E+03</rscale>
<asrwt>0</asrwt>
<pdfrwt beam="1">  1        2 0.59583240E-01 0.13947383E+03</pdfrwt>
<pdfrwt beam="2">  1       -2 0.10019560E-01 0.13947383E+03</pdfrwt>
<totfact> 0.52627073E+03</totfact>
</mgrwt>
</event>
<event>
 4    1  0.1123525E-001  0.1103152E+03  0.7546771E-02  0.1259987E+00
         -1   -1    0    0    0  501 -0.00000000000E+00  0.00000000000E+00  0.41197420660E+02  0.41197420660E+02  0.00000000000E+00 0.  1.
          1   -1    0    0  501    0  0.00000000000E+00 -0.00000000000E+00 -0.48440055263E+03  0.48440055263E+03  0.00000000000E+00 0. -1.
         24    1    1    2    0    0 -0.53655148922E+02 -0.53135155399E+02 -0.57444045843E+02  0.12437545619E+03  0.80419002446E+02 0.  1.
        -24    1    1    2    0    0  0.53655148922E+02  0.53135155399E+02 -0.38575908613E+03  0.40122251711E+03  0.80419002446E+02 0. -1.
<mgrwt>
<rscale>  0 0.11031517E+03</rscale>
<asrwt>0</asrwt>
<pdfrwt beam="1">  1        1 0.74523162E-01 0.11031517E+03</pdfrwt>
<pdfrwt beam="2">  1       -1 0.63380647E-02 0.11031517E+03</pdfrwt>
<totfact> 0.55053682E+03</totfact>
</mgrwt>
</event>
<event>
 4    1  0.1123525E-001  0.8760307E+02  0.7546771E-02  0.1308762E+00
          3   -1    0    0  501    0  0.00000000000E+00  0.00000000000E+00  0.18346976080E+04  0.18346976080E+04  0.00000000000E+00 0. -1.
         -3   -1    0    0    0  501 -0.00000000000E+00 -0.00000000000E+00 -0.48383191731E+01  0.48383191731E+01  0.00000000000E+00 0.  1.
         24    1    1    2    0    0 -0.68116227156E+01  0.34068806940E+02  0.57639647988E+03  0.58301560852E+03  0.80419002446E+02 0.  0.
        -24    1    1    2    0    0  0.68116227156E+01 -0.34068806940E+02  0.12534628090E+04  0.12565203187E+04  0.80419002446E+02 0.  1.
<mgrwt>
<rscale>  0 0.87603069E+02</rscale>
<asrwt>0</asrwt>
<pdfrwt beam="1">  1        3 0.28226062E+00 0.87603069E+02</pdfrwt>
<pdfrwt beam="2">  1       -3 0.74435826E-03 0.87603069E+02</pdfrwt>
<totfact> 0.52829411E+02</totfact>
</mgrwt>
</event>
<event>
 4    1  0.1123525E-001  0.1291521E+03  0.7546771E-02  0.1228719E+00
         -3   -1    0    0    0  501 -0.00000000000E+00  0.00000000000E+00  0.47662411698E+02  0.47662411698E+02  0.00000000000E+00 0.  1.
          3   -1    0    0  501    0  0.00000000000E+00 -0.00000000000E+00 -0.35011195673E+03  0.35011195673E+03  0.00000000000E+00 0. -1.
         24    1    1    2    0    0 -0.16625827694E+02 -0.99682559323E+02 -0.15527884225E+03  0.20196971452E+03  0.80419002446E+02 0.  1.
        -24    1    1    2    0    0  0.16625827694E+02  0.99682559323E+02 -0.14717070279E+03  0.19580465391E+03  0.80419002446E+02 0. -1.
<mgrwt>
<rscale>  0 0.12915205E+03</rscale>
<asrwt>0</asrwt>
<pdfrwt beam="1">  1        3 0.53863380E-01 0.12915206E+03</pdfrwt>
<pdfrwt beam="2">  1       -3 0.73326784E-02 0.12915206E+03</pdfrwt>
<totfact> 0.96798973E+02</totfact>
</mgrwt>
</event>
<event>
 4    1  0.1123525E-001  0.9428654E+02  0.7546771E-02  0.1292791E+00
          2   -1    0    0  501    0  0.00000000000E+00  0.00000000000E+00  0.13191770569E+03  0.13191770569E+03  0.00000000000E+00 0. -1.
         -2   -1    0    0    0  501 -0.00000000000E+00 -0.00000000000E+00 -0.96710418864E+02  0.96710418864E+02  0.00000000000E+00 0.  1.
         24    1    1    2    0    0  0.89341284900E+01  0.48403685334E+02  0.80546601168E+02  0.12400688013E+03  0.80419002446E+02 0. -1.
        -24    1    1    2    0    0 -0.89341284900E+01 -0.48403685334E+02 -0.45339314340E+02  0.10462124442E+03  0.80419002446E+02 0.  1.
<mgrwt>
<rscale>  0 0.94286539E+02</rscale>
<asrwt>0</asrwt>
<pdfrwt beam="1">  1        2 0.20295032E-01 0.94286539E+02</pdfrwt>
<pdfrwt beam="2">  1       -2 0.14878526E-01 0.94286539E+02</pdfrwt>
<totfact> 0.86676529E+03</totfact>
</mgrwt>
</event>
<event>
 4    1  0.1123525E-001  0.8968195E+02  0.7546771E-02  0.1303624E+00
          1   -1    0    0  501    0  0.00000000000E+00  0.00000000000E+00  0.28688756257E+03  0.28688756257E+03  0.00000000000E+00 0. -1.
         -1   -1    0    0    0  501 -0.00000000000E+00 -0.00000000000E+00 -0.41737517164E+02  0.41737517164E+02  0.00000000000E+00 0.  1.
         24    1    1    2    0    0 -0.30690190319E+02 -0.25174344727E+02  0.28427288974E+02  0.94079552120E+02  0.80419002446E+02 0.  0.
        -24    1    1    2    0    0  0.30690190319E+02  0.25174344727E+02  0.21672275643E+03  0.23454552761E+03  0.80419002446E+02 0.  0.
<mgrwt>
<rscale>  0 0.89681946E+02</rscale>
<asrwt>0</asrwt>
<pdfrwt beam="1">  1        1 0.44136547E-01 0.89681946E+02</pdfrwt>
<pdfrwt beam="2">  1       -1 0.64211567E-02 0.89681946E+02</pdfrwt>
<totfact> 0.10201545E+04</totfact>
</mgrwt>
</event>
<event>
 4    1  0.1123525E-001  0.1076729E+03  0.7546771E-02  0.1264941E+00
          2   -1    0    0  501    0  0.00000000000E+00  0.00000000000E+00  0.33527010744E+03  0.33527010744E+03  0.00000000000E+00 0. -1.
         -2   -1    0    0    0  501 -0.00000000000E+00 -0.00000000000E+00 -0.15155768166E+03  0.15155768166E+03  0.00000000000E+00 0.  1.
         24    1    1    2    0    0  0.68366052461E+02  0.21268065702E+02  0.30570602409E+03  0.32411361722E+03  0.80419002446E+02 0. -1.
        -24    1    1    2    0    0 -0.68366052461E+02 -0.21268065702E+02 -0.12199359831E+03  0.16271417188E+03  0.80419002446E+02 0.  1.
<mgrwt>
<rscale>  0 0.10767295E+03</rscale>
<asrwt>0</asrwt>
<pdfrwt beam="1">  1        2 0.51580016E-01 0.10767295E+03</pdfrwt>
<pdfrwt beam="2">  1       -2 0.23316567E-01 0.10767295E+03</pdfrwt>
<totfact> 0.15204855E+03</totfact>
</mgrwt>
</event>
<event>
 4    1  0.1123525E-001  0.8822625E+02  0.7546771E-02  0.1307205E+00
         -2   -1    0    0    0  501 -0.00000000000E+00  0.00000000000E+00  0.54717667382E+01  0.54717667382E+01  0.00000000000E+00 0.  1.
          2   -1    0    0  501    0  0.00000000000E+00 -0.00000000000E+00 -0.18124022902E+04  0.18124022902E+04  0.00000000000E+00 0. -1.
         24    1    1    2    0    0 -0.28328353365E+02  0.22675021192E+02 -0.48190866343E+03  0.48991818504E+03  0.80419002446E+02 0.  1.
        -24    1    1    2    0    0  0.28328353365E+02 -0.22675021192E+02 -0.13250218601E+04  0.13279558719E+04  0.80419002446E+02 0. -1.
<mgrwt>
<rscale>  0 0.88226244E+02</rscale>
<asrwt>0</asrwt>
<pdfrwt beam="1">  1        2 0.27883079E+00 0.88226255E+02</pdfrwt>
<pdfrwt beam="2">  1       -2 0.84181126E-03 0.88226255E+02</pdfrwt>
<totfact> 0.23979392E+04</totfact>
</mgrwt>
</event>
<event>
 4    1  0.1123525E-001  0.1170985E+03  0.7546771E-02  0.1247962E+00
         -1   -1    0    0    0  501 -0.00000000000E+00  0.00000000000E+00  0.19785850610E+02  0.19785850610E+02  0.00000000000E+00 0.  1.
          1   -1    0    0  501    0  0.00000000000E+00 -0.00000000000E+00 -0.74118593213E+03  0.74118593213E+03  0.00000000000E+00 0. -1.
         24    1    1    2    0    0  0.73400210733E+01  0.84799554080E+02 -0.26370938205E+03  0.28853889585E+03  0.80419002446E+02 0.  1.
        -24    1    1    2    0    0 -0.73400210733E+01 -0.84799554080E+02 -0.45769069947E+03  0.47243288689E+03  0.80419002446E+02 0.  0.
<mgrwt>
<rscale>  0 0.11709849E+03</rscale>
<asrwt>0</asrwt>
<pdfrwt beam="1">  1        1 0.11402857E+00 0.11709849E+03</pdfrwt>
<pdfrwt beam="2">  1       -1 0.30439780E-02 0.11709849E+03</pdfrwt>
<totfact> 0.90940704E+03</totfact>
</mgrwt>
</event>
<event>
 4    1  0.1123525E-001  0.9114771E+02  0.7546771E-02  0.1300096E+00
          2   -1    0    0  501    0  0.00000000000E+00  0.00000000000E+00  0.18781474291E+03  0.18781474291E+03  0.00000000000E+00 0. -1.
         -2   -1    0    0    0  501 -0.00000000000E+00 -0.00000000000E+00 -0.45298003397E+02  0.45298003397E+02  0.00000000000E+00 0.  1.
         24    1    1    2    0    0  0.15553375772E+02 -0.39984769166E+02  0.89117106919E+02  0.12747456202E+03  0.80419002446E+02 0.  0.
        -24    1    1    2    0    0 -0.15553375772E+02  0.39984769166E+02  0.53399632596E+02  0.10563818428E+03  0.80419002446E+02 0. -1.
<mgrwt>
<rscale>  0 0.91147711E+02</rscale>
<asrwt>0</asrwt>
<pdfrwt beam="1">  1        2 0.28894575E-01 0.91147711E+02</pdfrwt>
<pdfrwt beam="2">  1       -2 0.69689237E-02 0.91147711E+02</pdfrwt>
<totfact> 0.19177679E+04</totfact>
</mgrwt>
</event>
<event>
 4    1  0.1123525E-001  0.1038323E+03  0.7546771E-02  0.1272437E+00
         -1   -1    0    0    0  501 -0.00000000000E+00  0.00000000000E+00  0.96185533700E+02  0.96185533700E+02  0.00000000000E+00 0.  1.
          1   -1    0    0  501    0  0.00000000000E+00 -0.00000000000E+00 -0.11713065208E+03  0.11713065208E+03  0.00000000000E+00 0. -1.
         24    1    1    2    0    0  0.50705515578E+02  0.41747867710E+02  0.11659931230E+02  0.10448494494E+03  0.80419002446E+02 0.  1.
        -24    1    1    2    0    0 -0.50705515578E+02 -0.41747867710E+02 -0.32605049610E+02  0.10883124084E+03  0.80419002446E+02 0. -1.
<mgrwt>
<rscale>  0 0.10383232E+03</rscale>
<asrwt>0</asrwt>
<pdfrwt beam="1">  1        1 0.18020100E-01 0.10383232E+03</pdfrwt>
<pdfrwt beam="2">  1       -1 0.14797774E-01 0.10383232E+03</pdfrwt>
<totfact> 0.88589809E+03</totfact>
</mgrwt>
</event>
<event>
 4    1  0.1123525E-001  0.8123754E+02  0.7546771E-02  0.1325576E+00
          2   -1    0    0  501    0  0.00000000000E+00  0.00000000000E+00  0.41244646351E+03  0.41244646351E+03  0.00000000000E+00 0. -1.
         -2   -1    0    0    0  501 -0.00000000000E+00 -0.00000000000E+00 -0.55625894413E+02  0.55625894413E+02  0.00000000000E+00 0.  1.
         24    1    1    2    0    0  0.11500605456E+02 -0.23969286261E+00  0.37593834553E+03  0.38461562237E+03  0.80419002446E+02 0. -1.
        -24    1    1    2    0    0 -0.11500605456E+02  0.23969286261E+00 -0.19117776435E+02  0.83456735550E+02  0.80419002446E+02 0.  1.
<mgrwt>
<rscale>  0 0.81237536E+02</rscale>
<asrwt>0</asrwt>
<pdfrwt beam="1">  1        2 0.63453300E-01 0.81237536E+02</pdfrwt>
<pdfrwt beam="2">  1       -2 0.85578302E-02 0.81237536E+02</pdfrwt>
<totfact> 0.60760336E+03</totfact>
</mgrwt>
</event>
<event>
 4    1  0.1123525E-001  0.8341820E+02  0.7546771E-02  0.1319622E+00
         -1   -1    0    0    0  501 -0.00000000000E+00  0.00000000000E+00  0.18189825052E+02  0.18189825052E+02  0.00000000000E+00 0.  1.
          1   -1    0    0  501    0  0.00000000000E+00 -0.00000000000E+00 -0.63437857930E+03  0.63437857930E+03  0.00000000000E+00 0. -1.
         24    1    1    2    0    0 -0.20175644018E+02  0.91827763941E+01 -0.10251924206E+03  0.13216955376E+03  0.80419002446E+02 0.  1.
        -24    1    1    2    0    0  0.20175644018E+02 -0.91827763941E+01 -0.51366951218E+03  0.52039885059E+03  0.80419002446E+02 0. -1.
<mgrwt>
<rscale>  0 0.83418199E+02</rscale>
<asrwt>0</asrwt>
<pdfrwt beam="1">  1        1 0.97596719E-01 0.83418199E+02</pdfrwt>
<pdfrwt beam="2">  1       -1 0.27984342E-02 0.83418199E+02</pdfrwt>
<totfact> 0.12446797E+04</totfact>
</mgrwt>
</event>
<event>
 4    1  0.1123525E-001  0.8052314E+02  0.7546771E-02  0.1327573E+00
         -2   -1    0    0    0  501 -0.00000000000E+00  0.00000000000E+00  0.63196838785E+01  0.63196838785E+01  0.00000000000E+00 0.  1.
          2   -1    0    0  501    0  0.00000000000E+00 -0.00000000000E+00 -0.12093318661E+04  0.12093318661E+04  0.00000000000E+00 0. -1.
         24    1    1    2    0    0 -0.32086410847E+01  0.25425339694E+01 -0.83816838177E+03  0.84202744137E+03  0.80419002446E+02 0. -1.
        -24    1    1    2    0    0  0.32086410847E+01 -0.25425339694E+01 -0.36484380050E+03  0.37362410866E+03  0.80419002446E+02 0.  0.
<mgrwt>
<rscale>  0 0.80523138E+02</rscale>
<asrwt>0</asrwt>
<pdfrwt beam="1">  1        2 0.18605094E+00 0.80523138E+02</pdfrwt>
<pdfrwt beam="2">  1       -2 0.97225967E-03 0.80523138E+02</pdfrwt>
<totfact> 0.39535179E+04</totfact>
</mgrwt>
</event>
<event>
 4    1  0.1123525E-001  0.1126805E+03  0.7546771E-02  0.1255685E+00
         -1   -1    0    0    0  501 -0.00000000000E+00  0.00000000000E+00  0.43751081187E+02  0.43751081187E+02  0.00000000000E+00 0.  1.
          1   -1    0    0  501    0  0.00000000000E+00 -0.00000000000E+00 -0.61463949182E+03  0.61463949182E+03  0.00000000000E+00 0. -1.
         24    1    1    2    0    0 -0.78281569273E+02 -0.10083916674E+02 -0.46275139477E+02  0.12181253610E+03  0.80419002446E+02 0.  1.
        -24    1    1    2    0    0  0.78281569273E+02  0.10083916674E+02 -0.52461327116E+03  0.53657803691E+03  0.80419002446E+02 0. -1.
<mgrwt>
<rscale>  0 0.11268055E+03</rscale>
<asrwt>0</asrwt>
<pdfrwt beam="1">  1        1 0.94559921E-01 0.11268055E+03</pdfrwt>
<pdfrwt beam="2">  1       -1 0.67309357E-02 0.11268055E+03</pdfrwt>
<totfact> 0.36800881E+03</totfact>
</mgrwt>
</event>
<event>
 4    1  0.1123525E-001  0.8121493E+02  0.7546771E-02  0.1325639E+00
         -1   -1    0    0    0  501 -0.00000000000E+00  0.00000000000E+00  0.13287341301E+03  0.13287341301E+03  0.00000000000E+00 0.  1.
          1   -1    0    0  501    0  0.00000000000E+00 -0.00000000000E+00 -0.67574883247E+02  0.67574883247E+02  0.00000000000E+00 0. -1.
         24    1    1    2    0    0 -0.98484376969E+01  0.56265159620E+01  0.84282144082E+02  0.11704420179E+03  0.80419002446E+02 0.  0.
        -24    1    1    2    0    0  0.98484376969E+01 -0.56265159620E+01 -0.18983614320E+02  0.83404094468E+02  0.80419002446E+02 0. -1.
<mgrwt>
<rscale>  0 0.81214933E+02</rscale>
<asrwt>0</asrwt>
<pdfrwt beam="1">  1        1 0.10396136E-01 0.81214933E+02</pdfrwt>
<pdfrwt beam="2">  1       -1 0.20442064E-01 0.81214933E+02</pdfrwt>
<totfact> 0.10578089E+04</totfact>
</mgrwt>
</event>
<event>
 4    1  0.1123525E-001  0.9024523E+02  0.7546771E-02  0.1302259E+00
          2   -1    0    0  501    0  0.00000000000E+00  0.00000000000E+00  0.43996254157E+03  0.43996254157E+03  0.00000000000E+00 0. -1.
         -2   -1    0    0    0  501 -0.00000000000E+00 -0.00000000000E+00 -0.23865860417E+02  0.23865860417E+02  0.00000000000E+00 0.  1.
         24    1    1    2    0    0 -0.32209048835E+02 -0.25289573902E+02  0.31790030520E+03  0.33046150362E+03  0.80419002446E+02 0. -1.
        -24    1    1    2    0    0  0.32209048835E+02  0.25289573902E+02  0.98196375951E+02  0.13336689836E+03  0.80419002446E+02 0.  1.
<mgrwt>
<rscale>  0 0.90245229E+02</rscale>
<asrwt>0</asrwt>
<pdfrwt beam="1">  1        2 0.67686539E-01 0.90245229E+02</pdfrwt>
<pdfrwt beam="2">  1       -2 0.36716712E-02 0.90245229E+02</pdfrwt>
<totfact> 0.20279697E+04</totfact>
</mgrwt>
</event>
<event>
 4    1  0.1123525E-001  0.9182194E+02  0.7546771E-02  0.1298499E+00
         -2   -1    0    0    0  501 -0.00000000000E+00  0.00000000000E+00  0.77505628905E+02  0.77505628905E+02  0.00000000000E+00 0.  1.
          2   -1    0    0  501    0  0.00000000000E+00 -0.00000000000E+00 -0.39187812059E+03  0.39187812059E+03  0.00000000000E+00 0. -1.
         24    1    1    2    0    0  0.42007904079E+02  0.14120506645E+02 -0.35666148609E+03  0.36829157515E+03  0.80419002446E+02 0. -1.
        -24    1    1    2    0    0 -0.42007904079E+02 -0.14120506645E+02  0.42288994400E+02  0.10109217435E+03  0.80419002446E+02 0.  1.
<mgrwt>
<rscale>  0 0.91821940E+02</rscale>
<asrwt>0</asrwt>
<pdfrwt beam="1">  1        2 0.60288941E-01 0.91821940E+02</pdfrwt>
<pdfrwt beam="2">  1       -2 0.11923943E-01 0.91821940E+02</pdfrwt>
<totfact> 0.38589645E+03</totfact>
</mgrwt>
</event>
<event>
 4    1  0.1341401E-001  0.9466193E+02  0.7546771E-02  0.1291939E+00
          1   -1    0    0  501    0  0.00000000000E+00  0.00000000000E+00  0.36718887407E+03  0.36718887407E+03  0.00000000000E+00 0. -1.
         -1   -1    0    0    0  501 -0.00000000000E+00 -0.00000000000E+00 -0.91117997446E+02  0.91117997446E+02  0.00000000000E+00 0.  1.
         24    1    1    2    0    0  0.49718663499E+02  0.46605099085E+01 -0.58044305941E+02  0.11104063787E+03  0.80419002446E+02 0.  1.
        -24    1    1    2    0    0 -0.49718663499E+02 -0.46605099085E+01  0.33411518257E+03  0.34726623365E+03  0.80419002446E+02 0. -1.
<mgrwt>
<rscale>  0 0.94661934E+02</rscale>
<asrwt>0</asrwt>
<pdfrwt beam="1">  1        1 0.56490595E-01 0.94661934E+02</pdfrwt>
<pdfrwt beam="2">  1       -1 0.14018154E-01 0.94661934E+02</pdfrwt>
<totfact> 0.23313169E+03</totfact>
</mgrwt>
</event>
<event>
 4    1  0.1123525E-001  0.8972953E+02  0.7546771E-02  0.1303508E+00
          1   -1    0    0  501    0  0.00000000000E+00  0.00000000000E+00  0.38427265166E+03  0.38427265166E+03  0.00000000000E+00 0. -1.
         -1   -1    0    0    0  501 -0.00000000000E+00 -0.00000000000E+00 -0.22645362678E+02  0.22645362678E+02  0.00000000000E+00 0.  1.
         24    1    1    2    0    0  0.34428390222E+02  0.19971458044E+02  0.12518146856E+03  0.15401879501E+03  0.80419002446E+02 0.  1.
        -24    1    1    2    0    0 -0.34428390222E+02 -0.19971458044E+02  0.23644582042E+03  0.25289921933E+03  0.80419002446E+02 0. -1.
<mgrwt>
<rscale>  0 0.89729533E+02</rscale>
<asrwt>0</asrwt>
<pdfrwt beam="1">  1        1 0.59118865E-01 0.89729533E+02</pdfrwt>
<pdfrwt beam="2">  1       -1 0.34839022E-02 0.89729533E+02</pdfrwt>
<totfact> 0.17409914E+04</totfact>
</mgrwt>
</event>
<event>
 4    1  0.1123525E-001  0.9299994E+02  0.7546771E-02  0.1295745E+00
         -2   -1    0    0    0  501 -0.00000000000E+00  0.00000000000E+00  0.36094571691E+02  0.36094571691E+02  0.00000000000E+00 0.  1.
          2   -1    0    0  501    0  0.00000000000E+00 -0.00000000000E+00 -0.23970395924E+03  0.23970395924E+03  0.00000000000E+00 0. -1.
         24    1    1    2    0    0 -0.29588619989E+02 -0.36142525315E+02 -0.99225254778E+02  0.13599498413E+03  0.80419002446E+02 0.  0.
        -24    1    1    2    0    0  0.29588619989E+02  0.36142525315E+02 -0.10438413277E+03  0.13980354680E+03  0.80419002446E+02 0.  1.
<mgrwt>
<rscale>  0 0.92999928E+02</rscale>
<asrwt>0</asrwt>
<pdfrwt beam="1">  1        2 0.36877532E-01 0.92999940E+02</pdfrwt>
<pdfrwt beam="2">  1       -2 0.55530110E-02 0.92999940E+02</pdfrwt>
<totfact> 0.20867356E+04</totfact>
</mgrwt>
</event>
<event>
 4    1  0.1123525E-001  0.1409072E+03  0.7546771E-02  0.1212113E+00
          2   -1    0    0  501    0  0.00000000000E+00  0.00000000000E+00  0.95096000640E+02  0.95096000640E+02  0.00000000000E+00 0. -1.
         -2   -1    0    0    0  501 -0.00000000000E+00 -0.00000000000E+00 -0.24072538645E+03  0.24072538645E+03  0.00000000000E+00 0.  1.
         24    1    1    2    0    0 -0.10946323749E+03 -0.37489026253E+02 -0.11654138636E+02  0.14138833882E+03  0.80419002446E+02 0. -1.
        -24    1    1    2    0    0  0.10946323749E+03  0.37489026253E+02 -0.13397524717E+03  0.19443304827E+03  0.80419002446E+02 0.  1.
<mgrwt>
<rscale>  0 0.14090722E+03</rscale>
<asrwt>0</asrwt>
<pdfrwt beam="1">  1        2 0.14630154E-01 0.14090722E+03</pdfrwt>
<pdfrwt beam="2">  1       -2 0.37034675E-01 0.14090722E+03</pdfrwt>
<totfact> 0.26775481E+03</totfact>
</mgrwt>
</event>
<event>
 4    1  0.1123525E-001  0.1005480E+03  0.7546771E-02  0.1279148E+00
         -2   -1    0    0    0  501 -0.00000000000E+00  0.00000000000E+00  0.19104880019E+03  0.19104880019E+03  0.00000000000E+00 0.  1.
          2   -1    0    0  501    0  0.00000000000E+00 -0.00000000000E+00 -0.69655594787E+02  0.69655594787E+02  0.00000000000E+00 0. -1.
         24    1    1    2    0    0  0.44449029920E+02 -0.40828427920E+02 -0.32016169586E+01  0.10059892193E+03  0.80419002446E+02 0. -1.
        -24    1    1    2    0    0 -0.44449029920E+02  0.40828427920E+02  0.12459482236E+03  0.16010547305E+03  0.80419002446E+02 0. -1.
<mgrwt>
<rscale>  0 0.10054796E+03</rscale>
<asrwt>0</asrwt>
<pdfrwt beam="1">  1        2 0.10716245E-01 0.10054796E+03</pdfrwt>
<pdfrwt beam="2">  1       -2 0.29392123E-01 0.10054796E+03</pdfrwt>
<totfact> 0.57809693E+03</totfact>
</mgrwt>
</event>
<event>
 4    1  0.1123525E-001  0.8728083E+02  0.7546771E-02  0.1309573E+00
         -3   -1    0    0    0  501 -0.00000000000E+00  0.00000000000E+00  0.17473945522E+03  0.17473945522E+03  0.00000000000E+00 0.  1.
          3   -1    0    0  501    0  0.00000000000E+00 -0.00000000000E+00 -0.48349298441E+02  0.48349298441E+02  0.00000000000E+00 0. -1.
         24    1    1    2    0    0 -0.15837251672E+02  0.29998474644E+02  0.98169431762E+02  0.13135897498E+03  0.80419002446E+02 0.  0.
        -24    1    1    2    0    0  0.15837251672E+02 -0.29998474644E+02  0.28220725016E+02  0.91729778678E+02  0.80419002446E+02 0.  0.
<mgrwt>
<rscale>  0 0.87280828E+02</rscale>
<asrwt>0</asrwt>
<pdfrwt beam="1">  1        3 0.74383537E-02 0.87280828E+02</pdfrwt>
<pdfrwt beam="2">  1       -3 0.26882993E-01 0.87280828E+02</pdfrwt>
<totfact> 0.32990999E+03</totfact>
</mgrwt>
</event>
<event>
 4    1  0.1123525E-001  0.1068426E+03  0.7546771E-02  0.1266531E+00
          1   -1    0    0  501    0  0.00000000000E+00  0.00000000000E+00  0.38192447461E+03  0.38192447461E+03  0.00000000000E+00 0. -1.
         -1   -1    0    0    0  501 -0.00000000000E+00 -0.00000000000E+00 -0.46400716544E+02  0.46400716544E+02  0.00000000000E+00 0.  1.
         24    1    1    2    0    0 -0.68769218062E+02  0.14796198736E+02  0.40007113692E+02  0.11408732598E+03  0.80419002446E+02 0.  1.
        -24    1    1    2    0    0  0.68769218062E+02 -0.14796198736E+02  0.29551664437E+03  0.31423786517E+03  0.80419002446E+02 0. -1.
<mgrwt>
<rscale>  0 0.10684264E+03</rscale>
<asrwt>0</asrwt>
<pdfrwt beam="1">  1        1 0.58757609E-01 0.10684264E+03</pdfrwt>
<pdfrwt beam="2">  1       -1 0.71385720E-02 0.10684264E+03</pdfrwt>
<totfact> 0.62146364E+03</totfact>
</mgrwt>
</event>
<event>
 4    1  0.1123525E-001  0.1171907E+03  0.7546771E-02  0.1247805E+00
         -2   -1    0    0    0  501 -0.00000000000E+00  0.00000000000E+00  0.71064187414E+01  0.71064187414E+01  0.00000000000E+00 0.  1.
          2   -1    0    0  501    0  0.00000000000E+00 -0.00000000000E+00 -0.20330075248E+04  0.20330075248E+04  0.00000000000E+00 0. -1.
         24    1    1    2    0    0  0.83932294606E+02  0.14893370340E+02 -0.12396763063E+04  0.12452031974E+04  0.80419002446E+02 0. -1.
        -24    1    1    2    0    0 -0.83932294606E+02 -0.14893370340E+02 -0.78622479975E+03  0.79491074609E+03  0.80419002446E+02 0.  1.
<mgrwt>
<rscale>  0 0.11719069E+03</rscale>
<asrwt>0</asrwt>
<pdfrwt beam="1">  1        2 0.31277069E+00 0.11719069E+03</pdfrwt>
<pdfrwt beam="2">  1       -2 0.10932941E-02 0.11719069E+03</pdfrwt>
<totfact> 0.13009745E+04</totfact>
</mgrwt>
</event>
<event>
 4    1  0.1123525E-001  0.8560115E+02  0.7546771E-02  0.1313868E+00
         -2   -1    0    0    0  501 -0.00000000000E+00  0.00000000000E+00  0.16269653943E+02  0.16269653943E+02  0.00000000000E+00 0.  1.
          2   -1    0    0  501    0  0.00000000000E+00 -0.00000000000E+00 -0.67329943288E+03  0.67329943288E+03  0.00000000000E+00 0. -1.
         24    1    1    2    0    0  0.29309401389E+02 -0.11402538468E+01 -0.52690307647E+03  0.53381121114E+03  0.80419002446E+02 0.  1.
        -24    1    1    2    0    0 -0.29309401389E+02  0.11402538468E+01 -0.13012670247E+03  0.15575787568E+03  0.80419002446E+02 0.  1.
<mgrwt>
<rscale>  0 0.85601152E+02</rscale>
<asrwt>0</asrwt>
<pdfrwt beam="1">  1        2 0.10358452E+00 0.85601152E+02</pdfrwt>
<pdfrwt beam="2">  1       -2 0.25030238E-02 0.85601152E+02</pdfrwt>
<totfact> 0.22058341E+04</totfact>
</mgrwt>
</event>
<event>
 4    1  0.1123525E-001  0.1104747E+03  0.7546771E-02  0.1259693E+00
          2   -1    0    0  501    0  0.00000000000E+00  0.00000000000E+00  0.51334605498E+03  0.51334605498E+03  0.00000000000E+00 0. -1.
         -2   -1    0    0    0  501 -0.00000000000E+00 -0.00000000000E+00 -0.37717044330E+02  0.37717044330E+02  0.00000000000E+00 0.  1.
         24    1    1    2    0    0 -0.57302322279E+02  0.49536624577E+02  0.70293069735E+02  0.13094183793E+03  0.80419002446E+02 0.  1.
        -24    1    1    2    0    0  0.57302322279E+02 -0.49536624577E+02  0.40533594091E+03  0.42012126138E+03  0.80419002446E+02 0. -1.
<mgrwt>
<rscale>  0 0.11047467E+03</rscale>
<asrwt>0</asrwt>
<pdfrwt beam="1">  1        2 0.78976311E-01 0.11047468E+03</pdfrwt>
<pdfrwt beam="2">  1       -2 0.58026226E-02 0.11047468E+03</pdfrwt>
<totfact> 0.88608102E+03</totfact>
</mgrwt>
</event>
<event>
 4    1  0.1123525E-001  0.8770054E+02  0.7546771E-02  0.1308518E+00
         -2   -1    0    0    0  501 -0.00000000000E+00  0.00000000000E+00  0.54942272848E+01  0.54942272848E+01  0.00000000000E+00 0.  1.
          2   -1    0    0  501    0  0.00000000000E+00 -0.00000000000E+00 -0.17358035948E+04  0.17358035948E+04  0.00000000000E+00 0. -1.
         24    1    1    2    0    0  0.21609247213E+02 -0.27517440221E+02 -0.12481541619E+04  0.12512314721E+04  0.80419002446E+02 0.  0.
        -24    1    1    2    0    0 -0.21609247213E+02  0.27517440221E+02 -0.48215520570E+03  0.49006635002E+03  0.80419002446E+02 0. -1.
<mgrwt>
<rscale>  0 0.87700542E+02</rscale>
<asrwt>0</asrwt>
<pdfrwt beam="1">  1        2 0.26704706E+00 0.87700542E+02</pdfrwt>
<pdfrwt beam="2">  1       -2 0.84526460E-03 0.87700542E+02</pdfrwt>
<totfact> 0.26031724E+04</totfact>
</mgrwt>
</event>
<event>
 4    1  0.1123525E-001  0.9221824E+02  0.7546771E-02  0.1297567E+00
          1   -1    0    0  501    0  0.00000000000E+00  0.00000000000E+00  0.18103379902E+03  0.18103379902E+03  0.00000000000E+00 0. -1.
         -1   -1    0    0    0  501 -0.00000000000E+00 -0.00000000000E+00 -0.66968656142E+02  0.66968656142E+02  0.00000000000E+00 0.  1.
         24    1    1    2    0    0 -0.99831115471E+01  0.44015054808E+02 -0.10720323122E+02  0.92839263505E+02  0.80419002446E+02 0.  1.
        -24    1    1    2    0    0  0.99831115471E+01 -0.44015054808E+02  0.12478546600E+03  0.15516319166E+03  0.80419002446E+02 0. -1.
<mgrwt>
<rscale>  0 0.92218239E+02</rscale>
<asrwt>0</asrwt>
<pdfrwt beam="1">  1        1 0.27851353E-01 0.92218239E+02</pdfrwt>
<pdfrwt beam="2">  1       -1 0.10302870E-01 0.92218239E+02</pdfrwt>
<totfact> 0.88624374E+03</totfact>
</mgrwt>
</event>
<event>
 4    1  0.1123525E-001  0.1012014E+03  0.7546771E-02  0.1277790E+00
          1   -1    0    0  501    0  0.00000000000E+00  0.00000000000E+00  0.89993768545E+02  0.89993768545E+02  0.00000000000E+00 0. -1.
         -1   -1    0    0    0  501 -0.00000000000E+00 -0.00000000000E+00 -0.14407562734E+03  0.14407562734E+03  0.00000000000E+00 0.  1.
         24    1    1    2    0    0 -0.30584307363E+02 -0.53283275531E+02 -0.80686206128E+02  0.12942946775E+03  0.80419002446E+02 0.  0.
        -24    1    1    2    0    0  0.30584307363E+02  0.53283275531E+02  0.26604347336E+02  0.10463992813E+03  0.80419002446E+02 0.  1.
<mgrwt>
<rscale>  0 0.10120140E+03</rscale>
<asrwt>0</asrwt>
<pdfrwt beam="1">  1        1 0.13845195E-01 0.10120140E+03</pdfrwt>
<pdfrwt beam="2">  1       -1 0.22165481E-01 0.10120140E+03</pdfrwt>
<totfact> 0.65402732E+03</totfact>
</mgrwt>
</event>
<event>
 4    1  0.1123525E-001  0.1358257E+03  0.7546771E-02  0.1219059E+00
         -2   -1    0    0    0  501 -0.00000000000E+00  0.00000000000E+00  0.41940226610E+02  0.41940226610E+02  0.00000000000E+00 0.  1.
          2   -1    0    0  501    0  0.00000000000E+00 -0.00000000000E+00 -0.44152839824E+03  0.44152839824E+03  0.00000000000E+00 0. -1.
         24    1    1    2    0    0 -0.10880242534E+03  0.11976568508E+02 -0.18501895735E+03  0.22952262740E+03  0.80419002446E+02 0. -1.
        -24    1    1    2    0    0  0.10880242534E+03 -0.11976568508E+02 -0.21456921428E+03  0.25394599746E+03  0.80419002446E+02 0.  1.
<mgrwt>
<rscale>  0 0.13582572E+03</rscale>
<asrwt>0</asrwt>
<pdfrwt beam="1">  1        2 0.67927449E-01 0.13582574E+03</pdfrwt>
<pdfrwt beam="2">  1       -2 0.64523423E-02 0.13582574E+03</pdfrwt>
<totfact> 0.90152146E+03</totfact>
</mgrwt>
</event>
<event>
 4    1  0.1123525E-001  0.8773473E+02  0.7546771E-02  0.1308432E+00
         -2   -1    0    0    0  501 -0.00000000000E+00  0.00000000000E+00  0.18929976837E+02  0.18929976837E+02  0.00000000000E+00 0.  1.
          2   -1    0    0  501    0  0.00000000000E+00 -0.00000000000E+00 -0.44714891464E+03  0.44714891464E+03  0.00000000000E+00 0. -1.
         24    1    1    2    0    0 -0.16615441961E+02 -0.30888422090E+02 -0.28426537487E+03  0.29749653248E+03  0.80419002446E+02 0. -1.
        -24    1    1    2    0    0  0.16615441961E+02  0.30888422090E+02 -0.14395356293E+03  0.16858235900E+03  0.80419002446E+02 0.  1.
<mgrwt>
<rscale>  0 0.87734734E+02</rscale>
<asrwt>0</asrwt>
<pdfrwt beam="1">  1        2 0.68792142E-01 0.87734734E+02</pdfrwt>
<pdfrwt beam="2">  1       -2 0.29123041E-02 0.87734734E+02</pdfrwt>
<totfact> 0.27858483E+04</totfact>
</mgrwt>
</event>
<event>
 4    1  0.1123525E-001  0.1164942E+03  0.7546771E-02  0.1248995E+00
         -2   -1    0    0    0  501 -0.00000000000E+00  0.00000000000E+00  0.10228274738E+02  0.10228274738E+02  0.00000000000E+00 0.  1.
          2   -1    0    0  501    0  0.00000000000E+00 -0.00000000000E+00 -0.19155827447E+04  0.19155827447E+04  0.00000000000E+00 0. -1.
         24    1    1    2    0    0 -0.64377723737E+02  0.54398488623E+02 -0.14865155537E+04  0.14910732358E+04  0.80419002446E+02 0. -1.
        -24    1    1    2    0    0  0.64377723737E+02 -0.54398488623E+02 -0.41883891624E+03  0.43473778371E+03  0.80419002446E+02 0.  1.
<mgrwt>
<rscale>  0 0.11649422E+03</rscale>
<asrwt>0</asrwt>
<pdfrwt beam="1">  1        2 0.29470518E+00 0.11649422E+03</pdfrwt>
<pdfrwt beam="2">  1       -2 0.15735800E-02 0.11649422E+03</pdfrwt>
<totfact> 0.88574921E+03</totfact>
</mgrwt>
</event>
<event>
 4    1  0.1123525E-001  0.8243813E+02  0.7546771E-02  0.1322271E+00
          1   -1    0    0  501    0  0.00000000000E+00  0.00000000000E+00  0.10223794670E+03  0.10223794670E+03  0.00000000000E+00 0. -1.
         -1   -1    0    0    0  501 -0.00000000000E+00 -0.00000000000E+00 -0.73146934464E+02  0.73146934464E+02  0.00000000000E+00 0.  1.
         24    1    1    2    0    0  0.15047222278E+02  0.10119798610E+02 -0.11943199882E+02  0.83298770699E+02  0.80419002446E+02 0.  1.
        -24    1    1    2    0    0 -0.15047222278E+02 -0.10119798610E+02  0.41034212120E+02  0.92086110467E+02  0.80419002446E+02 0. -1.
<mgrwt>
<rscale>  0 0.82438129E+02</rscale>
<asrwt>0</asrwt>
<pdfrwt beam="1">  1        1 0.15728915E-01 0.82438129E+02</pdfrwt>
<pdfrwt beam="2">  1       -1 0.11253375E-01 0.82438129E+02</pdfrwt>
<totfact> 0.15671473E+04</totfact>
</mgrwt>
</event>
<event>
 4    1  0.1123525E-001  0.9888527E+02  0.7546771E-02  0.1282658E+00
         -2   -1    0    0    0  501 -0.00000000000E+00  0.00000000000E+00  0.11319766935E+02  0.11319766935E+02  0.00000000000E+00 0.  1.
          2   -1    0    0  501    0  0.00000000000E+00 -0.00000000000E+00 -0.19399374916E+04  0.19399374916E+04  0.00000000000E+00 0. -1.
         24    1    1    2    0    0 -0.57540523765E+02  0.41153082283E+00 -0.16909492164E+04  0.16938381120E+04  0.80419002446E+02 0. -1.
        -24    1    1    2    0    0  0.57540523765E+02 -0.41153082283E+00 -0.23766850829E+03  0.25741914656E+03  0.80419002446E+02 0.  1.
<mgrwt>
<rscale>  0 0.98885273E+02</rscale>
<asrwt>0</asrwt>
<pdfrwt beam="1">  1        2 0.29845191E+00 0.98885273E+02</pdfrwt>
<pdfrwt beam="2">  1       -2 0.17415026E-02 0.98885273E+02</pdfrwt>
<totfact> 0.74038561E+03</totfact>
</mgrwt>
</event>
<event>
 4    1  0.1123525E-001  0.8471696E+02  0.7546771E-02  0.1316174E+00
         -4   -1    0    0    0  501 -0.00000000000E+00  0.00000000000E+00  0.59380052503E+02  0.59380052503E+02  0.00000000000E+00 0.  1.
          4   -1    0    0  501    0  0.00000000000E+00 -0.00000000000E+00 -0.13067416463E+03  0.13067416463E+03  0.00000000000E+00 0. -1.
         24    1    1    2    0    0  0.21186960688E+02 -0.16151176853E+02 -0.61682860442E+02  0.10479379296E+03  0.80419002446E+02 0. -1.
        -24    1    1    2    0    0 -0.21186960688E+02  0.16151176853E+02 -0.96112516893E+01  0.85260424174E+02  0.80419002446E+02 0.  1.
<mgrwt>
<rscale>  0 0.84716963E+02</rscale>
<asrwt>0</asrwt>
<pdfrwt beam="1">  1        4 0.20103717E-01 0.84716963E+02</pdfrwt>
<pdfrwt beam="2">  1       -4 0.91353928E-02 0.84716963E+02</pdfrwt>
<totfact> 0.28687109E+03</totfact>
</mgrwt>
</event>
<event>
 4    1  0.1123525E-001  0.8663469E+02  0.7546771E-02  0.1311212E+00
         -1   -1    0    0    0  501 -0.00000000000E+00  0.00000000000E+00  0.15477183289E+03  0.15477183289E+03  0.00000000000E+00 0.  1.
          1   -1    0    0  501    0  0.00000000000E+00 -0.00000000000E+00 -0.18586604093E+03  0.18586604093E+03  0.00000000000E+00 0. -1.
         24    1    1    2    0    0 -0.10605354568E+02 -0.30428288956E+02  0.13087661217E+03  0.15695304356E+03  0.80419002446E+02 0.  1.
        -24    1    1    2    0    0  0.10605354568E+02  0.30428288956E+02 -0.16197082022E+03  0.18368483027E+03  0.80419002446E+02 0. -1.
<mgrwt>
<rscale>  0 0.86634694E+02</rscale>
<asrwt>0</asrwt>
<pdfrwt beam="1">  1        1 0.28594775E-01 0.86634694E+02</pdfrwt>
<pdfrwt beam="2">  1       -1 0.23811051E-01 0.86634694E+02</pdfrwt>
<totfact> 0.23166640E+03</totfact>
</mgrwt>
</event>
<event>
 4    1  0.1123525E-001  0.9444182E+02  0.7546771E-02  0.1292438E+00
          2   -1    0    0  501    0  0.00000000000E+00  0.00000000000E+00  0.57625413241E+02  0.57625413241E+02  0.00000000000E+00 0. -1.
         -2   -1    0    0    0  501 -0.00000000000E+00 -0.00000000000E+00 -0.29895126747E+03  0.29895126747E+03  0.00000000000E+00 0.  1.
         24    1    1    2    0    0  0.38430763325E+02  0.31226865814E+02  0.31489266703E+01  0.94494298303E+02  0.80419002446E+02 0. -1.
        -24    1    1    2    0    0 -0.38430763325E+02 -0.31226865814E+02 -0.24447478090E+03  0.26208238241E+03  0.80419002446E+02 0.  1.
<mgrwt>
<rscale>  0 0.94441816E+02</rscale>
<asrwt>0</asrwt>
<pdfrwt beam="1">  1        2 0.88654481E-02 0.94441816E+02</pdfrwt>
<pdfrwt beam="2">  1       -2 0.45992503E-01 0.94441816E+02</pdfrwt>
<totfact> 0.31633516E+03</totfact>
</mgrwt>
</event>
<event>
 4    1  0.1123525E-001  0.8395286E+02  0.7546771E-02  0.1318194E+00
          3   -1    0    0  501    0  0.00000000000E+00  0.00000000000E+00  0.97837524141E+03  0.97837524141E+03  0.00000000000E+00 0. -1.
         -3   -1    0    0    0  501 -0.00000000000E+00 -0.00000000000E+00 -0.84645192225E+01  0.84645192225E+01  0.00000000000E+00 0.  1.
         24    1    1    2    0    0  0.23282452636E+02 -0.62285613746E+01  0.29453498374E+03  0.30626612639E+03  0.80419002446E+02 0.  1.
        -24    1    1    2    0    0 -0.23282452636E+02  0.62285613746E+01  0.67537573845E+03  0.68057363424E+03  0.80419002446E+02 0. -1.
<mgrwt>
<rscale>  0 0.83952865E+02</rscale>
<asrwt>0</asrwt>
<pdfrwt beam="1">  1        3 0.15051918E+00 0.83952865E+02</pdfrwt>
<pdfrwt beam="2">  1       -3 0.13022345E-02 0.83952865E+02</pdfrwt>
<totfact> 0.13240688E+03</totfact>
</mgrwt>
</event>
<event>
 4    1  0.1123525E-001  0.8842680E+02  0.7546771E-02  0.1306707E+00
         -2   -1    0    0    0  501 -0.00000000000E+00  0.00000000000E+00  0.15715355044E+02  0.15715355044E+02  0.00000000000E+00 0.  1.
          2   -1    0    0  501    0  0.00000000000E+00 -0.00000000000E+00 -0.49761308511E+03  0.49761308511E+03  0.00000000000E+00 0. -1.
         24    1    1    2    0    0 -0.71885280843E+01 -0.36061121193E+02 -0.23824020034E+03  0.25412140486E+03  0.80419002446E+02 0.  0.
        -24    1    1    2    0    0  0.71885280843E+01  0.36061121193E+02 -0.24365752973E+03  0.25920703529E+03  0.80419002446E+02 0.  0.
<mgrwt>
<rscale>  0 0.88426791E+02</rscale>
<asrwt>0</asrwt>
<pdfrwt beam="1">  1        2 0.76555854E-01 0.88426802E+02</pdfrwt>
<pdfrwt beam="2">  1       -2 0.24177471E-02 0.88426802E+02</pdfrwt>
<totfact> 0.32551982E+04</totfact>
</mgrwt>
</event>
<event>
 4    1  0.1123525E-001  0.1076143E+03  0.7546771E-02  0.1265053E+00
         -2   -1    0    0    0  501 -0.00000000000E+00  0.00000000000E+00  0.46408695715E+02  0.46408695715E+02  0.00000000000E+00 0.  1.
          2   -1    0    0  501    0  0.00000000000E+00 -0.00000000000E+00 -0.25781015127E+03  0.25781015127E+03  0.00000000000E+00 0. -1.
         24    1    1    2    0    0 -0.63344777608E+02 -0.33182214890E+02 -0.13294385978E+03  0.17104065611E+03  0.80419002446E+02 0. -1.
        -24    1    1    2    0    0  0.63344777608E+02  0.33182214890E+02 -0.78457595769E+02  0.13317819087E+03  0.80419002446E+02 0.  1.
<mgrwt>
<rscale>  0 0.10761429E+03</rscale>
<asrwt>0</asrwt>
<pdfrwt beam="1">  1        2 0.39663100E-01 0.10761429E+03</pdfrwt>
<pdfrwt beam="2">  1       -2 0.71397993E-02 0.10761429E+03</pdfrwt>
<totfact> 0.13416929E+04</totfact>
</mgrwt>
</event>
<event>
 4    1  0.1123525E-001  0.1239484E+03  0.7546771E-02  0.1236722E+00
          2   -1    0    0  501    0  0.00000000000E+00  0.00000000000E+00  0.19273892663E+04  0.19273892663E+04  0.00000000000E+00 0. -1.
         -2   -1    0    0    0  501 -0.00000000000E+00 -0.00000000000E+00 -0.80902096375E+01  0.80902096375E+01  0.00000000000E+00 0.  1.
         24    1    1    2    0    0  0.90791122834E+02  0.25553196464E+02  0.10771241003E+04  0.10842322340E+04  0.80419002446E+02 0.  0.
        -24    1    1    2    0    0 -0.90791122834E+02 -0.25553196464E+02  0.84217495640E+03  0.85124724198E+03  0.80419002446E+02 0.  1.
<mgrwt>
<rscale>  0 0.12394842E+03</rscale>
<asrwt>0</asrwt>
<pdfrwt beam="1">  1        2 0.29652106E+00 0.12394842E+03</pdfrwt>
<pdfrwt beam="2">  1       -2 0.12446492E-02 0.12394842E+03</pdfrwt>
<totfact> 0.12259484E+04</totfact>
</mgrwt>
</event>
<event>
 4    1  0.1123525E-001  0.1093830E+03  0.7546771E-02  0.1261717E+00
          1   -1    0    0  501    0  0.00000000000E+00  0.00000000000E+00  0.24628193138E+03  0.24628193138E+03  0.00000000000E+00 0. -1.
         -1   -1    0    0    0  501 -0.00000000000E+00 -0.00000000000E+00 -0.54107594291E+02  0.54107594291E+02  0.00000000000E+00 0.  1.
         24    1    1    2    0    0  0.73809300264E+02 -0.70432436647E+01  0.14408839236E+03  0.18090356783E+03  0.80419002446E+02 0.  0.
        -24    1    1    2    0    0 -0.73809300264E+02  0.70432436647E+01  0.48085944736E+02  0.11948595785E+03  0.80419002446E+02 0. -1.
<mgrwt>
<rscale>  0 0.10938299E+03</rscale>
<asrwt>0</asrwt>
<pdfrwt beam="1">  1        1 0.37889527E-01 0.10938301E+03</pdfrwt>
<pdfrwt beam="2">  1       -1 0.83242454E-02 0.10938301E+03</pdfrwt>
<totfact> 0.84917037E+03</totfact>
</mgrwt>
</event>
<event>
 4    1  0.1123525E-001  0.1045904E+03  0.7546771E-02  0.1270929E+00
          3   -1    0    0  501    0  0.00000000000E+00  0.00000000000E+00  0.54965170390E+03  0.54965170390E+03  0.00000000000E+00 0. -1.
         -3   -1    0    0    0  501 -0.00000000000E+00 -0.00000000000E+00 -0.20102966524E+02  0.20102966524E+02  0.00000000000E+00 0.  1.
         24    1    1    2    0    0  0.65639562129E+02  0.12781970649E+02  0.29326038261E+03  0.31135317383E+03  0.80419002446E+02 0.  1.
        -24    1    1    2    0    0 -0.65639562129E+02 -0.12781970649E+02  0.23628835476E+03  0.25840149659E+03  0.80419002446E+02 0. -1.
<mgrwt>
<rscale>  0 0.10459039E+03</rscale>
<asrwt>0</asrwt>
<pdfrwt beam="1">  1        3 0.84561789E-01 0.10459040E+03</pdfrwt>
<pdfrwt beam="2">  1       -3 0.30927645E-02 0.10459040E+03</pdfrwt>
<totfact> 0.14116278E+03</totfact>
</mgrwt>
</event>
<event>
 4    1  0.1123525E-001  0.8303400E+02  0.7546771E-02  0.1320655E+00
         -2   -1    0    0    0  501 -0.00000000000E+00  0.00000000000E+00  0.46083847653E+01  0.46083847653E+01  0.00000000000E+00 0.  1.
          2   -1    0    0  501    0  0.00000000000E+00 -0.00000000000E+00 -0.21931466783E+04  0.21931466783E+04  0.00000000000E+00 0. -1.
         24    1    1    2    0    0 -0.17202247793E+02 -0.11467878083E+02 -0.17137724258E+04  0.17157827872E+04  0.80419002446E+02 0. -1.
        -24    1    1    2    0    0  0.17202247793E+02  0.11467878083E+02 -0.47476586774E+03  0.48197227584E+03  0.80419002446E+02 0.  0.
<mgrwt>
<rscale>  0 0.83034002E+02</rscale>
<asrwt>0</asrwt>
<pdfrwt beam="1">  1        2 0.33740761E+00 0.83034002E+02</pdfrwt>
<pdfrwt beam="2">  1       -2 0.70898138E-03 0.83034002E+02</pdfrwt>
<totfact> 0.19588181E+04</totfact>
</mgrwt>
</event>
<event>
 4    1  0.1123525E-001  0.9236170E+02  0.7546771E-02  0.1297231E+00
          2   -1    0    0  501    0  0.00000000000E+00  0.00000000000E+00  0.11535678673E+04  0.11535678673E+04  0.00000000000E+00 0. -1.
         -2   -1    0    0    0  501 -0.00000000000E+00 -0.00000000000E+00 -0.14495611814E+02  0.14495611814E+02  0.00000000000E+00 0.  1.
         24    1    1    2    0    0  0.33992984104E+02  0.30132120432E+02  0.97829270603E+03  0.98264301874E+03  0.80419002446E+02 0. -1.
        -24    1    1    2    0    0 -0.33992984104E+02 -0.30132120432E+02  0.16077954950E+03  0.18542046041E+03  0.80419002446E+02 0.  1.
<mgrwt>
<rscale>  0 0.92361700E+02</rscale>
<asrwt>0</asrwt>
<pdfrwt beam="1">  1        2 0.17747191E+00 0.92361700E+02</pdfrwt>
<pdfrwt beam="2">  1       -2 0.22300950E-02 0.92361700E+02</pdfrwt>
<totfact> 0.13148904E+04</totfact>
</mgrwt>
</event>
<event>
 4    1  0.1123525E-001  0.8446627E+02  0.7546771E-02  0.1316834E+00
          1   -1    0    0  501    0  0.00000000000E+00  0.00000000000E+00  0.33725432901E+03  0.33725432901E+03  0.00000000000E+00 0. -1.
         -1   -1    0    0    0  501 -0.00000000000E+00 -0.00000000000E+00 -0.24849960505E+02  0.24849960505E+02  0.00000000000E+00 0.  1.
         24    1    1    2    0    0  0.62641175605E+01 -0.25061834146E+02  0.86385857962E+02  0.12081832274E+03  0.80419002446E+02 0.  1.
        -24    1    1    2    0    0 -0.62641175605E+01  0.25061834146E+02  0.22601851054E+03  0.24128596677E+03  0.80419002446E+02 0. -1.
<mgrwt>
<rscale>  0 0.84466269E+02</rscale>
<asrwt>0</asrwt>
<pdfrwt beam="1">  1        1 0.51885278E-01 0.84466269E+02</pdfrwt>
<pdfrwt beam="2">  1       -1 0.38230711E-02 0.84466269E+02</pdfrwt>
<totfact> 0.17760467E+04</totfact>
</mgrwt>
</event>
<event>
 4    1  0.1123525E-001  0.8359228E+02  0.7546771E-02  0.1319155E+00
          2   -1    0    0  501    0  0.00000000000E+00  0.00000000000E+00  0.13088439248E+03  0.13088439248E+03  0.00000000000E+00 0. -1.
         -2   -1    0    0    0  501 -0.00000000000E+00 -0.00000000000E+00 -0.16087268889E+03  0.16087268889E+03  0.00000000000E+00 0.  1.
         24    1    1    2    0    0 -0.12539295904E+02 -0.19058293849E+02  0.10424623373E+03  0.13362239972E+03  0.80419002446E+02 0. -1.
        -24    1    1    2    0    0  0.12539295904E+02  0.19058293849E+02 -0.13423453014E+03  0.15813468165E+03  0.80419002446E+02 0.  1.
<mgrwt>
<rscale>  0 0.83592275E+02</rscale>
<asrwt>0</asrwt>
<pdfrwt beam="1">  1        2 0.20136061E-01 0.83592275E+02</pdfrwt>
<pdfrwt beam="2">  1       -2 0.24749644E-01 0.83592275E+02</pdfrwt>
<totfact> 0.37071811E+03</totfact>
</mgrwt>
</event>
<event>
 4    1  0.1123525E-001  0.9836969E+02  0.7546771E-02  0.1283762E+00
         -2   -1    0    0    0  501 -0.00000000000E+00  0.00000000000E+00  0.36139732629E+02  0.36139732629E+02  0.00000000000E+00 0.  1.
          2   -1    0    0  501    0  0.00000000000E+00 -0.00000000000E+00 -0.31539913709E+03  0.31539913709E+03  0.00000000000E+00 0. -1.
         24    1    1    2    0    0  0.54937933538E+02 -0.13827652465E+02 -0.20794493326E+03  0.23003845708E+03  0.80419002446E+02 0.  0.
        -24    1    1    2    0    0 -0.54937933538E+02  0.13827652465E+02 -0.71314471206E+02  0.12150041264E+03  0.80419002446E+02 0.  0.
<mgrwt>
<rscale>  0 0.98369693E+02</rscale>
<asrwt>0</asrwt>
<pdfrwt beam="1">  1        2 0.48522944E-01 0.98369693E+02</pdfrwt>
<pdfrwt beam="2">  1       -2 0.55599589E-02 0.98369693E+02</pdfrwt>
<totfact> 0.15705438E+04</totfact>
</mgrwt>
</event>
<event>
 4    1  0.1123525E-001  0.9184363E+02  0.7546771E-02  0.1298448E+00
         -2   -1    0    0    0  501 -0.00000000000E+00  0.00000000000E+00  0.90129959924E+01  0.90129959924E+01  0.00000000000E+00 0.  1.
          2   -1    0    0  501    0  0.00000000000E+00 -0.00000000000E+00 -0.96294886949E+03  0.96294886949E+03  0.00000000000E+00 0. -1.
         24    1    1    2    0    0  0.40146722901E+02 -0.18875182474E+02 -0.39551520685E+03  0.40603882410E+03  0.80419002446E+02 0. -1.
        -24    1    1    2    0    0 -0.40146722901E+02  0.18875182474E+02 -0.55842066664E+03  0.56592304138E+03  0.80419002446E+02 0.  0.
<mgrwt>
<rscale>  0 0.91843617E+02</rscale>
<asrwt>0</asrwt>
<pdfrwt beam="1">  1        2 0.14814590E+00 0.91843628E+02</pdfrwt>
<pdfrwt beam="2">  1       -2 0.13866155E-02 0.91843628E+02</pdfrwt>
<totfact> 0.33375394E+04</totfact>
</mgrwt>
</event>
<event>
 4    1  0.1123525E-001  0.8205476E+02  0.7546771E-02  0.1323319E+00
         -2   -1    0    0    0  501 -0.00000000000E+00  0.00000000000E+00  0.44634913247E+02  0.44634913247E+02  0.00000000000E+00 0.  1.
          2   -1    0    0  501    0  0.00000000000E+00 -0.00000000000E+00 -0.24364759417E+03  0.24364759417E+03  0.00000000000E+00 0. -1.
         24    1    1    2    0    0 -0.82437148150E+01  0.14064469519E+02 -0.18846447875E+03  0.20555253304E+03  0.80419002446E+02 0. -1.
        -24    1    1    2    0    0  0.82437148150E+01 -0.14064469519E+02 -0.10548202178E+02  0.82729974377E+02  0.80419002446E+02 0. -1.
<mgrwt>
<rscale>  0 0.82054763E+02</rscale>
<asrwt>0</asrwt>
<pdfrwt beam="1">  1        2 0.37484245E-01 0.82054763E+02</pdfrwt>
<pdfrwt beam="2">  1       -2 0.68669098E-02 0.82054763E+02</pdfrwt>
<totfact> 0.14717112E+04</totfact>
</mgrwt>
</event>
<event>
 4    1  0.1123525E-001  0.9076670E+02  0.7546771E-02  0.1301006E+00
         -2   -1    0    0    0  501 -0.00000000000E+00  0.00000000000E+00  0.63536665365E+02  0.63536665365E+02  0.00000000000E+00 0.  1.
          2   -1    0    0  501    0  0.00000000000E+00 -0.00000000000E+00 -0.28716133689E+03  0.28716133689E+03  0.00000000000E+00 0. -1.
         24    1    1    2    0    0 -0.27747605893E+02 -0.31645665885E+02 -0.24167165155E+03  0.25815456788E+03  0.80419002446E+02 0. -1.
        -24    1    1    2    0    0  0.27747605893E+02  0.31645665885E+02  0.18046980028E+02  0.92543434368E+02  0.80419002446E+02 0.  1.
<mgrwt>
<rscale>  0 0.90766700E+02</rscale>
<asrwt>0</asrwt>
<pdfrwt beam="1">  1        2 0.44178667E-01 0.90766700E+02</pdfrwt>
<pdfrwt beam="2">  1       -2 0.97748717E-02 0.90766700E+02</pdfrwt>
<totfact> 0.72882636E+03</totfact>
</mgrwt>
</event>
<event>
 4    1  0.1123525E-001  0.9355035E+02  0.7546771E-02  0.1294475E+00
          2   -1    0    0  501    0  0.00000000000E+00  0.00000000000E+00  0.10029274197E+04  0.10029274197E+04  0.00000000000E+00 0. -1.
         -2   -1    0    0    0  501 -0.00000000000E+00 -0.00000000000E+00 -0.11484773140E+02  0.11484773140E+02  0.00000000000E+00 0.  1.
         24    1    1    2    0    0  0.47778593736E+02 -0.12874994909E+01  0.74430442247E+03  0.75016047679E+03  0.80419002446E+02 0. -1.
        -24    1    1    2    0    0 -0.47778593736E+02  0.12874994909E+01  0.24713822408E+03  0.26425171604E+03  0.80419002446E+02 0.  1.
<mgrwt>
<rscale>  0 0.93550348E+02</rscale>
<asrwt>0</asrwt>
<pdfrwt beam="1">  1        2 0.15429646E+00 0.93550348E+02</pdfrwt>
<pdfrwt beam="2">  1       -2 0.17668890E-02 0.93550348E+02</pdfrwt>
<totfact> 0.22393931E+04</totfact>
</mgrwt>
</event>
<event>
 4    1  0.1123525E-001  0.9315046E+02  0.7546771E-02  0.1295397E+00
         -2   -1    0    0    0  501 -0.00000000000E+00  0.00000000000E+00  0.42421076153E+02  0.42421076153E+02  0.00000000000E+00 0.  1.
          2   -1    0    0  501    0  0.00000000000E+00 -0.00000000000E+00 -0.25837050332E+03  0.25837050332E+03  0.00000000000E+00 0. -1.
         24    1    1    2    0    0 -0.39190103143E+02  0.25960119042E+02 -0.17661977827E+03  0.19967862678E+03  0.80419002446E+02 0. -1.
        -24    1    1    2    0    0  0.39190103143E+02 -0.25960119042E+02 -0.39329648906E+02  0.10111295269E+03  0.80419002446E+02 0.  1.
<mgrwt>
<rscale>  0 0.93150459E+02</rscale>
<asrwt>0</asrwt>
<pdfrwt beam="1">  1        2 0.39749308E-01 0.93150459E+02</pdfrwt>
<pdfrwt beam="2">  1       -2 0.65263195E-02 0.93150459E+02</pdfrwt>
<totfact> 0.15133239E+04</totfact>
</mgrwt>
</event>
<event>
 4    1  0.1123525E-001  0.8205745E+02  0.7546771E-02  0.1323312E+00
         -2   -1    0    0    0  501 -0.00000000000E+00  0.00000000000E+00  0.51300951535E+03  0.51300951535E+03  0.00000000000E+00 0.  1.
          2   -1    0    0  501    0  0.00000000000E+00 -0.00000000000E+00 -0.86097149941E+02  0.86097149941E+02  0.00000000000E+00 0. -1.
         24    1    1    2    0    0 -0.70731224830E+01  0.14703080340E+02 -0.62320358109E+02  0.10304005349E+03  0.80419002446E+02 0. -1.
        -24    1    1    2    0    0  0.70731224830E+01 -0.14703080340E+02  0.48923272351E+03  0.49606661180E+03  0.80419002446E+02 0.  1.
<mgrwt>
<rscale>  0 0.82057453E+02</rscale>
<asrwt>0</asrwt>
<pdfrwt beam="1">  1        2 0.13245716E-01 0.82057453E+02</pdfrwt>
<pdfrwt beam="2">  1       -2 0.78924539E-01 0.82057453E+02</pdfrwt>
<totfact> 0.64391924E+02</totfact>
</mgrwt>
</event>
<event>
 4    1  0.1123525E-001  0.8869065E+02  0.7546771E-02  0.1306054E+00
          3   -1    0    0  501    0  0.00000000000E+00  0.00000000000E+00  0.14734188710E+02  0.14734188710E+02  0.00000000000E+00 0. -1.
         -3   -1    0    0    0  501 -0.00000000000E+00 -0.00000000000E+00 -0.63841977983E+03  0.63841977983E+03  0.00000000000E+00 0.  1.
         24    1    1    2    0    0  0.58458359914E+01  0.36941061250E+02 -0.44400565092E+03  0.45277704205E+03  0.80419002446E+02 0.  1.
        -24    1    1    2    0    0 -0.58458359914E+01 -0.36941061250E+02 -0.17967994020E+03  0.20037692649E+03  0.80419002446E+02 0. -1.
<mgrwt>
<rscale>  0 0.88690652E+02</rscale>
<asrwt>0</asrwt>
<pdfrwt beam="1">  1        3 0.22667981E-02 0.88690652E+02</pdfrwt>
<pdfrwt beam="2">  1       -3 0.98218434E-01 0.88690652E+02</pdfrwt>
<totfact> 0.15768400E+03</totfact>
</mgrwt>
</event>
<event>
 4    1  0.1123525E-001  0.9095523E+02  0.7546771E-02  0.1300555E+00
          2   -1    0    0  501    0  0.00000000000E+00  0.00000000000E+00  0.79715869368E+03  0.79715869368E+03  0.00000000000E+00 0. -1.
         -2   -1    0    0    0  501 -0.00000000000E+00 -0.00000000000E+00 -0.10467387625E+02  0.10467387625E+02  0.00000000000E+00 0.  1.
         24    1    1    2    0    0  0.36357564097E+02 -0.21994657813E+02  0.43067764989E+03  0.44017734097E+03  0.80419002446E+02 0.  0.
        -24    1    1    2    0    0 -0.36357564097E+02  0.21994657813E+02  0.35601365617E+03  0.36744874033E+03  0.80419002446E+02 0. -1.
<mgrwt>
<rscale>  0 0.90955227E+02</rscale>
<asrwt>0</asrwt>
<pdfrwt beam="1">  1        2 0.12263975E+00 0.90955227E+02</pdfrwt>
<pdfrwt beam="2">  1       -2 0.16103679E-02 0.90955227E+02</pdfrwt>
<totfact> 0.34235860E+04</totfact>
</mgrwt>
</event>
<event>
 4    1  0.1123525E-001  0.8597761E+02  0.7546771E-02  0.1312896E+00
          2   -1    0    0  501    0  0.00000000000E+00  0.00000000000E+00  0.78829779278E+03  0.78829779278E+03  0.00000000000E+00 0. -1.
         -2   -1    0    0    0  501 -0.00000000000E+00 -0.00000000000E+00 -0.55003857029E+02  0.55003857029E+02  0.00000000000E+00 0.  1.
         24    1    1    2    0    0 -0.74535046336E+01 -0.29485214650E+02  0.75067680443E+03  0.75558441837E+03  0.80419002446E+02 0. -1.
        -24    1    1    2    0    0  0.74535046336E+01  0.29485214650E+02 -0.17382868679E+02  0.87717231444E+02  0.80419002446E+02 0.  1.
<mgrwt>
<rscale>  0 0.85977605E+02</rscale>
<asrwt>0</asrwt>
<pdfrwt beam="1">  1        2 0.12127658E+00 0.85977605E+02</pdfrwt>
<pdfrwt beam="2">  1       -2 0.84621324E-02 0.85977605E+02</pdfrwt>
<totfact> 0.30175575E+03</totfact>
</mgrwt>
</event>
<event>
 4    1  0.1123525E-001  0.1873193E+03  0.7546771E-02  0.1160902E+00
         -1   -1    0    0    0  501 -0.00000000000E+00  0.00000000000E+00  0.36590626008E+02  0.36590626008E+02  0.00000000000E+00 0.  1.
          1   -1    0    0  501    0  0.00000000000E+00 -0.00000000000E+00 -0.10083461778E+04  0.10083461778E+04  0.00000000000E+00 0. -1.
         24    1    1    2    0    0  0.12065161457E+03 -0.11859388490E+03 -0.37023804637E+03  0.41492740156E+03  0.80419002446E+02 0.  1.
        -24    1    1    2    0    0 -0.12065161457E+03  0.11859388490E+03 -0.60151750543E+03  0.63000940226E+03  0.80419002446E+02 0.  0.
<mgrwt>
<rscale>  0 0.18731935E+03</rscale>
<asrwt>0</asrwt>
<pdfrwt beam="1">  1        1 0.15513015E+00 0.18731935E+03</pdfrwt>
<pdfrwt beam="2">  1       -1 0.56293281E-02 0.18731935E+03</pdfrwt>
<totfact> 0.23078453E+03</totfact>
</mgrwt>
</event>
<event>
 4    1  0.1123525E-001  0.1294204E+03  0.7546771E-02  0.1228318E+00
         -1   -1    0    0    0  501 -0.00000000000E+00  0.00000000000E+00  0.27899534317E+03  0.27899534317E+03  0.00000000000E+00 0.  1.
          1   -1    0    0  501    0  0.00000000000E+00 -0.00000000000E+00 -0.84014783717E+02  0.84014783717E+02  0.00000000000E+00 0. -1.
         24    1    1    2    0    0  0.95456191193E+02  0.34213313036E+02  0.19445821294E+03  0.23358862935E+03  0.80419002446E+02 0.  0.
        -24    1    1    2    0    0 -0.95456191193E+02 -0.34213313036E+02  0.52234651505E+00  0.12942149754E+03  0.80419002446E+02 0.  1.
<mgrwt>
<rscale>  0 0.12942044E+03</rscale>
<asrwt>0</asrwt>
<pdfrwt beam="1">  1        1 0.12925351E-01 0.12942044E+03</pdfrwt>
<pdfrwt beam="2">  1       -1 0.42922360E-01 0.12942044E+03</pdfrwt>
<totfact> 0.23889985E+03</totfact>
</mgrwt>
</event>
<event>
 4    1  0.1123525E-001  0.9121746E+02  0.7546771E-02  0.1299930E+00
          2   -1    0    0  501    0  0.00000000000E+00  0.00000000000E+00  0.15888852686E+04  0.15888852686E+04  0.00000000000E+00 0. -1.
         -2   -1    0    0    0  501 -0.00000000000E+00 -0.00000000000E+00 -0.56961731740E+01  0.56961731740E+01  0.00000000000E+00 0.  1.
         24    1    1    2    0    0  0.37168020457E+02  0.21724264588E+02  0.56516989984E+03  0.57248374392E+03  0.80419002446E+02 0.  0.
        -24    1    1    2    0    0 -0.37168020457E+02 -0.21724264588E+02  0.10180191956E+04  0.10220976979E+04  0.80419002446E+02 0.  0.
<mgrwt>
<rscale>  0 0.91217451E+02</rscale>
<asrwt>0</asrwt>
<pdfrwt beam="1">  1        2 0.24444353E+00 0.91217463E+02</pdfrwt>
<pdfrwt beam="2">  1       -2 0.87633560E-03 0.91217463E+02</pdfrwt>
<totfact> 0.29421334E+04</totfact>
</mgrwt>
</event>
<event>
 4    1  0.1123525E-001  0.8070300E+02  0.7546771E-02  0.1327068E+00
          1   -1    0    0  501    0  0.00000000000E+00  0.00000000000E+00  0.22795958882E+03  0.22795958882E+03  0.00000000000E+00 0. -1.
         -1   -1    0    0    0  501 -0.00000000000E+00 -0.00000000000E+00 -0.35590247911E+02  0.35590247911E+02  0.00000000000E+00 0.  1.
         24    1    1    2    0    0  0.42749363838E+00  0.67510183724E+01  0.37662493494E+02  0.89058623223E+02  0.80419002446E+02 0.  1.
        -24    1    1    2    0    0 -0.42749363838E+00 -0.67510183724E+01  0.15470684742E+03  0.17449121351E+03  0.80419002446E+02 0.  0.
<mgrwt>
<rscale>  0 0.80703005E+02</rscale>
<asrwt>0</asrwt>
<pdfrwt beam="1">  1        1 0.35070705E-01 0.80703005E+02</pdfrwt>
<pdfrwt beam="2">  1       -1 0.54754229E-02 0.80703005E+02</pdfrwt>
<totfact> 0.16881622E+04</totfact>
</mgrwt>
</event>
<event>
 4    1  0.1123525E-001  0.8727246E+02  0.7546771E-02  0.1309595E+00
          1   -1    0    0  501    0  0.00000000000E+00  0.00000000000E+00  0.27443182982E+02  0.27443182982E+02  0.00000000000E+00 0. -1.
         -1   -1    0    0    0  501 -0.00000000000E+00 -0.00000000000E+00 -0.31125507591E+03  0.31125507591E+03  0.00000000000E+00 0.  1.
         24    1    1    2    0    0  0.12717893319E+02  0.31424857146E+02 -0.19764504695E+03  0.21605565717E+03  0.80419002446E+02 0.  1.
        -24    1    1    2    0    0 -0.12717893319E+02 -0.31424857146E+02 -0.86166845982E+02  0.12264260173E+03  0.80419002446E+02 0. -1.
<mgrwt>
<rscale>  0 0.87272461E+02</rscale>
<asrwt>0</asrwt>
<pdfrwt beam="1">  1        1 0.42220281E-02 0.87272461E+02</pdfrwt>
<pdfrwt beam="2">  1       -1 0.47885397E-01 0.87272461E+02</pdfrwt>
<totfact> 0.85056096E+03</totfact>
</mgrwt>
</event>
<event>
 4    1  0.1123525E-001  0.8590974E+02  0.7546771E-02  0.1313070E+00
         -2   -1    0    0    0  501 -0.00000000000E+00  0.00000000000E+00  0.52382602144E+01  0.52382602144E+01  0.00000000000E+00 0.  1.
          2   -1    0    0  501    0  0.00000000000E+00 -0.00000000000E+00 -0.19696838017E+04  0.19696838017E+04  0.00000000000E+00 0. -1.
         24    1    1    2    0    0 -0.24129910820E+02 -0.18193828784E+02 -0.15090853154E+04  0.15115286875E+04  0.80419002446E+02 0. -1.
        -24    1    1    2    0    0  0.24129910820E+02  0.18193828784E+02 -0.45536022601E+03  0.46339337435E+03  0.80419002446E+02 0.  1.
<mgrwt>
<rscale>  0 0.85909743E+02</rscale>
<asrwt>0</asrwt>
<pdfrwt beam="1">  1        2 0.30302880E+00 0.85909743E+02</pdfrwt>
<pdfrwt beam="2">  1       -2 0.80588481E-03 0.85909743E+02</pdfrwt>
<totfact> 0.21235405E+04</totfact>
</mgrwt>
</event>
<event>
 4    1  0.1123525E-001  0.8923404E+02  0.7546771E-02  0.1304717E+00
         -2   -1    0    0    0  501 -0.00000000000E+00  0.00000000000E+00  0.10321814033E+04  0.10321814033E+04  0.00000000000E+00 0.  1.
          2   -1    0    0  501    0  0.00000000000E+00 -0.00000000000E+00 -0.18418934243E+02  0.18418934243E+02  0.00000000000E+00 0. -1.
         24    1    1    2    0    0 -0.30965516224E+02 -0.23165393029E+02  0.10642218610E+03  0.13888267091E+03  0.80419002446E+02 0. -1.
        -24    1    1    2    0    0  0.30965516224E+02  0.23165393029E+02  0.90734028297E+03  0.91171766665E+03  0.80419002446E+02 0.  1.
<mgrwt>
<rscale>  0 0.89234044E+02</rscale>
<asrwt>0</asrwt>
<pdfrwt beam="1">  1        2 0.28336830E-02 0.89234044E+02</pdfrwt>
<pdfrwt beam="2">  1       -2 0.15879709E+00 0.89234044E+02</pdfrwt>
<totfact> 0.87528546E+02</totfact>
</mgrwt>
</event>
<event>
 4    1  0.1123525E-001  0.8760045E+02  0.7546771E-02  0.1308769E+00
          1   -1    0    0  501    0  0.00000000000E+00  0.00000000000E+00  0.59060778346E+03  0.59060778346E+03  0.00000000000E+00 0. -1.
         -1   -1    0    0    0  501 -0.00000000000E+00 -0.00000000000E+00 -0.13028466342E+02  0.13028466342E+02  0.00000000000E+00 0.  1.
         24    1    1    2    0    0 -0.34248801027E+02 -0.57998218279E+01  0.30451165769E+03  0.31686145857E+03  0.80419002446E+02 0. -1.
        -24    1    1    2    0    0  0.34248801027E+02  0.57998218279E+01  0.27306765944E+03  0.28677479124E+03  0.80419002446E+02 0.  1.
<mgrwt>
<rscale>  0 0.87600435E+02</rscale>
<asrwt>0</asrwt>
<pdfrwt beam="1">  1        1 0.90862715E-01 0.87600446E+02</pdfrwt>
<pdfrwt beam="2">  1       -1 0.20043799E-02 0.87600446E+02</pdfrwt>
<totfact> 0.22183029E+04</totfact>
</mgrwt>
</event>
<event>
 4    1  0.1123525E-001  0.9873217E+02  0.7546771E-02  0.1282985E+00
          1   -1    0    0  501    0  0.00000000000E+00  0.00000000000E+00  0.20020371382E+03  0.20020371382E+03  0.00000000000E+00 0. -1.
         -1   -1    0    0    0  501 -0.00000000000E+00 -0.00000000000E+00 -0.62534060045E+02  0.62534060045E+02  0.00000000000E+00 0.  1.
         24    1    1    2    0    0  0.45292081400E+02  0.35063542403E+02  0.70251599193E+01  0.98981783524E+02  0.80419002446E+02 0.  1.
        -24    1    1    2    0    0 -0.45292081400E+02 -0.35063542403E+02  0.13064449386E+03  0.16375599034E+03  0.80419002446E+02 0. -1.
<mgrwt>
<rscale>  0 0.98732166E+02</rscale>
<asrwt>0</asrwt>
<pdfrwt beam="1">  1        1 0.30800571E-01 0.98732166E+02</pdfrwt>
<pdfrwt beam="2">  1       -1 0.96206247E-02 0.98732166E+02</pdfrwt>
<totfact> 0.87337907E+03</totfact>
</mgrwt>
</event>
<event>
 4    1  0.1123525E-001  0.9611807E+02  0.7546771E-02  0.1288678E+00
          1   -1    0    0  501    0  0.00000000000E+00  0.00000000000E+00  0.27253343173E+02  0.27253343173E+02  0.00000000000E+00 0. -1.
         -1   -1    0    0    0  501 -0.00000000000E+00 -0.00000000000E+00 -0.47641661750E+03  0.47641661750E+03  0.00000000000E+00 0.  1.
         24    1    1    2    0    0  0.29317027029E+02  0.43726184168E+02 -0.35983679456E+03  0.37245295264E+03  0.80419002446E+02 0.  1.
        -24    1    1    2    0    0 -0.29317027029E+02 -0.43726184168E+02 -0.89326479768E+02  0.13121700804E+03  0.80419002446E+02 0. -1.
<mgrwt>
<rscale>  0 0.96118069E+02</rscale>
<asrwt>0</asrwt>
<pdfrwt beam="1">  1        1 0.41928222E-02 0.96118069E+02</pdfrwt>
<pdfrwt beam="2">  1       -1 0.73294861E-01 0.96118069E+02</pdfrwt>
<totfact> 0.38927266E+03</totfact>
</mgrwt>
</event>
<event>
 4    1  0.1123525E-001  0.1019451E+03  0.7546771E-02  0.1276258E+00
          1   -1    0    0  501    0  0.00000000000E+00  0.00000000000E+00  0.12585315468E+03  0.12585315468E+03  0.00000000000E+00 0. -1.
         -1   -1    0    0    0  501 -0.00000000000E+00 -0.00000000000E+00 -0.82582749670E+02  0.82582749670E+02  0.00000000000E+00 0.  1.
         24    1    1    2    0    0  0.62637391360E+02  0.14597241529E+01  0.22365266155E+02  0.10436951028E+03  0.80419002446E+02 0.  0.
        -24    1    1    2    0    0 -0.62637391360E+02 -0.14597241529E+01  0.20905138858E+02  0.10406639408E+03  0.80419002446E+02 0.  0.
<mgrwt>
<rscale>  0 0.10194504E+03</rscale>
<asrwt>0</asrwt>
<pdfrwt beam="1">  1        1 0.19362024E-01 0.10194506E+03</pdfrwt>
<pdfrwt beam="2">  1       -1 0.12705038E-01 0.10194506E+03</pdfrwt>
<totfact> 0.10222078E+04</totfact>
</mgrwt>
</event>
<event>
 4    1  0.1123525E-001  0.1878281E+03  0.7546771E-02  0.1160435E+00
          1   -1    0    0  501    0  0.00000000000E+00  0.00000000000E+00  0.39896886739E+03  0.39896886739E+03  0.00000000000E+00 0. -1.
         -1   -1    0    0    0  501 -0.00000000000E+00 -0.00000000000E+00 -0.17155027159E+03  0.17155027159E+03  0.00000000000E+00 0.  1.
         24    1    1    2    0    0 -0.53416589825E+02 -0.16111747419E+03 -0.84857826907E+02  0.20610734897E+03  0.80419002446E+02 0.  1.
        -24    1    1    2    0    0  0.53416589825E+02  0.16111747419E+03  0.31227642271E+03  0.36441179000E+03  0.80419002446E+02 0. -1.
<mgrwt>
<rscale>  0 0.18782808E+03</rscale>
<asrwt>0</asrwt>
<pdfrwt beam="1">  1        1 0.61379825E-01 0.18782808E+03</pdfrwt>
<pdfrwt beam="2">  1       -1 0.26392350E-01 0.18782808E+03</pdfrwt>
<totfact> 0.77464123E+02</totfact>
</mgrwt>
</event>
<event>
 4    1  0.1123525E-001  0.8102601E+02  0.7546771E-02  0.1326165E+00
          2   -1    0    0  501    0  0.00000000000E+00  0.00000000000E+00  0.98105254152E+03  0.98105254152E+03  0.00000000000E+00 0. -1.
         -2   -1    0    0    0  501 -0.00000000000E+00 -0.00000000000E+00 -0.11674999250E+02  0.11674999250E+02  0.00000000000E+00 0.  1.
         24    1    1    2    0    0 -0.68805657210E+01 -0.71173024376E+01  0.80896610039E+03  0.81301375494E+03  0.80419002446E+02 0.  0.
        -24    1    1    2    0    0  0.68805657210E+01  0.71173024376E+01  0.16041144187E+03  0.17971378583E+03  0.80419002446E+02 0.  1.
<mgrwt>
<rscale>  0 0.81026009E+02</rscale>
<asrwt>0</asrwt>
<pdfrwt beam="1">  1        2 0.15093110E+00 0.81026009E+02</pdfrwt>
<pdfrwt beam="2">  1       -2 0.17961545E-02 0.81026009E+02</pdfrwt>
<totfact> 0.22241778E+04</totfact>
</mgrwt>
</event>
<event>
 4    1  0.1123525E-001  0.1074041E+03  0.7546771E-02  0.1265454E+00
         -2   -1    0    0    0  501 -0.00000000000E+00  0.00000000000E+00  0.10255554254E+03  0.10255554254E+03  0.00000000000E+00 0.  1.
          2   -1    0    0  501    0  0.00000000000E+00 -0.00000000000E+00 -0.13452617439E+03  0.13452617439E+03  0.00000000000E+00 0. -1.
         24    1    1    2    0    0 -0.63189640347E+02 -0.32794658014E+02  0.32000530590E+02  0.11206993421E+03  0.80419002446E+02 0. -1.
        -24    1    1    2    0    0  0.63189640347E+02  0.32794658014E+02 -0.63971162441E+02  0.12501178272E+03  0.80419002446E+02 0. -1.
<mgrwt>
<rscale>  0 0.10740409E+03</rscale>
<asrwt>0</asrwt>
<pdfrwt beam="1">  1        2 0.20696334E-01 0.10740411E+03</pdfrwt>
<pdfrwt beam="2">  1       -2 0.15777776E-01 0.10740411E+03</pdfrwt>
<totfact> 0.77935570E+03</totfact>
</mgrwt>
</event>
<event>
 4    1  0.1123525E-001  0.1016720E+03  0.7546771E-02  0.1276819E+00
          2   -1    0    0  501    0  0.00000000000E+00  0.00000000000E+00  0.11847529615E+04  0.11847529615E+04  0.00000000000E+00 0. -1.
         -2   -1    0    0    0  501 -0.00000000000E+00 -0.00000000000E+00 -0.87609258466E+01  0.87609258466E+01  0.00000000000E+00 0.  1.
         24    1    1    2    0    0 -0.53229749943E+02 -0.32195887262E+02  0.54988411076E+03  0.55920455350E+03  0.80419002446E+02 0. -1.
        -24    1    1    2    0    0  0.53229749943E+02  0.32195887262E+02  0.62610792493E+03  0.63430933388E+03  0.80419002446E+02 0.  0.
<mgrwt>
<rscale>  0 0.10167202E+03</rscale>
<asrwt>0</asrwt>
<pdfrwt beam="1">  1        2 0.18226956E+00 0.10167203E+03</pdfrwt>
<pdfrwt beam="2">  1       -2 0.13478357E-02 0.10167203E+03</pdfrwt>
<totfact> 0.26212503E+04</totfact>
</mgrwt>
</event>
<event>
 4    1  0.1123525E-001  0.8830992E+02  0.7546771E-02  0.1306997E+00
          1   -1    0    0  501    0  0.00000000000E+00  0.00000000000E+00  0.27613385448E+04  0.27613385448E+04  0.00000000000E+00 0. -1.
         -1   -1    0    0    0  501 -0.00000000000E+00 -0.00000000000E+00 -0.48044904202E+01  0.48044904202E+01  0.00000000000E+00 0.  1.
         24    1    1    2    0    0  0.22823193566E+02  0.28469779921E+02  0.49032905523E+03  0.49821804955E+03  0.80419002446E+02 0.  1.
        -24    1    1    2    0    0 -0.22823193566E+02 -0.28469779921E+02  0.22662049991E+04  0.22679249856E+04  0.80419002446E+02 0. -1.
<mgrwt>
<rscale>  0 0.88309923E+02</rscale>
<asrwt>0</asrwt>
<pdfrwt beam="1">  1        1 0.42482005E+00 0.88309923E+02</pdfrwt>
<pdfrwt beam="2">  1       -1 0.73915458E-03 0.88309923E+02</pdfrwt>
<totfact> 0.30751760E+03</totfact>
</mgrwt>
</event>
<event>
 4    1  0.1123525E-001  0.1025533E+03  0.7546771E-02  0.1275017E+00
          1   -1    0    0  501    0  0.00000000000E+00  0.00000000000E+00  0.59387460092E+02  0.59387460092E+02  0.00000000000E+00 0. -1.
         -1   -1    0    0    0  501 -0.00000000000E+00 -0.00000000000E+00 -0.17792635856E+03  0.17792635856E+03  0.00000000000E+00 0.  1.
         24    1    1    2    0    0 -0.60937362421E+02  0.18346551140E+02 -0.67384271651E+02  0.12271028522E+03  0.80419002446E+02 0. -1.
        -24    1    1    2    0    0  0.60937362421E+02 -0.18346551140E+02 -0.51154626821E+02  0.11460353344E+03  0.80419002446E+02 0.  1.
<mgrwt>
<rscale>  0 0.10255327E+03</rscale>
<asrwt>0</asrwt>
<pdfrwt beam="1">  1        1 0.91365323E-02 0.10255327E+03</pdfrwt>
<pdfrwt beam="2">  1       -1 0.27373286E-01 0.10255327E+03</pdfrwt>
<totfact> 0.79902111E+03</totfact>
</mgrwt>
</event>
<event>
 4    1  0.1123525E-001  0.1223048E+03  0.7546771E-02  0.1239343E+00
         -2   -1    0    0    0  501 -0.00000000000E+00  0.00000000000E+00  0.35148408377E+03  0.35148408377E+03  0.00000000000E+00 0.  1.
          2   -1    0    0  501    0  0.00000000000E+00 -0.00000000000E+00 -0.13616337932E+03  0.13616337932E+03  0.00000000000E+00 0. -1.
         24    1    1    2    0    0 -0.79369379477E+02  0.46816155170E+02 -0.94500085753E+02  0.15455980378E+03  0.80419002446E+02 0. -1.
        -24    1    1    2    0    0  0.79369379477E+02 -0.46816155170E+02  0.30982079021E+03  0.33308765931E+03  0.80419002446E+02 0.  1.
<mgrwt>
<rscale>  0 0.12230481E+03</rscale>
<asrwt>0</asrwt>
<pdfrwt beam="1">  1        2 0.20948212E-01 0.12230481E+03</pdfrwt>
<pdfrwt beam="2">  1       -2 0.54074474E-01 0.12230481E+03</pdfrwt>
<totfact> 0.84793206E+02</totfact>
</mgrwt>
</event>
<event>
 4    1  0.1123525E-001  0.1364015E+03  0.7546771E-02  0.1218255E+00
         -3   -1    0    0    0  501 -0.00000000000E+00  0.00000000000E+00  0.84899345353E+02  0.84899345353E+02  0.00000000000E+00 0.  1.
          3   -1    0    0  501    0  0.00000000000E+00 -0.00000000000E+00 -0.60972510795E+03  0.60972510795E+03  0.00000000000E+00 0. -1.
         24    1    1    2    0    0 -0.56769132967E+02 -0.94421523585E+02  0.15563175089E+02  0.13728651408E+03  0.80419002446E+02 0.  1.
        -24    1    1    2    0    0  0.56769132967E+02  0.94421523585E+02 -0.54038893769E+03  0.55733793923E+03  0.80419002446E+02 0. -1.
<mgrwt>
<rscale>  0 0.13640152E+03</rscale>
<asrwt>0</asrwt>
<pdfrwt beam="1">  1        3 0.93803863E-01 0.13640152E+03</pdfrwt>
<pdfrwt beam="2">  1       -3 0.13061438E-01 0.13640152E+03</pdfrwt>
<totfact> 0.11591276E+02</totfact>
</mgrwt>
</event>
<event>
 4    1  0.1123525E-001  0.8497567E+02  0.7546771E-02  0.1315496E+00
          2   -1    0    0  501    0  0.00000000000E+00  0.00000000000E+00  0.92665047038E+03  0.92665047038E+03  0.00000000000E+00 0. -1.
         -2   -1    0    0    0  501 -0.00000000000E+00 -0.00000000000E+00 -0.30145274799E+02  0.30145274799E+02  0.00000000000E+00 0.  1.
         24    1    1    2    0    0  0.10041747228E+02  0.25550183329E+02  0.86020397483E+03  0.86439096642E+03  0.80419002446E+02 0. -1.
        -24    1    1    2    0    0 -0.10041747228E+02 -0.25550183329E+02  0.36301220749E+02  0.92404778761E+02  0.80419002446E+02 0.  1.
<mgrwt>
<rscale>  0 0.84975670E+02</rscale>
<asrwt>0</asrwt>
<pdfrwt beam="1">  1        2 0.14256159E+00 0.84975670E+02</pdfrwt>
<pdfrwt beam="2">  1       -2 0.46377353E-02 0.84975670E+02</pdfrwt>
<totfact> 0.60808312E+03</totfact>
</mgrwt>
</event>
<event>
 4    1  0.1123525E-001  0.8350208E+02  0.7546771E-02  0.1319397E+00
         -4   -1    0    0    0  501 -0.00000000000E+00  0.00000000000E+00  0.61375498874E+01  0.61375498874E+01  0.00000000000E+00 0.  1.
          4   -1    0    0  501    0  0.00000000000E+00 -0.00000000000E+00 -0.15493981816E+04  0.15493981816E+04  0.00000000000E+00 0. -1.
         24    1    1    2    0    0 -0.87753760949E+00 -0.22463559226E+02 -0.11733504351E+04  0.11763179167E+04  0.80419002446E+02 0. -1.
        -24    1    1    2    0    0  0.87753760949E+00  0.22463559226E+02 -0.36991019659E+03  0.37921781480E+03  0.80419002446E+02 0.  1.
<mgrwt>
<rscale>  0 0.83502081E+02</rscale>
<asrwt>0</asrwt>
<pdfrwt beam="1">  1        4 0.23836913E+00 0.83502081E+02</pdfrwt>
<pdfrwt beam="2">  1       -4 0.94423775E-03 0.83502081E+02</pdfrwt>
<totfact> 0.41983216E+02</totfact>
</mgrwt>
</event>
<event>
 4    1  0.1123525E-001  0.1143594E+03  0.7546771E-02  0.1252703E+00
          2   -1    0    0  501    0  0.00000000000E+00  0.00000000000E+00  0.13816689859E+04  0.13816689859E+04  0.00000000000E+00 0. -1.
         -2   -1    0    0    0  501 -0.00000000000E+00 -0.00000000000E+00 -0.94700072310E+01  0.94700072310E+01  0.00000000000E+00 0.  1.
         24    1    1    2    0    0 -0.72141249998E+02 -0.37503165235E+02  0.67077387518E+03  0.68045253687E+03  0.80419002446E+02 0.  1.
        -24    1    1    2    0    0  0.72141249998E+02  0.37503165235E+02  0.70142510347E+03  0.71068645624E+03  0.80419002446E+02 0. -1.
<mgrwt>
<rscale>  0 0.11435937E+03</rscale>
<asrwt>0</asrwt>
<pdfrwt beam="1">  1        2 0.21256430E+00 0.11435939E+03</pdfrwt>
<pdfrwt beam="2">  1       -2 0.14569253E-02 0.11435939E+03</pdfrwt>
<totfact> 0.18552098E+04</totfact>
</mgrwt>
</event>
<event>
 4    1  0.1123525E-001  0.8087996E+02  0.7546771E-02  0.1326573E+00
         -1   -1    0    0    0  501 -0.00000000000E+00  0.00000000000E+00  0.10743913881E+02  0.10743913881E+02  0.00000000000E+00 0.  1.
          1   -1    0    0  501    0  0.00000000000E+00 -0.00000000000E+00 -0.65129619431E+03  0.65129619431E+03  0.00000000000E+00 0. -1.
         24    1    1    2    0    0  0.71712885480E+01  0.47879095930E+01 -0.23578329974E+03  0.24926959672E+03  0.80419002446E+02 0.  1.
        -24    1    1    2    0    0 -0.71712885480E+01 -0.47879095930E+01 -0.40476898069E+03  0.41277051147E+03  0.80419002446E+02 0. -1.
<mgrwt>
<rscale>  0 0.80879957E+02</rscale>
<asrwt>0</asrwt>
<pdfrwt beam="1">  1        1 0.10019945E+00 0.80879957E+02</pdfrwt>
<pdfrwt beam="2">  1       -1 0.16529093E-02 0.80879957E+02</pdfrwt>
<totfact> 0.25354459E+04</totfact>
</mgrwt>
</event>
<event>
 4    1  0.1123525E-001  0.9303913E+02  0.7546771E-02  0.1295655E+00
          1   -1    0    0  501    0  0.00000000000E+00  0.00000000000E+00  0.20164217478E+03  0.20164217478E+03  0.00000000000E+00 0. -1.
         -1   -1    0    0    0  501 -0.00000000000E+00 -0.00000000000E+00 -0.45726692064E+02  0.45726692064E+02  0.00000000000E+00 0.  1.
         24    1    1    2    0    0 -0.37479414376E+02  0.28006367634E+02  0.47363691327E+02  0.10440114147E+03  0.80419002446E+02 0.  0.
        -24    1    1    2    0    0  0.37479414376E+02 -0.28006367634E+02  0.10855179139E+03  0.14296772537E+03  0.80419002446E+02 0.  1.
<mgrwt>
<rscale>  0 0.93039127E+02</rscale>
<asrwt>0</asrwt>
<pdfrwt beam="1">  1        1 0.31021873E-01 0.93039127E+02</pdfrwt>
<pdfrwt beam="2">  1       -1 0.70348758E-02 0.93039127E+02</pdfrwt>
<totfact> 0.13757724E+04</totfact>
</mgrwt>
</event>
<event>
 4    1  0.1123525E-001  0.1537236E+03  0.7546771E-02  0.1195971E+00
         -2   -1    0    0    0  501 -0.00000000000E+00  0.00000000000E+00  0.84907344801E+01  0.84907344801E+01  0.00000000000E+00 0.  1.
          2   -1    0    0  501    0  0.00000000000E+00 -0.00000000000E+00 -0.31018526966E+04  0.31018526966E+04  0.00000000000E+00 0. -1.
         24    1    1    2    0    0 -0.31665975759E+02  0.12712585497E+03 -0.10481811426E+04  0.10593935250E+04  0.80419002446E+02 0.  0.
        -24    1    1    2    0    0  0.31665975759E+02 -0.12712585497E+03 -0.20451808195E+04  0.20509499061E+04  0.80419002446E+02 0.  1.
<mgrwt>
<rscale>  0 0.15372358E+03</rscale>
<asrwt>0</asrwt>
<pdfrwt beam="1">  1        2 0.47720884E+00 0.15372360E+03</pdfrwt>
<pdfrwt beam="2">  1       -2 0.13062648E-02 0.15372360E+03</pdfrwt>
<totfact> 0.26567201E+03</totfact>
</mgrwt>
</event>
<event>
 4    1  0.1123525E-001  0.8121396E+02  0.7546771E-02  0.1325641E+00
          1   -1    0    0  501    0  0.00000000000E+00  0.00000000000E+00  0.14155816366E+04  0.14155816366E+04  0.00000000000E+00 0. -1.
         -1   -1    0    0    0  501 -0.00000000000E+00 -0.00000000000E+00 -0.67581055515E+01  0.67581055515E+01  0.00000000000E+00 0.  1.
         24    1    1    2    0    0 -0.64149111653E+01  0.93456350984E+01  0.30809677113E+03  0.31862097909E+03  0.80419002446E+02 0.  1.
        -24    1    1    2    0    0  0.64149111653E+01 -0.93456350984E+01  0.11007267599E+04  0.11037187631E+04  0.80419002446E+02 0.  0.
<mgrwt>
<rscale>  0 0.81213964E+02</rscale>
<asrwt>0</asrwt>
<pdfrwt beam="1">  1        1 0.21778155E+00 0.81213964E+02</pdfrwt>
<pdfrwt beam="2">  1       -1 0.10397097E-02 0.81213964E+02</pdfrwt>
<totfact> 0.13544589E+04</totfact>
</mgrwt>
</event>
<event>
 4    1  0.1123525E-001  0.8542982E+02  0.7546771E-02  0.1314312E+00
          1   -1    0    0  501    0  0.00000000000E+00  0.00000000000E+00  0.18513499002E+03  0.18513499002E+03  0.00000000000E+00 0. -1.
         -1   -1    0    0    0  501 -0.00000000000E+00 -0.00000000000E+00 -0.40689546353E+02  0.40689546353E+02  0.00000000000E+00 0.  1.
         24    1    1    2    0    0  0.14362642587E+02  0.24995060591E+02  0.52288080388E+02  0.10016135912E+03  0.80419002446E+02 0.  0.
        -24    1    1    2    0    0 -0.14362642587E+02 -0.24995060591E+02  0.92157363276E+02  0.12566317725E+03  0.80419002446E+02 0.  1.
<mgrwt>
<rscale>  0 0.85429822E+02</rscale>
<asrwt>0</asrwt>
<pdfrwt beam="1">  1        1 0.28482306E-01 0.85429822E+02</pdfrwt>
<pdfrwt beam="2">  1       -1 0.62599303E-02 0.85429822E+02</pdfrwt>
<totfact> 0.17996162E+04</totfact>
</mgrwt>
</event>
<event>
 4    1  0.1123525E-001  0.1349220E+03  0.7546771E-02  0.1220330E+00
         -4   -1    0    0    0  501 -0.00000000000E+00  0.00000000000E+00  0.24259805608E+03  0.24259805608E+03  0.00000000000E+00 0.  1.
          4   -1    0    0  501    0  0.00000000000E+00 -0.00000000000E+00 -0.28481735979E+03  0.28481735979E+03  0.00000000000E+00 0. -1.
         24    1    1    2    0    0 -0.12149772568E+02  0.10765273324E+03 -0.24742891697E+03  0.28182443623E+03  0.80419002446E+02 0. -1.
        -24    1    1    2    0    0  0.12149772568E+02 -0.10765273324E+03  0.20520961326E+03  0.24559097964E+03  0.80419002446E+02 0.  1.
<mgrwt>
<rscale>  0 0.13492199E+03</rscale>
<asrwt>0</asrwt>
<pdfrwt beam="1">  1        4 0.43818055E-01 0.13492199E+03</pdfrwt>
<pdfrwt beam="2">  1       -4 0.37322778E-01 0.13492199E+03</pdfrwt>
<totfact> 0.59485263E+01</totfact>
</mgrwt>
</event>
<event>
 4    1  0.1123525E-001  0.8075494E+02  0.7546771E-02  0.1326923E+00
          2   -1    0    0  501    0  0.00000000000E+00  0.00000000000E+00  0.17314430706E+04  0.17314430706E+04  0.00000000000E+00 0. -1.
         -2   -1    0    0    0  501 -0.00000000000E+00 -0.00000000000E+00 -0.47499879768E+01  0.47499879768E+01  0.00000000000E+00 0.  1.
         24    1    1    2    0    0  0.70709143398E+00  0.73242082608E+01  0.12583688663E+04  0.12609573996E+04  0.80419002446E+02 0. -1.
        -24    1    1    2    0    0 -0.70709143398E+00 -0.73242082608E+01  0.46832421639E+03  0.47523565903E+03  0.80419002446E+02 0.  0.
<mgrwt>
<rscale>  0 0.80754938E+02</rscale>
<asrwt>0</asrwt>
<pdfrwt beam="1">  1        2 0.26637535E+00 0.80754938E+02</pdfrwt>
<pdfrwt beam="2">  1       -2 0.73076877E-03 0.80754938E+02</pdfrwt>
<totfact> 0.31902058E+04</totfact>
</mgrwt>
</event>
<event>
 4    1  0.1123525E-001  0.1277256E+03  0.7546771E-02  0.1230870E+00
          2   -1    0    0  501    0  0.00000000000E+00  0.00000000000E+00  0.10233251711E+03  0.10233251711E+03  0.00000000000E+00 0. -1.
         -2   -1    0    0    0  501 -0.00000000000E+00 -0.00000000000E+00 -0.57859307818E+03  0.57859307818E+03  0.00000000000E+00 0.  1.
         24    1    1    2    0    0  0.36791857462E+02  0.92157372197E+02  0.51657319243E+02  0.13777632820E+03  0.80419002446E+02 0. -1.
        -24    1    1    2    0    0 -0.36791857462E+02 -0.92157372197E+02 -0.52791788032E+03  0.54314926709E+03  0.80419002446E+02 0.  1.
<mgrwt>
<rscale>  0 0.12772564E+03</rscale>
<asrwt>0</asrwt>
<pdfrwt beam="1">  1        2 0.15743464E-01 0.12772564E+03</pdfrwt>
<pdfrwt beam="2">  1       -2 0.89014319E-01 0.12772564E+03</pdfrwt>
<totfact> 0.40915608E+02</totfact>
</mgrwt>
</event>
<event>
 4    1  0.1123525E-001  0.1389282E+03  0.7546771E-02  0.1214778E+00
          2   -1    0    0  501    0  0.00000000000E+00  0.00000000000E+00  0.51301755930E+03  0.51301755930E+03  0.00000000000E+00 0. -1.
         -2   -1    0    0    0  501 -0.00000000000E+00 -0.00000000000E+00 -0.38043828551E+02  0.38043828551E+02  0.00000000000E+00 0.  1.
         24    1    1    2    0    0  0.77855521109E+02  0.82294255530E+02  0.20849349879E+03  0.25054057886E+03  0.80419002446E+02 0. -1.
        -24    1    1    2    0    0 -0.77855521109E+02 -0.82294255530E+02  0.26648023195E+03  0.30052080899E+03  0.80419002446E+02 0.  1.
<mgrwt>
<rscale>  0 0.13892821E+03</rscale>
<asrwt>0</asrwt>
<pdfrwt beam="1">  1        2 0.78925773E-01 0.13892823E+03</pdfrwt>
<pdfrwt beam="2">  1       -2 0.58528971E-02 0.13892823E+03</pdfrwt>
<totfact> 0.88888776E+03</totfact>
</mgrwt>
</event>
<event>
 4    1  0.1123525E-001  0.1091340E+03  0.7546771E-02  0.1262182E+00
          2   -1    0    0  501    0  0.00000000000E+00  0.00000000000E+00  0.25750025107E+04  0.25750025107E+04  0.00000000000E+00 0. -1.
         -2   -1    0    0    0  501 -0.00000000000E+00 -0.00000000000E+00 -0.73324822805E+01  0.73324822805E+01  0.00000000000E+00 0.  1.
         24    1    1    2    0    0  0.23531554445E+01 -0.73739215373E+02  0.20683726187E+04  0.20712497471E+04  0.80419002446E+02 0. -1.
        -24    1    1    2    0    0 -0.23531554445E+01  0.73739215373E+02  0.49929740975E+03  0.51108524588E+03  0.80419002446E+02 0.  0.
<mgrwt>
<rscale>  0 0.10913398E+03</rscale>
<asrwt>0</asrwt>
<pdfrwt beam="1">  1        2 0.39615351E+00 0.10913398E+03</pdfrwt>
<pdfrwt beam="2">  1       -2 0.11280763E-02 0.10913398E+03</pdfrwt>
<totfact> 0.64927352E+03</totfact>
</mgrwt>
</event>
<event>
 4    1  0.1123525E-001  0.8376438E+02  0.7546771E-02  0.1318696E+00
         -2   -1    0    0    0  501 -0.00000000000E+00  0.00000000000E+00  0.11525000989E+02  0.11525000989E+02  0.00000000000E+00 0.  1.
          2   -1    0    0  501    0  0.00000000000E+00 -0.00000000000E+00 -0.11045655778E+04  0.11045655778E+04  0.00000000000E+00 0. -1.
         24    1    1    2    0    0 -0.11475824536E+01  0.23408070177E+02 -0.92038112780E+03  0.92418498747E+03  0.80419002446E+02 0. -1.
        -24    1    1    2    0    0  0.11475824536E+01 -0.23408070177E+02 -0.17265944906E+03  0.19190559137E+03  0.80419002446E+02 0.  1.
<mgrwt>
<rscale>  0 0.83764376E+02</rscale>
<asrwt>0</asrwt>
<pdfrwt beam="1">  1        2 0.16993319E+00 0.83764376E+02</pdfrwt>
<pdfrwt beam="2">  1       -2 0.17730768E-02 0.83764376E+02</pdfrwt>
<totfact> 0.19308331E+04</totfact>
</mgrwt>
</event>
<event>
 4    1  0.1123525E-001  0.8521614E+02  0.7546771E-02  0.1314868E+00
         -1   -1    0    0    0  501 -0.00000000000E+00  0.00000000000E+00  0.11404263425E+02  0.11404263425E+02  0.00000000000E+00 0.  1.
          1   -1    0    0  501    0  0.00000000000E+00 -0.00000000000E+00 -0.92725098271E+03  0.92725098271E+03  0.00000000000E+00 0. -1.
         24    1    1    2    0    0  0.22411554747E+02  0.17096682078E+02 -0.19523366296E+03  0.21302106335E+03  0.80419002446E+02 0.  1.
        -24    1    1    2    0    0 -0.22411554747E+02 -0.17096682078E+02 -0.72061305633E+03  0.72563418279E+03  0.80419002446E+02 0. -1.
<mgrwt>
<rscale>  0 0.85216139E+02</rscale>
<asrwt>0</asrwt>
<pdfrwt beam="1">  1        1 0.14265402E+00 0.85216139E+02</pdfrwt>
<pdfrwt beam="2">  1       -1 0.17545018E-02 0.85216139E+02</pdfrwt>
<totfact> 0.13956951E+04</totfact>
</mgrwt>
</event>
<event>
 4    1  0.1123525E-001  0.8200599E+02  0.7546771E-02  0.1323453E+00
         -2   -1    0    0    0  501 -0.00000000000E+00  0.00000000000E+00  0.46731076943E+01  0.46731076943E+01  0.00000000000E+00 0.  1.
          2   -1    0    0  501    0  0.00000000000E+00 -0.00000000000E+00 -0.14413085852E+04  0.14413085852E+04  0.00000000000E+00 0. -1.
         24    1    1    2    0    0  0.95861051749E+01 -0.12879199012E+02 -0.74673723618E+03  0.75122665224E+03  0.80419002446E+02 0.  1.
        -24    1    1    2    0    0 -0.95861051749E+01  0.12879199012E+02 -0.68989824133E+03  0.69475504066E+03  0.80419002446E+02 0. -1.
<mgrwt>
<rscale>  0 0.82005995E+02</rscale>
<asrwt>0</asrwt>
<pdfrwt beam="1">  1        2 0.22173985E+00 0.82005995E+02</pdfrwt>
<pdfrwt beam="2">  1       -2 0.71893943E-03 0.82005995E+02</pdfrwt>
<totfact> 0.45784506E+04</totfact>
</mgrwt>
</event>
<event>
 4    1  0.1123525E-001  0.8242645E+02  0.7546771E-02  0.1322303E+00
          1   -1    0    0  501    0  0.00000000000E+00  0.00000000000E+00  0.12276733281E+04  0.12276733281E+04  0.00000000000E+00 0. -1.
         -1   -1    0    0    0  501 -0.00000000000E+00 -0.00000000000E+00 -0.84795758268E+01  0.84795758268E+01  0.00000000000E+00 0.  1.
         24    1    1    2    0    0  0.14553935945E+02 -0.10727871922E+02  0.24532162538E+03  0.25879880239E+03  0.80419002446E+02 0.  1.
        -24    1    1    2    0    0 -0.14553935945E+02  0.10727871922E+02  0.97387212687E+03  0.97735410151E+03  0.80419002446E+02 0. -1.
<mgrwt>
<rscale>  0 0.82426454E+02</rscale>
<asrwt>0</asrwt>
<pdfrwt beam="1">  1        1 0.18887268E+00 0.82426454E+02</pdfrwt>
<pdfrwt beam="2">  1       -1 0.13045511E-02 0.82426454E+02</pdfrwt>
<totfact> 0.13061228E+04</totfact>
</mgrwt>
</event>
<event>
 4    1  0.1123525E-001  0.1023084E+03  0.7546771E-02  0.1275515E+00
         -3   -1    0    0    0  501 -0.00000000000E+00  0.00000000000E+00  0.19040478337E+03  0.19040478337E+03  0.00000000000E+00 0.  1.
          3   -1    0    0  501    0  0.00000000000E+00 -0.00000000000E+00 -0.90837549550E+02  0.90837549550E+02  0.00000000000E+00 0. -1.
         24    1    1    2    0    0 -0.56272011922E+02 -0.28866207617E+02  0.13814329913E+03  0.17190283394E+03  0.80419002446E+02 0.  1.
        -24    1    1    2    0    0  0.56272011922E+02  0.28866207617E+02 -0.38576065310E+02  0.10933949898E+03  0.80419002446E+02 0. -1.
<mgrwt>
<rscale>  0 0.10230842E+03</rscale>
<asrwt>0</asrwt>
<pdfrwt beam="1">  1        3 0.13975008E-01 0.10230842E+03</pdfrwt>
<pdfrwt beam="2">  1       -3 0.29293044E-01 0.10230842E+03</pdfrwt>
<totfact> 0.10337427E+03</totfact>
</mgrwt>
</event>
<event>
 4    1  0.1123525E-001  0.9823388E+02  0.7546771E-02  0.1284054E+00
          1   -1    0    0  501    0  0.00000000000E+00  0.00000000000E+00  0.51202881944E+02  0.51202881944E+02  0.00000000000E+00 0. -1.
         -1   -1    0    0    0  501 -0.00000000000E+00 -0.00000000000E+00 -0.19221041425E+03  0.19221041425E+03  0.00000000000E+00 0.  1.
         24    1    1    2    0    0  0.34943726871E+02  0.44290132370E+02 -0.87495527556E+02  0.13154985051E+03  0.80419002446E+02 0. -1.
        -24    1    1    2    0    0 -0.34943726871E+02 -0.44290132370E+02 -0.53512004747E+02  0.11186344568E+03  0.80419002446E+02 0.  1.
<mgrwt>
<rscale>  0 0.98233883E+02</rscale>
<asrwt>0</asrwt>
<pdfrwt beam="1">  1        1 0.78773664E-02 0.98233883E+02</pdfrwt>
<pdfrwt beam="2">  1       -1 0.29570833E-01 0.98233883E+02</pdfrwt>
<totfact> 0.85256632E+03</totfact>
</mgrwt>
</event>
<event>
 4    1  0.1123525E-001  0.1084694E+03  0.7546771E-02  0.1263431E+00
         -2   -1    0    0    0  501 -0.00000000000E+00  0.00000000000E+00  0.72609835680E+01  0.72609835680E+01  0.00000000000E+00 0.  1.
          2   -1    0    0  501    0  0.00000000000E+00 -0.00000000000E+00 -0.19760880208E+04  0.19760880208E+04  0.00000000000E+00 0. -1.
         24    1    1    2    0    0  0.36125183248E+01 -0.72700392137E+02 -0.14051476349E+04  0.14093280276E+04  0.80419002446E+02 0.  0.
        -24    1    1    2    0    0 -0.36125183248E+01  0.72700392137E+02 -0.56367940232E+03  0.57402097685E+03  0.80419002446E+02 0. -1.
<mgrwt>
<rscale>  0 0.10846941E+03</rscale>
<asrwt>0</asrwt>
<pdfrwt beam="1">  1        2 0.30401353E+00 0.10846941E+03</pdfrwt>
<pdfrwt beam="2">  1       -2 0.11170744E-02 0.10846941E+03</pdfrwt>
<totfact> 0.13440066E+04</totfact>
</mgrwt>
</event>
<event>
 4    1  0.1123525E-001  0.8448363E+02  0.7546771E-02  0.1316788E+00
         -2   -1    0    0    0  501 -0.00000000000E+00  0.00000000000E+00  0.31587052444E+02  0.31587052444E+02  0.00000000000E+00 0.  1.
          2   -1    0    0  501    0  0.00000000000E+00 -0.00000000000E+00 -0.44394379388E+03  0.44394379388E+03  0.00000000000E+00 0. -1.
         24    1    1    2    0    0 -0.14578653571E+01 -0.25848465910E+02 -0.37278584034E+03  0.38223914932E+03  0.80419002446E+02 0. -1.
        -24    1    1    2    0    0  0.14578653571E+01  0.25848465910E+02 -0.39570901091E+02  0.93291696999E+02  0.80419002446E+02 0.  1.
<mgrwt>
<rscale>  0 0.84483635E+02</rscale>
<asrwt>0</asrwt>
<pdfrwt beam="1">  1        2 0.68299048E-01 0.84483635E+02</pdfrwt>
<pdfrwt beam="2">  1       -2 0.48595464E-02 0.84483635E+02</pdfrwt>
<totfact> 0.13209442E+04</totfact>
</mgrwt>
</event>
<event>
 4    1  0.1123525E-001  0.9193486E+02  0.7546771E-02  0.1298233E+00
         -1   -1    0    0    0  501 -0.00000000000E+00  0.00000000000E+00  0.53124777857E+02  0.53124777857E+02  0.00000000000E+00 0.  1.
          1   -1    0    0  501    0  0.00000000000E+00 -0.00000000000E+00 -0.21211982245E+03  0.21211982245E+03  0.00000000000E+00 0. -1.
         24    1    1    2    0    0 -0.41556477531E+02  0.16058088122E+02 -0.13191140447E+02  0.92876397215E+02  0.80419002446E+02 0.  1.
        -24    1    1    2    0    0  0.41556477531E+02 -0.16058088122E+02 -0.14580390415E+03  0.17236820310E+03  0.80419002446E+02 0. -1.
<mgrwt>
<rscale>  0 0.91934863E+02</rscale>
<asrwt>0</asrwt>
<pdfrwt beam="1">  1        1 0.32633818E-01 0.91934863E+02</pdfrwt>
<pdfrwt beam="2">  1       -1 0.81730430E-02 0.91934863E+02</pdfrwt>
<totfact> 0.10329939E+04</totfact>
</mgrwt>
</event>
<event>
 4    1  0.1123525E-001  0.8757909E+02  0.7546771E-02  0.1308822E+00
         -2   -1    0    0    0  501 -0.00000000000E+00  0.00000000000E+00  0.13880574354E+02  0.13880574354E+02  0.00000000000E+00 0.  1.
          2   -1    0    0  501    0  0.00000000000E+00 -0.00000000000E+00 -0.10113337880E+04  0.10113337880E+04  0.00000000000E+00 0. -1.
         24    1    1    2    0    0  0.27914962540E+02  0.20582433016E+02 -0.84397231379E+03  0.84850419214E+03  0.80419002446E+02 0.  1.
        -24    1    1    2    0    0 -0.27914962540E+02 -0.20582433016E+02 -0.15348089988E+03  0.17671017023E+03  0.80419002446E+02 0.  0.
<mgrwt>
<rscale>  0 0.87579094E+02</rscale>
<asrwt>0</asrwt>
<pdfrwt beam="1">  1        2 0.15558985E+00 0.87579094E+02</pdfrwt>
<pdfrwt beam="2">  1       -2 0.21354724E-02 0.87579094E+02</pdfrwt>
<totfact> 0.16777435E+04</totfact>
</mgrwt>
</event>
<event>
 4    1  0.1123525E-001  0.1143744E+03  0.7546771E-02  0.1252677E+00
          2   -1    0    0  501    0  0.00000000000E+00  0.00000000000E+00  0.11562054047E+04  0.11562054047E+04  0.00000000000E+00 0. -1.
         -2   -1    0    0    0  501 -0.00000000000E+00 -0.00000000000E+00 -0.11746017790E+02  0.11746017790E+02  0.00000000000E+00 0.  1.
         24    1    1    2    0    0  0.52765899484E+02  0.61887466795E+02  0.68420194105E+03  0.69369576241E+03  0.80419002446E+02 0. -1.
        -24    1    1    2    0    0 -0.52765899484E+02 -0.61887466795E+02  0.46025744587E+03  0.47425566009E+03  0.80419002446E+02 0.  1.
<mgrwt>
<rscale>  0 0.11437445E+03</rscale>
<asrwt>0</asrwt>
<pdfrwt beam="1">  1        2 0.17787766E+00 0.11437445E+03</pdfrwt>
<pdfrwt beam="2">  1       -2 0.18070806E-02 0.11437445E+03</pdfrwt>
<totfact> 0.18011720E+04</totfact>
</mgrwt>
</event>
<event>
 4    1  0.1123525E-001  0.1253511E+03  0.7546771E-02  0.1234522E+00
         -2   -1    0    0    0  501 -0.00000000000E+00  0.00000000000E+00  0.75380975569E+02  0.75380975569E+02  0.00000000000E+00 0.  1.
          2   -1    0    0  501    0  0.00000000000E+00 -0.00000000000E+00 -0.21651606354E+03  0.21651606354E+03  0.00000000000E+00 0. -1.
         24    1    1    2    0    0 -0.88544263183E+02  0.37491140407E+02 -0.98743852151E+02  0.15957204155E+03  0.80419002446E+02 0.  0.
        -24    1    1    2    0    0  0.88544263183E+02 -0.37491140407E+02 -0.42391235823E+02  0.13232499757E+03  0.80419002446E+02 0.  1.
<mgrwt>
<rscale>  0 0.12535106E+03</rscale>
<asrwt>0</asrwt>
<pdfrwt beam="1">  1        2 0.33310163E-01 0.12535106E+03</pdfrwt>
<pdfrwt beam="2">  1       -2 0.11597073E-01 0.12535106E+03</pdfrwt>
<totfact> 0.76960943E+03</totfact>
</mgrwt>
</event>
<event>
 4    1  0.1123525E-001  0.1582316E+03  0.7546771E-02  0.1190708E+00
          2   -1    0    0  501    0  0.00000000000E+00  0.00000000000E+00  0.45281119305E+03  0.45281119305E+03  0.00000000000E+00 0. -1.
         -2   -1    0    0    0  501 -0.00000000000E+00 -0.00000000000E+00 -0.69005175860E+02  0.69005175860E+02  0.00000000000E+00 0.  1.
         24    1    1    2    0    0  0.13484233254E+03 -0.19686414687E+02  0.30820905335E+03  0.34645352660E+03  0.80419002446E+02 0.  1.
        -24    1    1    2    0    0 -0.13484233254E+03  0.19686414687E+02  0.75596963834E+02  0.17536284231E+03  0.80419002446E+02 0. -1.
<mgrwt>
<rscale>  0 0.15823156E+03</rscale>
<asrwt>0</asrwt>
<pdfrwt beam="1">  1        2 0.69663258E-01 0.15823156E+03</pdfrwt>
<pdfrwt beam="2">  1       -2 0.10616181E-01 0.15823156E+03</pdfrwt>
<totfact> 0.40851007E+03</totfact>
</mgrwt>
</event>
<event>
 4    1  0.1474179E-001  0.1014070E+03  0.7546771E-02  0.1277365E+00
          1   -1    0    0  501    0  0.00000000000E+00  0.00000000000E+00  0.10556776393E+04  0.10556776393E+04  0.00000000000E+00 0. -1.
         -1   -1    0    0    0  501 -0.00000000000E+00 -0.00000000000E+00 -0.24726457594E+02  0.24726457594E+02  0.00000000000E+00 0.  1.
         24    1    1    2    0    0  0.17797948114E+01 -0.61749472402E+02  0.94933048488E+02  0.13890883579E+03  0.80419002446E+02 0.  1.
        -24    1    1    2    0    0 -0.17797948114E+01  0.61749472402E+02  0.93601813322E+03  0.94149526110E+03  0.80419002446E+02 0. -1.
<mgrwt>
<rscale>  0 0.10140701E+03</rscale>
<asrwt>0</asrwt>
<pdfrwt beam="1">  1        1 0.16241191E+00 0.10140701E+03</pdfrwt>
<pdfrwt beam="2">  1       -1 0.38040712E-02 0.10140701E+03</pdfrwt>
<totfact> 0.37454241E+03</totfact>
</mgrwt>
</event>
<event>
 4    1  0.1123525E-001  0.1308501E+03  0.7546771E-02  0.1226200E+00
          2   -1    0    0  501    0  0.00000000000E+00  0.00000000000E+00  0.12477503037E+04  0.12477503037E+04  0.00000000000E+00 0. -1.
         -2   -1    0    0    0  501 -0.00000000000E+00 -0.00000000000E+00 -0.16077257001E+02  0.16077257001E+02  0.00000000000E+00 0.  1.
         24    1    1    2    0    0  0.76982672585E+02 -0.68761859642E+02  0.85769580661E+03  0.86761963892E+03  0.80419002446E+02 0. -1.
        -24    1    1    2    0    0 -0.76982672585E+02  0.68761859642E+02  0.37397724012E+03  0.39620792181E+03  0.80419002446E+02 0.  1.
<mgrwt>
<rscale>  0 0.13085007E+03</rscale>
<asrwt>0</asrwt>
<pdfrwt beam="1">  1        2 0.19196151E+00 0.13085007E+03</pdfrwt>
<pdfrwt beam="2">  1       -2 0.24734251E-02 0.13085007E+03</pdfrwt>
<totfact> 0.10256395E+04</totfact>
</mgrwt>
</event>
<event>
 4    1  0.1123525E-001  0.1380877E+03  0.7546771E-02  0.1215926E+00
         -1   -1    0    0    0  501 -0.00000000000E+00  0.00000000000E+00  0.47069104428E+02  0.47069104428E+02  0.00000000000E+00 0.  1.
          1   -1    0    0  501    0  0.00000000000E+00 -0.00000000000E+00 -0.48553557992E+03  0.48553557992E+03  0.00000000000E+00 0. -1.
         24    1    1    2    0    0 -0.97895119763E+02  0.54932146700E+02 -0.11085080321E+03  0.17707657028E+03  0.80419002446E+02 0.  1.
        -24    1    1    2    0    0  0.97895119763E+02 -0.54932146700E+02 -0.32761567228E+03  0.35552811407E+03  0.80419002446E+02 0. -1.
<mgrwt>
<rscale>  0 0.13808769E+03</rscale>
<asrwt>0</asrwt>
<pdfrwt beam="1">  1        1 0.74697786E-01 0.13808769E+03</pdfrwt>
<pdfrwt beam="2">  1       -1 0.72414002E-02 0.13808769E+03</pdfrwt>
<totfact> 0.45537026E+03</totfact>
</mgrwt>
</event>
<event>
 4    1  0.1123525E-001  0.8576968E+02  0.7546771E-02  0.1313432E+00
         -1   -1    0    0    0  501 -0.00000000000E+00  0.00000000000E+00  0.33143378779E+03  0.33143378779E+03  0.00000000000E+00 0.  1.
          1   -1    0    0  501    0  0.00000000000E+00 -0.00000000000E+00 -0.52631498637E+02  0.52631498637E+02  0.00000000000E+00 0. -1.
         24    1    1    2    0    0  0.29816114205E+02 -0.46993776023E+00  0.28543173536E+03  0.29803978428E+03  0.80419002446E+02 0.  1.
        -24    1    1    2    0    0 -0.29816114205E+02  0.46993776023E+00 -0.66294462103E+01  0.86025502145E+02  0.80419002446E+02 0. -1.
<mgrwt>
<rscale>  0 0.85769677E+02</rscale>
<asrwt>0</asrwt>
<pdfrwt beam="1">  1        1 0.80971538E-02 0.85769677E+02</pdfrwt>
<pdfrwt beam="2">  1       -1 0.50989812E-01 0.85769677E+02</pdfrwt>
<totfact> 0.31693359E+03</totfact>
</mgrwt>
</event>
<event>
 4    1  0.1123525E-001  0.8563057E+02  0.7546771E-02  0.1313792E+00
          3   -1    0    0  501    0  0.00000000000E+00  0.00000000000E+00  0.30091569300E+03  0.30091569300E+03  0.00000000000E+00 0. -1.
         -3   -1    0    0    0  501 -0.00000000000E+00 -0.00000000000E+00 -0.35796725280E+02  0.35796725280E+02  0.00000000000E+00 0.  1.
         24    1    1    2    0    0 -0.79331608718E+01  0.28327448027E+02  0.37430281569E+02  0.93453845752E+02  0.80419002446E+02 0.  1.
        -24    1    1    2    0    0  0.79331608718E+01 -0.28327448027E+02  0.22768868615E+03  0.24325857253E+03  0.80419002446E+02 0. -1.
<mgrwt>
<rscale>  0 0.85630575E+02</rscale>
<asrwt>0</asrwt>
<pdfrwt beam="1">  1        3 0.46294720E-01 0.85630575E+02</pdfrwt>
<pdfrwt beam="2">  1       -3 0.55071887E-02 0.85630575E+02</pdfrwt>
<totfact> 0.19131628E+03</totfact>
</mgrwt>
</event>
<event>
 4    1  0.1123525E-001  0.1141879E+03  0.7546771E-02  0.1253005E+00
          1   -1    0    0  501    0  0.00000000000E+00  0.00000000000E+00  0.10172498819E+04  0.10172498819E+04  0.00000000000E+00 0. -1.
         -1   -1    0    0    0  501 -0.00000000000E+00 -0.00000000000E+00 -0.17786030608E+02  0.17786030608E+02  0.00000000000E+00 0.  1.
         24    1    1    2    0    0 -0.15597532272E+01 -0.81050771785E+02  0.22621259143E+03  0.25339892051E+03  0.80419002446E+02 0.  1.
        -24    1    1    2    0    0  0.15597532272E+01  0.81050771785E+02  0.77325125988E+03  0.78163699202E+03  0.80419002446E+02 0. -1.
<mgrwt>
<rscale>  0 0.11418790E+03</rscale>
<asrwt>0</asrwt>
<pdfrwt beam="1">  1        1 0.15649994E+00 0.11418790E+03</pdfrwt>
<pdfrwt beam="2">  1       -1 0.27363132E-02 0.11418790E+03</pdfrwt>
<totfact> 0.64666426E+03</totfact>
</mgrwt>
</event>
<event>
 4    1  0.1123525E-001  0.8652629E+02  0.7546771E-02  0.1311489E+00
         -1   -1    0    0    0  501 -0.00000000000E+00  0.00000000000E+00  0.25232353898E+03  0.25232353898E+03  0.00000000000E+00 0.  1.
          1   -1    0    0  501    0  0.00000000000E+00 -0.00000000000E+00 -0.75299562232E+02  0.75299562232E+02  0.00000000000E+00 0. -1.
         24    1    1    2    0    0  0.21310384030E+02  0.23779205759E+02  0.21602798322E+03  0.23271202930E+03  0.80419002446E+02 0.  1.
        -24    1    1    2    0    0 -0.21310384030E+02 -0.23779205759E+02 -0.39004006477E+02  0.94911071903E+02  0.80419002446E+02 0. -1.
<mgrwt>
<rscale>  0 0.86526291E+02</rscale>
<asrwt>0</asrwt>
<pdfrwt beam="1">  1        1 0.11584548E-01 0.86526291E+02</pdfrwt>
<pdfrwt beam="2">  1       -1 0.38819006E-01 0.86526291E+02</pdfrwt>
<totfact> 0.32105961E+03</totfact>
</mgrwt>
</event>
<event>
 4    1  0.1123525E-001  0.1117635E+03  0.7546771E-02  0.1257339E+00
         -1   -1    0    0    0  501 -0.00000000000E+00  0.00000000000E+00  0.30584222470E+02  0.30584222470E+02  0.00000000000E+00 0.  1.
          1   -1    0    0  501    0  0.00000000000E+00 -0.00000000000E+00 -0.40851961578E+03  0.40851961578E+03  0.00000000000E+00 0. -1.
         24    1    1    2    0    0  0.25657869352E+02 -0.73249794929E+02 -0.19247041542E+03  0.22256669896E+03  0.80419002446E+02 0.  1.
        -24    1    1    2    0    0 -0.25657869352E+02  0.73249794929E+02 -0.18546497789E+03  0.21653713930E+03  0.80419002446E+02 0.  0.
<mgrwt>
<rscale>  0 0.11176349E+03</rscale>
<asrwt>0</asrwt>
<pdfrwt beam="1">  1        1 0.62849171E-01 0.11176350E+03</pdfrwt>
<pdfrwt beam="2">  1       -1 0.47052650E-02 0.11176350E+03</pdfrwt>
<totfact> 0.10619678E+04</totfact>
</mgrwt>
</event>
<event>
 4    1  0.1123525E-001  0.1013299E+03  0.7546771E-02  0.1277524E+00
         -2   -1    0    0    0  501 -0.00000000000E+00  0.00000000000E+00  0.31585027683E+02  0.31585027683E+02  0.00000000000E+00 0.  1.
          2   -1    0    0  501    0  0.00000000000E+00 -0.00000000000E+00 -0.32609856230E+03  0.32609856230E+03  0.00000000000E+00 0. -1.
         24    1    1    2    0    0 -0.19287281108E+02  0.58553646638E+02 -0.15723885366E+03  0.18706095745E+03  0.80419002446E+02 0.  1.
        -24    1    1    2    0    0  0.19287281108E+02 -0.58553646638E+02 -0.13727468096E+03  0.17062263254E+03  0.80419002446E+02 0. -1.
<mgrwt>
<rscale>  0 0.10132988E+03</rscale>
<asrwt>0</asrwt>
<pdfrwt beam="1">  1        2 0.50169008E-01 0.10132988E+03</pdfrwt>
<pdfrwt beam="2">  1       -2 0.48592352E-02 0.10132988E+03</pdfrwt>
<totfact> 0.18595891E+04</totfact>
</mgrwt>
</event>
<event>
 4    1  0.1123525E-001  0.1445081E+03  0.7546771E-02  0.1207389E+00
          2   -1    0    0  501    0  0.00000000000E+00  0.00000000000E+00  0.69711017383E+02  0.69711017383E+02  0.00000000000E+00 0. -1.
         -2   -1    0    0    0  501 -0.00000000000E+00 -0.00000000000E+00 -0.79916643695E+03  0.79916643695E+03  0.00000000000E+00 0.  1.
         24    1    1    2    0    0 -0.27110185162E+00  0.12006368539E+03 -0.21229667629E+02  0.14605915510E+03  0.80419002446E+02 0. -1.
        -24    1    1    2    0    0  0.27110185162E+00 -0.12006368539E+03 -0.70822575193E+03  0.72281829923E+03  0.80419002446E+02 0.  1.
<mgrwt>
<rscale>  0 0.14450806E+03</rscale>
<asrwt>0</asrwt>
<pdfrwt beam="1">  1        2 0.10724772E-01 0.14450806E+03</pdfrwt>
<pdfrwt beam="2">  1       -2 0.12294868E+00 0.14450806E+03</pdfrwt>
<totfact> 0.30546818E+02</totfact>
</mgrwt>
</event>
<event>
 4    1  0.1123525E-001  0.8874101E+02  0.7546771E-02  0.1305929E+00
         -1   -1    0    0    0  501 -0.00000000000E+00  0.00000000000E+00  0.27036197155E+02  0.27036197155E+02  0.00000000000E+00 0.  1.
          1   -1    0    0  501    0  0.00000000000E+00 -0.00000000000E+00 -0.44265136456E+03  0.44265136456E+03  0.00000000000E+00 0. -1.
         24    1    1    2    0    0  0.36835110268E+02 -0.71361663595E+01 -0.70473823960E+02  0.11332045727E+03  0.80419002446E+02 0.  1.
        -24    1    1    2    0    0 -0.36835110268E+02  0.71361663595E+01 -0.34514134344E+03  0.35636710444E+03  0.80419002446E+02 0. -1.
<mgrwt>
<rscale>  0 0.88741006E+02</rscale>
<asrwt>0</asrwt>
<pdfrwt beam="1">  1        1 0.68100207E-01 0.88741006E+02</pdfrwt>
<pdfrwt beam="2">  1       -1 0.41594152E-02 0.88741006E+02</pdfrwt>
<totfact> 0.11277906E+04</totfact>
</mgrwt>
</event>
<event>
 4    1  0.1123525E-001  0.1065807E+03  0.7546771E-02  0.1267036E+00
         -1   -1    0    0    0  501 -0.00000000000E+00  0.00000000000E+00  0.71851549651E+01  0.71851549651E+01  0.00000000000E+00 0.  1.
          1   -1    0    0  501    0  0.00000000000E+00 -0.00000000000E+00 -0.27573583802E+04  0.27573583802E+04  0.00000000000E+00 0. -1.
         24    1    1    2    0    0 -0.55326660883E+02 -0.42792318969E+02 -0.47221882473E+03  0.48409715590E+03  0.80419002446E+02 0.  1.
        -24    1    1    2    0    0  0.55326660883E+02  0.42792318969E+02 -0.22779544005E+04  0.22804463792E+04  0.80419002446E+02 0. -1.
<mgrwt>
<rscale>  0 0.10658066E+03</rscale>
<asrwt>0</asrwt>
<pdfrwt beam="1">  1        1 0.42420904E+00 0.10658066E+03</pdfrwt>
<pdfrwt beam="2">  1       -1 0.11054083E-02 0.10658066E+03</pdfrwt>
<totfact> 0.17537664E+03</totfact>
</mgrwt>
</event>
<event>
 4    1  0.1123525E-001  0.9032100E+02  0.7546771E-02  0.1302076E+00
         -2   -1    0    0    0  501 -0.00000000000E+00  0.00000000000E+00  0.43889690052E+01  0.43889690052E+01  0.00000000000E+00 0.  1.
          2   -1    0    0  501    0  0.00000000000E+00 -0.00000000000E+00 -0.18655577866E+04  0.18655577866E+04  0.00000000000E+00 0. -1.
         24    1    1    2    0    0  0.30519963150E+02 -0.27553578713E+02 -0.98717089328E+03  0.99129423298E+03  0.80419002446E+02 0. -1.
        -24    1    1    2    0    0 -0.30519963150E+02  0.27553578713E+02 -0.87399792433E+03  0.87865252264E+03  0.80419002446E+02 0.  0.
<mgrwt>
<rscale>  0 0.90321004E+02</rscale>
<asrwt>0</asrwt>
<pdfrwt beam="1">  1        2 0.28700944E+00 0.90321004E+02</pdfrwt>
<pdfrwt beam="2">  1       -2 0.67522470E-03 0.90321004E+02</pdfrwt>
<totfact> 0.30819789E+04</totfact>
</mgrwt>
</event>
<event>
 4    1  0.1123525E-001  0.8374974E+02  0.7546771E-02  0.1318735E+00
          1   -1    0    0  501    0  0.00000000000E+00  0.00000000000E+00  0.16995487650E+04  0.16995487650E+04  0.00000000000E+00 0. -1.
         -1   -1    0    0    0  501 -0.00000000000E+00 -0.00000000000E+00 -0.55024640118E+01  0.55024640118E+01  0.00000000000E+00 0.  1.
         24    1    1    2    0    0 -0.23165585929E+02  0.31873529169E+01  0.42078223264E+03  0.42903578737E+03  0.80419002446E+02 0.  1.
        -24    1    1    2    0    0  0.23165585929E+02 -0.31873529169E+01  0.12732640684E+04  0.12760154416E+04  0.80419002446E+02 0. -1.
<mgrwt>
<rscale>  0 0.83749744E+02</rscale>
<asrwt>0</asrwt>
<pdfrwt beam="1">  1        1 0.26146862E+00 0.83749744E+02</pdfrwt>
<pdfrwt beam="2">  1       -1 0.84653428E-03 0.83749744E+02</pdfrwt>
<totfact> 0.11978641E+04</totfact>
</mgrwt>
</event>
<event>
 4    1  0.1123525E-001  0.8996668E+02  0.7546771E-02  0.1302932E+00
          1   -1    0    0  501    0  0.00000000000E+00  0.00000000000E+00  0.18606037097E+02  0.18606037097E+02  0.00000000000E+00 0. -1.
         -1   -1    0    0    0  501 -0.00000000000E+00 -0.00000000000E+00 -0.55233279999E+03  0.55233279999E+03  0.00000000000E+00 0.  1.
         24    1    1    2    0    0  0.33928008921E+02  0.21810024878E+02 -0.39842566678E+03  0.40845687027E+03  0.80419002446E+02 0.  1.
        -24    1    1    2    0    0 -0.33928008921E+02 -0.21810024878E+02 -0.13530109612E+03  0.16248196681E+03  0.80419002446E+02 0. -1.
<mgrwt>
<rscale>  0 0.89966677E+02</rscale>
<asrwt>0</asrwt>
<pdfrwt beam="1">  1        1 0.28624676E-02 0.89966677E+02</pdfrwt>
<pdfrwt beam="2">  1       -1 0.84974267E-01 0.89966677E+02</pdfrwt>
<totfact> 0.48382052E+03</totfact>
</mgrwt>
</event>
<event>
 4    1  0.1123525E-001  0.8054701E+02  0.7546771E-02  0.1327506E+00
         -2   -1    0    0    0  501 -0.00000000000E+00  0.00000000000E+00  0.58745135778E+02  0.58745135778E+02  0.00000000000E+00 0.  1.
          2   -1    0    0  501    0  0.00000000000E+00 -0.00000000000E+00 -0.34592954750E+03  0.34592954750E+03  0.00000000000E+00 0. -1.
         24    1    1    2    0    0 -0.45002610058E+01 -0.59394972439E+00 -0.31053508454E+03  0.32081125263E+03  0.80419002446E+02 0.  0.
        -24    1    1    2    0    0  0.45002610058E+01  0.59394972439E+00  0.23350672820E+02  0.83863430653E+02  0.80419002446E+02 0.  1.
<mgrwt>
<rscale>  0 0.80547012E+02</rscale>
<asrwt>0</asrwt>
<pdfrwt beam="1">  1        2 0.53219931E-01 0.80547012E+02</pdfrwt>
<pdfrwt beam="2">  1       -2 0.90377130E-02 0.80547012E+02</pdfrwt>
<totfact> 0.67117818E+03</totfact>
</mgrwt>
</event>
<event>
 4    1  0.1123525E-001  0.1067509E+03  0.7546771E-02  0.1266708E+00
          1   -1    0    0  501    0  0.00000000000E+00  0.00000000000E+00  0.25843395811E+03  0.25843395811E+03  0.00000000000E+00 0. -1.
         -1   -1    0    0    0  501 -0.00000000000E+00 -0.00000000000E+00 -0.47820307859E+02  0.47820307859E+02  0.00000000000E+00 0.  1.
         24    1    1    2    0    0 -0.27615465267E+02  0.64543963937E+02  0.62569952154E+02  0.12373662380E+03  0.80419002446E+02 0.  0.
        -24    1    1    2    0    0  0.27615465267E+02 -0.64543963937E+02  0.14804369810E+03  0.18251764217E+03  0.80419002446E+02 0.  1.
<mgrwt>
<rscale>  0 0.10675089E+03</rscale>
<asrwt>0</asrwt>
<pdfrwt beam="1">  1        1 0.39759070E-01 0.10675089E+03</pdfrwt>
<pdfrwt beam="2">  1       -1 0.73569706E-02 0.10675089E+03</pdfrwt>
<totfact> 0.96118251E+03</totfact>
</mgrwt>
</event>
<event>
 4    1  0.1123525E-001  0.1063109E+03  0.7546771E-02  0.1267558E+00
          4   -1    0    0  501    0  0.00000000000E+00  0.00000000000E+00  0.15447005381E+03  0.15447005381E+03  0.00000000000E+00 0. -1.
         -4   -1    0    0    0  501 -0.00000000000E+00 -0.00000000000E+00 -0.32071802719E+03  0.32071802719E+03  0.00000000000E+00 0.  1.
         24    1    1    2    0    0 -0.35213561674E+02 -0.59956655694E+02  0.12561654518E+03  0.16456466166E+03  0.80419002446E+02 0. -1.
        -24    1    1    2    0    0  0.35213561674E+02  0.59956655694E+02 -0.29186451857E+03  0.31062341934E+03  0.80419002446E+02 0.  1.
<mgrwt>
<rscale>  0 0.10631092E+03</rscale>
<asrwt>0</asrwt>
<pdfrwt beam="1">  1        4 0.23764624E-01 0.10631092E+03</pdfrwt>
<pdfrwt beam="2">  1       -4 0.49341234E-01 0.10631092E+03</pdfrwt>
<totfact> 0.10545612E+02</totfact>
</mgrwt>
</event>
<event>
 4    1  0.1123525E-001  0.9174349E+02  0.7546771E-02  0.1298684E+00
         -2   -1    0    0    0  501 -0.00000000000E+00  0.00000000000E+00  0.56154899036E+01  0.56154899036E+01  0.00000000000E+00 0.  1.
          2   -1    0    0  501    0  0.00000000000E+00 -0.00000000000E+00 -0.21820887584E+04  0.21820887584E+04  0.00000000000E+00 0. -1.
         24    1    1    2    0    0  0.43864270092E+02 -0.50573744784E+01 -0.17003101023E+04  0.17027834011E+04  0.80419002446E+02 0. -1.
        -24    1    1    2    0    0 -0.43864270092E+02  0.50573744784E+01 -0.47616316623E+03  0.48492084721E+03  0.80419002446E+02 0.  1.
<mgrwt>
<rscale>  0 0.91743486E+02</rscale>
<asrwt>0</asrwt>
<pdfrwt beam="1">  1        2 0.33570599E+00 0.91743486E+02</pdfrwt>
<pdfrwt beam="2">  1       -2 0.86392145E-03 0.91743486E+02</pdfrwt>
<totfact> 0.15099260E+04</totfact>
</mgrwt>
</event>
<event>
 4    1  0.1123525E-001  0.4144451E+03  0.7546771E-02  0.1038890E+00
         -2   -1    0    0    0  501 -0.00000000000E+00  0.00000000000E+00  0.11159434489E+03  0.11159434489E+03  0.00000000000E+00 0.  1.
          2   -1    0    0  501    0  0.00000000000E+00 -0.00000000000E+00 -0.24216071095E+04  0.24216071095E+04  0.00000000000E+00 0. -1.
         24    1    1    2    0    0 -0.21853549046E+03 -0.34284074573E+03 -0.19195903269E+04  0.19638207089E+04  0.80419002446E+02 0. -1.
        -24    1    1    2    0    0  0.21853549046E+03  0.34284074573E+03 -0.39042243766E+03  0.56938074546E+03  0.80419002446E+02 0.  1.
<mgrwt>
<rscale>  0 0.41444512E+03</rscale>
<asrwt>0</asrwt>
<pdfrwt beam="1">  1        2 0.37255494E+00 0.41444512E+03</pdfrwt>
<pdfrwt beam="2">  1       -2 0.17168361E-01 0.41444512E+03</pdfrwt>
<totfact> 0.11712387E+02</totfact>
</mgrwt>
</event>
<event>
 4    1  0.1123525E-001  0.1127504E+03  0.7546771E-02  0.1255560E+00
          2   -1    0    0  501    0  0.00000000000E+00  0.00000000000E+00  0.18801061180E+04  0.18801061180E+04  0.00000000000E+00 0. -1.
         -2   -1    0    0    0  501 -0.00000000000E+00 -0.00000000000E+00 -0.17754633626E+03  0.17754633626E+03  0.00000000000E+00 0.  1.
         24    1    1    2    0    0 -0.76468130065E+02  0.19951758279E+02  0.18603250490E+04  0.18637387026E+04  0.80419002446E+02 0. -1.
        -24    1    1    2    0    0  0.76468130065E+02 -0.19951758279E+02 -0.15776526728E+03  0.19391375167E+03  0.80419002446E+02 0.  1.
<mgrwt>
<rscale>  0 0.11275045E+03</rscale>
<asrwt>0</asrwt>
<pdfrwt beam="1">  1        2 0.28924708E+00 0.11275045E+03</pdfrwt>
<pdfrwt beam="2">  1       -2 0.27314822E-01 0.11275045E+03</pdfrwt>
<totfact> 0.11253992E+02</totfact>
</mgrwt>
</event>
<event>
 4    1  0.1123525E-001  0.8303409E+02  0.7546771E-02  0.1320655E+00
          2   -1    0    0  501    0  0.00000000000E+00  0.00000000000E+00  0.39018923143E+04  0.39018923143E+04  0.00000000000E+00 0. -1.
         -2   -1    0    0    0  501 -0.00000000000E+00 -0.00000000000E+00 -0.30963393184E+01  0.30963393184E+01  0.00000000000E+00 0.  1.
         24    1    1    2    0    0 -0.48726758651E+01 -0.20092303092E+02  0.32287285306E+04  0.32297960591E+04  0.80419002446E+02 0. -1.
        -24    1    1    2    0    0  0.48726758651E+01  0.20092303092E+02  0.67006744441E+03  0.67519259447E+03  0.80419002446E+02 0.  1.
<mgrwt>
<rscale>  0 0.83034087E+02</rscale>
<asrwt>0</asrwt>
<pdfrwt beam="1">  1        2 0.60028719E+00 0.83034087E+02</pdfrwt>
<pdfrwt beam="2">  1       -2 0.47636302E-03 0.83034087E+02</pdfrwt>
<totfact> 0.34255271E+03</totfact>
</mgrwt>
</event>
<event>
 4    1  0.1123525E-001  0.9707328E+02  0.7546771E-02  0.1286574E+00
         -1   -1    0    0    0  501 -0.00000000000E+00  0.00000000000E+00  0.19336768971E+02  0.19336768971E+02  0.00000000000E+00 0.  1.
          1   -1    0    0  501    0  0.00000000000E+00 -0.00000000000E+00 -0.54679367443E+03  0.54679367443E+03  0.00000000000E+00 0. -1.
         24    1    1    2    0    0 -0.16660110293E+02  0.51753709680E+02 -0.17037465779E+03  0.19608861699E+03  0.80419002446E+02 0.  1.
        -24    1    1    2    0    0  0.16660110293E+02 -0.51753709680E+02 -0.35708224767E+03  0.37004182641E+03  0.80419002446E+02 0. -1.
<mgrwt>
<rscale>  0 0.97073280E+02</rscale>
<asrwt>0</asrwt>
<pdfrwt beam="1">  1        1 0.84122116E-01 0.97073280E+02</pdfrwt>
<pdfrwt beam="2">  1       -1 0.29748871E-02 0.97073280E+02</pdfrwt>
<totfact> 0.14081329E+04</totfact>
</mgrwt>
</event>
<event>
 4    1  0.1123525E-001  0.1087580E+03  0.7546771E-02  0.1262887E+00
          1   -1    0    0  501    0  0.00000000000E+00  0.00000000000E+00  0.55703142426E+03  0.55703142426E+03  0.00000000000E+00 0. -1.
         -1   -1    0    0    0  501 -0.00000000000E+00 -0.00000000000E+00 -0.26373673661E+02  0.26373673661E+02  0.00000000000E+00 0.  1.
         24    1    1    2    0    0  0.47252059409E+02  0.55931350767E+02  0.39409486059E+03  0.40882642798E+03  0.80419002446E+02 0.  0.
        -24    1    1    2    0    0 -0.47252059409E+02 -0.55931350767E+02  0.13656289002E+03  0.17457866995E+03  0.80419002446E+02 0.  0.
<mgrwt>
<rscale>  0 0.10875795E+03</rscale>
<asrwt>0</asrwt>
<pdfrwt beam="1">  1        1 0.85697134E-01 0.10875797E+03</pdfrwt>
<pdfrwt beam="2">  1       -1 0.40574887E-02 0.10875797E+03</pdfrwt>
<totfact> 0.88379271E+03</totfact>
</mgrwt>
</event>
<event>
 4    1  0.1123525E-001  0.9178747E+02  0.7546771E-02  0.1298580E+00
          2   -1    0    0  501    0  0.00000000000E+00  0.00000000000E+00  0.80956916988E+03  0.80956916988E+03  0.00000000000E+00 0. -1.
         -2   -1    0    0    0  501 -0.00000000000E+00 -0.00000000000E+00 -0.26752222732E+02  0.26752222732E+02  0.00000000000E+00 0.  1.
         24    1    1    2    0    0  0.52490238961E+01  0.43933715569E+02  0.71826920304E+03  0.72411020405E+03  0.80419002446E+02 0. -1.
        -24    1    1    2    0    0 -0.52490238961E+01 -0.43933715569E+02  0.64547744109E+02  0.11221118857E+03  0.80419002446E+02 0.  1.
<mgrwt>
<rscale>  0 0.91787470E+02</rscale>
<asrwt>0</asrwt>
<pdfrwt beam="1">  1        2 0.12454908E+00 0.91787470E+02</pdfrwt>
<pdfrwt beam="2">  1       -2 0.41157272E-02 0.91787470E+02</pdfrwt>
<totfact> 0.86387839E+03</totfact>
</mgrwt>
</event>
<event>
 4    1  0.1123525E-001  0.1031317E+03  0.7546771E-02  0.1273845E+00
          3   -1    0    0  501    0  0.00000000000E+00  0.00000000000E+00  0.99693439407E+02  0.99693439407E+02  0.00000000000E+00 0. -1.
         -3   -1    0    0    0  501 -0.00000000000E+00 -0.00000000000E+00 -0.13258700260E+03  0.13258700260E+03  0.00000000000E+00 0.  1.
         24    1    1    2    0    0 -0.31337789866E+02 -0.56452486775E+02 -0.67776445942E+02  0.12340908765E+03  0.80419002446E+02 0.  1.
        -24    1    1    2    0    0  0.31337789866E+02  0.56452486775E+02  0.34882882744E+02  0.10887135436E+03  0.80419002446E+02 0. -1.
<mgrwt>
<rscale>  0 0.10313174E+03</rscale>
<asrwt>0</asrwt>
<pdfrwt beam="1">  1        3 0.15337452E-01 0.10313174E+03</pdfrwt>
<pdfrwt beam="2">  1       -3 0.20398000E-01 0.10313174E+03</pdfrwt>
<totfact> 0.16906861E+03</totfact>
</mgrwt>
</event>
<event>
 4    1  0.1123525E-001  0.8121047E+02  0.7546771E-02  0.1325651E+00
          2   -1    0    0  501    0  0.00000000000E+00  0.00000000000E+00  0.55114397918E+03  0.55114397918E+03  0.00000000000E+00 0. -1.
         -2   -1    0    0    0  501 -0.00000000000E+00 -0.00000000000E+00 -0.31772739967E+02  0.31772739967E+02  0.00000000000E+00 0.  1.
         24    1    1    2    0    0 -0.51591768528E+01 -0.10065151954E+02  0.48980472053E+03  0.49649149499E+03  0.80419002446E+02 0.  0.
        -24    1    1    2    0    0  0.51591768528E+01  0.10065151954E+02  0.29566518687E+02  0.86425224161E+02  0.80419002446E+02 0.  1.
<mgrwt>
<rscale>  0 0.81210469E+02</rscale>
<asrwt>0</asrwt>
<pdfrwt beam="1">  1        2 0.84791374E-01 0.81210469E+02</pdfrwt>
<pdfrwt beam="2">  1       -2 0.48881143E-02 0.81210469E+02</pdfrwt>
<totfact> 0.10341627E+04</totfact>
</mgrwt>
</event>
<event>
 4    1  0.1123525E-001  0.1119928E+03  0.7546771E-02  0.1256923E+00
         -2   -1    0    0    0  501 -0.00000000000E+00  0.00000000000E+00  0.14160503721E+02  0.14160503721E+02  0.00000000000E+00 0.  1.
          2   -1    0    0  501    0  0.00000000000E+00 -0.00000000000E+00 -0.13762515095E+04  0.13762515095E+04  0.00000000000E+00 0. -1.
         24    1    1    2    0    0  0.26989262634E+02 -0.73121451980E+02 -0.10960890238E+04  0.11017955941E+04  0.80419002446E+02 0. -1.
        -24    1    1    2    0    0 -0.26989262634E+02  0.73121451980E+02 -0.26600198195E+03  0.28861641913E+03  0.80419002446E+02 0.  1.
<mgrwt>
<rscale>  0 0.11199278E+03</rscale>
<asrwt>0</asrwt>
<pdfrwt beam="1">  1        2 0.21173103E+00 0.11199278E+03</pdfrwt>
<pdfrwt beam="2">  1       -2 0.21785388E-02 0.11199278E+03</pdfrwt>
<totfact> 0.10445881E+04</totfact>
</mgrwt>
</event>
<event>
 4    1  0.1123525E-001  0.8401463E+02  0.7546771E-02  0.1318030E+00
         -4   -1    0    0    0  501 -0.00000000000E+00  0.00000000000E+00  0.10117098559E+03  0.10117098559E+03  0.00000000000E+00 0.  1.
          4   -1    0    0  501    0  0.00000000000E+00 -0.00000000000E+00 -0.77611404695E+02  0.77611404695E+02  0.00000000000E+00 0. -1.
         24    1    1    2    0    0 -0.51706895994E+01  0.23759343590E+02 -0.16638302897E+02  0.85646316421E+02  0.80419002446E+02 0.  1.
        -24    1    1    2    0    0  0.51706895994E+01 -0.23759343590E+02  0.40197883787E+02  0.93136073860E+02  0.80419002446E+02 0.  1.
<mgrwt>
<rscale>  0 0.84014632E+02</rscale>
<asrwt>0</asrwt>
<pdfrwt beam="1">  1        4 0.11940216E-01 0.84014632E+02</pdfrwt>
<pdfrwt beam="2">  1       -4 0.15564767E-01 0.84014632E+02</pdfrwt>
<totfact> 0.28664463E+03</totfact>
</mgrwt>
</event>
<event>
 4    1  0.1123525E-001  0.9109003E+02  0.7546771E-02  0.1300233E+00
         -1   -1    0    0    0  501 -0.00000000000E+00  0.00000000000E+00  0.37908372562E+01  0.37908372562E+01  0.00000000000E+00 0.  1.
          1   -1    0    0  501    0  0.00000000000E+00 -0.00000000000E+00 -0.22530565789E+04  0.22530565789E+04  0.00000000000E+00 0. -1.
         24    1    1    2    0    0 -0.42323742844E+02  0.62348960226E+01 -0.13151969046E+04  0.13183475592E+04  0.80419002446E+02 0.  0.
        -24    1    1    2    0    0  0.42323742844E+02 -0.62348960226E+01 -0.93406883712E+03  0.93849985699E+03  0.80419002446E+02 0.  0.
<mgrwt>
<rscale>  0 0.91090017E+02</rscale>
<asrwt>0</asrwt>
<pdfrwt beam="1">  1        1 0.34662399E+00 0.91090028E+02</pdfrwt>
<pdfrwt beam="2">  1       -1 0.58320589E-03 0.91090028E+02</pdfrwt>
<totfact> 0.91256205E+03</totfact>
</mgrwt>
</event>
<event>
 4    1  0.1123525E-001  0.8330598E+02  0.7546771E-02  0.1319923E+00
          1   -1    0    0  501    0  0.00000000000E+00  0.00000000000E+00  0.12260810143E+04  0.12260810143E+04  0.00000000000E+00 0. -1.
         -1   -1    0    0    0  501 -0.00000000000E+00 -0.00000000000E+00 -0.75113604944E+01  0.75113604944E+01  0.00000000000E+00 0.  1.
         24    1    1    2    0    0 -0.20855429105E+02  0.61418055027E+01  0.30308691554E+03  0.31432716240E+03  0.80419002446E+02 0.  1.
        -24    1    1    2    0    0  0.20855429105E+02 -0.61418055027E+01  0.91548273830E+03  0.91926521243E+03  0.80419002446E+02 0. -1.
<mgrwt>
<rscale>  0 0.83305982E+02</rscale>
<asrwt>0</asrwt>
<pdfrwt beam="1">  1        1 0.18862769E+00 0.83305982E+02</pdfrwt>
<pdfrwt beam="2">  1       -1 0.11555949E-02 0.83305982E+02</pdfrwt>
<totfact> 0.15548570E+04</totfact>
</mgrwt>
</event>
<event>
 4    1  0.1123525E-001  0.8270392E+02  0.7546771E-02  0.1321549E+00
          3   -1    0    0  501    0  0.00000000000E+00  0.00000000000E+00  0.19162226451E+03  0.19162226451E+03  0.00000000000E+00 0. -1.
         -3   -1    0    0    0  501 -0.00000000000E+00 -0.00000000000E+00 -0.92761835930E+02  0.92761835930E+02  0.00000000000E+00 0.  1.
         24    1    1    2    0    0 -0.19211942628E+02  0.19038134189E+01 -0.62097523585E+02  0.10342166908E+03  0.80419002446E+02 0.  1.
        -24    1    1    2    0    0  0.19211942628E+02 -0.19038134189E+01  0.16095795217E+03  0.18096243137E+03  0.80419002446E+02 0. -1.
<mgrwt>
<rscale>  0 0.82703925E+02</rscale>
<asrwt>0</asrwt>
<pdfrwt beam="1">  1        3 0.29480348E-01 0.82703925E+02</pdfrwt>
<pdfrwt beam="2">  1       -3 0.14271052E-01 0.82703925E+02</pdfrwt>
<totfact> 0.94852699E+02</totfact>
</mgrwt>
</event>
<event>
 4    1  0.1123525E-001  0.1053170E+03  0.7546771E-02  0.1269496E+00
          2   -1    0    0  501    0  0.00000000000E+00  0.00000000000E+00  0.14212700960E+04  0.14212700960E+04  0.00000000000E+00 0. -1.
         -2   -1    0    0    0  501 -0.00000000000E+00 -0.00000000000E+00 -0.20257119606E+02  0.20257119606E+02  0.00000000000E+00 0.  1.
         24    1    1    2    0    0 -0.57247079995E+02 -0.36704711161E+02  0.12656282128E+04  0.12700025406E+04  0.80419002446E+02 0. -1.
        -24    1    1    2    0    0  0.57247079995E+02  0.36704711161E+02  0.13538476360E+03  0.17152467507E+03  0.80419002446E+02 0.  1.
<mgrwt>
<rscale>  0 0.10531704E+03</rscale>
<asrwt>0</asrwt>
<pdfrwt beam="1">  1        2 0.21865686E+00 0.10531704E+03</pdfrwt>
<pdfrwt beam="2">  1       -2 0.31164811E-02 0.10531704E+03</pdfrwt>
<totfact> 0.58620564E+03</totfact>
</mgrwt>
</event>
<event>
 4    1  0.1123525E-001  0.8079838E+02  0.7546771E-02  0.1326801E+00
         -2   -1    0    0    0  501 -0.00000000000E+00  0.00000000000E+00  0.77043901958E+02  0.77043901958E+02  0.00000000000E+00 0.  1.
          2   -1    0    0  501    0  0.00000000000E+00 -0.00000000000E+00 -0.95997991055E+02  0.95997991055E+02  0.00000000000E+00 0. -1.
         24    1    1    2    0    0  0.60971818297E+01  0.48973604859E+01  0.20157746661E+02  0.83274909011E+02  0.80419002446E+02 0.  0.
        -24    1    1    2    0    0 -0.60971818297E+01 -0.48973604859E+01 -0.39111835758E+02  0.89766984002E+02  0.80419002446E+02 0. -1.
<mgrwt>
<rscale>  0 0.80798375E+02</rscale>
<asrwt>0</asrwt>
<pdfrwt beam="1">  1        2 0.14768922E-01 0.80798385E+02</pdfrwt>
<pdfrwt beam="2">  1       -2 0.11852908E-01 0.80798385E+02</pdfrwt>
<totfact> 0.17593464E+04</totfact>
</mgrwt>
</event>
<event>
 4    1  0.1123525E-001  0.9740233E+02  0.7546771E-02  0.1285855E+00
          2   -1    0    0  501    0  0.00000000000E+00  0.00000000000E+00  0.37513460938E+02  0.37513460938E+02  0.00000000000E+00 0. -1.
         -2   -1    0    0    0  501 -0.00000000000E+00 -0.00000000000E+00 -0.40901258900E+03  0.40901258900E+03  0.00000000000E+00 0.  1.
         24    1    1    2    0    0  0.36942061568E+02 -0.40685168198E+02 -0.47817515430E+02  0.10850681804E+03  0.80419002446E+02 0. -1.
        -24    1    1    2    0    0 -0.36942061568E+02  0.40685168198E+02 -0.32368161263E+03  0.33801923190E+03  0.80419002446E+02 0.  1.
<mgrwt>
<rscale>  0 0.97402335E+02</rscale>
<asrwt>0</asrwt>
<pdfrwt beam="1">  1        2 0.57713023E-02 0.97402335E+02</pdfrwt>
<pdfrwt beam="2">  1       -2 0.62925007E-01 0.97402335E+02</pdfrwt>
<totfact> 0.29072695E+03</totfact>
</mgrwt>
</event>
<event>
 4    1  0.1123525E-001  0.9408574E+02  0.7546771E-02  0.1293249E+00
         -1   -1    0    0    0  501 -0.00000000000E+00  0.00000000000E+00  0.16443009362E+02  0.16443009362E+02  0.00000000000E+00 0.  1.
          1   -1    0    0  501    0  0.00000000000E+00 -0.00000000000E+00 -0.60417782421E+03  0.60417782421E+03  0.00000000000E+00 0. -1.
         24    1    1    2    0    0 -0.48248628538E+02 -0.75484974436E+01 -0.19144090852E+03  0.21331138596E+03  0.80419002446E+02 0.  0.
        -24    1    1    2    0    0  0.48248628538E+02  0.75484974436E+01 -0.39629390632E+03  0.40730944761E+03  0.80419002446E+02 0.  1.
<mgrwt>
<rscale>  0 0.94085737E+02</rscale>
<asrwt>0</asrwt>
<pdfrwt beam="1">  1        1 0.92950433E-01 0.94085737E+02</pdfrwt>
<pdfrwt beam="2">  1       -1 0.25296938E-02 0.94085737E+02</pdfrwt>
<totfact> 0.15531298E+04</totfact>
</mgrwt>
</event>
<event>
 4    1  0.1123525E-001  0.8358967E+02  0.7546771E-02  0.1319162E+00
          1   -1    0    0  501    0  0.00000000000E+00  0.00000000000E+00  0.37878953599E+02  0.37878953599E+02  0.00000000000E+00 0. -1.
         -1   -1    0    0    0  501 -0.00000000000E+00 -0.00000000000E+00 -0.19562277190E+03  0.19562277190E+03  0.00000000000E+00 0.  1.
         24    1    1    2    0    0  0.21480620709E+02 -0.76548036739E+01 -0.50985233880E+02  0.97911812941E+02  0.80419002446E+02 0. -1.
        -24    1    1    2    0    0 -0.21480620709E+02  0.76548036739E+01 -0.10675858442E+03  0.13558991255E+03  0.80419002446E+02 0.  1.
<mgrwt>
<rscale>  0 0.83589657E+02</rscale>
<asrwt>0</asrwt>
<pdfrwt beam="1">  1        1 0.58275313E-02 0.83589668E+02</pdfrwt>
<pdfrwt beam="2">  1       -1 0.30095811E-01 0.83589668E+02</pdfrwt>
<totfact> 0.12184445E+04</totfact>
</mgrwt>
</event>
<event>
 4    1  0.1123525E-001  0.1054914E+03  0.7546771E-02  0.1269155E+00
          2   -1    0    0  501    0  0.00000000000E+00  0.00000000000E+00  0.43010038657E+02  0.43010038657E+02  0.00000000000E+00 0. -1.
         -2   -1    0    0    0  501 -0.00000000000E+00 -0.00000000000E+00 -0.41704435217E+03  0.41704435217E+03  0.00000000000E+00 0.  1.
         24    1    1    2    0    0 -0.40264318511E+02  0.55136180213E+02 -0.45296192515E+02  0.11480494207E+03  0.80419002446E+02 0. -1.
        -24    1    1    2    0    0  0.40264318511E+02 -0.55136180213E+02 -0.32873812100E+03  0.34524944876E+03  0.80419002446E+02 0.  1.
<mgrwt>
<rscale>  0 0.10549137E+03</rscale>
<asrwt>0</asrwt>
<pdfrwt beam="1">  1        2 0.66169295E-02 0.10549137E+03</pdfrwt>
<pdfrwt beam="2">  1       -2 0.64160665E-01 0.10549137E+03</pdfrwt>
<totfact> 0.23599176E+03</totfact>
</mgrwt>
</event>
<event>
 4    1  0.1123525E-001  0.8607643E+02  0.7546771E-02  0.1312641E+00
          2   -1    0    0  501    0  0.00000000000E+00  0.00000000000E+00  0.46657072064E+03  0.46657072064E+03  0.00000000000E+00 0. -1.
         -2   -1    0    0    0  501 -0.00000000000E+00 -0.00000000000E+00 -0.22250228358E+02  0.22250228358E+02  0.00000000000E+00 0.  1.
         24    1    1    2    0    0 -0.27225054324E+02 -0.14168002456E+02  0.35293666374E+03  0.36328148926E+03  0.80419002446E+02 0. -1.
        -24    1    1    2    0    0  0.27225054324E+02  0.14168002456E+02  0.91383828544E+02  0.12553945973E+03  0.80419002446E+02 0.  1.
<mgrwt>
<rscale>  0 0.86076430E+02</rscale>
<asrwt>0</asrwt>
<pdfrwt beam="1">  1        2 0.71780104E-01 0.86076430E+02</pdfrwt>
<pdfrwt beam="2">  1       -2 0.34231124E-02 0.86076430E+02</pdfrwt>
<totfact> 0.21002788E+04</totfact>
</mgrwt>
</event>
<event>
 4    1  0.1123525E-001  0.8663636E+02  0.7546771E-02  0.1311208E+00
          1   -1    0    0  501    0  0.00000000000E+00  0.00000000000E+00  0.80007284496E+03  0.80007284496E+03  0.00000000000E+00 0. -1.
         -1   -1    0    0    0  501 -0.00000000000E+00 -0.00000000000E+00 -0.10094224354E+02  0.10094224354E+02  0.00000000000E+00 0.  1.
         24    1    1    2    0    0  0.10539603457E+02  0.30455854435E+02  0.28734812202E+03  0.30012464326E+03  0.80419002446E+02 0.  1.
        -24    1    1    2    0    0 -0.10539603457E+02 -0.30455854435E+02  0.50263049859E+03  0.51004242606E+03  0.80419002446E+02 0. -1.
<mgrwt>
<rscale>  0 0.86636356E+02</rscale>
<asrwt>0</asrwt>
<pdfrwt beam="1">  1        1 0.12308808E+00 0.86636356E+02</pdfrwt>
<pdfrwt beam="2">  1       -1 0.15529582E-02 0.86636356E+02</pdfrwt>
<totfact> 0.20830748E+04</totfact>
</mgrwt>
</event>
<event>
 4    1  0.1123525E-001  0.1442284E+03  0.7546771E-02  0.1207750E+00
         -1   -1    0    0    0  501 -0.00000000000E+00  0.00000000000E+00  0.50590622891E+02  0.50590622891E+02  0.00000000000E+00 0.  1.
          1   -1    0    0  501    0  0.00000000000E+00 -0.00000000000E+00 -0.56630524513E+03  0.56630524513E+03  0.00000000000E+00 0. -1.
         24    1    1    2    0    0  0.11970434886E+03 -0.23432664498E+01 -0.96422120584E+02  0.17349081626E+03  0.80419002446E+02 0.  1.
        -24    1    1    2    0    0 -0.11970434886E+03  0.23432664498E+01 -0.41929250165E+03  0.44340505176E+03  0.80419002446E+02 0. -1.
<mgrwt>
<rscale>  0 0.14422842E+03</rscale>
<asrwt>0</asrwt>
<pdfrwt beam="1">  1        1 0.87123885E-01 0.14422842E+03</pdfrwt>
<pdfrwt beam="2">  1       -1 0.77831727E-02 0.14422842E+03</pdfrwt>
<totfact> 0.33407465E+03</totfact>
</mgrwt>
</event>
<event>
 4    1  0.1186653E-001  0.9352638E+02  0.7546771E-02  0.1294530E+00
          1   -1    0    0  501    0  0.00000000000E+00  0.00000000000E+00  0.11222858769E+04  0.11222858769E+04  0.00000000000E+00 0. -1.
         -1   -1    0    0    0  501 -0.00000000000E+00 -0.00000000000E+00 -0.23722982254E+02  0.23722982254E+02  0.00000000000E+00 0.  1.
         24    1    1    2    0    0 -0.43708511972E+02 -0.19223276509E+02  0.79748275401E+02  0.12291042170E+03  0.80419002446E+02 0.  1.
        -24    1    1    2    0    0  0.43708511972E+02  0.19223276509E+02  0.10188146192E+04  0.10230984374E+04  0.80419002446E+02 0. -1.
<mgrwt>
<rscale>  0 0.93526383E+02</rscale>
<asrwt>0</asrwt>
<pdfrwt beam="1">  1        1 0.17265932E+00 0.93526383E+02</pdfrwt>
<pdfrwt beam="2">  1       -1 0.36496905E-02 0.93526383E+02</pdfrwt>
<totfact> 0.35634369E+03</totfact>
</mgrwt>
</event>
<event>
 4    1  0.1123525E-001  0.8669199E+02  0.7546771E-02  0.1311066E+00
          1   -1    0    0  501    0  0.00000000000E+00  0.00000000000E+00  0.11494676094E+04  0.11494676094E+04  0.00000000000E+00 0. -1.
         -1   -1    0    0    0  501 -0.00000000000E+00 -0.00000000000E+00 -0.24559046327E+02  0.24559046327E+02  0.00000000000E+00 0.  1.
         24    1    1    2    0    0 -0.44796629843E+01  0.32065833075E+02  0.59614926592E+02  0.10521140840E+03  0.80419002446E+02 0.  1.
        -24    1    1    2    0    0  0.44796629843E+01 -0.32065833075E+02  0.10652936365E+04  0.10688152473E+04  0.80419002446E+02 0. -1.
<mgrwt>
<rscale>  0 0.86691989E+02</rscale>
<asrwt>0</asrwt>
<pdfrwt beam="1">  1        1 0.17684113E+00 0.86691989E+02</pdfrwt>
<pdfrwt beam="2">  1       -1 0.37783157E-02 0.86691989E+02</pdfrwt>
<totfact> 0.32382459E+03</totfact>
</mgrwt>
</event>
<event>
 4    1  0.1123525E-001  0.8188564E+02  0.7546771E-02  0.1323784E+00
          3   -1    0    0  501    0  0.00000000000E+00  0.00000000000E+00  0.17826177791E+02  0.17826177791E+02  0.00000000000E+00 0. -1.
         -3   -1    0    0    0  501 -0.00000000000E+00 -0.00000000000E+00 -0.48083110739E+03  0.48083110739E+03  0.00000000000E+00 0.  1.
         24    1    1    2    0    0 -0.17559925230E+01  0.15328359527E+02 -0.34783920211E+03  0.35734768587E+03  0.80419002446E+02 0.  1.
        -24    1    1    2    0    0  0.17559925230E+01 -0.15328359527E+02 -0.11516572748E+03  0.14130959931E+03  0.80419002446E+02 0. -1.
<mgrwt>
<rscale>  0 0.81885640E+02</rscale>
<asrwt>0</asrwt>
<pdfrwt beam="1">  1        3 0.27424886E-02 0.81885640E+02</pdfrwt>
<pdfrwt beam="2">  1       -3 0.73974023E-01 0.81885640E+02</pdfrwt>
<totfact> 0.21507108E+03</totfact>
</mgrwt>
</event>
<event>
 4    1  0.1123525E-001  0.3538757E+03  0.7546771E-02  0.1061035E+00
         -2   -1    0    0    0  501 -0.00000000000E+00  0.00000000000E+00  0.12388158242E+03  0.12388158242E+03  0.00000000000E+00 0.  1.
          2   -1    0    0  501    0  0.00000000000E+00 -0.00000000000E+00 -0.12038503111E+04  0.12038503111E+04  0.00000000000E+00 0. -1.
         24    1    1    2    0    0 -0.26192179144E+03 -0.22395930930E+03 -0.80578261703E+03  0.88006456520E+03  0.80419002446E+02 0. -1.
        -24    1    1    2    0    0  0.26192179144E+03  0.22395930930E+03 -0.27418611160E+03  0.44766732827E+03  0.80419002446E+02 0.  1.
<mgrwt>
<rscale>  0 0.35387570E+03</rscale>
<asrwt>0</asrwt>
<pdfrwt beam="1">  1        2 0.18520774E+00 0.35387570E+03</pdfrwt>
<pdfrwt beam="2">  1       -2 0.19058705E-01 0.35387570E+03</pdfrwt>
<totfact> 0.45264236E+02</totfact>
</mgrwt>
</event>
<event>
 4    1  0.1123525E-001  0.9030498E+02  0.7546771E-02  0.1302115E+00
          2   -1    0    0  501    0  0.00000000000E+00  0.00000000000E+00  0.20188039467E+03  0.20188039467E+03  0.00000000000E+00 0. -1.
         -2   -1    0    0    0  501 -0.00000000000E+00 -0.00000000000E+00 -0.60278103854E+02  0.60278103854E+02  0.00000000000E+00 0.  1.
         24    1    1    2    0    0 -0.32307491021E+02 -0.25377159140E+02  0.14608373254E+03  0.17174238571E+03  0.80419002446E+02 0.  1.
        -24    1    1    2    0    0  0.32307491021E+02  0.25377159140E+02 -0.44814417257E+01  0.90416112814E+02  0.80419002446E+02 0.  1.
<mgrwt>
<rscale>  0 0.90304984E+02</rscale>
<asrwt>0</asrwt>
<pdfrwt beam="1">  1        2 0.31058522E-01 0.90304984E+02</pdfrwt>
<pdfrwt beam="2">  1       -2 0.92735546E-02 0.90304984E+02</pdfrwt>
<totfact> 0.11458212E+04</totfact>
</mgrwt>
</event>
<event>
 4    1  0.1123525E-001  0.8820355E+02  0.7546771E-02  0.1307261E+00
         -2   -1    0    0    0  501 -0.00000000000E+00  0.00000000000E+00  0.95005876849E+01  0.95005876849E+01  0.00000000000E+00 0.  1.
          2   -1    0    0  501    0  0.00000000000E+00 -0.00000000000E+00 -0.11287554548E+04  0.11287554548E+04  0.00000000000E+00 0. -1.
         24    1    1    2    0    0 -0.28305989806E+02 -0.22614631936E+02 -0.85782339458E+03  0.86234612707E+03  0.80419002446E+02 0.  1.
        -24    1    1    2    0    0  0.28305989806E+02  0.22614631936E+02 -0.26143147256E+03  0.27590991544E+03  0.80419002446E+02 0. -1.
<mgrwt>
<rscale>  0 0.88203552E+02</rscale>
<asrwt>0</asrwt>
<pdfrwt beam="1">  1        2 0.17365464E+00 0.88203552E+02</pdfrwt>
<pdfrwt beam="2">  1       -2 0.14616293E-02 0.88203552E+02</pdfrwt>
<totfact> 0.24767931E+04</totfact>
</mgrwt>
</event>
<event>
 4    1  0.1123525E-001  0.1116904E+03  0.7546771E-02  0.1257471E+00
          4   -1    0    0  501    0  0.00000000000E+00  0.00000000000E+00  0.91400526298E+02  0.91400526298E+02  0.00000000000E+00 0. -1.
         -4   -1    0    0    0  501 -0.00000000000E+00 -0.00000000000E+00 -0.21790907134E+03  0.21790907134E+03  0.00000000000E+00 0.  1.
         24    1    1    2    0    0  0.27307275251E+02 -0.72538613036E+02  0.31283100497E+02  0.11598873219E+03  0.80419002446E+02 0. -1.
        -24    1    1    2    0    0 -0.27307275251E+02  0.72538613036E+02 -0.15779164554E+03  0.19332086546E+03  0.80419002446E+02 0.  1.
<mgrwt>
<rscale>  0 0.11169044E+03</rscale>
<asrwt>0</asrwt>
<pdfrwt beam="1">  1        4 0.14061619E-01 0.11169044E+03</pdfrwt>
<pdfrwt beam="2">  1       -4 0.33524472E-01 0.11169044E+03</pdfrwt>
<totfact> 0.57726153E+02</totfact>
</mgrwt>
</event>
<event>
 4    1  0.1123525E-001  0.8802048E+02  0.7546771E-02  0.1307717E+00
         -3   -1    0    0    0  501 -0.00000000000E+00  0.00000000000E+00  0.14099975198E+02  0.14099975198E+02  0.00000000000E+00 0.  1.
          3   -1    0    0  501    0  0.00000000000E+00 -0.00000000000E+00 -0.57062335933E+03  0.57062335933E+03  0.00000000000E+00 0. -1.
         24    1    1    2    0    0 -0.22788769245E+01 -0.35709822087E+02 -0.33454398663E+03  0.34592958766E+03  0.80419002446E+02 0.  0.
        -24    1    1    2    0    0  0.22788769245E+01  0.35709822087E+02 -0.22197939750E+03  0.23879374687E+03  0.80419002446E+02 0.  0.
<mgrwt>
<rscale>  0 0.88020467E+02</rscale>
<asrwt>0</asrwt>
<pdfrwt beam="1">  1        3 0.87788223E-01 0.88020478E+02</pdfrwt>
<pdfrwt beam="2">  1       -3 0.21692266E-02 0.88020478E+02</pdfrwt>
<totfact> 0.21604389E+03</totfact>
</mgrwt>
</event>
<event>
 4    1  0.1123525E-001  0.8480072E+02  0.7546771E-02  0.1315955E+00
         -1   -1    0    0    0  501 -0.00000000000E+00  0.00000000000E+00  0.69502335722E+02  0.69502335722E+02  0.00000000000E+00 0.  1.
          1   -1    0    0  501    0  0.00000000000E+00 -0.00000000000E+00 -0.17160646050E+03  0.17160646050E+03  0.00000000000E+00 0. -1.
         24    1    1    2    0    0 -0.98829617416E+01  0.25025442684E+02  0.24913588130E+02  0.88384662370E+02  0.80419002446E+02 0.  1.
        -24    1    1    2    0    0  0.98829617416E+01 -0.25025442684E+02 -0.12701771291E+03  0.15272413385E+03  0.80419002446E+02 0. -1.
<mgrwt>
<rscale>  0 0.84800717E+02</rscale>
<asrwt>0</asrwt>
<pdfrwt beam="1">  1        1 0.26400994E-01 0.84800717E+02</pdfrwt>
<pdfrwt beam="2">  1       -1 0.10692667E-01 0.84800717E+02</pdfrwt>
<totfact> 0.88825712E+03</totfact>
</mgrwt>
</event>
<event>
 4    1  0.1123525E-001  0.1015563E+03  0.7546771E-02  0.1277057E+00
          1   -1    0    0  501    0  0.00000000000E+00  0.00000000000E+00  0.17356377462E+03  0.17356377462E+03  0.00000000000E+00 0. -1.
         -1   -1    0    0    0  501 -0.00000000000E+00 -0.00000000000E+00 -0.70014916199E+02  0.70014916199E+02  0.00000000000E+00 0.  1.
         24    1    1    2    0    0  0.20071823576E+02  0.58682094747E+02  0.44046863607E+01  0.10165177599E+03  0.80419002446E+02 0.  1.
        -24    1    1    2    0    0 -0.20071823576E+02 -0.58682094747E+02  0.99144172065E+02  0.14192691483E+03  0.80419002446E+02 0. -1.
<mgrwt>
<rscale>  0 0.10155630E+03</rscale>
<asrwt>0</asrwt>
<pdfrwt beam="1">  1        1 0.26702119E-01 0.10155630E+03</pdfrwt>
<pdfrwt beam="2">  1       -1 0.10771526E-01 0.10155630E+03</pdfrwt>
<totfact> 0.87985273E+03</totfact>
</mgrwt>
</event>
<event>
 4    1  0.1123525E-001  0.8825088E+02  0.7546771E-02  0.1307144E+00
         -1   -1    0    0    0  501 -0.00000000000E+00  0.00000000000E+00  0.16022349836E+02  0.16022349836E+02  0.00000000000E+00 0.  1.
          1   -1    0    0  501    0  0.00000000000E+00 -0.00000000000E+00 -0.55568962736E+03  0.55568962736E+03  0.00000000000E+00 0. -1.
         24    1    1    2    0    0  0.36242141893E+02 -0.27402747500E+01 -0.16866372573E+03  0.19035669225E+03  0.80419002446E+02 0.  1.
        -24    1    1    2    0    0 -0.36242141893E+02  0.27402747500E+01 -0.37100355179E+03  0.38135528494E+03  0.80419002446E+02 0. -1.
<mgrwt>
<rscale>  0 0.88250881E+02</rscale>
<asrwt>0</asrwt>
<pdfrwt beam="1">  1        1 0.85490682E-01 0.88250881E+02</pdfrwt>
<pdfrwt beam="2">  1       -1 0.24649778E-02 0.88250881E+02</pdfrwt>
<totfact> 0.17905655E+04</totfact>
</mgrwt>
</event>
<event>
 4    1  0.1123525E-001  0.8249284E+02  0.7546771E-02  0.1322122E+00
          1   -1    0    0  501    0  0.00000000000E+00  0.00000000000E+00  0.15477367212E+04  0.15477367212E+04  0.00000000000E+00 0. -1.
         -1   -1    0    0    0  501 -0.00000000000E+00 -0.00000000000E+00 -0.78556697185E+01  0.78556697185E+01  0.00000000000E+00 0.  1.
         24    1    1    2    0    0 -0.17086542521E+02 -0.67752118894E+01  0.25383073620E+03  0.26689906711E+03  0.80419002446E+02 0.  1.
        -24    1    1    2    0    0  0.17086542521E+02  0.67752118894E+01  0.12860503153E+04  0.12886933238E+04  0.80419002446E+02 0. -1.
<mgrwt>
<rscale>  0 0.82492844E+02</rscale>
<asrwt>0</asrwt>
<pdfrwt beam="1">  1        1 0.23811310E+00 0.82492844E+02</pdfrwt>
<pdfrwt beam="2">  1       -1 0.12085658E-02 0.82492844E+02</pdfrwt>
<totfact> 0.90357529E+03</totfact>
</mgrwt>
</event>
<event>
 4    1  0.1123525E-001  0.8490967E+02  0.7546771E-02  0.1315669E+00
          1   -1    0    0  501    0  0.00000000000E+00  0.00000000000E+00  0.76957828767E+03  0.76957828767E+03  0.00000000000E+00 0. -1.
         -1   -1    0    0    0  501 -0.00000000000E+00 -0.00000000000E+00 -0.11533432922E+02  0.11533432922E+02  0.00000000000E+00 0.  1.
         24    1    1    2    0    0 -0.20552245999E+02 -0.17889675280E+02  0.20980514628E+03  0.22633570345E+03  0.80419002446E+02 0.  1.
        -24    1    1    2    0    0  0.20552245999E+02  0.17889675280E+02  0.54823970847E+03  0.55477601714E+03  0.80419002446E+02 0.  1.
<mgrwt>
<rscale>  0 0.84909665E+02</rscale>
<asrwt>0</asrwt>
<pdfrwt beam="1">  1        1 0.11839662E+00 0.84909665E+02</pdfrwt>
<pdfrwt beam="2">  1       -1 0.17743749E-02 0.84909665E+02</pdfrwt>
<totfact> 0.18216567E+04</totfact>
</mgrwt>
</event>
<event>
 4    1  0.1166260E-001  0.1346038E+03  0.7546771E-02  0.1220780E+00
         -1   -1    0    0    0  501 -0.00000000000E+00  0.00000000000E+00  0.36691760321E+02  0.36691760321E+02  0.00000000000E+00 0.  1.
          1   -1    0    0  501    0  0.00000000000E+00 -0.00000000000E+00 -0.15811776518E+04  0.15811776518E+04  0.00000000000E+00 0. -1.
         24    1    1    2    0    0 -0.10726870071E+03 -0.12016747426E+02 -0.10140994509E+03  0.16852943152E+03  0.80419002446E+02 0.  1.
        -24    1    1    2    0    0  0.10726870071E+03  0.12016747426E+02 -0.14430759464E+04  0.14493399806E+04  0.80419002446E+02 0. -1.
<mgrwt>
<rscale>  0 0.13460383E+03</rscale>
<asrwt>0</asrwt>
<pdfrwt beam="1">  1        1 0.24325812E+00 0.13460383E+03</pdfrwt>
<pdfrwt beam="2">  1       -1 0.56448858E-02 0.13460383E+03</pdfrwt>
<totfact> 0.93897326E+02</totfact>
</mgrwt>
</event>
<event>
 4    1  0.1123525E-001  0.9225961E+02  0.7546771E-02  0.1297470E+00
          1   -1    0    0  501    0  0.00000000000E+00  0.00000000000E+00  0.48712381325E+03  0.48712381325E+03  0.00000000000E+00 0. -1.
         -1   -1    0    0    0  501 -0.00000000000E+00 -0.00000000000E+00 -0.17495258697E+02  0.17495258697E+02  0.00000000000E+00 0.  1.
         24    1    1    2    0    0  0.26542898763E+02 -0.36607297232E+02  0.22594899770E+03  0.24405897894E+03  0.80419002446E+02 0.  1.
        -24    1    1    2    0    0 -0.26542898763E+02  0.36607297232E+02  0.24367955685E+03  0.26056009301E+03  0.80419002446E+02 0. -1.
<mgrwt>
<rscale>  0 0.92259610E+02</rscale>
<asrwt>0</asrwt>
<pdfrwt beam="1">  1        1 0.74942115E-01 0.92259610E+02</pdfrwt>
<pdfrwt beam="2">  1       -1 0.26915786E-02 0.92259610E+02</pdfrwt>
<totfact> 0.18800415E+04</totfact>
</mgrwt>
</event>
<event>
 4    1  0.1123525E-001  0.8429946E+02  0.7546771E-02  0.1317275E+00
         -2   -1    0    0    0  501 -0.00000000000E+00  0.00000000000E+00  0.19556437250E+02  0.19556437250E+02  0.00000000000E+00 0.  1.
          2   -1    0    0  501    0  0.00000000000E+00 -0.00000000000E+00 -0.60844078674E+03  0.60844078674E+03  0.00000000000E+00 0. -1.
         24    1    1    2    0    0 -0.20666853061E+02  0.14562413558E+02 -0.49371880210E+03  0.50086390787E+03  0.80419002446E+02 0. -1.
        -24    1    1    2    0    0  0.20666853061E+02 -0.14562413558E+02 -0.95165547394E+02  0.12713331613E+03  0.80419002446E+02 0.  1.
<mgrwt>
<rscale>  0 0.84299458E+02</rscale>
<asrwt>0</asrwt>
<pdfrwt beam="1">  1        2 0.93606263E-01 0.84299458E+02</pdfrwt>
<pdfrwt beam="2">  1       -2 0.30086830E-02 0.84299458E+02</pdfrwt>
<totfact> 0.18931143E+04</totfact>
</mgrwt>
</event>
<event>
 4    1  0.1123525E-001  0.1132273E+03  0.7546771E-02  0.1254707E+00
         -2   -1    0    0    0  501 -0.00000000000E+00  0.00000000000E+00  0.38955651971E+02  0.38955651971E+02  0.00000000000E+00 0.  1.
          2   -1    0    0  501    0  0.00000000000E+00 -0.00000000000E+00 -0.52370658329E+03  0.52370658329E+03  0.00000000000E+00 0. -1.
         24    1    1    2    0    0  0.75338213933E+02 -0.26026163172E+02 -0.41386954197E+03  0.42907857249E+03  0.80419002446E+02 0. -1.
        -24    1    1    2    0    0 -0.75338213933E+02  0.26026163172E+02 -0.70881389351E+02  0.13358366277E+03  0.80419002446E+02 0.  1.
<mgrwt>
<rscale>  0 0.11322731E+03</rscale>
<asrwt>0</asrwt>
<pdfrwt beam="1">  1        2 0.80570246E-01 0.11322731E+03</pdfrwt>
<pdfrwt beam="2">  1       -2 0.59931770E-02 0.11322731E+03</pdfrwt>
<totfact> 0.82706016E+03</totfact>
</mgrwt>
</event>
<event>
 4    1  0.1123525E-001  0.1020838E+03  0.7546771E-02  0.1275974E+00
         -2   -1    0    0    0  501 -0.00000000000E+00  0.00000000000E+00  0.61626273566E+02  0.61626273566E+02  0.00000000000E+00 0.  1.
          2   -1    0    0  501    0  0.00000000000E+00 -0.00000000000E+00 -0.12128581043E+04  0.12128581043E+04  0.00000000000E+00 0. -1.
         24    1    1    2    0    0  0.29699481120E+02 -0.55424082655E+02 -0.11667678458E+04  0.11712251321E+04  0.80419002446E+02 0. -1.
        -24    1    1    2    0    0 -0.29699481120E+02  0.55424082655E+02  0.15536015068E+02  0.10325924576E+03  0.80419002446E+02 0.  1.
<mgrwt>
<rscale>  0 0.10208381E+03</rscale>
<asrwt>0</asrwt>
<pdfrwt beam="1">  1        2 0.18659354E+00 0.10208381E+03</pdfrwt>
<pdfrwt beam="2">  1       -2 0.94809657E-02 0.10208381E+03</pdfrwt>
<totfact> 0.14232654E+03</totfact>
</mgrwt>
</event>
<event>
 4    1  0.1123525E-001  0.1599380E+03  0.7546771E-02  0.1188767E+00
          4   -1    0    0  501    0  0.00000000000E+00  0.00000000000E+00  0.17693983052E+03  0.17693983052E+03  0.00000000000E+00 0. -1.
         -4   -1    0    0    0  501 -0.00000000000E+00 -0.00000000000E+00 -0.23500214020E+03  0.23500214020E+03  0.00000000000E+00 0.  1.
         24    1    1    2    0    0 -0.86607978194E+01 -0.13797805942E+03  0.98739708130E+02  0.18796196481E+03  0.80419002446E+02 0. -1.
        -24    1    1    2    0    0  0.86607978194E+01  0.13797805942E+03 -0.15680201781E+03  0.22398000591E+03  0.80419002446E+02 0.  1.
<mgrwt>
<rscale>  0 0.15993802E+03</rscale>
<asrwt>0</asrwt>
<pdfrwt beam="1">  1        4 0.27221513E-01 0.15993802E+03</pdfrwt>
<pdfrwt beam="2">  1       -4 0.36154175E-01 0.15993802E+03</pdfrwt>
<totfact> 0.16292821E+02</totfact>
</mgrwt>
</event>
<event>
 4    1  0.1123525E-001  0.1180258E+03  0.7546771E-02  0.1246390E+00
         -2   -1    0    0    0  501 -0.00000000000E+00  0.00000000000E+00  0.45407100183E+03  0.45407100183E+03  0.00000000000E+00 0.  1.
          2   -1    0    0  501    0  0.00000000000E+00 -0.00000000000E+00 -0.57443328354E+02  0.57443328354E+02  0.00000000000E+00 0. -1.
         24    1    1    2    0    0  0.64296106607E+02 -0.57696536550E+02  0.23734670150E+02  0.12038866299E+03  0.80419002446E+02 0. -1.
        -24    1    1    2    0    0 -0.64296106607E+02  0.57696536550E+02  0.37289300333E+03  0.39112566719E+03  0.80419002446E+02 0.  1.
<mgrwt>
<rscale>  0 0.11802583E+03</rscale>
<asrwt>0</asrwt>
<pdfrwt beam="1">  1        2 0.88374355E-02 0.11802583E+03</pdfrwt>
<pdfrwt beam="2">  1       -2 0.69857075E-01 0.11802583E+03</pdfrwt>
<totfact> 0.13830949E+03</totfact>
</mgrwt>
</event>
<event>
 4    1  0.1123525E-001  0.9741879E+02  0.7546771E-02  0.1285819E+00
         -1   -1    0    0    0  501 -0.00000000000E+00  0.00000000000E+00  0.61236858753E+03  0.61236858753E+03  0.00000000000E+00 0.  1.
          1   -1    0    0  501    0  0.00000000000E+00 -0.00000000000E+00 -0.16175299818E+02  0.16175299818E+02  0.00000000000E+00 0. -1.
         24    1    1    2    0    0  0.43860310218E+02 -0.33158386783E+02  0.36241056528E+03  0.37527568428E+03  0.80419002446E+02 0.  1.
        -24    1    1    2    0    0 -0.43860310218E+02  0.33158386783E+02  0.23378272243E+03  0.25326820307E+03  0.80419002446E+02 0. -1.
<mgrwt>
<rscale>  0 0.97418794E+02</rscale>
<asrwt>0</asrwt>
<pdfrwt beam="1">  1        1 0.24885081E-02 0.97418794E+02</pdfrwt>
<pdfrwt beam="2">  1       -1 0.94210534E-01 0.97418794E+02</pdfrwt>
<totfact> 0.47532182E+03</totfact>
</mgrwt>
</event>
<event>
 4    1  0.1123525E-001  0.1313871E+03  0.7546771E-02  0.1225412E+00
         -1   -1    0    0    0  501 -0.00000000000E+00  0.00000000000E+00  0.21085561407E+02  0.21085561407E+02  0.00000000000E+00 0.  1.
          1   -1    0    0  501    0  0.00000000000E+00 -0.00000000000E+00 -0.10499410171E+04  0.10499410171E+04  0.00000000000E+00 0. -1.
         24    1    1    2    0    0 -0.50067944797E+01  0.10378003138E+03 -0.26310728302E+03  0.29408845819E+03  0.80419002446E+02 0.  1.
        -24    1    1    2    0    0  0.50067944797E+01 -0.10378003138E+03 -0.76574817272E+03  0.77693812037E+03  0.80419002446E+02 0. -1.
<mgrwt>
<rscale>  0 0.13138713E+03</rscale>
<asrwt>0</asrwt>
<pdfrwt beam="1">  1        1 0.16152932E+00 0.13138713E+03</pdfrwt>
<pdfrwt beam="2">  1       -1 0.32439339E-02 0.13138713E+03</pdfrwt>
<totfact> 0.48145082E+03</totfact>
</mgrwt>
</event>
<event>
 4    1  0.1123525E-001  0.2610078E+03  0.7546771E-02  0.1106539E+00
          2   -1    0    0  501    0  0.00000000000E+00  0.00000000000E+00  0.42489190091E+03  0.42489190091E+03  0.00000000000E+00 0. -1.
         -2   -1    0    0    0  501 -0.00000000000E+00 -0.00000000000E+00 -0.22871285911E+03  0.22871285911E+03  0.00000000000E+00 0.  1.
         24    1    1    2    0    0  0.17674873066E+01 -0.24830373674E+03  0.27677832798E+03  0.38043570874E+03  0.80419002446E+02 0. -1.
        -24    1    1    2    0    0 -0.17674873066E+01  0.24830373674E+03 -0.80599286175E+02  0.27316905128E+03  0.80419002446E+02 0.  1.
<mgrwt>
<rscale>  0 0.26100783E+03</rscale>
<asrwt>0</asrwt>
<pdfrwt beam="1">  1        2 0.65367985E-01 0.26100783E+03</pdfrwt>
<pdfrwt beam="2">  1       -2 0.35186594E-01 0.26100783E+03</pdfrwt>
<totfact> 0.57057552E+02</totfact>
</mgrwt>
</event>
<event>
 4    1  0.1123525E-001  0.9170130E+02  0.7546771E-02  0.1298783E+00
         -1   -1    0    0    0  501 -0.00000000000E+00  0.00000000000E+00  0.32195243291E+02  0.32195243291E+02  0.00000000000E+00 0.  1.
          1   -1    0    0  501    0  0.00000000000E+00 -0.00000000000E+00 -0.26280525511E+03  0.26280525511E+03  0.00000000000E+00 0. -1.
         24    1    1    2    0    0  0.43864362587E+02 -0.42221064078E+01 -0.12686325982E+03  0.15653565452E+03  0.80419002446E+02 0.  0.
        -24    1    1    2    0    0 -0.43864362587E+02  0.42221064078E+01 -0.10374675199E+03  0.13846484388E+03  0.80419002446E+02 0.  0.
<mgrwt>
<rscale>  0 0.91701290E+02</rscale>
<asrwt>0</asrwt>
<pdfrwt beam="1">  1        1 0.40431577E-01 0.91701301E+02</pdfrwt>
<pdfrwt beam="2">  1       -1 0.49531145E-02 0.91701301E+02</pdfrwt>
<totfact> 0.16661737E+04</totfact>
</mgrwt>
</event>
<event>
 4    1  0.1123525E-001  0.9834714E+02  0.7546771E-02  0.1283811E+00
         -2   -1    0    0    0  501 -0.00000000000E+00  0.00000000000E+00  0.96200164778E+01  0.96200164778E+01  0.00000000000E+00 0.  1.
          2   -1    0    0  501    0  0.00000000000E+00 -0.00000000000E+00 -0.14996680822E+04  0.14996680822E+04  0.00000000000E+00 0. -1.
         24    1    1    2    0    0 -0.17398576148E+02  0.53872386778E+02 -0.11782524284E+04  0.11823497560E+04  0.80419002446E+02 0.  0.
        -24    1    1    2    0    0  0.17398576148E+02 -0.53872386778E+02 -0.31179563727E+03  0.32693834263E+03  0.80419002446E+02 0.  0.
<mgrwt>
<rscale>  0 0.98347143E+02</rscale>
<asrwt>0</asrwt>
<pdfrwt beam="1">  1        2 0.23071799E+00 0.98347143E+02</pdfrwt>
<pdfrwt beam="2">  1       -2 0.14800037E-02 0.98347143E+02</pdfrwt>
<totfact> 0.15601171E+04</totfact>
</mgrwt>
</event>
<event>
 4    1  0.1123525E-001  0.2451875E+03  0.7546771E-02  0.1116385E+00
          2   -1    0    0  501    0  0.00000000000E+00  0.00000000000E+00  0.10862226411E+03  0.10862226411E+03  0.00000000000E+00 0. -1.
         -2   -1    0    0    0  501 -0.00000000000E+00 -0.00000000000E+00 -0.67681199618E+03  0.67681199618E+03  0.00000000000E+00 0.  1.
         24    1    1    2    0    0  0.17694702491E+03  0.14946385579E+03 -0.11643162794E+03  0.27142813736E+03  0.80419002446E+02 0.  1.
        -24    1    1    2    0    0 -0.17694702491E+03 -0.14946385579E+03 -0.45175810413E+03  0.51400612293E+03  0.80419002446E+02 0. -1.
<mgrwt>
<rscale>  0 0.24518750E+03</rscale>
<asrwt>0</asrwt>
<pdfrwt beam="1">  1        2 0.16711118E-01 0.24518750E+03</pdfrwt>
<pdfrwt beam="2">  1       -2 0.10412492E+00 0.24518750E+03</pdfrwt>
<totfact> 0.26799766E+02</totfact>
</mgrwt>
</event>
<event>
 4    1  0.1123525E-001  0.1224548E+03  0.7546771E-02  0.1239101E+00
          2   -1    0    0  501    0  0.00000000000E+00  0.00000000000E+00  0.13477475867E+04  0.13477475867E+04  0.00000000000E+00 0. -1.
         -2   -1    0    0    0  501 -0.00000000000E+00 -0.00000000000E+00 -0.11306567569E+02  0.11306567569E+02  0.00000000000E+00 0.  1.
         24    1    1    2    0    0 -0.39974639250E+02 -0.83246546137E+02  0.75407050650E+03  0.76394862651E+03  0.80419002446E+02 0. -1.
        -24    1    1    2    0    0  0.39974639250E+02  0.83246546137E+02  0.58237051263E+03  0.59510552776E+03  0.80419002446E+02 0.  1.
<mgrwt>
<rscale>  0 0.12245479E+03</rscale>
<asrwt>0</asrwt>
<pdfrwt beam="1">  1        2 0.20734565E+00 0.12245479E+03</pdfrwt>
<pdfrwt beam="2">  1       -2 0.17394730E-02 0.12245479E+03</pdfrwt>
<totfact> 0.15046154E+04</totfact>
</mgrwt>
</event>
<event>
 4    1  0.1123525E-001  0.8594396E+02  0.7546771E-02  0.1312982E+00
          1   -1    0    0  501    0  0.00000000000E+00  0.00000000000E+00  0.18791321683E+03  0.18791321683E+03  0.00000000000E+00 0. -1.
         -1   -1    0    0    0  501 -0.00000000000E+00 -0.00000000000E+00 -0.11819910791E+03  0.11819910791E+03  0.00000000000E+00 0.  1.
         24    1    1    2    0    0  0.18514385178E+02 -0.24007629799E+02 -0.90186014280E+02  0.12457881792E+03  0.80419002446E+02 0.  1.
        -24    1    1    2    0    0 -0.18514385178E+02  0.24007629799E+02  0.15990012319E+03  0.18153350682E+03  0.80419002446E+02 0. -1.
<mgrwt>
<rscale>  0 0.85943963E+02</rscale>
<asrwt>0</asrwt>
<pdfrwt beam="1">  1        1 0.28909726E-01 0.85943963E+02</pdfrwt>
<pdfrwt beam="2">  1       -1 0.18184478E-01 0.85943963E+02</pdfrwt>
<totfact> 0.35097367E+03</totfact>
</mgrwt>
</event>
<event>
 4    1  0.1123525E-001  0.8054092E+02  0.7546771E-02  0.1327523E+00
         -1   -1    0    0    0  501 -0.00000000000E+00  0.00000000000E+00  0.49212330827E+01  0.49212330827E+01  0.00000000000E+00 0.  1.
          1   -1    0    0  501    0  0.00000000000E+00 -0.00000000000E+00 -0.18770036139E+04  0.18770036139E+04  0.00000000000E+00 0. -1.
         24    1    1    2    0    0 -0.27883911342E+01 -0.34422164230E+01 -0.42259451379E+03  0.43020107278E+03  0.80419002446E+02 0.  1.
        -24    1    1    2    0    0  0.27883911342E+01  0.34422164230E+01 -0.14494878670E+04  0.14517237742E+04  0.80419002446E+02 0.  0.
<mgrwt>
<rscale>  0 0.80540921E+02</rscale>
<asrwt>0</asrwt>
<pdfrwt beam="1">  1        1 0.28876971E+00 0.80540921E+02</pdfrwt>
<pdfrwt beam="2">  1       -1 0.75711299E-03 0.80540921E+02</pdfrwt>
<totfact> 0.10827810E+04</totfact>
</mgrwt>
</event>
<event>
 4    1  0.1123525E-001  0.9071708E+02  0.7546771E-02  0.1301124E+00
         -2   -1    0    0    0  501 -0.00000000000E+00  0.00000000000E+00  0.19160772242E+02  0.19160772242E+02  0.00000000000E+00 0.  1.
          2   -1    0    0  501    0  0.00000000000E+00 -0.00000000000E+00 -0.75793147285E+03  0.75793147285E+03  0.00000000000E+00 0. -1.
         24    1    1    2    0    0  0.12573696302E+01  0.41961788493E+02 -0.62515482861E+03  0.63170257903E+03  0.80419002446E+02 0. -1.
        -24    1    1    2    0    0 -0.12573696302E+01 -0.41961788493E+02 -0.11361587200E+03  0.14538966606E+03  0.80419002446E+02 0.  1.
<mgrwt>
<rscale>  0 0.90717080E+02</rscale>
<asrwt>0</asrwt>
<pdfrwt beam="1">  1        2 0.11660486E+00 0.90717080E+02</pdfrwt>
<pdfrwt beam="2">  1       -2 0.29478108E-02 0.90717080E+02</pdfrwt>
<totfact> 0.15231417E+04</totfact>
</mgrwt>
</event>
<event>
 4    1  0.1123525E-001  0.1344953E+03  0.7546771E-02  0.1220934E+00
         -1   -1    0    0    0  501 -0.00000000000E+00  0.00000000000E+00  0.10494507190E+03  0.10494507190E+03  0.00000000000E+00 0.  1.
          1   -1    0    0  501    0  0.00000000000E+00 -0.00000000000E+00 -0.32295988769E+03  0.32295988769E+03  0.00000000000E+00 0. -1.
         24    1    1    2    0    0  0.63268394143E+02 -0.87286223767E+02  0.37091280217E+02  0.13951614093E+03  0.80419002446E+02 0.  1.
        -24    1    1    2    0    0 -0.63268394143E+02  0.87286223767E+02 -0.25510609600E+03  0.28838881866E+03  0.80419002446E+02 0. -1.
<mgrwt>
<rscale>  0 0.13449532E+03</rscale>
<asrwt>0</asrwt>
<pdfrwt beam="1">  1        1 0.49686136E-01 0.13449532E+03</pdfrwt>
<pdfrwt beam="2">  1       -1 0.16145396E-01 0.13449532E+03</pdfrwt>
<totfact> 0.22232091E+03</totfact>
</mgrwt>
</event>
<event>
 4    1  0.1123525E-001  0.8125755E+02  0.7546771E-02  0.1325520E+00
         -3   -1    0    0    0  501 -0.00000000000E+00  0.00000000000E+00  0.23897287428E+03  0.23897287428E+03  0.00000000000E+00 0.  1.
          3   -1    0    0  501    0  0.00000000000E+00 -0.00000000000E+00 -0.35199309535E+02  0.35199309535E+02  0.00000000000E+00 0. -1.
         24    1    1    2    0    0  0.11610975710E+02  0.87092304920E+00  0.16545766089E+03  0.18433400871E+03  0.80419002446E+02 0.  1.
        -24    1    1    2    0    0 -0.11610975710E+02 -0.87092304920E+00  0.38315903849E+02  0.89838175104E+02  0.80419002446E+02 0. -1.
<mgrwt>
<rscale>  0 0.81257549E+02</rscale>
<asrwt>0</asrwt>
<pdfrwt beam="1">  1        3 0.54152785E-02 0.81257549E+02</pdfrwt>
<pdfrwt beam="2">  1       -3 0.36765057E-01 0.81257549E+02</pdfrwt>
<totfact> 0.30184466E+03</totfact>
</mgrwt>
</event>
<event>
 4    1  0.1123525E-001  0.8405144E+02  0.7546771E-02  0.1317932E+00
          4   -1    0    0  501    0  0.00000000000E+00  0.00000000000E+00  0.60811176993E+03  0.60811176993E+03  0.00000000000E+00 0. -1.
         -4   -1    0    0    0  501 -0.00000000000E+00 -0.00000000000E+00 -0.19402745865E+02  0.19402745865E+02  0.00000000000E+00 0.  1.
         24    1    1    2    0    0  0.55468619851E+01 -0.23804640567E+02  0.49310246220E+03  0.50021463671E+03  0.80419002446E+02 0. -1.
        -24    1    1    2    0    0 -0.55468619851E+01  0.23804640567E+02  0.95606561858E+02  0.12729987909E+03  0.80419002446E+02 0.  1.
<mgrwt>
<rscale>  0 0.84051440E+02</rscale>
<asrwt>0</asrwt>
<pdfrwt beam="1">  1        4 0.93555643E-01 0.84051440E+02</pdfrwt>
<pdfrwt beam="2">  1       -4 0.29850383E-02 0.84051440E+02</pdfrwt>
<totfact> 0.80622207E+02</totfact>
</mgrwt>
</event>
<event>
 4    1  0.1123525E-001  0.8183434E+02  0.7546771E-02  0.1323925E+00
          1   -1    0    0  501    0  0.00000000000E+00  0.00000000000E+00  0.73569213326E+02  0.73569213326E+02  0.00000000000E+00 0. -1.
         -1   -1    0    0    0  501 -0.00000000000E+00 -0.00000000000E+00 -0.38790643498E+03  0.38790643498E+03  0.00000000000E+00 0.  1.
         24    1    1    2    0    0 -0.10543677237E+02  0.10884607434E+02 -0.35902598187E+03  0.36823432135E+03  0.80419002446E+02 0.  1.
        -24    1    1    2    0    0  0.10543677237E+02 -0.10884607434E+02  0.44688760215E+02  0.93241326956E+02  0.80419002446E+02 0. -1.
<mgrwt>
<rscale>  0 0.81834343E+02</rscale>
<asrwt>0</asrwt>
<pdfrwt beam="1">  1        1 0.11318341E-01 0.81834343E+02</pdfrwt>
<pdfrwt beam="2">  1       -1 0.59677912E-01 0.81834343E+02</pdfrwt>
<totfact> 0.15262888E+03</totfact>
</mgrwt>
</event>
<event>
 4    1  0.1123525E-001  0.1057238E+03  0.7546771E-02  0.1268700E+00
          1   -1    0    0  501    0  0.00000000000E+00  0.00000000000E+00  0.88154293322E+03  0.88154293322E+03  0.00000000000E+00 0. -1.
         -1   -1    0    0    0  501 -0.00000000000E+00 -0.00000000000E+00 -0.22857162490E+02  0.22857162490E+02  0.00000000000E+00 0.  1.
         24    1    1    2    0    0 -0.67275618552E+02 -0.13575561276E+02  0.12759548310E+03  0.16570494252E+03  0.80419002446E+02 0.  1.
        -24    1    1    2    0    0  0.67275618552E+02  0.13575561276E+02  0.73109028764E+03  0.73869515319E+03  0.80419002446E+02 0. -1.
<mgrwt>
<rscale>  0 0.10572379E+03</rscale>
<asrwt>0</asrwt>
<pdfrwt beam="1">  1        1 0.13562196E+00 0.10572379E+03</pdfrwt>
<pdfrwt beam="2">  1       -1 0.35164872E-02 0.10572379E+03</pdfrwt>
<totfact> 0.56492621E+03</totfact>
</mgrwt>
</event>
<event>
 4    1  0.1123525E-001  0.9333082E+02  0.7546771E-02  0.1294980E+00
         -2   -1    0    0    0  501 -0.00000000000E+00  0.00000000000E+00  0.27404578726E+02  0.27404578726E+02  0.00000000000E+00 0.  1.
          2   -1    0    0  501    0  0.00000000000E+00 -0.00000000000E+00 -0.50212175756E+03  0.50212175756E+03  0.00000000000E+00 0. -1.
         24    1    1    2    0    0  0.43315355205E+02 -0.19162622725E+02 -0.39774895577E+03  0.40855216787E+03  0.80419002446E+02 0. -1.
        -24    1    1    2    0    0 -0.43315355205E+02  0.19162622725E+02 -0.76968223061E+02  0.12097416841E+03  0.80419002446E+02 0.  1.
<mgrwt>
<rscale>  0 0.93330821E+02</rscale>
<asrwt>0</asrwt>
<pdfrwt beam="1">  1        2 0.77249501E-01 0.93330821E+02</pdfrwt>
<pdfrwt beam="2">  1       -2 0.42160890E-02 0.93330821E+02</pdfrwt>
<totfact> 0.14410752E+04</totfact>
</mgrwt>
</event>
<event>
 4    1  0.1123525E-001  0.1052739E+03  0.7546771E-02  0.1269581E+00
          3   -1    0    0  501    0  0.00000000000E+00  0.00000000000E+00  0.38708062961E+02  0.38708062961E+02  0.00000000000E+00 0. -1.
         -3   -1    0    0    0  501 -0.00000000000E+00 -0.00000000000E+00 -0.29013072825E+03  0.29013072825E+03  0.00000000000E+00 0.  1.
         24    1    1    2    0    0  0.12513423391E+02  0.66774116752E+02 -0.14457444746E+03  0.17884170444E+03  0.80419002446E+02 0.  0.
        -24    1    1    2    0    0 -0.12513423391E+02 -0.66774116752E+02 -0.10684821782E+03  0.14999708677E+03  0.80419002446E+02 0. -1.
<mgrwt>
<rscale>  0 0.10527385E+03</rscale>
<asrwt>0</asrwt>
<pdfrwt beam="1">  1        3 0.59550867E-02 0.10527385E+03</pdfrwt>
<pdfrwt beam="2">  1       -3 0.44635496E-01 0.10527385E+03</pdfrwt>
<totfact> 0.18905650E+03</totfact>
</mgrwt>
</event>
<event>
 4    1  0.1123525E-001  0.9939592E+02  0.7546771E-02  0.1281571E+00
         -2   -1    0    0    0  501 -0.00000000000E+00  0.00000000000E+00  0.16823278585E+02  0.16823278585E+02  0.00000000000E+00 0.  1.
          2   -1    0    0  501    0  0.00000000000E+00 -0.00000000000E+00 -0.73908081238E+03  0.73908081238E+03  0.00000000000E+00 0. -1.
         24    1    1    2    0    0 -0.57009560167E+02  0.12737468888E+02 -0.53243138723E+03  0.54162969926E+03  0.80419002446E+02 0. -1.
        -24    1    1    2    0    0  0.57009560167E+02 -0.12737468888E+02 -0.18982614657E+03  0.21427439171E+03  0.80419002446E+02 0.  1.
<mgrwt>
<rscale>  0 0.99395921E+02</rscale>
<asrwt>0</asrwt>
<pdfrwt beam="1">  1        2 0.11370477E+00 0.99395921E+02</pdfrwt>
<pdfrwt beam="2">  1       -2 0.25881961E-02 0.99395921E+02</pdfrwt>
<totfact> 0.19108480E+04</totfact>
</mgrwt>
</event>
<event>
 4    1  0.1123525E-001  0.1334369E+03  0.7546771E-02  0.1222443E+00
         -1   -1    0    0    0  501 -0.00000000000E+00  0.00000000000E+00  0.32289722233E+03  0.32289722233E+03  0.00000000000E+00 0.  1.
          1   -1    0    0  501    0  0.00000000000E+00 -0.00000000000E+00 -0.90291525402E+02  0.90291525402E+02  0.00000000000E+00 0. -1.
         24    1    1    2    0    0 -0.92614694732E+02 -0.52542556033E+02  0.24520214113E+03  0.27915857114E+03  0.80419002446E+02 0.  1.
        -24    1    1    2    0    0  0.92614694732E+02  0.52542556033E+02 -0.12596444202E+02  0.13403017659E+03  0.80419002446E+02 0. -1.
<mgrwt>
<rscale>  0 0.13343694E+03</rscale>
<asrwt>0</asrwt>
<pdfrwt beam="1">  1        1 0.13891004E-01 0.13343694E+03</pdfrwt>
<pdfrwt beam="2">  1       -1 0.49676495E-01 0.13343694E+03</pdfrwt>
<totfact> 0.16749856E+03</totfact>
</mgrwt>
</event>
<event>
 4    1  0.1123525E-001  0.9147740E+02  0.7546771E-02  0.1299313E+00
          2   -1    0    0  501    0  0.00000000000E+00  0.00000000000E+00  0.98409654237E+03  0.98409654237E+03  0.00000000000E+00 0. -1.
         -2   -1    0    0    0  501 -0.00000000000E+00 -0.00000000000E+00 -0.86150042421E+01  0.86150042421E+01  0.00000000000E+00 0.  1.
         24    1    1    2    0    0  0.17548430028E+02  0.39911740284E+02  0.43123188664E+03  0.44082768790E+03  0.80419002446E+02 0.  1.
        -24    1    1    2    0    0 -0.17548430028E+02 -0.39911740284E+02  0.54424965148E+03  0.55188385871E+03  0.80419002446E+02 0. -1.
<mgrwt>
<rscale>  0 0.91477388E+02</rscale>
<asrwt>0</asrwt>
<pdfrwt beam="1">  1        2 0.15139938E+00 0.91477399E+02</pdfrwt>
<pdfrwt beam="2">  1       -2 0.13253860E-02 0.91477399E+02</pdfrwt>
<totfact> 0.34562923E+04</totfact>
</mgrwt>
</event>
<event>
 4    1  0.1123525E-001  0.8292618E+02  0.7546771E-02  0.1320947E+00
          1   -1    0    0  501    0  0.00000000000E+00  0.00000000000E+00  0.76677234585E+03  0.76677234585E+03  0.00000000000E+00 0. -1.
         -1   -1    0    0    0  501 -0.00000000000E+00 -0.00000000000E+00 -0.10978937231E+02  0.10978937231E+02  0.00000000000E+00 0.  1.
         24    1    1    2    0    0 -0.32790102728E+01 -0.19969467348E+02  0.54430805028E+03  0.55058877675E+03  0.80419002446E+02 0.  0.
        -24    1    1    2    0    0  0.32790102728E+01  0.19969467348E+02  0.21148535834E+03  0.22716250633E+03  0.80419002446E+02 0.  0.
<mgrwt>
<rscale>  0 0.82926167E+02</rscale>
<asrwt>0</asrwt>
<pdfrwt beam="1">  1        1 0.11796493E+00 0.82926178E+02</pdfrwt>
<pdfrwt beam="2">  1       -1 0.16890679E-02 0.82926178E+02</pdfrwt>
<totfact> 0.19596078E+04</totfact>
</mgrwt>
</event>
<event>
 4    1  0.1123525E-001  0.9370260E+02  0.7546771E-02  0.1294125E+00
          2   -1    0    0  501    0  0.00000000000E+00  0.00000000000E+00  0.21080503308E+04  0.21080503308E+04  0.00000000000E+00 0. -1.
         -2   -1    0    0    0  501 -0.00000000000E+00 -0.00000000000E+00 -0.48484329572E+01  0.48484329572E+01  0.00000000000E+00 0.  1.
         24    1    1    2    0    0 -0.47879534548E+02 -0.45288558528E+01  0.14482202495E+04  0.14512484513E+04  0.80419002446E+02 0.  0.
        -24    1    1    2    0    0  0.47879534548E+02  0.45288558528E+01  0.65498164835E+03  0.66165031247E+03  0.80419002446E+02 0. -1.
<mgrwt>
<rscale>  0 0.93702595E+02</rscale>
<asrwt>0</asrwt>
<pdfrwt beam="1">  1        2 0.32431470E+00 0.93702595E+02</pdfrwt>
<pdfrwt beam="2">  1       -2 0.74591445E-03 0.93702595E+02</pdfrwt>
<totfact> 0.20277366E+04</totfact>
</mgrwt>
</event>
<event>
 4    1  0.1123525E-001  0.9030118E+02  0.7546771E-02  0.1302124E+00
         -2   -1    0    0    0  501 -0.00000000000E+00  0.00000000000E+00  0.10042370398E+02  0.10042370398E+02  0.00000000000E+00 0.  1.
          2   -1    0    0  501    0  0.00000000000E+00 -0.00000000000E+00 -0.10000127688E+04  0.10000127688E+04  0.00000000000E+00 0. -1.
         24    1    1    2    0    0 -0.32153419161E+02  0.25558657503E+02 -0.71397185768E+03  0.71965972296E+03  0.80419002446E+02 0. -1.
        -24    1    1    2    0    0  0.32153419161E+02 -0.25558657503E+02 -0.27599854071E+03  0.29039541623E+03  0.80419002446E+02 0.  1.
<mgrwt>
<rscale>  0 0.90301181E+02</rscale>
<asrwt>0</asrwt>
<pdfrwt beam="1">  1        2 0.15384814E+00 0.90301181E+02</pdfrwt>
<pdfrwt beam="2">  1       -2 0.15449798E-02 0.90301181E+02</pdfrwt>
<totfact> 0.27152560E+04</totfact>
</mgrwt>
</event>
<event>
 4    1  0.1123525E-001  0.8325189E+02  0.7546771E-02  0.1320068E+00
          2   -1    0    0  501    0  0.00000000000E+00  0.00000000000E+00  0.61874445092E+03  0.61874445092E+03  0.00000000000E+00 0. -1.
         -2   -1    0    0    0  501 -0.00000000000E+00 -0.00000000000E+00 -0.24506099662E+02  0.24506099662E+02  0.00000000000E+00 0.  1.
         24    1    1    2    0    0  0.20913664673E+02  0.51264248434E+01  0.53410025494E+03  0.54054968308E+03  0.80419002446E+02 0. -1.
        -24    1    1    2    0    0 -0.20913664673E+02 -0.51264248434E+01  0.60138096319E+02  0.10270086750E+03  0.80419002446E+02 0.  1.
<mgrwt>
<rscale>  0 0.83251892E+02</rscale>
<asrwt>0</asrwt>
<pdfrwt beam="1">  1        2 0.95191442E-01 0.83251892E+02</pdfrwt>
<pdfrwt beam="2">  1       -2 0.37701696E-02 0.83251892E+02</pdfrwt>
<totfact> 0.13358141E+04</totfact>
</mgrwt>
</event>
<event>
 4    1  0.1123525E-001  0.8421964E+02  0.7546771E-02  0.1317486E+00
         -1   -1    0    0    0  501 -0.00000000000E+00  0.00000000000E+00  0.45601855833E+01  0.45601855833E+01  0.00000000000E+00 0.  1.
          1   -1    0    0  501    0  0.00000000000E+00 -0.00000000000E+00 -0.16897716787E+04  0.16897716787E+04  0.00000000000E+00 0. -1.
         24    1    1    2    0    0 -0.24347087769E+02 -0.57403627351E+01 -0.60371701026E+03  0.60956310328E+03  0.80419002446E+02 0. -1.
        -24    1    1    2    0    0  0.24347087769E+02  0.57403627351E+01 -0.10814944828E+04  0.10847687610E+04  0.80419002446E+02 0. -1.
<mgrwt>
<rscale>  0 0.84219644E+02</rscale>
<asrwt>0</asrwt>
<pdfrwt beam="1">  1        1 0.25996468E+00 0.84219644E+02</pdfrwt>
<pdfrwt beam="2">  1       -1 0.70156755E-03 0.84219644E+02</pdfrwt>
<totfact> 0.15816953E+04</totfact>
</mgrwt>
</event>
<event>
 4    1  0.1123525E-001  0.1130742E+03  0.7546771E-02  0.1254981E+00
         -2   -1    0    0    0  501 -0.00000000000E+00  0.00000000000E+00  0.42891523936E+03  0.42891523936E+03  0.00000000000E+00 0.  1.
          2   -1    0    0  501    0  0.00000000000E+00 -0.00000000000E+00 -0.30755007097E+02  0.30755007097E+02  0.00000000000E+00 0. -1.
         24    1    1    2    0    0  0.81599847215E+00  0.79485082503E+02  0.23937823903E+03  0.26474081943E+03  0.80419002446E+02 0.  0.
        -24    1    1    2    0    0 -0.81599847215E+00 -0.79485082503E+02  0.15878199323E+03  0.19492942703E+03  0.80419002446E+02 0.  1.
<mgrwt>
<rscale>  0 0.11307415E+03</rscale>
<asrwt>0</asrwt>
<pdfrwt beam="1">  1        2 0.47315399E-02 0.11307416E+03</pdfrwt>
<pdfrwt beam="2">  1       -2 0.65986956E-01 0.11307416E+03</pdfrwt>
<totfact> 0.34436917E+03</totfact>
</mgrwt>
</event>
<event>
 4    1  0.1123525E-001  0.8387128E+02  0.7546771E-02  0.1318411E+00
          2   -1    0    0  501    0  0.00000000000E+00  0.00000000000E+00  0.38580188063E+04  0.38580188063E+04  0.00000000000E+00 0. -1.
         -2   -1    0    0    0  501 -0.00000000000E+00 -0.00000000000E+00 -0.18815197743E+01  0.18815197743E+01  0.00000000000E+00 0.  1.
         24    1    1    2    0    0  0.23746349866E+02 -0.18129642174E+01  0.22675085626E+04  0.22690591604E+04  0.80419002446E+02 0.  0.
        -24    1    1    2    0    0 -0.23746349866E+02  0.18129642174E+01  0.15886287239E+04  0.15908411656E+04  0.80419002446E+02 0.  0.
<mgrwt>
<rscale>  0 0.83871282E+02</rscale>
<asrwt>0</asrwt>
<pdfrwt beam="1">  1        2 0.59353502E+00 0.83871282E+02</pdfrwt>
<pdfrwt beam="2">  1       -2 0.28946767E-03 0.83871282E+02</pdfrwt>
<totfact> 0.73641186E+03</totfact>
</mgrwt>
</event>
<event>
 4    1  0.1123525E-001  0.1019570E+03  0.7546771E-02  0.1276234E+00
          4   -1    0    0  501    0  0.00000000000E+00  0.00000000000E+00  0.97485101321E+02  0.97485101321E+02  0.00000000000E+00 0. -1.
         -4   -1    0    0    0  501 -0.00000000000E+00 -0.00000000000E+00 -0.12829245014E+03  0.12829245014E+03  0.00000000000E+00 0.  1.
         24    1    1    2    0    0  0.34980965378E+02 -0.52003269576E+02  0.30979892557E+02  0.10655973762E+03  0.80419002446E+02 0. -1.
        -24    1    1    2    0    0 -0.34980965378E+02  0.52003269576E+02 -0.61787241380E+02  0.11921781384E+03  0.80419002446E+02 0.  1.
<mgrwt>
<rscale>  0 0.10195697E+03</rscale>
<asrwt>0</asrwt>
<pdfrwt beam="1">  1        4 0.14997708E-01 0.10195697E+03</pdfrwt>
<pdfrwt beam="2">  1       -4 0.19737300E-01 0.10195697E+03</pdfrwt>
<totfact> 0.13434653E+03</totfact>
</mgrwt>
</event>
<event>
 4    1  0.1123525E-001  0.9785078E+02  0.7546771E-02  0.1284881E+00
          2   -1    0    0  501    0  0.00000000000E+00  0.00000000000E+00  0.19062913194E+03  0.19062913194E+03  0.00000000000E+00 0. -1.
         -2   -1    0    0    0  501 -0.00000000000E+00 -0.00000000000E+00 -0.60704666578E+02  0.60704666578E+02  0.00000000000E+00 0.  1.
         24    1    1    2    0    0  0.44852547320E+02  0.33102985003E+02  0.11717025443E+03  0.15265530811E+03  0.80419002446E+02 0.  0.
        -24    1    1    2    0    0 -0.44852547320E+02 -0.33102985003E+02  0.12754210926E+02  0.98678490401E+02  0.80419002446E+02 0.  1.
<mgrwt>
<rscale>  0 0.97850777E+02</rscale>
<asrwt>0</asrwt>
<pdfrwt beam="1">  1        2 0.29327559E-01 0.97850777E+02</pdfrwt>
<pdfrwt beam="2">  1       -2 0.93391795E-02 0.97850777E+02</pdfrwt>
<totfact> 0.12140144E+04</totfact>
</mgrwt>
</event>
<event>
 4    1  0.1123525E-001  0.9623266E+02  0.7546771E-02  0.1288424E+00
          2   -1    0    0  501    0  0.00000000000E+00  0.00000000000E+00  0.15180154070E+03  0.15180154070E+03  0.00000000000E+00 0. -1.
         -2   -1    0    0    0  501 -0.00000000000E+00 -0.00000000000E+00 -0.63121285475E+03  0.63121285475E+03  0.00000000000E+00 0.  1.
         24    1    1    2    0    0  0.52800626015E+02  0.23671352431E+01  0.13240169394E+03  0.16367936324E+03  0.80419002446E+02 0. -1.
        -24    1    1    2    0    0 -0.52800626015E+02 -0.23671352431E+01 -0.61181300799E+03  0.61933503222E+03  0.80419002446E+02 0.  1.
<mgrwt>
<rscale>  0 0.96232663E+02</rscale>
<asrwt>0</asrwt>
<pdfrwt beam="1">  1        2 0.23354083E-01 0.96232663E+02</pdfrwt>
<pdfrwt beam="2">  1       -2 0.97109671E-01 0.96232663E+02</pdfrwt>
<totfact> 0.21464795E+02</totfact>
</mgrwt>
</event>
<event>
 4    1  0.1123525E-001  0.8517374E+02  0.7546771E-02  0.1314979E+00
         -2   -1    0    0    0  501 -0.00000000000E+00  0.00000000000E+00  0.85171846740E+02  0.85171846740E+02  0.00000000000E+00 0.  1.
          2   -1    0    0  501    0  0.00000000000E+00 -0.00000000000E+00 -0.85240986999E+02  0.85240986999E+02  0.00000000000E+00 0. -1.
         24    1    1    2    0    0  0.58866171734E+01  0.27435344408E+02 -0.23937951401E+01  0.85207374059E+02  0.80419002446E+02 0. -1.
        -24    1    1    2    0    0 -0.58866171734E+01 -0.27435344408E+02  0.23246548813E+01  0.85205459680E+02  0.80419002446E+02 0.  0.
<mgrwt>
<rscale>  0 0.85173742E+02</rscale>
<asrwt>0</asrwt>
<pdfrwt beam="1">  1        2 0.13113998E-01 0.85173742E+02</pdfrwt>
<pdfrwt beam="2">  1       -2 0.13103361E-01 0.85173742E+02</pdfrwt>
<totfact> 0.17339861E+04</totfact>
</mgrwt>
</event>
<event>
 4    1  0.1123525E-001  0.9867730E+02  0.7546771E-02  0.1283102E+00
         -2   -1    0    0    0  501 -0.00000000000E+00  0.00000000000E+00  0.18815728542E+02  0.18815728542E+02  0.00000000000E+00 0.  1.
          2   -1    0    0  501    0  0.00000000000E+00 -0.00000000000E+00 -0.75867436551E+03  0.75867436551E+03  0.00000000000E+00 0. -1.
         24    1    1    2    0    0 -0.33312776712E+02  0.46478515371E+02 -0.58910854516E+03  0.59731573512E+03  0.80419002446E+02 0. -1.
        -24    1    1    2    0    0  0.33312776712E+02 -0.46478515371E+02 -0.15075009180E+03  0.18017435893E+03  0.80419002446E+02 0.  1.
<mgrwt>
<rscale>  0 0.98677300E+02</rscale>
<asrwt>0</asrwt>
<pdfrwt beam="1">  1        2 0.11671911E+00 0.98677300E+02</pdfrwt>
<pdfrwt beam="2">  1       -2 0.28947279E-02 0.98677300E+02</pdfrwt>
<totfact> 0.15729869E+04</totfact>
</mgrwt>
</event>
<event>
 4    1  0.1123525E-001  0.1022424E+03  0.7546771E-02  0.1275650E+00
          2   -1    0    0  501    0  0.00000000000E+00  0.00000000000E+00  0.85478754001E+02  0.85478754001E+02  0.00000000000E+00 0. -1.
         -2   -1    0    0    0  501 -0.00000000000E+00 -0.00000000000E+00 -0.21247753634E+03  0.21247753634E+03  0.00000000000E+00 0.  1.
         24    1    1    2    0    0 -0.29481297656E+02 -0.55831415909E+02  0.33558420617E+02  0.10760890977E+03  0.80419002446E+02 0. -1.
        -24    1    1    2    0    0  0.29481297656E+02  0.55831415909E+02 -0.16055720295E+03  0.19034738057E+03  0.80419002446E+02 0.  1.
<mgrwt>
<rscale>  0 0.10224241E+03</rscale>
<asrwt>0</asrwt>
<pdfrwt beam="1">  1        2 0.13150578E-01 0.10224241E+03</pdfrwt>
<pdfrwt beam="2">  1       -2 0.32688851E-01 0.10224241E+03</pdfrwt>
<totfact> 0.37457510E+03</totfact>
</mgrwt>
</event>
<event>
 4    1  0.1123525E-001  0.9195347E+02  0.7546771E-02  0.1298189E+00
         -1   -1    0    0    0  501 -0.00000000000E+00  0.00000000000E+00  0.90600576778E+02  0.90600576778E+02  0.00000000000E+00 0.  1.
          1   -1    0    0  501    0  0.00000000000E+00 -0.00000000000E+00 -0.97103603081E+02  0.97103603081E+02  0.00000000000E+00 0. -1.
         24    1    1    2    0    0 -0.33100711079E+02  0.29875881359E+02  0.15258277835E+02  0.93210816742E+02  0.80419002446E+02 0.  1.
        -24    1    1    2    0    0  0.33100711079E+02 -0.29875881359E+02 -0.21761304138E+02  0.94493363116E+02  0.80419002446E+02 0. -1.
<mgrwt>
<rscale>  0 0.91953474E+02</rscale>
<asrwt>0</asrwt>
<pdfrwt beam="1">  1        1 0.14939016E-01 0.91953474E+02</pdfrwt>
<pdfrwt beam="2">  1       -1 0.13938550E-01 0.91953474E+02</pdfrwt>
<totfact> 0.12205479E+04</totfact>
</mgrwt>
</event>
<event>
 4    1  0.1123525E-001  0.1153654E+03  0.7546771E-02  0.1250945E+00
         -2   -1    0    0    0  501 -0.00000000000E+00  0.00000000000E+00  0.15084516320E+03  0.15084516320E+03  0.00000000000E+00 0.  1.
          2   -1    0    0  501    0  0.00000000000E+00 -0.00000000000E+00 -0.12396332021E+04  0.12396332021E+04  0.00000000000E+00 0. -1.
         24    1    1    2    0    0  0.52590415764E+02  0.63845218375E+02 -0.12144347727E+04  0.12199020440E+04  0.80419002446E+02 0. -1.
        -24    1    1    2    0    0 -0.52590415764E+02 -0.63845218375E+02  0.12564673379E+03  0.17057632135E+03  0.80419002446E+02 0.  1.
<mgrwt>
<rscale>  0 0.11536542E+03</rscale>
<asrwt>0</asrwt>
<pdfrwt beam="1">  1        2 0.19071280E+00 0.11536542E+03</pdfrwt>
<pdfrwt beam="2">  1       -2 0.23206948E-01 0.11536542E+03</pdfrwt>
<totfact> 0.31999645E+02</totfact>
</mgrwt>
</event>
<event>
 4    1  0.1123525E-001  0.8188849E+02  0.7546771E-02  0.1323776E+00
         -2   -1    0    0    0  501 -0.00000000000E+00  0.00000000000E+00  0.17318959327E+04  0.17318959327E+04  0.00000000000E+00 0.  1.
          2   -1    0    0  501    0  0.00000000000E+00 -0.00000000000E+00 -0.39770047223E+01  0.39770047223E+01  0.00000000000E+00 0. -1.
         24    1    1    2    0    0  0.24187704857E+01  0.15253154679E+02  0.72286036082E+03  0.72748390112E+03  0.80419002446E+02 0. -1.
        -24    1    1    2    0    0 -0.24187704857E+01 -0.15253154679E+02  0.10050585671E+04  0.10083890363E+04  0.80419002446E+02 0.  1.
<mgrwt>
<rscale>  0 0.81888492E+02</rscale>
<asrwt>0</asrwt>
<pdfrwt beam="1">  1        2 0.61184826E-03 0.81888492E+02</pdfrwt>
<pdfrwt beam="2">  1       -2 0.26644493E+00 0.81888492E+02</pdfrwt>
<totfact> 0.15402307E+03</totfact>
</mgrwt>
</event>
<event>
 4    1  0.1123525E-001  0.1098563E+03  0.7546771E-02  0.1260836E+00
          1   -1    0    0  501    0  0.00000000000E+00  0.00000000000E+00  0.18856445318E+03  0.18856445318E+03  0.00000000000E+00 0. -1.
         -1   -1    0    0    0  501 -0.00000000000E+00 -0.00000000000E+00 -0.66634698290E+02  0.66634698290E+02  0.00000000000E+00 0.  1.
         24    1    1    2    0    0  0.12086630196E+02  0.73858643413E+02  0.35599376437E+02  0.11548037666E+03  0.80419002446E+02 0.  1.
        -24    1    1    2    0    0 -0.12086630196E+02 -0.73858643413E+02  0.86330378453E+02  0.13971877481E+03  0.80419002446E+02 0. -1.
<mgrwt>
<rscale>  0 0.10985628E+03</rscale>
<asrwt>0</asrwt>
<pdfrwt beam="1">  1        1 0.29009916E-01 0.10985628E+03</pdfrwt>
<pdfrwt beam="2">  1       -1 0.10251492E-01 0.10985628E+03</pdfrwt>
<totfact> 0.86169628E+03</totfact>
</mgrwt>
</event>
<event>
 4    1  0.1123525E-001  0.8809465E+02  0.7546771E-02  0.1307532E+00
          1   -1    0    0  501    0  0.00000000000E+00  0.00000000000E+00  0.43578431488E+03  0.43578431488E+03  0.00000000000E+00 0. -1.
         -1   -1    0    0    0  501 -0.00000000000E+00 -0.00000000000E+00 -0.23276062426E+02  0.23276062426E+02  0.00000000000E+00 0.  1.
         24    1    1    2    0    0  0.11064812390E+02  0.34220184074E+02  0.95008807432E+02  0.12956596974E+03  0.80419002446E+02 0.  1.
        -24    1    1    2    0    0 -0.11064812390E+02 -0.34220184074E+02  0.31749944502E+03  0.32949440756E+03  0.80419002446E+02 0. -1.
<mgrwt>
<rscale>  0 0.88094648E+02</rscale>
<asrwt>0</asrwt>
<pdfrwt beam="1">  1        1 0.67043735E-01 0.88094648E+02</pdfrwt>
<pdfrwt beam="2">  1       -1 0.35809330E-02 0.88094648E+02</pdfrwt>
<totfact> 0.14280233E+04</totfact>
</mgrwt>
</event>
<event>
 4    1  0.1123525E-001  0.8917589E+02  0.7546771E-02  0.1304860E+00
          2   -1    0    0  501    0  0.00000000000E+00  0.00000000000E+00  0.55002736377E+03  0.55002736377E+03  0.00000000000E+00 0. -1.
         -2   -1    0    0    0  501 -0.00000000000E+00 -0.00000000000E+00 -0.38500833079E+02  0.38500833079E+02  0.00000000000E+00 0.  1.
         24    1    1    2    0    0  0.22651106932E+02 -0.31177740880E+02  0.48830146508E+03  0.49637753869E+03  0.80419002446E+02 0. -1.
        -24    1    1    2    0    0 -0.22651106932E+02  0.31177740880E+02  0.23225065619E+02  0.92150658158E+02  0.80419002446E+02 0.  1.
<mgrwt>
<rscale>  0 0.89175894E+02</rscale>
<asrwt>0</asrwt>
<pdfrwt beam="1">  1        2 0.84619589E-01 0.89175894E+02</pdfrwt>
<pdfrwt beam="2">  1       -2 0.59232055E-02 0.89175894E+02</pdfrwt>
<totfact> 0.78442948E+03</totfact>
</mgrwt>
</event>
<event>
 4    1  0.1123525E-001  0.9361916E+02  0.7546771E-02  0.1294317E+00
          1   -1    0    0  501    0  0.00000000000E+00  0.00000000000E+00  0.62741982565E+02  0.62741982565E+02  0.00000000000E+00 0. -1.
         -1   -1    0    0    0  501 -0.00000000000E+00 -0.00000000000E+00 -0.14742991727E+03  0.14742991727E+03  0.00000000000E+00 0.  1.
         24    1    1    2    0    0  0.38612612042E+02 -0.28397124144E+02 -0.66418997470E+02  0.11478688796E+03  0.80419002446E+02 0.  1.
        -24    1    1    2    0    0 -0.38612612042E+02  0.28397124144E+02 -0.18268937236E+02  0.95385011875E+02  0.80419002446E+02 0. -1.
<mgrwt>
<rscale>  0 0.93619156E+02</rscale>
<asrwt>0</asrwt>
<pdfrwt beam="1">  1        1 0.96526127E-02 0.93619156E+02</pdfrwt>
<pdfrwt beam="2">  1       -1 0.22681526E-01 0.93619156E+02</pdfrwt>
<totfact> 0.10011579E+04</totfact>
</mgrwt>
</event>
<event>
 4    1  0.1123525E-001  0.9331531E+02  0.7546771E-02  0.1295016E+00
         -2   -1    0    0    0  501 -0.00000000000E+00  0.00000000000E+00  0.69578877391E+01  0.69578877391E+01  0.00000000000E+00 0.  1.
          2   -1    0    0  501    0  0.00000000000E+00 -0.00000000000E+00 -0.14660544053E+04  0.14660544053E+04  0.00000000000E+00 0. -1.
         24    1    1    2    0    0  0.21704474869E+02  0.42064796914E+02 -0.10113068738E+04  0.10156029442E+04  0.80419002446E+02 0. -1.
        -24    1    1    2    0    0 -0.21704474869E+02 -0.42064796914E+02 -0.44778964376E+03  0.45740934881E+03  0.80419002446E+02 0.  1.
<mgrwt>
<rscale>  0 0.93315311E+02</rscale>
<asrwt>0</asrwt>
<pdfrwt beam="1">  1        2 0.22554644E+00 0.93315311E+02</pdfrwt>
<pdfrwt beam="2">  1       -2 0.10704461E-02 0.93315311E+02</pdfrwt>
<totfact> 0.25650601E+04</totfact>
</mgrwt>
</event>
<event>
 4    1  0.1123525E-001  0.8124347E+02  0.7546771E-02  0.1325559E+00
         -1   -1    0    0    0  501 -0.00000000000E+00  0.00000000000E+00  0.31127848866E+03  0.31127848866E+03  0.00000000000E+00 0.  1.
          1   -1    0    0  501    0  0.00000000000E+00 -0.00000000000E+00 -0.46446920924E+02  0.46446920924E+02  0.00000000000E+00 0. -1.
         24    1    1    2    0    0 -0.11487176523E+02 -0.11531410522E+01  0.26427392128E+03  0.27648002890E+03  0.80419002446E+02 0.  1.
        -24    1    1    2    0    0  0.11487176523E+02  0.11531410522E+01  0.55764645898E+00  0.81245380685E+02  0.80419002446E+02 0. -1.
<mgrwt>
<rscale>  0 0.81243467E+02</rscale>
<asrwt>0</asrwt>
<pdfrwt beam="1">  1        1 0.71456803E-02 0.81243467E+02</pdfrwt>
<pdfrwt beam="2">  1       -1 0.47888997E-01 0.81243467E+02</pdfrwt>
<totfact> 0.41701809E+03</totfact>
</mgrwt>
</event>
<event>
 4    1  0.1123525E-001  0.9634226E+02  0.7546771E-02  0.1288181E+00
          1   -1    0    0  501    0  0.00000000000E+00  0.00000000000E+00  0.66665603115E+03  0.66665603115E+03  0.00000000000E+00 0. -1.
         -1   -1    0    0    0  501 -0.00000000000E+00 -0.00000000000E+00 -0.13951803584E+02  0.13951803584E+02  0.00000000000E+00 0.  1.
         24    1    1    2    0    0  0.43833078948E+02  0.29887647076E+02  0.34182479496E+03  0.35514224849E+03  0.80419002446E+02 0. -1.
        -24    1    1    2    0    0 -0.43833078948E+02 -0.29887647076E+02  0.31087943261E+03  0.32546558624E+03  0.80419002446E+02 0.  1.
<mgrwt>
<rscale>  0 0.96342247E+02</rscale>
<asrwt>0</asrwt>
<pdfrwt beam="1">  1        1 0.10256244E+00 0.96342259E+02</pdfrwt>
<pdfrwt beam="2">  1       -1 0.21464318E-02 0.96342259E+02</pdfrwt>
<totfact> 0.17221619E+04</totfact>
</mgrwt>
</event>
<event>
 4    1  0.1123525E-001  0.8055970E+02  0.7546771E-02  0.1327471E+00
         -1   -1    0    0    0  501 -0.00000000000E+00  0.00000000000E+00  0.40153110574E+03  0.40153110574E+03  0.00000000000E+00 0.  1.
          1   -1    0    0  501    0  0.00000000000E+00 -0.00000000000E+00 -0.30436128667E+02  0.30436128667E+02  0.00000000000E+00 0. -1.
         24    1    1    2    0    0  0.30762560594E+01 -0.36313475624E+01  0.33345450417E+03  0.34304776977E+03  0.80419002446E+02 0.  0.
        -24    1    1    2    0    0 -0.30762560594E+01  0.36313475624E+01  0.37640472897E+02  0.88919464634E+02  0.80419002446E+02 0. -1.
<mgrwt>
<rscale>  0 0.80559705E+02</rscale>
<asrwt>0</asrwt>
<pdfrwt beam="1">  1        1 0.46824816E-02 0.80559705E+02</pdfrwt>
<pdfrwt beam="2">  1       -1 0.61774013E-01 0.80559705E+02</pdfrwt>
<totfact> 0.46002127E+03</totfact>
</mgrwt>
</event>
<event>
 4    1  0.1123525E-001  0.9114731E+02  0.7546771E-02  0.1300097E+00
          4   -1    0    0  501    0  0.00000000000E+00  0.00000000000E+00  0.32480250295E+02  0.32480250295E+02  0.00000000000E+00 0. -1.
         -4   -1    0    0    0  501 -0.00000000000E+00 -0.00000000000E+00 -0.32541620280E+03  0.32541620280E+03  0.00000000000E+00 0.  1.
         24    1    1    2    0    0 -0.82507496148E+01 -0.42101499837E+02 -0.22924743802E+03  0.24670268533E+03  0.80419002446E+02 0.  0.
        -24    1    1    2    0    0  0.82507496148E+01  0.42101499837E+02 -0.63688514490E+02  0.11119376777E+03  0.80419002446E+02 0.  1.
<mgrwt>
<rscale>  0 0.91147294E+02</rscale>
<asrwt>0</asrwt>
<pdfrwt beam="1">  1        4 0.49969617E-02 0.91147305E+02</pdfrwt>
<pdfrwt beam="2">  1       -4 0.50064030E-01 0.91147305E+02</pdfrwt>
<totfact> 0.13877463E+03</totfact>
</mgrwt>
</event>
<event>
 4    1  0.1123525E-001  0.9500586E+02  0.7546771E-02  0.1291163E+00
          1   -1    0    0  501    0  0.00000000000E+00  0.00000000000E+00  0.34128281606E+03  0.34128281606E+03  0.00000000000E+00 0. -1.
         -1   -1    0    0    0  501 -0.00000000000E+00 -0.00000000000E+00 -0.28534461466E+02  0.28534461466E+02  0.00000000000E+00 0.  1.
         24    1    1    2    0    0 -0.19656262854E+02  0.46610386449E+02  0.10636856358E+03  0.14261971836E+03  0.80419002446E+02 0. -1.
        -24    1    1    2    0    0  0.19656262854E+02 -0.46610386449E+02  0.20637979101E+03  0.22719755916E+03  0.80419002446E+02 0.  1.
<mgrwt>
<rscale>  0 0.95005856E+02</rscale>
<asrwt>0</asrwt>
<pdfrwt beam="1">  1        1 0.52505046E-01 0.95005856E+02</pdfrwt>
<pdfrwt beam="2">  1       -1 0.43899174E-02 0.95005856E+02</pdfrwt>
<totfact> 0.14487923E+04</totfact>
</mgrwt>
</event>
<event>
 4    1  0.1123525E-001  0.8966823E+02  0.7546771E-02  0.1303657E+00
          1   -1    0    0  501    0  0.00000000000E+00  0.00000000000E+00  0.61437495960E+02  0.61437495960E+02  0.00000000000E+00 0. -1.
         -1   -1    0    0    0  501 -0.00000000000E+00 -0.00000000000E+00 -0.13614665308E+03  0.13614665308E+03  0.00000000000E+00 0.  1.
         24    1    1    2    0    0 -0.17610587453E+02 -0.35539320161E+02 -0.56801598421E+02  0.10614524768E+03  0.80419002446E+02 0.  1.
        -24    1    1    2    0    0  0.17610587453E+02  0.35539320161E+02 -0.17907558694E+02  0.91438901353E+02  0.80419002446E+02 0. -1.
<mgrwt>
<rscale>  0 0.89668233E+02</rscale>
<asrwt>0</asrwt>
<pdfrwt beam="1">  1        1 0.94519226E-02 0.89668233E+02</pdfrwt>
<pdfrwt beam="2">  1       -1 0.20945639E-01 0.89668233E+02</pdfrwt>
<totfact> 0.11642873E+04</totfact>
</mgrwt>
</event>
<event>
 4    1  0.1123525E-001  0.9020926E+02  0.7546771E-02  0.1302346E+00
          1   -1    0    0  501    0  0.00000000000E+00  0.00000000000E+00  0.12667244298E+04  0.12667244298E+04  0.00000000000E+00 0. -1.
         -1   -1    0    0    0  501 -0.00000000000E+00 -0.00000000000E+00 -0.13146368767E+02  0.13146368767E+02  0.00000000000E+00 0.  1.
         24    1    1    2    0    0  0.34749488355E+02 -0.21516685095E+02  0.16918753332E+03  0.19173453540E+03  0.80419002446E+02 0.  1.
        -24    1    1    2    0    0 -0.34749488355E+02  0.21516685095E+02  0.10843905277E+04  0.10881362632E+04  0.80419002446E+02 0. -1.
<mgrwt>
<rscale>  0 0.90209260E+02</rscale>
<asrwt>0</asrwt>
<pdfrwt beam="1">  1        1 0.19488058E+00 0.90209260E+02</pdfrwt>
<pdfrwt beam="2">  1       -1 0.20225193E-02 0.90209260E+02</pdfrwt>
<totfact> 0.66412910E+03</totfact>
</mgrwt>
</event>
<event>
 4    1  0.1123525E-001  0.1538973E+03  0.7546771E-02  0.1195764E+00
         -1   -1    0    0    0  501 -0.00000000000E+00  0.00000000000E+00  0.61581185868E+02  0.61581185868E+02  0.00000000000E+00 0.  1.
          1   -1    0    0  501    0  0.00000000000E+00 -0.00000000000E+00 -0.15190553097E+04  0.15190553097E+04  0.00000000000E+00 0. -1.
         24    1    1    2    0    0 -0.12450459417E+03  0.41421965957E+02 -0.45756901779E+02  0.16055554568E+03  0.80419002446E+02 0.  1.
        -24    1    1    2    0    0  0.12450459417E+03 -0.41421965957E+02 -0.14117172220E+04  0.14200809499E+04  0.80419002446E+02 0. -1.
<mgrwt>
<rscale>  0 0.15389733E+03</rscale>
<asrwt>0</asrwt>
<pdfrwt beam="1">  1        1 0.23370083E+00 0.15389733E+03</pdfrwt>
<pdfrwt beam="2">  1       -1 0.94740280E-02 0.15389733E+03</pdfrwt>
<totfact> 0.47096712E+02</totfact>
</mgrwt>
</event>
<event>
 4    1  0.1123525E-001  0.9635865E+02  0.7546771E-02  0.1288145E+00
          2   -1    0    0  501    0  0.00000000000E+00  0.00000000000E+00  0.32526766304E+03  0.32526766304E+03  0.00000000000E+00 0. -1.
         -2   -1    0    0    0  501 -0.00000000000E+00 -0.00000000000E+00 -0.29767169704E+02  0.29767169704E+02  0.00000000000E+00 0.  1.
         24    1    1    2    0    0 -0.16790003589E+02  0.50357366324E+02  0.11179036510E+03  0.14758750031E+03  0.80419002446E+02 0.  1.
        -24    1    1    2    0    0  0.16790003589E+02 -0.50357366324E+02  0.18371012823E+03  0.20744733243E+03  0.80419002446E+02 0. -1.
<mgrwt>
<rscale>  0 0.96358637E+02</rscale>
<asrwt>0</asrwt>
<pdfrwt beam="1">  1        2 0.50041176E-01 0.96358649E+02</pdfrwt>
<pdfrwt beam="2">  1       -2 0.45795648E-02 0.96358649E+02</pdfrwt>
<totfact> 0.20258689E+04</totfact>
</mgrwt>
</event>
<event>
 4    1  0.1123525E-001  0.8479253E+02  0.7546771E-02  0.1315976E+00
         -4   -1    0    0    0  501 -0.00000000000E+00  0.00000000000E+00  0.26674476497E+02  0.26674476497E+02  0.00000000000E+00 0.  1.
          4   -1    0    0  501    0  0.00000000000E+00 -0.00000000000E+00 -0.40456785614E+03  0.40456785614E+03  0.00000000000E+00 0. -1.
         24    1    1    2    0    0 -0.14612810409E+01  0.26840672381E+02 -0.31351607848E+03  0.32478008630E+03  0.80419002446E+02 0. -1.
        -24    1    1    2    0    0  0.14612810409E+01 -0.26840672381E+02 -0.64377301164E+02  0.10646224634E+03  0.80419002446E+02 0.  1.
<mgrwt>
<rscale>  0 0.84792529E+02</rscale>
<asrwt>0</asrwt>
<pdfrwt beam="1">  1        4 0.62241206E-01 0.84792529E+02</pdfrwt>
<pdfrwt beam="2">  1       -4 0.41037658E-02 0.84792529E+02</pdfrwt>
<totfact> 0.11894186E+03</totfact>
</mgrwt>
</event>
<event>
 4    1  0.1123525E-001  0.8136553E+02  0.7546771E-02  0.1325220E+00
         -2   -1    0    0    0  501 -0.00000000000E+00  0.00000000000E+00  0.18942312142E+03  0.18942312142E+03  0.00000000000E+00 0.  1.
          2   -1    0    0  501    0  0.00000000000E+00 -0.00000000000E+00 -0.77831224936E+02  0.77831224936E+02  0.00000000000E+00 0. -1.
         24    1    1    2    0    0  0.87463028564E+01 -0.87541523568E+01 -0.43390228365E+02  0.92212042972E+02  0.80419002446E+02 0. -1.
        -24    1    1    2    0    0 -0.87463028564E+01  0.87541523568E+01  0.15498212485E+03  0.17504230338E+03  0.80419002446E+02 0.  0.
<mgrwt>
<rscale>  0 0.81365527E+02</rscale>
<asrwt>0</asrwt>
<pdfrwt beam="1">  1        2 0.11974035E-01 0.81365527E+02</pdfrwt>
<pdfrwt beam="2">  1       -2 0.29142019E-01 0.81365527E+02</pdfrwt>
<totfact> 0.50515145E+03</totfact>
</mgrwt>
</event>
<event>
 4    1  0.1123525E-001  0.1195156E+03  0.7546771E-02  0.1243898E+00
          1   -1    0    0  501    0  0.00000000000E+00  0.00000000000E+00  0.75002999547E+03  0.75002999547E+03  0.00000000000E+00 0. -1.
         -1   -1    0    0    0  501 -0.00000000000E+00 -0.00000000000E+00 -0.20330017083E+02  0.20330017083E+02  0.00000000000E+00 0.  1.
         24    1    1    2    0    0  0.38146501083E+02  0.79759744642E+02  0.26799448529E+03  0.29343659027E+03  0.80419002446E+02 0.  1.
        -24    1    1    2    0    0 -0.38146501083E+02 -0.79759744642E+02  0.46170549310E+03  0.47692342229E+03  0.80419002446E+02 0. -1.
<mgrwt>
<rscale>  0 0.11951564E+03</rscale>
<asrwt>0</asrwt>
<pdfrwt beam="1">  1        1 0.11538921E+00 0.11951564E+03</pdfrwt>
<pdfrwt beam="2">  1       -1 0.31276955E-02 0.11951564E+03</pdfrwt>
<totfact> 0.86043794E+03</totfact>
</mgrwt>
</event>
<event>
 4    1  0.1123525E-001  0.1080105E+03  0.7546771E-02  0.1264299E+00
         -2   -1    0    0    0  501 -0.00000000000E+00  0.00000000000E+00  0.31346473175E+02  0.31346473175E+02  0.00000000000E+00 0.  1.
          2   -1    0    0  501    0  0.00000000000E+00 -0.00000000000E+00 -0.80314265848E+03  0.80314265848E+03  0.00000000000E+00 0. -1.
         24    1    1    2    0    0 -0.57970364658E+02  0.42877650627E+02 -0.69154381035E+03  0.69992793464E+03  0.80419002446E+02 0. -1.
        -24    1    1    2    0    0  0.57970364658E+02 -0.42877650627E+02 -0.80252374953E+02  0.13456119701E+03  0.80419002446E+02 0.  1.
<mgrwt>
<rscale>  0 0.10801052E+03</rscale>
<asrwt>0</asrwt>
<pdfrwt beam="1">  1        2 0.12356041E+00 0.10801052E+03</pdfrwt>
<pdfrwt beam="2">  1       -2 0.48225345E-02 0.10801052E+03</pdfrwt>
<totfact> 0.69680220E+03</totfact>
</mgrwt>
</event>
<event>
 4    1  0.1123525E-001  0.9541621E+02  0.7546771E-02  0.1290241E+00
          2   -1    0    0  501    0  0.00000000000E+00  0.00000000000E+00  0.19837399894E+03  0.19837399894E+03  0.00000000000E+00 0. -1.
         -2   -1    0    0    0  501 -0.00000000000E+00 -0.00000000000E+00 -0.94348688912E+02  0.94348688912E+02  0.00000000000E+00 0.  1.
         24    1    1    2    0    0  0.20172474692E+02 -0.47224016230E+02  0.15690037374E+03  0.18363545321E+03  0.80419002446E+02 0. -1.
        -24    1    1    2    0    0 -0.20172474692E+02  0.47224016230E+02 -0.52875063710E+02  0.10908723464E+03  0.80419002446E+02 0.  1.
<mgrwt>
<rscale>  0 0.95416206E+02</rscale>
<asrwt>0</asrwt>
<pdfrwt beam="1">  1        2 0.30519077E-01 0.95416206E+02</pdfrwt>
<pdfrwt beam="2">  1       -2 0.14515183E-01 0.95416206E+02</pdfrwt>
<totfact> 0.57842070E+03</totfact>
</mgrwt>
</event>
<event>
 4    1  0.1123525E-001  0.9329258E+02  0.7546771E-02  0.1295069E+00
         -1   -1    0    0    0  501 -0.00000000000E+00  0.00000000000E+00  0.11397006441E+02  0.11397006441E+02  0.00000000000E+00 0.  1.
          1   -1    0    0  501    0  0.00000000000E+00 -0.00000000000E+00 -0.80170565038E+03  0.80170565038E+03  0.00000000000E+00 0. -1.
         24    1    1    2    0    0 -0.47226888468E+02 -0.24302096704E+01 -0.48371254665E+03  0.49262696704E+03  0.80419002446E+02 0.  1.
        -24    1    1    2    0    0  0.47226888468E+02  0.24302096704E+01 -0.30659609729E+03  0.32047568979E+03  0.80419002446E+02 0.  0.
<mgrwt>
<rscale>  0 0.93292567E+02</rscale>
<asrwt>0</asrwt>
<pdfrwt beam="1">  1        1 0.12333937E+00 0.93292579E+02</pdfrwt>
<pdfrwt beam="2">  1       -1 0.17533850E-02 0.93292579E+02</pdfrwt>
<totfact> 0.17597021E+04</totfact>
</mgrwt>
</event>
<event>
 4    1  0.1123525E-001  0.1039657E+03  0.7546771E-02  0.1272171E+00
          1   -1    0    0  501    0  0.00000000000E+00  0.00000000000E+00  0.18637435110E+03  0.18637435110E+03  0.00000000000E+00 0. -1.
         -1   -1    0    0    0  501 -0.00000000000E+00 -0.00000000000E+00 -0.67089473254E+02  0.67089473254E+02  0.00000000000E+00 0.  1.
         24    1    1    2    0    0 -0.80382540481E+01 -0.65399065354E+02  0.10630154982E+03  0.14869057376E+03  0.80419002446E+02 0. -1.
        -24    1    1    2    0    0  0.80382540481E+01  0.65399065354E+02  0.12983328018E+02  0.10477325058E+03  0.80419002446E+02 0.  1.
<mgrwt>
<rscale>  0 0.10396572E+03</rscale>
<asrwt>0</asrwt>
<pdfrwt beam="1">  1        1 0.28672977E-01 0.10396573E+03</pdfrwt>
<pdfrwt beam="2">  1       -1 0.10321457E-01 0.10396573E+03</pdfrwt>
<totfact> 0.86130560E+03</totfact>
</mgrwt>
</event>
<event>
 4    1  0.1123525E-001  0.9578599E+02  0.7546771E-02  0.1289416E+00
          2   -1    0    0  501    0  0.00000000000E+00  0.00000000000E+00  0.18525633268E+04  0.18525633268E+04  0.00000000000E+00 0. -1.
         -2   -1    0    0    0  501 -0.00000000000E+00 -0.00000000000E+00 -0.54626829451E+01  0.54626829451E+01  0.00000000000E+00 0.  1.
         24    1    1    2    0    0  0.47509548450E+02  0.21226927674E+02  0.12074406378E+04  0.12112340193E+04  0.80419002446E+02 0.  1.
        -24    1    1    2    0    0 -0.47509548450E+02 -0.21226927674E+02  0.63966000604E+03  0.64679199047E+03  0.80419002446E+02 0.  0.
<mgrwt>
<rscale>  0 0.95785989E+02</rscale>
<asrwt>0</asrwt>
<pdfrwt beam="1">  1        2 0.28500924E+00 0.95785989E+02</pdfrwt>
<pdfrwt beam="2">  1       -2 0.84041424E-03 0.95785989E+02</pdfrwt>
<totfact> 0.23074653E+04</totfact>
</mgrwt>
</event>
<event>
 4    1  0.1123525E-001  0.9608855E+02  0.7546771E-02  0.1288743E+00
          1   -1    0    0  501    0  0.00000000000E+00  0.00000000000E+00  0.75532780815E+01  0.75532780815E+01  0.00000000000E+00 0. -1.
         -1   -1    0    0    0  501 -0.00000000000E+00 -0.00000000000E+00 -0.14216144821E+04  0.14216144821E+04  0.00000000000E+00 0.  1.
         24    1    1    2    0    0 -0.48289717900E+02 -0.20830208530E+02 -0.97454033846E+03  0.97926599128E+03  0.80419002446E+02 0. -1.
        -24    1    1    2    0    0  0.48289717900E+02  0.20830208530E+02 -0.43952086553E+03  0.44990176887E+03  0.80419002446E+02 0.  1.
<mgrwt>
<rscale>  0 0.96088555E+02</rscale>
<asrwt>0</asrwt>
<pdfrwt beam="1">  1        1 0.11620444E-02 0.96088555E+02</pdfrwt>
<pdfrwt beam="2">  1       -1 0.21870961E+00 0.96088555E+02</pdfrwt>
<totfact> 0.15726863E+03</totfact>
</mgrwt>
</event>
<event>
 4    1  0.1123525E-001  0.8167056E+02  0.7546771E-02  0.1324376E+00
         -1   -1    0    0    0  501 -0.00000000000E+00  0.00000000000E+00  0.12769594893E+02  0.12769594893E+02  0.00000000000E+00 0.  1.
          1   -1    0    0  501    0  0.00000000000E+00 -0.00000000000E+00 -0.56370258022E+03  0.56370258022E+03  0.00000000000E+00 0. -1.
         24    1    1    2    0    0 -0.10627217875E+02  0.94829545409E+01 -0.19738950205E+03  0.21361810705E+03  0.80419002446E+02 0.  0.
        -24    1    1    2    0    0  0.10627217875E+02 -0.94829545409E+01 -0.35354348328E+03  0.36285406807E+03  0.80419002446E+02 0. -1.
<mgrwt>
<rscale>  0 0.81670559E+02</rscale>
<asrwt>0</asrwt>
<pdfrwt beam="1">  1        1 0.86723475E-01 0.81670559E+02</pdfrwt>
<pdfrwt beam="2">  1       -1 0.19645530E-02 0.81670559E+02</pdfrwt>
<totfact> 0.24097728E+04</totfact>
</mgrwt>
</event>
<event>
 4    1  0.1123525E-001  0.1191381E+03  0.7546771E-02  0.1244526E+00
          2   -1    0    0  501    0  0.00000000000E+00  0.00000000000E+00  0.86081956249E+03  0.86081956249E+03  0.00000000000E+00 0. -1.
         -2   -1    0    0    0  501 -0.00000000000E+00 -0.00000000000E+00 -0.21204651163E+02  0.21204651163E+02  0.00000000000E+00 0.  1.
         24    1    1    2    0    0  0.87601969406E+02  0.72502251454E+01  0.62778417092E+03  0.63898892949E+03  0.80419002446E+02 0. -1.
        -24    1    1    2    0    0 -0.87601969406E+02 -0.72502251454E+01  0.21183074041E+03  0.24303528415E+03  0.80419002446E+02 0.  1.
<mgrwt>
<rscale>  0 0.11913810E+03</rscale>
<asrwt>0</asrwt>
<pdfrwt beam="1">  1        2 0.13243375E+00 0.11913810E+03</pdfrwt>
<pdfrwt beam="2">  1       -2 0.32622547E-02 0.11913810E+03</pdfrwt>
<totfact> 0.11455503E+04</totfact>
</mgrwt>
</event>
<event>
 4    1  0.1123525E-001  0.8759315E+02  0.7546771E-02  0.1308787E+00
         -1   -1    0    0    0  501 -0.00000000000E+00  0.00000000000E+00  0.37753971232E+02  0.37753971232E+02  0.00000000000E+00 0.  1.
          1   -1    0    0  501    0  0.00000000000E+00 -0.00000000000E+00 -0.24532603613E+03  0.24532603613E+03  0.00000000000E+00 0. -1.
         24    1    1    2    0    0 -0.29215282955E+02 -0.18756611237E+02 -0.45151612959E+02  0.98545559669E+02  0.80419002446E+02 0.  0.
        -24    1    1    2    0    0  0.29215282955E+02  0.18756611237E+02 -0.16242045194E+03  0.18453444769E+03  0.80419002446E+02 0.  0.
<mgrwt>
<rscale>  0 0.87593146E+02</rscale>
<asrwt>0</asrwt>
<pdfrwt beam="1">  1        1 0.37742466E-01 0.87593146E+02</pdfrwt>
<pdfrwt beam="2">  1       -1 0.58083035E-02 0.87593146E+02</pdfrwt>
<totfact> 0.14278894E+04</totfact>
</mgrwt>
</event>
<event>
 4    1  0.1123525E-001  0.8441675E+02  0.7546771E-02  0.1316965E+00
          1   -1    0    0  501    0  0.00000000000E+00  0.00000000000E+00  0.97514455991E+01  0.97514455991E+01  0.00000000000E+00 0. -1.
         -1   -1    0    0    0  501 -0.00000000000E+00 -0.00000000000E+00 -0.84837109654E+03  0.84837109654E+03  0.00000000000E+00 0.  1.
         24    1    1    2    0    0 -0.20760778733E+02 -0.15098397894E+02 -0.57904797976E+03  0.58516899300E+03  0.80419002446E+02 0.  1.
        -24    1    1    2    0    0  0.20760778733E+02  0.15098397894E+02 -0.25957167118E+03  0.27295354914E+03  0.80419002446E+02 0. -1.
<mgrwt>
<rscale>  0 0.84416749E+02</rscale>
<asrwt>0</asrwt>
<pdfrwt beam="1">  1        1 0.15002227E-02 0.84416749E+02</pdfrwt>
<pdfrwt beam="2">  1       -1 0.13051860E+00 0.84416749E+02</pdfrwt>
<totfact> 0.45122528E+03</totfact>
</mgrwt>
</event>
<event>
 4    1  0.1123525E-001  0.9069512E+02  0.7546771E-02  0.1301177E+00
         -2   -1    0    0    0  501 -0.00000000000E+00  0.00000000000E+00  0.31462626451E+02  0.31462626451E+02  0.00000000000E+00 0.  1.
          2   -1    0    0  501    0  0.00000000000E+00 -0.00000000000E+00 -0.42653942987E+03  0.42653942987E+03  0.00000000000E+00 0. -1.
         24    1    1    2    0    0  0.21602681469E+02 -0.35940417656E+02 -0.34001054014E+03  0.35189881050E+03  0.80419002446E+02 0. -1.
        -24    1    1    2    0    0 -0.21602681469E+02  0.35940417656E+02 -0.55066263273E+02  0.10610324582E+03  0.80419002446E+02 0.  1.
<mgrwt>
<rscale>  0 0.90695123E+02</rscale>
<asrwt>0</asrwt>
<pdfrwt beam="1">  1        2 0.65621451E-01 0.90695123E+02</pdfrwt>
<pdfrwt beam="2">  1       -2 0.48404040E-02 0.90695123E+02</pdfrwt>
<totfact> 0.13953498E+04</totfact>
</mgrwt>
</event>
<event>
 4    1  0.1123525E-001  0.2422383E+03  0.7546771E-02  0.1118311E+00
          1   -1    0    0  501    0  0.00000000000E+00  0.00000000000E+00  0.90586816993E+03  0.90586816993E+03  0.00000000000E+00 0. -1.
         -1   -1    0    0    0  501 -0.00000000000E+00 -0.00000000000E+00 -0.65551022468E+02  0.65551022468E+02  0.00000000000E+00 0.  1.
         24    1    1    2    0    0  0.19193765578E+03  0.12398413691E+03  0.47294076875E+03  0.53136834363E+03  0.80419002446E+02 0.  0.
        -24    1    1    2    0    0 -0.19193765578E+03 -0.12398413691E+03  0.36737637871E+03  0.44005084877E+03  0.80419002446E+02 0. -1.
<mgrwt>
<rscale>  0 0.24223823E+03</rscale>
<asrwt>0</asrwt>
<pdfrwt beam="1">  1        1 0.13936432E+00 0.24223826E+03</pdfrwt>
<pdfrwt beam="2">  1       -1 0.10084773E-01 0.24223826E+03</pdfrwt>
<totfact> 0.11384322E+03</totfact>
</mgrwt>
</event>
<event>
 4    1  0.1123525E-001  0.1248389E+03  0.7546771E-02  0.1235321E+00
         -1   -1    0    0    0  501 -0.00000000000E+00  0.00000000000E+00  0.24265142773E+02  0.24265142773E+02  0.00000000000E+00 0.  1.
          1   -1    0    0  501    0  0.00000000000E+00 -0.00000000000E+00 -0.68879557500E+03  0.68879557500E+03  0.00000000000E+00 0. -1.
         24    1    1    2    0    0 -0.91600555192E+02  0.26960409466E+02 -0.23960285691E+03  0.27017451839E+03  0.80419002446E+02 0. -1.
        -24    1    1    2    0    0  0.91600555192E+02 -0.26960409466E+02 -0.42492757532E+03  0.44288619939E+03  0.80419002446E+02 0.  1.
<mgrwt>
<rscale>  0 0.12483886E+03</rscale>
<asrwt>0</asrwt>
<pdfrwt beam="1">  1        1 0.10596854E+00 0.12483886E+03</pdfrwt>
<pdfrwt beam="2">  1       -1 0.37330992E-02 0.12483886E+03</pdfrwt>
<totfact> 0.75344345E+03</totfact>
</mgrwt>
</event>
<event>
 4    1  0.3629243E-001  0.1000848E+03  0.7546771E-02  0.1280118E+00
         -1   -1    0    0    0  501 -0.00000000000E+00  0.00000000000E+00  0.15541846340E+03  0.15541846340E+03  0.00000000000E+00 0.  1.
          1   -1    0    0  501    0  0.00000000000E+00 -0.00000000000E+00 -0.85771386473E+03  0.85771386473E+03  0.00000000000E+00 0. -1.
         24    1    1    2    0    0  0.48675647541E+02 -0.34357411090E+02  0.13601425417E+03  0.16886930939E+03  0.80419002446E+02 0.  1.
        -24    1    1    2    0    0 -0.48675647541E+02  0.34357411090E+02 -0.83830965550E+03  0.84426301875E+03  0.80419002446E+02 0. -1.
<mgrwt>
<rscale>  0 0.10008480E+03</rscale>
<asrwt>0</asrwt>
<pdfrwt beam="1">  1        1 0.13195598E+00 0.10008480E+03</pdfrwt>
<pdfrwt beam="2">  1       -1 0.23910533E-01 0.10008480E+03</pdfrwt>
<totfact> 0.32135153E+02</totfact>
</mgrwt>
</event>
<event>
 4    1  0.1123525E-001  0.8568309E+02  0.7546771E-02  0.1313656E+00
         -1   -1    0    0    0  501 -0.00000000000E+00  0.00000000000E+00  0.15260457620E+02  0.15260457620E+02  0.00000000000E+00 0.  1.
          1   -1    0    0  501    0  0.00000000000E+00 -0.00000000000E+00 -0.66324760240E+03  0.66324760240E+03  0.00000000000E+00 0. -1.
         24    1    1    2    0    0 -0.22601411390E+02 -0.19067026777E+02 -0.14620015082E+03  0.16945818175E+03  0.80419002446E+02 0.  1.
        -24    1    1    2    0    0  0.22601411390E+02  0.19067026777E+02 -0.50178699397E+03  0.50904987828E+03  0.80419002446E+02 0. -1.
<mgrwt>
<rscale>  0 0.85683086E+02</rscale>
<asrwt>0</asrwt>
<pdfrwt beam="1">  1        1 0.10203806E+00 0.85683086E+02</pdfrwt>
<pdfrwt beam="2">  1       -1 0.23477636E-02 0.85683086E+02</pdfrwt>
<totfact> 0.15095540E+04</totfact>
</mgrwt>
</event>
<event>
 4    1  0.1123525E-001  0.1119353E+03  0.7546771E-02  0.1257027E+00
          2   -1    0    0  501    0  0.00000000000E+00  0.00000000000E+00  0.14351017711E+04  0.14351017711E+04  0.00000000000E+00 0. -1.
         -2   -1    0    0    0  501 -0.00000000000E+00 -0.00000000000E+00 -0.24462171639E+02  0.24462171639E+02  0.00000000000E+00 0.  1.
         24    1    1    2    0    0 -0.57793940245E+02 -0.52174322984E+02  0.12905538749E+04  0.12953990966E+04  0.80419002446E+02 0. -1.
        -24    1    1    2    0    0  0.57793940245E+02  0.52174322984E+02  0.12008572455E+03  0.16416484612E+03  0.80419002446E+02 0.  1.
<mgrwt>
<rscale>  0 0.11193532E+03</rscale>
<asrwt>0</asrwt>
<pdfrwt beam="1">  1        2 0.22078482E+00 0.11193532E+03</pdfrwt>
<pdfrwt beam="2">  1       -2 0.37634122E-02 0.11193532E+03</pdfrwt>
<totfact> 0.43792719E+03</totfact>
</mgrwt>
</event>
<event>
 4    1  0.1123525E-001  0.8908238E+02  0.7546771E-02  0.1305089E+00
          4   -1    0    0  501    0  0.00000000000E+00  0.00000000000E+00  0.36905825144E+03  0.36905825144E+03  0.00000000000E+00 0. -1.
         -4   -1    0    0    0  501 -0.00000000000E+00 -0.00000000000E+00 -0.25810824789E+02  0.25810824789E+02  0.00000000000E+00 0.  1.
         24    1    1    2    0    0 -0.46718423714E+01  0.38034570357E+02  0.25228720391E+03  0.26755280575E+03  0.80419002446E+02 0. -1.
        -24    1    1    2    0    0  0.46718423714E+01 -0.38034570357E+02  0.90960222741E+02  0.12731627048E+03  0.80419002446E+02 0.  1.
<mgrwt>
<rscale>  0 0.89082381E+02</rscale>
<asrwt>0</asrwt>
<pdfrwt beam="1">  1        4 0.56778188E-01 0.89082381E+02</pdfrwt>
<pdfrwt beam="2">  1       -4 0.39708964E-02 0.89082381E+02</pdfrwt>
<totfact> 0.15354850E+03</totfact>
</mgrwt>
</event>
<event>
 4    1  0.1123525E-001  0.8642235E+02  0.7546771E-02  0.1311754E+00
          1   -1    0    0  501    0  0.00000000000E+00  0.00000000000E+00  0.12557302402E+03  0.12557302402E+03  0.00000000000E+00 0. -1.
         -1   -1    0    0    0  501 -0.00000000000E+00 -0.00000000000E+00 -0.18495007397E+03  0.18495007397E+03  0.00000000000E+00 0.  1.
         24    1    1    2    0    0 -0.15777336397E+02  0.27435060071E+02 -0.15757079279E+03  0.17971471159E+03  0.80419002446E+02 0.  1.
        -24    1    1    2    0    0  0.15777336397E+02 -0.27435060071E+02  0.98193742842E+02  0.13080838640E+03  0.80419002446E+02 0. -1.
<mgrwt>
<rscale>  0 0.86422351E+02</rscale>
<asrwt>0</asrwt>
<pdfrwt beam="1">  1        1 0.19318927E-01 0.86422351E+02</pdfrwt>
<pdfrwt beam="2">  1       -1 0.28453858E-01 0.86422351E+02</pdfrwt>
<totfact> 0.28192666E+03</totfact>
</mgrwt>
</event>
<event>
 4    1  0.1123525E-001  0.1483837E+03  0.7546771E-02  0.1202473E+00
         -2   -1    0    0    0  501 -0.00000000000E+00  0.00000000000E+00  0.33542919613E+02  0.33542919613E+02  0.00000000000E+00 0.  1.
          2   -1    0    0  501    0  0.00000000000E+00 -0.00000000000E+00 -0.32390152442E+04  0.32390152442E+04  0.00000000000E+00 0. -1.
         24    1    1    2    0    0 -0.25103278438E+02  0.12214879144E+03 -0.30638376170E+04  0.30674286725E+04  0.80419002446E+02 0. -1.
        -24    1    1    2    0    0  0.25103278438E+02 -0.12214879144E+03 -0.14163470756E+03  0.20512949125E+03  0.80419002446E+02 0.  1.
<mgrwt>
<rscale>  0 0.14838368E+03</rscale>
<asrwt>0</asrwt>
<pdfrwt beam="1">  1        2 0.49831021E+00 0.14838368E+03</pdfrwt>
<pdfrwt beam="2">  1       -2 0.51604474E-02 0.14838368E+03</pdfrwt>
<totfact> 0.29242718E+02</totfact>
</mgrwt>
</event>
<event>
 4    1  0.1123525E-001  0.8493883E+02  0.7546771E-02  0.1315593E+00
          2   -1    0    0  501    0  0.00000000000E+00  0.00000000000E+00  0.78986375115E+03  0.78986375115E+03  0.00000000000E+00 0. -1.
         -2   -1    0    0    0  501 -0.00000000000E+00 -0.00000000000E+00 -0.81821435205E+02  0.81821435205E+02  0.00000000000E+00 0.  1.
         24    1    1    2    0    0  0.26886788418E+02  0.49486854696E+01  0.76481680802E+03  0.76951891118E+03  0.80419002446E+02 0. -1.
        -24    1    1    2    0    0 -0.26886788418E+02 -0.49486854696E+01 -0.56774492072E+02  0.10216627518E+03  0.80419002446E+02 0.  1.
<mgrwt>
<rscale>  0 0.84938830E+02</rscale>
<asrwt>0</asrwt>
<pdfrwt beam="1">  1        2 0.12151749E+00 0.84938830E+02</pdfrwt>
<pdfrwt beam="2">  1       -2 0.12587914E-01 0.84938830E+02</pdfrwt>
<totfact> 0.16211967E+03</totfact>
</mgrwt>
</event>
<event>
 4    1  0.1123525E-001  0.1038089E+03  0.7546771E-02  0.1272484E+00
         -1   -1    0    0    0  501 -0.00000000000E+00  0.00000000000E+00  0.53239063711E+03  0.53239063711E+03  0.00000000000E+00 0.  1.
          1   -1    0    0  501    0  0.00000000000E+00 -0.00000000000E+00 -0.26357585174E+02  0.26357585174E+02  0.00000000000E+00 0. -1.
         24    1    1    2    0    0  0.53791312179E+02  0.37623980647E+02  0.38759536476E+03  0.40125609269E+03  0.80419002446E+02 0. -1.
        -24    1    1    2    0    0 -0.53791312179E+02 -0.37623980647E+02  0.11843768718E+03  0.15749212960E+03  0.80419002446E+02 0.  0.
<mgrwt>
<rscale>  0 0.10380889E+03</rscale>
<asrwt>0</asrwt>
<pdfrwt beam="1">  1        1 0.40550135E-02 0.10380889E+03</pdfrwt>
<pdfrwt beam="2">  1       -1 0.81906244E-01 0.10380889E+03</pdfrwt>
<totfact> 0.32755184E+03</totfact>
</mgrwt>
</event>
<event>
 4    1  0.1123525E-001  0.8411435E+02  0.7546771E-02  0.1317765E+00
          1   -1    0    0  501    0  0.00000000000E+00  0.00000000000E+00  0.42929577088E+03  0.42929577088E+03  0.00000000000E+00 0. -1.
         -1   -1    0    0    0  501 -0.00000000000E+00 -0.00000000000E+00 -0.21215150488E+02  0.21215150488E+02  0.00000000000E+00 0.  1.
         24    1    1    2    0    0 -0.21836952549E+02 -0.11452338725E+02  0.97632574531E+02  0.12886948484E+03  0.80419002446E+02 0.  1.
        -24    1    1    2    0    0  0.21836952549E+02  0.11452338725E+02  0.31044804586E+03  0.32164143653E+03  0.80419002446E+02 0. -1.
<mgrwt>
<rscale>  0 0.84114354E+02</rscale>
<asrwt>0</asrwt>
<pdfrwt beam="1">  1        1 0.66045497E-01 0.84114354E+02</pdfrwt>
<pdfrwt beam="2">  1       -1 0.32638696E-02 0.84114354E+02</pdfrwt>
<totfact> 0.16558931E+04</totfact>
</mgrwt>
</event>
<event>
 4    1  0.1123525E-001  0.8769286E+02  0.7546771E-02  0.1308537E+00
          1   -1    0    0  501    0  0.00000000000E+00  0.00000000000E+00  0.17738438520E+02  0.17738438520E+02  0.00000000000E+00 0. -1.
         -1   -1    0    0    0  501 -0.00000000000E+00 -0.00000000000E+00 -0.56704507918E+03  0.56704507918E+03  0.00000000000E+00 0.  1.
         24    1    1    2    0    0 -0.11404414349E+02 -0.33056930970E+02 -0.41653665613E+03  0.42566750312E+03  0.80419002446E+02 0.  0.
        -24    1    1    2    0    0  0.11404414349E+02  0.33056930970E+02 -0.13276998453E+03  0.15911601459E+03  0.80419002446E+02 0.  0.
<mgrwt>
<rscale>  0 0.87692858E+02</rscale>
<asrwt>0</asrwt>
<pdfrwt beam="1">  1        1 0.27289903E-02 0.87692858E+02</pdfrwt>
<pdfrwt beam="2">  1       -1 0.87237713E-01 0.87692858E+02</pdfrwt>
<totfact> 0.48810428E+03</totfact>
</mgrwt>
</event>
<event>
 4    1  0.1123525E-001  0.9634293E+02  0.7546771E-02  0.1288180E+00
         -1   -1    0    0    0  501 -0.00000000000E+00  0.00000000000E+00  0.51891414549E+01  0.51891414549E+01  0.00000000000E+00 0.  1.
          1   -1    0    0  501    0  0.00000000000E+00 -0.00000000000E+00 -0.19991486335E+04  0.19991486335E+04  0.00000000000E+00 0. -1.
         24    1    1    2    0    0  0.41386743471E+02  0.33194599182E+02 -0.67184523110E+03  0.67871789018E+03  0.80419002446E+02 0. -1.
        -24    1    1    2    0    0 -0.41386743471E+02 -0.33194599182E+02 -0.13221142609E+04  0.13256198847E+04  0.80419002446E+02 0.  0.
<mgrwt>
<rscale>  0 0.96342929E+02</rscale>
<asrwt>0</asrwt>
<pdfrwt beam="1">  1        1 0.30756171E+00 0.96342929E+02</pdfrwt>
<pdfrwt beam="2">  1       -1 0.79832845E-03 0.96342929E+02</pdfrwt>
<totfact> 0.85067088E+03</totfact>
</mgrwt>
</event>
<event>
 4    1  0.1123525E-001  0.1028441E+03  0.7546771E-02  0.1274426E+00
          1   -1    0    0  501    0  0.00000000000E+00  0.00000000000E+00  0.52503666354E+02  0.52503666354E+02  0.00000000000E+00 0. -1.
         -1   -1    0    0    0  501 -0.00000000000E+00 -0.00000000000E+00 -0.21934895072E+03  0.21934895072E+03  0.00000000000E+00 0.  1.
         24    1    1    2    0    0  0.35368754543E+02  0.53467132873E+02 -0.12225031252E+03  0.15975618286E+03  0.80419002446E+02 0.  1.
        -24    1    1    2    0    0 -0.35368754543E+02 -0.53467132873E+02 -0.44594971844E+02  0.11209643422E+03  0.80419002446E+02 0. -1.
<mgrwt>
<rscale>  0 0.10284405E+03</rscale>
<asrwt>0</asrwt>
<pdfrwt beam="1">  1        1 0.80774871E-02 0.10284405E+03</pdfrwt>
<pdfrwt beam="2">  1       -1 0.33745992E-01 0.10284405E+03</pdfrwt>
<totfact> 0.66329222E+03</totfact>
</mgrwt>
</event>
<event>
 4    1  0.1123525E-001  0.9537169E+02  0.7546771E-02  0.1290341E+00
         -2   -1    0    0    0  501 -0.00000000000E+00  0.00000000000E+00  0.11438953173E+02  0.11438953173E+02  0.00000000000E+00 0.  1.
          2   -1    0    0  501    0  0.00000000000E+00 -0.00000000000E+00 -0.79730566834E+03  0.79730566834E+03  0.00000000000E+00 0. -1.
         24    1    1    2    0    0  0.10067685337E+01 -0.51259392928E+02 -0.37193761223E+03  0.38397049664E+03  0.80419002446E+02 0.  0.
        -24    1    1    2    0    0 -0.10067685337E+01  0.51259392928E+02 -0.41392910294E+03  0.42477412487E+03  0.80419002446E+02 0.  0.
<mgrwt>
<rscale>  0 0.95371679E+02</rscale>
<asrwt>0</asrwt>
<pdfrwt beam="1">  1        2 0.12266242E+00 0.95371691E+02</pdfrwt>
<pdfrwt beam="2">  1       -2 0.17598388E-02 0.95371691E+02</pdfrwt>
<totfact> 0.30291356E+04</totfact>
</mgrwt>
</event>
<event>
 4    1  0.1123525E-001  0.8190113E+02  0.7546771E-02  0.1323741E+00
          2   -1    0    0  501    0  0.00000000000E+00  0.00000000000E+00  0.72604202771E+03  0.72604202771E+03  0.00000000000E+00 0. -1.
         -2   -1    0    0    0  501 -0.00000000000E+00 -0.00000000000E+00 -0.11443537587E+02  0.11443537587E+02  0.00000000000E+00 0.  1.
         24    1    1    2    0    0  0.13794397821E+02  0.70918566929E+01  0.51915068967E+03  0.52557134091E+03  0.80419002446E+02 0. -1.
        -24    1    1    2    0    0 -0.13794397821E+02 -0.70918566929E+01  0.19544780045E+03  0.21191422439E+03  0.80419002446E+02 0.  0.
<mgrwt>
<rscale>  0 0.81901134E+02</rscale>
<asrwt>0</asrwt>
<pdfrwt beam="1">  1        2 0.11169874E+00 0.81901134E+02</pdfrwt>
<pdfrwt beam="2">  1       -2 0.17605448E-02 0.81901134E+02</pdfrwt>
<totfact> 0.33326481E+04</totfact>
</mgrwt>
</event>
<event>
 4    1  0.1123525E-001  0.1265626E+03  0.7546771E-02  0.1232647E+00
          2   -1    0    0  501    0  0.00000000000E+00  0.00000000000E+00  0.56583034074E+03  0.56583034074E+03  0.00000000000E+00 0. -1.
         -2   -1    0    0    0  501 -0.00000000000E+00 -0.00000000000E+00 -0.46416060751E+02  0.46416060751E+02  0.00000000000E+00 0.  1.
         24    1    1    2    0    0 -0.37357174933E+02  0.90306850720E+02  0.45090624691E+03  0.46833166161E+03  0.80419002446E+02 0. -1.
        -24    1    1    2    0    0  0.37357174933E+02 -0.90306850720E+02  0.68508033083E+02  0.14391473989E+03  0.80419002446E+02 0.  1.
<mgrwt>
<rscale>  0 0.12656264E+03</rscale>
<asrwt>0</asrwt>
<pdfrwt beam="1">  1        2 0.87050817E-01 0.12656264E+03</pdfrwt>
<pdfrwt beam="2">  1       -2 0.71409328E-02 0.12656264E+03</pdfrwt>
<totfact> 0.58564083E+03</totfact>
</mgrwt>
</event>
<event>
 4    1  0.1123525E-001  0.1479067E+03  0.7546771E-02  0.1203069E+00
         -2   -1    0    0    0  501 -0.00000000000E+00  0.00000000000E+00  0.24864492302E+03  0.24864492302E+03  0.00000000000E+00 0.  1.
          2   -1    0    0  501    0  0.00000000000E+00 -0.00000000000E+00 -0.42538335504E+03  0.42538335504E+03  0.00000000000E+00 0. -1.
         24    1    1    2    0    0  0.11505636402E+03 -0.46596077285E+02 -0.38851415775E+03  0.41571580202E+03  0.80419002446E+02 0. -1.
        -24    1    1    2    0    0 -0.11505636402E+03  0.46596077285E+02  0.21177572573E+03  0.25831247605E+03  0.80419002446E+02 0.  1.
<mgrwt>
<rscale>  0 0.14790665E+03</rscale>
<asrwt>0</asrwt>
<pdfrwt beam="1">  1        2 0.65443593E-01 0.14790665E+03</pdfrwt>
<pdfrwt beam="2">  1       -2 0.38253065E-01 0.14790665E+03</pdfrwt>
<totfact> 0.48769161E+02</totfact>
</mgrwt>
</event>
<event>
 4    1  0.1123525E-001  0.2032724E+03  0.7546771E-02  0.1147007E+00
          2   -1    0    0  501    0  0.00000000000E+00  0.00000000000E+00  0.21028759828E+04  0.21028759828E+04  0.00000000000E+00 0. -1.
         -2   -1    0    0    0  501 -0.00000000000E+00 -0.00000000000E+00 -0.24349160648E+02  0.24349160648E+02  0.00000000000E+00 0.  1.
         24    1    1    2    0    0  0.16420543665E+02 -0.18596458008E+03  0.15065593341E+04  0.15202107428E+04  0.80419002446E+02 0. -1.
        -24    1    1    2    0    0 -0.16420543665E+02  0.18596458008E+03  0.57196748807E+03  0.60701440071E+03  0.80419002446E+02 0.  1.
<mgrwt>
<rscale>  0 0.20327242E+03</rscale>
<asrwt>0</asrwt>
<pdfrwt beam="1">  1        2 0.32351924E+00 0.20327242E+03</pdfrwt>
<pdfrwt beam="2">  1       -2 0.37460264E-02 0.20327242E+03</pdfrwt>
<totfact> 0.19988156E+03</totfact>
</mgrwt>
</event>
<event>
 4    1  0.1123525E-001  0.1010899E+03  0.7546771E-02  0.1278021E+00
          1   -1    0    0  501    0  0.00000000000E+00  0.00000000000E+00  0.69723266764E+03  0.69723266764E+03  0.00000000000E+00 0. -1.
         -1   -1    0    0    0  501 -0.00000000000E+00 -0.00000000000E+00 -0.15641012820E+02  0.15641012820E+02  0.00000000000E+00 0.  1.
         24    1    1    2    0    0 -0.59137066130E+02  0.15961016379E+02  0.25138164268E+03  0.27094629148E+03  0.80419002446E+02 0. -1.
        -24    1    1    2    0    0  0.59137066130E+02 -0.15961016379E+02  0.43021001214E+03  0.44192738898E+03  0.80419002446E+02 0.  1.
<mgrwt>
<rscale>  0 0.10108987E+03</rscale>
<asrwt>0</asrwt>
<pdfrwt beam="1">  1        1 0.10726654E+00 0.10108987E+03</pdfrwt>
<pdfrwt beam="2">  1       -1 0.24063102E-02 0.10108987E+03</pdfrwt>
<totfact> 0.13786316E+04</totfact>
</mgrwt>
</event>
<event>
 4    1  0.1123525E-001  0.9045061E+02  0.7546771E-02  0.1301764E+00
          1   -1    0    0  501    0  0.00000000000E+00  0.00000000000E+00  0.15769616864E+04  0.15769616864E+04  0.00000000000E+00 0. -1.
         -1   -1    0    0    0  501 -0.00000000000E+00 -0.00000000000E+00 -0.94952311888E+01  0.94952311888E+01  0.00000000000E+00 0.  1.
         24    1    1    2    0    0  0.18346715126E+02  0.37114619775E+02  0.24948453736E+03  0.26537491836E+03  0.80419002446E+02 0.  1.
        -24    1    1    2    0    0 -0.18346715126E+02 -0.37114619775E+02  0.13179819179E+04  0.13210819992E+04  0.80419002446E+02 0. -1.
<mgrwt>
<rscale>  0 0.90450610E+02</rscale>
<asrwt>0</asrwt>
<pdfrwt beam="1">  1        1 0.24260928E+00 0.90450610E+02</pdfrwt>
<pdfrwt beam="2">  1       -1 0.14608061E-02 0.90450610E+02</pdfrwt>
<totfact> 0.66537171E+03</totfact>
</mgrwt>
</event>
<event>
 4    1  0.1123525E-001  0.1052535E+03  0.7546771E-02  0.1269621E+00
         -1   -1    0    0    0  501 -0.00000000000E+00  0.00000000000E+00  0.24958245720E+02  0.24958245720E+02  0.00000000000E+00 0.  1.
          1   -1    0    0  501    0  0.00000000000E+00 -0.00000000000E+00 -0.56738939918E+03  0.56738939918E+03  0.00000000000E+00 0. -1.
         24    1    1    2    0    0  0.36804940850E+02 -0.57065561260E+02 -0.13302834566E+03  0.16963147897E+03  0.80419002446E+02 0.  1.
        -24    1    1    2    0    0 -0.36804940850E+02  0.57065561260E+02 -0.40940280780E+03  0.42271616594E+03  0.80419002446E+02 0. -1.
<mgrwt>
<rscale>  0 0.10525349E+03</rscale>
<asrwt>0</asrwt>
<pdfrwt beam="1">  1        1 0.87290672E-01 0.10525349E+03</pdfrwt>
<pdfrwt beam="2">  1       -1 0.38397303E-02 0.10525349E+03</pdfrwt>
<totfact> 0.93246407E+03</totfact>
</mgrwt>
</event>
<event>
 4    1  0.1123525E-001  0.1007825E+03  0.7546771E-02  0.1278659E+00
         -1   -1    0    0    0  501 -0.00000000000E+00  0.00000000000E+00  0.89368222771E+02  0.89368222771E+02  0.00000000000E+00 0.  1.
          1   -1    0    0  501    0  0.00000000000E+00 -0.00000000000E+00 -0.22055512620E+03  0.22055512620E+03  0.00000000000E+00 0. -1.
         24    1    1    2    0    0 -0.35151513331E+02 -0.49540592545E+02  0.42290170127E+02  0.10929580798E+03  0.80419002446E+02 0.  1.
        -24    1    1    2    0    0  0.35151513331E+02  0.49540592545E+02 -0.17347707356E+03  0.20062754099E+03  0.80419002446E+02 0. -1.
<mgrwt>
<rscale>  0 0.10078251E+03</rscale>
<asrwt>0</asrwt>
<pdfrwt beam="1">  1        1 0.33931557E-01 0.10078251E+03</pdfrwt>
<pdfrwt beam="2">  1       -1 0.13748958E-01 0.10078251E+03</pdfrwt>
<totfact> 0.45026927E+03</totfact>
</mgrwt>
</event>
<event>
 4    1  0.1123525E-001  0.1640039E+03  0.7546771E-02  0.1184249E+00
         -2   -1    0    0    0  501 -0.00000000000E+00  0.00000000000E+00  0.63571628642E+02  0.63571628642E+02  0.00000000000E+00 0.  1.
          2   -1    0    0  501    0  0.00000000000E+00 -0.00000000000E+00 -0.52265140075E+03  0.52265140075E+03  0.00000000000E+00 0. -1.
         24    1    1    2    0    0  0.53509690561E+02 -0.13253974771E+03 -0.35746210765E+03  0.39328926513E+03  0.80419002446E+02 0. -1.
        -24    1    1    2    0    0 -0.53509690561E+02  0.13253974771E+03 -0.10161766445E+03  0.19293376426E+03  0.80419002446E+02 0.  1.
<mgrwt>
<rscale>  0 0.16400393E+03</rscale>
<asrwt>0</asrwt>
<pdfrwt beam="1">  1        2 0.80407908E-01 0.16400393E+03</pdfrwt>
<pdfrwt beam="2">  1       -2 0.97802505E-02 0.16400393E+03</pdfrwt>
<totfact> 0.39772461E+03</totfact>
</mgrwt>
</event>
<event>
 4    1  0.1123525E-001  0.8610177E+02  0.7546771E-02  0.1312576E+00
         -2   -1    0    0    0  501 -0.00000000000E+00  0.00000000000E+00  0.19408507988E+02  0.19408507988E+02  0.00000000000E+00 0.  1.
          2   -1    0    0  501    0  0.00000000000E+00 -0.00000000000E+00 -0.61160668737E+03  0.61160668737E+03  0.00000000000E+00 0. -1.
         24    1    1    2    0    0 -0.19114497139E+02  0.24102606255E+02 -0.48942586971E+03  0.49694184521E+03  0.80419002446E+02 0. -1.
        -24    1    1    2    0    0  0.19114497139E+02 -0.24102606255E+02 -0.10277230967E+03  0.13407335014E+03  0.80419002446E+02 0.  1.
<mgrwt>
<rscale>  0 0.86101775E+02</rscale>
<asrwt>0</asrwt>
<pdfrwt beam="1">  1        2 0.94093342E-01 0.86101775E+02</pdfrwt>
<pdfrwt beam="2">  1       -2 0.29859241E-02 0.86101775E+02</pdfrwt>
<totfact> 0.19069171E+04</totfact>
</mgrwt>
</event>
<event>
 4    1  0.1123525E-001  0.1006730E+03  0.7546771E-02  0.1278887E+00
         -1   -1    0    0    0  501 -0.00000000000E+00  0.00000000000E+00  0.34826626297E+03  0.34826626297E+03  0.00000000000E+00 0.  1.
          1   -1    0    0  501    0  0.00000000000E+00 -0.00000000000E+00 -0.31795745187E+02  0.31795745187E+02  0.00000000000E+00 0. -1.
         24    1    1    2    0    0 -0.31277367817E+02 -0.51860963527E+02  0.21355287734E+03  0.23609294917E+03  0.80419002446E+02 0.  1.
        -24    1    1    2    0    0  0.31277367817E+02  0.51860963527E+02  0.10291764044E+03  0.14396905898E+03  0.80419002446E+02 0. -1.
<mgrwt>
<rscale>  0 0.10067298E+03</rscale>
<asrwt>0</asrwt>
<pdfrwt beam="1">  1        1 0.48916533E-02 0.10067298E+03</pdfrwt>
<pdfrwt beam="2">  1       -1 0.53579423E-01 0.10067298E+03</pdfrwt>
<totfact> 0.57557074E+03</totfact>
</mgrwt>
</event>
<event>
 4    1  0.1123525E-001  0.1491010E+03  0.7546771E-02  0.1201582E+00
         -2   -1    0    0    0  501 -0.00000000000E+00  0.00000000000E+00  0.21736267271E+02  0.21736267271E+02  0.00000000000E+00 0.  1.
          2   -1    0    0  501    0  0.00000000000E+00 -0.00000000000E+00 -0.28283598198E+04  0.28283598198E+04  0.00000000000E+00 0. -1.
         24    1    1    2    0    0  0.11706817224E+03  0.45375469885E+02 -0.25419145989E+04  0.25462837498E+04  0.80419002446E+02 0. -1.
        -24    1    1    2    0    0 -0.11706817224E+03 -0.45375469885E+02 -0.26470895363E+03  0.30381233731E+03  0.80419002446E+02 0.  1.
<mgrwt>
<rscale>  0 0.14910099E+03</rscale>
<asrwt>0</asrwt>
<pdfrwt beam="1">  1        2 0.43513193E+00 0.14910099E+03</pdfrwt>
<pdfrwt beam="2">  1       -2 0.33440438E-02 0.14910099E+03</pdfrwt>
<totfact> 0.97105616E+02</totfact>
</mgrwt>
</event>
<event>
 4    1  0.1123525E-001  0.8148974E+02  0.7546771E-02  0.1324876E+00
         -2   -1    0    0    0  501 -0.00000000000E+00  0.00000000000E+00  0.13973591606E+02  0.13973591606E+02  0.00000000000E+00 0.  1.
          2   -1    0    0  501    0  0.00000000000E+00 -0.00000000000E+00 -0.56572619320E+03  0.56572619320E+03  0.00000000000E+00 0. -1.
         24    1    1    2    0    0  0.12481065363E+02 -0.41934539691E+01 -0.39180766376E+03  0.40019223304E+03  0.80419002446E+02 0. -1.
        -24    1    1    2    0    0 -0.12481065363E+02  0.41934539691E+01 -0.15994493784E+03  0.17950755177E+03  0.80419002446E+02 0.  0.
<mgrwt>
<rscale>  0 0.81489742E+02</rscale>
<asrwt>0</asrwt>
<pdfrwt beam="1">  1        2 0.87034783E-01 0.81489742E+02</pdfrwt>
<pdfrwt beam="2">  1       -2 0.21497837E-02 0.81489742E+02</pdfrwt>
<totfact> 0.33208432E+04</totfact>
</mgrwt>
</event>
<event>
 4    1  0.1123525E-001  0.9053479E+02  0.7546771E-02  0.1301562E+00
          2   -1    0    0  501    0  0.00000000000E+00  0.00000000000E+00  0.86927488643E+03  0.86927488643E+03  0.00000000000E+00 0. -1.
         -2   -1    0    0    0  501 -0.00000000000E+00 -0.00000000000E+00 -0.30984487351E+02  0.30984487351E+02  0.00000000000E+00 0.  1.
         24    1    1    2    0    0 -0.40205745860E+02 -0.10622185278E+02  0.79458699293E+03  0.79972810261E+03  0.80419002446E+02 0. -1.
        -24    1    1    2    0    0  0.40205745860E+02  0.10622185278E+02  0.43703406155E+02  0.10053127118E+03  0.80419002446E+02 0.  1.
<mgrwt>
<rscale>  0 0.90534793E+02</rscale>
<asrwt>0</asrwt>
<pdfrwt beam="1">  1        2 0.13373458E+00 0.90534793E+02</pdfrwt>
<pdfrwt beam="2">  1       -2 0.47668449E-02 0.90534793E+02</pdfrwt>
<totfact> 0.63590104E+03</totfact>
</mgrwt>
</event>
<event>
 4    1  0.1123525E-001  0.9302715E+02  0.7546771E-02  0.1295682E+00
          2   -1    0    0  501    0  0.00000000000E+00  0.00000000000E+00  0.36139343689E+03  0.36139343689E+03  0.00000000000E+00 0. -1.
         -2   -1    0    0    0  501 -0.00000000000E+00 -0.00000000000E+00 -0.26619745102E+02  0.26619745102E+02  0.00000000000E+00 0.  1.
         24    1    1    2    0    0  0.21978984158E+02 -0.41276604417E+02  0.22886870642E+03  0.24705249351E+03  0.80419002446E+02 0. -1.
        -24    1    1    2    0    0 -0.21978984158E+02  0.41276604417E+02  0.10590498536E+03  0.14096068848E+03  0.80419002446E+02 0.  1.
<mgrwt>
<rscale>  0 0.93027145E+02</rscale>
<asrwt>0</asrwt>
<pdfrwt beam="1">  1        2 0.55598987E-01 0.93027145E+02</pdfrwt>
<pdfrwt beam="2">  1       -2 0.40953457E-02 0.93027145E+02</pdfrwt>
<totfact> 0.21320333E+04</totfact>
</mgrwt>
</event>
<event>
 4    1  0.1123525E-001  0.1859648E+03  0.7546771E-02  0.1162152E+00
          2   -1    0    0  501    0  0.00000000000E+00  0.00000000000E+00  0.19635113814E+03  0.19635113814E+03  0.00000000000E+00 0. -1.
         -2   -1    0    0    0  501 -0.00000000000E+00 -0.00000000000E+00 -0.20324958426E+03  0.20324958426E+03  0.00000000000E+00 0.  1.
         24    1    1    2    0    0 -0.58146233115E+02  0.15727270349E+03  0.69536879137E+02  0.19854037676E+03  0.80419002446E+02 0. -1.
        -24    1    1    2    0    0  0.58146233115E+02 -0.15727270349E+03 -0.76435325256E+02  0.20106034564E+03  0.80419002446E+02 0.  1.
<mgrwt>
<rscale>  0 0.18596479E+03</rscale>
<asrwt>0</asrwt>
<pdfrwt beam="1">  1        2 0.30207868E-01 0.18596479E+03</pdfrwt>
<pdfrwt beam="2">  1       -2 0.31269167E-01 0.18596479E+03</pdfrwt>
<totfact> 0.16293559E+03</totfact>
</mgrwt>
</event>
<event>
 4    1  0.1123525E-001  0.1716032E+03  0.7546771E-02  0.1176186E+00
          4   -1    0    0  501    0  0.00000000000E+00  0.00000000000E+00  0.22327176861E+03  0.22327176861E+03  0.00000000000E+00 0. -1.
         -4   -1    0    0    0  501 -0.00000000000E+00 -0.00000000000E+00 -0.20372166844E+03  0.20372166844E+03  0.00000000000E+00 0.  1.
         24    1    1    2    0    0 -0.84553431364E+00 -0.15159061433E+03 -0.11699774866E+03  0.20769236487E+03  0.80419002446E+02 0.  1.
        -24    1    1    2    0    0  0.84553431364E+00  0.15159061433E+03  0.13654784883E+03  0.21930107217E+03  0.80419002446E+02 0. -1.
<mgrwt>
<rscale>  0 0.17160318E+03</rscale>
<asrwt>0</asrwt>
<pdfrwt beam="1">  1        4 0.34349503E-01 0.17160320E+03</pdfrwt>
<pdfrwt beam="2">  1       -4 0.31341795E-01 0.17160320E+03</pdfrwt>
<totfact> 0.13932606E+02</totfact>
</mgrwt>
</event>
<event>
 4    1  0.1123525E-001  0.9975461E+02  0.7546771E-02  0.1280813E+00
          2   -1    0    0  501    0  0.00000000000E+00  0.00000000000E+00  0.40192274692E+03  0.40192274692E+03  0.00000000000E+00 0. -1.
         -2   -1    0    0    0  501 -0.00000000000E+00 -0.00000000000E+00 -0.74374704000E+02  0.74374704000E+02  0.00000000000E+00 0.  1.
         24    1    1    2    0    0  0.17537810861E+02 -0.56357702557E+02  0.35828658309E+03  0.37191431409E+03  0.80419002446E+02 0. -1.
        -24    1    1    2    0    0 -0.17537810861E+02  0.56357702557E+02 -0.30738540175E+02  0.10438313683E+03  0.80419002446E+02 0.  1.
<mgrwt>
<rscale>  0 0.99754606E+02</rscale>
<asrwt>0</asrwt>
<pdfrwt beam="1">  1        2 0.61834268E-01 0.99754606E+02</pdfrwt>
<pdfrwt beam="2">  1       -2 0.11442262E-01 0.99754606E+02</pdfrwt>
<totfact> 0.40286900E+03</totfact>
</mgrwt>
</event>
<event>
 4    1  0.1123525E-001  0.1036509E+03  0.7546771E-02  0.1272801E+00
         -1   -1    0    0    0  501 -0.00000000000E+00  0.00000000000E+00  0.13059606308E+02  0.13059606308E+02  0.00000000000E+00 0.  1.
          1   -1    0    0  501    0  0.00000000000E+00 -0.00000000000E+00 -0.10198594634E+04  0.10198594634E+04  0.00000000000E+00 0. -1.
         24    1    1    2    0    0 -0.36677690830E+02 -0.54139091568E+02 -0.27629430043E+03  0.29509668017E+03  0.80419002446E+02 0.  1.
        -24    1    1    2    0    0  0.36677690830E+02  0.54139091568E+02 -0.73050555667E+03  0.73782238955E+03  0.80419002446E+02 0. -1.
<mgrwt>
<rscale>  0 0.10365091E+03</rscale>
<asrwt>0</asrwt>
<pdfrwt beam="1">  1        1 0.15690147E+00 0.10365091E+03</pdfrwt>
<pdfrwt beam="2">  1       -1 0.20091701E-02 0.10365091E+03</pdfrwt>
<totfact> 0.99871267E+03</totfact>
</mgrwt>
</event>
<event>
 4    1  0.1123525E-001  0.4332021E+03  0.7546771E-02  0.1032853E+00
         -1   -1    0    0    0  501 -0.00000000000E+00  0.00000000000E+00  0.11209052382E+04  0.11209052382E+04  0.00000000000E+00 0.  1.
          1   -1    0    0  501    0  0.00000000000E+00 -0.00000000000E+00 -0.21640581694E+03  0.21640581694E+03  0.00000000000E+00 0. -1.
         24    1    1    2    0    0 -0.37947660322E+03  0.19285830516E+03  0.77037260758E+03  0.88382011107E+03  0.80419002446E+02 0.  1.
        -24    1    1    2    0    0  0.37947660322E+03 -0.19285830516E+03  0.13412681369E+03  0.45349094409E+03  0.80419002446E+02 0. -1.
<mgrwt>
<rscale>  0 0.43320207E+03</rscale>
<asrwt>0</asrwt>
<pdfrwt beam="1">  1        1 0.33293203E-01 0.43320207E+03</pdfrwt>
<pdfrwt beam="2">  1       -1 0.17244696E+00 0.43320207E+03</pdfrwt>
<totfact> 0.33580145E+01</totfact>
</mgrwt>
</event>
<event>
 4    1  0.1123525E-001  0.9820769E+02  0.7546771E-02  0.1284111E+00
         -4   -1    0    0    0  501 -0.00000000000E+00  0.00000000000E+00  0.28470267145E+03  0.28470267145E+03  0.00000000000E+00 0.  1.
          4   -1    0    0  501    0  0.00000000000E+00 -0.00000000000E+00 -0.29669076649E+03  0.29669076649E+03  0.00000000000E+00 0. -1.
         24    1    1    2    0    0 -0.56094853286E+02  0.55589815359E+01 -0.27959179832E+03  0.29633819275E+03  0.80419002446E+02 0. -1.
        -24    1    1    2    0    0  0.56094853286E+02 -0.55589815359E+01  0.26760370328E+03  0.28505524518E+03  0.80419002446E+02 0.  1.
<mgrwt>
<rscale>  0 0.98207692E+02</rscale>
<asrwt>0</asrwt>
<pdfrwt beam="1">  1        4 0.45644733E-01 0.98207692E+02</pdfrwt>
<pdfrwt beam="2">  1       -4 0.43800411E-01 0.98207692E+02</pdfrwt>
<totfact> 0.38084005E+01</totfact>
</mgrwt>
</event>
<event>
 4    1  0.1123525E-001  0.8325736E+02  0.7546771E-02  0.1320054E+00
          4   -1    0    0  501    0  0.00000000000E+00  0.00000000000E+00  0.79299213056E+02  0.79299213056E+02  0.00000000000E+00 0. -1.
         -4   -1    0    0    0  501 -0.00000000000E+00 -0.00000000000E+00 -0.28283285499E+03  0.28283285499E+03  0.00000000000E+00 0.  1.
         24    1    1    2    0    0  0.20649441426E+02  0.61783606494E+01  0.48740050350E+02  0.96474763716E+02  0.80419002446E+02 0. -1.
        -24    1    1    2    0    0 -0.20649441426E+02 -0.61783606494E+01 -0.25227369228E+03  0.26565730433E+03  0.80419002446E+02 0.  1.
<mgrwt>
<rscale>  0 0.83257357E+02</rscale>
<asrwt>0</asrwt>
<pdfrwt beam="1">  1        4 0.12199879E-01 0.83257357E+02</pdfrwt>
<pdfrwt beam="2">  1       -4 0.43512746E-01 0.83257357E+02</pdfrwt>
<totfact> 0.41536307E+02</totfact>
</mgrwt>
</event>
<event>
 4    1  0.1123525E-001  0.8717412E+02  0.7546771E-02  0.1309843E+00
          2   -1    0    0  501    0  0.00000000000E+00  0.00000000000E+00  0.36743294068E+04  0.36743294068E+04  0.00000000000E+00 0. -1.
         -2   -1    0    0    0  501 -0.00000000000E+00 -0.00000000000E+00 -0.29478086943E+01  0.29478086943E+01  0.00000000000E+00 0.  1.
         24    1    1    2    0    0  0.71589158526E+01 -0.32876443710E+02  0.28400434027E+04  0.28413809769E+04  0.80419002446E+02 0.  0.
        -24    1    1    2    0    0 -0.71589158526E+01  0.32876443710E+02  0.83133819542E+03  0.83589623862E+03  0.80419002446E+02 0. -1.
<mgrwt>
<rscale>  0 0.87174116E+02</rscale>
<asrwt>0</asrwt>
<pdfrwt beam="1">  1        2 0.56527778E+00 0.87174116E+02</pdfrwt>
<pdfrwt beam="2">  1       -2 0.45351197E-03 0.87174116E+02</pdfrwt>
<totfact> 0.52630705E+03</totfact>
</mgrwt>
</event>
<event>
 4    1  0.1123525E-001  0.9285180E+02  0.7546771E-02  0.1296089E+00
          2   -1    0    0  501    0  0.00000000000E+00  0.00000000000E+00  0.38594581828E+03  0.38594581828E+03  0.00000000000E+00 0. -1.
         -2   -1    0    0    0  501 -0.00000000000E+00 -0.00000000000E+00 -0.23836706590E+02  0.23836706590E+02  0.00000000000E+00 0.  1.
         24    1    1    2    0    0 -0.35995300257E+02  0.29301463009E+02  0.12968744225E+03  0.15950011288E+03  0.80419002446E+02 0. -1.
        -24    1    1    2    0    0  0.35995300257E+02 -0.29301463009E+02  0.23242166944E+03  0.25028241200E+03  0.80419002446E+02 0.  0.
<mgrwt>
<rscale>  0 0.92851793E+02</rscale>
<asrwt>0</asrwt>
<pdfrwt beam="1">  1        2 0.59376275E-01 0.92851805E+02</pdfrwt>
<pdfrwt beam="2">  1       -2 0.36671859E-02 0.92851805E+02</pdfrwt>
<totfact> 0.23398738E+04</totfact>
</mgrwt>
</event>
<event>
 4    1  0.1123525E-001  0.8042507E+02  0.7546771E-02  0.1327849E+00
          1   -1    0    0  501    0  0.00000000000E+00  0.00000000000E+00  0.10358123901E+04  0.10358123901E+04  0.00000000000E+00 0. -1.
         -1   -1    0    0    0  501 -0.00000000000E+00 -0.00000000000E+00 -0.97229688262E+01  0.97229688262E+01  0.00000000000E+00 0.  1.
         24    1    1    2    0    0  0.54315505674E+00 -0.82524773832E+00  0.20036505023E+03  0.21590355569E+03  0.80419002446E+02 0.  1.
        -24    1    1    2    0    0 -0.54315505674E+00  0.82524773832E+00  0.82572437100E+03  0.82963180319E+03  0.80419002446E+02 0.  0.
<mgrwt>
<rscale>  0 0.80425071E+02</rscale>
<asrwt>0</asrwt>
<pdfrwt beam="1">  1        1 0.15935566E+00 0.80425071E+02</pdfrwt>
<pdfrwt beam="2">  1       -1 0.14958422E-02 0.80425071E+02</pdfrwt>
<totfact> 0.14533740E+04</totfact>
</mgrwt>
</event>
<event>
 4    1  0.1123525E-001  0.8909488E+02  0.7546771E-02  0.1305058E+00
         -2   -1    0    0    0  501 -0.00000000000E+00  0.00000000000E+00  0.15719732935E+03  0.15719732935E+03  0.00000000000E+00 0.  1.
          2   -1    0    0  501    0  0.00000000000E+00 -0.00000000000E+00 -0.83209666659E+02  0.83209666659E+02  0.00000000000E+00 0. -1.
         24    1    1    2    0    0 -0.36635602546E+02  0.11336441376E+02 -0.38375075054E+02  0.97007961615E+02  0.80419002446E+02 0. -1.
        -24    1    1    2    0    0  0.36635602546E+02 -0.11336441376E+02  0.11236273774E+03  0.14339903439E+03  0.80419002446E+02 0.  1.
<mgrwt>
<rscale>  0 0.89094883E+02</rscale>
<asrwt>0</asrwt>
<pdfrwt beam="1">  1        2 0.12801487E-01 0.89094883E+02</pdfrwt>
<pdfrwt beam="2">  1       -2 0.24184204E-01 0.89094883E+02</pdfrwt>
<totfact> 0.65129058E+03</totfact>
</mgrwt>
</event>
<event>
 4    1  0.1123525E-001  0.1221605E+03  0.7546771E-02  0.1239575E+00
         -2   -1    0    0    0  501 -0.00000000000E+00  0.00000000000E+00  0.35679245425E+02  0.35679245425E+02  0.00000000000E+00 0.  1.
          2   -1    0    0  501    0  0.00000000000E+00 -0.00000000000E+00 -0.66310225352E+03  0.66310225352E+03  0.00000000000E+00 0. -1.
         24    1    1    2    0    0 -0.58385447344E+02  0.71043069398E+02 -0.52601860012E+03  0.54001737175E+03  0.80419002446E+02 0. -1.
        -24    1    1    2    0    0  0.58385447344E+02 -0.71043069398E+02 -0.10140440798E+03  0.15876412719E+03  0.80419002446E+02 0.  0.
<mgrwt>
<rscale>  0 0.12216053E+03</rscale>
<asrwt>0</asrwt>
<pdfrwt beam="1">  1        2 0.10201573E+00 0.12216053E+03</pdfrwt>
<pdfrwt beam="2">  1       -2 0.54891149E-02 0.12216053E+03</pdfrwt>
<totfact> 0.72694179E+03</totfact>
</mgrwt>
</event>
<event>
 4    1  0.1123525E-001  0.8467903E+02  0.7546771E-02  0.1316274E+00
         -4   -1    0    0    0  501 -0.00000000000E+00  0.00000000000E+00  0.11885432362E+03  0.11885432362E+03  0.00000000000E+00 0.  1.
          4   -1    0    0  501    0  0.00000000000E+00 -0.00000000000E+00 -0.60868036885E+02  0.60868036885E+02  0.00000000000E+00 0. -1.
         24    1    1    2    0    0 -0.25314113363E+02 -0.79065796403E+01  0.37438220662E+02  0.92585931208E+02  0.80419002446E+02 0.  1.
        -24    1    1    2    0    0  0.25314113363E+02  0.79065796403E+01  0.20548066073E+02  0.87136429297E+02  0.80419002446E+02 0. -1.
<mgrwt>
<rscale>  0 0.84679018E+02</rscale>
<asrwt>0</asrwt>
<pdfrwt beam="1">  1        4 0.93643134E-02 0.84679029E+02</pdfrwt>
<pdfrwt beam="2">  1       -4 0.18285281E-01 0.84679029E+02</pdfrwt>
<totfact> 0.32567075E+03</totfact>
</mgrwt>
</event>
<event>
 4    1  0.1123525E-001  0.1084740E+03  0.7546771E-02  0.1263422E+00
         -2   -1    0    0    0  501 -0.00000000000E+00  0.00000000000E+00  0.88595891235E+01  0.88595891235E+01  0.00000000000E+00 0.  1.
          2   -1    0    0  501    0  0.00000000000E+00 -0.00000000000E+00 -0.15346023723E+04  0.15346023723E+04  0.00000000000E+00 0. -1.
         24    1    1    2    0    0  0.71760561716E+02 -0.12239261240E+02 -0.47979089656E+03  0.49190029285E+03  0.80419002446E+02 0.  0.
        -24    1    1    2    0    0 -0.71760561716E+02  0.12239261240E+02 -0.10459518866E+04  0.10515616685E+04  0.80419002446E+02 0. -1.
<mgrwt>
<rscale>  0 0.10847394E+03</rscale>
<asrwt>0</asrwt>
<pdfrwt beam="1">  1        2 0.23609251E+00 0.10847396E+03</pdfrwt>
<pdfrwt beam="2">  1       -2 0.13630147E-02 0.10847396E+03</pdfrwt>
<totfact> 0.16943161E+04</totfact>
</mgrwt>
</event>
<event>
 4    1  0.1123525E-001  0.1281724E+03  0.7546771E-02  0.1230193E+00
          1   -1    0    0  501    0  0.00000000000E+00  0.00000000000E+00  0.30833721566E+02  0.30833721566E+02  0.00000000000E+00 0. -1.
         -1   -1    0    0    0  501 -0.00000000000E+00 -0.00000000000E+00 -0.61309073922E+03  0.61309073922E+03  0.00000000000E+00 0.  1.
         24    1    1    2    0    0  0.81588368755E+02  0.57482899696E+02 -0.40764281248E+03  0.42731817676E+03  0.80419002446E+02 0.  0.
        -24    1    1    2    0    0 -0.81588368755E+02 -0.57482899696E+02 -0.17461420517E+03  0.21660628402E+03  0.80419002446E+02 0. -1.
<mgrwt>
<rscale>  0 0.12817239E+03</rscale>
<asrwt>0</asrwt>
<pdfrwt beam="1">  1        1 0.47436497E-02 0.12817239E+03</pdfrwt>
<pdfrwt beam="2">  1       -1 0.94321647E-01 0.12817239E+03</pdfrwt>
<totfact> 0.19902141E+03</totfact>
</mgrwt>
</event>
<event>
 4    1  0.1123525E-001  0.8756009E+02  0.7546771E-02  0.1308870E+00
          4   -1    0    0  501    0  0.00000000000E+00  0.00000000000E+00  0.27421357211E+02  0.27421357211E+02  0.00000000000E+00 0. -1.
         -4   -1    0    0    0  501 -0.00000000000E+00 -0.00000000000E+00 -0.28246439863E+03  0.28246439863E+03  0.00000000000E+00 0.  1.
         24    1    1    2    0    0 -0.33164981137E+02 -0.99816425819E+01 -0.14314891271E+03  0.16780457779E+03  0.80419002446E+02 0.  1.
        -24    1    1    2    0    0  0.33164981137E+02  0.99816425819E+01 -0.11189412871E+03  0.14208117805E+03  0.80419002446E+02 0. -1.
<mgrwt>
<rscale>  0 0.87560077E+02</rscale>
<asrwt>0</asrwt>
<pdfrwt beam="1">  1        4 0.42186703E-02 0.87560088E+02</pdfrwt>
<pdfrwt beam="2">  1       -4 0.43456062E-01 0.87560088E+02</pdfrwt>
<totfact> 0.23820739E+03</totfact>
</mgrwt>
</event>
<event>
 4    1  0.1123525E-001  0.8500837E+02  0.7546771E-02  0.1315411E+00
          3   -1    0    0  501    0  0.00000000000E+00  0.00000000000E+00  0.22597027691E+03  0.22597027691E+03  0.00000000000E+00 0. -1.
         -3   -1    0    0    0  501 -0.00000000000E+00 -0.00000000000E+00 -0.42685170023E+02  0.42685170023E+02  0.00000000000E+00 0.  1.
         24    1    1    2    0    0  0.18348269094E+02  0.20555985305E+02  0.24370691921E+02  0.88432765928E+02  0.80419002446E+02 0.  1.
        -24    1    1    2    0    0 -0.18348269094E+02 -0.20555985305E+02  0.15891441497E+03  0.18022268101E+03  0.80419002446E+02 0. -1.
<mgrwt>
<rscale>  0 0.85008373E+02</rscale>
<asrwt>0</asrwt>
<pdfrwt beam="1">  1        3 0.34764657E-01 0.85008373E+02</pdfrwt>
<pdfrwt beam="2">  1       -3 0.65669494E-02 0.85008373E+02</pdfrwt>
<totfact> 0.24970645E+03</totfact>
</mgrwt>
</event>
<event>
 4    1  0.1123525E-001  0.1267470E+03  0.7546771E-02  0.1232364E+00
          2   -1    0    0  501    0  0.00000000000E+00  0.00000000000E+00  0.97562147707E+03  0.97562147707E+03  0.00000000000E+00 0. -1.
         -2   -1    0    0    0  501 -0.00000000000E+00 -0.00000000000E+00 -0.17076885914E+02  0.17076885914E+02  0.00000000000E+00 0.  1.
         24    1    1    2    0    0  0.83482783710E+02  0.51266160696E+02  0.57313223309E+03  0.58697986931E+03  0.80419002446E+02 0. -1.
        -24    1    1    2    0    0 -0.83482783710E+02 -0.51266160696E+02  0.38541235806E+03  0.40571849368E+03  0.80419002446E+02 0.  1.
<mgrwt>
<rscale>  0 0.12674703E+03</rscale>
<asrwt>0</asrwt>
<pdfrwt beam="1">  1        2 0.15009557E+00 0.12674703E+03</pdfrwt>
<pdfrwt beam="2">  1       -2 0.26272140E-02 0.12674703E+03</pdfrwt>
<totfact> 0.13401187E+04</totfact>
</mgrwt>
</event>
<event>
 4    1  0.1123525E-001  0.8205695E+02  0.7546771E-02  0.1323313E+00
          1   -1    0    0  501    0  0.00000000000E+00  0.00000000000E+00  0.33604833078E+03  0.33604833078E+03  0.00000000000E+00 0. -1.
         -1   -1    0    0    0  501 -0.00000000000E+00 -0.00000000000E+00 -0.21433609669E+02  0.21433609669E+02  0.00000000000E+00 0.  1.
         24    1    1    2    0    0  0.23741694103E+01  0.16139691028E+02  0.11167836862E+03  0.13858354982E+03  0.80419002446E+02 0.  1.
        -24    1    1    2    0    0 -0.23741694103E+01 -0.16139691028E+02  0.20293635249E+03  0.21889839064E+03  0.80419002446E+02 0. -1.
<mgrwt>
<rscale>  0 0.82056945E+02</rscale>
<asrwt>0</asrwt>
<pdfrwt beam="1">  1        1 0.51699739E-01 0.82056945E+02</pdfrwt>
<pdfrwt beam="2">  1       -1 0.32974787E-02 0.82056945E+02</pdfrwt>
<totfact> 0.22014310E+04</totfact>
</mgrwt>
</event>
<event>
 4    1  0.1123525E-001  0.8150331E+02  0.7546771E-02  0.1324839E+00
         -2   -1    0    0    0  501 -0.00000000000E+00  0.00000000000E+00  0.19221401933E+04  0.19221401933E+04  0.00000000000E+00 0.  1.
          2   -1    0    0  501    0  0.00000000000E+00 -0.00000000000E+00 -0.54887727632E+01  0.54887727632E+01  0.00000000000E+00 0. -1.
         24    1    1    2    0    0  0.55523731325E+01  0.12031011807E+02  0.37177270141E+03  0.38060180183E+03  0.80419002446E+02 0. -1.
        -24    1    1    2    0    0 -0.55523731325E+01 -0.12031011807E+02  0.15448787191E+04  0.15470271642E+04  0.80419002446E+02 0.  1.
<mgrwt>
<rscale>  0 0.81503313E+02</rscale>
<asrwt>0</asrwt>
<pdfrwt beam="1">  1        2 0.84442811E-03 0.81503313E+02</pdfrwt>
<pdfrwt beam="2">  1       -2 0.29571334E+00 0.81503313E+02</pdfrwt>
<totfact> 0.67864342E+02</totfact>
</mgrwt>
</event>
<event>
 4    1  0.1123525E-001  0.1251804E+03  0.7546771E-02  0.1234788E+00
          1   -1    0    0  501    0  0.00000000000E+00  0.00000000000E+00  0.16951292640E+03  0.16951292640E+03  0.00000000000E+00 0. -1.
         -1   -1    0    0    0  501 -0.00000000000E+00 -0.00000000000E+00 -0.34310167641E+03  0.34310167641E+03  0.00000000000E+00 0.  1.
         24    1    1    2    0    0 -0.22176621828E+02 -0.93333367893E+02 -0.30586880092E+03  0.33049335765E+03  0.80419002446E+02 0.  1.
        -24    1    1    2    0    0  0.22176621828E+02  0.93333367893E+02  0.13228005091E+03  0.18212124516E+03  0.80419002446E+02 0. -1.
<mgrwt>
<rscale>  0 0.12518041E+03</rscale>
<asrwt>0</asrwt>
<pdfrwt beam="1">  1        1 0.26078912E-01 0.12518041E+03</pdfrwt>
<pdfrwt beam="2">  1       -1 0.52784872E-01 0.12518041E+03</pdfrwt>
<totfact> 0.67082694E+02</totfact>
</mgrwt>
</event>
<event>
 4    1  0.1123525E-001  0.1260148E+03  0.7546771E-02  0.1233492E+00
          2   -1    0    0  501    0  0.00000000000E+00  0.00000000000E+00  0.69423315356E+03  0.69423315356E+03  0.00000000000E+00 0. -1.
         -2   -1    0    0    0  501 -0.00000000000E+00 -0.00000000000E+00 -0.29492765451E+02  0.29492765451E+02  0.00000000000E+00 0.  1.
         24    1    1    2    0    0  0.80064993573E+02  0.54791631452E+02  0.50379822259E+03  0.51931916113E+03  0.80419002446E+02 0.  1.
        -24    1    1    2    0    0 -0.80064993573E+02 -0.54791631452E+02  0.16094216552E+03  0.20440675788E+03  0.80419002446E+02 0. -1.
<mgrwt>
<rscale>  0 0.12601485E+03</rscale>
<asrwt>0</asrwt>
<pdfrwt beam="1">  1        2 0.10680509E+00 0.12601485E+03</pdfrwt>
<pdfrwt beam="2">  1       -2 0.45373490E-02 0.12601485E+03</pdfrwt>
<totfact> 0.91804672E+03</totfact>
</mgrwt>
</event>
<event>
 4    1  0.1123525E-001  0.9177748E+02  0.7546771E-02  0.1298603E+00
          1   -1    0    0  501    0  0.00000000000E+00  0.00000000000E+00  0.16402401634E+04  0.16402401634E+04  0.00000000000E+00 0. -1.
         -1   -1    0    0    0  501 -0.00000000000E+00 -0.00000000000E+00 -0.83713282276E+01  0.83713282276E+01  0.00000000000E+00 0.  1.
         24    1    1    2    0    0 -0.35821244882E+02 -0.25936995113E+02  0.30342941008E+03  0.31700553963E+03  0.80419002446E+02 0.  1.
        -24    1    1    2    0    0  0.35821244882E+02  0.25936995113E+02  0.13284394251E+04  0.13316059520E+04  0.80419002446E+02 0. -1.
<mgrwt>
<rscale>  0 0.91777477E+02</rscale>
<asrwt>0</asrwt>
<pdfrwt beam="1">  1        1 0.25234438E+00 0.91777477E+02</pdfrwt>
<pdfrwt beam="2">  1       -1 0.12878980E-02 0.91777477E+02</pdfrwt>
<totfact> 0.72592105E+03</totfact>
</mgrwt>
</event>
<event>
 4    1  0.1123525E-001  0.9968113E+02  0.7546771E-02  0.1280968E+00
         -2   -1    0    0    0  501 -0.00000000000E+00  0.00000000000E+00  0.65498992623E+02  0.65498992623E+02  0.00000000000E+00 0.  1.
          2   -1    0    0  501    0  0.00000000000E+00 -0.00000000000E+00 -0.19811544623E+03  0.19811544623E+03  0.00000000000E+00 0. -1.
         24    1    1    2    0    0 -0.32193163757E+02 -0.49322522258E+02 -0.13010548667E+03  0.16390169191E+03  0.80419002446E+02 0. -1.
        -24    1    1    2    0    0  0.32193163757E+02  0.49322522258E+02 -0.25109669411E+01  0.99712746948E+02  0.80419002446E+02 0.  1.
<mgrwt>
<rscale>  0 0.99681126E+02</rscale>
<asrwt>0</asrwt>
<pdfrwt beam="1">  1        2 0.30479299E-01 0.99681126E+02</pdfrwt>
<pdfrwt beam="2">  1       -2 0.10076768E-01 0.99681126E+02</pdfrwt>
<totfact> 0.10367620E+04</totfact>
</mgrwt>
</event>
<event>
 4    1  0.1123525E-001  0.1062426E+03  0.7546771E-02  0.1267691E+00
          2   -1    0    0  501    0  0.00000000000E+00  0.00000000000E+00  0.25042088403E+02  0.25042088403E+02  0.00000000000E+00 0. -1.
         -2   -1    0    0    0  501 -0.00000000000E+00 -0.00000000000E+00 -0.62639981900E+03  0.62639981900E+03  0.00000000000E+00 0.  1.
         24    1    1    2    0    0  0.64897142042E+02  0.24670531274E+02 -0.12819234763E+03  0.16649554980E+03  0.80419002446E+02 0. -1.
        -24    1    1    2    0    0 -0.64897142042E+02 -0.24670531274E+02 -0.47316538297E+03  0.48494635760E+03  0.80419002446E+02 0.  1.
<mgrwt>
<rscale>  0 0.10624260E+03</rscale>
<asrwt>0</asrwt>
<pdfrwt beam="1">  1        2 0.38526294E-02 0.10624260E+03</pdfrwt>
<pdfrwt beam="2">  1       -2 0.96369192E-01 0.10624260E+03</pdfrwt>
<totfact> 0.19666346E+03</totfact>
</mgrwt>
</event>
<event>
 4    1  0.1123525E-001  0.1105947E+03  0.7546771E-02  0.1259473E+00
         -1   -1    0    0    0  501 -0.00000000000E+00  0.00000000000E+00  0.23547805102E+02  0.23547805102E+02  0.00000000000E+00 0.  1.
          1   -1    0    0  501    0  0.00000000000E+00 -0.00000000000E+00 -0.68228520150E+03  0.68228520150E+03  0.00000000000E+00 0. -1.
         24    1    1    2    0    0  0.66370780685E+02  0.36863010250E+02 -0.15694202863E+03  0.19199473524E+03  0.80419002446E+02 0. -1.
        -24    1    1    2    0    0 -0.66370780685E+02 -0.36863010250E+02 -0.50179536777E+03  0.51383827137E+03  0.80419002446E+02 0.  1.
<mgrwt>
<rscale>  0 0.11059466E+03</rscale>
<asrwt>0</asrwt>
<pdfrwt beam="1">  1        1 0.10496695E+00 0.11059466E+03</pdfrwt>
<pdfrwt beam="2">  1       -1 0.36227393E-02 0.11059466E+03</pdfrwt>
<totfact> 0.79183716E+03</totfact>
</mgrwt>
</event>
<event>
 4    1  0.1123525E-001  0.1369579E+03  0.7546771E-02  0.1217482E+00
         -2   -1    0    0    0  501 -0.00000000000E+00  0.00000000000E+00  0.13097627022E+02  0.13097627022E+02  0.00000000000E+00 0.  1.
          2   -1    0    0  501    0  0.00000000000E+00 -0.00000000000E+00 -0.33477047936E+04  0.33477047936E+04  0.00000000000E+00 0. -1.
         24    1    1    2    0    0 -0.10509730250E+03  0.35281830249E+02 -0.29384316119E+04  0.29416216284E+04  0.80419002446E+02 0. -1.
        -24    1    1    2    0    0  0.10509730250E+03 -0.35281830249E+02 -0.39617555464E+03  0.41918079224E+03  0.80419002446E+02 0.  1.
<mgrwt>
<rscale>  0 0.13695790E+03</rscale>
<asrwt>0</asrwt>
<pdfrwt beam="1">  1        2 0.51503171E+00 0.13695790E+03</pdfrwt>
<pdfrwt beam="2">  1       -2 0.20150188E-02 0.13695790E+03</pdfrwt>
<totfact> 0.10102460E+03</totfact>
</mgrwt>
</event>
<event>
 4    1  0.1123525E-001  0.8812100E+02  0.7546771E-02  0.1307467E+00
         -1   -1    0    0    0  501 -0.00000000000E+00  0.00000000000E+00  0.37131511687E+03  0.37131511687E+03  0.00000000000E+00 0.  1.
          1   -1    0    0  501    0  0.00000000000E+00 -0.00000000000E+00 -0.23048325212E+02  0.23048325212E+02  0.00000000000E+00 0. -1.
         24    1    1    2    0    0 -0.37229987824E+01 -0.35836213471E+02  0.23415112703E+03  0.25018405457E+03  0.80419002446E+02 0.  1.
        -24    1    1    2    0    0  0.37229987824E+01  0.35836213471E+02  0.11411566462E+03  0.14417938751E+03  0.80419002446E+02 0. -1.
<mgrwt>
<rscale>  0 0.88121001E+02</rscale>
<asrwt>0</asrwt>
<pdfrwt beam="1">  1        1 0.35458965E-02 0.88121001E+02</pdfrwt>
<pdfrwt beam="2">  1       -1 0.57125398E-01 0.88121001E+02</pdfrwt>
<totfact> 0.78266603E+03</totfact>
</mgrwt>
</event>
<event>
 4    1  0.1123525E-001  0.1320039E+03  0.7546771E-02  0.1224512E+00
          1   -1    0    0  501    0  0.00000000000E+00  0.00000000000E+00  0.77282550529E+03  0.77282550529E+03  0.00000000000E+00 0. -1.
         -1   -1    0    0    0  501 -0.00000000000E+00 -0.00000000000E+00 -0.48395641298E+02  0.48395641298E+02  0.00000000000E+00 0.  1.
         24    1    1    2    0    0  0.17007498753E+02  0.10328871124E+03  0.62129835541E+02  0.14589429496E+03  0.80419002446E+02 0.  1.
        -24    1    1    2    0    0 -0.17007498753E+02 -0.10328871124E+03  0.66230002845E+03  0.67532685162E+03  0.80419002446E+02 0. -1.
<mgrwt>
<rscale>  0 0.13200390E+03</rscale>
<asrwt>0</asrwt>
<pdfrwt beam="1">  1        1 0.11889622E+00 0.13200390E+03</pdfrwt>
<pdfrwt beam="2">  1       -1 0.74454839E-02 0.13200390E+03</pdfrwt>
<totfact> 0.23000732E+03</totfact>
</mgrwt>
</event>
<event>
 4    1  0.1123525E-001  0.8248133E+02  0.7546771E-02  0.1322154E+00
         -2   -1    0    0    0  501 -0.00000000000E+00  0.00000000000E+00  0.10612613877E+02  0.10612613877E+02  0.00000000000E+00 0.  1.
          2   -1    0    0  501    0  0.00000000000E+00 -0.00000000000E+00 -0.70136140763E+03  0.70136140763E+03  0.00000000000E+00 0. -1.
         24    1    1    2    0    0 -0.69323468672E+01 -0.16967404433E+02 -0.24097935126E+03  0.25470416945E+03  0.80419002446E+02 0.  1.
        -24    1    1    2    0    0  0.69323468672E+01  0.16967404433E+02 -0.44976944249E+03  0.45726985206E+03  0.80419002446E+02 0.  0.
<mgrwt>
<rscale>  0 0.82481318E+02</rscale>
<asrwt>0</asrwt>
<pdfrwt beam="1">  1        2 0.10790176E+00 0.82481329E+02</pdfrwt>
<pdfrwt beam="2">  1       -2 0.16327097E-02 0.82481329E+02</pdfrwt>
<totfact> 0.38670630E+04</totfact>
</mgrwt>
</event>
<event>
 4    1  0.1123525E-001  0.8489147E+02  0.7546771E-02  0.1315717E+00
         -1   -1    0    0    0  501 -0.00000000000E+00  0.00000000000E+00  0.16774478168E+02  0.16774478168E+02  0.00000000000E+00 0.  1.
          1   -1    0    0  501    0  0.00000000000E+00 -0.00000000000E+00 -0.65425450472E+03  0.65425450472E+03  0.00000000000E+00 0. -1.
         24    1    1    2    0    0  0.16812279738E+02 -0.21370359702E+02 -0.12214098778E+03  0.14874468688E+03  0.80419002446E+02 0.  1.
        -24    1    1    2    0    0 -0.16812279738E+02  0.21370359702E+02 -0.51533903877E+03  0.52228429601E+03  0.80419002446E+02 0. -1.
<mgrwt>
<rscale>  0 0.84891466E+02</rscale>
<asrwt>0</asrwt>
<pdfrwt beam="1">  1        1 0.10065452E+00 0.84891466E+02</pdfrwt>
<pdfrwt beam="2">  1       -1 0.25806894E-02 0.84891466E+02</pdfrwt>
<totfact> 0.13423433E+04</totfact>
</mgrwt>
</event>
<event>
 4    1  0.1123525E-001  0.9424632E+02  0.7546771E-02  0.1292883E+00
          1   -1    0    0  501    0  0.00000000000E+00  0.00000000000E+00  0.12757825626E+04  0.12757825626E+04  0.00000000000E+00 0. -1.
         -1   -1    0    0    0  501 -0.00000000000E+00 -0.00000000000E+00 -0.13150372612E+02  0.13150372612E+02  0.00000000000E+00 0.  1.
         24    1    1    2    0    0 -0.33987381611E+02 -0.35496622285E+02  0.18922746511E+03  0.21139867977E+03  0.80419002446E+02 0.  1.
        -24    1    1    2    0    0  0.33987381611E+02  0.35496622285E+02  0.10734047248E+04  0.10775342554E+04  0.80419002446E+02 0.  1.
<mgrwt>
<rscale>  0 0.94246317E+02</rscale>
<asrwt>0</asrwt>
<pdfrwt beam="1">  1        1 0.19627414E+00 0.94246317E+02</pdfrwt>
<pdfrwt beam="2">  1       -1 0.20231353E-02 0.94246317E+02</pdfrwt>
<totfact> 0.65618152E+03</totfact>
</mgrwt>
</event>
<event>
 4    1  0.1123525E-001  0.1344579E+03  0.7546771E-02  0.1220987E+00
         -4   -1    0    0    0  501 -0.00000000000E+00  0.00000000000E+00  0.12559765805E+03  0.12559765805E+03  0.00000000000E+00 0.  1.
          4   -1    0    0  501    0  0.00000000000E+00 -0.00000000000E+00 -0.15111882849E+03  0.15111882849E+03  0.00000000000E+00 0. -1.
         24    1    1    2    0    0 -0.21103674600E+02  0.10567097832E+03 -0.42909648521E+02  0.14113884877E+03  0.80419002446E+02 0.  1.
        -24    1    1    2    0    0  0.21103674600E+02 -0.10567097832E+03  0.17388478077E+02  0.13557763777E+03  0.80419002446E+02 0. -1.
<mgrwt>
<rscale>  0 0.13445794E+03</rscale>
<asrwt>0</asrwt>
<pdfrwt beam="1">  1        4 0.23249050E-01 0.13445794E+03</pdfrwt>
<pdfrwt beam="2">  1       -4 0.19322717E-01 0.13445794E+03</pdfrwt>
<totfact> 0.67983999E+02</totfact>
</mgrwt>
</event>
<event>
 4    1  0.1123525E-001  0.1867197E+03  0.7546771E-02  0.1161454E+00
          1   -1    0    0  501    0  0.00000000000E+00  0.00000000000E+00  0.32092857670E+02  0.32092857670E+02  0.00000000000E+00 0. -1.
         -1   -1    0    0    0  501 -0.00000000000E+00 -0.00000000000E+00 -0.10865612043E+04  0.10865612043E+04  0.00000000000E+00 0.  1.
         24    1    1    2    0    0 -0.13553122020E+03 -0.10014143441E+03 -0.51952779998E+03  0.55206283106E+03  0.80419002446E+02 0. -1.
        -24    1    1    2    0    0  0.13553122020E+03  0.10014143441E+03 -0.53494054667E+03  0.56659123093E+03  0.80419002446E+02 0.  1.
<mgrwt>
<rscale>  0 0.18671969E+03</rscale>
<asrwt>0</asrwt>
<pdfrwt beam="1">  1        1 0.49373628E-02 0.18671971E+03</pdfrwt>
<pdfrwt beam="2">  1       -1 0.16716326E+00 0.18671971E+03</pdfrwt>
<totfact> 0.47704340E+02</totfact>
</mgrwt>
</event>
<event>
 4    1  0.1123525E-001  0.1225661E+03  0.7546771E-02  0.1238923E+00
         -2   -1    0    0    0  501 -0.00000000000E+00  0.00000000000E+00  0.90737040891E+01  0.90737040891E+01  0.00000000000E+00 0.  1.
          2   -1    0    0  501    0  0.00000000000E+00 -0.00000000000E+00 -0.17077056910E+04  0.17077056910E+04  0.00000000000E+00 0. -1.
         24    1    1    2    0    0 -0.11359150384E+02  0.91794368388E+02 -0.99925263580E+03  0.10067414179E+04  0.80419002446E+02 0. -1.
        -24    1    1    2    0    0  0.11359150384E+02 -0.91794368388E+02 -0.69937935107E+03  0.71003797717E+03  0.80419002446E+02 0.  0.
<mgrwt>
<rscale>  0 0.12256611E+03</rscale>
<asrwt>0</asrwt>
<pdfrwt beam="1">  1        2 0.26272352E+00 0.12256611E+03</pdfrwt>
<pdfrwt beam="2">  1       -2 0.13959568E-02 0.12256611E+03</pdfrwt>
<totfact> 0.13444479E+04</totfact>
</mgrwt>
</event>
<event>
 4    1  0.1123525E-001  0.8059993E+02  0.7546771E-02  0.1327357E+00
         -2   -1    0    0    0  501 -0.00000000000E+00  0.00000000000E+00  0.20317299652E+03  0.20317299652E+03  0.00000000000E+00 0.  1.
          2   -1    0    0  501    0  0.00000000000E+00 -0.00000000000E+00 -0.84265577703E+02  0.84265577703E+02  0.00000000000E+00 0. -1.
         24    1    1    2    0    0  0.30512690748E+01  0.44522042825E+01 -0.53761268305E+02  0.96884582314E+02  0.80419002446E+02 0.  0.
        -24    1    1    2    0    0 -0.30512690748E+01 -0.44522042825E+01  0.17266868713E+03  0.19055399191E+03  0.80419002446E+02 0.  1.
<mgrwt>
<rscale>  0 0.80599928E+02</rscale>
<asrwt>0</asrwt>
<pdfrwt beam="1">  1        2 0.12963935E-01 0.80599928E+02</pdfrwt>
<pdfrwt beam="2">  1       -2 0.31257384E-01 0.80599928E+02</pdfrwt>
<totfact> 0.40579895E+03</totfact>
</mgrwt>
</event>
<event>
 4    1  0.1123525E-001  0.8314477E+02  0.7546771E-02  0.1320357E+00
          1   -1    0    0  501    0  0.00000000000E+00  0.00000000000E+00  0.29945968230E+02  0.29945968230E+02  0.00000000000E+00 0. -1.
         -1   -1    0    0    0  501 -0.00000000000E+00 -0.00000000000E+00 -0.11429970627E+04  0.11429970627E+04  0.00000000000E+00 0.  1.
         24    1    1    2    0    0  0.20494070558E+02 -0.50823879071E+01 -0.10804354235E+04  0.10836298990E+04  0.80419002446E+02 0.  1.
        -24    1    1    2    0    0 -0.20494070558E+02  0.50823879071E+01 -0.32615670957E+02  0.89313131964E+02  0.80419002446E+02 0. -1.
<mgrwt>
<rscale>  0 0.83144775E+02</rscale>
<asrwt>0</asrwt>
<pdfrwt beam="1">  1        1 0.46070717E-02 0.83144775E+02</pdfrwt>
<pdfrwt beam="2">  1       -1 0.17584571E+00 0.83144775E+02</pdfrwt>
<totfact> 0.45096691E+02</totfact>
</mgrwt>
</event>
<event>
 4    1  0.1123525E-001  0.8463069E+02  0.7546771E-02  0.1316401E+00
          1   -1    0    0  501    0  0.00000000000E+00  0.00000000000E+00  0.15251803999E+03  0.15251803999E+03  0.00000000000E+00 0. -1.
         -1   -1    0    0    0  501 -0.00000000000E+00 -0.00000000000E+00 -0.87229520230E+02  0.87229520230E+02  0.00000000000E+00 0.  1.
         24    1    1    2    0    0 -0.23993568456E+02  0.10929116611E+02 -0.48803088309E+02  0.97693880566E+02  0.80419002446E+02 0.  0.
        -24    1    1    2    0    0  0.23993568456E+02 -0.10929116611E+02  0.11409160807E+03  0.14205367965E+03  0.80419002446E+02 0.  0.
<mgrwt>
<rscale>  0 0.84630685E+02</rscale>
<asrwt>0</asrwt>
<pdfrwt beam="1">  1        1 0.23464314E-01 0.84630685E+02</pdfrwt>
<pdfrwt beam="2">  1       -1 0.13419926E-01 0.84630685E+02</pdfrwt>
<totfact> 0.72696762E+03</totfact>
</mgrwt>
</event>
<event>
 4    1  0.1123525E-001  0.1089139E+03  0.7546771E-02  0.1262595E+00
         -2   -1    0    0    0  501 -0.00000000000E+00  0.00000000000E+00  0.78696267296E+01  0.78696267296E+01  0.00000000000E+00 0.  1.
          2   -1    0    0  501    0  0.00000000000E+00 -0.00000000000E+00 -0.15095164730E+04  0.15095164730E+04  0.00000000000E+00 0. -1.
         24    1    1    2    0    0  0.63252639842E+02 -0.37337874952E+02 -0.77961013132E+03  0.78718116477E+03  0.80419002446E+02 0. -1.
        -24    1    1    2    0    0 -0.63252639842E+02  0.37337874952E+02 -0.72203671496E+03  0.73020493497E+03  0.80419002446E+02 0.  1.
<mgrwt>
<rscale>  0 0.10891386E+03</rscale>
<asrwt>0</asrwt>
<pdfrwt beam="1">  1        2 0.23223338E+00 0.10891386E+03</pdfrwt>
<pdfrwt beam="2">  1       -2 0.12107114E-02 0.10891386E+03</pdfrwt>
<totfact> 0.20679169E+04</totfact>
</mgrwt>
</event>
<event>
 4    1  0.1123525E-001  0.1236065E+03  0.7546771E-02  0.1237263E+00
          2   -1    0    0  501    0  0.00000000000E+00  0.00000000000E+00  0.16419001280E+04  0.16419001280E+04  0.00000000000E+00 0. -1.
         -2   -1    0    0    0  501 -0.00000000000E+00 -0.00000000000E+00 -0.13752952568E+02  0.13752952568E+02  0.00000000000E+00 0.  1.
         24    1    1    2    0    0  0.92107639763E+02  0.18098223924E+02  0.12848348121E+04  0.12907668548E+04  0.80419002446E+02 0. -1.
        -24    1    1    2    0    0 -0.92107639763E+02 -0.18098223924E+02  0.34331236331E+03  0.36488622578E+03  0.80419002446E+02 0.  1.
<mgrwt>
<rscale>  0 0.12360655E+03</rscale>
<asrwt>0</asrwt>
<pdfrwt beam="1">  1        2 0.25259986E+00 0.12360655E+03</pdfrwt>
<pdfrwt beam="2">  1       -2 0.21158402E-02 0.12360655E+03</pdfrwt>
<totfact> 0.79745140E+03</totfact>
</mgrwt>
</event>
<event>
 4    1  0.1123525E-001  0.8433865E+02  0.7546771E-02  0.1317171E+00
          1   -1    0    0  501    0  0.00000000000E+00  0.00000000000E+00  0.50575645129E+03  0.50575645129E+03  0.00000000000E+00 0. -1.
         -1   -1    0    0    0  501 -0.00000000000E+00 -0.00000000000E+00 -0.17451805130E+02  0.17451805130E+02  0.00000000000E+00 0.  1.
         24    1    1    2    0    0  0.42470771856E+01 -0.25055035968E+02  0.12889266538E+03  0.15403352763E+03  0.80419002446E+02 0.  1.
        -24    1    1    2    0    0 -0.42470771856E+01  0.25055035968E+02  0.35941198078E+03  0.36917472879E+03  0.80419002446E+02 0. -1.
<mgrwt>
<rscale>  0 0.84338653E+02</rscale>
<asrwt>0</asrwt>
<pdfrwt beam="1">  1        1 0.77808674E-01 0.84338653E+02</pdfrwt>
<pdfrwt beam="2">  1       -1 0.26848935E-02 0.84338653E+02</pdfrwt>
<totfact> 0.17820365E+04</totfact>
</mgrwt>
</event>
<event>
 4    1  0.1123525E-001  0.1247685E+03  0.7546771E-02  0.1235432E+00
         -2   -1    0    0    0  501 -0.00000000000E+00  0.00000000000E+00  0.17211818171E+02  0.17211818171E+02  0.00000000000E+00 0.  1.
          2   -1    0    0  501    0  0.00000000000E+00 -0.00000000000E+00 -0.13005954039E+04  0.13005954039E+04  0.00000000000E+00 0. -1.
         24    1    1    2    0    0 -0.80737099815E+02  0.50808271590E+02 -0.10053386065E+04  0.10130512768E+04  0.80419002446E+02 0. -1.
        -24    1    1    2    0    0  0.80737099815E+02 -0.50808271590E+02 -0.27804497919E+03  0.30475594523E+03  0.80419002446E+02 0.  1.
<mgrwt>
<rscale>  0 0.12476849E+03</rscale>
<asrwt>0</asrwt>
<pdfrwt beam="1">  1        2 0.20009161E+00 0.12476849E+03</pdfrwt>
<pdfrwt beam="2">  1       -2 0.26479719E-02 0.12476849E+03</pdfrwt>
<totfact> 0.86732368E+03</totfact>
</mgrwt>
</event>
<event>
 4    1  0.1123525E-001  0.1051908E+03  0.7546771E-02  0.1269744E+00
          1   -1    0    0  501    0  0.00000000000E+00  0.00000000000E+00  0.17346101037E+04  0.17346101037E+04  0.00000000000E+00 0. -1.
         -1   -1    0    0    0  501 -0.00000000000E+00 -0.00000000000E+00 -0.64241093309E+01  0.64241093309E+01  0.00000000000E+00 0.  1.
         24    1    1    2    0    0  0.64662301113E+02  0.20412516517E+02  0.79115687840E+03  0.79811923057E+03  0.80419002446E+02 0. -1.
        -24    1    1    2    0    0 -0.64662301113E+02 -0.20412516517E+02  0.93702911593E+03  0.94291498242E+03  0.80419002446E+02 0.  1.
<mgrwt>
<rscale>  0 0.10519078E+03</rscale>
<asrwt>0</asrwt>
<pdfrwt beam="1">  1        1 0.26686272E+00 0.10519078E+03</pdfrwt>
<pdfrwt beam="2">  1       -1 0.98832590E-03 0.10519078E+03</pdfrwt>
<totfact> 0.92675984E+03</totfact>
</mgrwt>
</event>
<event>
 4    1  0.1123525E-001  0.9109121E+02  0.7546771E-02  0.1300230E+00
         -2   -1    0    0    0  501 -0.00000000000E+00  0.00000000000E+00  0.24155441020E+02  0.24155441020E+02  0.00000000000E+00 0.  1.
          2   -1    0    0  501    0  0.00000000000E+00 -0.00000000000E+00 -0.41773260031E+03  0.41773260031E+03  0.00000000000E+00 0. -1.
         24    1    1    2    0    0  0.32927882411E+02 -0.27315689263E+02 -0.28992176429E+03  0.30389510968E+03  0.80419002446E+02 0. -1.
        -24    1    1    2    0    0 -0.32927882411E+02  0.27315689263E+02 -0.10365539500E+03  0.13799293165E+03  0.80419002446E+02 0.  1.
<mgrwt>
<rscale>  0 0.91091209E+02</rscale>
<asrwt>0</asrwt>
<pdfrwt beam="1">  1        2 0.64266554E-01 0.91091209E+02</pdfrwt>
<pdfrwt beam="2">  1       -2 0.37162217E-02 0.91091209E+02</pdfrwt>
<totfact> 0.21069875E+04</totfact>
</mgrwt>
</event>
<event>
 4    1  0.1123525E-001  0.1037648E+03  0.7546771E-02  0.1272573E+00
         -2   -1    0    0    0  501 -0.00000000000E+00  0.00000000000E+00  0.18782921019E+03  0.18782921019E+03  0.00000000000E+00 0.  1.
          2   -1    0    0  501    0  0.00000000000E+00 -0.00000000000E+00 -0.11763724873E+03  0.11763724873E+03  0.00000000000E+00 0. -1.
         24    1    1    2    0    0 -0.40736088486E+02 -0.51385623869E+02 -0.74266249927E+02  0.12760330355E+03  0.80419002446E+02 0. -1.
        -24    1    1    2    0    0  0.40736088486E+02  0.51385623869E+02  0.14445821138E+03  0.17786315536E+03  0.80419002446E+02 0.  1.
<mgrwt>
<rscale>  0 0.10376477E+03</rscale>
<asrwt>0</asrwt>
<pdfrwt beam="1">  1        2 0.18098038E-01 0.10376477E+03</pdfrwt>
<pdfrwt beam="2">  1       -2 0.28896802E-01 0.10376477E+03</pdfrwt>
<totfact> 0.32329060E+03</totfact>
</mgrwt>
</event>
<event>
 4    1  0.1123525E-001  0.1074026E+03  0.7546771E-02  0.1265457E+00
          2   -1    0    0  501    0  0.00000000000E+00  0.00000000000E+00  0.29451150674E+03  0.29451150674E+03  0.00000000000E+00 0. -1.
         -2   -1    0    0    0  501 -0.00000000000E+00 -0.00000000000E+00 -0.40105300202E+02  0.40105300202E+02  0.00000000000E+00 0.  1.
         24    1    1    2    0    0  0.39775357112E+02  0.59042473134E+02  0.15278596278E+03  0.18675882588E+03  0.80419002446E+02 0.  1.
        -24    1    1    2    0    0 -0.39775357112E+02 -0.59042473134E+02  0.10162024375E+03  0.14785798105E+03  0.80419002446E+02 0.  0.
<mgrwt>
<rscale>  0 0.10740255E+03</rscale>
<asrwt>0</asrwt>
<pdfrwt beam="1">  1        2 0.45309461E-01 0.10740255E+03</pdfrwt>
<pdfrwt beam="2">  1       -2 0.61700464E-02 0.10740255E+03</pdfrwt>
<totfact> 0.14550730E+04</totfact>
</mgrwt>
</event>
<event>
 4    1  0.1123525E-001  0.8554813E+02  0.7546771E-02  0.1314005E+00
          2   -1    0    0  501    0  0.00000000000E+00  0.00000000000E+00  0.44252452201E+03  0.44252452201E+03  0.00000000000E+00 0. -1.
         -2   -1    0    0    0  501 -0.00000000000E+00 -0.00000000000E+00 -0.45999575788E+02  0.45999575788E+02  0.00000000000E+00 0.  1.
         24    1    1    2    0    0 -0.26396033588E+02  0.12430471846E+02  0.39374451105E+03  0.40293079202E+03  0.80419002446E+02 0. -1.
        -24    1    1    2    0    0  0.26396033588E+02 -0.12430471846E+02  0.27804351678E+01  0.85593305776E+02  0.80419002446E+02 0.  1.
<mgrwt>
<rscale>  0 0.85548134E+02</rscale>
<asrwt>0</asrwt>
<pdfrwt beam="1">  1        2 0.68080693E-01 0.85548134E+02</pdfrwt>
<pdfrwt beam="2">  1       -2 0.70768581E-02 0.85548134E+02</pdfrwt>
<totfact> 0.75614727E+03</totfact>
</mgrwt>
</event>
<event>
 4    1  0.1467523E-001  0.1323985E+03  0.7546771E-02  0.1223940E+00
          1   -1    0    0  501    0  0.00000000000E+00  0.00000000000E+00  0.64810673556E+03  0.64810673556E+03  0.00000000000E+00 0. -1.
         -1   -1    0    0    0  501 -0.00000000000E+00 -0.00000000000E+00 -0.15448707497E+03  0.15448707497E+03  0.00000000000E+00 0.  1.
         24    1    1    2    0    0  0.99714836236E+02 -0.33453102678E+02 -0.11766929579E+03  0.17713113157E+03  0.80419002446E+02 0.  1.
        -24    1    1    2    0    0 -0.99714836236E+02  0.33453102678E+02  0.61128895637E+03  0.62546267896E+03  0.80419002446E+02 0. -1.
<mgrwt>
<rscale>  0 0.13239854E+03</rscale>
<asrwt>0</asrwt>
<pdfrwt beam="1">  1        1 0.99708727E-01 0.13239854E+03</pdfrwt>
<pdfrwt beam="2">  1       -1 0.23767243E-01 0.13239854E+03</pdfrwt>
<totfact> 0.48567257E+02</totfact>
</mgrwt>
</event>
<event>
 4    1  0.1123525E-001  0.9109516E+02  0.7546771E-02  0.1300221E+00
         -2   -1    0    0    0  501 -0.00000000000E+00  0.00000000000E+00  0.12611495076E+03  0.12611495076E+03  0.00000000000E+00 0.  1.
          2   -1    0    0  501    0  0.00000000000E+00 -0.00000000000E+00 -0.82972354109E+02  0.82972354109E+02  0.00000000000E+00 0. -1.
         24    1    1    2    0    0 -0.42421962343E+02 -0.56116116342E+01 -0.25989524879E+02  0.94730060867E+02  0.80419002446E+02 0. -1.
        -24    1    1    2    0    0  0.42421962343E+02  0.56116116342E+01  0.69132121533E+02  0.11435724400E+03  0.80419002446E+02 0.  1.
<mgrwt>
<rscale>  0 0.91095165E+02</rscale>
<asrwt>0</asrwt>
<pdfrwt beam="1">  1        2 0.12764978E-01 0.91095165E+02</pdfrwt>
<pdfrwt beam="2">  1       -2 0.19402300E-01 0.91095165E+02</pdfrwt>
<totfact> 0.95115671E+03</totfact>
</mgrwt>
</event>
<event>
 4    1  0.1123525E-001  0.8426084E+02  0.7546771E-02  0.1317377E+00
          1   -1    0    0  501    0  0.00000000000E+00  0.00000000000E+00  0.19871273820E+02  0.19871273820E+02  0.00000000000E+00 0. -1.
         -1   -1    0    0    0  501 -0.00000000000E+00 -0.00000000000E+00 -0.36220981507E+03  0.36220981507E+03  0.00000000000E+00 0.  1.
         24    1    1    2    0    0  0.30160386039E+01  0.24971521673E+02 -0.19342479373E+03  0.21098113700E+03  0.80419002446E+02 0.  0.
        -24    1    1    2    0    0 -0.30160386039E+01 -0.24971521673E+02 -0.14891374751E+03  0.17109995189E+03  0.80419002446E+02 0.  1.
<mgrwt>
<rscale>  0 0.84260841E+02</rscale>
<asrwt>0</asrwt>
<pdfrwt beam="1">  1        1 0.30571193E-02 0.84260841E+02</pdfrwt>
<pdfrwt beam="2">  1       -1 0.55724583E-01 0.84260841E+02</pdfrwt>
<totfact> 0.99866193E+03</totfact>
</mgrwt>
</event>
<event>
 4    1  0.1123525E-001  0.8082217E+02  0.7546771E-02  0.1326734E+00
          1   -1    0    0  501    0  0.00000000000E+00  0.00000000000E+00  0.40151663110E+03  0.40151663110E+03  0.00000000000E+00 0. -1.
         -1   -1    0    0    0  501 -0.00000000000E+00 -0.00000000000E+00 -0.17621613003E+02  0.17621613003E+02  0.00000000000E+00 0.  1.
         24    1    1    2    0    0  0.77603283121E+01 -0.21873831418E+01  0.13388289489E+03  0.15638686914E+03  0.80419002446E+02 0.  0.
        -24    1    1    2    0    0 -0.77603283121E+01  0.21873831418E+01  0.25001212321E+03  0.26275137497E+03  0.80419002446E+02 0.  0.
<mgrwt>
<rscale>  0 0.80822171E+02</rscale>
<asrwt>0</asrwt>
<pdfrwt beam="1">  1        1 0.61771783E-01 0.80822171E+02</pdfrwt>
<pdfrwt beam="2">  1       -1 0.27110177E-02 0.80822171E+02</pdfrwt>
<totfact> 0.23391178E+04</totfact>
</mgrwt>
</event>
<event>
 4    1  0.1123525E-001  0.8080360E+02  0.7546771E-02  0.1326786E+00
          1   -1    0    0  501    0  0.00000000000E+00  0.00000000000E+00  0.23000859592E+02  0.23000859592E+02  0.00000000000E+00 0. -1.
         -1   -1    0    0    0  501 -0.00000000000E+00 -0.00000000000E+00 -0.10914859400E+04  0.10914859400E+04  0.00000000000E+00 0.  1.
         24    1    1    2    0    0  0.20957778127E+00  0.78716314386E+01 -0.10135770202E+04  0.10167928001E+04  0.80419002446E+02 0.  1.
        -24    1    1    2    0    0 -0.20957778127E+00 -0.78716314386E+01 -0.54908060184E+02  0.97693999467E+02  0.80419002446E+02 0.  0.
<mgrwt>
<rscale>  0 0.80803604E+02</rscale>
<asrwt>0</asrwt>
<pdfrwt beam="1">  1        1 0.35385939E-02 0.80803604E+02</pdfrwt>
<pdfrwt beam="2">  1       -1 0.16792091E+00 0.80803604E+02</pdfrwt>
<totfact> 0.73093904E+02</totfact>
</mgrwt>
</event>
<event>
 4    1  0.1123525E-001  0.1524906E+03  0.7546771E-02  0.1197446E+00
         -2   -1    0    0    0  501 -0.00000000000E+00  0.00000000000E+00  0.23763867857E+03  0.23763867857E+03  0.00000000000E+00 0.  1.
          2   -1    0    0  501    0  0.00000000000E+00 -0.00000000000E+00 -0.98426674831E+02  0.98426674831E+02  0.00000000000E+00 0. -1.
         24    1    1    2    0    0  0.11577638242E+03 -0.58154961930E+02  0.56764908547E+02  0.16271337106E+03  0.80419002446E+02 0. -1.
        -24    1    1    2    0    0 -0.11577638242E+03  0.58154961930E+02  0.82447095195E+02  0.17335198235E+03  0.80419002446E+02 0.  0.
<mgrwt>
<rscale>  0 0.15249061E+03</rscale>
<asrwt>0</asrwt>
<pdfrwt beam="1">  1        2 0.15142565E-01 0.15249061E+03</pdfrwt>
<pdfrwt beam="2">  1       -2 0.36559797E-01 0.15249061E+03</pdfrwt>
<totfact> 0.26449040E+03</totfact>
</mgrwt>
</event>
<event>
 4    1  0.1123525E-001  0.8187651E+02  0.7546771E-02  0.1323809E+00
          1   -1    0    0  501    0  0.00000000000E+00  0.00000000000E+00  0.36429103430E+03  0.36429103430E+03  0.00000000000E+00 0. -1.
         -1   -1    0    0    0  501 -0.00000000000E+00 -0.00000000000E+00 -0.25919104986E+02  0.25919104986E+02  0.00000000000E+00 0.  1.
         24    1    1    2    0    0 -0.54019419674E+00  0.15370496694E+02  0.27425574149E+03  0.28621665163E+03  0.80419002446E+02 0. -1.
        -24    1    1    2    0    0  0.54019419674E+00 -0.15370496694E+02  0.64116187824E+02  0.10399348765E+03  0.80419002446E+02 0.  0.
<mgrwt>
<rscale>  0 0.81876502E+02</rscale>
<asrwt>0</asrwt>
<pdfrwt beam="1">  1        1 0.56044771E-01 0.81876512E+02</pdfrwt>
<pdfrwt beam="2">  1       -1 0.39875549E-02 0.81876512E+02</pdfrwt>
<totfact> 0.15153439E+04</totfact>
</mgrwt>
</event>
<event>
 4    1  0.1123525E-001  0.2117572E+03  0.7546771E-02  0.1140182E+00
         -1   -1    0    0    0  501 -0.00000000000E+00  0.00000000000E+00  0.33622776117E+03  0.33622776117E+03  0.00000000000E+00 0.  1.
          1   -1    0    0  501    0  0.00000000000E+00 -0.00000000000E+00 -0.14190337883E+03  0.14190337883E+03  0.00000000000E+00 0. -1.
         24    1    1    2    0    0  0.15932724687E+03 -0.11396810265E+03  0.15580310993E+03  0.26289869728E+03  0.80419002446E+02 0.  1.
        -24    1    1    2    0    0 -0.15932724687E+03  0.11396810265E+03  0.38521272408E+02  0.21523244272E+03  0.80419002446E+02 0. -1.
<mgrwt>
<rscale>  0 0.21175721E+03</rscale>
<asrwt>0</asrwt>
<pdfrwt beam="1">  1        1 0.21831289E-01 0.21175721E+03</pdfrwt>
<pdfrwt beam="2">  1       -1 0.51727348E-01 0.21175721E+03</pdfrwt>
<totfact> 0.87728241E+02</totfact>
</mgrwt>
</event>
<event>
 4    1  0.1123525E-001  0.8624710E+02  0.7546771E-02  0.1312203E+00
          2   -1    0    0  501    0  0.00000000000E+00  0.00000000000E+00  0.20110428503E+03  0.20110428503E+03  0.00000000000E+00 0. -1.
         -2   -1    0    0    0  501 -0.00000000000E+00 -0.00000000000E+00 -0.41697647548E+02  0.41697647548E+02  0.00000000000E+00 0.  1.
         24    1    1    2    0    0 -0.15181652118E+02 -0.27218809105E+02  0.12050084140E+03  0.14818574447E+03  0.80419002446E+02 0. -1.
        -24    1    1    2    0    0  0.15181652118E+02  0.27218809105E+02  0.38905796083E+02  0.94616188115E+02  0.80419002446E+02 0.  1.
<mgrwt>
<rscale>  0 0.86247099E+02</rscale>
<asrwt>0</asrwt>
<pdfrwt beam="1">  1        2 0.30939120E-01 0.86247099E+02</pdfrwt>
<pdfrwt beam="2">  1       -2 0.64150228E-02 0.86247099E+02</pdfrwt>
<totfact> 0.20077055E+04</totfact>
</mgrwt>
</event>
<event>
 4    1  0.1123525E-001  0.9394302E+02  0.7546771E-02  0.1293575E+00
         -2   -1    0    0    0  501 -0.00000000000E+00  0.00000000000E+00  0.21489337600E+02  0.21489337600E+02  0.00000000000E+00 0.  1.
          2   -1    0    0  501    0  0.00000000000E+00 -0.00000000000E+00 -0.16313979398E+04  0.16313979398E+04  0.00000000000E+00 0. -1.
         24    1    1    2    0    0  0.14718968519E+02  0.46275553295E+02 -0.15198464686E+04  0.15227470502E+04  0.80419002446E+02 0.  1.
        -24    1    1    2    0    0 -0.14718968519E+02 -0.46275553295E+02 -0.90062133577E+02  0.13014022716E+03  0.80419002446E+02 0. -1.
<mgrwt>
<rscale>  0 0.93943019E+02</rscale>
<asrwt>0</asrwt>
<pdfrwt beam="1">  1        2 0.25098436E+00 0.93943019E+02</pdfrwt>
<pdfrwt beam="2">  1       -2 0.33060511E-02 0.93943019E+02</pdfrwt>
<totfact> 0.41829125E+03</totfact>
</mgrwt>
</event>
<event>
 4    1  0.1123525E-001  0.9221258E+02  0.7546771E-02  0.1297580E+00
         -2   -1    0    0    0  501 -0.00000000000E+00  0.00000000000E+00  0.51557956818E+01  0.51557956818E+01  0.00000000000E+00 0.  1.
          2   -1    0    0  501    0  0.00000000000E+00 -0.00000000000E+00 -0.25461908819E+04  0.25461908819E+04  0.00000000000E+00 0. -1.
         24    1    1    2    0    0 -0.36299555888E+02  0.26800870150E+02 -0.20276599730E+04  0.20297556815E+04  0.80419002446E+02 0.  0.
        -24    1    1    2    0    0  0.36299555888E+02 -0.26800870150E+02 -0.51337511320E+03  0.52159099609E+03  0.80419002446E+02 0.  0.
<mgrwt>
<rscale>  0 0.92212582E+02</rscale>
<asrwt>0</asrwt>
<pdfrwt beam="1">  1        2 0.39172140E+00 0.92212582E+02</pdfrwt>
<pdfrwt beam="2">  1       -2 0.79319989E-03 0.92212582E+02</pdfrwt>
<totfact> 0.11041480E+04</totfact>
</mgrwt>
</event>
<event>
 4    1  0.1123525E-001  0.8390353E+02  0.7546771E-02  0.1318325E+00
          1   -1    0    0  501    0  0.00000000000E+00  0.00000000000E+00  0.24508143677E+04  0.24508143677E+04  0.00000000000E+00 0. -1.
         -1   -1    0    0    0  501 -0.00000000000E+00 -0.00000000000E+00 -0.47023071797E+01  0.47023071797E+01  0.00000000000E+00 0.  1.
         24    1    1    2    0    0  0.54440567470E+01  0.23301259523E+02  0.45716339161E+03  0.46479906307E+03  0.80419002446E+02 0.  1.
        -24    1    1    2    0    0 -0.54440567470E+01 -0.23301259523E+02  0.19889486689E+04  0.19907176118E+04  0.80419002446E+02 0.  0.
<mgrwt>
<rscale>  0 0.83903530E+02</rscale>
<asrwt>0</asrwt>
<pdfrwt beam="1">  1        1 0.37704734E+00 0.83903530E+02</pdfrwt>
<pdfrwt beam="2">  1       -1 0.72343383E-03 0.83903530E+02</pdfrwt>
<totfact> 0.50361417E+03</totfact>
</mgrwt>
</event>
<event>
 4    1  0.1123525E-001  0.1117744E+03  0.7546771E-02  0.1257319E+00
         -2   -1    0    0    0  501 -0.00000000000E+00  0.00000000000E+00  0.42501570942E+02  0.42501570942E+02  0.00000000000E+00 0.  1.
          2   -1    0    0  501    0  0.00000000000E+00 -0.00000000000E+00 -0.34443631415E+03  0.34443631415E+03  0.00000000000E+00 0. -1.
         24    1    1    2    0    0  0.15179430132E+02 -0.76130653093E+02 -0.22503464496E+03  0.25126499721E+03  0.80419002446E+02 0. -1.
        -24    1    1    2    0    0 -0.15179430132E+02  0.76130653093E+02 -0.76900098250E+02  0.13567288788E+03  0.80419002446E+02 0.  1.
<mgrwt>
<rscale>  0 0.11177436E+03</rscale>
<asrwt>0</asrwt>
<pdfrwt beam="1">  1        2 0.52990202E-01 0.11177436E+03</pdfrwt>
<pdfrwt beam="2">  1       -2 0.65387033E-02 0.11177436E+03</pdfrwt>
<totfact> 0.11342053E+04</totfact>
</mgrwt>
</event>
<event>
 4    1  0.1123525E-001  0.9784334E+02  0.7546771E-02  0.1284898E+00
         -1   -1    0    0    0  501 -0.00000000000E+00  0.00000000000E+00  0.24065025310E+02  0.24065025310E+02  0.00000000000E+00 0.  1.
          1   -1    0    0  501    0  0.00000000000E+00 -0.00000000000E+00 -0.71269241225E+03  0.71269241225E+03  0.00000000000E+00 0. -1.
         24    1    1    2    0    0 -0.16513991787E+02  0.53229609567E+02 -0.99453979386E+02  0.13951492117E+03  0.80419002446E+02 0.  1.
        -24    1    1    2    0    0  0.16513991787E+02 -0.53229609567E+02 -0.58917340756E+03  0.59724251639E+03  0.80419002446E+02 0. -1.
<mgrwt>
<rscale>  0 0.97843340E+02</rscale>
<asrwt>0</asrwt>
<pdfrwt beam="1">  1        1 0.10964497E+00 0.97843340E+02</pdfrwt>
<pdfrwt beam="2">  1       -1 0.37023123E-02 0.97843340E+02</pdfrwt>
<totfact> 0.71570797E+03</totfact>
</mgrwt>
</event>
<event>
 4    1  0.1123525E-001  0.8535579E+02  0.7546771E-02  0.1314505E+00
          1   -1    0    0  501    0  0.00000000000E+00  0.00000000000E+00  0.85574515205E+03  0.85574515205E+03  0.00000000000E+00 0. -1.
         -1   -1    0    0    0  501 -0.00000000000E+00 -0.00000000000E+00 -0.12644168547E+02  0.12644168547E+02  0.00000000000E+00 0.  1.
         24    1    1    2    0    0  0.55569397135E+01 -0.28062692670E+02  0.17338821842E+03  0.19325911243E+03  0.80419002446E+02 0.  0.
        -24    1    1    2    0    0 -0.55569397135E+01  0.28062692670E+02  0.66971276509E+03  0.67513020816E+03  0.80419002446E+02 0.  1.
<mgrwt>
<rscale>  0 0.85355786E+02</rscale>
<asrwt>0</asrwt>
<pdfrwt beam="1">  1        1 0.13165305E+00 0.85355786E+02</pdfrwt>
<pdfrwt beam="2">  1       -1 0.19452574E-02 0.85355786E+02</pdfrwt>
<totfact> 0.13654967E+04</totfact>
</mgrwt>
</event>
<event>
 4    1  0.1123525E-001  0.8969060E+02  0.7546771E-02  0.1303603E+00
          1   -1    0    0  501    0  0.00000000000E+00  0.00000000000E+00  0.50921267263E+03  0.50921267263E+03  0.00000000000E+00 0. -1.
         -1   -1    0    0    0  501 -0.00000000000E+00 -0.00000000000E+00 -0.37126767209E+02  0.37126767209E+02  0.00000000000E+00 0.  1.
         24    1    1    2    0    0 -0.58242375749E+01 -0.39284423597E+02  0.28993241337E+02  0.94260339901E+02  0.80419002446E+02 0.  1.
        -24    1    1    2    0    0  0.58242375749E+01  0.39284423597E+02  0.44309266408E+03  0.45207909993E+03  0.80419002446E+02 0. -1.
<mgrwt>
<rscale>  0 0.89690599E+02</rscale>
<asrwt>0</asrwt>
<pdfrwt beam="1">  1        1 0.78340406E-01 0.89690599E+02</pdfrwt>
<pdfrwt beam="2">  1       -1 0.57118107E-02 0.89690599E+02</pdfrwt>
<totfact> 0.59417265E+03</totfact>
</mgrwt>
</event>
<event>
 4    1  0.1123525E-001  0.9506692E+02  0.7546771E-02  0.1291025E+00
         -2   -1    0    0    0  501 -0.00000000000E+00  0.00000000000E+00  0.10940033866E+03  0.10940033866E+03  0.00000000000E+00 0.  1.
          2   -1    0    0  501    0  0.00000000000E+00 -0.00000000000E+00 -0.51370029356E+03  0.51370029356E+03  0.00000000000E+00 0. -1.
         24    1    1    2    0    0  0.42738389925E+02  0.27275131947E+02 -0.48755176549E+03  0.49673377456E+03  0.80419002446E+02 0. -1.
        -24    1    1    2    0    0 -0.42738389925E+02 -0.27275131947E+02  0.83251810585E+02  0.12636685766E+03  0.80419002446E+02 0.  1.
<mgrwt>
<rscale>  0 0.95066917E+02</rscale>
<asrwt>0</asrwt>
<pdfrwt beam="1">  1        2 0.79030816E-01 0.95066917E+02</pdfrwt>
<pdfrwt beam="2">  1       -2 0.16830821E-01 0.95066917E+02</pdfrwt>
<totfact> 0.16624678E+03</totfact>
</mgrwt>
</event>
<event>
 4    1  0.1123525E-001  0.1718131E+03  0.7546771E-02  0.1175970E+00
         -1   -1    0    0    0  501 -0.00000000000E+00  0.00000000000E+00  0.51113357718E+02  0.51113357718E+02  0.00000000000E+00 0.  1.
          1   -1    0    0  501    0  0.00000000000E+00 -0.00000000000E+00 -0.59789243125E+03  0.59789243125E+03  0.00000000000E+00 0. -1.
         24    1    1    2    0    0  0.15057357530E+03 -0.19496051984E+02 -0.33326884482E+03  0.37495044539E+03  0.80419002446E+02 0. -1.
        -24    1    1    2    0    0 -0.15057357530E+03  0.19496051984E+02 -0.21351022871E+03  0.27405534357E+03  0.80419002446E+02 0.  1.
<mgrwt>
<rscale>  0 0.17181304E+03</rscale>
<asrwt>0</asrwt>
<pdfrwt beam="1">  1        1 0.91983447E-01 0.17181306E+03</pdfrwt>
<pdfrwt beam="2">  1       -1 0.78635938E-02 0.17181306E+03</pdfrwt>
<totfact> 0.30746537E+03</totfact>
</mgrwt>
</event>
<event>
 4    1  0.1123525E-001  0.1069276E+03  0.7546771E-02  0.1266368E+00
          1   -1    0    0  501    0  0.00000000000E+00  0.00000000000E+00  0.36881886402E+03  0.36881886402E+03  0.00000000000E+00 0. -1.
         -1   -1    0    0    0  501 -0.00000000000E+00 -0.00000000000E+00 -0.56824980208E+02  0.56824980208E+02  0.00000000000E+00 0.  1.
         24    1    1    2    0    0  0.58962083315E+02 -0.38597577472E+02  0.12526076796E+02  0.10765880740E+03  0.80419002446E+02 0.  1.
        -24    1    1    2    0    0 -0.58962083315E+02  0.38597577472E+02  0.29946780702E+03  0.31798503684E+03  0.80419002446E+02 0. -1.
<mgrwt>
<rscale>  0 0.10692762E+03</rscale>
<asrwt>0</asrwt>
<pdfrwt beam="1">  1        1 0.56741362E-01 0.10692762E+03</pdfrwt>
<pdfrwt beam="2">  1       -1 0.87423049E-02 0.10692762E+03</pdfrwt>
<totfact> 0.47909652E+03</totfact>
</mgrwt>
</event>
<event>
 4    1  0.1123525E-001  0.1115334E+03  0.7546771E-02  0.1257756E+00
          1   -1    0    0  501    0  0.00000000000E+00  0.00000000000E+00  0.29863181127E+03  0.29863181127E+03  0.00000000000E+00 0. -1.
         -1   -1    0    0    0  501 -0.00000000000E+00 -0.00000000000E+00 -0.43904517625E+02  0.43904517625E+02  0.00000000000E+00 0.  1.
         24    1    1    2    0    0 -0.69757266679E+02 -0.33262643257E+02  0.88601653113E+02  0.14244279055E+03  0.80419002446E+02 0. -1.
        -24    1    1    2    0    0  0.69757266679E+02  0.33262643257E+02  0.16612564053E+03  0.20009353834E+03  0.80419002446E+02 0.  1.
<mgrwt>
<rscale>  0 0.11153338E+03</rscale>
<asrwt>0</asrwt>
<pdfrwt beam="1">  1        1 0.45943354E-01 0.11153338E+03</pdfrwt>
<pdfrwt beam="2">  1       -1 0.67545414E-02 0.11153338E+03</pdfrwt>
<totfact> 0.91754095E+03</totfact>
</mgrwt>
</event>
<event>
 4    1  0.1123525E-001  0.1026839E+03  0.7546771E-02  0.1274751E+00
         -1   -1    0    0    0  501 -0.00000000000E+00  0.00000000000E+00  0.27476319858E+02  0.27476319858E+02  0.00000000000E+00 0.  1.
          1   -1    0    0  501    0  0.00000000000E+00 -0.00000000000E+00 -0.53616594551E+03  0.53616594551E+03  0.00000000000E+00 0. -1.
         24    1    1    2    0    0  0.63263137555E+02 -0.86335742269E+01 -0.10408522805E+03  0.14621119598E+03  0.80419002446E+02 0.  1.
        -24    1    1    2    0    0 -0.63263137555E+02  0.86335742269E+01 -0.40460439761E+03  0.41743106939E+03  0.80419002446E+02 0. -1.
<mgrwt>
<rscale>  0 0.10268388E+03</rscale>
<asrwt>0</asrwt>
<pdfrwt beam="1">  1        1 0.82487067E-01 0.10268388E+03</pdfrwt>
<pdfrwt beam="2">  1       -1 0.42271262E-02 0.10268388E+03</pdfrwt>
<totfact> 0.87175198E+03</totfact>
</mgrwt>
</event>
<event>
 4    1  0.1123525E-001  0.1299594E+03  0.7546771E-02  0.1227516E+00
         -2   -1    0    0    0  501 -0.00000000000E+00  0.00000000000E+00  0.26356434493E+02  0.26356434493E+02  0.00000000000E+00 0.  1.
          2   -1    0    0  501    0  0.00000000000E+00 -0.00000000000E+00 -0.64280931125E+03  0.64280931125E+03  0.00000000000E+00 0. -1.
         24    1    1    2    0    0 -0.96327993593E+02  0.33810287873E+02 -0.28956098958E+03  0.31738777632E+03  0.80419002446E+02 0.  0.
        -24    1    1    2    0    0  0.96327993593E+02 -0.33810287873E+02 -0.32689188717E+03  0.35177796942E+03  0.80419002446E+02 0.  0.
<mgrwt>
<rscale>  0 0.12995937E+03</rscale>
<asrwt>0</asrwt>
<pdfrwt beam="1">  1        2 0.98893735E-01 0.12995939E+03</pdfrwt>
<pdfrwt beam="2">  1       -2 0.40548363E-02 0.12995939E+03</pdfrwt>
<totfact> 0.11898229E+04</totfact>
</mgrwt>
</event>
<event>
 4    1  0.1123525E-001  0.9571035E+02  0.7546771E-02  0.1289584E+00
          2   -1    0    0  501    0  0.00000000000E+00  0.00000000000E+00  0.99090830347E+03  0.99090830347E+03  0.00000000000E+00 0. -1.
         -2   -1    0    0    0  501 -0.00000000000E+00 -0.00000000000E+00 -0.10545476804E+02  0.10545476804E+02  0.00000000000E+00 0.  1.
         24    1    1    2    0    0 -0.27510155112E+02 -0.44005080564E+02  0.66605443697E+03  0.67289596872E+03  0.80419002446E+02 0. -1.
        -24    1    1    2    0    0  0.27510155112E+02  0.44005080564E+02  0.31430838969E+03  0.32855781156E+03  0.80419002446E+02 0.  1.
<mgrwt>
<rscale>  0 0.95710353E+02</rscale>
<asrwt>0</asrwt>
<pdfrwt beam="1">  1        2 0.15244736E+00 0.95710353E+02</pdfrwt>
<pdfrwt beam="2">  1       -2 0.16223818E-02 0.95710353E+02</pdfrwt>
<totfact> 0.25771607E+04</totfact>
</mgrwt>
</event>
<event>
 4    1  0.1123525E-001  0.9011812E+02  0.7546771E-02  0.1302566E+00
         -1   -1    0    0    0  501 -0.00000000000E+00  0.00000000000E+00  0.54356130564E+02  0.54356130564E+02  0.00000000000E+00 0.  1.
          1   -1    0    0  501    0  0.00000000000E+00 -0.00000000000E+00 -0.51970458634E+03  0.51970458634E+03  0.00000000000E+00 0. -1.
         24    1    1    2    0    0  0.10371553596E+02 -0.39325448559E+02  0.96093803399E+01  0.90629002936E+02  0.80419002446E+02 0.  1.
        -24    1    1    2    0    0 -0.10371553596E+02  0.39325448559E+02 -0.47495783612E+03  0.48343171397E+03  0.80419002446E+02 0. -1.
<mgrwt>
<rscale>  0 0.90118122E+02</rscale>
<asrwt>0</asrwt>
<pdfrwt beam="1">  1        1 0.79954555E-01 0.90118122E+02</pdfrwt>
<pdfrwt beam="2">  1       -1 0.83624813E-02 0.90118122E+02</pdfrwt>
<totfact> 0.32901806E+03</totfact>
</mgrwt>
</event>
<event>
 4    1  0.1123525E-001  0.8765007E+02  0.7546771E-02  0.1308644E+00
          2   -1    0    0  501    0  0.00000000000E+00  0.00000000000E+00  0.12620404005E+04  0.12620404005E+04  0.00000000000E+00 0. -1.
         -2   -1    0    0    0  501 -0.00000000000E+00 -0.00000000000E+00 -0.12946073280E+02  0.12946073280E+02  0.00000000000E+00 0.  1.
         24    1    1    2    0    0  0.21644593102E+02  0.27328213699E+02  0.10885566262E+04  0.10920796968E+04  0.80419002446E+02 0. -1.
        -24    1    1    2    0    0 -0.21644593102E+02 -0.27328213699E+02  0.16053770096E+03  0.18290677696E+03  0.80419002446E+02 0.  1.
<mgrwt>
<rscale>  0 0.87650075E+02</rscale>
<asrwt>0</asrwt>
<pdfrwt beam="1">  1        2 0.19415997E+00 0.87650075E+02</pdfrwt>
<pdfrwt beam="2">  1       -2 0.19917046E-02 0.87650075E+02</pdfrwt>
<totfact> 0.13464203E+04</totfact>
</mgrwt>
</event>
<event>
 4    1  0.1123525E-001  0.8386179E+02  0.7546771E-02  0.1318436E+00
         -1   -1    0    0    0  501 -0.00000000000E+00  0.00000000000E+00  0.18969060851E+02  0.18969060851E+02  0.00000000000E+00 0.  1.
          1   -1    0    0  501    0  0.00000000000E+00 -0.00000000000E+00 -0.57100400855E+03  0.57100400855E+03  0.00000000000E+00 0. -1.
         24    1    1    2    0    0  0.60788837731E+00 -0.23774224538E+02 -0.10132584924E+03  0.13152842643E+03  0.80419002446E+02 0.  1.
        -24    1    1    2    0    0 -0.60788837731E+00  0.23774224538E+02 -0.45070909846E+03  0.45844464297E+03  0.80419002446E+02 0. -1.
<mgrwt>
<rscale>  0 0.83861787E+02</rscale>
<asrwt>0</asrwt>
<pdfrwt beam="1">  1        1 0.87846780E-01 0.83861787E+02</pdfrwt>
<pdfrwt beam="2">  1       -1 0.29183167E-02 0.83861787E+02</pdfrwt>
<totfact> 0.13496715E+04</totfact>
</mgrwt>
</event>
<event>
 4    1  0.1123525E-001  0.1394105E+03  0.7546771E-02  0.1214124E+00
          1   -1    0    0  501    0  0.00000000000E+00  0.00000000000E+00  0.64903877114E+03  0.64903877114E+03  0.00000000000E+00 0. -1.
         -1   -1    0    0    0  501 -0.00000000000E+00 -0.00000000000E+00 -0.85020182262E+02  0.85020182262E+02  0.00000000000E+00 0.  1.
         24    1    1    2    0    0 -0.19631537521E+02  0.11217252922E+03 -0.13396474415E+02  0.14005268673E+03  0.80419002446E+02 0.  1.
        -24    1    1    2    0    0  0.19631537521E+02 -0.11217252922E+03  0.57741506329E+03  0.59400626667E+03  0.80419002446E+02 0. -1.
<mgrwt>
<rscale>  0 0.13941051E+03</rscale>
<asrwt>0</asrwt>
<pdfrwt beam="1">  1        1 0.99852116E-01 0.13941051E+03</pdfrwt>
<pdfrwt beam="2">  1       -1 0.13080028E-01 0.13941051E+03</pdfrwt>
<totfact> 0.12521862E+03</totfact>
</mgrwt>
</event>
<event>
 4    1  0.1123525E-001  0.8417230E+02  0.7546771E-02  0.1317611E+00
         -3   -1    0    0    0  501 -0.00000000000E+00  0.00000000000E+00  0.85981179735E+02  0.85981179735E+02  0.00000000000E+00 0.  1.
          3   -1    0    0  501    0  0.00000000000E+00 -0.00000000000E+00 -0.10042554444E+03  0.10042554444E+03  0.00000000000E+00 0. -1.
         24    1    1    2    0    0 -0.24281986301E+02 -0.53052174320E+01  0.32263158514E+02  0.90143704951E+02  0.80419002446E+02 0.  1.
        -24    1    1    2    0    0  0.24281986301E+02  0.53052174320E+01 -0.46707523222E+02  0.96263019227E+02  0.80419002446E+02 0. -1.
<mgrwt>
<rscale>  0 0.84172300E+02</rscale>
<asrwt>0</asrwt>
<pdfrwt beam="1">  1        3 0.15450084E-01 0.84172300E+02</pdfrwt>
<pdfrwt beam="2">  1       -3 0.13227874E-01 0.84172300E+02</pdfrwt>
<totfact> 0.33606357E+03</totfact>
</mgrwt>
</event>
<event>
 4    1  0.1123525E-001  0.1383416E+03  0.7546771E-02  0.1215578E+00
         -1   -1    0    0    0  501 -0.00000000000E+00  0.00000000000E+00  0.23745103728E+03  0.23745103728E+03  0.00000000000E+00 0.  1.
          1   -1    0    0  501    0  0.00000000000E+00 -0.00000000000E+00 -0.22420735189E+03  0.22420735189E+03  0.00000000000E+00 0. -1.
         24    1    1    2    0    0 -0.33553075764E+02  0.10744939178E+03  0.19135937925E+03  0.23612879678E+03  0.80419002446E+02 0.  1.
        -24    1    1    2    0    0  0.33553075764E+02 -0.10744939178E+03 -0.17811569387E+03  0.22552959239E+03  0.80419002446E+02 0. -1.
<mgrwt>
<rscale>  0 0.13834159E+03</rscale>
<asrwt>0</asrwt>
<pdfrwt beam="1">  1        1 0.34493439E-01 0.13834159E+03</pdfrwt>
<pdfrwt beam="2">  1       -1 0.36530929E-01 0.13834159E+03</pdfrwt>
<totfact> 0.91411703E+02</totfact>
</mgrwt>
</event>
<event>
 4    1  0.1123525E-001  0.1514581E+03  0.7546771E-02  0.1198693E+00
          1   -1    0    0  501    0  0.00000000000E+00  0.00000000000E+00  0.91205496510E+02  0.91205496510E+02  0.00000000000E+00 0. -1.
         -1   -1    0    0    0  501 -0.00000000000E+00 -0.00000000000E+00 -0.31418844666E+03  0.31418844666E+03  0.00000000000E+00 0.  1.
         24    1    1    2    0    0 -0.12743993216E+03  0.15211675869E+02 -0.20202179646E+03  0.25249228422E+03  0.80419002446E+02 0.  1.
        -24    1    1    2    0    0  0.12743993216E+03 -0.15211675869E+02 -0.20961153689E+02  0.15290165895E+03  0.80419002446E+02 0. -1.
<mgrwt>
<rscale>  0 0.15145807E+03</rscale>
<asrwt>0</asrwt>
<pdfrwt beam="1">  1        1 0.14031615E-01 0.15145807E+03</pdfrwt>
<pdfrwt beam="2">  1       -1 0.48336684E-01 0.15145807E+03</pdfrwt>
<totfact> 0.17454024E+03</totfact>
</mgrwt>
</event>
<event>
 4    1  0.1123525E-001  0.1201803E+03  0.7546771E-02  0.1242800E+00
         -1   -1    0    0    0  501 -0.00000000000E+00  0.00000000000E+00  0.17938212483E+03  0.17938212483E+03  0.00000000000E+00 0.  1.
          1   -1    0    0  501    0  0.00000000000E+00 -0.00000000000E+00 -0.84961142854E+02  0.84961142854E+02  0.00000000000E+00 0. -1.
         24    1    1    2    0    0  0.76557679331E+02  0.45989137916E+02  0.16981314343E+02  0.12137405020E+03  0.80419002446E+02 0. -1.
        -24    1    1    2    0    0 -0.76557679331E+02 -0.45989137916E+02  0.77439667634E+02  0.14296921749E+03  0.80419002446E+02 0.  1.
<mgrwt>
<rscale>  0 0.12018028E+03</rscale>
<asrwt>0</asrwt>
<pdfrwt beam="1">  1        1 0.13070945E-01 0.12018029E+03</pdfrwt>
<pdfrwt beam="2">  1       -1 0.27597250E-01 0.12018029E+03</pdfrwt>
<totfact> 0.49896875E+03</totfact>
</mgrwt>
</event>
<event>
 4    1  0.1123525E-001  0.8481809E+02  0.7546771E-02  0.1315909E+00
          3   -1    0    0  501    0  0.00000000000E+00  0.00000000000E+00  0.35613391109E+02  0.35613391109E+02  0.00000000000E+00 0. -1.
         -3   -1    0    0    0  501 -0.00000000000E+00 -0.00000000000E+00 -0.25761933195E+03  0.25761933195E+03  0.00000000000E+00 0.  1.
         24    1    1    2    0    0 -0.26934944385E+02  0.11836311225E+01 -0.17912441107E+03  0.19819097559E+03  0.80419002446E+02 0.  0.
        -24    1    1    2    0    0  0.26934944385E+02 -0.11836311225E+01 -0.42881529775E+02  0.95041747468E+02  0.80419002446E+02 0.  0.
<mgrwt>
<rscale>  0 0.84818089E+02</rscale>
<asrwt>0</asrwt>
<pdfrwt beam="1">  1        3 0.54789831E-02 0.84818089E+02</pdfrwt>
<pdfrwt beam="2">  1       -3 0.39633744E-01 0.84818089E+02</pdfrwt>
<totfact> 0.25951491E+03</totfact>
</mgrwt>
</event>
<event>
 4    1  0.1123525E-001  0.1131708E+03  0.7546771E-02  0.1254808E+00
         -2   -1    0    0    0  501 -0.00000000000E+00  0.00000000000E+00  0.64085466203E+01  0.64085466203E+01  0.00000000000E+00 0.  1.
          2   -1    0    0  501    0  0.00000000000E+00 -0.00000000000E+00 -0.20451744086E+04  0.20451744086E+04  0.00000000000E+00 0. -1.
         24    1    1    2    0    0 -0.48779289853E+02 -0.62936407611E+02 -0.11743099864E+04  0.11797506392E+04  0.80419002446E+02 0.  1.
        -24    1    1    2    0    0  0.48779289853E+02  0.62936407611E+02 -0.86445587555E+03  0.87183231601E+03  0.80419002446E+02 0.  0.
<mgrwt>
<rscale>  0 0.11317078E+03</rscale>
<asrwt>0</asrwt>
<pdfrwt beam="1">  1        2 0.31464199E+00 0.11317078E+03</pdfrwt>
<pdfrwt beam="2">  1       -2 0.98593097E-03 0.11317078E+03</pdfrwt>
<totfact> 0.14839348E+04</totfact>
</mgrwt>
</event>
<event>
 4    1  0.1123525E-001  0.1065305E+03  0.7546771E-02  0.1267133E+00
         -2   -1    0    0    0  501 -0.00000000000E+00  0.00000000000E+00  0.49042425560E+02  0.49042425560E+02  0.00000000000E+00 0.  1.
          2   -1    0    0  501    0  0.00000000000E+00 -0.00000000000E+00 -0.98901714873E+03  0.98901714873E+03  0.00000000000E+00 0. -1.
         24    1    1    2    0    0  0.96995599247E+01  0.69191430440E+02 -0.92425658745E+03  0.93037572567E+03  0.80419002446E+02 0. -1.
        -24    1    1    2    0    0 -0.96995599247E+01 -0.69191430440E+02 -0.15718135716E+02  0.10768384862E+03  0.80419002446E+02 0.  1.
<mgrwt>
<rscale>  0 0.10653052E+03</rscale>
<asrwt>0</asrwt>
<pdfrwt beam="1">  1        2 0.15215648E+00 0.10653052E+03</pdfrwt>
<pdfrwt beam="2">  1       -2 0.75449889E-02 0.10653052E+03</pdfrwt>
<totfact> 0.27112047E+03</totfact>
</mgrwt>
</event>
<event>
 4    1  0.1123525E-001  0.8567497E+02  0.7546771E-02  0.1313677E+00
         -1   -1    0    0    0  501 -0.00000000000E+00  0.00000000000E+00  0.13532158197E+02  0.13532158197E+02  0.00000000000E+00 0.  1.
          1   -1    0    0  501    0  0.00000000000E+00 -0.00000000000E+00 -0.56784064061E+03  0.56784064061E+03  0.00000000000E+00 0. -1.
         24    1    1    2    0    0 -0.25136480201E+02 -0.15528727828E+02 -0.21565780243E+03  0.23205276928E+03  0.80419002446E+02 0.  1.
        -24    1    1    2    0    0  0.25136480201E+02  0.15528727828E+02 -0.33865067997E+03  0.34932002952E+03  0.80419002446E+02 0. -1.
<mgrwt>
<rscale>  0 0.85674967E+02</rscale>
<asrwt>0</asrwt>
<pdfrwt beam="1">  1        1 0.87360107E-01 0.85674967E+02</pdfrwt>
<pdfrwt beam="2">  1       -1 0.20818703E-02 0.85674967E+02</pdfrwt>
<totfact> 0.22087646E+04</totfact>
</mgrwt>
</event>
<event>
 4    1  0.1123525E-001  0.1035627E+03  0.7546771E-02  0.1272978E+00
         -1   -1    0    0    0  501 -0.00000000000E+00  0.00000000000E+00  0.12857682820E+03  0.12857682820E+03  0.00000000000E+00 0.  1.
          1   -1    0    0  501    0  0.00000000000E+00 -0.00000000000E+00 -0.11088497106E+03  0.11088497106E+03  0.00000000000E+00 0. -1.
         24    1    1    2    0    0 -0.31949335707E+02  0.56896854275E+02  0.68439511940E+02  0.12413377795E+03  0.80419002446E+02 0.  0.
        -24    1    1    2    0    0  0.31949335707E+02 -0.56896854275E+02 -0.50747654794E+02  0.11532802131E+03  0.80419002446E+02 0.  1.
<mgrwt>
<rscale>  0 0.10356268E+03</rscale>
<asrwt>0</asrwt>
<pdfrwt beam="1">  1        1 0.17059226E-01 0.10356268E+03</pdfrwt>
<pdfrwt beam="2">  1       -1 0.19781050E-01 0.10356268E+03</pdfrwt>
<totfact> 0.60161969E+03</totfact>
</mgrwt>
</event>
<event>
 4    1  0.1123525E-001  0.8426147E+02  0.7546771E-02  0.1317375E+00
         -1   -1    0    0    0  501 -0.00000000000E+00  0.00000000000E+00  0.38337077039E+01  0.38337077039E+01  0.00000000000E+00 0.  1.
          1   -1    0    0  501    0  0.00000000000E+00 -0.00000000000E+00 -0.19775860039E+04  0.19775860039E+04  0.00000000000E+00 0. -1.
         24    1    1    2    0    0  0.24972819371E+02  0.30227945099E+01 -0.73720766663E+03  0.74200750581E+03  0.80419002446E+02 0.  0.
        -24    1    1    2    0    0 -0.24972819371E+02 -0.30227945099E+01 -0.12365446295E+04  0.12394122058E+04  0.80419002446E+02 0.  0.
<mgrwt>
<rscale>  0 0.84261468E+02</rscale>
<asrwt>0</asrwt>
<pdfrwt beam="1">  1        1 0.30424344E+00 0.84261468E+02</pdfrwt>
<pdfrwt beam="2">  1       -1 0.58980227E-03 0.84261468E+02</pdfrwt>
<totfact> 0.13327413E+04</totfact>
</mgrwt>
</event>
<event>
 4    1  0.1123525E-001  0.8064544E+02  0.7546771E-02  0.1327230E+00
          1   -1    0    0  501    0  0.00000000000E+00  0.00000000000E+00  0.69762983378E+03  0.69762983378E+03  0.00000000000E+00 0. -1.
         -1   -1    0    0    0  501 -0.00000000000E+00 -0.00000000000E+00 -0.12520076149E+02  0.12520076149E+02  0.00000000000E+00 0.  1.
         24    1    1    2    0    0 -0.38314558313E+01  0.46680413890E+01  0.16311298655E+03  0.18196025116E+03  0.80419002446E+02 0.  1.
        -24    1    1    2    0    0  0.38314558313E+01 -0.46680413890E+01  0.52199677108E+03  0.52818965878E+03  0.80419002446E+02 0.  0.
<mgrwt>
<rscale>  0 0.80645438E+02</rscale>
<asrwt>0</asrwt>
<pdfrwt beam="1">  1        1 0.10732764E+00 0.80645438E+02</pdfrwt>
<pdfrwt beam="2">  1       -1 0.19261661E-02 0.80645438E+02</pdfrwt>
<totfact> 0.18552789E+04</totfact>
</mgrwt>
</event>
<event>
 4    1  0.1123525E-001  0.9772422E+02  0.7546771E-02  0.1285156E+00
         -2   -1    0    0    0  501 -0.00000000000E+00  0.00000000000E+00  0.80310859938E+02  0.80310859938E+02  0.00000000000E+00 0.  1.
          2   -1    0    0  501    0  0.00000000000E+00 -0.00000000000E+00 -0.17335241997E+03  0.17335241997E+03  0.00000000000E+00 0. -1.
         24    1    1    2    0    0  0.15202816868E+02 -0.53401142519E+02 -0.11759604507E+03  0.15290145007E+03  0.80419002446E+02 0. -1.
        -24    1    1    2    0    0 -0.15202816868E+02  0.53401142519E+02  0.24554485035E+02  0.10076182984E+03  0.80419002446E+02 0.  1.
<mgrwt>
<rscale>  0 0.97724222E+02</rscale>
<asrwt>0</asrwt>
<pdfrwt beam="1">  1        2 0.26669603E-01 0.97724222E+02</pdfrwt>
<pdfrwt beam="2">  1       -2 0.12355517E-01 0.97724222E+02</pdfrwt>
<totfact> 0.86712642E+03</totfact>
</mgrwt>
</event>
<event>
 4    1  0.1123525E-001  0.1050749E+03  0.7546771E-02  0.1269972E+00
          2   -1    0    0  501    0  0.00000000000E+00  0.00000000000E+00  0.96162580501E+02  0.96162580501E+02  0.00000000000E+00 0. -1.
         -2   -1    0    0    0  501 -0.00000000000E+00 -0.00000000000E+00 -0.24785795319E+03  0.24785795319E+03  0.00000000000E+00 0.  1.
         24    1    1    2    0    0  0.49409155867E+02 -0.46176170179E+02 -0.20187133761E+03  0.22758021943E+03  0.80419002446E+02 0.  0.
        -24    1    1    2    0    0 -0.49409155867E+02  0.46176170179E+02  0.50175964914E+02  0.11644031426E+03  0.80419002446E+02 0.  0.
<mgrwt>
<rscale>  0 0.10507484E+03</rscale>
<asrwt>0</asrwt>
<pdfrwt beam="1">  1        2 0.14794243E-01 0.10507485E+03</pdfrwt>
<pdfrwt beam="2">  1       -2 0.38131992E-01 0.10507485E+03</pdfrwt>
<totfact> 0.24625858E+03</totfact>
</mgrwt>
</event>
<event>
 4    1  0.1123525E-001  0.9948791E+02  0.7546771E-02  0.1281376E+00
          1   -1    0    0  501    0  0.00000000000E+00  0.00000000000E+00  0.24563484840E+04  0.24563484840E+04  0.00000000000E+00 0. -1.
         -1   -1    0    0    0  501 -0.00000000000E+00 -0.00000000000E+00 -0.18361359057E+02  0.18361359057E+02  0.00000000000E+00 0.  1.
         24    1    1    2    0    0 -0.11240530545E+02 -0.57482857467E+02  0.12580969090E+03  0.16039302575E+03  0.80419002446E+02 0.  1.
        -24    1    1    2    0    0  0.11240530545E+02  0.57482857467E+02  0.23121774340E+04  0.23143168173E+04  0.80419002446E+02 0. -1.
<mgrwt>
<rscale>  0 0.99487911E+02</rscale>
<asrwt>0</asrwt>
<pdfrwt beam="1">  1        1 0.37789951E+00 0.99487911E+02</pdfrwt>
<pdfrwt beam="2">  1       -1 0.28248264E-02 0.99487911E+02</pdfrwt>
<totfact> 0.72241472E+02</totfact>
</mgrwt>
</event>
<event>
 4    1  0.1123525E-001  0.2645153E+03  0.7546771E-02  0.1104460E+00
         -2   -1    0    0    0  501 -0.00000000000E+00  0.00000000000E+00  0.43327193419E+03  0.43327193419E+03  0.00000000000E+00 0.  1.
          2   -1    0    0  501    0  0.00000000000E+00 -0.00000000000E+00 -0.16562667578E+03  0.16562667578E+03  0.00000000000E+00 0. -1.
         24    1    1    2    0    0  0.77373533838E+02  0.23982170776E+03  0.86488414823E+02  0.27829584457E+03  0.80419002446E+02 0. -1.
        -24    1    1    2    0    0 -0.77373533838E+02 -0.23982170776E+03  0.18115684358E+03  0.32060276540E+03  0.80419002446E+02 0.  1.
<mgrwt>
<rscale>  0 0.26451528E+03</rscale>
<asrwt>0</asrwt>
<pdfrwt beam="1">  1        2 0.25481027E-01 0.26451528E+03</pdfrwt>
<pdfrwt beam="2">  1       -2 0.66657220E-01 0.26451528E+03</pdfrwt>
<totfact> 0.44735941E+02</totfact>
</mgrwt>
</event>
<event>
 4    1  0.1123525E-001  0.1519182E+03  0.7546771E-02  0.1198136E+00
         -1   -1    0    0    0  501 -0.00000000000E+00  0.00000000000E+00  0.71679314706E+02  0.71679314706E+02  0.00000000000E+00 0.  1.
          1   -1    0    0  501    0  0.00000000000E+00 -0.00000000000E+00 -0.36269342313E+03  0.36269342313E+03  0.00000000000E+00 0. -1.
         24    1    1    2    0    0  0.98103718628E+02  0.83591806164E+02 -0.72738549930E+02  0.16843408879E+03  0.80419002446E+02 0.  1.
        -24    1    1    2    0    0 -0.98103718628E+02 -0.83591806164E+02 -0.21827555850E+03  0.26593864905E+03  0.80419002446E+02 0. -1.
<mgrwt>
<rscale>  0 0.15191822E+03</rscale>
<asrwt>0</asrwt>
<pdfrwt beam="1">  1        1 0.55798988E-01 0.15191822E+03</pdfrwt>
<pdfrwt beam="2">  1       -1 0.11027587E-01 0.15191822E+03</pdfrwt>
<totfact> 0.34986469E+03</totfact>
</mgrwt>
</event>
<event>
 4    1  0.1123525E-001  0.1045024E+03  0.7546771E-02  0.1271103E+00
          2   -1    0    0  501    0  0.00000000000E+00  0.00000000000E+00  0.20367328823E+03  0.20367328823E+03  0.00000000000E+00 0. -1.
         -2   -1    0    0    0  501 -0.00000000000E+00 -0.00000000000E+00 -0.56013568432E+02  0.56013568432E+02  0.00000000000E+00 0.  1.
         24    1    1    2    0    0 -0.48212768663E+02 -0.46141900420E+02  0.10067620827E+03  0.14510844532E+03  0.80419002446E+02 0. -1.
        -24    1    1    2    0    0  0.48212768663E+02  0.46141900420E+02  0.46983511528E+02  0.11457841135E+03  0.80419002446E+02 0.  0.
<mgrwt>
<rscale>  0 0.10450245E+03</rscale>
<asrwt>0</asrwt>
<pdfrwt beam="1">  1        2 0.31334352E-01 0.10450245E+03</pdfrwt>
<pdfrwt beam="2">  1       -2 0.86174722E-02 0.10450245E+03</pdfrwt>
<totfact> 0.12883768E+04</totfact>
</mgrwt>
</event>
<event>
 4    1  0.1123525E-001  0.8600899E+02  0.7546771E-02  0.1312815E+00
         -3   -1    0    0    0  501 -0.00000000000E+00  0.00000000000E+00  0.79619258478E+02  0.79619258478E+02  0.00000000000E+00 0.  1.
          3   -1    0    0  501    0  0.00000000000E+00 -0.00000000000E+00 -0.23409228863E+03  0.23409228863E+03  0.00000000000E+00 0. -1.
         24    1    1    2    0    0  0.25368285999E+02  0.16934590753E+02  0.44576790201E+02  0.96874333430E+02  0.80419002446E+02 0.  1.
        -24    1    1    2    0    0 -0.25368285999E+02 -0.16934590753E+02 -0.19904982036E+03  0.21683721368E+03  0.80419002446E+02 0. -1.
<mgrwt>
<rscale>  0 0.86008989E+02</rscale>
<asrwt>0</asrwt>
<pdfrwt beam="1">  1        3 0.36014198E-01 0.86008989E+02</pdfrwt>
<pdfrwt beam="2">  1       -3 0.12249117E-01 0.86008989E+02</pdfrwt>
<totfact> 0.85196346E+02</totfact>
</mgrwt>
</event>
<event>
 4    1  0.1123525E-001  0.1189507E+03  0.7546771E-02  0.1244838E+00
          1   -1    0    0  501    0  0.00000000000E+00  0.00000000000E+00  0.26398679201E+03  0.26398679201E+03  0.00000000000E+00 0. -1.
         -1   -1    0    0    0  501 -0.00000000000E+00 -0.00000000000E+00 -0.54145147824E+02  0.54145147824E+02  0.00000000000E+00 0.  1.
         24    1    1    2    0    0 -0.77169941885E+02 -0.41555523757E+02  0.88937047268E+02  0.14852298077E+03  0.80419002446E+02 0.  1.
        -24    1    1    2    0    0  0.77169941885E+02  0.41555523757E+02  0.12090459692E+03  0.16960895907E+03  0.80419002446E+02 0. -1.
<mgrwt>
<rscale>  0 0.11895074E+03</rscale>
<asrwt>0</asrwt>
<pdfrwt beam="1">  1        1 0.40613352E-01 0.11895074E+03</pdfrwt>
<pdfrwt beam="2">  1       -1 0.83300229E-02 0.11895074E+03</pdfrwt>
<totfact> 0.78381126E+03</totfact>
</mgrwt>
</event>
<event>
 4    1  0.1123525E-001  0.9809963E+02  0.7546771E-02  0.1284344E+00
         -3   -1    0    0    0  501 -0.00000000000E+00  0.00000000000E+00  0.16431420261E+03  0.16431420261E+03  0.00000000000E+00 0.  1.
          3   -1    0    0  501    0  0.00000000000E+00 -0.00000000000E+00 -0.59904663610E+02  0.59904663610E+02  0.00000000000E+00 0. -1.
         24    1    1    2    0    0  0.22451692857E+02  0.51499889764E+02  0.35457509291E+02  0.10431092022E+03  0.80419002446E+02 0.  1.
        -24    1    1    2    0    0 -0.22451692857E+02 -0.51499889764E+02  0.68952029705E+02  0.11990794599E+03  0.80419002446E+02 0. -1.
<mgrwt>
<rscale>  0 0.98099620E+02</rscale>
<asrwt>0</asrwt>
<pdfrwt beam="1">  1        3 0.92161021E-02 0.98099633E+02</pdfrwt>
<pdfrwt beam="2">  1       -3 0.25279108E-01 0.98099633E+02</pdfrwt>
<totfact> 0.26714728E+03</totfact>
</mgrwt>
</event>
<event>
 4    1  0.1123525E-001  0.1360356E+03  0.7546771E-02  0.1218765E+00
         -2   -1    0    0    0  501 -0.00000000000E+00  0.00000000000E+00  0.21636716586E+03  0.21636716586E+03  0.00000000000E+00 0.  1.
          2   -1    0    0  501    0  0.00000000000E+00 -0.00000000000E+00 -0.85828449662E+02  0.85828449662E+02  0.00000000000E+00 0. -1.
         24    1    1    2    0    0  0.10582765330E+03 -0.28965243641E+02  0.56346238343E+02  0.14724330909E+03  0.80419002446E+02 0.  1.
        -24    1    1    2    0    0 -0.10582765330E+03  0.28965243641E+02  0.74192477852E+02  0.15495230643E+03  0.80419002446E+02 0. -1.
<mgrwt>
<rscale>  0 0.13603563E+03</rscale>
<asrwt>0</asrwt>
<pdfrwt beam="1">  1        2 0.13204377E-01 0.13603563E+03</pdfrwt>
<pdfrwt beam="2">  1       -2 0.33287256E-01 0.13603563E+03</pdfrwt>
<totfact> 0.36740870E+03</totfact>
</mgrwt>
</event>
<event>
 4    1  0.1123525E-001  0.8560513E+02  0.7546771E-02  0.1313858E+00
         -1   -1    0    0    0  501 -0.00000000000E+00  0.00000000000E+00  0.10385568850E+03  0.10385568850E+03  0.00000000000E+00 0.  1.
          1   -1    0    0  501    0  0.00000000000E+00 -0.00000000000E+00 -0.71848799398E+02  0.71848799398E+02  0.00000000000E+00 0. -1.
         24    1    1    2    0    0  0.25796655024E+02  0.13984104875E+02  0.27761666182E+02  0.89994159050E+02  0.80419002446E+02 0.  1.
        -24    1    1    2    0    0 -0.25796655024E+02 -0.13984104875E+02  0.42452229218E+01  0.85710328850E+02  0.80419002446E+02 0. -1.
<mgrwt>
<rscale>  0 0.85605132E+02</rscale>
<asrwt>0</asrwt>
<pdfrwt beam="1">  1        1 0.11053661E-01 0.85605132E+02</pdfrwt>
<pdfrwt beam="2">  1       -1 0.15977798E-01 0.85605132E+02</pdfrwt>
<totfact> 0.14460747E+04</totfact>
</mgrwt>
</event>
<event>
 4    1  0.1123525E-001  0.1344623E+03  0.7546771E-02  0.1220981E+00
          2   -1    0    0  501    0  0.00000000000E+00  0.00000000000E+00  0.73259712916E+03  0.73259712916E+03  0.00000000000E+00 0. -1.
         -2   -1    0    0    0  501 -0.00000000000E+00 -0.00000000000E+00 -0.26394090135E+02  0.26394090135E+02  0.00000000000E+00 0.  1.
         24    1    1    2    0    0  0.75879735212E+02 -0.76519044388E+02  0.44982600433E+03  0.46949286309E+03  0.80419002446E+02 0.  0.
        -24    1    1    2    0    0 -0.75879735212E+02  0.76519044388E+02  0.25637703469E+03  0.28949835620E+03  0.80419002446E+02 0. -1.
<mgrwt>
<rscale>  0 0.13446232E+03</rscale>
<asrwt>0</asrwt>
<pdfrwt beam="1">  1        2 0.11270724E+00 0.13446232E+03</pdfrwt>
<pdfrwt beam="2">  1       -2 0.40606298E-02 0.13446232E+03</pdfrwt>
<totfact> 0.10199847E+04</totfact>
</mgrwt>
</event>
<event>
 4    1  0.1123525E-001  0.8754616E+02  0.7546771E-02  0.1308905E+00
          1   -1    0    0  501    0  0.00000000000E+00  0.00000000000E+00  0.19165433665E+03  0.19165433665E+03  0.00000000000E+00 0. -1.
         -1   -1    0    0    0  501 -0.00000000000E+00 -0.00000000000E+00 -0.48476464004E+02  0.48476464004E+02  0.00000000000E+00 0.  1.
         24    1    1    2    0    0  0.30989840531E+02  0.15386512785E+02  0.21353993753E+02  0.90112840347E+02  0.80419002446E+02 0. -1.
        -24    1    1    2    0    0 -0.30989840531E+02 -0.15386512785E+02  0.12182387889E+03  0.15001796031E+03  0.80419002446E+02 0.  0.
<mgrwt>
<rscale>  0 0.87546165E+02</rscale>
<asrwt>0</asrwt>
<pdfrwt beam="1">  1        1 0.29485282E-01 0.87546165E+02</pdfrwt>
<pdfrwt beam="2">  1       -1 0.74579177E-02 0.87546165E+02</pdfrwt>
<totfact> 0.13345444E+04</totfact>
</mgrwt>
</event>
<event>
 4    1  0.1123525E-001  0.9262259E+02  0.7546771E-02  0.1296622E+00
          1   -1    0    0  501    0  0.00000000000E+00  0.00000000000E+00  0.22291980349E+02  0.22291980349E+02  0.00000000000E+00 0. -1.
         -1   -1    0    0    0  501 -0.00000000000E+00 -0.00000000000E+00 -0.39033205596E+03  0.39033205596E+03  0.00000000000E+00 0.  1.
         24    1    1    2    0    0 -0.31445045336E+02 -0.33510266836E+02 -0.20848243763E+03  0.22813125961E+03  0.80419002446E+02 0. -1.
        -24    1    1    2    0    0  0.31445045336E+02  0.33510266836E+02 -0.15955763799E+03  0.18449277670E+03  0.80419002446E+02 0.  0.
<mgrwt>
<rscale>  0 0.92622593E+02</rscale>
<asrwt>0</asrwt>
<pdfrwt beam="1">  1        1 0.34295355E-02 0.92622593E+02</pdfrwt>
<pdfrwt beam="2">  1       -1 0.60051084E-01 0.92622593E+02</pdfrwt>
<totfact> 0.74963427E+03</totfact>
</mgrwt>
</event>
<event>
 4    1  0.1123525E-001  0.8850890E+02  0.7546771E-02  0.1306503E+00
          2   -1    0    0  501    0  0.00000000000E+00  0.00000000000E+00  0.16977504308E+02  0.16977504308E+02  0.00000000000E+00 0. -1.
         -2   -1    0    0    0  501 -0.00000000000E+00 -0.00000000000E+00 -0.81331073972E+03  0.81331073972E+03  0.00000000000E+00 0.  1.
         24    1    1    2    0    0 -0.13726579348E+02 -0.34324790342E+02 -0.12509777167E+03  0.15324254841E+03  0.80419002446E+02 0.  1.
        -24    1    1    2    0    0  0.13726579348E+02  0.34324790342E+02 -0.67123546374E+03  0.67704569562E+03  0.80419002446E+02 0.  1.
<mgrwt>
<rscale>  0 0.88508904E+02</rscale>
<asrwt>0</asrwt>
<pdfrwt beam="1">  1        2 0.26119237E-02 0.88508904E+02</pdfrwt>
<pdfrwt beam="2">  1       -2 0.12512473E+00 0.88508904E+02</pdfrwt>
<totfact> 0.17634706E+03</totfact>
</mgrwt>
</event>
<event>
 4    1  0.1123525E-001  0.1253071E+03  0.7546771E-02  0.1234590E+00
         -2   -1    0    0    0  501 -0.00000000000E+00  0.00000000000E+00  0.49648494401E+02  0.49648494401E+02  0.00000000000E+00 0.  1.
          2   -1    0    0  501    0  0.00000000000E+00 -0.00000000000E+00 -0.45037988861E+03  0.45037988861E+03  0.00000000000E+00 0. -1.
         24    1    1    2    0    0 -0.81321354871E+02 -0.51200501986E+02 -0.33679904710E+03  0.35935423783E+03  0.80419002446E+02 0. -1.
        -24    1    1    2    0    0  0.81321354871E+02  0.51200501986E+02 -0.63932347103E+02  0.14067414518E+03  0.80419002446E+02 0.  1.
<mgrwt>
<rscale>  0 0.12530710E+03</rscale>
<asrwt>0</asrwt>
<pdfrwt beam="1">  1        2 0.69289216E-01 0.12530710E+03</pdfrwt>
<pdfrwt beam="2">  1       -2 0.76382297E-02 0.12530710E+03</pdfrwt>
<totfact> 0.67813145E+03</totfact>
</mgrwt>
</event>
<event>
 4    1  0.1214229E-001  0.9465554E+02  0.7546771E-02  0.1291954E+00
          1   -1    0    0  501    0  0.00000000000E+00  0.00000000000E+00  0.22790836394E+03  0.22790836394E+03  0.00000000000E+00 0. -1.
         -1   -1    0    0    0  501 -0.00000000000E+00 -0.00000000000E+00 -0.20070218374E+03  0.20070218374E+03  0.00000000000E+00 0.  1.
         24    1    1    2    0    0  0.49201454151E+02 -0.84658994154E+01 -0.17857087884E+03  0.20210697481E+03  0.80419002446E+02 0.  1.
        -24    1    1    2    0    0 -0.49201454151E+02  0.84658994154E+01  0.20577705903E+03  0.22650357287E+03  0.80419002446E+02 0. -1.
<mgrwt>
<rscale>  0 0.94655536E+02</rscale>
<asrwt>0</asrwt>
<pdfrwt beam="1">  1        1 0.35062825E-01 0.94655536E+02</pdfrwt>
<pdfrwt beam="2">  1       -1 0.30877259E-01 0.94655536E+02</pdfrwt>
<totfact> 0.11819985E+03</totfact>
</mgrwt>
</event>
<event>
 4    1  0.1123525E-001  0.8609773E+02  0.7546771E-02  0.1312587E+00
         -2   -1    0    0    0  501 -0.00000000000E+00  0.00000000000E+00  0.23141090782E+02  0.23141090782E+02  0.00000000000E+00 0.  1.
          2   -1    0    0  501    0  0.00000000000E+00 -0.00000000000E+00 -0.74772204744E+03  0.74772204744E+03  0.00000000000E+00 0. -1.
         24    1    1    2    0    0  0.29795372822E+02 -0.76051766065E+01 -0.65369056539E+03  0.65933616175E+03  0.80419002446E+02 0. -1.
        -24    1    1    2    0    0 -0.29795372822E+02  0.76051766065E+01 -0.70890391265E+02  0.11152697647E+03  0.80419002446E+02 0.  1.
<mgrwt>
<rscale>  0 0.86097729E+02</rscale>
<asrwt>0</asrwt>
<pdfrwt beam="1">  1        2 0.11503415E+00 0.86097729E+02</pdfrwt>
<pdfrwt beam="2">  1       -2 0.35601681E-02 0.86097729E+02</pdfrwt>
<totfact> 0.11707582E+04</totfact>
</mgrwt>
</event>
<event>
 4    1  0.1123525E-001  0.1455402E+03  0.7546771E-02  0.1206063E+00
         -1   -1    0    0    0  501 -0.00000000000E+00  0.00000000000E+00  0.27463271533E+03  0.27463271533E+03  0.00000000000E+00 0.  1.
          1   -1    0    0  501    0  0.00000000000E+00 -0.00000000000E+00 -0.27451346539E+03  0.27451346539E+03  0.00000000000E+00 0. -1.
         24    1    1    2    0    0  0.11777145688E+03 -0.29062375573E+02  0.23288665791E+03  0.27462364996E+03  0.80419002446E+02 0.  1.
        -24    1    1    2    0    0 -0.11777145688E+03  0.29062375573E+02 -0.23276740798E+03  0.27452253077E+03  0.80419002446E+02 0. -1.
<mgrwt>
<rscale>  0 0.14554021E+03</rscale>
<asrwt>0</asrwt>
<pdfrwt beam="1">  1        1 0.42232841E-01 0.14554021E+03</pdfrwt>
<pdfrwt beam="2">  1       -1 0.42251187E-01 0.14554021E+03</pdfrwt>
<totfact> 0.55178228E+02</totfact>
</mgrwt>
</event>
<event>
 4    1  0.1123525E-001  0.1041939E+03  0.7546771E-02  0.1271716E+00
         -1   -1    0    0    0  501 -0.00000000000E+00  0.00000000000E+00  0.18169389932E+03  0.18169389932E+03  0.00000000000E+00 0.  1.
          1   -1    0    0  501    0  0.00000000000E+00 -0.00000000000E+00 -0.79802042077E+02  0.79802042077E+02  0.00000000000E+00 0. -1.
         24    1    1    2    0    0  0.61911089449E+02 -0.23583096185E+02  0.11648469534E+03  0.15628514205E+03  0.80419002446E+02 0.  1.
        -24    1    1    2    0    0 -0.61911089449E+02  0.23583096185E+02 -0.14592838092E+02  0.10521079935E+03  0.80419002446E+02 0. -1.
<mgrwt>
<rscale>  0 0.10419386E+03</rscale>
<asrwt>0</asrwt>
<pdfrwt beam="1">  1        1 0.12277237E-01 0.10419386E+03</pdfrwt>
<pdfrwt beam="2">  1       -1 0.27952907E-01 0.10419386E+03</pdfrwt>
<totfact> 0.52468007E+03</totfact>
</mgrwt>
</event>
<event>
 4    1  0.1123525E-001  0.1316553E+03  0.7546771E-02  0.1225020E+00
         -2   -1    0    0    0  501 -0.00000000000E+00  0.00000000000E+00  0.10687262326E+03  0.10687262326E+03  0.00000000000E+00 0.  1.
          2   -1    0    0  501    0  0.00000000000E+00 -0.00000000000E+00 -0.37863844974E+03  0.37863844974E+03  0.00000000000E+00 0. -1.
         24    1    1    2    0    0 -0.94278642302E+02 -0.44468440986E+02 -0.31942649025E+03  0.34549443305E+03  0.80419002446E+02 0. -1.
        -24    1    1    2    0    0  0.94278642302E+02  0.44468440986E+02  0.47660663774E+02  0.14001663995E+03  0.80419002446E+02 0.  1.
<mgrwt>
<rscale>  0 0.13165531E+03</rscale>
<asrwt>0</asrwt>
<pdfrwt beam="1">  1        2 0.58252069E-01 0.13165531E+03</pdfrwt>
<pdfrwt beam="2">  1       -2 0.16441942E-01 0.13165531E+03</pdfrwt>
<totfact> 0.24238395E+03</totfact>
</mgrwt>
</event>
<event>
 4    1  0.1123525E-001  0.8227065E+02  0.7546771E-02  0.1322728E+00
         -1   -1    0    0    0  501 -0.00000000000E+00  0.00000000000E+00  0.74026147105E+02  0.74026147105E+02  0.00000000000E+00 0.  1.
          1   -1    0    0  501    0  0.00000000000E+00 -0.00000000000E+00 -0.11496812192E+03  0.11496812192E+03  0.00000000000E+00 0. -1.
         24    1    1    2    0    0  0.17526972608E+01 -0.17267654104E+02  0.22283802123E+02  0.85235131357E+02  0.80419002446E+02 0.  0.
        -24    1    1    2    0    0 -0.17526972608E+01  0.17267654104E+02 -0.63225776938E+02  0.10375913767E+03  0.80419002446E+02 0. -1.
<mgrwt>
<rscale>  0 0.82270650E+02</rscale>
<asrwt>0</asrwt>
<pdfrwt beam="1">  1        1 0.17687403E-01 0.82270650E+02</pdfrwt>
<pdfrwt beam="2">  1       -1 0.11388638E-01 0.82270650E+02</pdfrwt>
<totfact> 0.13262247E+04</totfact>
</mgrwt>
</event>
<event>
 4    1  0.1123525E-001  0.8496768E+02  0.7546771E-02  0.1315517E+00
          2   -1    0    0  501    0  0.00000000000E+00  0.00000000000E+00  0.78685083618E+03  0.78685083618E+03  0.00000000000E+00 0. -1.
         -2   -1    0    0    0  501 -0.00000000000E+00 -0.00000000000E+00 -0.18332018812E+02  0.18332018812E+02  0.00000000000E+00 0.  1.
         24    1    1    2    0    0  0.21585485587E+02 -0.16922112615E+02  0.66879191535E+03  0.67416773363E+03  0.80419002446E+02 0. -1.
        -24    1    1    2    0    0 -0.21585485587E+02  0.16922112615E+02  0.99726902017E+02  0.13101512136E+03  0.80419002446E+02 0.  1.
<mgrwt>
<rscale>  0 0.84967682E+02</rscale>
<asrwt>0</asrwt>
<pdfrwt beam="1">  1        2 0.12105395E+00 0.84967682E+02</pdfrwt>
<pdfrwt beam="2">  1       -2 0.28203112E-02 0.84967682E+02</pdfrwt>
<totfact> 0.15437600E+04</totfact>
</mgrwt>
</event>
<event>
 4    1  0.1123525E-001  0.1236779E+03  0.7546771E-02  0.1237150E+00
          1   -1    0    0  501    0  0.00000000000E+00  0.00000000000E+00  0.30586846990E+02  0.30586846990E+02  0.00000000000E+00 0. -1.
         -1   -1    0    0    0  501 -0.00000000000E+00 -0.00000000000E+00 -0.59620816235E+03  0.59620816235E+03  0.00000000000E+00 0.  1.
         24    1    1    2    0    0  0.93951992238E+02 -0.14199598160E+01 -0.15697698157E+03  0.19984489443E+03  0.80419002446E+02 0.  1.
        -24    1    1    2    0    0 -0.93951992238E+02  0.14199598160E+01 -0.40864433379E+03  0.42695011491E+03  0.80419002446E+02 0. -1.
<mgrwt>
<rscale>  0 0.12367786E+03</rscale>
<asrwt>0</asrwt>
<pdfrwt beam="1">  1        1 0.47056693E-02 0.12367787E+03</pdfrwt>
<pdfrwt beam="2">  1       -1 0.91724322E-01 0.12367787E+03</pdfrwt>
<totfact> 0.21323119E+03</totfact>
</mgrwt>
</event>
<event>
 4    1  0.1123525E-001  0.9656993E+02  0.7546771E-02  0.1287679E+00
         -1   -1    0    0    0  501 -0.00000000000E+00  0.00000000000E+00  0.10786215625E+02  0.10786215625E+02  0.00000000000E+00 0.  1.
          1   -1    0    0  501    0  0.00000000000E+00 -0.00000000000E+00 -0.99599179004E+03  0.99599179004E+03  0.00000000000E+00 0. -1.
         24    1    1    2    0    0  0.21241003694E+01  0.53423055950E+02 -0.30976679184E+03  0.32447067046E+03  0.80419002446E+02 0.  1.
        -24    1    1    2    0    0 -0.21241003694E+01 -0.53423055950E+02 -0.67543878258E+03  0.68230733521E+03  0.80419002446E+02 0. -1.
<mgrwt>
<rscale>  0 0.96569926E+02</rscale>
<asrwt>0</asrwt>
<pdfrwt beam="1">  1        1 0.15322949E+00 0.96569926E+02</pdfrwt>
<pdfrwt beam="2">  1       -1 0.16594179E-02 0.96569926E+02</pdfrwt>
<totfact> 0.13586649E+04</totfact>
</mgrwt>
</event>
<event>
 4    1  0.1123525E-001  0.8603453E+02  0.7546771E-02  0.1312749E+00
          2   -1    0    0  501    0  0.00000000000E+00  0.00000000000E+00  0.13749843272E+04  0.13749843272E+04  0.00000000000E+00 0. -1.
         -2   -1    0    0    0  501 -0.00000000000E+00 -0.00000000000E+00 -0.88551334456E+01  0.88551334456E+01  0.00000000000E+00 0.  1.
         24    1    1    2    0    0 -0.11994492533E+01 -0.30549726654E+02  0.11163142049E+04  0.11196246445E+04  0.80419002446E+02 0. -1.
        -24    1    1    2    0    0  0.11994492533E+01  0.30549726654E+02  0.24981498880E+03  0.26421481612E+03  0.80419002446E+02 0.  1.
<mgrwt>
<rscale>  0 0.86034530E+02</rscale>
<asrwt>0</asrwt>
<pdfrwt beam="1">  1        2 0.21153588E+00 0.86034530E+02</pdfrwt>
<pdfrwt beam="2">  1       -2 0.13623293E-02 0.86034530E+02</pdfrwt>
<totfact> 0.20170781E+04</totfact>
</mgrwt>
</event>
<event>
 4    1  0.1293540E-001  0.1197133E+03  0.7546771E-02  0.1243571E+00
         -1   -1    0    0    0  501 -0.00000000000E+00  0.00000000000E+00  0.20877769415E+02  0.20877769415E+02  0.00000000000E+00 0.  1.
          1   -1    0    0  501    0  0.00000000000E+00 -0.00000000000E+00 -0.26317412896E+04  0.26317412896E+04  0.00000000000E+00 0. -1.
         24    1    1    2    0    0  0.68713868130E+02 -0.56057717616E+02 -0.16513724992E+03  0.20396467989E+03  0.80419002446E+02 0.  1.
        -24    1    1    2    0    0 -0.68713868130E+02  0.56057717616E+02 -0.24457262702E+04  0.24486543791E+04  0.80419002446E+02 0. -1.
<mgrwt>
<rscale>  0 0.11971332E+03</rscale>
<asrwt>0</asrwt>
<pdfrwt beam="1">  1        1 0.40488309E+00 0.11971332E+03</pdfrwt>
<pdfrwt beam="2">  1       -1 0.32119660E-02 0.11971332E+03</pdfrwt>
<totfact> 0.45817332E+02</totfact>
</mgrwt>
</event>
<event>
 4    1  0.1123525E-001  0.8432828E+02  0.7546771E-02  0.1317199E+00
         -2   -1    0    0    0  501 -0.00000000000E+00  0.00000000000E+00  0.65096003707E+01  0.65096003707E+01  0.00000000000E+00 0.  1.
          2   -1    0    0  501    0  0.00000000000E+00 -0.00000000000E+00 -0.15585230461E+04  0.15585230461E+04  0.00000000000E+00 0. -1.
         24    1    1    2    0    0  0.15147470798E+02  0.20361649080E+02 -0.12039387902E+04  0.12068885073E+04  0.80419002446E+02 0. -1.
        -24    1    1    2    0    0 -0.15147470798E+02 -0.20361649080E+02 -0.34807465558E+03  0.35814413919E+03  0.80419002446E+02 0.  1.
<mgrwt>
<rscale>  0 0.84328279E+02</rscale>
<asrwt>0</asrwt>
<pdfrwt beam="1">  1        2 0.23977301E+00 0.84328279E+02</pdfrwt>
<pdfrwt beam="2">  1       -2 0.10014760E-02 0.84328279E+02</pdfrwt>
<totfact> 0.25086696E+04</totfact>
</mgrwt>
</event>
<event>
 4    1  0.1123525E-001  0.1022991E+03  0.7546771E-02  0.1275534E+00
         -2   -1    0    0    0  501 -0.00000000000E+00  0.00000000000E+00  0.55474422304E+02  0.55474422304E+02  0.00000000000E+00 0.  1.
          2   -1    0    0  501    0  0.00000000000E+00 -0.00000000000E+00 -0.27011303649E+03  0.27011303649E+03  0.00000000000E+00 0. -1.
         24    1    1    2    0    0  0.31283200241E+02  0.54947672149E+02 -0.19672235675E+03  0.22173133944E+03  0.80419002446E+02 0. -1.
        -24    1    1    2    0    0 -0.31283200241E+02 -0.54947672149E+02 -0.17916257438E+02  0.10385611935E+03  0.80419002446E+02 0.  1.
<mgrwt>
<rscale>  0 0.10229908E+03</rscale>
<asrwt>0</asrwt>
<pdfrwt beam="1">  1        2 0.41555851E-01 0.10229908E+03</pdfrwt>
<pdfrwt beam="2">  1       -2 0.85345266E-02 0.10229908E+03</pdfrwt>
<totfact> 0.96767737E+03</totfact>
</mgrwt>
</event>
<event>
 4    1  0.1123525E-001  0.9528301E+02  0.7546771E-02  0.1290540E+00
          1   -1    0    0  501    0  0.00000000000E+00  0.00000000000E+00  0.13461989688E+02  0.13461989688E+02  0.00000000000E+00 0. -1.
         -1   -1    0    0    0  501 -0.00000000000E+00 -0.00000000000E+00 -0.68120010527E+03  0.68120010527E+03  0.00000000000E+00 0.  1.
         24    1    1    2    0    0  0.51087311724E+02 -0.13122220563E+01 -0.36855562087E+03  0.38067321547E+03  0.80419002446E+02 0.  1.
        -24    1    1    2    0    0 -0.51087311724E+02  0.13122220563E+01 -0.29918249470E+03  0.31398887948E+03  0.80419002446E+02 0. -1.
<mgrwt>
<rscale>  0 0.95283006E+02</rscale>
<asrwt>0</asrwt>
<pdfrwt beam="1">  1        1 0.20710756E-02 0.95283006E+02</pdfrwt>
<pdfrwt beam="2">  1       -1 0.10480000E+00 0.95283006E+02</pdfrwt>
<totfact> 0.48466392E+03</totfact>
</mgrwt>
</event>
<event>
 4    1  0.1123525E-001  0.1279604E+03  0.7546771E-02  0.1230514E+00
         -2   -1    0    0    0  501 -0.00000000000E+00  0.00000000000E+00  0.67149303224E+02  0.67149303224E+02  0.00000000000E+00 0.  1.
          2   -1    0    0  501    0  0.00000000000E+00 -0.00000000000E+00 -0.10311293372E+04  0.10311293372E+04  0.00000000000E+00 0. -1.
         24    1    1    2    0    0  0.93679639350E+02 -0.33626847889E+02 -0.96182560836E+03  0.97030013737E+03  0.80419002446E+02 0. -1.
        -24    1    1    2    0    0 -0.93679639350E+02  0.33626847889E+02 -0.21544255670E+01  0.12797850301E+03  0.80419002446E+02 0.  1.
<mgrwt>
<rscale>  0 0.12796037E+03</rscale>
<asrwt>0</asrwt>
<pdfrwt beam="1">  1        2 0.15863528E+00 0.12796037E+03</pdfrwt>
<pdfrwt beam="2">  1       -2 0.10330663E-01 0.12796037E+03</pdfrwt>
<totfact> 0.15781569E+03</totfact>
</mgrwt>
</event>
<event>
 4    1  0.1123525E-001  0.1165563E+03  0.7546771E-02  0.1248889E+00
          2   -1    0    0  501    0  0.00000000000E+00  0.00000000000E+00  0.57423473243E+03  0.57423473243E+03  0.00000000000E+00 0. -1.
         -2   -1    0    0    0  501 -0.00000000000E+00 -0.00000000000E+00 -0.39523646035E+02  0.39523646035E+02  0.00000000000E+00 0.  1.
         24    1    1    2    0    0  0.63729372474E+02 -0.55287570801E+02  0.46178630612E+03  0.47626878637E+03  0.80419002446E+02 0. -1.
        -24    1    1    2    0    0 -0.63729372474E+02  0.55287570801E+02  0.72924780278E+02  0.13748959209E+03  0.80419002446E+02 0.  1.
<mgrwt>
<rscale>  0 0.11655627E+03</rscale>
<asrwt>0</asrwt>
<pdfrwt beam="1">  1        2 0.88343799E-01 0.11655627E+03</pdfrwt>
<pdfrwt beam="2">  1       -2 0.60805614E-02 0.11655627E+03</pdfrwt>
<totfact> 0.73199504E+03</totfact>
</mgrwt>
</event>
<event>
 4    1  0.1123525E-001  0.1024498E+03  0.7546771E-02  0.1275227E+00
         -2   -1    0    0    0  501 -0.00000000000E+00  0.00000000000E+00  0.62701006169E+01  0.62701006169E+01  0.00000000000E+00 0.  1.
          2   -1    0    0  501    0  0.00000000000E+00 -0.00000000000E+00 -0.16817083126E+04  0.16817083126E+04  0.00000000000E+00 0. -1.
         24    1    1    2    0    0 -0.56903852085E+02  0.28119171485E+02 -0.78046306233E+03  0.78715852520E+03  0.80419002446E+02 0. -1.
        -24    1    1    2    0    0  0.56903852085E+02 -0.28119171485E+02 -0.89497514969E+03  0.90081988805E+03  0.80419002446E+02 0.  1.
<mgrwt>
<rscale>  0 0.10244977E+03</rscale>
<asrwt>0</asrwt>
<pdfrwt beam="1">  1        2 0.25872447E+00 0.10244978E+03</pdfrwt>
<pdfrwt beam="2">  1       -2 0.96463046E-03 0.10244978E+03</pdfrwt>
<totfact> 0.23247621E+04</totfact>
</mgrwt>
</event>
<event>
 4    1  0.1202777E-001  0.1070774E+03  0.7546771E-02  0.1266080E+00
         -1   -1    0    0    0  501 -0.00000000000E+00  0.00000000000E+00  0.14551493618E+03  0.14551493618E+03  0.00000000000E+00 0.  1.
          1   -1    0    0  501    0  0.00000000000E+00 -0.00000000000E+00 -0.33351120652E+03  0.33351120652E+03  0.00000000000E+00 0. -1.
         24    1    1    2    0    0 -0.55104463010E+00  0.70696868172E+02  0.11531859845E+03  0.15736564403E+03  0.80419002446E+02 0.  1.
        -24    1    1    2    0    0  0.55104463010E+00 -0.70696868172E+02 -0.30331486879E+03  0.32166049867E+03  0.80419002446E+02 0. -1.
<mgrwt>
<rscale>  0 0.10707739E+03</rscale>
<asrwt>0</asrwt>
<pdfrwt beam="1">  1        1 0.51309416E-01 0.10707739E+03</pdfrwt>
<pdfrwt beam="2">  1       -1 0.22386914E-01 0.10707739E+03</pdfrwt>
<totfact> 0.12603156E+03</totfact>
</mgrwt>
</event>
<event>
 4    1  0.1123525E-001  0.2675345E+03  0.7546771E-02  0.1102699E+00
          1   -1    0    0  501    0  0.00000000000E+00  0.00000000000E+00  0.24907233357E+03  0.24907233357E+03  0.00000000000E+00 0. -1.
         -1   -1    0    0    0  501 -0.00000000000E+00 -0.00000000000E+00 -0.28886490002E+03  0.28886490002E+03  0.00000000000E+00 0.  1.
         24    1    1    2    0    0  0.25401139255E+03 -0.24201374757E+02 -0.39276684568E+02  0.27040223370E+03  0.80419002446E+02 0.  1.
        -24    1    1    2    0    0 -0.25401139255E+03  0.24201374757E+02 -0.51588188210E+00  0.26753499990E+03  0.80419002446E+02 0. -1.
<mgrwt>
<rscale>  0 0.26753450E+03</rscale>
<asrwt>0</asrwt>
<pdfrwt beam="1">  1        1 0.38318821E-01 0.26753450E+03</pdfrwt>
<pdfrwt beam="2">  1       -1 0.44440754E-01 0.26753450E+03</pdfrwt>
<totfact> 0.56859001E+02</totfact>
</mgrwt>
</event>
<event>
 4    1  0.1123525E-001  0.9003726E+02  0.7546771E-02  0.1302761E+00
         -1   -1    0    0    0  501 -0.00000000000E+00  0.00000000000E+00  0.52572114860E+03  0.52572114860E+03  0.00000000000E+00 0.  1.
          1   -1    0    0  501    0  0.00000000000E+00 -0.00000000000E+00 -0.15587690668E+02  0.15587690668E+02  0.00000000000E+00 0. -1.
         24    1    1    2    0    0  0.23896445990E+02  0.32687180922E+02  0.28312509540E+03  0.29709683190E+03  0.80419002446E+02 0. -1.
        -24    1    1    2    0    0 -0.23896445990E+02 -0.32687180922E+02  0.22700836254E+03  0.24421200737E+03  0.80419002446E+02 0.  1.
<mgrwt>
<rscale>  0 0.90037258E+02</rscale>
<asrwt>0</asrwt>
<pdfrwt beam="1">  1        1 0.23981067E-02 0.90037258E+02</pdfrwt>
<pdfrwt beam="2">  1       -1 0.80880163E-01 0.90037258E+02</pdfrwt>
<totfact> 0.68248442E+03</totfact>
</mgrwt>
</event>
<event>
 4    1  0.1123525E-001  0.1617503E+03  0.7546771E-02  0.1186735E+00
          1   -1    0    0  501    0  0.00000000000E+00  0.00000000000E+00  0.53561524211E+02  0.53561524211E+02  0.00000000000E+00 0. -1.
         -1   -1    0    0    0  501 -0.00000000000E+00 -0.00000000000E+00 -0.49521657043E+03  0.49521657043E+03  0.00000000000E+00 0.  1.
         24    1    1    2    0    0  0.43515512914E+02  0.13342546845E+03 -0.25285527895E+03  0.30016489392E+03  0.80419002446E+02 0.  1.
        -24    1    1    2    0    0 -0.43515512914E+02 -0.13342546845E+03 -0.18879976727E+03  0.24861320072E+03  0.80419002446E+02 0. -1.
<mgrwt>
<rscale>  0 0.16175034E+03</rscale>
<asrwt>0</asrwt>
<pdfrwt beam="1">  1        1 0.82402345E-02 0.16175034E+03</pdfrwt>
<pdfrwt beam="2">  1       -1 0.76187165E-01 0.16175034E+03</pdfrwt>
<totfact> 0.14822899E+03</totfact>
</mgrwt>
</event>
<event>
 4    1  0.1123525E-001  0.1141545E+03  0.7546771E-02  0.1253064E+00
         -2   -1    0    0    0  501 -0.00000000000E+00  0.00000000000E+00  0.74445816219E+01  0.74445816219E+01  0.00000000000E+00 0.  1.
          2   -1    0    0  501    0  0.00000000000E+00 -0.00000000000E+00 -0.18124195841E+04  0.18124195841E+04  0.00000000000E+00 0. -1.
         24    1    1    2    0    0  0.77345170334E+02  0.24119470336E+02 -0.10707661457E+04  0.10768339607E+04  0.80419002446E+02 0. -1.
        -24    1    1    2    0    0 -0.77345170334E+02 -0.24119470336E+02 -0.73420885683E+03  0.74303020505E+03  0.80419002446E+02 0.  1.
<mgrwt>
<rscale>  0 0.11415446E+03</rscale>
<asrwt>0</asrwt>
<pdfrwt beam="1">  1        2 0.27883410E+00 0.11415446E+03</pdfrwt>
<pdfrwt beam="2">  1       -2 0.11453189E-02 0.11415446E+03</pdfrwt>
<totfact> 0.15734680E+04</totfact>
</mgrwt>
</event>
<event>
 4    1  0.1123525E-001  0.8522686E+02  0.7546771E-02  0.1314840E+00
          2   -1    0    0  501    0  0.00000000000E+00  0.00000000000E+00  0.37115092891E+03  0.37115092891E+03  0.00000000000E+00 0. -1.
         -2   -1    0    0    0  501 -0.00000000000E+00 -0.00000000000E+00 -0.26971194514E+02  0.26971194514E+02  0.00000000000E+00 0.  1.
         24    1    1    2    0    0  0.27291731172E+01  0.28088310298E+02  0.27636285343E+03  0.28920588561E+03  0.80419002446E+02 0. -1.
        -24    1    1    2    0    0 -0.27291731172E+01 -0.28088310298E+02  0.67816880965E+02  0.10891623781E+03  0.80419002446E+02 0.  1.
<mgrwt>
<rscale>  0 0.85226859E+02</rscale>
<asrwt>0</asrwt>
<pdfrwt beam="1">  1        2 0.57100139E-01 0.85226859E+02</pdfrwt>
<pdfrwt beam="2">  1       -2 0.41494148E-02 0.85226859E+02</pdfrwt>
<totfact> 0.20149919E+04</totfact>
</mgrwt>
</event>
<event>
 4    1  0.1123525E-001  0.1488272E+03  0.7546771E-02  0.1201922E+00
          1   -1    0    0  501    0  0.00000000000E+00  0.00000000000E+00  0.11087251386E+03  0.11087251386E+03  0.00000000000E+00 0. -1.
         -1   -1    0    0    0  501 -0.00000000000E+00 -0.00000000000E+00 -0.31261362037E+03  0.31261362037E+03  0.00000000000E+00 0.  1.
         24    1    1    2    0    0  0.52171130414E+02  0.11384412077E+03 -0.22808447842E+03  0.27234547166E+03  0.80419002446E+02 0. -1.
        -24    1    1    2    0    0 -0.52171130414E+02 -0.11384412077E+03  0.26343371908E+02  0.15114066257E+03  0.80419002446E+02 0.  0.
<mgrwt>
<rscale>  0 0.14882717E+03</rscale>
<asrwt>0</asrwt>
<pdfrwt beam="1">  1        1 0.17057310E-01 0.14882717E+03</pdfrwt>
<pdfrwt beam="2">  1       -1 0.48094403E-01 0.14882717E+03</pdfrwt>
<totfact> 0.13669139E+03</totfact>
</mgrwt>
</event>
<event>
 4    1  0.1123525E-001  0.8125303E+02  0.7546771E-02  0.1325533E+00
         -2   -1    0    0    0  501 -0.00000000000E+00  0.00000000000E+00  0.85496742479E+02  0.85496742479E+02  0.00000000000E+00 0.  1.
          2   -1    0    0  501    0  0.00000000000E+00 -0.00000000000E+00 -0.13893401026E+03  0.13893401026E+03  0.00000000000E+00 0. -1.
         24    1    1    2    0    0  0.11597752167E+02 -0.57603502081E+00 -0.10150804011E+03  0.13002283581E+03  0.80419002446E+02 0. -1.
        -24    1    1    2    0    0 -0.11597752167E+02  0.57603502081E+00  0.48070772328E+02  0.94407916926E+02  0.80419002446E+02 0.  1.
<mgrwt>
<rscale>  0 0.81253035E+02</rscale>
<asrwt>0</asrwt>
<pdfrwt beam="1">  1        2 0.21374463E-01 0.81253035E+02</pdfrwt>
<pdfrwt beam="2">  1       -2 0.13153345E-01 0.81253035E+02</pdfrwt>
<totfact> 0.98368403E+03</totfact>
</mgrwt>
</event>
<event>
 4    1  0.1123525E-001  0.9494303E+02  0.7546771E-02  0.1291304E+00
         -3   -1    0    0    0  501 -0.00000000000E+00  0.00000000000E+00  0.33683930048E+03  0.33683930048E+03  0.00000000000E+00 0.  1.
          3   -1    0    0  501    0  0.00000000000E+00 -0.00000000000E+00 -0.27743200348E+02  0.27743200348E+02  0.00000000000E+00 0. -1.
         24    1    1    2    0    0  0.19474287305E+02 -0.46558684624E+02  0.12024952058E+03  0.15321266963E+03  0.80419002446E+02 0.  0.
        -24    1    1    2    0    0 -0.19474287305E+02  0.46558684624E+02  0.18884657955E+03  0.21136983120E+03  0.80419002446E+02 0. -1.
<mgrwt>
<rscale>  0 0.94943021E+02</rscale>
<asrwt>0</asrwt>
<pdfrwt beam="1">  1        3 0.42681849E-02 0.94943033E+02</pdfrwt>
<pdfrwt beam="2">  1       -3 0.51821428E-01 0.94943033E+02</pdfrwt>
<totfact> 0.23304470E+03</totfact>
</mgrwt>
</event>
<event>
 4    1  0.1123525E-001  0.8348872E+02  0.7546771E-02  0.1319433E+00
          1   -1    0    0  501    0  0.00000000000E+00  0.00000000000E+00  0.10106119086E+04  0.10106119086E+04  0.00000000000E+00 0. -1.
         -1   -1    0    0    0  501 -0.00000000000E+00 -0.00000000000E+00 -0.21014812688E+02  0.21014812688E+02  0.00000000000E+00 0.  1.
         24    1    1    2    0    0 -0.20090716943E+02 -0.99756233719E+01  0.72022026883E+02  0.11026122745E+03  0.80419002446E+02 0.  1.
        -24    1    1    2    0    0  0.20090716943E+02  0.99756233719E+01  0.91757506901E+03  0.92136549381E+03  0.80419002446E+02 0. -1.
<mgrwt>
<rscale>  0 0.83488717E+02</rscale>
<asrwt>0</asrwt>
<pdfrwt beam="1">  1        1 0.15547872E+00 0.83488717E+02</pdfrwt>
<pdfrwt beam="2">  1       -1 0.32330489E-02 0.83488717E+02</pdfrwt>
<totfact> 0.50588349E+03</totfact>
</mgrwt>
</event>
<event>
 4    1  0.1123525E-001  0.1222051E+03  0.7546771E-02  0.1239503E+00
         -2   -1    0    0    0  501 -0.00000000000E+00  0.00000000000E+00  0.11321600583E+02  0.11321600583E+02  0.00000000000E+00 0.  1.
          2   -1    0    0  501    0  0.00000000000E+00 -0.00000000000E+00 -0.13255640659E+04  0.13255640659E+04  0.00000000000E+00 0. -1.
         24    1    1    2    0    0 -0.83163026352E+02  0.39379930560E+02 -0.61036642813E+03  0.62247992773E+03  0.80419002446E+02 0.  0.
        -24    1    1    2    0    0  0.83163026352E+02 -0.39379930560E+02 -0.70387603718E+03  0.71440573874E+03  0.80419002446E+02 0. -1.
<mgrwt>
<rscale>  0 0.12220510E+03</rscale>
<asrwt>0</asrwt>
<pdfrwt beam="1">  1        2 0.20393287E+00 0.12220512E+03</pdfrwt>
<pdfrwt beam="2">  1       -2 0.17417852E-02 0.12220512E+03</pdfrwt>
<totfact> 0.15429356E+04</totfact>
</mgrwt>
</event>
<event>
 4    1  0.1123525E-001  0.1176771E+03  0.7546771E-02  0.1246979E+00
          1   -1    0    0  501    0  0.00000000000E+00  0.00000000000E+00  0.60956585088E+03  0.60956585088E+03  0.00000000000E+00 0. -1.
         -1   -1    0    0    0  501 -0.00000000000E+00 -0.00000000000E+00 -0.25908448308E+02  0.25908448308E+02  0.00000000000E+00 0.  1.
         24    1    1    2    0    0  0.40951285174E+02 -0.75522715335E+02  0.18032304348E+03  0.21532371967E+03  0.80419002446E+02 0.  1.
        -24    1    1    2    0    0 -0.40951285174E+02  0.75522715335E+02  0.40333435909E+03  0.42015057952E+03  0.80419002446E+02 0. -1.
<mgrwt>
<rscale>  0 0.11767712E+03</rscale>
<asrwt>0</asrwt>
<pdfrwt beam="1">  1        1 0.93779351E-01 0.11767712E+03</pdfrwt>
<pdfrwt beam="2">  1       -1 0.39859156E-02 0.11767712E+03</pdfrwt>
<totfact> 0.80807938E+03</totfact>
</mgrwt>
</event>
<event>
 4    1  0.1123525E-001  0.8517663E+02  0.7546771E-02  0.1314971E+00
         -2   -1    0    0    0  501 -0.00000000000E+00  0.00000000000E+00  0.24070394094E+01  0.24070394094E+01  0.00000000000E+00 0.  1.
          2   -1    0    0  501    0  0.00000000000E+00 -0.00000000000E+00 -0.30667782584E+04  0.30667782584E+04  0.00000000000E+00 0. -1.
         24    1    1    2    0    0  0.24961464434E+02 -0.12836172844E+02 -0.17333109331E+04  0.17354025034E+04  0.80419002446E+02 0.  1.
        -24    1    1    2    0    0 -0.24961464434E+02  0.12836172844E+02 -0.13310602859E+04  0.13337827944E+04  0.80419002446E+02 0.  0.
<mgrwt>
<rscale>  0 0.85176628E+02</rscale>
<asrwt>0</asrwt>
<pdfrwt beam="1">  1        2 0.47180741E+00 0.85176628E+02</pdfrwt>
<pdfrwt beam="2">  1       -2 0.37031739E-03 0.85176628E+02</pdfrwt>
<totfact> 0.16572001E+04</totfact>
</mgrwt>
</event>
<event>
 4    1  0.1123525E-001  0.1183918E+03  0.7546771E-02  0.1245774E+00
         -1   -1    0    0    0  501 -0.00000000000E+00  0.00000000000E+00  0.60289439710E+01  0.60289439710E+01  0.00000000000E+00 0.  1.
          1   -1    0    0  501    0  0.00000000000E+00 -0.00000000000E+00 -0.23498333968E+04  0.23498333968E+04  0.00000000000E+00 0. -1.
         24    1    1    2    0    0 -0.62073461358E+02 -0.60797057474E+02 -0.10505336357E+04  0.10571837742E+04  0.80419002446E+02 0. -1.
        -24    1    1    2    0    0  0.62073461358E+02  0.60797057474E+02 -0.12932708172E+04  0.12986785666E+04  0.80419002446E+02 0.  0.
<mgrwt>
<rscale>  0 0.11839178E+03</rscale>
<asrwt>0</asrwt>
<pdfrwt beam="1">  1        1 0.36151259E+00 0.11839178E+03</pdfrwt>
<pdfrwt beam="2">  1       -1 0.92753046E-03 0.11839178E+03</pdfrwt>
<totfact> 0.41489198E+03</totfact>
</mgrwt>
</event>
<event>
 4    1  0.1123525E-001  0.1487300E+03  0.7546771E-02  0.1202042E+00
         -2   -1    0    0    0  501 -0.00000000000E+00  0.00000000000E+00  0.97972429158E+02  0.97972429158E+02  0.00000000000E+00 0.  1.
          2   -1    0    0  501    0  0.00000000000E+00 -0.00000000000E+00 -0.39119225137E+03  0.39119225137E+03  0.00000000000E+00 0. -1.
         24    1    1    2    0    0  0.12400467108E+03 -0.16620638234E+02 -0.30565064984E+03  0.33991607754E+03  0.80419002446E+02 0. -1.
        -24    1    1    2    0    0 -0.12400467108E+03  0.16620638234E+02  0.12430827632E+02  0.14924860299E+03  0.80419002446E+02 0.  1.
<mgrwt>
<rscale>  0 0.14873002E+03</rscale>
<asrwt>0</asrwt>
<pdfrwt beam="1">  1        2 0.60183424E-01 0.14873002E+03</pdfrwt>
<pdfrwt beam="2">  1       -2 0.15072681E-01 0.14873002E+03</pdfrwt>
<totfact> 0.27131223E+03</totfact>
</mgrwt>
</event>
<event>
 4    1  0.1123525E-001  0.1420133E+03  0.7546771E-02  0.1210645E+00
         -3   -1    0    0    0  501 -0.00000000000E+00  0.00000000000E+00  0.27960246061E+04  0.27960246061E+04  0.00000000000E+00 0.  1.
          3   -1    0    0  501    0  0.00000000000E+00 -0.00000000000E+00 -0.75486007509E+01  0.75486007509E+01  0.00000000000E+00 0. -1.
         24    1    1    2    0    0 -0.11266180686E+03 -0.31747152579E+02  0.16897992127E+04  0.16957562206E+04  0.80419002446E+02 0.  0.
        -24    1    1    2    0    0  0.11266180686E+03  0.31747152579E+02  0.10986767926E+04  0.11078169863E+04  0.80419002446E+02 0.  0.
<mgrwt>
<rscale>  0 0.14201331E+03</rscale>
<asrwt>0</asrwt>
<pdfrwt beam="1">  1        3 0.11613254E-02 0.14201331E+03</pdfrwt>
<pdfrwt beam="2">  1       -3 0.43015681E+00 0.14201331E+03</pdfrwt>
<totfact> 0.48037352E+01</totfact>
</mgrwt>
</event>
<event>
 4    1  0.1123525E-001  0.8443658E+02  0.7546771E-02  0.1316913E+00
         -1   -1    0    0    0  501 -0.00000000000E+00  0.00000000000E+00  0.12024429268E+02  0.12024429268E+02  0.00000000000E+00 0.  1.
          1   -1    0    0  501    0  0.00000000000E+00 -0.00000000000E+00 -0.73899120395E+03  0.73899120395E+03  0.00000000000E+00 0. -1.
         24    1    1    2    0    0 -0.13043783124E+02 -0.22185137488E+02 -0.19653578991E+03  0.21390617867E+03  0.80419002446E+02 0.  1.
        -24    1    1    2    0    0  0.13043783124E+02  0.22185137488E+02 -0.53043098478E+03  0.53710945455E+03  0.80419002446E+02 0. -1.
<mgrwt>
<rscale>  0 0.84436583E+02</rscale>
<asrwt>0</asrwt>
<pdfrwt beam="1">  1        1 0.11369099E+00 0.84436583E+02</pdfrwt>
<pdfrwt beam="2">  1       -1 0.18499116E-02 0.84436583E+02</pdfrwt>
<totfact> 0.18192716E+04</totfact>
</mgrwt>
</event>
<event>
 4    1  0.1123525E-001  0.1146164E+03  0.7546771E-02  0.1252252E+00
         -1   -1    0    0    0  501 -0.00000000000E+00  0.00000000000E+00  0.13523780610E+02  0.13523780610E+02  0.00000000000E+00 0.  1.
          1   -1    0    0  501    0  0.00000000000E+00 -0.00000000000E+00 -0.97935798460E+03  0.97935798460E+03  0.00000000000E+00 0. -1.
         24    1    1    2    0    0  0.77235210106E+02  0.26540888888E+02 -0.43814824867E+03  0.45289159876E+03  0.80419002446E+02 0.  1.
        -24    1    1    2    0    0 -0.77235210106E+02 -0.26540888888E+02 -0.52768595531E+03  0.53999016644E+03  0.80419002446E+02 0.  0.
<mgrwt>
<rscale>  0 0.11461637E+03</rscale>
<asrwt>0</asrwt>
<pdfrwt beam="1">  1        1 0.15067044E+00 0.11461637E+03</pdfrwt>
<pdfrwt beam="2">  1       -1 0.20805819E-02 0.11461637E+03</pdfrwt>
<totfact> 0.10229336E+04</totfact>
</mgrwt>
</event>
<event>
 4    1  0.1123525E-001  0.8918536E+02  0.7546771E-02  0.1304837E+00
          4   -1    0    0  501    0  0.00000000000E+00  0.00000000000E+00  0.18855604994E+02  0.18855604994E+02  0.00000000000E+00 0. -1.
         -4   -1    0    0    0  501 -0.00000000000E+00 -0.00000000000E+00 -0.10673174651E+04  0.10673174651E+04  0.00000000000E+00 0.  1.
         24    1    1    2    0    0  0.21692020943E+02  0.31878973305E+02 -0.10189004866E+03  0.13540904948E+03  0.80419002446E+02 0. -1.
        -24    1    1    2    0    0 -0.21692020943E+02 -0.31878973305E+02 -0.94657181147E+03  0.95076402063E+03  0.80419002446E+02 0.  1.
<mgrwt>
<rscale>  0 0.89185361E+02</rscale>
<asrwt>0</asrwt>
<pdfrwt beam="1">  1        4 0.29008623E-02 0.89185361E+02</pdfrwt>
<pdfrwt beam="2">  1       -4 0.16420269E+00 0.89185361E+02</pdfrwt>
<totfact> 0.22145129E+02</totfact>
</mgrwt>
</event>
<event>
 4    1  0.1339299E-001  0.8285095E+02  0.7546771E-02  0.1321150E+00
          1   -1    0    0  501    0  0.00000000000E+00  0.00000000000E+00  0.15834604950E+04  0.15834604950E+04  0.00000000000E+00 0. -1.
         -1   -1    0    0    0  501 -0.00000000000E+00 -0.00000000000E+00 -0.13193114202E+02  0.13193114202E+02  0.00000000000E+00 0.  1.
         24    1    1    2    0    0  0.16632675905E+02 -0.10973550330E+02  0.13098269501E+03  0.15498628024E+03  0.80419002446E+02 0.  1.
        -24    1    1    2    0    0 -0.16632675905E+02  0.10973550330E+02  0.14392846858E+04  0.14416673290E+04  0.80419002446E+02 0.  0.
<mgrwt>
<rscale>  0 0.82850955E+02</rscale>
<asrwt>0</asrwt>
<pdfrwt beam="1">  1        1 0.24360916E+00 0.82850955E+02</pdfrwt>
<pdfrwt beam="2">  1       -1 0.20297111E-02 0.82850955E+02</pdfrwt>
<totfact> 0.41163445E+03</totfact>
</mgrwt>
</event>
<event>
 4    1  0.1123525E-001  0.8375239E+02  0.7546771E-02  0.1318728E+00
         -2   -1    0    0    0  501 -0.00000000000E+00  0.00000000000E+00  0.11822367728E+02  0.11822367728E+02  0.00000000000E+00 0.  1.
          2   -1    0    0  501    0  0.00000000000E+00 -0.00000000000E+00 -0.39635407128E+04  0.39635407128E+04  0.00000000000E+00 0. -1.
         24    1    1    2    0    0 -0.23349710083E+02 -0.14275574855E+01 -0.38087400036E+04  0.38096607300E+04  0.80419002446E+02 0. -1.
        -24    1    1    2    0    0  0.23349710083E+02  0.14275574855E+01 -0.14297834151E+03  0.16570235055E+03  0.80419002446E+02 0.  1.
<mgrwt>
<rscale>  0 0.83752390E+02</rscale>
<asrwt>0</asrwt>
<pdfrwt beam="1">  1        2 0.60977575E+00 0.83752390E+02</pdfrwt>
<pdfrwt beam="2">  1       -2 0.18188250E-02 0.83752390E+02</pdfrwt>
<totfact> 0.46653275E+02</totfact>
</mgrwt>
</event>
<event>
 4    1  0.1123525E-001  0.9085644E+02  0.7546771E-02  0.1300791E+00
         -1   -1    0    0    0  501 -0.00000000000E+00  0.00000000000E+00  0.10948233448E+02  0.10948233448E+02  0.00000000000E+00 0.  1.
          1   -1    0    0  501    0  0.00000000000E+00 -0.00000000000E+00 -0.14563837561E+04  0.14563837561E+04  0.00000000000E+00 0. -1.
         24    1    1    2    0    0  0.18691945165E+02  0.37924758128E+02 -0.21321111708E+03  0.23176253471E+03  0.80419002446E+02 0.  1.
        -24    1    1    2    0    0 -0.18691945165E+02 -0.37924758128E+02 -0.12322244056E+04  0.12355694549E+04  0.80419002446E+02 0. -1.
<mgrwt>
<rscale>  0 0.90856436E+02</rscale>
<asrwt>0</asrwt>
<pdfrwt beam="1">  1        1 0.22405907E+00 0.90856436E+02</pdfrwt>
<pdfrwt beam="2">  1       -1 0.16843434E-02 0.90856436E+02</pdfrwt>
<totfact> 0.64886889E+03</totfact>
</mgrwt>
</event>
<event>
 4    1  0.1123525E-001  0.1015647E+03  0.7546771E-02  0.1277040E+00
          3   -1    0    0  501    0  0.00000000000E+00  0.00000000000E+00  0.38163016632E+02  0.38163016632E+02  0.00000000000E+00 0. -1.
         -3   -1    0    0    0  501 -0.00000000000E+00 -0.00000000000E+00 -0.28322388373E+03  0.28322388373E+03  0.00000000000E+00 0.  1.
         24    1    1    2    0    0 -0.41653021890E+01 -0.61893631204E+02 -0.15685960078E+03  0.18686979862E+03  0.80419002446E+02 0. -1.
        -24    1    1    2    0    0  0.41653021890E+01  0.61893631204E+02 -0.88201266321E+02  0.13451710174E+03  0.80419002446E+02 0.  1.
<mgrwt>
<rscale>  0 0.10156470E+03</rscale>
<asrwt>0</asrwt>
<pdfrwt beam="1">  1        3 0.58712334E-02 0.10156470E+03</pdfrwt>
<pdfrwt beam="2">  1       -3 0.43572905E-01 0.10156470E+03</pdfrwt>
<totfact> 0.20122595E+03</totfact>
</mgrwt>
</event>
<event>
 4    1  0.1123525E-001  0.9621911E+02  0.7546771E-02  0.1288454E+00
         -1   -1    0    0    0  501 -0.00000000000E+00  0.00000000000E+00  0.26397320521E+03  0.26397320521E+03  0.00000000000E+00 0.  1.
          1   -1    0    0  501    0  0.00000000000E+00 -0.00000000000E+00 -0.42759241967E+02  0.42759241967E+02  0.00000000000E+00 0. -1.
         24    1    1    2    0    0  0.34364470453E+02 -0.40124609489E+02  0.17563414009E+03  0.20026349701E+03  0.80419002446E+02 0.  1.
        -24    1    1    2    0    0 -0.34364470453E+02  0.40124609489E+02  0.45579823154E+02  0.10646895017E+03  0.80419002446E+02 0. -1.
<mgrwt>
<rscale>  0 0.96219110E+02</rscale>
<asrwt>0</asrwt>
<pdfrwt beam="1">  1        1 0.65783451E-02 0.96219110E+02</pdfrwt>
<pdfrwt beam="2">  1       -1 0.40611261E-01 0.96219110E+02</pdfrwt>
<totfact> 0.63123091E+03</totfact>
</mgrwt>
</event>
<event>
 4    1  0.1123525E-001  0.9201185E+02  0.7546771E-02  0.1298052E+00
         -2   -1    0    0    0  501 -0.00000000000E+00  0.00000000000E+00  0.84726135518E+02  0.84726135518E+02  0.00000000000E+00 0.  1.
          2   -1    0    0  501    0  0.00000000000E+00 -0.00000000000E+00 -0.16154583789E+03  0.16154583789E+03  0.00000000000E+00 0. -1.
         24    1    1    2    0    0 -0.14880331371E+02 -0.42160894098E+02 -0.11446071428E+03  0.14685855890E+03  0.80419002446E+02 0. -1.
        -24    1    1    2    0    0  0.14880331371E+02  0.42160894098E+02  0.37641011910E+02  0.99413414512E+02  0.80419002446E+02 0.  1.
<mgrwt>
<rscale>  0 0.92011854E+02</rscale>
<asrwt>0</asrwt>
<pdfrwt beam="1">  1        2 0.24853205E-01 0.92011854E+02</pdfrwt>
<pdfrwt beam="2">  1       -2 0.13034790E-01 0.92011854E+02</pdfrwt>
<totfact> 0.85549544E+03</totfact>
</mgrwt>
</event>
<event>
 4    1  0.1123525E-001  0.1017712E+03  0.7546771E-02  0.1276615E+00
          2   -1    0    0  501    0  0.00000000000E+00  0.00000000000E+00  0.53731689951E+03  0.53731689951E+03  0.00000000000E+00 0. -1.
         -2   -1    0    0    0  501 -0.00000000000E+00 -0.00000000000E+00 -0.33337452614E+02  0.33337452614E+02  0.00000000000E+00 0.  1.
         24    1    1    2    0    0  0.59799290617E+02  0.17725630930E+02  0.43729621388E+03  0.44898256957E+03  0.80419002446E+02 0. -1.
        -24    1    1    2    0    0 -0.59799290617E+02 -0.17725630930E+02  0.66683233018E+02  0.12167178256E+03  0.80419002446E+02 0.  1.
<mgrwt>
<rscale>  0 0.10177116E+03</rscale>
<asrwt>0</asrwt>
<pdfrwt beam="1">  1        2 0.82664132E-01 0.10177116E+03</pdfrwt>
<pdfrwt beam="2">  1       -2 0.51288393E-02 0.10177116E+03</pdfrwt>
<totfact> 0.10079329E+04</totfact>
</mgrwt>
</event>
<event>
 4    1  0.1123525E-001  0.9651142E+02  0.7546771E-02  0.1287808E+00
          2   -1    0    0  501    0  0.00000000000E+00  0.00000000000E+00  0.35866531321E+03  0.35866531321E+03  0.00000000000E+00 0. -1.
         -2   -1    0    0    0  501 -0.00000000000E+00 -0.00000000000E+00 -0.26346356415E+02  0.26346356415E+02  0.00000000000E+00 0.  1.
         24    1    1    2    0    0 -0.53194433616E+02  0.41940317076E+01  0.18917491742E+03  0.21237137991E+03  0.80419002446E+02 0.  0.
        -24    1    1    2    0    0  0.53194433616E+02 -0.41940317076E+01  0.14314403938E+03  0.17264028971E+03  0.80419002446E+02 0.  1.
<mgrwt>
<rscale>  0 0.96511417E+02</rscale>
<asrwt>0</asrwt>
<pdfrwt beam="1">  1        2 0.55179275E-01 0.96511417E+02</pdfrwt>
<pdfrwt beam="2">  1       -2 0.40532859E-02 0.96511417E+02</pdfrwt>
<totfact> 0.21902617E+04</totfact>
</mgrwt>
</event>
<event>
 4    1  0.1123525E-001  0.1095931E+03  0.7546771E-02  0.1261325E+00
          2   -1    0    0  501    0  0.00000000000E+00  0.00000000000E+00  0.13603459967E+04  0.13603459967E+04  0.00000000000E+00 0. -1.
         -2   -1    0    0    0  501 -0.00000000000E+00 -0.00000000000E+00 -0.88292843900E+01  0.88292843900E+01  0.00000000000E+00 0.  1.
         24    1    1    2    0    0 -0.37582454255E+02 -0.64272717858E+02  0.67268170232E+03  0.68155066702E+03  0.80419002446E+02 0. -1.
        -24    1    1    2    0    0  0.37582454255E+02  0.64272717858E+02  0.67883501000E+03  0.68762461408E+03  0.80419002446E+02 0.  0.
<mgrwt>
<rscale>  0 0.10959307E+03</rscale>
<asrwt>0</asrwt>
<pdfrwt beam="1">  1        2 0.20928383E+00 0.10959309E+03</pdfrwt>
<pdfrwt beam="2">  1       -2 0.13583525E-02 0.10959309E+03</pdfrwt>
<totfact> 0.20986921E+04</totfact>
</mgrwt>
</event>
<event>
 4    1  0.1123525E-001  0.8141524E+02  0.7546771E-02  0.1325083E+00
         -2   -1    0    0    0  501 -0.00000000000E+00  0.00000000000E+00  0.29967164137E+03  0.29967164137E+03  0.00000000000E+00 0.  1.
          2   -1    0    0  501    0  0.00000000000E+00 -0.00000000000E+00 -0.30971000982E+02  0.30971000982E+02  0.00000000000E+00 0. -1.
         24    1    1    2    0    0 -0.12556536661E+01  0.12635185537E+02  0.45966720280E+02  0.93495346982E+02  0.80419002446E+02 0. -1.
        -24    1    1    2    0    0  0.12556536661E+01 -0.12635185537E+02  0.22273392011E+03  0.23714729537E+03  0.80419002446E+02 0.  1.
<mgrwt>
<rscale>  0 0.81415235E+02</rscale>
<asrwt>0</asrwt>
<pdfrwt beam="1">  1        2 0.47647696E-02 0.81415235E+02</pdfrwt>
<pdfrwt beam="2">  1       -2 0.46103327E-01 0.81415235E+02</pdfrwt>
<totfact> 0.68013962E+03</totfact>
</mgrwt>
</event>
<event>
 4    1  0.1123525E-001  0.1002716E+03  0.7546771E-02  0.1279726E+00
         -1   -1    0    0    0  501 -0.00000000000E+00  0.00000000000E+00  0.17382465531E+03  0.17382465531E+03  0.00000000000E+00 0.  1.
          1   -1    0    0  501    0  0.00000000000E+00 -0.00000000000E+00 -0.66877532352E+02  0.66877532352E+02  0.00000000000E+00 0. -1.
         24    1    1    2    0    0  0.48703170401E+02  0.34859291482E+02  0.97710405203E+02  0.14000610076E+03  0.80419002446E+02 0. -1.
        -24    1    1    2    0    0 -0.48703170401E+02 -0.34859291482E+02  0.92367177603E+01  0.10069608691E+03  0.80419002446E+02 0.  1.
<mgrwt>
<rscale>  0 0.10027156E+03</rscale>
<asrwt>0</asrwt>
<pdfrwt beam="1">  1        1 0.10288851E-01 0.10027156E+03</pdfrwt>
<pdfrwt beam="2">  1       -1 0.26742254E-01 0.10027156E+03</pdfrwt>
<totfact> 0.70873214E+03</totfact>
</mgrwt>
</event>
<event>
 4    1  0.1123525E-001  0.8093272E+02  0.7546771E-02  0.1326425E+00
         -2   -1    0    0    0  501 -0.00000000000E+00  0.00000000000E+00  0.34238666064E+01  0.34238666064E+01  0.00000000000E+00 0.  1.
          2   -1    0    0  501    0  0.00000000000E+00 -0.00000000000E+00 -0.28911388876E+04  0.28911388876E+04  0.00000000000E+00 0. -1.
         24    1    1    2    0    0  0.61519091444E+01  0.67114646912E+01 -0.22856452986E+04  0.22870777286E+04  0.80419002446E+02 0.  0.
        -24    1    1    2    0    0 -0.61519091444E+01 -0.67114646912E+01 -0.60206972240E+03  0.60748502560E+03  0.80419002446E+02 0.  1.
<mgrwt>
<rscale>  0 0.80932723E+02</rscale>
<asrwt>0</asrwt>
<pdfrwt beam="1">  1        2 0.44479112E+00 0.80932723E+02</pdfrwt>
<pdfrwt beam="2">  1       -2 0.52674809E-03 0.80932723E+02</pdfrwt>
<totfact> 0.12714272E+04</totfact>
</mgrwt>
</event>
<event>
 4    1  0.1123525E-001  0.8822173E+02  0.7546771E-02  0.1307216E+00
          2   -1    0    0  501    0  0.00000000000E+00  0.00000000000E+00  0.35349583223E+03  0.35349583223E+03  0.00000000000E+00 0. -1.
         -2   -1    0    0    0  501 -0.00000000000E+00 -0.00000000000E+00 -0.24063251753E+02  0.24063251753E+02  0.00000000000E+00 0.  1.
         24    1    1    2    0    0  0.13815875306E+02  0.33540698279E+02  0.21976038662E+03  0.23680730634E+03  0.80419002446E+02 0. -1.
        -24    1    1    2    0    0 -0.13815875306E+02 -0.33540698279E+02  0.10967219385E+03  0.14075177765E+03  0.80419002446E+02 0.  1.
<mgrwt>
<rscale>  0 0.88221725E+02</rscale>
<asrwt>0</asrwt>
<pdfrwt beam="1">  1        2 0.54383970E-01 0.88221725E+02</pdfrwt>
<pdfrwt beam="2">  1       -2 0.37020390E-02 0.88221725E+02</pdfrwt>
<totfact> 0.25162562E+04</totfact>
</mgrwt>
</event>
<event>
 4    1  0.1123525E-001  0.9357222E+02  0.7546771E-02  0.1294425E+00
         -2   -1    0    0    0  501 -0.00000000000E+00  0.00000000000E+00  0.20672928335E+02  0.20672928335E+02  0.00000000000E+00 0.  1.
          2   -1    0    0  501    0  0.00000000000E+00 -0.00000000000E+00 -0.12349062763E+04  0.12349062763E+04  0.00000000000E+00 0. -1.
         24    1    1    2    0    0  0.37027185184E+02  0.30290794202E+02 -0.11159859872E+04  0.11199019976E+04  0.80419002446E+02 0. -1.
        -24    1    1    2    0    0 -0.37027185184E+02 -0.30290794202E+02 -0.98247360765E+02  0.13567720703E+03  0.80419002446E+02 0.  1.
<mgrwt>
<rscale>  0 0.93572221E+02</rscale>
<asrwt>0</asrwt>
<pdfrwt beam="1">  1        2 0.18998564E+00 0.93572221E+02</pdfrwt>
<pdfrwt beam="2">  1       -2 0.31804495E-02 0.93572221E+02</pdfrwt>
<totfact> 0.71035279E+03</totfact>
</mgrwt>
</event>
<event>
 4    1  0.1123525E-001  0.1521806E+03  0.7546771E-02  0.1197819E+00
          1   -1    0    0  501    0  0.00000000000E+00  0.00000000000E+00  0.10581860221E+04  0.10581860221E+04  0.00000000000E+00 0. -1.
         -1   -1    0    0    0  501 -0.00000000000E+00 -0.00000000000E+00 -0.21972348899E+02  0.21972348899E+02  0.00000000000E+00 0.  1.
         24    1    1    2    0    0 -0.25936572286E+02  0.12656626731E+03  0.48415416016E+03  0.50750782512E+03  0.80419002446E+02 0. -1.
        -24    1    1    2    0    0  0.25936572286E+02 -0.12656626731E+03  0.55205951306E+03  0.57265054590E+03  0.80419002446E+02 0.  1.
<mgrwt>
<rscale>  0 0.15218062E+03</rscale>
<asrwt>0</asrwt>
<pdfrwt beam="1">  1        1 0.16279781E+00 0.15218062E+03</pdfrwt>
<pdfrwt beam="2">  1       -1 0.33803622E-02 0.15218062E+03</pdfrwt>
<totfact> 0.44953824E+03</totfact>
</mgrwt>
</event>
<event>
 4    1  0.1123525E-001  0.1412894E+03  0.7546771E-02  0.1211604E+00
         -3   -1    0    0    0  501 -0.00000000000E+00  0.00000000000E+00  0.27384398292E+03  0.27384398292E+03  0.00000000000E+00 0.  1.
          3   -1    0    0  501    0  0.00000000000E+00 -0.00000000000E+00 -0.75511091366E+02  0.75511091366E+02  0.00000000000E+00 0. -1.
         24    1    1    2    0    0  0.83694350320E+02 -0.80565154643E+02  0.13166029667E+03  0.19312466982E+03  0.80419002446E+02 0. -1.
        -24    1    1    2    0    0 -0.83694350320E+02  0.80565154643E+02  0.66672594886E+02  0.15623040447E+03  0.80419002446E+02 0.  1.
<mgrwt>
<rscale>  0 0.14128943E+03</rscale>
<asrwt>0</asrwt>
<pdfrwt beam="1">  1        3 0.11617091E-01 0.14128943E+03</pdfrwt>
<pdfrwt beam="2">  1       -3 0.42129843E-01 0.14128943E+03</pdfrwt>
<totfact> 0.74908414E+02</totfact>
</mgrwt>
</event>
<event>
 4    1  0.1123525E-001  0.1823685E+03  0.7546771E-02  0.1165530E+00
          2   -1    0    0  501    0  0.00000000000E+00  0.00000000000E+00  0.26583593603E+03  0.26583593603E+03  0.00000000000E+00 0. -1.
         -2   -1    0    0    0  501 -0.00000000000E+00 -0.00000000000E+00 -0.63093696177E+03  0.63093696177E+03  0.00000000000E+00 0.  1.
         24    1    1    2    0    0  0.14572510748E+03  0.74533491838E+02  0.21892701338E+03  0.28493385460E+03  0.80419002446E+02 0. -1.
        -24    1    1    2    0    0 -0.14572510748E+03 -0.74533491838E+02 -0.58402803912E+03  0.61183904320E+03  0.80419002446E+02 0.  1.
<mgrwt>
<rscale>  0 0.18236848E+03</rscale>
<asrwt>0</asrwt>
<pdfrwt beam="1">  1        2 0.40897837E-01 0.18236848E+03</pdfrwt>
<pdfrwt beam="2">  1       -2 0.97067223E-01 0.18236848E+03</pdfrwt>
<totfact> 0.11658544E+02</totfact>
</mgrwt>
</event>
<event>
 4    1  0.1123525E-001  0.8920393E+02  0.7546771E-02  0.1304791E+00
         -2   -1    0    0    0  501 -0.00000000000E+00  0.00000000000E+00  0.27514714620E+02  0.27514714620E+02  0.00000000000E+00 0.  1.
          2   -1    0    0  501    0  0.00000000000E+00 -0.00000000000E+00 -0.45745759450E+03  0.45745759450E+03  0.00000000000E+00 0. -1.
         24    1    1    2    0    0 -0.27192339972E+02  0.27398942599E+02 -0.36203153229E+03  0.37285945305E+03  0.80419002446E+02 0. -1.
        -24    1    1    2    0    0  0.27192339972E+02 -0.27398942599E+02 -0.67911347596E+02  0.11211285607E+03  0.80419002446E+02 0.  1.
<mgrwt>
<rscale>  0 0.89203931E+02</rscale>
<asrwt>0</asrwt>
<pdfrwt beam="1">  1        2 0.70378095E-01 0.89203931E+02</pdfrwt>
<pdfrwt beam="2">  1       -2 0.42330328E-02 0.89203931E+02</pdfrwt>
<totfact> 0.15768212E+04</totfact>
</mgrwt>
</event>
<event>
 4    1  0.1123525E-001  0.8616612E+02  0.7546771E-02  0.1312411E+00
         -1   -1    0    0    0  501 -0.00000000000E+00  0.00000000000E+00  0.15626360997E+04  0.15626360997E+04  0.00000000000E+00 0.  1.
          1   -1    0    0  501    0  0.00000000000E+00 -0.00000000000E+00 -0.47541120768E+01  0.47541120768E+01  0.00000000000E+00 0. -1.
         24    1    1    2    0    0  0.29664040448E+02  0.87994224626E+01  0.79789634090E+03  0.80253546458E+03  0.80419002446E+02 0.  1.
        -24    1    1    2    0    0 -0.29664040448E+02 -0.87994224626E+01  0.75998564675E+03  0.76485474722E+03  0.80419002446E+02 0. -1.
<mgrwt>
<rscale>  0 0.86166125E+02</rscale>
<asrwt>0</asrwt>
<pdfrwt beam="1">  1        1 0.73140310E-03 0.86166125E+02</pdfrwt>
<pdfrwt beam="2">  1       -1 0.24040514E+00 0.86166125E+02</pdfrwt>
<totfact> 0.21723537E+03</totfact>
</mgrwt>
</event>
<event>
 4    1  0.1123525E-001  0.1553708E+03  0.7546771E-02  0.1194024E+00
         -2   -1    0    0    0  501 -0.00000000000E+00  0.00000000000E+00  0.74560207759E+01  0.74560207759E+01  0.00000000000E+00 0. -1.
          2   -1    0    0  501    0  0.00000000000E+00 -0.00000000000E+00 -0.32504404360E+04  0.32504404360E+04  0.00000000000E+00 0.  1.
         24    1    1    2    0    0  0.94955292994E+02  0.93039591573E+02 -0.17236197598E+04  0.17306083224E+04  0.80419002446E+02 0.  0.
        -24    1    1    2    0    0 -0.94955292994E+02 -0.93039591573E+02 -0.15193646554E+04  0.15272881343E+04  0.80419002446E+02 0.  0.
<mgrwt>
<rscale>  0 0.15537081E+03</rscale>
<asrwt>0</asrwt>
<pdfrwt beam="1">  1        2 0.50006814E+00 0.15537081E+03</pdfrwt>
<pdfrwt beam="2">  1       -2 0.11470793E-02 0.15537081E+03</pdfrwt>
<totfact> 0.26061225E+03</totfact>
</mgrwt>
</event>
<event>
 4    1  0.1123525E-001  0.9703398E+02  0.7546771E-02  0.1286660E+00
         -2   -1    0    0    0  501 -0.00000000000E+00  0.00000000000E+00  0.65788724721E+03  0.65788724721E+03  0.00000000000E+00 0.  1.
          2   -1    0    0  501    0  0.00000000000E+00 -0.00000000000E+00 -0.14907563730E+02  0.14907563730E+02  0.00000000000E+00 0. -1.
         24    1    1    2    0    0  0.54238117766E+02  0.25687504830E+01  0.38873573214E+03  0.40066327171E+03  0.80419002446E+02 0.  0.
        -24    1    1    2    0    0 -0.54238117766E+02 -0.25687504830E+01  0.25424395134E+03  0.27213153923E+03  0.80419002446E+02 0.  0.
<mgrwt>
<rscale>  0 0.97033964E+02</rscale>
<asrwt>0</asrwt>
<pdfrwt beam="1">  1        2 0.22934719E-02 0.97033976E+02</pdfrwt>
<pdfrwt beam="2">  1       -2 0.10121340E+00 0.97033976E+02</pdfrwt>
<totfact> 0.34830334E+03</totfact>
</mgrwt>
</event>
<event>
 4    1  0.1123525E-001  0.9241349E+02  0.7546771E-02  0.1297110E+00
          3   -1    0    0  501    0  0.00000000000E+00  0.00000000000E+00  0.22802355246E+02  0.22802355246E+02  0.00000000000E+00 0. -1.
         -3   -1    0    0    0  501 -0.00000000000E+00 -0.00000000000E+00 -0.66769145194E+03  0.66769145194E+03  0.00000000000E+00 0.  1.
         24    1    1    2    0    0 -0.41392737885E+01 -0.45342076922E+02 -0.55121107476E+03  0.55890419789E+03  0.80419002446E+02 0.  1.
        -24    1    1    2    0    0  0.41392737885E+01  0.45342076922E+02 -0.93678021938E+02  0.13158960930E+03  0.80419002446E+02 0. -1.
<mgrwt>
<rscale>  0 0.92413492E+02</rscale>
<asrwt>0</asrwt>
<pdfrwt beam="1">  1        3 0.35080549E-02 0.92413492E+02</pdfrwt>
<pdfrwt beam="2">  1       -3 0.10272176E+00 0.92413492E+02</pdfrwt>
<totfact> 0.73709719E+02</totfact>
</mgrwt>
</event>
<event>
 4    1  0.1123525E-001  0.9445160E+02  0.7546771E-02  0.1292416E+00
         -1   -1    0    0    0  501 -0.00000000000E+00  0.00000000000E+00  0.15011097200E+02  0.15011097200E+02  0.00000000000E+00 0.  1.
          1   -1    0    0  501    0  0.00000000000E+00 -0.00000000000E+00 -0.10204226555E+04  0.10204226555E+04  0.00000000000E+00 0. -1.
         24    1    1    2    0    0 -0.17143555093E+02  0.46475668499E+02 -0.16814945447E+03  0.19286094534E+03  0.80419002446E+02 0.  1.
        -24    1    1    2    0    0  0.17143555093E+02 -0.46475668499E+02 -0.83726210384E+03  0.84257280737E+03  0.80419002446E+02 0. -1.
<mgrwt>
<rscale>  0 0.94451602E+02</rscale>
<asrwt>0</asrwt>
<pdfrwt beam="1">  1        1 0.15698813E+00 0.94451602E+02</pdfrwt>
<pdfrwt beam="2">  1       -1 0.23093992E-02 0.94451602E+02</pdfrwt>
<totfact> 0.81258209E+03</totfact>
</mgrwt>
</event>
<event>
 4    1  0.1123525E-001  0.1142389E+03  0.7546771E-02  0.1252916E+00
          2   -1    0    0  501    0  0.00000000000E+00  0.00000000000E+00  0.36497271345E+03  0.36497271345E+03  0.00000000000E+00 0. -1.
         -2   -1    0    0    0  501 -0.00000000000E+00 -0.00000000000E+00 -0.10011608700E+03  0.10011608700E+03  0.00000000000E+00 0.  1.
         24    1    1    2    0    0  0.62422460463E+02  0.51833838606E+02  0.31887602951E+03  0.33872178634E+03  0.80419002446E+02 0. -1.
        -24    1    1    2    0    0 -0.62422460463E+02 -0.51833838606E+02 -0.54019403057E+02  0.12636701411E+03  0.80419002446E+02 0.  1.
<mgrwt>
<rscale>  0 0.11423890E+03</rscale>
<asrwt>0</asrwt>
<pdfrwt beam="1">  1        2 0.56149647E-01 0.11423890E+03</pdfrwt>
<pdfrwt beam="2">  1       -2 0.15402475E-01 0.11423890E+03</pdfrwt>
<totfact> 0.27886376E+03</totfact>
</mgrwt>
</event>
<event>
 4    1  0.1123525E-001  0.8274439E+02  0.7546771E-02  0.1321439E+00
          2   -1    0    0  501    0  0.00000000000E+00  0.00000000000E+00  0.27045274499E+03  0.27045274499E+03  0.00000000000E+00 0. -1.
         -2   -1    0    0    0  501 -0.00000000000E+00 -0.00000000000E+00 -0.30568807702E+02  0.30568807702E+02  0.00000000000E+00 0.  1.
         24    1    1    2    0    0 -0.54500499206E+01 -0.18700661590E+02  0.18233652632E+03  0.20023297074E+03  0.80419002446E+02 0.  0.
        -24    1    1    2    0    0  0.54500499206E+01  0.18700661590E+02  0.57547410972E+02  0.10078858195E+03  0.80419002446E+02 0.  0.
<mgrwt>
<rscale>  0 0.82744388E+02</rscale>
<asrwt>0</asrwt>
<pdfrwt beam="1">  1        2 0.41608113E-01 0.82744388E+02</pdfrwt>
<pdfrwt beam="2">  1       -2 0.47028937E-02 0.82744388E+02</pdfrwt>
<totfact> 0.23232086E+04</totfact>
</mgrwt>
</event>
<event>
 4    1  0.1123525E-001  0.1657036E+03  0.7546771E-02  0.1182404E+00
          2   -1    0    0  501    0  0.00000000000E+00  0.00000000000E+00  0.28346847659E+04  0.28346847659E+04  0.00000000000E+00 0. -1.
         -2   -1    0    0    0  501 -0.00000000000E+00 -0.00000000000E+00 -0.99815155679E+01  0.99815155679E+01  0.00000000000E+00 0.  1.
         24    1    1    2    0    0  0.30125091642E+02  0.14171421981E+03  0.11677497963E+04  0.11794478556E+04  0.80419002446E+02 0.  1.
        -24    1    1    2    0    0 -0.30125091642E+02 -0.14171421981E+03  0.16569534540E+04  0.16652184259E+04  0.80419002446E+02 0. -1.
<mgrwt>
<rscale>  0 0.16570354E+03</rscale>
<asrwt>0</asrwt>
<pdfrwt beam="1">  1        2 0.43610470E+00 0.16570356E+03</pdfrwt>
<pdfrwt beam="2">  1       -2 0.15356200E-02 0.16570356E+03</pdfrwt>
<totfact> 0.29970286E+03</totfact>
</mgrwt>
</event>
<event>
 4    1  0.1123525E-001  0.1389405E+03  0.7546771E-02  0.1214762E+00
          2   -1    0    0  501    0  0.00000000000E+00  0.00000000000E+00  0.15284321873E+04  0.15284321873E+04  0.00000000000E+00 0. -1.
         -2   -1    0    0    0  501 -0.00000000000E+00 -0.00000000000E+00 -0.23479063064E+02  0.23479063064E+02  0.00000000000E+00 0.  1.
         24    1    1    2    0    0  0.68770133610E+02 -0.90043888937E+02  0.12799347395E+04  0.12874538386E+04  0.80419002446E+02 0. -1.
        -24    1    1    2    0    0 -0.68770133610E+02  0.90043888937E+02  0.22501838477E+03  0.26445741179E+03  0.80419002446E+02 0.  1.
<mgrwt>
<rscale>  0 0.13894045E+03</rscale>
<asrwt>0</asrwt>
<pdfrwt beam="1">  1        2 0.23514333E+00 0.13894045E+03</pdfrwt>
<pdfrwt beam="2">  1       -2 0.36121648E-02 0.13894045E+03</pdfrwt>
<totfact> 0.41814910E+03</totfact>
</mgrwt>
</event>
<event>
 4    1  0.1123525E-001  0.8370996E+02  0.7546771E-02  0.1318841E+00
         -2   -1    0    0    0  501 -0.00000000000E+00  0.00000000000E+00  0.48851325998E+01  0.48851325998E+01  0.00000000000E+00 0.  1.
          2   -1    0    0  501    0  0.00000000000E+00 -0.00000000000E+00 -0.32512880730E+04  0.32512880730E+04  0.00000000000E+00 0. -1.
         24    1    1    2    0    0 -0.20582078500E+02 -0.10794385367E+02 -0.28402583285E+04  0.28414916380E+04  0.80419002446E+02 0. -1.
        -24    1    1    2    0    0  0.20582078500E+02  0.10794385367E+02 -0.40614461190E+03  0.41468156752E+03  0.80419002446E+02 0.  1.
<mgrwt>
<rscale>  0 0.83709956E+02</rscale>
<asrwt>0</asrwt>
<pdfrwt beam="1">  1        2 0.50019780E+00 0.83709956E+02</pdfrwt>
<pdfrwt beam="2">  1       -2 0.75155940E-03 0.83709956E+02</pdfrwt>
<totfact> 0.47952956E+03</totfact>
</mgrwt>
</event>
<event>
 4    1  0.1123525E-001  0.8905957E+02  0.7546771E-02  0.1305145E+00
         -1   -1    0    0    0  501 -0.00000000000E+00  0.00000000000E+00  0.19359065763E+03  0.19359065763E+03  0.00000000000E+00 0.  1.
          1   -1    0    0  501    0  0.00000000000E+00 -0.00000000000E+00 -0.44589652813E+02  0.44589652813E+02  0.00000000000E+00 0. -1.
         24    1    1    2    0    0  0.33486486246E+02 -0.18521531409E+02  0.10842635123E+03  0.14031351140E+03  0.80419002446E+02 0. -1.
        -24    1    1    2    0    0 -0.33486486246E+02  0.18521531409E+02  0.40574653591E+02  0.97866799045E+02  0.80419002446E+02 0.  0.
<mgrwt>
<rscale>  0 0.89059575E+02</rscale>
<asrwt>0</asrwt>
<pdfrwt beam="1">  1        1 0.68599467E-02 0.89059575E+02</pdfrwt>
<pdfrwt beam="2">  1       -1 0.29783178E-01 0.89059575E+02</pdfrwt>
<totfact> 0.10035152E+04</totfact>
</mgrwt>
</event>
<event>
 4    1  0.1123525E-001  0.8490403E+02  0.7546771E-02  0.1315684E+00
          2   -1    0    0  501    0  0.00000000000E+00  0.00000000000E+00  0.10634302249E+04  0.10634302249E+04  0.00000000000E+00 0. -1.
         -2   -1    0    0    0  501 -0.00000000000E+00 -0.00000000000E+00 -0.15276224898E+02  0.15276224898E+02  0.00000000000E+00 0.  1.
         24    1    1    2    0    0  0.19161291444E+02 -0.19347450995E+02  0.92634083514E+03  0.93022364932E+03  0.80419002446E+02 0. -1.
        -24    1    1    2    0    0 -0.19161291444E+02  0.19347450995E+02  0.12181316486E+03  0.14848280047E+03  0.80419002446E+02 0.  0.
<mgrwt>
<rscale>  0 0.84904033E+02</rscale>
<asrwt>0</asrwt>
<pdfrwt beam="1">  1        2 0.16360459E+00 0.84904033E+02</pdfrwt>
<pdfrwt beam="2">  1       -2 0.23501893E-02 0.84904033E+02</pdfrwt>
<totfact> 0.13610257E+04</totfact>
</mgrwt>
</event>
<event>
 4    1  0.1134308E-001  0.1254638E+03  0.7546771E-02  0.1234346E+00
          1   -1    0    0  501    0  0.00000000000E+00  0.00000000000E+00  0.18674106233E+02  0.18674106233E+02  0.00000000000E+00 0. -1.
         -1   -1    0    0    0  501 -0.00000000000E+00 -0.00000000000E+00 -0.22725622344E+04  0.22725622344E+04  0.00000000000E+00 0.  1.
         24    1    1    2    0    0  0.86216801325E+02 -0.42902491435E+02 -0.20355852970E+04  0.20394481307E+04  0.80419002446E+02 0.  1.
        -24    1    1    2    0    0 -0.86216801325E+02  0.42902491435E+02 -0.21830283122E+03  0.25178820996E+03  0.80419002446E+02 0. -1.
<mgrwt>
<rscale>  0 0.12546385E+03</rscale>
<asrwt>0</asrwt>
<pdfrwt beam="1">  1        1 0.28729416E-02 0.12546385E+03</pdfrwt>
<pdfrwt beam="2">  1       -1 0.34962470E+00 0.12546385E+03</pdfrwt>
<totfact> 0.70046564E+01</totfact>
</mgrwt>
</event>
<event>
 4    1  0.1123525E-001  0.1235170E+03  0.7546771E-02  0.1237405E+00
         -3   -1    0    0    0  501 -0.00000000000E+00  0.00000000000E+00  0.77423829097E+02  0.77423829097E+02  0.00000000000E+00 0.  1.
          3   -1    0    0  501    0  0.00000000000E+00 -0.00000000000E+00 -0.23334862586E+03  0.23334862586E+03  0.00000000000E+00 0. -1.
         24    1    1    2    0    0 -0.87638275813E+02 -0.33298049667E+02 -0.16678135084E+02  0.12463789008E+03  0.80419002446E+02 0.  1.
        -24    1    1    2    0    0  0.87638275813E+02  0.33298049667E+02 -0.13924666168E+03  0.18613456488E+03  0.80419002446E+02 0. -1.
<mgrwt>
<rscale>  0 0.12351698E+03</rscale>
<asrwt>0</asrwt>
<pdfrwt beam="1">  1        3 0.35899789E-01 0.12351698E+03</pdfrwt>
<pdfrwt beam="2">  1       -3 0.11911358E-01 0.12351698E+03</pdfrwt>
<totfact> 0.95630154E+02</totfact>
</mgrwt>
</event>
<event>
 4    1  0.1123525E-001  0.1269807E+03  0.7546771E-02  0.1232006E+00
          1   -1    0    0  501    0  0.00000000000E+00  0.00000000000E+00  0.12351427277E+03  0.12351427277E+03  0.00000000000E+00 0. -1.
         -1   -1    0    0    0  501 -0.00000000000E+00 -0.00000000000E+00 -0.13226154039E+03  0.13226154039E+03  0.00000000000E+00 0.  1.
         24    1    1    2    0    0 -0.79984712034E+02  0.57090517305E+02 -0.18945491719E+02  0.12838624902E+03  0.80419002446E+02 0.  1.
        -24    1    1    2    0    0  0.79984712034E+02 -0.57090517305E+02  0.10198224102E+02  0.12738956415E+03  0.80419002446E+02 0. -1.
<mgrwt>
<rscale>  0 0.12698070E+03</rscale>
<asrwt>0</asrwt>
<pdfrwt beam="1">  1        1 0.19002196E-01 0.12698070E+03</pdfrwt>
<pdfrwt beam="2">  1       -1 0.20347929E-01 0.12698070E+03</pdfrwt>
<totfact> 0.50846669E+03</totfact>
</mgrwt>
</event>
<event>
 4    1  0.1123525E-001  0.9357541E+02  0.7546771E-02  0.1294417E+00
          1   -1    0    0  501    0  0.00000000000E+00  0.00000000000E+00  0.18011433795E+03  0.18011433795E+03  0.00000000000E+00 0. -1.
         -1   -1    0    0    0  501 -0.00000000000E+00 -0.00000000000E+00 -0.56158891567E+02  0.56158891567E+02  0.00000000000E+00 0.  1.
         24    1    1    2    0    0  0.47328438977E+02  0.70114561404E+01  0.18680789156E+02  0.95421850176E+02  0.80419002446E+02 0.  1.
        -24    1    1    2    0    0 -0.47328438977E+02 -0.70114561404E+01  0.10527465722E+03  0.14085137934E+03  0.80419002446E+02 0. -1.
<mgrwt>
<rscale>  0 0.93575411E+02</rscale>
<asrwt>0</asrwt>
<pdfrwt beam="1">  1        1 0.27709898E-01 0.93575411E+02</pdfrwt>
<pdfrwt beam="2">  1       -1 0.86398296E-02 0.93575411E+02</pdfrwt>
<totfact> 0.11640717E+04</totfact>
</mgrwt>
</event>
<event>
 4    1  0.1123525E-001  0.9389156E+02  0.7546771E-02  0.1293692E+00
         -3   -1    0    0    0  501 -0.00000000000E+00  0.00000000000E+00  0.14766632043E+02  0.14766632043E+02  0.00000000000E+00 0.  1.
          3   -1    0    0  501    0  0.00000000000E+00 -0.00000000000E+00 -0.91195518414E+03  0.91195518414E+03  0.00000000000E+00 0. -1.
         24    1    1    2    0    0  0.40022524779E+02  0.27324107577E+02 -0.17628681158E+03  0.19973148284E+03  0.80419002446E+02 0.  1.
        -24    1    1    2    0    0 -0.40022524779E+02 -0.27324107577E+02 -0.72090174052E+03  0.72699033334E+03  0.80419002446E+02 0. -1.
<mgrwt>
<rscale>  0 0.93891561E+02</rscale>
<asrwt>0</asrwt>
<pdfrwt beam="1">  1        3 0.14030079E+00 0.93891561E+02</pdfrwt>
<pdfrwt beam="2">  1       -3 0.22717897E-02 0.93891561E+02</pdfrwt>
<totfact> 0.69547623E+02</totfact>
</mgrwt>
</event>
<event>
 4    1  0.1123525E-001  0.8697535E+02  0.7546771E-02  0.1310346E+00
         -2   -1    0    0    0  501 -0.00000000000E+00  0.00000000000E+00  0.22006630058E+02  0.22006630058E+02  0.00000000000E+00 0.  1.
          2   -1    0    0  501    0  0.00000000000E+00 -0.00000000000E+00 -0.54752271025E+03  0.54752271025E+03  0.00000000000E+00 0. -1.
         24    1    1    2    0    0 -0.17518857867E+02  0.28117358182E+02 -0.43648262758E+03  0.44506381155E+03  0.80419002446E+02 0. -1.
        -24    1    1    2    0    0  0.17518857867E+02 -0.28117358182E+02 -0.89033452610E+02  0.12446552876E+03  0.80419002446E+02 0.  1.
<mgrwt>
<rscale>  0 0.86975354E+02</rscale>
<asrwt>0</asrwt>
<pdfrwt beam="1">  1        2 0.84234257E-01 0.86975354E+02</pdfrwt>
<pdfrwt beam="2">  1       -2 0.33856357E-02 0.86975354E+02</pdfrwt>
<totfact> 0.17972489E+04</totfact>
</mgrwt>
</event>
<event>
 4    1  0.1123525E-001  0.8068805E+02  0.7546771E-02  0.1327110E+00
          1   -1    0    0  501    0  0.00000000000E+00  0.00000000000E+00  0.52252409594E+03  0.52252409594E+03  0.00000000000E+00 0. -1.
         -1   -1    0    0    0  501 -0.00000000000E+00 -0.00000000000E+00 -0.15726170017E+02  0.15726170017E+02  0.00000000000E+00 0.  1.
         24    1    1    2    0    0  0.50497806705E+01  0.42243589342E+01  0.13074729328E+03  0.15364054200E+03  0.80419002446E+02 0.  1.
        -24    1    1    2    0    0 -0.50497806705E+01 -0.42243589342E+01  0.37605063264E+03  0.38460972395E+03  0.80419002446E+02 0.  0.
<mgrwt>
<rscale>  0 0.80688050E+02</rscale>
<asrwt>0</asrwt>
<pdfrwt beam="1">  1        1 0.80388309E-01 0.80688050E+02</pdfrwt>
<pdfrwt beam="2">  1       -1 0.24194112E-02 0.80688050E+02</pdfrwt>
<totfact> 0.19742629E+04</totfact>
</mgrwt>
</event>
<event>
 4    1  0.1123525E-001  0.9256063E+02  0.7546771E-02  0.1296767E+00
          2   -1    0    0  501    0  0.00000000000E+00  0.00000000000E+00  0.26284607622E+03  0.26284607622E+03  0.00000000000E+00 0. -1.
         -2   -1    0    0    0  501 -0.00000000000E+00 -0.00000000000E+00 -0.40300469335E+02  0.40300469335E+02  0.00000000000E+00 0.  1.
         24    1    1    2    0    0  0.45634938687E+02  0.42078615925E+01  0.17755042704E+03  0.20022892854E+03  0.80419002446E+02 0. -1.
        -24    1    1    2    0    0 -0.45634938687E+02 -0.42078615925E+01  0.44995179844E+02  0.10291761701E+03  0.80419002446E+02 0.  1.
<mgrwt>
<rscale>  0 0.92560627E+02</rscale>
<asrwt>0</asrwt>
<pdfrwt beam="1">  1        2 0.40437857E-01 0.92560627E+02</pdfrwt>
<pdfrwt beam="2">  1       -2 0.62000724E-02 0.92560627E+02</pdfrwt>
<totfact> 0.16047071E+04</totfact>
</mgrwt>
</event>
<event>
 4    1  0.1123525E-001  0.9456059E+02  0.7546771E-02  0.1292169E+00
          4   -1    0    0  501    0  0.00000000000E+00  0.00000000000E+00  0.40641088481E+03  0.40641088481E+03  0.00000000000E+00 0. -1.
         -4   -1    0    0    0  501 -0.00000000000E+00 -0.00000000000E+00 -0.29139481978E+02  0.29139481978E+02  0.00000000000E+00 0.  1.
         24    1    1    2    0    0 -0.39830261775E+02  0.29799927047E+02  0.80852448870E+02  0.12441390536E+03  0.80419002446E+02 0.  1.
        -24    1    1    2    0    0  0.39830261775E+02 -0.29799927047E+02  0.29641895396E+03  0.31113646142E+03  0.80419002446E+02 0. -1.
<mgrwt>
<rscale>  0 0.94560582E+02</rscale>
<asrwt>0</asrwt>
<pdfrwt beam="1">  1        4 0.62524747E-01 0.94560593E+02</pdfrwt>
<pdfrwt beam="2">  1       -4 0.44829975E-02 0.94560593E+02</pdfrwt>
<totfact> 0.10531442E+03</totfact>
</mgrwt>
</event>
<event>
 4    1  0.1123525E-001  0.2103844E+03  0.7546771E-02  0.1141262E+00
         -1   -1    0    0    0  501 -0.00000000000E+00  0.00000000000E+00  0.61669790245E+02  0.61669790245E+02  0.00000000000E+00 0.  1.
          1   -1    0    0  501    0  0.00000000000E+00 -0.00000000000E+00 -0.10722777029E+04  0.10722777029E+04  0.00000000000E+00 0. -1.
         24    1    1    2    0    0  0.84740915479E+02 -0.17496677670E+03 -0.17927732675E+03  0.27640906560E+03  0.80419002446E+02 0.  1.
        -24    1    1    2    0    0 -0.84740915479E+02  0.17496677670E+03 -0.83133058595E+03  0.85753842759E+03  0.80419002446E+02 0. -1.
<mgrwt>
<rscale>  0 0.21038444E+03</rscale>
<asrwt>0</asrwt>
<pdfrwt beam="1">  1        1 0.16496580E+00 0.21038444E+03</pdfrwt>
<pdfrwt beam="2">  1       -1 0.94876602E-02 0.21038444E+03</pdfrwt>
<totfact> 0.93910844E+02</totfact>
</mgrwt>
</event>
<event>
 4    1  0.1123525E-001  0.8902520E+02  0.7546771E-02  0.1305230E+00
         -2   -1    0    0    0  501 -0.00000000000E+00  0.00000000000E+00  0.52987508819E+01  0.52987508819E+01  0.00000000000E+00 0.  1.
          2   -1    0    0  501    0  0.00000000000E+00 -0.00000000000E+00 -0.16679297720E+04  0.16679297720E+04  0.00000000000E+00 0. -1.
         24    1    1    2    0    0 -0.38180871460E+02 -0.69837723855E+00 -0.56249836878E+03  0.56949969053E+03  0.80419002446E+02 0.  0.
        -24    1    1    2    0    0  0.38180871460E+02  0.69837723855E+00 -0.11001326524E+04  0.11037288324E+04  0.80419002446E+02 0.  1.
<mgrwt>
<rscale>  0 0.89025191E+02</rscale>
<asrwt>0</asrwt>
<pdfrwt beam="1">  1        2 0.25660451E+00 0.89025202E+02</pdfrwt>
<pdfrwt beam="2">  1       -2 0.81519267E-03 0.89025202E+02</pdfrwt>
<totfact> 0.29666202E+04</totfact>
</mgrwt>
</event>
<event>
 4    1  0.1123525E-001  0.8841288E+02  0.7546771E-02  0.1306741E+00
         -2   -1    0    0    0  501 -0.00000000000E+00  0.00000000000E+00  0.48236271587E+02  0.48236271587E+02  0.00000000000E+00 0.  1.
          2   -1    0    0  501    0  0.00000000000E+00 -0.00000000000E+00 -0.32411026627E+03  0.32411026627E+03  0.00000000000E+00 0. -1.
         24    1    1    2    0    0  0.28739894790E+02  0.22883165122E+02 -0.26958220905E+03  0.28371007065E+03  0.80419002446E+02 0. -1.
        -24    1    1    2    0    0 -0.28739894790E+02 -0.22883165122E+02 -0.62917856371E+01  0.88636467210E+02  0.80419002446E+02 0.  1.
<mgrwt>
<rscale>  0 0.88412877E+02</rscale>
<asrwt>0</asrwt>
<pdfrwt beam="1">  1        2 0.49863117E-01 0.88412877E+02</pdfrwt>
<pdfrwt beam="2">  1       -2 0.74209650E-02 0.88412877E+02</pdfrwt>
<totfact> 0.97824854E+03</totfact>
</mgrwt>
</event>
<event>
 4    1  0.1123525E-001  0.8429056E+02  0.7546771E-02  0.1317298E+00
          2   -1    0    0  501    0  0.00000000000E+00  0.00000000000E+00  0.15369725254E+04  0.15369725254E+04  0.00000000000E+00 0. -1.
         -2   -1    0    0    0  501 -0.00000000000E+00 -0.00000000000E+00 -0.89740526735E+01  0.89740526735E+01  0.00000000000E+00 0.  1.
         24    1    1    2    0    0 -0.22208557539E+01 -0.25154518523E+02  0.13022497214E+04  0.13049748023E+04  0.80419002446E+02 0. -1.
        -24    1    1    2    0    0  0.22208557539E+01  0.25154518523E+02  0.22574875135E+03  0.24097177572E+03  0.80419002446E+02 0.  1.
<mgrwt>
<rscale>  0 0.84290557E+02</rscale>
<asrwt>0</asrwt>
<pdfrwt beam="1">  1        2 0.23645710E+00 0.84290557E+02</pdfrwt>
<pdfrwt beam="2">  1       -2 0.13806247E-02 0.84290557E+02</pdfrwt>
<totfact> 0.16323602E+04</totfact>
</mgrwt>
</event>
<event>
 4    1  0.1123525E-001  0.1008669E+03  0.7546771E-02  0.1278484E+00
          2   -1    0    0  501    0  0.00000000000E+00  0.00000000000E+00  0.65280069915E+02  0.65280069915E+02  0.00000000000E+00 0. -1.
         -2   -1    0    0    0  501 -0.00000000000E+00 -0.00000000000E+00 -0.21381045301E+03  0.21381045301E+03  0.00000000000E+00 0.  1.
         24    1    1    2    0    0  0.25678202849E+02 -0.55204511804E+02 -0.16121863657E+01  0.10087974685E+03  0.80419002446E+02 0. -1.
        -24    1    1    2    0    0 -0.25678202849E+02  0.55204511804E+02 -0.14691819673E+03  0.17821077608E+03  0.80419002446E+02 0.  1.
<mgrwt>
<rscale>  0 0.10086686E+03</rscale>
<asrwt>0</asrwt>
<pdfrwt beam="1">  1        2 0.10043088E-01 0.10086686E+03</pdfrwt>
<pdfrwt beam="2">  1       -2 0.32893916E-01 0.10086686E+03</pdfrwt>
<totfact> 0.51094190E+03</totfact>
</mgrwt>
</event>
<event>
 4    1  0.1123525E-001  0.8145082E+02  0.7546771E-02  0.1324984E+00
          2   -1    0    0  501    0  0.00000000000E+00  0.00000000000E+00  0.14367872246E+04  0.14367872246E+04  0.00000000000E+00 0. -1.
         -2   -1    0    0    0  501 -0.00000000000E+00 -0.00000000000E+00 -0.52994462315E+01  0.52994462315E+01  0.00000000000E+00 0.  1.
         24    1    1    2    0    0  0.12859875350E+02 -0.12819665906E+01  0.97441613016E+03  0.97781441516E+03  0.80419002446E+02 0. -1.
        -24    1    1    2    0    0 -0.12859875350E+02  0.12819665906E+01  0.45707164823E+03  0.46427225568E+03  0.80419002446E+02 0.  0.
<mgrwt>
<rscale>  0 0.81450818E+02</rscale>
<asrwt>0</asrwt>
<pdfrwt beam="1">  1        2 0.22104388E+00 0.81450818E+02</pdfrwt>
<pdfrwt beam="2">  1       -2 0.81530056E-03 0.81450818E+02</pdfrwt>
<totfact> 0.38546348E+04</totfact>
</mgrwt>
</event>
<event>
 4    1  0.1123525E-001  0.9962256E+02  0.7546771E-02  0.1281092E+00
         -1   -1    0    0    0  501 -0.00000000000E+00  0.00000000000E+00  0.12249668942E+03  0.12249668942E+03  0.00000000000E+00 0.  1.
          1   -1    0    0  501    0  0.00000000000E+00 -0.00000000000E+00 -0.99170545984E+02  0.99170545984E+02  0.00000000000E+00 0. -1.
         24    1    1    2    0    0  0.58797764484E+02 -0.51120611255E+00  0.59079373487E+02  0.11582325658E+03  0.80419002446E+02 0.  1.
        -24    1    1    2    0    0 -0.58797764484E+02  0.51120611255E+00 -0.35753230046E+02  0.10584397882E+03  0.80419002446E+02 0. -1.
<mgrwt>
<rscale>  0 0.99622560E+02</rscale>
<asrwt>0</asrwt>
<pdfrwt beam="1">  1        1 0.15257007E-01 0.99622560E+02</pdfrwt>
<pdfrwt beam="2">  1       -1 0.18845645E-01 0.99622560E+02</pdfrwt>
<totfact> 0.74701907E+03</totfact>
</mgrwt>
</event>
<event>
 4    1  0.1123525E-001  0.1020363E+03  0.7546771E-02  0.1276071E+00
         -2   -1    0    0    0  501 -0.00000000000E+00  0.00000000000E+00  0.18228713414E+02  0.18228713414E+02  0.00000000000E+00 0.  1.
          2   -1    0    0  501    0  0.00000000000E+00 -0.00000000000E+00 -0.80871751465E+03  0.80871751465E+03  0.00000000000E+00 0. -1.
         24    1    1    2    0    0 -0.62441403320E+02  0.67280357879E+01 -0.61934255810E+03  0.62769149711E+03  0.80419002446E+02 0. -1.
        -24    1    1    2    0    0  0.62441403320E+02 -0.67280357879E+01 -0.17114624314E+03  0.19925473096E+03  0.80419002446E+02 0.  1.
<mgrwt>
<rscale>  0 0.10203632E+03</rscale>
<asrwt>0</asrwt>
<pdfrwt beam="1">  1        2 0.12441804E+00 0.10203632E+03</pdfrwt>
<pdfrwt beam="2">  1       -2 0.28044183E-02 0.10203632E+03</pdfrwt>
<totfact> 0.15281157E+04</totfact>
</mgrwt>
</event>
<event>
 4    1  0.1123525E-001  0.1162928E+03  0.7546771E-02  0.1249341E+00
         -1   -1    0    0    0  501 -0.00000000000E+00  0.00000000000E+00  0.16225944362E+03  0.16225944362E+03  0.00000000000E+00 0.  1.
          1   -1    0    0  501    0  0.00000000000E+00 -0.00000000000E+00 -0.97591705154E+02  0.97591705154E+02  0.00000000000E+00 0. -1.
         24    1    1    2    0    0  0.82462044212E+02 -0.16025444041E+02  0.81969992393E+02  0.14227824570E+03  0.80419002446E+02 0.  1.
        -24    1    1    2    0    0 -0.82462044212E+02  0.16025444041E+02 -0.17302253925E+02  0.11757290308E+03  0.80419002446E+02 0. -1.
<mgrwt>
<rscale>  0 0.11629282E+03</rscale>
<asrwt>0</asrwt>
<pdfrwt beam="1">  1        1 0.15014108E-01 0.11629282E+03</pdfrwt>
<pdfrwt beam="2">  1       -1 0.24962991E-01 0.11629282E+03</pdfrwt>
<totfact> 0.49081269E+03</totfact>
</mgrwt>
</event>
<event>
 4    1  0.2400502E-001  0.1007049E+03  0.7546771E-02  0.1278821E+00
         -1   -1    0    0    0  501 -0.00000000000E+00  0.00000000000E+00  0.61029567047E+03  0.61029567047E+03  0.00000000000E+00 0.  1.
          1   -1    0    0  501    0  0.00000000000E+00 -0.00000000000E+00 -0.25034787252E+03  0.25034787252E+03  0.00000000000E+00 0. -1.
         24    1    1    2    0    0  0.40178496710E+02 -0.45386719533E+02  0.59576874740E+03  0.60422006111E+03  0.80419002446E+02 0.  1.
        -24    1    1    2    0    0 -0.40178496710E+02  0.45386719533E+02 -0.23582094945E+03  0.25642348188E+03  0.80419002446E+02 0. -1.
<mgrwt>
<rscale>  0 0.10070492E+03</rscale>
<asrwt>0</asrwt>
<pdfrwt beam="1">  1        1 0.38515057E-01 0.10070492E+03</pdfrwt>
<pdfrwt beam="2">  1       -1 0.93891641E-01 0.10070492E+03</pdfrwt>
<totfact> 0.13325168E+02</totfact>
</mgrwt>
</event>
<event>
 4    1  0.1123525E-001  0.8227420E+02  0.7546771E-02  0.1322719E+00
         -2   -1    0    0    0  501 -0.00000000000E+00  0.00000000000E+00  0.14022265913E+04  0.14022265913E+04  0.00000000000E+00 0.  1.
          2   -1    0    0  501    0  0.00000000000E+00 -0.00000000000E+00 -0.17211216965E+02  0.17211216965E+02  0.00000000000E+00 0. -1.
         24    1    1    2    0    0 -0.10005889028E+02  0.14202465807E+02  0.90490823771E+02  0.12230140225E+03  0.80419002446E+02 0. -1.
        -24    1    1    2    0    0  0.10005889028E+02 -0.14202465807E+02  0.12945245506E+04  0.12971364061E+04  0.80419002446E+02 0.  1.
<mgrwt>
<rscale>  0 0.82274199E+02</rscale>
<asrwt>0</asrwt>
<pdfrwt beam="1">  1        2 0.26478806E-02 0.82274199E+02</pdfrwt>
<pdfrwt beam="2">  1       -2 0.21572708E+00 0.82274199E+02</pdfrwt>
<totfact> 0.41218295E+02</totfact>
</mgrwt>
</event>
<event>
 4    1  0.1123525E-001  0.8690344E+02  0.7546771E-02  0.1310529E+00
         -1   -1    0    0    0  501 -0.00000000000E+00  0.00000000000E+00  0.21755748234E+03  0.21755748234E+03  0.00000000000E+00 0.  1.
          1   -1    0    0  501    0  0.00000000000E+00 -0.00000000000E+00 -0.37621526864E+02  0.37621526864E+02  0.00000000000E+00 0. -1.
         24    1    1    2    0    0 -0.16764914383E+02  0.28353656190E+02  0.12544007495E+03  0.15260216424E+03  0.80419002446E+02 0. -1.
        -24    1    1    2    0    0  0.16764914383E+02 -0.28353656190E+02  0.54495880524E+02  0.10257684496E+03  0.80419002446E+02 0.  0.
<mgrwt>
<rscale>  0 0.86903441E+02</rscale>
<asrwt>0</asrwt>
<pdfrwt beam="1">  1        1 0.57879273E-02 0.86903441E+02</pdfrwt>
<pdfrwt beam="2">  1       -1 0.33470381E-01 0.86903441E+02</pdfrwt>
<totfact> 0.10337117E+04</totfact>
</mgrwt>
</event>
<event>
 4    1  0.1123525E-001  0.1010585E+03  0.7546771E-02  0.1278086E+00
          2   -1    0    0  501    0  0.00000000000E+00  0.00000000000E+00  0.13812039215E+03  0.13812039215E+03  0.00000000000E+00 0. -1.
         -2   -1    0    0    0  501 -0.00000000000E+00 -0.00000000000E+00 -0.11841823125E+03  0.11841823125E+03  0.00000000000E+00 0.  1.
         24    1    1    2    0    0 -0.23254518015E+02 -0.56611228928E+02  0.88461521792E+02  0.13430659195E+03  0.80419002446E+02 0. -1.
        -24    1    1    2    0    0  0.23254518015E+02  0.56611228928E+02 -0.68759360886E+02  0.12223203145E+03  0.80419002446E+02 0.  1.
<mgrwt>
<rscale>  0 0.10105850E+03</rscale>
<asrwt>0</asrwt>
<pdfrwt beam="1">  1        2 0.21249291E-01 0.10105850E+03</pdfrwt>
<pdfrwt beam="2">  1       -2 0.18218189E-01 0.10105850E+03</pdfrwt>
<totfact> 0.59434000E+03</totfact>
</mgrwt>
</event>
<event>
 4    1  0.1123525E-001  0.1059457E+03  0.7546771E-02  0.1268268E+00
          2   -1    0    0  501    0  0.00000000000E+00  0.00000000000E+00  0.20632303051E+04  0.20632303051E+04  0.00000000000E+00 0. -1.
         -2   -1    0    0    0  501 -0.00000000000E+00 -0.00000000000E+00 -0.55686476379E+01  0.55686476379E+01  0.00000000000E+00 0.  1.
         24    1    1    2    0    0  0.39340095582E+02 -0.56653569469E+02  0.11859011454E+04  0.11906242113E+04  0.80419002446E+02 0. -1.
        -24    1    1    2    0    0 -0.39340095582E+02  0.56653569469E+02  0.87176051203E+03  0.87817474135E+03  0.80419002446E+02 0.  1.
<mgrwt>
<rscale>  0 0.10594567E+03</rscale>
<asrwt>0</asrwt>
<pdfrwt beam="1">  1        2 0.31741944E+00 0.10594567E+03</pdfrwt>
<pdfrwt beam="2">  1       -2 0.85671667E-03 0.10594567E+03</pdfrwt>
<totfact> 0.17682712E+04</totfact>
</mgrwt>
</event>
<event>
 4    1  0.1123525E-001  0.9559398E+02  0.7546771E-02  0.1289844E+00
          1   -1    0    0  501    0  0.00000000000E+00  0.00000000000E+00  0.11579738293E+03  0.11579738293E+03  0.00000000000E+00 0. -1.
         -1   -1    0    0    0  501 -0.00000000000E+00 -0.00000000000E+00 -0.99618194597E+02  0.99618194597E+02  0.00000000000E+00 0.  1.
         24    1    1    2    0    0 -0.63063614864E+01 -0.51295443700E+02 -0.41011501720E+02  0.10401995947E+03  0.80419002446E+02 0. -1.
        -24    1    1    2    0    0  0.63063614864E+01  0.51295443700E+02  0.57190690048E+02  0.11139561806E+03  0.80419002446E+02 0.  1.
<mgrwt>
<rscale>  0 0.95593978E+02</rscale>
<asrwt>0</asrwt>
<pdfrwt beam="1">  1        1 0.17814982E-01 0.95593978E+02</pdfrwt>
<pdfrwt beam="2">  1       -1 0.15325876E-01 0.95593978E+02</pdfrwt>
<totfact> 0.84512989E+03</totfact>
</mgrwt>
</event>
<event>
 4    1  0.1123525E-001  0.8606002E+02  0.7546771E-02  0.1312684E+00
         -3   -1    0    0    0  501 -0.00000000000E+00  0.00000000000E+00  0.97066020336E+02  0.97066020336E+02  0.00000000000E+00 0.  1.
          3   -1    0    0  501    0  0.00000000000E+00 -0.00000000000E+00 -0.80159078991E+02  0.80159078991E+02  0.00000000000E+00 0. -1.
         24    1    1    2    0    0 -0.23551623791E+02 -0.19606940883E+02  0.27891431424E+02  0.90466894582E+02  0.80419002446E+02 0.  1.
        -24    1    1    2    0    0  0.23551623791E+02  0.19606940883E+02 -0.10984490079E+02  0.86758204745E+02  0.80419002446E+02 0. -1.
<mgrwt>
<rscale>  0 0.86060020E+02</rscale>
<asrwt>0</asrwt>
<pdfrwt beam="1">  1        3 0.12332166E-01 0.86060020E+02</pdfrwt>
<pdfrwt beam="2">  1       -3 0.14933234E-01 0.86060020E+02</pdfrwt>
<totfact> 0.40212425E+03</totfact>
</mgrwt>
</event>
<event>
 4    1  0.1123525E-001  0.1063450E+03  0.7546771E-02  0.1267492E+00
          1   -1    0    0  501    0  0.00000000000E+00  0.00000000000E+00  0.87685695032E+02  0.87685695032E+02  0.00000000000E+00 0. -1.
         -1   -1    0    0    0  501 -0.00000000000E+00 -0.00000000000E+00 -0.12953158244E+03  0.12953158244E+03  0.00000000000E+00 0.  1.
         24    1    1    2    0    0  0.58598414475E+02  0.37526880712E+02 -0.28042718098E+02  0.10998022980E+03  0.80419002446E+02 0.  1.
        -24    1    1    2    0    0 -0.58598414475E+02 -0.37526880712E+02 -0.13803169309E+02  0.10723704767E+03  0.80419002446E+02 0. -1.
<mgrwt>
<rscale>  0 0.10634499E+03</rscale>
<asrwt>0</asrwt>
<pdfrwt beam="1">  1        1 0.13490107E-01 0.10634499E+03</pdfrwt>
<pdfrwt beam="2">  1       -1 0.19927936E-01 0.10634499E+03</pdfrwt>
<totfact> 0.80532816E+03</totfact>
</mgrwt>
</event>
<event>
 4    1  0.1123525E-001  0.8777732E+02  0.7546771E-02  0.1308325E+00
         -2   -1    0    0    0  501 -0.00000000000E+00  0.00000000000E+00  0.26407806287E+02  0.26407806287E+02  0.00000000000E+00 0.  1.
          2   -1    0    0  501    0  0.00000000000E+00 -0.00000000000E+00 -0.95096353655E+03  0.95096353655E+03  0.00000000000E+00 0. -1.
         24    1    1    2    0    0 -0.20500865752E+02  0.28589434663E+02 -0.86914817020E+03  0.87356934412E+03  0.80419002446E+02 0. -1.
        -24    1    1    2    0    0  0.20500865752E+02 -0.28589434663E+02 -0.55407560064E+02  0.10380199872E+03  0.80419002446E+02 0.  1.
<mgrwt>
<rscale>  0 0.87777316E+02</rscale>
<asrwt>0</asrwt>
<pdfrwt beam="1">  1        2 0.14630207E+00 0.87777316E+02</pdfrwt>
<pdfrwt beam="2">  1       -2 0.40627398E-02 0.87777316E+02</pdfrwt>
<totfact> 0.71582081E+03</totfact>
</mgrwt>
</event>
<event>
 4    1  0.1123525E-001  0.8973073E+02  0.7546771E-02  0.1303505E+00
          1   -1    0    0  501    0  0.00000000000E+00  0.00000000000E+00  0.12850571757E+04  0.12850571757E+04  0.00000000000E+00 0. -1.
         -1   -1    0    0    0  501 -0.00000000000E+00 -0.00000000000E+00 -0.93775499107E+01  0.93775499107E+01  0.00000000000E+00 0.  1.
         24    1    1    2    0    0 -0.39087356768E+02 -0.75210715611E+01  0.26499809688E+03  0.27977776052E+03  0.80419002446E+02 0.  1.
        -24    1    1    2    0    0  0.39087356768E+02  0.75210715611E+01  0.10106815289E+04  0.10146569651E+04  0.80419002446E+02 0. -1.
<mgrwt>
<rscale>  0 0.89730730E+02</rscale>
<asrwt>0</asrwt>
<pdfrwt beam="1">  1        1 0.19770096E+00 0.89730730E+02</pdfrwt>
<pdfrwt beam="2">  1       -1 0.14427010E-02 0.89730730E+02</pdfrwt>
<totfact> 0.10439013E+04</totfact>
</mgrwt>
</event>
<event>
 4    1  0.1123525E-001  0.9319111E+02  0.7546771E-02  0.1295303E+00
          1   -1    0    0  501    0  0.00000000000E+00  0.00000000000E+00  0.35329747722E+03  0.35329747722E+03  0.00000000000E+00 0. -1.
         -1   -1    0    0    0  501 -0.00000000000E+00 -0.00000000000E+00 -0.47777266353E+02  0.47777266353E+02  0.00000000000E+00 0.  1.
         24    1    1    2    0    0 -0.38084011764E+02 -0.27694307865E+02  0.13030312490E+02  0.94097670737E+02  0.80419002446E+02 0.  1.
        -24    1    1    2    0    0  0.38084011764E+02  0.27694307865E+02  0.29248989837E+03  0.30697707283E+03  0.80419002446E+02 0. -1.
<mgrwt>
<rscale>  0 0.93191108E+02</rscale>
<asrwt>0</asrwt>
<pdfrwt beam="1">  1        1 0.54353456E-01 0.93191108E+02</pdfrwt>
<pdfrwt beam="2">  1       -1 0.73503489E-02 0.93191108E+02</pdfrwt>
<totfact> 0.64903626E+03</totfact>
</mgrwt>
</event>
<event>
 4    1  0.1123525E-001  0.8168654E+02  0.7546771E-02  0.1324332E+00
         -2   -1    0    0    0  501 -0.00000000000E+00  0.00000000000E+00  0.31823200428E+02  0.31823200428E+02  0.00000000000E+00 0.  1.
          2   -1    0    0  501    0  0.00000000000E+00 -0.00000000000E+00 -0.84478014672E+03  0.84478014672E+03  0.00000000000E+00 0. -1.
         24    1    1    2    0    0  0.30750910787E+01 -0.14000685875E+02 -0.78651238952E+03  0.79074296090E+03  0.80419002446E+02 0.  0.
        -24    1    1    2    0    0 -0.30750910787E+01  0.14000685875E+02 -0.26444556779E+02  0.85860386254E+02  0.80419002446E+02 0.  1.
<mgrwt>
<rscale>  0 0.81686543E+02</rscale>
<asrwt>0</asrwt>
<pdfrwt beam="1">  1        2 0.12996619E+00 0.81686543E+02</pdfrwt>
<pdfrwt beam="2">  1       -2 0.48958766E-02 0.81686543E+02</pdfrwt>
<totfact> 0.62970232E+03</totfact>
</mgrwt>
</event>
<event>
 4    1  0.1123525E-001  0.9831538E+02  0.7546771E-02  0.1283879E+00
         -1   -1    0    0    0  501 -0.00000000000E+00  0.00000000000E+00  0.79754313701E+01  0.79754313701E+01  0.00000000000E+00 0.  1.
          1   -1    0    0  501    0  0.00000000000E+00 -0.00000000000E+00 -0.16610138036E+04  0.16610138036E+04  0.00000000000E+00 0. -1.
         24    1    1    2    0    0 -0.33803341950E+02 -0.45343482494E+02 -0.39262329877E+03  0.40474555961E+03  0.80419002446E+02 0.  1.
        -24    1    1    2    0    0  0.33803341950E+02  0.45343482494E+02 -0.12604150735E+04  0.12642436754E+04  0.80419002446E+02 0. -1.
<mgrwt>
<rscale>  0 0.98315377E+02</rscale>
<asrwt>0</asrwt>
<pdfrwt beam="1">  1        1 0.25554067E+00 0.98315377E+02</pdfrwt>
<pdfrwt beam="2">  1       -1 0.12269890E-02 0.98315377E+02</pdfrwt>
<totfact> 0.75678743E+03</totfact>
</mgrwt>
</event>
<event>
 4    1  0.1123525E-001  0.8057730E+02  0.7546771E-02  0.1327421E+00
          2   -1    0    0  501    0  0.00000000000E+00  0.00000000000E+00  0.35655534297E+03  0.35655534297E+03  0.00000000000E+00 0. -1.
         -2   -1    0    0    0  501 -0.00000000000E+00 -0.00000000000E+00 -0.63245338755E+02  0.63245338755E+02  0.00000000000E+00 0.  1.
         24    1    1    2    0    0 -0.50344711625E+01  0.37232074253E+00  0.32377921343E+03  0.33365503072E+03  0.80419002446E+02 0. -1.
        -24    1    1    2    0    0  0.50344711625E+01 -0.37232074253E+00 -0.30469209213E+02  0.86145651005E+02  0.80419002446E+02 0.  1.
<mgrwt>
<rscale>  0 0.80577295E+02</rscale>
<asrwt>0</asrwt>
<pdfrwt beam="1">  1        2 0.54854667E-01 0.80577295E+02</pdfrwt>
<pdfrwt beam="2">  1       -2 0.97300523E-02 0.80577295E+02</pdfrwt>
<totfact> 0.58038827E+03</totfact>
</mgrwt>
</event>
<event>
 4    1  0.1123525E-001  0.8550697E+02  0.7546771E-02  0.1314112E+00
          2   -1    0    0  501    0  0.00000000000E+00  0.00000000000E+00  0.12934027738E+03  0.12934027738E+03  0.00000000000E+00 0. -1.
         -2   -1    0    0    0  501 -0.00000000000E+00 -0.00000000000E+00 -0.17735194950E+03  0.17735194950E+03  0.00000000000E+00 0.  1.
         24    1    1    2    0    0 -0.27539195274E+02 -0.92638724085E+01  0.10256393039E+03  0.13353202754E+03  0.80419002446E+02 0. -1.
        -24    1    1    2    0    0  0.27539195274E+02  0.92638724085E+01 -0.15057560251E+03  0.17316019934E+03  0.80419002446E+02 0.  1.
<mgrwt>
<rscale>  0 0.85506974E+02</rscale>
<asrwt>0</asrwt>
<pdfrwt beam="1">  1        2 0.19898504E-01 0.85506974E+02</pdfrwt>
<pdfrwt beam="2">  1       -2 0.27284915E-01 0.85506974E+02</pdfrwt>
<totfact> 0.31759038E+03</totfact>
</mgrwt>
</event>
<event>
 4    1  0.1123525E-001  0.8472835E+02  0.7546771E-02  0.1316144E+00
         -2   -1    0    0    0  501 -0.00000000000E+00  0.00000000000E+00  0.10267365405E+03  0.10267365405E+03  0.00000000000E+00 0.  1.
          2   -1    0    0  501    0  0.00000000000E+00 -0.00000000000E+00 -0.16101663016E+03  0.16101663016E+03  0.00000000000E+00 0. -1.
         24    1    1    2    0    0  0.13657539686E+02 -0.22916134948E+02 -0.12834165479E+03  0.15378710590E+03  0.80419002446E+02 0. -1.
        -24    1    1    2    0    0 -0.13657539686E+02  0.22916134948E+02  0.69998678689E+02  0.10990317832E+03  0.80419002446E+02 0.  1.
<mgrwt>
<rscale>  0 0.84728352E+02</rscale>
<asrwt>0</asrwt>
<pdfrwt beam="1">  1        2 0.24771789E-01 0.84728352E+02</pdfrwt>
<pdfrwt beam="2">  1       -2 0.15795947E-01 0.84728352E+02</pdfrwt>
<totfact> 0.62586153E+03</totfact>
</mgrwt>
</event>
<event>
 4    1  0.1123525E-001  0.1033315E+03  0.7546771E-02  0.1273442E+00
          2   -1    0    0  501    0  0.00000000000E+00  0.00000000000E+00  0.16732197015E+02  0.16732197015E+02  0.00000000000E+00 0. -1.
         -2   -1    0    0    0  501 -0.00000000000E+00 -0.00000000000E+00 -0.93692844962E+03  0.93692844962E+03  0.00000000000E+00 0.  1.
         24    1    1    2    0    0 -0.64399730100E+02  0.79283882234E+01 -0.19082303032E+03  0.21700421524E+03  0.80419002446E+02 0. -1.
        -24    1    1    2    0    0  0.64399730100E+02 -0.79283882234E+01 -0.72937322229E+03  0.73665643140E+03  0.80419002446E+02 0.  1.
<mgrwt>
<rscale>  0 0.10333151E+03</rscale>
<asrwt>0</asrwt>
<pdfrwt beam="1">  1        2 0.25741836E-02 0.10333151E+03</pdfrwt>
<pdfrwt beam="2">  1       -2 0.14414287E+00 0.10333151E+03</pdfrwt>
<totfact> 0.12852988E+03</totfact>
</mgrwt>
</event>
<event>
 4    1  0.1123525E-001  0.1202605E+03  0.7546771E-02  0.1242668E+00
          2   -1    0    0  501    0  0.00000000000E+00  0.00000000000E+00  0.77756427244E+03  0.77756427244E+03  0.00000000000E+00 0. -1.
         -2   -1    0    0    0  501 -0.00000000000E+00 -0.00000000000E+00 -0.18610018939E+02  0.18610018939E+02  0.00000000000E+00 0.  1.
         24    1    1    2    0    0 -0.21044226710E+00  0.89416654382E+02  0.38877121313E+03  0.40694674649E+03  0.80419002446E+02 0.  1.
        -24    1    1    2    0    0  0.21044226710E+00 -0.89416654382E+02  0.37018304037E+03  0.38922754488E+03  0.80419002446E+02 0. -1.
<mgrwt>
<rscale>  0 0.12026054E+03</rscale>
<asrwt>0</asrwt>
<pdfrwt beam="1">  1        2 0.11962525E+00 0.12026054E+03</pdfrwt>
<pdfrwt beam="2">  1       -2 0.28630804E-02 0.12026054E+03</pdfrwt>
<totfact> 0.15759304E+04</totfact>
</mgrwt>
</event>
<event>
 4    1  0.1123525E-001  0.8382163E+02  0.7546771E-02  0.1318543E+00
         -2   -1    0    0    0  501 -0.00000000000E+00  0.00000000000E+00  0.47593417284E+02  0.47593417284E+02  0.00000000000E+00 0.  1.
          2   -1    0    0  501    0  0.00000000000E+00 -0.00000000000E+00 -0.15006741344E+03  0.15006741344E+03  0.00000000000E+00 0. -1.
         24    1    1    2    0    0  0.13253245959E+02 -0.19575521991E+02 -0.63840575624E+02  0.10536453217E+03  0.80419002446E+02 0. -1.
        -24    1    1    2    0    0 -0.13253245959E+02  0.19575521991E+02 -0.38633420529E+02  0.92296298549E+02  0.80419002446E+02 0.  1.
<mgrwt>
<rscale>  0 0.83821629E+02</rscale>
<asrwt>0</asrwt>
<pdfrwt beam="1">  1        2 0.23087294E-01 0.83821629E+02</pdfrwt>
<pdfrwt beam="2">  1       -2 0.73220642E-02 0.83821629E+02</pdfrwt>
<totfact> 0.22480192E+04</totfact>
</mgrwt>
</event>
<event>
 4    1  0.1123525E-001  0.8357223E+02  0.7546771E-02  0.1319209E+00
         -2   -1    0    0    0  501 -0.00000000000E+00  0.00000000000E+00  0.14594686508E+03  0.14594686508E+03  0.00000000000E+00 0.  1.
          2   -1    0    0  501    0  0.00000000000E+00 -0.00000000000E+00 -0.84765120487E+02  0.84765120487E+02  0.00000000000E+00 0. -1.
         24    1    1    2    0    0 -0.19992421319E+02 -0.10835374858E+02 -0.45529876506E+02  0.95169784425E+02  0.80419002446E+02 0. -1.
        -24    1    1    2    0    0  0.19992421319E+02  0.10835374858E+02  0.10671162110E+03  0.13554220114E+03  0.80419002446E+02 0.  1.
<mgrwt>
<rscale>  0 0.83572234E+02</rscale>
<asrwt>0</asrwt>
<pdfrwt beam="1">  1        2 0.13040788E-01 0.83572234E+02</pdfrwt>
<pdfrwt beam="2">  1       -2 0.22453364E-01 0.83572234E+02</pdfrwt>
<totfact> 0.71943847E+03</totfact>
</mgrwt>
</event>
<event>
 4    1  0.1123525E-001  0.1147677E+03  0.7546771E-02  0.1251987E+00
          3   -1    0    0  501    0  0.00000000000E+00  0.00000000000E+00  0.94867817118E+03  0.94867817118E+03  0.00000000000E+00 0. -1.
         -3   -1    0    0    0  501 -0.00000000000E+00 -0.00000000000E+00 -0.15605464638E+02  0.15605464638E+02  0.00000000000E+00 0.  1.
         24    1    1    2    0    0  0.78860408035E+02  0.22032923518E+02  0.30641055259E+03  0.32719880251E+03  0.80419002446E+02 0.  0.
        -24    1    1    2    0    0 -0.78860408035E+02 -0.22032923518E+02  0.62666215395E+03  0.63708483330E+03  0.80419002446E+02 0. -1.
<mgrwt>
<rscale>  0 0.11476772E+03</rscale>
<asrwt>0</asrwt>
<pdfrwt beam="1">  1        3 0.14595044E+00 0.11476772E+03</pdfrwt>
<pdfrwt beam="2">  1       -3 0.24008415E-02 0.11476772E+03</pdfrwt>
<totfact> 0.60009039E+02</totfact>
</mgrwt>
</event>
<event>
 4    1  0.1123525E-001  0.1447022E+03  0.7546771E-02  0.1207138E+00
          2   -1    0    0  501    0  0.00000000000E+00  0.00000000000E+00  0.46140996724E+03  0.46140996724E+03  0.00000000000E+00 0. -1.
         -2   -1    0    0    0  501 -0.00000000000E+00 -0.00000000000E+00 -0.47878937470E+02  0.47878937470E+02  0.00000000000E+00 0.  1.
         24    1    1    2    0    0  0.86954204807E+02 -0.83129308301E+02  0.26494228300E+03  0.30188266745E+03  0.80419002446E+02 0.  1.
        -24    1    1    2    0    0 -0.86954204807E+02  0.83129308301E+02  0.14858874677E+03  0.20740623726E+03  0.80419002446E+02 0.  0.
<mgrwt>
<rscale>  0 0.14470222E+03</rscale>
<asrwt>0</asrwt>
<pdfrwt beam="1">  1        2 0.70986146E-01 0.14470222E+03</pdfrwt>
<pdfrwt beam="2">  1       -2 0.73659907E-02 0.14470222E+03</pdfrwt>
<totfact> 0.70464109E+03</totfact>
</mgrwt>
</event>
<event>
 4    1  0.1123525E-001  0.1153956E+03  0.7546771E-02  0.1250892E+00
         -2   -1    0    0    0  501 -0.00000000000E+00  0.00000000000E+00  0.55879058645E+02  0.55879058645E+02  0.00000000000E+00 0.  1.
          2   -1    0    0  501    0  0.00000000000E+00 -0.00000000000E+00 -0.34408592218E+03  0.34408592218E+03  0.00000000000E+00 0. -1.
         24    1    1    2    0    0 -0.48683388864E+02  0.66924223663E+02 -0.25498684044E+03  0.27988288411E+03  0.80419002446E+02 0. -1.
        -24    1    1    2    0    0  0.48683388864E+02 -0.66924223663E+02 -0.33220023102E+02  0.12008209672E+03  0.80419002446E+02 0.  1.
<mgrwt>
<rscale>  0 0.11539558E+03</rscale>
<asrwt>0</asrwt>
<pdfrwt beam="1">  1        2 0.52936296E-01 0.11539558E+03</pdfrwt>
<pdfrwt beam="2">  1       -2 0.85967782E-02 0.11539558E+03</pdfrwt>
<totfact> 0.74864670E+03</totfact>
</mgrwt>
</event>
<event>
 4    1  0.1123525E-001  0.9954960E+02  0.7546771E-02  0.1281246E+00
          2   -1    0    0  501    0  0.00000000000E+00  0.00000000000E+00  0.72563881166E+03  0.72563881166E+03  0.00000000000E+00 0. -1.
         -2   -1    0    0    0  501 -0.00000000000E+00 -0.00000000000E+00 -0.13669630651E+02  0.13669630651E+02  0.00000000000E+00 0.  1.
         24    1    1    2    0    0 -0.18262701254E+02  0.55761825533E+02  0.36717552300E+03  0.38043131850E+03  0.80419002446E+02 0.  1.
        -24    1    1    2    0    0  0.18262701254E+02 -0.55761825533E+02  0.34479365801E+03  0.35887712382E+03  0.80419002446E+02 0. -1.
<mgrwt>
<rscale>  0 0.99549603E+02</rscale>
<asrwt>0</asrwt>
<pdfrwt beam="1">  1        2 0.11163671E+00 0.99549603E+02</pdfrwt>
<pdfrwt beam="2">  1       -2 0.21030207E-02 0.99549603E+02</pdfrwt>
<totfact> 0.26371590E+04</totfact>
</mgrwt>
</event>
<event>
 4    1  0.1123525E-001  0.1005633E+03  0.7546771E-02  0.1279116E+00
         -2   -1    0    0    0  501 -0.00000000000E+00  0.00000000000E+00  0.80998723485E+02  0.80998723485E+02  0.00000000000E+00 0.  1.
          2   -1    0    0  501    0  0.00000000000E+00 -0.00000000000E+00 -0.17755976987E+03  0.17755976987E+03  0.00000000000E+00 0. -1.
         24    1    1    2    0    0  0.47656954053E+02 -0.37075376601E+02 -0.11871529711E+03  0.15558376053E+03  0.80419002446E+02 0. -1.
        -24    1    1    2    0    0 -0.47656954053E+02  0.37075376601E+02  0.22154250727E+02  0.10297473282E+03  0.80419002446E+02 0.  1.
<mgrwt>
<rscale>  0 0.10056334E+03</rscale>
<asrwt>0</asrwt>
<pdfrwt beam="1">  1        2 0.27316887E-01 0.10056334E+03</pdfrwt>
<pdfrwt beam="2">  1       -2 0.12461342E-01 0.10056334E+03</pdfrwt>
<totfact> 0.83549743E+03</totfact>
</mgrwt>
</event>
<event>
 4    1  0.1123525E-001  0.1118579E+03  0.7546771E-02  0.1257168E+00
          3   -1    0    0  501    0  0.00000000000E+00  0.00000000000E+00  0.40443640441E+03  0.40443640441E+03  0.00000000000E+00 0. -1.
         -3   -1    0    0    0  501 -0.00000000000E+00 -0.00000000000E+00 -0.32651776719E+02  0.32651776719E+02  0.00000000000E+00 0.  1.
         24    1    1    2    0    0  0.32742002646E+02  0.70518971214E+02  0.23597048296E+03  0.26114028571E+03  0.80419002446E+02 0. -1.
        -24    1    1    2    0    0 -0.32742002646E+02 -0.70518971214E+02  0.13581414472E+03  0.17594789541E+03  0.80419002446E+02 0.  1.
<mgrwt>
<rscale>  0 0.11185787E+03</rscale>
<asrwt>0</asrwt>
<pdfrwt beam="1">  1        3 0.62220982E-01 0.11185788E+03</pdfrwt>
<pdfrwt beam="2">  1       -3 0.50233505E-02 0.11185788E+03</pdfrwt>
<totfact> 0.12869245E+03</totfact>
</mgrwt>
</event>
<event>
 4    1  0.1123525E-001  0.1265421E+03  0.7546771E-02  0.1232679E+00
         -2   -1    0    0    0  501 -0.00000000000E+00  0.00000000000E+00  0.25499648290E+02  0.25499648290E+02  0.00000000000E+00 0.  1.
          2   -1    0    0  501    0  0.00000000000E+00 -0.00000000000E+00 -0.21247261358E+04  0.21247261358E+04  0.00000000000E+00 0. -1.
         24    1    1    2    0    0 -0.56497221741E+02  0.79710470753E+02 -0.19519708823E+04  0.19560683108E+04  0.80419002446E+02 0. -1.
        -24    1    1    2    0    0  0.56497221741E+02 -0.79710470753E+02 -0.14725560519E+03  0.19415747327E+03  0.80419002446E+02 0.  1.
<mgrwt>
<rscale>  0 0.12654213E+03</rscale>
<asrwt>0</asrwt>
<pdfrwt beam="1">  1        2 0.32688113E+00 0.12654213E+03</pdfrwt>
<pdfrwt beam="2">  1       -2 0.39230206E-02 0.12654213E+03</pdfrwt>
<totfact> 0.18310349E+03</totfact>
</mgrwt>
</event>
<event>
 4    1  0.1123525E-001  0.1026836E+03  0.7546771E-02  0.1274752E+00
         -2   -1    0    0    0  501 -0.00000000000E+00  0.00000000000E+00  0.18524441330E+04  0.18524441330E+04  0.00000000000E+00 0.  1.
          2   -1    0    0  501    0  0.00000000000E+00 -0.00000000000E+00 -0.56986188399E+01  0.56986188399E+01  0.00000000000E+00 0. -1.
         24    1    1    2    0    0  0.53796507724E+02  0.34389657724E+02  0.89147379088E+03  0.89736806750E+03  0.80419002446E+02 0. -1.
        -24    1    1    2    0    0 -0.53796507724E+02 -0.34389657724E+02  0.95527172332E+03  0.96077468437E+03  0.80419002446E+02 0.  0.
<mgrwt>
<rscale>  0 0.10268363E+03</rscale>
<asrwt>0</asrwt>
<pdfrwt beam="1">  1        2 0.87671207E-03 0.10268363E+03</pdfrwt>
<pdfrwt beam="2">  1       -2 0.28499093E+00 0.10268363E+03</pdfrwt>
<totfact> 0.75013680E+02</totfact>
</mgrwt>
</event>
<event>
 4    1  0.1123525E-001  0.9600657E+02  0.7546771E-02  0.1288925E+00
         -1   -1    0    0    0  501 -0.00000000000E+00  0.00000000000E+00  0.25712526169E+02  0.25712526169E+02  0.00000000000E+00 0.  1.
          1   -1    0    0  501    0  0.00000000000E+00 -0.00000000000E+00 -0.36144620809E+03  0.36144620809E+03  0.00000000000E+00 0. -1.
         24    1    1    2    0    0 -0.16776699902E+02 -0.49684883036E+02 -0.15031156040E+03  0.17835589816E+03  0.80419002446E+02 0. -1.
        -24    1    1    2    0    0  0.16776699902E+02  0.49684883036E+02 -0.18542212152E+03  0.20880283611E+03  0.80419002446E+02 0.  0.
<mgrwt>
<rscale>  0 0.96006569E+02</rscale>
<asrwt>0</asrwt>
<pdfrwt beam="1">  1        1 0.55607109E-01 0.96006569E+02</pdfrwt>
<pdfrwt beam="2">  1       -1 0.39557732E-02 0.96006569E+02</pdfrwt>
<totfact> 0.15724084E+04</totfact>
</mgrwt>
</event>
<event>
 4    1  0.1123525E-001  0.9576055E+02  0.7546771E-02  0.1289472E+00
         -2   -1    0    0    0  501 -0.00000000000E+00  0.00000000000E+00  0.35460198502E+02  0.35460198502E+02  0.00000000000E+00 0.  1.
          2   -1    0    0  501    0  0.00000000000E+00 -0.00000000000E+00 -0.33234895346E+03  0.33234895346E+03  0.00000000000E+00 0. -1.
         24    1    1    2    0    0  0.50624404559E+02  0.11833693695E+02 -0.23507412708E+03  0.25383051002E+03  0.80419002446E+02 0. -1.
        -24    1    1    2    0    0 -0.50624404559E+02 -0.11833693695E+02 -0.61814627880E+02  0.11397864194E+03  0.80419002446E+02 0.  1.
<mgrwt>
<rscale>  0 0.95760548E+02</rscale>
<asrwt>0</asrwt>
<pdfrwt beam="1">  1        2 0.51130610E-01 0.95760548E+02</pdfrwt>
<pdfrwt beam="2">  1       -2 0.54554150E-02 0.95760548E+02</pdfrwt>
<totfact> 0.15256687E+04</totfact>
</mgrwt>
</event>
<event>
 4    1  0.1123525E-001  0.1047632E+03  0.7546771E-02  0.1270587E+00
         -2   -1    0    0    0  501 -0.00000000000E+00  0.00000000000E+00  0.14111941520E+02  0.14111941520E+02  0.00000000000E+00 0.  1.
          2   -1    0    0  501    0  0.00000000000E+00 -0.00000000000E+00 -0.18115183392E+04  0.18115183392E+04  0.00000000000E+00 0. -1.
         24    1    1    2    0    0 -0.31974043325E+02  0.59040480850E+02 -0.15882702241E+04  0.15917215958E+04  0.80419002446E+02 0. -1.
        -24    1    1    2    0    0  0.31974043325E+02 -0.59040480850E+02 -0.20913617357E+03  0.23390868491E+03  0.80419002446E+02 0.  1.
<mgrwt>
<rscale>  0 0.10476323E+03</rscale>
<asrwt>0</asrwt>
<pdfrwt beam="1">  1        2 0.27869502E+00 0.10476323E+03</pdfrwt>
<pdfrwt beam="2">  1       -2 0.21710688E-02 0.10476323E+03</pdfrwt>
<totfact> 0.62671448E+03</totfact>
</mgrwt>
</event>
<event>
 4    1  0.1123525E-001  0.8140618E+02  0.7546771E-02  0.1325108E+00
         -1   -1    0    0    0  501 -0.00000000000E+00  0.00000000000E+00  0.45644221050E+01  0.45644221050E+01  0.00000000000E+00 0.  1.
          1   -1    0    0  501    0  0.00000000000E+00 -0.00000000000E+00 -0.17985083337E+04  0.17985083337E+04  0.00000000000E+00 0. -1.
         24    1    1    2    0    0 -0.62895592959E+01  0.10963224577E+02 -0.50118390694E+03  0.50775217909E+03  0.80419002446E+02 0.  1.
        -24    1    1    2    0    0  0.62895592959E+01 -0.10963224577E+02 -0.12927600046E+04  0.12953205767E+04  0.80419002446E+02 0.  0.
<mgrwt>
<rscale>  0 0.81406184E+02</rscale>
<asrwt>0</asrwt>
<pdfrwt beam="1">  1        1 0.27669390E+00 0.81406184E+02</pdfrwt>
<pdfrwt beam="2">  1       -1 0.70221799E-03 0.81406184E+02</pdfrwt>
<totfact> 0.13475662E+04</totfact>
</mgrwt>
</event>
<event>
 4    1  0.1123525E-001  0.8794748E+02  0.7546771E-02  0.1307900E+00
          1   -1    0    0  501    0  0.00000000000E+00  0.00000000000E+00  0.32740359885E+02  0.32740359885E+02  0.00000000000E+00 0. -1.
         -1   -1    0    0    0  501 -0.00000000000E+00 -0.00000000000E+00 -0.40394965016E+03  0.40394965016E+03  0.00000000000E+00 0.  1.
         24    1    1    2    0    0  0.77957730660E+01 -0.34738577012E+02 -0.32629091126E+03  0.33793567070E+03  0.80419002446E+02 0.  1.
        -24    1    1    2    0    0 -0.77957730660E+01  0.34738577012E+02 -0.44918379017E+02  0.98754339339E+02  0.80419002446E+02 0. -1.
<mgrwt>
<rscale>  0 0.87947477E+02</rscale>
<asrwt>0</asrwt>
<pdfrwt beam="1">  1        1 0.50369783E-02 0.87947477E+02</pdfrwt>
<pdfrwt beam="2">  1       -1 0.62146101E-01 0.87947477E+02</pdfrwt>
<totfact> 0.41510280E+03</totfact>
</mgrwt>
</event>
<event>
 4    1  0.1123525E-001  0.9155627E+02  0.7546771E-02  0.1299126E+00
         -2   -1    0    0    0  501 -0.00000000000E+00  0.00000000000E+00  0.15944156688E+03  0.15944156688E+03  0.00000000000E+00 0.  1.
          2   -1    0    0  501    0  0.00000000000E+00 -0.00000000000E+00 -0.61684740407E+02  0.61684740407E+02  0.00000000000E+00 0. -1.
         24    1    1    2    0    0  0.36342401799E+02 -0.24383706533E+02  0.63883018356E+01  0.91778873754E+02  0.80419002446E+02 0. -1.
        -24    1    1    2    0    0 -0.36342401799E+02  0.24383706533E+02  0.91368524639E+02  0.12934743353E+03  0.80419002446E+02 0.  1.
<mgrwt>
<rscale>  0 0.91556274E+02</rscale>
<asrwt>0</asrwt>
<pdfrwt beam="1">  1        2 0.94899601E-02 0.91556274E+02</pdfrwt>
<pdfrwt beam="2">  1       -2 0.24529472E-01 0.91556274E+02</pdfrwt>
<totfact> 0.91217728E+03</totfact>
</mgrwt>
</event>
<event>
 4    1  0.1123525E-001  0.1014768E+03  0.7546771E-02  0.1277221E+00
          1   -1    0    0  501    0  0.00000000000E+00  0.00000000000E+00  0.21318016743E+03  0.21318016743E+03  0.00000000000E+00 0. -1.
         -1   -1    0    0    0  501 -0.00000000000E+00 -0.00000000000E+00 -0.60716942481E+02  0.60716942481E+02  0.00000000000E+00 0.  1.
         24    1    1    2    0    0 -0.11255467328E+02 -0.60857548199E+02  0.14311367140E+02  0.10248101239E+03  0.80419002446E+02 0.  1.
        -24    1    1    2    0    0  0.11255467328E+02  0.60857548199E+02  0.13815185781E+03  0.17141609752E+03  0.80419002446E+02 0. -1.
<mgrwt>
<rscale>  0 0.10147681E+03</rscale>
<asrwt>0</asrwt>
<pdfrwt beam="1">  1        1 0.32796949E-01 0.10147681E+03</pdfrwt>
<pdfrwt beam="2">  1       -1 0.93410682E-02 0.10147681E+03</pdfrwt>
<totfact> 0.84719949E+03</totfact>
</mgrwt>
</event>
<event>
 4    1  0.1123525E-001  0.1265710E+03  0.7546771E-02  0.1232634E+00
          2   -1    0    0  501    0  0.00000000000E+00  0.00000000000E+00  0.77409165595E+03  0.77409165595E+03  0.00000000000E+00 0. -1.
         -2   -1    0    0    0  501 -0.00000000000E+00 -0.00000000000E+00 -0.52206372829E+02  0.52206372829E+02  0.00000000000E+00 0.  1.
         24    1    1    2    0    0 -0.20446338440E+02  0.95576963432E+02  0.68192050455E+03  0.69356744385E+03  0.80419002446E+02 0. -1.
        -24    1    1    2    0    0  0.20446338440E+02 -0.95576963432E+02  0.39964778574E+02  0.13273058493E+03  0.80419002446E+02 0.  1.
<mgrwt>
<rscale>  0 0.12657103E+03</rscale>
<asrwt>0</asrwt>
<pdfrwt beam="1">  1        2 0.11909102E+00 0.12657103E+03</pdfrwt>
<pdfrwt beam="2">  1       -2 0.80317502E-02 0.12657103E+03</pdfrwt>
<totfact> 0.33916979E+03</totfact>
</mgrwt>
</event>
<event>
 4    1  0.1123525E-001  0.1156251E+03  0.7546771E-02  0.1250494E+00
         -4   -1    0    0    0  501 -0.00000000000E+00  0.00000000000E+00  0.56135054299E+02  0.56135054299E+02  0.00000000000E+00 0.  1.
          4   -1    0    0  501    0  0.00000000000E+00 -0.00000000000E+00 -0.25845408675E+03  0.25845408675E+03  0.00000000000E+00 0. -1.
         24    1    1    2    0    0 -0.11559819616E+02  0.82269756098E+02 -0.14523533390E+03  0.18564067540E+03  0.80419002446E+02 0.  0.
        -24    1    1    2    0    0  0.11559819616E+02 -0.82269756098E+02 -0.57083698558E+02  0.12894846565E+03  0.80419002446E+02 0. -1.
<mgrwt>
<rscale>  0 0.11562508E+03</rscale>
<asrwt>0</asrwt>
<pdfrwt beam="1">  1        4 0.39762166E-01 0.11562508E+03</pdfrwt>
<pdfrwt beam="2">  1       -4 0.86361624E-02 0.11562508E+03</pdfrwt>
<totfact> 0.95407360E+02</totfact>
</mgrwt>
</event>
<event>
 4    1  0.1123525E-001  0.8426998E+02  0.7546771E-02  0.1317353E+00
         -4   -1    0    0    0  501 -0.00000000000E+00  0.00000000000E+00  0.34814116145E+03  0.34814116145E+03  0.00000000000E+00 0.  1.
          4   -1    0    0  501    0  0.00000000000E+00 -0.00000000000E+00 -0.14755140100E+03  0.14755140100E+03  0.00000000000E+00 0. -1.
         24    1    1    2    0    0  0.14111562512E+02  0.20858494104E+02 -0.12978280820E+03  0.15474174043E+03  0.80419002446E+02 0. -1.
        -24    1    1    2    0    0 -0.14111562512E+02 -0.20858494104E+02  0.33037256864E+03  0.34095082202E+03  0.80419002446E+02 0.  1.
<mgrwt>
<rscale>  0 0.84269976E+02</rscale>
<asrwt>0</asrwt>
<pdfrwt beam="1">  1        4 0.22700216E-01 0.84269976E+02</pdfrwt>
<pdfrwt beam="2">  1       -4 0.53560179E-01 0.84269976E+02</pdfrwt>
<totfact> 0.92824563E+01</totfact>
</mgrwt>
</event>
<event>
 4    1  0.1123525E-001  0.8220469E+02  0.7546771E-02  0.1322909E+00
         -2   -1    0    0    0  501 -0.00000000000E+00  0.00000000000E+00  0.34620971037E+02  0.34620971037E+02  0.00000000000E+00 0.  1.
          2   -1    0    0  501    0  0.00000000000E+00 -0.00000000000E+00 -0.19766327316E+03  0.19766327316E+03  0.00000000000E+00 0. -1.
         24    1    1    2    0    0 -0.10568052799E+02 -0.13368292986E+02 -0.94517032813E+02  0.12526404290E+03  0.80419002446E+02 0.  1.
        -24    1    1    2    0    0  0.10568052799E+02  0.13368292986E+02 -0.68525269307E+02  0.10702020130E+03  0.80419002446E+02 0.  1.
<mgrwt>
<rscale>  0 0.82204689E+02</rscale>
<asrwt>0</asrwt>
<pdfrwt beam="1">  1        2 0.30409733E-01 0.82204689E+02</pdfrwt>
<pdfrwt beam="2">  1       -2 0.53263034E-02 0.82204689E+02</pdfrwt>
<totfact> 0.26854593E+04</totfact>
</mgrwt>
</event>
<event>
 4    1  0.1123525E-001  0.1429458E+03  0.7546771E-02  0.1209419E+00
         -2   -1    0    0    0  501 -0.00000000000E+00  0.00000000000E+00  0.34720139440E+03  0.34720139440E+03  0.00000000000E+00 0.  1.
          2   -1    0    0  501    0  0.00000000000E+00 -0.00000000000E+00 -0.93545096961E+02  0.93545096961E+02  0.00000000000E+00 0. -1.
         24    1    1    2    0    0  0.10449603433E+03 -0.55198292477E+02 -0.73772631822E+01  0.14313599355E+03  0.80419002446E+02 0. -1.
        -24    1    1    2    0    0 -0.10449603433E+03  0.55198292477E+02  0.26103356062E+03  0.29761049781E+03  0.80419002446E+02 0.  1.
<mgrwt>
<rscale>  0 0.14294575E+03</rscale>
<asrwt>0</asrwt>
<pdfrwt beam="1">  1        2 0.14391554E-01 0.14294575E+03</pdfrwt>
<pdfrwt beam="2">  1       -2 0.53415599E-01 0.14294575E+03</pdfrwt>
<totfact> 0.13450461E+03</totfact>
</mgrwt>
</event>
<event>
 4    1  0.1198181E-001  0.8236028E+02  0.7546771E-02  0.1322484E+00
          1   -1    0    0  501    0  0.00000000000E+00  0.00000000000E+00  0.10919698776E+03  0.10919698776E+03  0.00000000000E+00 0. -1.
         -1   -1    0    0    0  501 -0.00000000000E+00 -0.00000000000E+00 -0.23491465820E+03  0.23491465820E+03  0.00000000000E+00 0.  1.
         24    1    1    2    0    0  0.12882950897E+02 -0.12248668843E+02 -0.21042290725E+03  0.22596684748E+03  0.80419002446E+02 0.  0.
        -24    1    1    2    0    0 -0.12882950897E+02  0.12248668843E+02  0.84705236803E+02  0.11814479848E+03  0.80419002446E+02 0. -1.
<mgrwt>
<rscale>  0 0.82360283E+02</rscale>
<asrwt>0</asrwt>
<pdfrwt beam="1">  1        1 0.16799537E-01 0.82360283E+02</pdfrwt>
<pdfrwt beam="2">  1       -1 0.36140716E-01 0.82360283E+02</pdfrwt>
<totfact> 0.22470908E+03</totfact>
</mgrwt>
</event>
<event>
 4    1  0.1123525E-001  0.9816579E+02  0.7546771E-02  0.1284201E+00
          2   -1    0    0  501    0  0.00000000000E+00  0.00000000000E+00  0.45219573008E+03  0.45219573008E+03  0.00000000000E+00 0. -1.
         -2   -1    0    0    0  501 -0.00000000000E+00 -0.00000000000E+00 -0.23722005412E+02  0.23722005412E+02  0.00000000000E+00 0.  1.
         24    1    1    2    0    0  0.52170141237E+02  0.21156162354E+02  0.29010670452E+03  0.30626528175E+03  0.80419002446E+02 0. -1.
        -24    1    1    2    0    0 -0.52170141237E+02 -0.21156162354E+02  0.13836702015E+03  0.16965245374E+03  0.80419002446E+02 0.  1.
<mgrwt>
<rscale>  0 0.98165792E+02</rscale>
<asrwt>0</asrwt>
<pdfrwt beam="1">  1        2 0.69568568E-01 0.98165792E+02</pdfrwt>
<pdfrwt beam="2">  1       -2 0.36495396E-02 0.98165792E+02</pdfrwt>
<totfact> 0.20037183E+04</totfact>
</mgrwt>
</event>
<event>
 4    1  0.1123525E-001  0.8256050E+02  0.7546771E-02  0.1321938E+00
         -2   -1    0    0    0  501 -0.00000000000E+00  0.00000000000E+00  0.97942384275E+01  0.97942384275E+01  0.00000000000E+00 0.  1.
          2   -1    0    0  501    0  0.00000000000E+00 -0.00000000000E+00 -0.26910328868E+04  0.26910328868E+04  0.00000000000E+00 0. -1.
         24    1    1    2    0    0  0.15925895330E+02  0.97665984990E+01 -0.25033749994E+04  0.25047360388E+04  0.80419002446E+02 0. -1.
        -24    1    1    2    0    0 -0.15925895330E+02 -0.97665984990E+01 -0.17786364897E+03  0.19609108641E+03  0.80419002446E+02 0.  1.
<mgrwt>
<rscale>  0 0.82560502E+02</rscale>
<asrwt>0</asrwt>
<pdfrwt beam="1">  1        2 0.41400513E+00 0.82560502E+02</pdfrwt>
<pdfrwt beam="2">  1       -2 0.15068057E-02 0.82560502E+02</pdfrwt>
<totfact> 0.37192702E+03</totfact>
</mgrwt>
</event>
<event>
 4    1  0.1123525E-001  0.8733212E+02  0.7546771E-02  0.1309444E+00
          2   -1    0    0  501    0  0.00000000000E+00  0.00000000000E+00  0.15900365726E+03  0.15900365726E+03  0.00000000000E+00 0. -1.
         -2   -1    0    0    0  501 -0.00000000000E+00 -0.00000000000E+00 -0.62445492919E+02  0.62445492919E+02  0.00000000000E+00 0.  1.
         24    1    1    2    0    0 -0.29686741609E+02 -0.16684635196E+02 -0.50370020853E+01  0.87477237173E+02  0.80419002446E+02 0.  0.
        -24    1    1    2    0    0  0.29686741609E+02  0.16684635196E+02  0.10159516643E+03  0.13397191301E+03  0.80419002446E+02 0. -1.
<mgrwt>
<rscale>  0 0.87332111E+02</rscale>
<asrwt>0</asrwt>
<pdfrwt beam="1">  1        2 0.24462101E-01 0.87332122E+02</pdfrwt>
<pdfrwt beam="2">  1       -2 0.96069989E-02 0.87332122E+02</pdfrwt>
<totfact> 0.13985083E+04</totfact>
</mgrwt>
</event>
<event>
 4    1  0.1123525E-001  0.1163664E+03  0.7546771E-02  0.1249215E+00
         -2   -1    0    0    0  501 -0.00000000000E+00  0.00000000000E+00  0.79195152666E+01  0.79195152666E+01  0.00000000000E+00 0.  1.
          2   -1    0    0  501    0  0.00000000000E+00 -0.00000000000E+00 -0.18758471510E+04  0.18758471510E+04  0.00000000000E+00 0. -1.
         24    1    1    2    0    0  0.37817819021E+02  0.75124746980E+02 -0.12141568454E+04  0.12197204501E+04  0.80419002446E+02 0. -1.
        -24    1    1    2    0    0 -0.37817819021E+02 -0.75124746980E+02 -0.65377079025E+03  0.66404621615E+03  0.80419002446E+02 0.  1.
<mgrwt>
<rscale>  0 0.11636637E+03</rscale>
<asrwt>0</asrwt>
<pdfrwt beam="1">  1        2 0.28859215E+00 0.11636637E+03</pdfrwt>
<pdfrwt beam="2">  1       -2 0.12183858E-02 0.11636637E+03</pdfrwt>
<totfact> 0.13388747E+04</totfact>
</mgrwt>
</event>
<event>
 4    1  0.1123525E-001  0.8400596E+02  0.7546771E-02  0.1318053E+00
         -1   -1    0    0    0  501 -0.00000000000E+00  0.00000000000E+00  0.13265425101E+02  0.13265425101E+02  0.00000000000E+00 0.  1.
          1   -1    0    0  501    0  0.00000000000E+00 -0.00000000000E+00 -0.70028558004E+03  0.70028558004E+03  0.00000000000E+00 0. -1.
         24    1    1    2    0    0 -0.23612430752E+02  0.56779171773E+01 -0.16860565745E+03  0.18837427984E+03  0.80419002446E+02 0.  1.
        -24    1    1    2    0    0  0.23612430752E+02 -0.56779171773E+01 -0.51841449749E+03  0.52517672530E+03  0.80419002446E+02 0. -1.
<mgrwt>
<rscale>  0 0.84005962E+02</rscale>
<asrwt>0</asrwt>
<pdfrwt beam="1">  1        1 0.10773627E+00 0.84005962E+02</pdfrwt>
<pdfrwt beam="2">  1       -1 0.20408341E-02 0.84005962E+02</pdfrwt>
<totfact> 0.17063644E+04</totfact>
</mgrwt>
</event>
<event>
 4    1  0.1123525E-001  0.1016244E+03  0.7546771E-02  0.1276917E+00
          1   -1    0    0  501    0  0.00000000000E+00  0.00000000000E+00  0.53617516739E+03  0.53617516739E+03  0.00000000000E+00 0. -1.
         -1   -1    0    0    0  501 -0.00000000000E+00 -0.00000000000E+00 -0.19354156000E+02  0.19354156000E+02  0.00000000000E+00 0.  1.
         24    1    1    2    0    0  0.27932655016E+02  0.55498434778E+02  0.23918926089E+03  0.25988271963E+03  0.80419002446E+02 0.  0.
        -24    1    1    2    0    0 -0.27932655016E+02 -0.55498434778E+02  0.27763175050E+03  0.29564660376E+03  0.80419002446E+02 0.  1.
<mgrwt>
<rscale>  0 0.10162443E+03</rscale>
<asrwt>0</asrwt>
<pdfrwt beam="1">  1        1 0.82488476E-01 0.10162443E+03</pdfrwt>
<pdfrwt beam="2">  1       -1 0.29775629E-02 0.10162443E+03</pdfrwt>
<totfact> 0.14487142E+04</totfact>
</mgrwt>
</event>
<event>
 4    1  0.1123525E-001  0.1007527E+03  0.7546771E-02  0.1278721E+00
         -3   -1    0    0    0  501 -0.00000000000E+00  0.00000000000E+00  0.16453315167E+02  0.16453315167E+02  0.00000000000E+00 0.  1.
          3   -1    0    0  501    0  0.00000000000E+00 -0.00000000000E+00 -0.13969019300E+04  0.13969019300E+04  0.00000000000E+00 0. -1.
         24    1    1    2    0    0 -0.35522118110E+02  0.49214399335E+02 -0.12182664166E+04  0.12224255216E+04  0.80419002446E+02 0. -1.
        -24    1    1    2    0    0  0.35522118110E+02 -0.49214399335E+02 -0.16218219816E+03  0.19092972354E+03  0.80419002446E+02 0.  1.
<mgrwt>
<rscale>  0 0.10075265E+03</rscale>
<asrwt>0</asrwt>
<pdfrwt beam="1">  1        3 0.21490797E+00 0.10075266E+03</pdfrwt>
<pdfrwt beam="2">  1       -3 0.25312795E-02 0.10075266E+03</pdfrwt>
<totfact> 0.19794294E+02</totfact>
</mgrwt>
</event>
<event>
 4    1  0.1123525E-001  0.8767980E+02  0.7546771E-02  0.1308570E+00
          1   -1    0    0  501    0  0.00000000000E+00  0.00000000000E+00  0.49312401138E+03  0.49312401138E+03  0.00000000000E+00 0. -1.
         -1   -1    0    0    0  501 -0.00000000000E+00 -0.00000000000E+00 -0.17627096238E+02  0.17627096238E+02  0.00000000000E+00 0.  1.
         24    1    1    2    0    0  0.34892420145E+02 -0.17467372667E+01  0.15093108017E+03  0.17455067742E+03  0.80419002446E+02 0. -1.
        -24    1    1    2    0    0 -0.34892420145E+02  0.17467372667E+01  0.32456583498E+03  0.33620043019E+03  0.80419002446E+02 0. -1.
<mgrwt>
<rscale>  0 0.87679804E+02</rscale>
<asrwt>0</asrwt>
<pdfrwt beam="1">  1        1 0.75865222E-01 0.87679804E+02</pdfrwt>
<pdfrwt beam="2">  1       -1 0.27118613E-02 0.87679804E+02</pdfrwt>
<totfact> 0.18216706E+04</totfact>
</mgrwt>
</event>
<event>
 4    1  0.1123525E-001  0.1185403E+03  0.7546771E-02  0.1245525E+00
         -2   -1    0    0    0  501 -0.00000000000E+00  0.00000000000E+00  0.50337332720E+02  0.50337332720E+02  0.00000000000E+00 0.  1.
          2   -1    0    0  501    0  0.00000000000E+00 -0.00000000000E+00 -0.33418366765E+03  0.33418366765E+03  0.00000000000E+00 0. -1.
         24    1    1    2    0    0 -0.28621560455E+02  0.82252009673E+02 -0.21994227859E+03  0.24985277402E+03  0.80419002446E+02 0. -1.
        -24    1    1    2    0    0  0.28621560455E+02 -0.82252009673E+02 -0.63904056340E+02  0.13466822635E+03  0.80419002446E+02 0.  1.
<mgrwt>
<rscale>  0 0.11854030E+03</rscale>
<asrwt>0</asrwt>
<pdfrwt beam="1">  1        2 0.51412870E-01 0.11854030E+03</pdfrwt>
<pdfrwt beam="2">  1       -2 0.77442054E-02 0.11854030E+03</pdfrwt>
<totfact> 0.90863016E+03</totfact>
</mgrwt>
</event>
<event>
 4    1  0.1123525E-001  0.1006736E+03  0.7546771E-02  0.1278886E+00
         -2   -1    0    0    0  501 -0.00000000000E+00  0.00000000000E+00  0.33644773276E+02  0.33644773276E+02  0.00000000000E+00 0.  1.
          2   -1    0    0  501    0  0.00000000000E+00 -0.00000000000E+00 -0.31931784650E+03  0.31931784650E+03  0.00000000000E+00 0. -1.
         24    1    1    2    0    0  0.45291901155E+00  0.60561943726E+02 -0.10084576806E+03  0.14249575100E+03  0.80419002446E+02 0.  1.
        -24    1    1    2    0    0 -0.45291901155E+00 -0.60561943726E+02 -0.18482730516E+03  0.21046686877E+03  0.80419002446E+02 0. -1.
<mgrwt>
<rscale>  0 0.10067359E+03</rscale>
<asrwt>0</asrwt>
<pdfrwt beam="1">  1        2 0.49125820E-01 0.10067361E+03</pdfrwt>
<pdfrwt beam="2">  1       -2 0.51761192E-02 0.10067361E+03</pdfrwt>
<totfact> 0.17291398E+04</totfact>
</mgrwt>
</event>
<event>
 4    1  0.1123525E-001  0.8745733E+02  0.7546771E-02  0.1309129E+00
          2   -1    0    0  501    0  0.00000000000E+00  0.00000000000E+00  0.12333611068E+03  0.12333611068E+03  0.00000000000E+00 0. -1.
         -2   -1    0    0    0  501 -0.00000000000E+00 -0.00000000000E+00 -0.62020172134E+02  0.62020172134E+02  0.00000000000E+00 0.  1.
         24    1    1    2    0    0  0.34184589649E+02 -0.36025386114E+01  0.29874677599E+02  0.92419028181E+02  0.80419002446E+02 0.  1.
        -24    1    1    2    0    0 -0.34184589649E+02  0.36025386114E+01  0.31441260942E+02  0.92937254629E+02  0.80419002446E+02 0. -1.
<mgrwt>
<rscale>  0 0.87457317E+02</rscale>
<asrwt>0</asrwt>
<pdfrwt beam="1">  1        2 0.18974786E-01 0.87457328E+02</pdfrwt>
<pdfrwt beam="2">  1       -2 0.95415650E-02 0.87457328E+02</pdfrwt>
<totfact> 0.18720758E+04</totfact>
</mgrwt>
</event>
<event>
 4    1  0.1123525E-001  0.1077886E+03  0.7546771E-02  0.1264721E+00
          2   -1    0    0  501    0  0.00000000000E+00  0.00000000000E+00  0.28888365895E+03  0.28888365895E+03  0.00000000000E+00 0. -1.
         -2   -1    0    0    0  501 -0.00000000000E+00 -0.00000000000E+00 -0.40713193524E+02  0.40713193524E+02  0.00000000000E+00 0.  1.
         24    1    1    2    0    0  0.42700978797E+02 -0.57686975310E+02  0.14225676169E+03  0.17848070739E+03  0.80419002446E+02 0. -1.
        -24    1    1    2    0    0 -0.42700978797E+02  0.57686975310E+02  0.10591370374E+03  0.15111614508E+03  0.80419002446E+02 0.  1.
<mgrwt>
<rscale>  0 0.10778857E+03</rscale>
<asrwt>0</asrwt>
<pdfrwt beam="1">  1        2 0.44443638E-01 0.10778857E+03</pdfrwt>
<pdfrwt beam="2">  1       -2 0.62635684E-02 0.10778857E+03</pdfrwt>
<totfact> 0.14520075E+04</totfact>
</mgrwt>
</event>
<event>
 4    1  0.1123525E-001  0.1431081E+03  0.7546771E-02  0.1209207E+00
          3   -1    0    0  501    0  0.00000000000E+00  0.00000000000E+00  0.31053486473E+03  0.31053486473E+03  0.00000000000E+00 0. -1.
         -3   -1    0    0    0  501 -0.00000000000E+00 -0.00000000000E+00 -0.81742541684E+02  0.81742541684E+02  0.00000000000E+00 0.  1.
         24    1    1    2    0    0  0.50593441872E+02 -0.10701870868E+03  0.28185900620E+02  0.14585733207E+03  0.80419002446E+02 0.  1.
        -24    1    1    2    0    0 -0.50593441872E+02  0.10701870868E+03  0.20060642243E+03  0.24642007435E+03  0.80419002446E+02 0. -1.
<mgrwt>
<rscale>  0 0.14310806E+03</rscale>
<asrwt>0</asrwt>
<pdfrwt beam="1">  1        3 0.47774594E-01 0.14310806E+03</pdfrwt>
<pdfrwt beam="2">  1       -3 0.12575776E-01 0.14310806E+03</pdfrwt>
<totfact> 0.51346473E+02</totfact>
</mgrwt>
</event>
<event>
 4    1  0.1123525E-001  0.8181746E+02  0.7546771E-02  0.1323971E+00
         -1   -1    0    0    0  501 -0.00000000000E+00  0.00000000000E+00  0.15049346599E+02  0.15049346599E+02  0.00000000000E+00 0.  1.
          1   -1    0    0  501    0  0.00000000000E+00 -0.00000000000E+00 -0.74265049104E+03  0.74265049104E+03  0.00000000000E+00 0. -1.
         24    1    1    2    0    0  0.13030635091E+02  0.75552988180E+01 -0.12388025800E+03  0.14846014370E+03  0.80419002446E+02 0.  0.
        -24    1    1    2    0    0 -0.13030635091E+02 -0.75552988180E+01 -0.60372088644E+03  0.60923969394E+03  0.80419002446E+02 0. -1.
<mgrwt>
<rscale>  0 0.81817455E+02</rscale>
<asrwt>0</asrwt>
<pdfrwt beam="1">  1        1 0.11425393E+00 0.81817455E+02</pdfrwt>
<pdfrwt beam="2">  1       -1 0.23152839E-02 0.81817455E+02</pdfrwt>
<totfact> 0.13085733E+04</totfact>
</mgrwt>
</event>
<event>
 4    1  0.1123525E-001  0.1087199E+03  0.7546771E-02  0.1262959E+00
         -2   -1    0    0    0  501 -0.00000000000E+00  0.00000000000E+00  0.23775688943E+03  0.23775688943E+03  0.00000000000E+00 0.  1.
          2   -1    0    0  501    0  0.00000000000E+00 -0.00000000000E+00 -0.87131091287E+02  0.87131091287E+02  0.00000000000E+00 0. -1.
         24    1    1    2    0    0  0.23976877039E+02 -0.69122484352E+02 -0.31137606616E+02  0.11309100307E+03  0.80419002446E+02 0. -1.
        -24    1    1    2    0    0 -0.23976877039E+02  0.69122484352E+02  0.18176340476E+03  0.21179697764E+03  0.80419002446E+02 0.  1.
<mgrwt>
<rscale>  0 0.10871994E+03</rscale>
<asrwt>0</asrwt>
<pdfrwt beam="1">  1        2 0.13404783E-01 0.10871994E+03</pdfrwt>
<pdfrwt beam="2">  1       -2 0.36577983E-01 0.10871994E+03</pdfrwt>
<totfact> 0.29925832E+03</totfact>
</mgrwt>
</event>
<event>
 4    1  0.1123525E-001  0.8679785E+02  0.7546771E-02  0.1310797E+00
         -2   -1    0    0    0  501 -0.00000000000E+00  0.00000000000E+00  0.15340477509E+02  0.15340477509E+02  0.00000000000E+00 0.  1.
          2   -1    0    0  501    0  0.00000000000E+00 -0.00000000000E+00 -0.76955912623E+03  0.76955912623E+03  0.00000000000E+00 0. -1.
         24    1    1    2    0    0  0.10819015496E+02 -0.30815574324E+02 -0.61317660942E+03  0.61928944849E+03  0.80419002446E+02 0.  1.
        -24    1    1    2    0    0 -0.10819015496E+02  0.30815574324E+02 -0.14104203930E+03  0.16561015525E+03  0.80419002446E+02 0.  0.
<mgrwt>
<rscale>  0 0.86797849E+02</rscale>
<asrwt>0</asrwt>
<pdfrwt beam="1">  1        2 0.11839370E+00 0.86797849E+02</pdfrwt>
<pdfrwt beam="2">  1       -2 0.23600738E-02 0.86797849E+02</pdfrwt>
<totfact> 0.20550244E+04</totfact>
</mgrwt>
</event>
<event>
 4    1  0.1123525E-001  0.9950131E+02  0.7546771E-02  0.1281348E+00
          2   -1    0    0  501    0  0.00000000000E+00  0.00000000000E+00  0.13095349208E+03  0.13095349208E+03  0.00000000000E+00 0. -1.
         -2   -1    0    0    0  501 -0.00000000000E+00 -0.00000000000E+00 -0.32451963387E+03  0.32451963387E+03  0.00000000000E+00 0.  1.
         24    1    1    2    0    0 -0.56736750771E+02 -0.14636797725E+02  0.10266921019E+03  0.14297369482E+03  0.80419002446E+02 0. -1.
        -24    1    1    2    0    0  0.56736750771E+02  0.14636797725E+02 -0.29623535198E+03  0.31249943112E+03  0.80419002446E+02 0.  1.
<mgrwt>
<rscale>  0 0.99501310E+02</rscale>
<asrwt>0</asrwt>
<pdfrwt beam="1">  1        2 0.20146691E-01 0.99501310E+02</pdfrwt>
<pdfrwt beam="2">  1       -2 0.49926097E-01 0.99501310E+02</pdfrwt>
<totfact> 0.10308844E+03</totfact>
</mgrwt>
</event>
<event>
 4    1  0.1123525E-001  0.8485018E+02  0.7546771E-02  0.1315825E+00
          2   -1    0    0  501    0  0.00000000000E+00  0.00000000000E+00  0.42909295848E+03  0.42909295848E+03  0.00000000000E+00 0. -1.
         -2   -1    0    0    0  501 -0.00000000000E+00 -0.00000000000E+00 -0.26688887178E+02  0.26688887178E+02  0.00000000000E+00 0.  1.
         24    1    1    2    0    0 -0.26815038325E+02  0.36456142535E+01  0.34007134025E+03  0.35049688900E+03  0.80419002446E+02 0. -1.
        -24    1    1    2    0    0  0.26815038325E+02 -0.36456142535E+01  0.62332731047E+02  0.10528495665E+03  0.80419002446E+02 0.  1.
<mgrwt>
<rscale>  0 0.84850178E+02</rscale>
<asrwt>0</asrwt>
<pdfrwt beam="1">  1        2 0.66014296E-01 0.84850178E+02</pdfrwt>
<pdfrwt beam="2">  1       -2 0.41059830E-02 0.84850178E+02</pdfrwt>
<totfact> 0.17563963E+04</totfact>
</mgrwt>
</event>
<event>
 4    1  0.1123525E-001  0.1316391E+03  0.7546771E-02  0.1225044E+00
          1   -1    0    0  501    0  0.00000000000E+00  0.00000000000E+00  0.14117494289E+04  0.14117494289E+04  0.00000000000E+00 0. -1.
         -1   -1    0    0    0  501 -0.00000000000E+00 -0.00000000000E+00 -0.12709943832E+02  0.12709943832E+02  0.00000000000E+00 0.  1.
         24    1    1    2    0    0 -0.65324409338E+02  0.81205651316E+02  0.83131396351E+03  0.84167200152E+03  0.80419002446E+02 0.  1.
        -24    1    1    2    0    0  0.65324409338E+02 -0.81205651316E+02  0.56772552155E+03  0.58278737121E+03  0.80419002446E+02 0. -1.
<mgrwt>
<rscale>  0 0.13163911E+03</rscale>
<asrwt>0</asrwt>
<pdfrwt beam="1">  1        1 0.21719210E+00 0.13163913E+03</pdfrwt>
<pdfrwt beam="2">  1       -1 0.19553771E-02 0.13163913E+03</pdfrwt>
<totfact> 0.56875745E+03</totfact>
</mgrwt>
</event>
<event>
 4    1  0.1123525E-001  0.9702618E+02  0.7546771E-02  0.1286677E+00
         -2   -1    0    0    0  501 -0.00000000000E+00  0.00000000000E+00  0.71405739866E+02  0.71405739866E+02  0.00000000000E+00 0.  1.
          2   -1    0    0  501    0  0.00000000000E+00 -0.00000000000E+00 -0.80158780422E+03  0.80158780422E+03  0.00000000000E+00 0. -1.
         24    1    1    2    0    0  0.51567203310E+02 -0.16961370791E+02 -0.76408044539E+03  0.77021620831E+03  0.80419002446E+02 0. -1.
        -24    1    1    2    0    0 -0.51567203310E+02  0.16961370791E+02  0.33898381045E+02  0.10277733577E+03  0.80419002446E+02 0.  1.
<mgrwt>
<rscale>  0 0.97026185E+02</rscale>
<asrwt>0</asrwt>
<pdfrwt beam="1">  1        2 0.12332120E+00 0.97026185E+02</pdfrwt>
<pdfrwt beam="2">  1       -2 0.10985498E-01 0.97026185E+02</pdfrwt>
<totfact> 0.19803359E+03</totfact>
</mgrwt>
</event>
<event>
 4    1  0.1123525E-001  0.1439442E+03  0.7546771E-02  0.1208118E+00
          2   -1    0    0  501    0  0.00000000000E+00  0.00000000000E+00  0.52731825374E+03  0.52731825374E+03  0.00000000000E+00 0. -1.
         -2   -1    0    0    0  501 -0.00000000000E+00 -0.00000000000E+00 -0.50092015053E+02  0.50092015053E+02  0.00000000000E+00 0.  1.
         24    1    1    2    0    0 -0.84679746683E+02 -0.84154975244E+02  0.37266150827E+03  0.39949535048E+03  0.80419002446E+02 0. -1.
        -24    1    1    2    0    0  0.84679746683E+02  0.84154975244E+02  0.10456473042E+03  0.17791491832E+03  0.80419002446E+02 0.  1.
<mgrwt>
<rscale>  0 0.14394421E+03</rscale>
<asrwt>0</asrwt>
<pdfrwt beam="1">  1        2 0.81125881E-01 0.14394421E+03</pdfrwt>
<pdfrwt beam="2">  1       -2 0.77064642E-02 0.14394421E+03</pdfrwt>
<totfact> 0.56743128E+03</totfact>
</mgrwt>
</event>
<event>
 4    1  0.1123525E-001  0.1085886E+03  0.7546771E-02  0.1263206E+00
         -1   -1    0    0    0  501 -0.00000000000E+00  0.00000000000E+00  0.10976953622E+02  0.10976953622E+02  0.00000000000E+00 0.  1.
          1   -1    0    0  501    0  0.00000000000E+00 -0.00000000000E+00 -0.12067433092E+04  0.12067433092E+04  0.00000000000E+00 0. -1.
         24    1    1    2    0    0 -0.52308659739E+02 -0.50873165538E+02 -0.39610140050E+03  0.41071621625E+03  0.80419002446E+02 0.  0.
        -24    1    1    2    0    0  0.52308659739E+02  0.50873165538E+02 -0.79966495512E+03  0.80700404661E+03  0.80419002446E+02 0. -1.
<mgrwt>
<rscale>  0 0.10858863E+03</rscale>
<asrwt>0</asrwt>
<pdfrwt beam="1">  1        1 0.18565274E+00 0.10858863E+03</pdfrwt>
<pdfrwt beam="2">  1       -1 0.16887628E-02 0.10858863E+03</pdfrwt>
<totfact> 0.95198252E+03</totfact>
</mgrwt>
</event>
<event>
 4    1  0.1123525E-001  0.9463264E+02  0.7546771E-02  0.1292006E+00
         -2   -1    0    0    0  501 -0.00000000000E+00  0.00000000000E+00  0.12539203708E+02  0.12539203708E+02  0.00000000000E+00 0.  1.
          2   -1    0    0  501    0  0.00000000000E+00 -0.00000000000E+00 -0.71997749835E+03  0.71997749835E+03  0.00000000000E+00 0. -1.
         24    1    1    2    0    0  0.43727629164E+02  0.24000325048E+02 -0.38656522847E+03  0.39797991529E+03  0.80419002446E+02 0.  1.
        -24    1    1    2    0    0 -0.43727629164E+02 -0.24000325048E+02 -0.32087306617E+03  0.33453678677E+03  0.80419002446E+02 0.  0.
<mgrwt>
<rscale>  0 0.94632643E+02</rscale>
<asrwt>0</asrwt>
<pdfrwt beam="1">  1        2 0.11076580E+00 0.94632643E+02</pdfrwt>
<pdfrwt beam="2">  1       -2 0.19291077E-02 0.94632643E+02</pdfrwt>
<totfact> 0.29986067E+04</totfact>
</mgrwt>
</event>
<event>
 4    1  0.1123525E-001  0.9282167E+02  0.7546771E-02  0.1296159E+00
          2   -1    0    0  501    0  0.00000000000E+00  0.00000000000E+00  0.38077460550E+03  0.38077460550E+03  0.00000000000E+00 0. -1.
         -2   -1    0    0    0  501 -0.00000000000E+00 -0.00000000000E+00 -0.26977545797E+02  0.26977545797E+02  0.00000000000E+00 0.  1.
         24    1    1    2    0    0 -0.35423054621E+02  0.29897398450E+02  0.25876893345E+03  0.27491312102E+03  0.80419002446E+02 0. -1.
        -24    1    1    2    0    0  0.35423054621E+02 -0.29897398450E+02  0.95028126251E+02  0.13283903028E+03  0.80419002446E+02 0.  1.
<mgrwt>
<rscale>  0 0.92821674E+02</rscale>
<asrwt>0</asrwt>
<pdfrwt beam="1">  1        2 0.58580705E-01 0.92821674E+02</pdfrwt>
<pdfrwt beam="2">  1       -2 0.41503919E-02 0.92821674E+02</pdfrwt>
<totfact> 0.19785002E+04</totfact>
</mgrwt>
</event>
<event>
 4    1  0.1123525E-001  0.1958003E+03  0.7546771E-02  0.1153331E+00
          2   -1    0    0  501    0  0.00000000000E+00  0.00000000000E+00  0.31723712740E+03  0.31723712740E+03  0.00000000000E+00 0. -1.
         -2   -1    0    0    0  501 -0.00000000000E+00 -0.00000000000E+00 -0.16263131336E+03  0.16263131336E+03  0.00000000000E+00 0.  1.
         24    1    1    2    0    0  0.17774893060E+03 -0.16608705079E+02  0.19891787830E+03  0.27911658796E+03  0.80419002446E+02 0. -1.
        -24    1    1    2    0    0 -0.17774893060E+03  0.16608705079E+02 -0.44312064259E+02  0.20075185281E+03  0.80419002446E+02 0.  1.
<mgrwt>
<rscale>  0 0.19580027E+03</rscale>
<asrwt>0</asrwt>
<pdfrwt beam="1">  1        2 0.48805712E-01 0.19580027E+03</pdfrwt>
<pdfrwt beam="2">  1       -2 0.25020202E-01 0.19580027E+03</pdfrwt>
<totfact> 0.14498160E+03</totfact>
</mgrwt>
</event>
<event>
 4    1  0.1123525E-001  0.8066580E+02  0.7546771E-02  0.1327173E+00
         -1   -1    0    0    0  501 -0.00000000000E+00  0.00000000000E+00  0.96912899889E+02  0.96912899889E+02  0.00000000000E+00 0.  1.
          1   -1    0    0  501    0  0.00000000000E+00 -0.00000000000E+00 -0.79475491544E+02  0.79475491544E+02  0.00000000000E+00 0. -1.
         24    1    1    2    0    0  0.62005816110E+01  0.11436560523E+01  0.43460975107E+02  0.91628748071E+02  0.80419002446E+02 0.  0.
        -24    1    1    2    0    0 -0.62005816110E+01 -0.11436560523E+01 -0.26023566762E+02  0.84759643362E+02  0.80419002446E+02 0. -1.
<mgrwt>
<rscale>  0 0.80665799E+02</rscale>
<asrwt>0</asrwt>
<pdfrwt beam="1">  1        1 0.12226999E-01 0.80665799E+02</pdfrwt>
<pdfrwt beam="2">  1       -1 0.14909677E-01 0.80665799E+02</pdfrwt>
<totfact> 0.14035230E+04</totfact>
</mgrwt>
</event>
<event>
 4    1  0.1123525E-001  0.1535764E+03  0.7546771E-02  0.1196146E+00
         -2   -1    0    0    0  501 -0.00000000000E+00  0.00000000000E+00  0.18415093618E+02  0.18415093618E+02  0.00000000000E+00 0.  1.
          2   -1    0    0  501    0  0.00000000000E+00 -0.00000000000E+00 -0.13143676396E+04  0.13143676396E+04  0.00000000000E+00 0. -1.
         24    1    1    2    0    0  0.44443463566E+02  0.12305801974E+03 -0.75450092714E+03  0.76997231293E+03  0.80419002446E+02 0. -1.
        -24    1    1    2    0    0 -0.44443463566E+02 -0.12305801974E+03 -0.54145161885E+03  0.56281042029E+03  0.80419002446E+02 0.  1.
<mgrwt>
<rscale>  0 0.15357641E+03</rscale>
<asrwt>0</asrwt>
<pdfrwt beam="1">  1        2 0.20221038E+00 0.15357641E+03</pdfrwt>
<pdfrwt beam="2">  1       -2 0.28330917E-02 0.15357641E+03</pdfrwt>
<totfact> 0.77896797E+03</totfact>
</mgrwt>
</event>
<event>
 4    1  0.1123525E-001  0.8237572E+02  0.7546771E-02  0.1322442E+00
          2   -1    0    0  501    0  0.00000000000E+00  0.00000000000E+00  0.62678493393E+03  0.62678493393E+03  0.00000000000E+00 0. -1.
         -2   -1    0    0    0  501 -0.00000000000E+00 -0.00000000000E+00 -0.13869817686E+02  0.13869817686E+02  0.00000000000E+00 0.  1.
         24    1    1    2    0    0 -0.17729298913E+02 -0.20529851900E+01  0.45651133620E+03  0.46388399285E+03  0.80419002446E+02 0.  1.
        -24    1    1    2    0    0  0.17729298913E+02  0.20529851900E+01  0.15640378004E+03  0.17677075876E+03  0.80419002446E+02 0.  0.
<mgrwt>
<rscale>  0 0.82375717E+02</rscale>
<asrwt>0</asrwt>
<pdfrwt beam="1">  1        2 0.96428429E-01 0.82375717E+02</pdfrwt>
<pdfrwt beam="2">  1       -2 0.21338186E-02 0.82375717E+02</pdfrwt>
<totfact> 0.29986272E+04</totfact>
</mgrwt>
</event>
<event>
 4    1  0.1123525E-001  0.8493854E+02  0.7546771E-02  0.1315593E+00
          2   -1    0    0  501    0  0.00000000000E+00  0.00000000000E+00  0.17686661197E+03  0.17686661197E+03  0.00000000000E+00 0. -1.
         -2   -1    0    0    0  501 -0.00000000000E+00 -0.00000000000E+00 -0.67540207512E+02  0.67540207512E+02  0.00000000000E+00 0.  1.
         24    1    1    2    0    0 -0.16792020474E+02  0.21572369664E+02  0.13156882443E+03  0.15660431220E+03  0.80419002446E+02 0.  1.
        -24    1    1    2    0    0  0.16792020474E+02 -0.21572369664E+02 -0.22242419968E+02  0.87802507282E+02  0.80419002446E+02 0.  0.
<mgrwt>
<rscale>  0 0.84938537E+02</rscale>
<asrwt>0</asrwt>
<pdfrwt beam="1">  1        2 0.27210248E-01 0.84938537E+02</pdfrwt>
<pdfrwt beam="2">  1       -2 0.10390801E-01 0.84938537E+02</pdfrwt>
<totfact> 0.11001561E+04</totfact>
</mgrwt>
</event>
<event>
 4    1  0.1123525E-001  0.1129682E+03  0.7546771E-02  0.1255170E+00
         -4   -1    0    0    0  501 -0.00000000000E+00  0.00000000000E+00  0.13665520415E+03  0.13665520415E+03  0.00000000000E+00 0.  1.
          4   -1    0    0  501    0  0.00000000000E+00 -0.00000000000E+00 -0.12471340910E+03  0.12471340910E+03  0.00000000000E+00 0. -1.
         24    1    1    2    0    0  0.66423388084E+02 -0.43388030328E+02 -0.59526339275E+02  0.12769177218E+03  0.80419002446E+02 0. -1.
        -24    1    1    2    0    0 -0.66423388084E+02  0.43388030328E+02  0.71468134323E+02  0.13367684107E+03  0.80419002446E+02 0.  1.
<mgrwt>
<rscale>  0 0.11296815E+03</rscale>
<asrwt>0</asrwt>
<pdfrwt beam="1">  1        4 0.19186678E-01 0.11296815E+03</pdfrwt>
<pdfrwt beam="2">  1       -4 0.21023878E-01 0.11296815E+03</pdfrwt>
<totfact> 0.79660433E+02</totfact>
</mgrwt>
</event>
<event>
 4    1  0.1123525E-001  0.8664239E+02  0.7546771E-02  0.1311193E+00
          1   -1    0    0  501    0  0.00000000000E+00  0.00000000000E+00  0.20759865040E+03  0.20759865040E+03  0.00000000000E+00 0. -1.
         -1   -1    0    0    0  501 -0.00000000000E+00 -0.00000000000E+00 -0.38337121332E+02  0.38337121332E+02  0.00000000000E+00 0.  1.
         24    1    1    2    0    0 -0.20158835279E+02 -0.25165572238E+02  0.11393019386E+03  0.14313276946E+03  0.80419002446E+02 0. -1.
        -24    1    1    2    0    0  0.20158835279E+02  0.25165572238E+02  0.55331335207E+02  0.10280300227E+03  0.80419002446E+02 0. -1.
<mgrwt>
<rscale>  0 0.86642383E+02</rscale>
<asrwt>0</asrwt>
<pdfrwt beam="1">  1        1 0.31938253E-01 0.86642394E+02</pdfrwt>
<pdfrwt beam="2">  1       -1 0.58980188E-02 0.86642394E+02</pdfrwt>
<totfact> 0.17098595E+04</totfact>
</mgrwt>
</event>
<event>
 4    1  0.1123525E-001  0.2550294E+03  0.7546771E-02  0.1110167E+00
          2   -1    0    0  501    0  0.00000000000E+00  0.00000000000E+00  0.82472395539E+03  0.82472395539E+03  0.00000000000E+00 0. -1.
         -2   -1    0    0    0  501 -0.00000000000E+00 -0.00000000000E+00 -0.11886504290E+03  0.11886504290E+03  0.00000000000E+00 0.  1.
         24    1    1    2    0    0 -0.23068280368E+03 -0.73200034928E+02  0.62662524953E+03  0.67653471480E+03  0.80419002446E+02 0. -1.
        -24    1    1    2    0    0  0.23068280368E+03  0.73200034928E+02  0.79233662960E+02  0.26705428349E+03  0.80419002446E+02 0.  1.
<mgrwt>
<rscale>  0 0.25502944E+03</rscale>
<asrwt>0</asrwt>
<pdfrwt beam="1">  1        2 0.12688060E+00 0.25502944E+03</pdfrwt>
<pdfrwt beam="2">  1       -2 0.18286930E-01 0.25502944E+03</pdfrwt>
<totfact> 0.83875430E+02</totfact>
</mgrwt>
</event>
<event>
 4    1  0.1123525E-001  0.1133517E+03  0.7546771E-02  0.1254486E+00
          1   -1    0    0  501    0  0.00000000000E+00  0.00000000000E+00  0.12770723722E+03  0.12770723722E+03  0.00000000000E+00 0. -1.
         -1   -1    0    0    0  501 -0.00000000000E+00 -0.00000000000E+00 -0.11771863387E+03  0.11771863387E+03  0.00000000000E+00 0.  1.
         24    1    1    2    0    0 -0.79664629035E+02  0.59102832757E+01 -0.41787597784E+02  0.12080895600E+03  0.80419002446E+02 0.  1.
        -24    1    1    2    0    0  0.79664629035E+02 -0.59102832757E+01  0.51776201128E+02  0.12461691508E+03  0.80419002446E+02 0.  0.
<mgrwt>
<rscale>  0 0.11335167E+03</rscale>
<asrwt>0</asrwt>
<pdfrwt beam="1">  1        1 0.19647267E-01 0.11335167E+03</pdfrwt>
<pdfrwt beam="2">  1       -1 0.18110559E-01 0.11335167E+03</pdfrwt>
<totfact> 0.58233942E+03</totfact>
</mgrwt>
</event>
<event>
 4    1  0.1123525E-001  0.8513056E+02  0.7546771E-02  0.1315091E+00
          2   -1    0    0  501    0  0.00000000000E+00  0.00000000000E+00  0.53249785367E+03  0.53249785367E+03  0.00000000000E+00 0. -1.
         -2   -1    0    0    0  501 -0.00000000000E+00 -0.00000000000E+00 -0.14084001511E+02  0.14084001511E+02  0.00000000000E+00 0.  1.
         24    1    1    2    0    0 -0.15810562823E+02 -0.23022137974E+02  0.20906200328E+03  0.22573021487E+03  0.80419002446E+02 0. -1.
        -24    1    1    2    0    0  0.15810562823E+02  0.23022137974E+02  0.30935184888E+03  0.32085164032E+03  0.80419002446E+02 0. -1.
<mgrwt>
<rscale>  0 0.85130550E+02</rscale>
<asrwt>0</asrwt>
<pdfrwt beam="1">  1        2 0.81922731E-01 0.85130560E+02</pdfrwt>
<pdfrwt beam="2">  1       -2 0.21667699E-02 0.85130560E+02</pdfrwt>
<totfact> 0.35261408E+04</totfact>
</mgrwt>
</event>
<event>
 4    1  0.1123525E-001  0.8480915E+02  0.7546771E-02  0.1315932E+00
         -3   -1    0    0    0  501 -0.00000000000E+00  0.00000000000E+00  0.31565571917E+03  0.31565571917E+03  0.00000000000E+00 0.  1.
          3   -1    0    0  501    0  0.00000000000E+00 -0.00000000000E+00 -0.29143178180E+02  0.29143178180E+02  0.00000000000E+00 0. -1.
         24    1    1    2    0    0 -0.25516708366E+02 -0.86182537004E+01  0.22377426705E+03  0.23930632095E+03  0.80419002446E+02 0.  1.
        -24    1    1    2    0    0  0.25516708366E+02  0.86182537004E+01  0.62738273947E+02  0.10549257640E+03  0.80419002446E+02 0. -1.
<mgrwt>
<rscale>  0 0.84809154E+02</rscale>
<asrwt>0</asrwt>
<pdfrwt beam="1">  1        3 0.44835661E-02 0.84809154E+02</pdfrwt>
<pdfrwt beam="2">  1       -3 0.48562416E-01 0.84809154E+02</pdfrwt>
<totfact> 0.23974237E+03</totfact>
</mgrwt>
</event>
<event>
 4    1  0.1123525E-001  0.8412904E+02  0.7546771E-02  0.1317726E+00
          2   -1    0    0  501    0  0.00000000000E+00  0.00000000000E+00  0.33066890302E+04  0.33066890302E+04  0.00000000000E+00 0. -1.
         -2   -1    0    0    0  501 -0.00000000000E+00 -0.00000000000E+00 -0.44210500788E+01  0.44210500788E+01  0.00000000000E+00 0.  1.
         24    1    1    2    0    0 -0.20321239415E+02 -0.14054421376E+02  0.28402070960E+04  0.28414528052E+04  0.80419002446E+02 0. -1.
        -24    1    1    2    0    0  0.20321239415E+02  0.14054421376E+02  0.46206088410E+03  0.46965727515E+03  0.80419002446E+02 0.  1.
<mgrwt>
<rscale>  0 0.84129041E+02</rscale>
<asrwt>0</asrwt>
<pdfrwt beam="1">  1        2 0.50871941E+00 0.84129041E+02</pdfrwt>
<pdfrwt beam="2">  1       -2 0.68016419E-03 0.84129041E+02</pdfrwt>
<totfact> 0.51092325E+03</totfact>
</mgrwt>
</event>
<event>
 4    1  0.1123525E-001  0.8727891E+02  0.7546771E-02  0.1309578E+00
         -2   -1    0    0    0  501 -0.00000000000E+00  0.00000000000E+00  0.37356659853E+02  0.37356659853E+02  0.00000000000E+00 0.  1.
          2   -1    0    0  501    0  0.00000000000E+00 -0.00000000000E+00 -0.34558376239E+03  0.34558376239E+03  0.00000000000E+00 0. -1.
         24    1    1    2    0    0  0.12908398641E+02  0.31365025165E+02 -0.27670512159E+03  0.29014363999E+03  0.80419002446E+02 0. -1.
        -24    1    1    2    0    0 -0.12908398641E+02 -0.31365025165E+02 -0.31521980949E+02  0.92796782252E+02  0.80419002446E+02 0.  1.
<mgrwt>
<rscale>  0 0.87278906E+02</rscale>
<asrwt>0</asrwt>
<pdfrwt beam="1">  1        2 0.53166733E-01 0.87278906E+02</pdfrwt>
<pdfrwt beam="2">  1       -2 0.57471785E-02 0.87278906E+02</pdfrwt>
<totfact> 0.13430511E+04</totfact>
</mgrwt>
</event>
<event>
 4    1  0.1123525E-001  0.8087388E+02  0.7546771E-02  0.1326590E+00
          1   -1    0    0  501    0  0.00000000000E+00  0.00000000000E+00  0.11364753953E+04  0.11364753953E+04  0.00000000000E+00 0. -1.
         -1   -1    0    0    0  501 -0.00000000000E+00 -0.00000000000E+00 -0.83382266198E+01  0.83382266198E+01  0.00000000000E+00 0.  1.
         24    1    1    2    0    0 -0.73221948871E+01  0.44445295530E+01  0.24547520952E+03  0.25845437281E+03  0.80419002446E+02 0.  1.
        -24    1    1    2    0    0  0.73221948871E+01 -0.44445295530E+01  0.88266195912E+03  0.88635924907E+03  0.80419002446E+02 0.  0.
<mgrwt>
<rscale>  0 0.80873879E+02</rscale>
<asrwt>0</asrwt>
<pdfrwt beam="1">  1        1 0.17484225E+00 0.80873879E+02</pdfrwt>
<pdfrwt beam="2">  1       -1 0.12828050E-02 0.80873879E+02</pdfrwt>
<totfact> 0.15383285E+04</totfact>
</mgrwt>
</event>
<event>
 4    1  0.1123525E-001  0.1079133E+03  0.7546771E-02  0.1264484E+00
          1   -1    0    0  501    0  0.00000000000E+00  0.00000000000E+00  0.17333615829E+04  0.17333615829E+04  0.00000000000E+00 0. -1.
         -1   -1    0    0    0  501 -0.00000000000E+00 -0.00000000000E+00 -0.77826857732E+01  0.77826857732E+01  0.00000000000E+00 0.  1.
         24    1    1    2    0    0 -0.51433540276E+02  0.50325455336E+02  0.54084153203E+03  0.55150234745E+03  0.80419002446E+02 0.  0.
        -24    1    1    2    0    0  0.51433540276E+02 -0.50325455336E+02  0.11847373651E+04  0.11896419212E+04  0.80419002446E+02 0. -1.
<mgrwt>
<rscale>  0 0.10791328E+03</rscale>
<asrwt>0</asrwt>
<pdfrwt beam="1">  1        1 0.26667071E+00 0.10791328E+03</pdfrwt>
<pdfrwt beam="2">  1       -1 0.11973377E-02 0.10791328E+03</pdfrwt>
<totfact> 0.70804655E+03</totfact>
</mgrwt>
</event>
<event>
 4    1  0.1199871E-001  0.8698925E+02  0.7546771E-02  0.1310311E+00
         -1   -1    0    0    0  501 -0.00000000000E+00  0.00000000000E+00  0.47968161785E+01  0.47968161785E+01  0.00000000000E+00 0.  1.
          1   -1    0    0  501    0  0.00000000000E+00 -0.00000000000E+00 -0.27271073598E+04  0.27271073598E+04  0.00000000000E+00 0. -1.
         24    1    1    2    0    0  0.32080490267E+02  0.84116058070E+01 -0.47429917813E+03  0.48221036830E+03  0.80419002446E+02 0.  0.
        -24    1    1    2    0    0 -0.32080490267E+02 -0.84116058070E+01 -0.22480113655E+04  0.22496938077E+04  0.80419002446E+02 0.  0.
<mgrwt>
<rscale>  0 0.86989246E+02</rscale>
<asrwt>0</asrwt>
<pdfrwt beam="1">  1        1 0.41955496E+00 0.86989246E+02</pdfrwt>
<pdfrwt beam="2">  1       -1 0.73797174E-03 0.86989246E+02</pdfrwt>
<totfact> 0.32456907E+03</totfact>
</mgrwt>
</event>
<event>
 4    1  0.1123525E-001  0.8222214E+02  0.7546771E-02  0.1322861E+00
         -1   -1    0    0    0  501 -0.00000000000E+00  0.00000000000E+00  0.81736319685E+01  0.81736319685E+01  0.00000000000E+00 0.  1.
          1   -1    0    0  501    0  0.00000000000E+00 -0.00000000000E+00 -0.92841401523E+03  0.92841401523E+03  0.00000000000E+00 0. -1.
         24    1    1    2    0    0  0.17053801371E+02  0.15595064914E+01 -0.30542948800E+03  0.31630310194E+03  0.80419002446E+02 0.  1.
        -24    1    1    2    0    0 -0.17053801371E+02 -0.15595064914E+01 -0.61481089526E+03  0.62028454526E+03  0.80419002446E+02 0.  1.
<mgrwt>
<rscale>  0 0.82222139E+02</rscale>
<asrwt>0</asrwt>
<pdfrwt beam="1">  1        1 0.14283284E+00 0.82222139E+02</pdfrwt>
<pdfrwt beam="2">  1       -1 0.12574826E-02 0.82222139E+02</pdfrwt>
<totfact> 0.22250167E+04</totfact>
</mgrwt>
</event>
<event>
 4    1  0.1123525E-001  0.1455539E+03  0.7546771E-02  0.1206045E+00
          2   -1    0    0  501    0  0.00000000000E+00  0.00000000000E+00  0.38526325487E+03  0.38526325487E+03  0.00000000000E+00 0. -1.
         -2   -1    0    0    0  501 -0.00000000000E+00 -0.00000000000E+00 -0.10555296771E+03  0.10555296771E+03  0.00000000000E+00 0.  1.
         24    1    1    2    0    0 -0.11075840646E+03  0.49510438829E+02  0.30970557259E+03  0.34220383663E+03  0.80419002446E+02 0. -1.
        -24    1    1    2    0    0  0.11075840646E+03 -0.49510438829E+02 -0.29995285429E+02  0.14861238595E+03  0.80419002446E+02 0.  1.
<mgrwt>
<rscale>  0 0.14555385E+03</rscale>
<asrwt>0</asrwt>
<pdfrwt beam="1">  1        2 0.59271269E-01 0.14555385E+03</pdfrwt>
<pdfrwt beam="2">  1       -2 0.16238918E-01 0.14555385E+03</pdfrwt>
<totfact> 0.24376969E+03</totfact>
</mgrwt>
</event>
<event>
 4    1  0.1123525E-001  0.9789512E+02  0.7546771E-02  0.1284786E+00
         -1   -1    0    0    0  501 -0.00000000000E+00  0.00000000000E+00  0.24888774905E+02  0.24888774905E+02  0.00000000000E+00 0.  1.
          1   -1    0    0  501    0  0.00000000000E+00 -0.00000000000E+00 -0.53656785985E+03  0.53656785985E+03  0.00000000000E+00 0. -1.
         24    1    1    2    0    0 -0.28100163369E+02  0.48235035863E+02 -0.10666180323E+03  0.14477635888E+03  0.80419002446E+02 0.  1.
        -24    1    1    2    0    0  0.28100163369E+02 -0.48235035863E+02 -0.40501728171E+03  0.41668027588E+03  0.80419002446E+02 0. -1.
<mgrwt>
<rscale>  0 0.97895116E+02</rscale>
<asrwt>0</asrwt>
<pdfrwt beam="1">  1        1 0.82548897E-01 0.97895116E+02</pdfrwt>
<pdfrwt beam="2">  1       -1 0.38290425E-02 0.97895116E+02</pdfrwt>
<totfact> 0.10022205E+04</totfact>
</mgrwt>
</event>
<event>
 4    1  0.1123525E-001  0.9949929E+02  0.7546771E-02  0.1281352E+00
          3   -1    0    0  501    0  0.00000000000E+00  0.00000000000E+00  0.19280903430E+04  0.19280903430E+04  0.00000000000E+00 0. -1.
         -3   -1    0    0    0  501 -0.00000000000E+00 -0.00000000000E+00 -0.22273179619E+02  0.22273179619E+02  0.00000000000E+00 0.  1.
         24    1    1    2    0    0 -0.56058309429E+02  0.17039903708E+02  0.97485465214E+02  0.13929653354E+03  0.80419002446E+02 0.  1.
        -24    1    1    2    0    0  0.56058309429E+02 -0.17039903708E+02  0.18083316982E+04  0.18110669891E+04  0.80419002446E+02 0. -1.
<mgrwt>
<rscale>  0 0.99499288E+02</rscale>
<asrwt>0</asrwt>
<pdfrwt beam="1">  1        3 0.29662915E+00 0.99499288E+02</pdfrwt>
<pdfrwt beam="2">  1       -3 0.34266445E-02 0.99499288E+02</pdfrwt>
<totfact> 0.45656151E+01</totfact>
</mgrwt>
</event>
<event>
 4    1  0.1123525E-001  0.9122109E+02  0.7546771E-02  0.1299921E+00
          2   -1    0    0  501    0  0.00000000000E+00  0.00000000000E+00  0.11489560214E+04  0.11489560214E+04  0.00000000000E+00 0. -1.
         -2   -1    0    0    0  501 -0.00000000000E+00 -0.00000000000E+00 -0.51637694237E+02  0.51637694237E+02  0.00000000000E+00 0.  1.
         24    1    1    2    0    0 -0.20759796292E+01 -0.43008851704E+02  0.11052688303E+04  0.11090268140E+04  0.80419002446E+02 0. -1.
        -24    1    1    2    0    0  0.20759796292E+01  0.43008851704E+02 -0.79505031465E+01  0.91566901613E+02  0.80419002446E+02 0.  1.
<mgrwt>
<rscale>  0 0.91221088E+02</rscale>
<asrwt>0</asrwt>
<pdfrwt beam="1">  1        2 0.17676245E+00 0.91221088E+02</pdfrwt>
<pdfrwt beam="2">  1       -2 0.79442615E-02 0.91221088E+02</pdfrwt>
<totfact> 0.20233223E+03</totfact>
</mgrwt>
</event>
<event>
 4    1  0.1123525E-001  0.1065333E+03  0.7546771E-02  0.1267128E+00
          2   -1    0    0  501    0  0.00000000000E+00  0.00000000000E+00  0.58604163477E+03  0.58604163477E+03  0.00000000000E+00 0. -1.
         -2   -1    0    0    0  501 -0.00000000000E+00 -0.00000000000E+00 -0.41942820140E+02  0.41942820140E+02  0.00000000000E+00 0.  1.
         24    1    1    2    0    0 -0.49095621273E+02 -0.49716747018E+02  0.50241644838E+03  0.51358703111E+03  0.80419002446E+02 0. -1.
        -24    1    1    2    0    0  0.49095621273E+02  0.49716747018E+02  0.41682366247E+02  0.11439742380E+03  0.80419002446E+02 0.  1.
<mgrwt>
<rscale>  0 0.10653333E+03</rscale>
<asrwt>0</asrwt>
<pdfrwt beam="1">  1        2 0.90160245E-01 0.10653333E+03</pdfrwt>
<pdfrwt beam="2">  1       -2 0.64527420E-02 0.10653333E+03</pdfrwt>
<totfact> 0.65039277E+03</totfact>
</mgrwt>
</event>
<event>
 4    1  0.1123525E-001  0.8354560E+02  0.7546771E-02  0.1319280E+00
         -2   -1    0    0    0  501 -0.00000000000E+00  0.00000000000E+00  0.44196431921E+02  0.44196431921E+02  0.00000000000E+00 0.  1.
          2   -1    0    0  501    0  0.00000000000E+00 -0.00000000000E+00 -0.18013962089E+03  0.18013962089E+03  0.00000000000E+00 0. -1.
         24    1    1    2    0    0 -0.17952829729E+02  0.13796630793E+02 -0.10735848660E+03  0.13603570015E+03  0.80419002446E+02 0.  1.
        -24    1    1    2    0    0  0.17952829729E+02 -0.13796630793E+02 -0.28584702377E+02  0.88300352666E+02  0.80419002446E+02 0.  0.
<mgrwt>
<rscale>  0 0.83545599E+02</rscale>
<asrwt>0</asrwt>
<pdfrwt beam="1">  1        2 0.27713787E-01 0.83545599E+02</pdfrwt>
<pdfrwt beam="2">  1       -2 0.67994512E-02 0.83545599E+02</pdfrwt>
<totfact> 0.20615356E+04</totfact>
</mgrwt>
</event>
<event>
 4    1  0.1123525E-001  0.8740652E+02  0.7546771E-02  0.1309257E+00
         -2   -1    0    0    0  501 -0.00000000000E+00  0.00000000000E+00  0.83447337385E+01  0.83447337385E+01  0.00000000000E+00 0.  1.
          2   -1    0    0  501    0  0.00000000000E+00 -0.00000000000E+00 -0.10056368916E+04  0.10056368916E+04  0.00000000000E+00 0. -1.
         24    1    1    2    0    0  0.69319848135E+01  0.33535515263E+02 -0.65040194178E+03  0.65624887430E+03  0.80419002446E+02 0. -1.
        -24    1    1    2    0    0 -0.69319848135E+01 -0.33535515263E+02 -0.34689021612E+03  0.35773275108E+03  0.80419002446E+02 0.  1.
<mgrwt>
<rscale>  0 0.87406517E+02</rscale>
<asrwt>0</asrwt>
<pdfrwt beam="1">  1        2 0.15471336E+00 0.87406517E+02</pdfrwt>
<pdfrwt beam="2">  1       -2 0.12838053E-02 0.87406517E+02</pdfrwt>
<totfact> 0.34964957E+04</totfact>
</mgrwt>
</event>
<event>
 4    1  0.1123525E-001  0.9408345E+02  0.7546771E-02  0.1293254E+00
          1   -1    0    0  501    0  0.00000000000E+00  0.00000000000E+00  0.13940284048E+04  0.13940284048E+04  0.00000000000E+00 0. -1.
         -1   -1    0    0    0  501 -0.00000000000E+00 -0.00000000000E+00 -0.72178126289E+01  0.72178126289E+01  0.00000000000E+00 0.  1.
         24    1    1    2    0    0 -0.22525289289E+02  0.43325401183E+02  0.45042905983E+03  0.46015001134E+03  0.80419002446E+02 0.  1.
        -24    1    1    2    0    0  0.22525289289E+02 -0.43325401183E+02  0.93638153232E+03  0.94109620607E+03  0.80419002446E+02 0.  0.
<mgrwt>
<rscale>  0 0.94083447E+02</rscale>
<asrwt>0</asrwt>
<pdfrwt beam="1">  1        1 0.21446569E+00 0.94083447E+02</pdfrwt>
<pdfrwt beam="2">  1       -1 0.11104338E-02 0.94083447E+02</pdfrwt>
<totfact> 0.12875240E+04</totfact>
</mgrwt>
</event>
<event>
 4    1  0.1123525E-001  0.8679578E+02  0.7546771E-02  0.1310802E+00
          2   -1    0    0  501    0  0.00000000000E+00  0.00000000000E+00  0.16287094216E+04  0.16287094216E+04  0.00000000000E+00 0. -1.
         -2   -1    0    0    0  501 -0.00000000000E+00 -0.00000000000E+00 -0.67181843806E+01  0.67181843806E+01  0.00000000000E+00 0.  1.
         24    1    1    2    0    0 -0.19675194462E+02  0.26061034703E+02  0.12673822187E+04  0.12703508157E+04  0.80419002446E+02 0. -1.
        -24    1    1    2    0    0  0.19675194462E+02 -0.26061034703E+02  0.35460901854E+03  0.36507679027E+03  0.80419002446E+02 0.  1.
<mgrwt>
<rscale>  0 0.86795776E+02</rscale>
<asrwt>0</asrwt>
<pdfrwt beam="1">  1        2 0.25057037E+00 0.86795776E+02</pdfrwt>
<pdfrwt beam="2">  1       -2 0.10335681E-02 0.86795776E+02</pdfrwt>
<totfact> 0.22161960E+04</totfact>
</mgrwt>
</event>
<event>
 4    1  0.1123525E-001  0.8990545E+02  0.7546771E-02  0.1303081E+00
         -1   -1    0    0    0  501 -0.00000000000E+00  0.00000000000E+00  0.34195825323E+01  0.34195825323E+01  0.00000000000E+00 0.  1.
          1   -1    0    0  501    0  0.00000000000E+00 -0.00000000000E+00 -0.26350043833E+04  0.26350043833E+04  0.00000000000E+00 0. -1.
         24    1    1    2    0    0 -0.17655845705E+02 -0.36111571550E+02 -0.89251655923E+03  0.89703333213E+03  0.80419002446E+02 0.  0.
        -24    1    1    2    0    0  0.17655845705E+02  0.36111571550E+02 -0.17390682415E+04  0.17413906337E+04  0.80419002446E+02 0.  1.
<mgrwt>
<rscale>  0 0.89905453E+02</rscale>
<asrwt>0</asrwt>
<pdfrwt beam="1">  1        1 0.40538599E+00 0.89905453E+02</pdfrwt>
<pdfrwt beam="2">  1       -1 0.52608871E-03 0.89905453E+02</pdfrwt>
<totfact> 0.59948991E+03</totfact>
</mgrwt>
</event>
<event>
 4    1  0.1123525E-001  0.9601415E+02  0.7546771E-02  0.1288908E+00
         -1   -1    0    0    0  501 -0.00000000000E+00  0.00000000000E+00  0.58002568418E+01  0.58002568418E+01  0.00000000000E+00 0.  1.
          1   -1    0    0  501    0  0.00000000000E+00 -0.00000000000E+00 -0.15945256135E+04  0.15945256135E+04  0.00000000000E+00 0. -1.
         24    1    1    2    0    0 -0.39595128307E+02 -0.34405335158E+02 -0.74883544205E+03  0.75496571875E+03  0.80419002446E+02 0.  1.
        -24    1    1    2    0    0  0.39595128307E+02  0.34405335158E+02 -0.83988991458E+03  0.84536015155E+03  0.80419002446E+02 0. -1.
<mgrwt>
<rscale>  0 0.96014151E+02</rscale>
<asrwt>0</asrwt>
<pdfrwt beam="1">  1        1 0.24531164E+00 0.96014151E+02</pdfrwt>
<pdfrwt beam="2">  1       -1 0.89234720E-03 0.96014151E+02</pdfrwt>
<totfact> 0.13063965E+04</totfact>
</mgrwt>
</event>
<event>
 4    1  0.1123525E-001  0.1174036E+03  0.7546771E-02  0.1247443E+00
          1   -1    0    0  501    0  0.00000000000E+00  0.00000000000E+00  0.14498742819E+04  0.14498742819E+04  0.00000000000E+00 0. -1.
         -1   -1    0    0    0  501 -0.00000000000E+00 -0.00000000000E+00 -0.15321549671E+02  0.15321549671E+02  0.00000000000E+00 0.  1.
         24    1    1    2    0    0  0.84719887264E+02 -0.11786906428E+02  0.26595972443E+03  0.29072010841E+03  0.80419002446E+02 0. -1.
        -24    1    1    2    0    0 -0.84719887264E+02  0.11786906428E+02  0.11685930078E+04  0.11744757232E+04  0.80419002446E+02 0.  1.
<mgrwt>
<rscale>  0 0.11740360E+03</rscale>
<asrwt>0</asrwt>
<pdfrwt beam="1">  1        1 0.22305747E+00 0.11740360E+03</pdfrwt>
<pdfrwt beam="2">  1       -1 0.23571626E-02 0.11740360E+03</pdfrwt>
<totfact> 0.40881045E+03</totfact>
</mgrwt>
</event>
<event>
 4    1  0.1123525E-001  0.1013980E+03  0.7546771E-02  0.1277383E+00
         -2   -1    0    0    0  501 -0.00000000000E+00  0.00000000000E+00  0.19121732731E+02  0.19121732731E+02  0.00000000000E+00 0.  1.
          2   -1    0    0  501    0  0.00000000000E+00 -0.00000000000E+00 -0.15683219706E+04  0.15683219706E+04  0.00000000000E+00 0. -1.
         24    1    1    2    0    0 -0.58044051146E+02 -0.21100568577E+02 -0.14180319737E+04  0.14216526440E+04  0.80419002446E+02 0. -1.
        -24    1    1    2    0    0  0.58044051146E+02  0.21100568577E+02 -0.13116826418E+03  0.16579105932E+03  0.80419002446E+02 0.  1.
<mgrwt>
<rscale>  0 0.10139804E+03</rscale>
<asrwt>0</asrwt>
<pdfrwt beam="1">  1        2 0.24128032E+00 0.10139804E+03</pdfrwt>
<pdfrwt beam="2">  1       -2 0.29418048E-02 0.10139804E+03</pdfrwt>
<totfact> 0.53502356E+03</totfact>
</mgrwt>
</event>
<event>
 4    1  0.1123525E-001  0.8157221E+02  0.7546771E-02  0.1324648E+00
          1   -1    0    0  501    0  0.00000000000E+00  0.00000000000E+00  0.19768199137E+03  0.19768199137E+03  0.00000000000E+00 0. -1.
         -1   -1    0    0    0  501 -0.00000000000E+00 -0.00000000000E+00 -0.39749100800E+02  0.39749100800E+02  0.00000000000E+00 0.  1.
         24    1    1    2    0    0  0.97429882718E+00 -0.13633040895E+02  0.32502974452E+02  0.87809272659E+02  0.80419002446E+02 0.  0.
        -24    1    1    2    0    0 -0.97429882718E+00  0.13633040895E+02  0.12542991612E+03  0.14962181951E+03  0.80419002446E+02 0. -1.
<mgrwt>
<rscale>  0 0.81572207E+02</rscale>
<asrwt>0</asrwt>
<pdfrwt beam="1">  1        1 0.30412613E-01 0.81572207E+02</pdfrwt>
<pdfrwt beam="2">  1       -1 0.61152464E-02 0.81572207E+02</pdfrwt>
<totfact> 0.17101340E+04</totfact>
</mgrwt>
</event>
<event>
 4    1  0.1123525E-001  0.8775488E+02  0.7546771E-02  0.1308381E+00
          2   -1    0    0  501    0  0.00000000000E+00  0.00000000000E+00  0.33618984314E+02  0.33618984314E+02  0.00000000000E+00 0. -1.
         -2   -1    0    0    0  501 -0.00000000000E+00 -0.00000000000E+00 -0.31575568024E+03  0.31575568024E+03  0.00000000000E+00 0.  1.
         24    1    1    2    0    0  0.48020874592E+01 -0.34794291648E+02 -0.49536323385E+02  0.10077085920E+03  0.80419002446E+02 0. -1.
        -24    1    1    2    0    0 -0.48020874592E+01  0.34794291648E+02 -0.23260037255E+03  0.24860380536E+03  0.80419002446E+02 0.  1.
<mgrwt>
<rscale>  0 0.87754879E+02</rscale>
<asrwt>0</asrwt>
<pdfrwt beam="1">  1        2 0.51721513E-02 0.87754879E+02</pdfrwt>
<pdfrwt beam="2">  1       -2 0.48577798E-01 0.87754879E+02</pdfrwt>
<totfact> 0.55712912E+03</totfact>
</mgrwt>
</event>
<event>
 4    1  0.1123525E-001  0.8399217E+02  0.7546771E-02  0.1318089E+00
         -2   -1    0    0    0  501 -0.00000000000E+00  0.00000000000E+00  0.83033101849E+01  0.83033101849E+01  0.00000000000E+00 0.  1.
          2   -1    0    0  501    0  0.00000000000E+00 -0.00000000000E+00 -0.11352375067E+04  0.11352375067E+04  0.00000000000E+00 0. -1.
         24    1    1    2    0    0  0.40836523547E+01 -0.23891270173E+02 -0.85025992799E+03  0.85439840245E+03  0.80419002446E+02 0. -1.
        -24    1    1    2    0    0 -0.40836523547E+01  0.23891270173E+02 -0.27667426850E+03  0.28914241441E+03  0.80419002446E+02 0.  1.
<mgrwt>
<rscale>  0 0.83992172E+02</rscale>
<asrwt>0</asrwt>
<pdfrwt beam="1">  1        2 0.17465198E+00 0.83992172E+02</pdfrwt>
<pdfrwt beam="2">  1       -2 0.12774319E-02 0.83992172E+02</pdfrwt>
<totfact> 0.29614854E+04</totfact>
</mgrwt>
</event>
<event>
 4    1  0.1123525E-001  0.8769909E+02  0.7546771E-02  0.1308521E+00
          1   -1    0    0  501    0  0.00000000000E+00  0.00000000000E+00  0.88219808700E+03  0.88219808700E+03  0.00000000000E+00 0. -1.
         -1   -1    0    0    0  501 -0.00000000000E+00 -0.00000000000E+00 -0.21464293974E+02  0.21464293974E+02  0.00000000000E+00 0.  1.
         24    1    1    2    0    0  0.66389130751E+01  0.34348792787E+02  0.82184025793E+02  0.12018878809E+03  0.80419002446E+02 0.  1.
        -24    1    1    2    0    0 -0.66389130751E+01 -0.34348792787E+02  0.77854976723E+03  0.78347359288E+03  0.80419002446E+02 0. -1.
<mgrwt>
<rscale>  0 0.87699092E+02</rscale>
<asrwt>0</asrwt>
<pdfrwt beam="1">  1        1 0.13572275E+00 0.87699092E+02</pdfrwt>
<pdfrwt beam="2">  1       -1 0.33021998E-02 0.87699092E+02</pdfrwt>
<totfact> 0.61176268E+03</totfact>
</mgrwt>
</event>
<event>
 4    1  0.1809716E-001  0.9949562E+02  0.7546771E-02  0.1281360E+00
         -1   -1    0    0    0  501 -0.00000000000E+00  0.00000000000E+00  0.28442457040E+02  0.28442457040E+02  0.00000000000E+00 0.  1.
          1   -1    0    0  501    0  0.00000000000E+00 -0.00000000000E+00 -0.10026402018E+04  0.10026402018E+04  0.00000000000E+00 0. -1.
         24    1    1    2    0    0  0.36369444771E+02  0.45928492485E+02 -0.70540475324E+02  0.12196449298E+03  0.80419002446E+02 0.  1.
        -24    1    1    2    0    0 -0.36369444771E+02 -0.45928492485E+02 -0.90365726945E+03  0.90911816587E+03  0.80419002446E+02 0. -1.
<mgrwt>
<rscale>  0 0.99495622E+02</rscale>
<asrwt>0</asrwt>
<pdfrwt beam="1">  1        1 0.15425231E+00 0.99495622E+02</pdfrwt>
<pdfrwt beam="2">  1       -1 0.43757634E-02 0.99495622E+02</pdfrwt>
<totfact> 0.33303169E+03</totfact>
</mgrwt>
</event>
<event>
 4    1  0.1123525E-001  0.8059468E+02  0.7546771E-02  0.1327372E+00
          2   -1    0    0  501    0  0.00000000000E+00  0.00000000000E+00  0.72598069846E+03  0.72598069846E+03  0.00000000000E+00 0. -1.
         -2   -1    0    0    0  501 -0.00000000000E+00 -0.00000000000E+00 -0.15041205968E+02  0.15041205968E+02  0.00000000000E+00 0.  1.
         24    1    1    2    0    0 -0.53162702040E+01 -0.15629643337E+00  0.59130609158E+03  0.59677332133E+03  0.80419002446E+02 0.  0.
        -24    1    1    2    0    0  0.53162702040E+01  0.15629643337E+00  0.11963340091E+03  0.14424858309E+03  0.80419002446E+02 0.  1.
<mgrwt>
<rscale>  0 0.80594684E+02</rscale>
<asrwt>0</asrwt>
<pdfrwt beam="1">  1        2 0.11168931E+00 0.80594684E+02</pdfrwt>
<pdfrwt beam="2">  1       -2 0.23140322E-02 0.80594684E+02</pdfrwt>
<totfact> 0.22493841E+04</totfact>
</mgrwt>
</event>
<event>
 4    1  0.1123525E-001  0.9301468E+02  0.7546771E-02  0.1295711E+00
         -2   -1    0    0    0  501 -0.00000000000E+00  0.00000000000E+00  0.56633426656E+01  0.56633426656E+01  0.00000000000E+00 0.  1.
          2   -1    0    0  501    0  0.00000000000E+00 -0.00000000000E+00 -0.15786177973E+04  0.15786177973E+04  0.00000000000E+00 0. -1.
         24    1    1    2    0    0 -0.12653851522E+01  0.46721655084E+02 -0.92878145309E+03  0.93342740361E+03  0.80419002446E+02 0.  1.
        -24    1    1    2    0    0  0.12653851522E+01 -0.46721655084E+02 -0.64417300151E+03  0.65085373632E+03  0.80419002446E+02 0.  0.
<mgrwt>
<rscale>  0 0.93014677E+02</rscale>
<asrwt>0</asrwt>
<pdfrwt beam="1">  1        2 0.24286400E+00 0.93014677E+02</pdfrwt>
<pdfrwt beam="2">  1       -2 0.87128448E-03 0.93014677E+02</pdfrwt>
<totfact> 0.30067363E+04</totfact>
</mgrwt>
</event>
<event>
 4    1  0.1123525E-001  0.1835496E+03  0.7546771E-02  0.1164411E+00
          2   -1    0    0  501    0  0.00000000000E+00  0.00000000000E+00  0.45440053176E+03  0.45440053176E+03  0.00000000000E+00 0. -1.
         -2   -1    0    0    0  501 -0.00000000000E+00 -0.00000000000E+00 -0.13869787367E+03  0.13869787367E+03  0.00000000000E+00 0.  1.
         24    1    1    2    0    0  0.10418991802E+03 -0.12793628488E+03  0.36016612268E+03  0.40424013146E+03  0.80419002446E+02 0. -1.
        -24    1    1    2    0    0 -0.10418991802E+03  0.12793628488E+03 -0.44463464587E+02  0.18885827396E+03  0.80419002446E+02 0.  1.
<mgrwt>
<rscale>  0 0.18354958E+03</rscale>
<asrwt>0</asrwt>
<pdfrwt beam="1">  1        2 0.69907774E-01 0.18354958E+03</pdfrwt>
<pdfrwt beam="2">  1       -2 0.21338135E-01 0.18354958E+03</pdfrwt>
<totfact> 0.12955862E+03</totfact>
</mgrwt>
</event>
<event>
 4    1  0.1123525E-001  0.1343409E+03  0.7546771E-02  0.1221153E+00
          1   -1    0    0  501    0  0.00000000000E+00  0.00000000000E+00  0.31738759660E+02  0.31738759660E+02  0.00000000000E+00 0. -1.
         -1   -1    0    0    0  501 -0.00000000000E+00 -0.00000000000E+00 -0.58364105297E+03  0.58364105297E+03  0.00000000000E+00 0.  1.
         24    1    1    2    0    0  0.94198609197E+02 -0.52027788518E+02 -0.32530299505E+03  0.35195102400E+03  0.80419002446E+02 0. -1.
        -24    1    1    2    0    0 -0.94198609197E+02  0.52027788518E+02 -0.22659929827E+03  0.26342878864E+03  0.80419002446E+02 0.  0.
<mgrwt>
<rscale>  0 0.13434093E+03</rscale>
<asrwt>0</asrwt>
<pdfrwt beam="1">  1        1 0.48828867E-02 0.13434093E+03</pdfrwt>
<pdfrwt beam="2">  1       -1 0.89790920E-01 0.13434093E+03</pdfrwt>
<totfact> 0.21299061E+03</totfact>
</mgrwt>
</event>
<event>
 4    1  0.1123525E-001  0.1260111E+03  0.7546771E-02  0.1233497E+00
          1   -1    0    0  501    0  0.00000000000E+00  0.00000000000E+00  0.20632967648E+03  0.20632967648E+03  0.00000000000E+00 0. -1.
         -1   -1    0    0    0  501 -0.00000000000E+00 -0.00000000000E+00 -0.11215189384E+03  0.11215189384E+03  0.00000000000E+00 0.  1.
         24    1    1    2    0    0 -0.30817579181E+02 -0.91988413898E+02 -0.42114635866E+02  0.13286252288E+03  0.80419002446E+02 0.  1.
        -24    1    1    2    0    0  0.30817579181E+02  0.91988413898E+02  0.13629241850E+03  0.18561904744E+03  0.80419002446E+02 0.  0.
<mgrwt>
<rscale>  0 0.12601114E+03</rscale>
<asrwt>0</asrwt>
<pdfrwt beam="1">  1        1 0.31743027E-01 0.12601114E+03</pdfrwt>
<pdfrwt beam="2">  1       -1 0.17254138E-01 0.12601114E+03</pdfrwt>
<totfact> 0.34730374E+03</totfact>
</mgrwt>
</event>
<event>
 4    1  0.1123525E-001  0.8836997E+02  0.7546771E-02  0.1306848E+00
         -2   -1    0    0    0  501 -0.00000000000E+00  0.00000000000E+00  0.70272297935E+01  0.70272297935E+01  0.00000000000E+00 0.  1.
          2   -1    0    0  501    0  0.00000000000E+00 -0.00000000000E+00 -0.12395071243E+04  0.12395071243E+04  0.00000000000E+00 0. -1.
         24    1    1    2    0    0  0.85994243163E+01  0.35610187844E+02 -0.81670195573E+03  0.82146901099E+03  0.80419002446E+02 0.  1.
        -24    1    1    2    0    0 -0.85994243163E+01 -0.35610187844E+02 -0.41577793881E+03  0.42506534313E+03  0.80419002446E+02 0.  1.
<mgrwt>
<rscale>  0 0.88369970E+02</rscale>
<asrwt>0</asrwt>
<pdfrwt beam="1">  1        2 0.19069337E+00 0.88369970E+02</pdfrwt>
<pdfrwt beam="2">  1       -2 0.10811125E-02 0.88369970E+02</pdfrwt>
<totfact> 0.33082882E+04</totfact>
</mgrwt>
</event>
<event>
 4    1  0.1123525E-001  0.8869014E+02  0.7546771E-02  0.1306055E+00
         -2   -1    0    0    0  501 -0.00000000000E+00  0.00000000000E+00  0.27526441253E+01  0.27526441253E+01  0.00000000000E+00 0.  1.
          2   -1    0    0  501    0  0.00000000000E+00 -0.00000000000E+00 -0.30301193990E+04  0.30301193990E+04  0.00000000000E+00 0. -1.
         24    1    1    2    0    0 -0.37165569170E+02 -0.41767363890E+01 -0.18755263628E+04  0.18776221873E+04  0.80419002446E+02 0. -1.
        -24    1    1    2    0    0  0.37165569170E+02  0.41767363890E+01 -0.11518403921E+04  0.11552498559E+04  0.80419002446E+02 0.  1.
<mgrwt>
<rscale>  0 0.88690138E+02</rscale>
<asrwt>0</asrwt>
<pdfrwt beam="1">  1        2 0.46617165E+00 0.88690138E+02</pdfrwt>
<pdfrwt beam="2">  1       -2 0.42348422E-03 0.88690138E+02</pdfrwt>
<totfact> 0.14442078E+04</totfact>
</mgrwt>
</event>
<event>
 4    1  0.1123525E-001  0.9532903E+02  0.7546771E-02  0.1290437E+00
         -2   -1    0    0    0  501 -0.00000000000E+00  0.00000000000E+00  0.14451190924E+02  0.14451190924E+02  0.00000000000E+00 0.  1.
          2   -1    0    0  501    0  0.00000000000E+00 -0.00000000000E+00 -0.93780051481E+03  0.93780051481E+03  0.00000000000E+00 0. -1.
         24    1    1    2    0    0  0.36151902974E+02  0.36241509079E+02 -0.73495689632E+03  0.74111352873E+03  0.80419002446E+02 0. -1.
        -24    1    1    2    0    0 -0.36151902974E+02 -0.36241509079E+02 -0.18839242757E+03  0.21113817701E+03  0.80419002446E+02 0.  1.
<mgrwt>
<rscale>  0 0.95329025E+02</rscale>
<asrwt>0</asrwt>
<pdfrwt beam="1">  1        2 0.14427701E+00 0.95329025E+02</pdfrwt>
<pdfrwt beam="2">  1       -2 0.22232600E-02 0.95329025E+02</pdfrwt>
<totfact> 0.17628121E+04</totfact>
</mgrwt>
</event>
<event>
 4    1  0.1123525E-001  0.8920407E+02  0.7546771E-02  0.1304791E+00
         -1   -1    0    0    0  501 -0.00000000000E+00  0.00000000000E+00  0.75334229314E+03  0.75334229314E+03  0.00000000000E+00 0.  1.
          1   -1    0    0  501    0  0.00000000000E+00 -0.00000000000E+00 -0.11838557488E+03  0.11838557488E+03  0.00000000000E+00 0. -1.
         24    1    1    2    0    0  0.75852237849E+01 -0.37849883831E+02  0.73344346108E+03  0.73884820896E+03  0.80419002446E+02 0.  1.
        -24    1    1    2    0    0 -0.75852237849E+01  0.37849883831E+02 -0.98486742818E+02  0.13287965906E+03  0.80419002446E+02 0. -1.
<mgrwt>
<rscale>  0 0.89204065E+02</rscale>
<asrwt>0</asrwt>
<pdfrwt beam="1">  1        1 0.18213166E-01 0.89204065E+02</pdfrwt>
<pdfrwt beam="2">  1       -1 0.11589881E+00 0.89204065E+02</pdfrwt>
<totfact> 0.21207574E+02</totfact>
</mgrwt>
</event>
<event>
 4    1  0.1123525E-001  0.1453441E+03  0.7546771E-02  0.1206314E+00
          2   -1    0    0  501    0  0.00000000000E+00  0.00000000000E+00  0.10761384321E+04  0.10761384321E+04  0.00000000000E+00 0. -1.
         -2   -1    0    0    0  501 -0.00000000000E+00 -0.00000000000E+00 -0.34997136041E+02  0.34997136041E+02  0.00000000000E+00 0.  1.
         24    1    1    2    0    0 -0.15497661327E+02 -0.12007295157E+03  0.88871081262E+03  0.90051752655E+03  0.80419002446E+02 0. -1.
        -24    1    1    2    0    0  0.15497661327E+02  0.12007295157E+03  0.15243048342E+03  0.21061804157E+03  0.80419002446E+02 0.  1.
<mgrwt>
<rscale>  0 0.14534410E+03</rscale>
<asrwt>0</asrwt>
<pdfrwt beam="1">  1        2 0.16555973E+00 0.14534410E+03</pdfrwt>
<pdfrwt beam="2">  1       -2 0.53841756E-02 0.14534410E+03</pdfrwt>
<totfact> 0.40584463E+03</totfact>
</mgrwt>
</event>
<event>
 4    1  0.1123525E-001  0.8581978E+02  0.7546771E-02  0.1313303E+00
          1   -1    0    0  501    0  0.00000000000E+00  0.00000000000E+00  0.13919607113E+04  0.13919607113E+04  0.00000000000E+00 0. -1.
         -1   -1    0    0    0  501 -0.00000000000E+00 -0.00000000000E+00 -0.54618664915E+01  0.54618664915E+01  0.00000000000E+00 0.  1.
         24    1    1    2    0    0  0.15959972502E+02  0.25359305261E+02  0.81678817808E+03  0.82128433498E+03  0.80419002446E+02 0.  0.
        -24    1    1    2    0    0 -0.15959972502E+02 -0.25359305261E+02  0.56971066670E+03  0.57613824278E+03  0.80419002446E+02 0. -1.
<mgrwt>
<rscale>  0 0.85819770E+02</rscale>
<asrwt>0</asrwt>
<pdfrwt beam="1">  1        1 0.21414752E+00 0.85819780E+02</pdfrwt>
<pdfrwt beam="2">  1       -1 0.84028826E-03 0.85819780E+02</pdfrwt>
<totfact> 0.19002531E+04</totfact>
</mgrwt>
</event>
<event>
 4    1  0.1123525E-001  0.8519229E+02  0.7546771E-02  0.1314930E+00
         -2   -1    0    0    0  501 -0.00000000000E+00  0.00000000000E+00  0.19236270663E+03  0.19236270663E+03  0.00000000000E+00 0.  1.
          2   -1    0    0  501    0  0.00000000000E+00 -0.00000000000E+00 -0.51845067437E+03  0.51845067437E+03  0.00000000000E+00 0. -1.
         24    1    1    2    0    0 -0.87748435393E+01 -0.26711658997E+02 -0.50527436057E+03  0.51240599724E+03  0.80419002446E+02 0. -1.
        -24    1    1    2    0    0  0.87748435393E+01  0.26711658997E+02  0.17918639282E+03  0.19840738376E+03  0.80419002446E+02 0.  1.
<mgrwt>
<rscale>  0 0.85192292E+02</rscale>
<asrwt>0</asrwt>
<pdfrwt beam="1">  1        2 0.79761642E-01 0.85192292E+02</pdfrwt>
<pdfrwt beam="2">  1       -2 0.29594263E-01 0.85192292E+02</pdfrwt>
<totfact> 0.62795616E+02</totfact>
</mgrwt>
</event>
<event>
 4    1  0.1123525E-001  0.8884623E+02  0.7546771E-02  0.1305670E+00
         -1   -1    0    0    0  501 -0.00000000000E+00  0.00000000000E+00  0.21384828914E+02  0.21384828914E+02  0.00000000000E+00 0.  1.
          1   -1    0    0  501    0  0.00000000000E+00 -0.00000000000E+00 -0.40847418069E+03  0.40847418069E+03  0.00000000000E+00 0. -1.
         24    1    1    2    0    0  0.32326290453E+02 -0.19530582684E+02 -0.26025428068E+03  0.27500170778E+03  0.80419002446E+02 0. -1.
        -24    1    1    2    0    0 -0.32326290453E+02  0.19530582684E+02 -0.12683507110E+03  0.15485730182E+03  0.80419002446E+02 0. -1.
<mgrwt>
<rscale>  0 0.88846219E+02</rscale>
<asrwt>0</asrwt>
<pdfrwt beam="1">  1        1 0.62842176E-01 0.88846230E+02</pdfrwt>
<pdfrwt beam="2">  1       -1 0.32899739E-02 0.88846230E+02</pdfrwt>
<totfact> 0.17513667E+04</totfact>
</mgrwt>
</event>
<event>
 4    1  0.1123525E-001  0.8335309E+02  0.7546771E-02  0.1319796E+00
          2   -1    0    0  501    0  0.00000000000E+00  0.00000000000E+00  0.49139721257E+03  0.49139721257E+03  0.00000000000E+00 0. -1.
         -2   -1    0    0    0  501 -0.00000000000E+00 -0.00000000000E+00 -0.48951936600E+02  0.48951936600E+02  0.00000000000E+00 0.  1.
         24    1    1    2    0    0  0.80485482380E+00  0.21906028073E+02  0.44906343118E+03  0.45673373319E+03  0.80419002446E+02 0. -1.
        -24    1    1    2    0    0 -0.80485482380E+00 -0.21906028073E+02 -0.66181552062E+01  0.83615415983E+02  0.80419002446E+02 0.  1.
<mgrwt>
<rscale>  0 0.83353091E+02</rscale>
<asrwt>0</asrwt>
<pdfrwt beam="1">  1        2 0.75599568E-01 0.83353091E+02</pdfrwt>
<pdfrwt beam="2">  1       -2 0.75310675E-02 0.83353091E+02</pdfrwt>
<totfact> 0.61418112E+03</totfact>
</mgrwt>
</event>
<event>
 4    1  0.1123525E-001  0.1076619E+03  0.7546771E-02  0.1264962E+00
          2   -1    0    0  501    0  0.00000000000E+00  0.00000000000E+00  0.93013061834E+03  0.93013061834E+03  0.00000000000E+00 0. -1.
         -2   -1    0    0    0  501 -0.00000000000E+00 -0.00000000000E+00 -0.21911191578E+02  0.21911191578E+02  0.00000000000E+00 0.  1.
         24    1    1    2    0    0 -0.30189758786E+02  0.64903293241E+02  0.76671449180E+03  0.77423651871E+03  0.80419002446E+02 0. -1.
        -24    1    1    2    0    0  0.30189758786E+02 -0.64903293241E+02  0.14150493496E+03  0.17780529121E+03  0.80419002446E+02 0.  1.
<mgrwt>
<rscale>  0 0.10766185E+03</rscale>
<asrwt>0</asrwt>
<pdfrwt beam="1">  1        2 0.14309699E+00 0.10766185E+03</pdfrwt>
<pdfrwt beam="2">  1       -2 0.33709533E-02 0.10766185E+03</pdfrwt>
<totfact> 0.98136415E+03</totfact>
</mgrwt>
</event>
<event>
 4    1  0.1123525E-001  0.1794347E+03  0.7546771E-02  0.1168351E+00
         -2   -1    0    0    0  501 -0.00000000000E+00  0.00000000000E+00  0.62397638855E+02  0.62397638855E+02  0.00000000000E+00 0.  1.
          2   -1    0    0  501    0  0.00000000000E+00 -0.00000000000E+00 -0.58211892874E+03  0.58211892874E+03  0.00000000000E+00 0. -1.
         24    1    1    2    0    0  0.52280193983E+02 -0.15164553266E+03 -0.36847346837E+03  0.40984082167E+03  0.80419002446E+02 0. -1.
        -24    1    1    2    0    0 -0.52280193983E+02  0.15164553266E+03 -0.15124782151E+03  0.23467574592E+03  0.80419002446E+02 0.  1.
<mgrwt>
<rscale>  0 0.17943467E+03</rscale>
<asrwt>0</asrwt>
<pdfrwt beam="1">  1        2 0.89556762E-01 0.17943467E+03</pdfrwt>
<pdfrwt beam="2">  1       -2 0.95996364E-02 0.17943467E+03</pdfrwt>
<totfact> 0.36397699E+03</totfact>
</mgrwt>
</event>
<event>
 4    1  0.1123525E-001  0.9383691E+02  0.7546771E-02  0.1293817E+00
         -2   -1    0    0    0  501 -0.00000000000E+00  0.00000000000E+00  0.17639890462E+02  0.17639890462E+02  0.00000000000E+00 0.  1.
          2   -1    0    0  501    0  0.00000000000E+00 -0.00000000000E+00 -0.68742191118E+03  0.68742191118E+03  0.00000000000E+00 0. -1.
         24    1    1    2    0    0  0.89870222804E+01 -0.47511875627E+02 -0.15041007465E+03  0.17728099561E+03  0.80419002446E+02 0.  0.
        -24    1    1    2    0    0 -0.89870222804E+01  0.47511875627E+02 -0.51937194607E+03  0.52778080603E+03  0.80419002446E+02 0.  0.
<mgrwt>
<rscale>  0 0.93836896E+02</rscale>
<asrwt>0</asrwt>
<pdfrwt beam="1">  1        2 0.10575721E+00 0.93836908E+02</pdfrwt>
<pdfrwt beam="2">  1       -2 0.27138294E-02 0.93836908E+02</pdfrwt>
<totfact> 0.19326867E+04</totfact>
</mgrwt>
</event>
<event>
 4    1  0.1123525E-001  0.1186607E+03  0.7546771E-02  0.1245323E+00
         -1   -1    0    0    0  501 -0.00000000000E+00  0.00000000000E+00  0.39077511780E+02  0.39077511780E+02  0.00000000000E+00 0.  1.
          1   -1    0    0  501    0  0.00000000000E+00 -0.00000000000E+00 -0.69467869802E+03  0.69467869802E+03  0.00000000000E+00 0. -1.
         24    1    1    2    0    0  0.86777004000E+02 -0.91050849800E+01 -0.73271860199E+02  0.13946014645E+03  0.80419002446E+02 0.  1.
        -24    1    1    2    0    0 -0.86777004000E+02  0.91050849800E+01 -0.58232932604E+03  0.59429606335E+03  0.80419002446E+02 0. -1.
<mgrwt>
<rscale>  0 0.11866072E+03</rscale>
<asrwt>0</asrwt>
<pdfrwt beam="1">  1        1 0.10687364E+00 0.11866072E+03</pdfrwt>
<pdfrwt beam="2">  1       -1 0.60119253E-02 0.11866072E+03</pdfrwt>
<totfact> 0.36809443E+03</totfact>
</mgrwt>
</event>
<event>
 4    1  0.1123525E-001  0.1076713E+03  0.7546771E-02  0.1264944E+00
          2   -1    0    0  501    0  0.00000000000E+00  0.00000000000E+00  0.26835041665E+04  0.26835041665E+04  0.00000000000E+00 0. -1.
         -2   -1    0    0    0  501 -0.00000000000E+00 -0.00000000000E+00 -0.45555481600E+01  0.45555481600E+01  0.00000000000E+00 0.  1.
         24    1    1    2    0    0 -0.66088053456E+02 -0.27536729589E+02  0.16450000372E+04  0.16485200152E+04  0.80419002446E+02 0.  1.
        -24    1    1    2    0    0  0.66088053456E+02  0.27536729589E+02  0.10339485812E+04  0.10395396994E+04  0.80419002446E+02 0. -1.
<mgrwt>
<rscale>  0 0.10767134E+03</rscale>
<asrwt>0</asrwt>
<pdfrwt beam="1">  1        2 0.41284553E+00 0.10767134E+03</pdfrwt>
<pdfrwt beam="2">  1       -2 0.70085571E-03 0.10767134E+03</pdfrwt>
<totfact> 0.11152029E+04</totfact>
</mgrwt>
</event>
<event>
 4    1  0.1123525E-001  0.1341495E+03  0.7546771E-02  0.1221425E+00
         -1   -1    0    0    0  501 -0.00000000000E+00  0.00000000000E+00  0.46985260914E+02  0.46985260914E+02  0.00000000000E+00 0.  1.
          1   -1    0    0  501    0  0.00000000000E+00 -0.00000000000E+00 -0.23928061064E+04  0.23928061064E+04  0.00000000000E+00 0. -1.
         24    1    1    2    0    0  0.10474986131E+03  0.23586810294E+02 -0.54903899024E+02  0.14495007812E+03  0.80419002446E+02 0.  1.
        -24    1    1    2    0    0 -0.10474986131E+03 -0.23586810294E+02 -0.22909169464E+04  0.22948412892E+04  0.80419002446E+02 0. -1.
<mgrwt>
<rscale>  0 0.13414950E+03</rscale>
<asrwt>0</asrwt>
<pdfrwt beam="1">  1        1 0.36812414E+00 0.13414950E+03</pdfrwt>
<pdfrwt beam="2">  1       -1 0.72284992E-02 0.13414950E+03</pdfrwt>
<totfact> 0.19686093E+02</totfact>
</mgrwt>
</event>
<event>
 4    1  0.1123525E-001  0.9454048E+02  0.7546771E-02  0.1292214E+00
         -1   -1    0    0    0  501 -0.00000000000E+00  0.00000000000E+00  0.41355618619E+02  0.41355618619E+02  0.00000000000E+00 0.  1.
          1   -1    0    0  501    0  0.00000000000E+00 -0.00000000000E+00 -0.25557834526E+03  0.25557834526E+03  0.00000000000E+00 0. -1.
         24    1    1    2    0    0 -0.45039883217E+02  0.21026066387E+02 -0.48777533203E+02  0.10638209552E+03  0.80419002446E+02 0.  1.
        -24    1    1    2    0    0  0.45039883217E+02 -0.21026066387E+02 -0.16544519344E+03  0.19055186835E+03  0.80419002446E+02 0. -1.
<mgrwt>
<rscale>  0 0.94540481E+02</rscale>
<asrwt>0</asrwt>
<pdfrwt beam="1">  1        1 0.39319746E-01 0.94540481E+02</pdfrwt>
<pdfrwt beam="2">  1       -1 0.63624028E-02 0.94540481E+02</pdfrwt>
<totfact> 0.11962784E+04</totfact>
</mgrwt>
</event>
<event>
 4    1  0.1123525E-001  0.9189139E+02  0.7546771E-02  0.1298335E+00
         -2   -1    0    0    0  501 -0.00000000000E+00  0.00000000000E+00  0.37138726121E+02  0.37138726121E+02  0.00000000000E+00 0.  1.
          2   -1    0    0  501    0  0.00000000000E+00 -0.00000000000E+00 -0.23079329296E+03  0.23079329296E+03  0.00000000000E+00 0. -1.
         24    1    1    2    0    0 -0.63328967461E+01 -0.44007974752E+02 -0.80498216677E+02  0.12216376822E+03  0.80419002446E+02 0. -1.
        -24    1    1    2    0    0  0.63328967461E+01  0.44007974752E+02 -0.11315635016E+03  0.14576825086E+03  0.80419002446E+02 0.  0.
<mgrwt>
<rscale>  0 0.91891379E+02</rscale>
<asrwt>0</asrwt>
<pdfrwt beam="1">  1        2 0.35506660E-01 0.91891390E+02</pdfrwt>
<pdfrwt beam="2">  1       -2 0.57136503E-02 0.91891390E+02</pdfrwt>
<totfact> 0.20785580E+04</totfact>
</mgrwt>
</event>
<event>
 4    1  0.1123525E-001  0.9509075E+02  0.7546771E-02  0.1290972E+00
          1   -1    0    0  501    0  0.00000000000E+00  0.00000000000E+00  0.26591621711E+02  0.26591621711E+02  0.00000000000E+00 0. -1.
         -1   -1    0    0    0  501 -0.00000000000E+00 -0.00000000000E+00 -0.38664453084E+03  0.38664453084E+03  0.00000000000E+00 0.  1.
         24    1    1    2    0    0  0.26075384698E+02 -0.43532859145E+02 -0.25175963170E+03  0.26911923681E+03  0.80419002446E+02 0. -1.
        -24    1    1    2    0    0 -0.26075384698E+02  0.43532859145E+02 -0.10829327743E+03  0.14411691575E+03  0.80419002446E+02 0.  0.
<mgrwt>
<rscale>  0 0.95090754E+02</rscale>
<asrwt>0</asrwt>
<pdfrwt beam="1">  1        1 0.40910191E-02 0.95090754E+02</pdfrwt>
<pdfrwt beam="2">  1       -1 0.59483769E-01 0.95090754E+02</pdfrwt>
<totfact> 0.60141336E+03</totfact>
</mgrwt>
</event>
<event>
 4    1  0.1123525E-001  0.1072604E+03  0.7546771E-02  0.1265729E+00
          1   -1    0    0  501    0  0.00000000000E+00  0.00000000000E+00  0.13204926711E+04  0.13204926711E+04  0.00000000000E+00 0. -1.
         -1   -1    0    0    0  501 -0.00000000000E+00 -0.00000000000E+00 -0.17014084104E+02  0.17014084104E+02  0.00000000000E+00 0.  1.
         24    1    1    2    0    0  0.67735373412E+02 -0.21201355834E+02  0.18460457082E+03  0.21350325951E+03  0.80419002446E+02 0.  1.
        -24    1    1    2    0    0 -0.67735373412E+02  0.21201355834E+02  0.11188740162E+04  0.11240034957E+04  0.80419002446E+02 0. -1.
<mgrwt>
<rscale>  0 0.10726040E+03</rscale>
<asrwt>0</asrwt>
<pdfrwt beam="1">  1        1 0.20315264E+00 0.10726040E+03</pdfrwt>
<pdfrwt beam="2">  1       -1 0.26175524E-02 0.10726040E+03</pdfrwt>
<totfact> 0.42584495E+03</totfact>
</mgrwt>
</event>
<event>
 4    1  0.1123525E-001  0.9364704E+02  0.7546771E-02  0.1294253E+00
          2   -1    0    0  501    0  0.00000000000E+00  0.00000000000E+00  0.46299057260E+03  0.46299057260E+03  0.00000000000E+00 0. -1.
         -2   -1    0    0    0  501 -0.00000000000E+00 -0.00000000000E+00 -0.19126959557E+02  0.19126959557E+02  0.00000000000E+00 0.  1.
         24    1    1    2    0    0  0.44606841658E+02 -0.17685639732E+02  0.24566428663E+03  0.26290817761E+03  0.80419002446E+02 0.  1.
        -24    1    1    2    0    0 -0.44606841658E+02  0.17685639732E+02  0.19819932641E+03  0.21920935455E+03  0.80419002446E+02 0. -1.
<mgrwt>
<rscale>  0 0.93647040E+02</rscale>
<asrwt>0</asrwt>
<pdfrwt beam="1">  1        2 0.71229311E-01 0.93647040E+02</pdfrwt>
<pdfrwt beam="2">  1       -2 0.29426095E-02 0.93647040E+02</pdfrwt>
<totfact> 0.26631749E+04</totfact>
</mgrwt>
</event>
<event>
 4    1  0.1123525E-001  0.1517876E+03  0.7546771E-02  0.1198293E+00
          1   -1    0    0  501    0  0.00000000000E+00  0.00000000000E+00  0.25591418884E+03  0.25591418884E+03  0.00000000000E+00 0. -1.
         -1   -1    0    0    0  501 -0.00000000000E+00 -0.00000000000E+00 -0.92650804626E+02  0.92650804626E+02  0.00000000000E+00 0.  1.
         24    1    1    2    0    0 -0.12868147011E+03  0.36542296406E+01  0.52309476939E+02  0.16054834623E+03  0.80419002446E+02 0.  1.
        -24    1    1    2    0    0  0.12868147011E+03 -0.36542296406E+01  0.11095390728E+03  0.18801664724E+03  0.80419002446E+02 0. -1.
<mgrwt>
<rscale>  0 0.15178765E+03</rscale>
<asrwt>0</asrwt>
<pdfrwt beam="1">  1        1 0.39371413E-01 0.15178765E+03</pdfrwt>
<pdfrwt beam="2">  1       -1 0.14253970E-01 0.15178765E+03</pdfrwt>
<totfact> 0.36255584E+03</totfact>
</mgrwt>
</event>
<event>
 4    1  0.1123525E-001  0.9074908E+02  0.7546771E-02  0.1301048E+00
          1   -1    0    0  501    0  0.00000000000E+00  0.00000000000E+00  0.14617619742E+04  0.14617619742E+04  0.00000000000E+00 0. -1.
         -1   -1    0    0    0  501 -0.00000000000E+00 -0.00000000000E+00 -0.10788394569E+02  0.10788394569E+02  0.00000000000E+00 0.  1.
         24    1    1    2    0    0 -0.14595133917E+02  0.39435549020E+02  0.21655978299E+03  0.23480531515E+03  0.80419002446E+02 0.  1.
        -24    1    1    2    0    0  0.14595133917E+02 -0.39435549020E+02  0.12344137967E+04  0.12377450536E+04  0.80419002446E+02 0. -1.
<mgrwt>
<rscale>  0 0.90749085E+02</rscale>
<asrwt>0</asrwt>
<pdfrwt beam="1">  1        1 0.22488630E+00 0.90749085E+02</pdfrwt>
<pdfrwt beam="2">  1       -1 0.16597542E-02 0.90749085E+02</pdfrwt>
<totfact> 0.65730445E+03</totfact>
</mgrwt>
</event>
<event>
 4    1  0.1123525E-001  0.9726104E+02  0.7546771E-02  0.1286163E+00
         -1   -1    0    0    0  501 -0.00000000000E+00  0.00000000000E+00  0.12861888906E+02  0.12861888906E+02  0.00000000000E+00 0.  1.
          1   -1    0    0  501    0  0.00000000000E+00 -0.00000000000E+00 -0.10881827003E+04  0.10881827003E+04  0.00000000000E+00 0. -1.
         24    1    1    2    0    0  0.36373020230E+02  0.40859484144E+02 -0.22424084328E+03  0.24442517422E+03  0.80419002446E+02 0.  1.
        -24    1    1    2    0    0 -0.36373020230E+02 -0.40859484144E+02 -0.85107996811E+03  0.85661941498E+03  0.80419002446E+02 0. -1.
<mgrwt>
<rscale>  0 0.97261041E+02</rscale>
<asrwt>0</asrwt>
<pdfrwt beam="1">  1        1 0.16741276E+00 0.97261041E+02</pdfrwt>
<pdfrwt beam="2">  1       -1 0.19787517E-02 0.97261041E+02</pdfrwt>
<totfact> 0.90954915E+03</totfact>
</mgrwt>
</event>
<event>
 4    1  0.1123525E-001  0.9530578E+02  0.7546771E-02  0.1290489E+00
         -1   -1    0    0    0  501 -0.00000000000E+00  0.00000000000E+00  0.44981627681E+02  0.44981627681E+02  0.00000000000E+00 0.  1.
          1   -1    0    0  501    0  0.00000000000E+00 -0.00000000000E+00 -0.38940009719E+03  0.38940009719E+03  0.00000000000E+00 0. -1.
         24    1    1    2    0    0  0.50889667252E+02 -0.51198560978E+01 -0.32290752087E+03  0.33667856205E+03  0.80419002446E+02 0. -1.
        -24    1    1    2    0    0 -0.50889667252E+02  0.51198560978E+01 -0.21510948647E+02  0.97703162823E+02  0.80419002446E+02 0.  1.
<mgrwt>
<rscale>  0 0.95305768E+02</rscale>
<asrwt>0</asrwt>
<pdfrwt beam="1">  1        1 0.59907708E-01 0.95305780E+02</pdfrwt>
<pdfrwt beam="2">  1       -1 0.69202503E-02 0.95305780E+02</pdfrwt>
<totfact> 0.63039880E+03</totfact>
</mgrwt>
</event>
<event>
 4    1  0.1123525E-001  0.8738127E+02  0.7546771E-02  0.1309320E+00
         -1   -1    0    0    0  501 -0.00000000000E+00  0.00000000000E+00  0.14969010390E+02  0.14969010390E+02  0.00000000000E+00 0.  1.
          1   -1    0    0  501    0  0.00000000000E+00 -0.00000000000E+00 -0.55339147595E+03  0.55339147595E+03  0.00000000000E+00 0. -1.
         24    1    1    2    0    0 -0.30190826713E+02 -0.16024472238E+02 -0.18971472777E+03  0.20887116511E+03  0.80419002446E+02 0. -1.
        -24    1    1    2    0    0  0.30190826713E+02  0.16024472238E+02 -0.34870773779E+03  0.35948932123E+03  0.80419002446E+02 0.  0.
<mgrwt>
<rscale>  0 0.87381266E+02</rscale>
<asrwt>0</asrwt>
<pdfrwt beam="1">  1        1 0.85137158E-01 0.87381266E+02</pdfrwt>
<pdfrwt beam="2">  1       -1 0.23029245E-02 0.87381266E+02</pdfrwt>
<totfact> 0.19823350E+04</totfact>
</mgrwt>
</event>
<event>
 4    1  0.1123525E-001  0.1811886E+03  0.7546771E-02  0.1166658E+00
         -1   -1    0    0    0  501 -0.00000000000E+00  0.00000000000E+00  0.18253984576E+02  0.18253984576E+02  0.00000000000E+00 0.  1.
          1   -1    0    0  501    0  0.00000000000E+00 -0.00000000000E+00 -0.18347411077E+04  0.18347411077E+04  0.00000000000E+00 0. -1.
         24    1    1    2    0    0  0.48245821955E+01 -0.16229235784E+03 -0.77798143656E+03  0.79880186379E+03  0.80419002446E+02 0. -1.
        -24    1    1    2    0    0 -0.48245821955E+01  0.16229235784E+03 -0.10385056866E+04  0.10541932285E+04  0.80419002446E+02 0.  1.
<mgrwt>
<rscale>  0 0.18118858E+03</rscale>
<asrwt>0</asrwt>
<pdfrwt beam="1">  1        1 0.28226782E+00 0.18118858E+03</pdfrwt>
<pdfrwt beam="2">  1       -1 0.28083057E-02 0.18118858E+03</pdfrwt>
<totfact> 0.18013530E+03</totfact>
</mgrwt>
</event>
<event>
 4    1  0.1123525E-001  0.1133688E+03  0.7546771E-02  0.1254456E+00
          4   -1    0    0  501    0  0.00000000000E+00  0.00000000000E+00  0.23712335365E+03  0.23712335365E+03  0.00000000000E+00 0. -1.
         -4   -1    0    0    0  501 -0.00000000000E+00 -0.00000000000E+00 -0.79073503165E+02  0.79073503165E+02  0.00000000000E+00 0.  1.
         24    1    1    2    0    0 -0.39377660293E+02  0.69531727003E+02  0.16769276567E+03  0.20241872642E+03  0.80419002446E+02 0. -1.
        -24    1    1    2    0    0  0.39377660293E+02 -0.69531727003E+02 -0.96429151851E+01  0.11377813040E+03  0.80419002446E+02 0.  1.
<mgrwt>
<rscale>  0 0.11336877E+03</rscale>
<asrwt>0</asrwt>
<pdfrwt beam="1">  1        4 0.36480516E-01 0.11336877E+03</pdfrwt>
<pdfrwt beam="2">  1       -4 0.12165154E-01 0.11336877E+03</pdfrwt>
<totfact> 0.63127275E+02</totfact>
</mgrwt>
</event>
<event>
 4    1  0.1123525E-001  0.9141382E+02  0.7546771E-02  0.1299464E+00
          4   -1    0    0  501    0  0.00000000000E+00  0.00000000000E+00  0.14123947371E+03  0.14123947371E+03  0.00000000000E+00 0. -1.
         -4   -1    0    0    0  501 -0.00000000000E+00 -0.00000000000E+00 -0.65082123349E+02  0.65082123349E+02  0.00000000000E+00 0.  1.
         24    1    1    2    0    0  0.43008892297E+01  0.43252423812E+02  0.69183342353E+02  0.11464214159E+03  0.80419002446E+02 0. -1.
        -24    1    1    2    0    0 -0.43008892297E+01 -0.43252423812E+02  0.69740080080E+01  0.91679455473E+02  0.80419002446E+02 0.  1.
<mgrwt>
<rscale>  0 0.91413816E+02</rscale>
<asrwt>0</asrwt>
<pdfrwt beam="1">  1        4 0.21729150E-01 0.91413816E+02</pdfrwt>
<pdfrwt beam="2">  1       -4 0.10012634E-01 0.91413816E+02</pdfrwt>
<totfact> 0.21881545E+03</totfact>
</mgrwt>
</event>
<event>
 4    1  0.1123525E-001  0.8598074E+02  0.7546771E-02  0.1312888E+00
          2   -1    0    0  501    0  0.00000000000E+00  0.00000000000E+00  0.15742068507E+03  0.15742068507E+03  0.00000000000E+00 0. -1.
         -2   -1    0    0    0  501 -0.00000000000E+00 -0.00000000000E+00 -0.66120596661E+02  0.66120596661E+02  0.00000000000E+00 0.  1.
         24    1    1    2    0    0  0.17053295427E+01  0.30373731099E+02  0.10581569117E+03  0.13634385994E+03  0.80419002446E+02 0. -1.
        -24    1    1    2    0    0 -0.17053295427E+01 -0.30373731099E+02 -0.14515602764E+02  0.87197421795E+02  0.80419002446E+02 0.  1.
<mgrwt>
<rscale>  0 0.85980740E+02</rscale>
<asrwt>0</asrwt>
<pdfrwt beam="1">  1        2 0.24218567E-01 0.85980740E+02</pdfrwt>
<pdfrwt beam="2">  1       -2 0.10172400E-01 0.85980740E+02</pdfrwt>
<totfact> 0.12917444E+04</totfact>
</mgrwt>
</event>
<event>
 4    1  0.1123525E-001  0.1724810E+03  0.7546771E-02  0.1175285E+00
         -2   -1    0    0    0  501 -0.00000000000E+00  0.00000000000E+00  0.60168110625E+02  0.60168110625E+02  0.00000000000E+00 0.  1.
          2   -1    0    0  501    0  0.00000000000E+00 -0.00000000000E+00 -0.66235134560E+03  0.66235134560E+03  0.00000000000E+00 0. -1.
         24    1    1    2    0    0 -0.12868329366E+03  0.81994524496E+02 -0.48298266799E+03  0.51285667164E+03  0.80419002446E+02 0. -1.
        -24    1    1    2    0    0  0.12868329366E+03 -0.81994524496E+02 -0.11920056699E+03  0.20966278459E+03  0.80419002446E+02 0.  1.
<mgrwt>
<rscale>  0 0.17248104E+03</rscale>
<asrwt>0</asrwt>
<pdfrwt beam="1">  1        2 0.10190021E+00 0.17248104E+03</pdfrwt>
<pdfrwt beam="2">  1       -2 0.92566324E-02 0.17248104E+03</pdfrwt>
<totfact> 0.33136986E+03</totfact>
</mgrwt>
</event>
<event>
 4    1  0.1123525E-001  0.8716541E+02  0.7546771E-02  0.1309865E+00
         -4   -1    0    0    0  501 -0.00000000000E+00  0.00000000000E+00  0.99607053542E+02  0.99607053542E+02  0.00000000000E+00 0.  1.
          4   -1    0    0  501    0  0.00000000000E+00 -0.00000000000E+00 -0.77020479833E+02  0.77020479833E+02  0.00000000000E+00 0. -1.
         24    1    1    2    0    0 -0.15466760847E+02 -0.29855857316E+02  0.26212646433E+01  0.87204815749E+02  0.80419002446E+02 0. -1.
        -24    1    1    2    0    0  0.15466760847E+02  0.29855857316E+02  0.19965309066E+02  0.89422717626E+02  0.80419002446E+02 0.  0.
<mgrwt>
<rscale>  0 0.87165411E+02</rscale>
<asrwt>0</asrwt>
<pdfrwt beam="1">  1        4 0.11849305E-01 0.87165411E+02</pdfrwt>
<pdfrwt beam="2">  1       -4 0.15324162E-01 0.87165411E+02</pdfrwt>
<totfact> 0.30141726E+03</totfact>
</mgrwt>
</event>
<event>
 4    1  0.1123525E-001  0.2145820E+03  0.7546771E-02  0.1137988E+00
          1   -1    0    0  501    0  0.00000000000E+00  0.00000000000E+00  0.19037118467E+03  0.19037118467E+03  0.00000000000E+00 0. -1.
         -1   -1    0    0    0  501 -0.00000000000E+00 -0.00000000000E+00 -0.34532322315E+03  0.34532322315E+03  0.00000000000E+00 0.  1.
         24    1    1    2    0    0 -0.16930715301E+03 -0.10446679694E+03 -0.22407881554E+03  0.31025272803E+03  0.80419002446E+02 0.  0.
        -24    1    1    2    0    0  0.16930715301E+03  0.10446679694E+03  0.69126777058E+02  0.22544167978E+03  0.80419002446E+02 0. -1.
<mgrwt>
<rscale>  0 0.21458201E+03</rscale>
<asrwt>0</asrwt>
<pdfrwt beam="1">  1        1 0.29287875E-01 0.21458201E+03</pdfrwt>
<pdfrwt beam="2">  1       -1 0.53126649E-01 0.21458201E+03</pdfrwt>
<totfact> 0.57469038E+02</totfact>
</mgrwt>
</event>
<event>
 4    1  0.1123525E-001  0.8910502E+02  0.7546771E-02  0.1305034E+00
          1   -1    0    0  501    0  0.00000000000E+00  0.00000000000E+00  0.31802887571E+03  0.31802887571E+03  0.00000000000E+00 0. -1.
         -1   -1    0    0    0  501 -0.00000000000E+00 -0.00000000000E+00 -0.38482546157E+02  0.38482546157E+02  0.00000000000E+00 0.  1.
         24    1    1    2    0    0  0.32708997785E+02 -0.20065158719E+02  0.34126761745E+02  0.95416670200E+02  0.80419002446E+02 0.  1.
        -24    1    1    2    0    0 -0.32708997785E+02  0.20065158719E+02  0.24541956780E+03  0.26109475166E+03  0.80419002446E+02 0.  0.
<mgrwt>
<rscale>  0 0.89105023E+02</rscale>
<asrwt>0</asrwt>
<pdfrwt beam="1">  1        1 0.48927518E-01 0.89105023E+02</pdfrwt>
<pdfrwt beam="2">  1       -1 0.59203919E-02 0.89105023E+02</pdfrwt>
<totfact> 0.10133779E+04</totfact>
</mgrwt>
</event>
<event>
 4    1  0.1123525E-001  0.9053441E+02  0.7546771E-02  0.1301563E+00
         -2   -1    0    0    0  501 -0.00000000000E+00  0.00000000000E+00  0.46005002264E+02  0.46005002264E+02  0.00000000000E+00 0.  1.
          2   -1    0    0  501    0  0.00000000000E+00 -0.00000000000E+00 -0.19671560539E+03  0.19671560539E+03  0.00000000000E+00 0. -1.
         24    1    1    2    0    0 -0.38912742216E+02  0.14665000227E+02 -0.11262335267E+03  0.14450086249E+03  0.80419002446E+02 0. -1.
        -24    1    1    2    0    0  0.38912742216E+02 -0.14665000227E+02 -0.38087250452E+02  0.98219745162E+02  0.80419002446E+02 0.  1.
<mgrwt>
<rscale>  0 0.90534412E+02</rscale>
<asrwt>0</asrwt>
<pdfrwt beam="1">  1        2 0.30263939E-01 0.90534412E+02</pdfrwt>
<pdfrwt beam="2">  1       -2 0.70776926E-02 0.90534412E+02</pdfrwt>
<totfact> 0.17814106E+04</totfact>
</mgrwt>
</event>
<event>
 4    1  0.1123525E-001  0.8569829E+02  0.7546771E-02  0.1313616E+00
          3   -1    0    0  501    0  0.00000000000E+00  0.00000000000E+00  0.61377076660E+03  0.61377076660E+03  0.00000000000E+00 0. -1.
         -3   -1    0    0    0  501 -0.00000000000E+00 -0.00000000000E+00 -0.12141007226E+02  0.12141007226E+02  0.00000000000E+00 0.  1.
         24    1    1    2    0    0 -0.76356541412E+01  0.28612559220E+02  0.26320915546E+03  0.27680906277E+03  0.80419002446E+02 0.  1.
        -24    1    1    2    0    0  0.76356541412E+01 -0.28612559220E+02  0.33842060391E+03  0.34910271106E+03  0.80419002446E+02 0. -1.
<mgrwt>
<rscale>  0 0.85698295E+02</rscale>
<asrwt>0</asrwt>
<pdfrwt beam="1">  1        3 0.94426248E-01 0.85698295E+02</pdfrwt>
<pdfrwt beam="2">  1       -3 0.18678477E-02 0.85698295E+02</pdfrwt>
<totfact> 0.22933250E+03</totfact>
</mgrwt>
</event>
<event>
 4    1  0.1123525E-001  0.9762682E+02  0.7546771E-02  0.1285367E+00
          2   -1    0    0  501    0  0.00000000000E+00  0.00000000000E+00  0.25800089043E+03  0.25800089043E+03  0.00000000000E+00 0. -1.
         -2   -1    0    0    0  501 -0.00000000000E+00 -0.00000000000E+00 -0.38075096986E+02  0.38075096986E+02  0.00000000000E+00 0.  1.
         24    1    1    2    0    0  0.31336237615E+02 -0.45626976655E+02  0.13550400933E+03  0.16700997960E+03  0.80419002446E+02 0.  0.
        -24    1    1    2    0    0 -0.31336237615E+02  0.45626976655E+02  0.84421784111E+02  0.12906600781E+03  0.80419002446E+02 0.  1.
<mgrwt>
<rscale>  0 0.97626824E+02</rscale>
<asrwt>0</asrwt>
<pdfrwt beam="1">  1        2 0.39692444E-01 0.97626824E+02</pdfrwt>
<pdfrwt beam="2">  1       -2 0.58577074E-02 0.97626824E+02</pdfrwt>
<totfact> 0.17915624E+04</totfact>
</mgrwt>
</event>
<event>
 4    1  0.1123525E-001  0.8085088E+02  0.7546771E-02  0.1326654E+00
          2   -1    0    0  501    0  0.00000000000E+00  0.00000000000E+00  0.95756475535E+02  0.95756475535E+02  0.00000000000E+00 0. -1.
         -2   -1    0    0    0  501 -0.00000000000E+00 -0.00000000000E+00 -0.92569159475E+02  0.92569159475E+02  0.00000000000E+00 0.  1.
         24    1    1    2    0    0  0.41230072739E+01 -0.72560180720E+01  0.49841956577E+02  0.94979395539E+02  0.80419002446E+02 0. -1.
        -24    1    1    2    0    0 -0.41230072739E+01  0.72560180720E+01 -0.46654640516E+02  0.93346239471E+02  0.80419002446E+02 0.  1.
<mgrwt>
<rscale>  0 0.80850881E+02</rscale>
<asrwt>0</asrwt>
<pdfrwt beam="1">  1        2 0.14731765E-01 0.80850881E+02</pdfrwt>
<pdfrwt beam="2">  1       -2 0.14241409E-01 0.80850881E+02</pdfrwt>
<totfact> 0.13182648E+04</totfact>
</mgrwt>
</event>
<event>
 4    1  0.1123525E-001  0.1152563E+03  0.7546771E-02  0.1251134E+00
          2   -1    0    0  501    0  0.00000000000E+00  0.00000000000E+00  0.15256420874E+04  0.15256420874E+04  0.00000000000E+00 0. -1.
         -2   -1    0    0    0  501 -0.00000000000E+00 -0.00000000000E+00 -0.12077017105E+02  0.12077017105E+02  0.00000000000E+00 0.  1.
         24    1    1    2    0    0 -0.33829170408E+02 -0.75315229415E+02  0.35064530714E+03  0.36910180700E+03  0.80419002446E+02 0.  1.
        -24    1    1    2    0    0  0.33829170408E+02  0.75315229415E+02  0.11629197631E+04  0.11686172975E+04  0.80419002446E+02 0. -1.
<mgrwt>
<rscale>  0 0.11525630E+03</rscale>
<asrwt>0</asrwt>
<pdfrwt beam="1">  1        2 0.23471401E+00 0.11525632E+03</pdfrwt>
<pdfrwt beam="2">  1       -2 0.18580038E-02 0.11525632E+03</pdfrwt>
<totfact> 0.11009215E+04</totfact>
</mgrwt>
</event>
<event>
 4    1  0.1123525E-001  0.9971345E+02  0.7546771E-02  0.1280900E+00
         -2   -1    0    0    0  501 -0.00000000000E+00  0.00000000000E+00  0.18927225300E+03  0.18927225300E+03  0.00000000000E+00 0.  1.
          2   -1    0    0  501    0  0.00000000000E+00 -0.00000000000E+00 -0.94121854755E+02  0.94121854755E+02  0.00000000000E+00 0. -1.
         24    1    1    2    0    0  0.56444888004E+02  0.17015581778E+02 -0.46616244524E+02  0.11007200195E+03  0.80419002446E+02 0. -1.
        -24    1    1    2    0    0 -0.56444888004E+02 -0.17015581778E+02  0.14176664277E+03  0.17332210581E+03  0.80419002446E+02 0.  1.
<mgrwt>
<rscale>  0 0.99713446E+02</rscale>
<asrwt>0</asrwt>
<pdfrwt beam="1">  1        2 0.14480285E-01 0.99713446E+02</pdfrwt>
<pdfrwt beam="2">  1       -2 0.29118808E-01 0.99713446E+02</pdfrwt>
<totfact> 0.41107033E+03</totfact>
</mgrwt>
</event>
<event>
 4    1  0.1123525E-001  0.8575621E+02  0.7546771E-02  0.1313467E+00
          2   -1    0    0  501    0  0.00000000000E+00  0.00000000000E+00  0.32638490784E+03  0.32638490784E+03  0.00000000000E+00 0. -1.
         -2   -1    0    0    0  501 -0.00000000000E+00 -0.00000000000E+00 -0.40338589682E+03  0.40338589682E+03  0.00000000000E+00 0.  1.
         24    1    1    2    0    0 -0.14125174370E+02 -0.26218157375E+02  0.31604771359E+03  0.32747562588E+03  0.80419002446E+02 0. -1.
        -24    1    1    2    0    0  0.14125174370E+02  0.26218157375E+02 -0.39304870256E+03  0.40229517878E+03  0.80419002446E+02 0.  1.
<mgrwt>
<rscale>  0 0.85756214E+02</rscale>
<asrwt>0</asrwt>
<pdfrwt beam="1">  1        2 0.50213063E-01 0.85756214E+02</pdfrwt>
<pdfrwt beam="2">  1       -2 0.62059368E-01 0.85756214E+02</pdfrwt>
<totfact> 0.25003959E+02</totfact>
</mgrwt>
</event>
<event>
 4    1  0.1123525E-001  0.1056757E+03  0.7546771E-02  0.1268794E+00
          1   -1    0    0  501    0  0.00000000000E+00  0.00000000000E+00  0.19634989711E+03  0.19634989711E+03  0.00000000000E+00 0. -1.
         -1   -1    0    0    0  501 -0.00000000000E+00 -0.00000000000E+00 -0.82306364805E+02  0.82306364805E+02  0.00000000000E+00 0.  1.
         24    1    1    2    0    0  0.65382335930E+02 -0.20622546988E+02 -0.20426000396E+02  0.10763167165E+03  0.80419002446E+02 0.  1.
        -24    1    1    2    0    0 -0.65382335930E+02  0.20622546988E+02  0.13446953270E+03  0.17102459027E+03  0.80419002446E+02 0. -1.
<mgrwt>
<rscale>  0 0.10567571E+03</rscale>
<asrwt>0</asrwt>
<pdfrwt beam="1">  1        1 0.30207676E-01 0.10567571E+03</pdfrwt>
<pdfrwt beam="2">  1       -1 0.12662518E-01 0.10567571E+03</pdfrwt>
<totfact> 0.59171170E+03</totfact>
</mgrwt>
</event>
<event>
 4    1  0.1123525E-001  0.9919776E+02  0.7546771E-02  0.1281992E+00
         -2   -1    0    0    0  501 -0.00000000000E+00  0.00000000000E+00  0.37727290486E+02  0.37727290486E+02  0.00000000000E+00 0.  1.
          2   -1    0    0  501    0  0.00000000000E+00 -0.00000000000E+00 -0.70370379123E+03  0.70370379123E+03  0.00000000000E+00 0. -1.
         24    1    1    2    0    0 -0.27414325817E+02  0.51199951381E+02 -0.62708390290E+03  0.63488142004E+03  0.80419002446E+02 0. -1.
        -24    1    1    2    0    0  0.27414325817E+02 -0.51199951381E+02 -0.38892597842E+02  0.10654966167E+03  0.80419002446E+02 0.  1.
<mgrwt>
<rscale>  0 0.99197763E+02</rscale>
<asrwt>0</asrwt>
<pdfrwt beam="1">  1        2 0.10826213E+00 0.99197763E+02</pdfrwt>
<pdfrwt beam="2">  1       -2 0.58041982E-02 0.99197763E+02</pdfrwt>
<totfact> 0.61608209E+03</totfact>
</mgrwt>
</event>
<event>
 4    1  0.1123525E-001  0.8289220E+02  0.7546771E-02  0.1321039E+00
         -3   -1    0    0    0  501 -0.00000000000E+00  0.00000000000E+00  0.85247482167E+03  0.85247482167E+03  0.00000000000E+00 0.  1.
          3   -1    0    0  501    0  0.00000000000E+00 -0.00000000000E+00 -0.12644392428E+02  0.12644392428E+02  0.00000000000E+00 0. -1.
         24    1    1    2    0    0 -0.20097246992E+02 -0.29150510254E-01  0.68036768287E+03  0.68539864315E+03  0.80419002446E+02 0.  0.
        -24    1    1    2    0    0  0.20097246992E+02  0.29150510254E-01  0.15946274638E+03  0.17972057095E+03  0.80419002446E+02 0. -1.
<mgrwt>
<rscale>  0 0.82892196E+02</rscale>
<asrwt>0</asrwt>
<pdfrwt beam="1">  1        3 0.19452918E-02 0.82892196E+02</pdfrwt>
<pdfrwt beam="2">  1       -3 0.13114993E+00 0.82892196E+02</pdfrwt>
<totfact> 0.10065542E+03</totfact>
</mgrwt>
</event>
<event>
 4    1  0.1123525E-001  0.8469148E+02  0.7546771E-02  0.1316241E+00
         -1   -1    0    0    0  501 -0.00000000000E+00  0.00000000000E+00  0.83722165513E+03  0.83722165513E+03  0.00000000000E+00 0.  1.
          1   -1    0    0  501    0  0.00000000000E+00 -0.00000000000E+00 -0.18695431858E+02  0.18695431858E+02  0.00000000000E+00 0. -1.
         24    1    1    2    0    0 -0.83573352503E+00  0.26546782652E+02  0.72425600027E+03  0.72919092150E+03  0.80419002446E+02 0.  1.
        -24    1    1    2    0    0  0.83573352503E+00 -0.26546782652E+02  0.94270223002E+02  0.12672616549E+03  0.80419002446E+02 0. -1.
<mgrwt>
<rscale>  0 0.84691476E+02</rscale>
<asrwt>0</asrwt>
<pdfrwt beam="1">  1        1 0.28762209E-02 0.84691476E+02</pdfrwt>
<pdfrwt beam="2">  1       -1 0.12880330E+00 0.84691476E+02</pdfrwt>
<totfact> 0.19048855E+03</totfact>
</mgrwt>
</event>
<event>
 4    1  0.1123525E-001  0.1011724E+03  0.7546771E-02  0.1277850E+00
         -2   -1    0    0    0  501 -0.00000000000E+00  0.00000000000E+00  0.73409317935E+02  0.73409317935E+02  0.00000000000E+00 0.  1.
          2   -1    0    0  501    0  0.00000000000E+00 -0.00000000000E+00 -0.26939913428E+03  0.26939913428E+03  0.00000000000E+00 0. -1.
         24    1    1    2    0    0 -0.21098381630E+01  0.61352889569E+02 -0.21704639358E+03  0.23946812188E+03  0.80419002446E+02 0. -1.
        -24    1    1    2    0    0  0.21098381630E+01 -0.61352889569E+02  0.21056577231E+02  0.10334033034E+03  0.80419002446E+02 0.  1.
<mgrwt>
<rscale>  0 0.10117235E+03</rscale>
<asrwt>0</asrwt>
<pdfrwt beam="1">  1        2 0.41446020E-01 0.10117235E+03</pdfrwt>
<pdfrwt beam="2">  1       -2 0.11293741E-01 0.10117235E+03</pdfrwt>
<totfact> 0.62669680E+03</totfact>
</mgrwt>
</event>
<event>
 4    1  0.1123525E-001  0.8335501E+02  0.7546771E-02  0.1319791E+00
         -1   -1    0    0    0  501 -0.00000000000E+00  0.00000000000E+00  0.43505290079E+02  0.43505290079E+02  0.00000000000E+00 0.  1.
          1   -1    0    0  501    0  0.00000000000E+00 -0.00000000000E+00 -0.28107209631E+03  0.28107209631E+03  0.00000000000E+00 0. -1.
         24    1    1    2    0    0 -0.86130226015E+01  0.20165747750E+02 -0.12141467036E+02  0.84234628965E+02  0.80419002446E+02 0.  1.
        -24    1    1    2    0    0  0.86130226015E+01 -0.20165747750E+02 -0.22542533920E+03  0.24034275743E+03  0.80419002446E+02 0. -1.
<mgrwt>
<rscale>  0 0.83355009E+02</rscale>
<asrwt>0</asrwt>
<pdfrwt beam="1">  1        1 0.43241860E-01 0.83355009E+02</pdfrwt>
<pdfrwt beam="2">  1       -1 0.66931216E-02 0.83355009E+02</pdfrwt>
<totfact> 0.97729353E+03</totfact>
</mgrwt>
</event>
<event>
 4    1  0.1123525E-001  0.8455635E+02  0.7546771E-02  0.1316597E+00
         -2   -1    0    0    0  501 -0.00000000000E+00  0.00000000000E+00  0.10000281220E+03  0.10000281220E+03  0.00000000000E+00 0.  1.
          2   -1    0    0  501    0  0.00000000000E+00 -0.00000000000E+00 -0.14964933401E+03  0.14964933401E+03  0.00000000000E+00 0. -1.
         24    1    1    2    0    0  0.45239557475E+01 -0.25731193418E+02 -0.11503069981E+03  0.14276497590E+03  0.80419002446E+02 0. -1.
        -24    1    1    2    0    0 -0.45239557475E+01  0.25731193418E+02  0.65384178001E+02  0.10688717031E+03  0.80419002446E+02 0.  1.
<mgrwt>
<rscale>  0 0.84556351E+02</rscale>
<asrwt>0</asrwt>
<pdfrwt beam="1">  1        2 0.23022974E-01 0.84556351E+02</pdfrwt>
<pdfrwt beam="2">  1       -2 0.15385048E-01 0.84556351E+02</pdfrwt>
<totfact> 0.70744427E+03</totfact>
</mgrwt>
</event>
<event>
 4    1  0.1301216E-001  0.8382903E+02  0.7546771E-02  0.1318523E+00
         -3   -1    0    0    0  501 -0.00000000000E+00  0.00000000000E+00  0.25719057056E+02  0.25719057056E+02  0.00000000000E+00 0.  1.
          3   -1    0    0  501    0  0.00000000000E+00 -0.00000000000E+00 -0.15619373559E+04  0.15619373559E+04  0.00000000000E+00 0. -1.
         24    1    1    2    0    0 -0.18385286097E+02 -0.14902056300E+02 -0.47049326704E+02  0.96129834726E+02  0.80419002446E+02 0.  1.
        -24    1    1    2    0    0  0.18385286097E+02  0.14902056300E+02 -0.14891689722E+04  0.14915265783E+04  0.80419002446E+02 0. -1.
<mgrwt>
<rscale>  0 0.83829028E+02</rscale>
<asrwt>0</asrwt>
<pdfrwt beam="1">  1        3 0.24029816E+00 0.83829028E+02</pdfrwt>
<pdfrwt beam="2">  1       -3 0.39567763E-02 0.83829028E+02</pdfrwt>
<totfact> 0.70700886E+01</totfact>
</mgrwt>
</event>
<event>
 4    1  0.1123525E-001  0.1299991E+03  0.7546771E-02  0.1227457E+00
          1   -1    0    0  501    0  0.00000000000E+00  0.00000000000E+00  0.54146888752E+03  0.54146888752E+03  0.00000000000E+00 0. -1.
         -1   -1    0    0    0  501 -0.00000000000E+00 -0.00000000000E+00 -0.32745837057E+02  0.32745837057E+02  0.00000000000E+00 0.  1.
         24    1    1    2    0    0 -0.88798869286E+02 -0.50470837584E+02  0.19220254013E+03  0.23203787841E+03  0.80419002446E+02 0.  0.
        -24    1    1    2    0    0  0.88798869286E+02  0.50470837584E+02  0.31652051034E+03  0.34217684617E+03  0.80419002446E+02 0. -1.
<mgrwt>
<rscale>  0 0.12999908E+03</rscale>
<asrwt>0</asrwt>
<pdfrwt beam="1">  1        1 0.83302899E-01 0.12999908E+03</pdfrwt>
<pdfrwt beam="2">  1       -1 0.50378215E-02 0.12999908E+03</pdfrwt>
<totfact> 0.67551659E+03</totfact>
</mgrwt>
</event>
<event>
 4    1  0.1123525E-001  0.1295143E+03  0.7546771E-02  0.1228178E+00
         -4   -1    0    0    0  501 -0.00000000000E+00  0.00000000000E+00  0.10596629019E+04  0.10596629019E+04  0.00000000000E+00 0.  1.
          4   -1    0    0  501    0  0.00000000000E+00 -0.00000000000E+00 -0.26325235431E+02  0.26325235431E+02  0.00000000000E+00 0. -1.
         24    1    1    2    0    0 -0.63839006603E+02 -0.78938670793E+02  0.17381018633E+03  0.21675776650E+03  0.80419002446E+02 0. -1.
        -24    1    1    2    0    0  0.63839006603E+02  0.78938670793E+02  0.85952748012E+03  0.86923037081E+03  0.80419002446E+02 0.  1.
<mgrwt>
<rscale>  0 0.12951428E+03</rscale>
<asrwt>0</asrwt>
<pdfrwt beam="1">  1        4 0.40500370E-02 0.12951428E+03</pdfrwt>
<pdfrwt beam="2">  1       -4 0.16302503E+00 0.12951428E+03</pdfrwt>
<totfact> 0.14304991E+02</totfact>
</mgrwt>
</event>
<event>
 4    1  0.1123525E-001  0.1004206E+03  0.7546771E-02  0.1279414E+00
          3   -1    0    0  501    0  0.00000000000E+00  0.00000000000E+00  0.41295221484E+03  0.41295221484E+03  0.00000000000E+00 0. -1.
         -3   -1    0    0    0  501 -0.00000000000E+00 -0.00000000000E+00 -0.35949326146E+02  0.35949326146E+02  0.00000000000E+00 0.  1.
         24    1    1    2    0    0  0.54594270153E+02 -0.25229880275E+02  0.61392093504E+02  0.11769998425E+03  0.80419002446E+02 0.  1.
        -24    1    1    2    0    0 -0.54594270153E+02  0.25229880275E+02  0.31561079519E+03  0.33120155674E+03  0.80419002446E+02 0. -1.
<mgrwt>
<rscale>  0 0.10042060E+03</rscale>
<asrwt>0</asrwt>
<pdfrwt beam="1">  1        3 0.63531107E-01 0.10042060E+03</pdfrwt>
<pdfrwt beam="2">  1       -3 0.55306658E-02 0.10042060E+03</pdfrwt>
<totfact> 0.10388671E+03</totfact>
</mgrwt>
</event>
<event>
 4    1  0.1123525E-001  0.1152174E+03  0.7546771E-02  0.1251202E+00
          1   -1    0    0  501    0  0.00000000000E+00  0.00000000000E+00  0.16906676246E+03  0.16906676246E+03  0.00000000000E+00 0. -1.
         -1   -1    0    0    0  501 -0.00000000000E+00 -0.00000000000E+00 -0.98035207175E+02  0.98035207175E+02  0.00000000000E+00 0.  1.
         24    1    1    2    0    0  0.27958548252E+02 -0.77628332145E+02 -0.24070617017E+02  0.11770492313E+03  0.80419002446E+02 0.  1.
        -24    1    1    2    0    0 -0.27958548252E+02  0.77628332145E+02  0.95102172297E+02  0.14939704650E+03  0.80419002446E+02 0. -1.
<mgrwt>
<rscale>  0 0.11521742E+03</rscale>
<asrwt>0</asrwt>
<pdfrwt beam="1">  1        1 0.26010271E-01 0.11521742E+03</pdfrwt>
<pdfrwt beam="2">  1       -1 0.15082340E-01 0.11521742E+03</pdfrwt>
<totfact> 0.54649278E+03</totfact>
</mgrwt>
</event>
<event>
 4    1  0.1123525E-001  0.8575873E+02  0.7546771E-02  0.1313460E+00
         -1   -1    0    0    0  501 -0.00000000000E+00  0.00000000000E+00  0.52275172854E+01  0.52275172854E+01  0.00000000000E+00 0.  1.
          1   -1    0    0  501    0  0.00000000000E+00 -0.00000000000E+00 -0.15461938377E+04  0.15461938377E+04  0.00000000000E+00 0. -1.
         24    1    1    2    0    0  0.26544378057E+02  0.13517965621E+02 -0.10033165693E+04  0.10069750213E+04  0.80419002446E+02 0.  0.
        -24    1    1    2    0    0 -0.26544378057E+02 -0.13517965621E+02 -0.53764975117E+03  0.54444633371E+03  0.80419002446E+02 0.  0.
<mgrwt>
<rscale>  0 0.85758715E+02</rscale>
<asrwt>0</asrwt>
<pdfrwt beam="1">  1        1 0.23787586E+00 0.85758726E+02</pdfrwt>
<pdfrwt beam="2">  1       -1 0.80423382E-03 0.85758726E+02</pdfrwt>
<totfact> 0.16104751E+04</totfact>
</mgrwt>
</event>
<event>
 4    1  0.1123525E-001  0.1076080E+03  0.7546771E-02  0.1265065E+00
         -2   -1    0    0    0  501 -0.00000000000E+00  0.00000000000E+00  0.65881546990E+02  0.65881546990E+02  0.00000000000E+00 0.  1.
          2   -1    0    0  501    0  0.00000000000E+00 -0.00000000000E+00 -0.28802268706E+03  0.28802268706E+03  0.00000000000E+00 0. -1.
         24    1    1    2    0    0 -0.43961874382E+02 -0.56388158470E+02 -0.22154349219E+03  0.24629455069E+03  0.80419002446E+02 0.  1.
        -24    1    1    2    0    0  0.43961874382E+02  0.56388158470E+02 -0.59764788006E+00  0.10760968336E+03  0.80419002446E+02 0. -1.
<mgrwt>
<rscale>  0 0.10760802E+03</rscale>
<asrwt>0</asrwt>
<pdfrwt beam="1">  1        2 0.44311183E-01 0.10760802E+03</pdfrwt>
<pdfrwt beam="2">  1       -2 0.10135623E-01 0.10760802E+03</pdfrwt>
<totfact> 0.69544333E+03</totfact>
</mgrwt>
</event>
<event>
 4    1  0.1123525E-001  0.9079372E+02  0.7546771E-02  0.1300941E+00
          2   -1    0    0  501    0  0.00000000000E+00  0.00000000000E+00  0.33698272550E+02  0.33698272550E+02  0.00000000000E+00 0. -1.
         -2   -1    0    0    0  501 -0.00000000000E+00 -0.00000000000E+00 -0.24756580476E+03  0.24756580476E+03  0.00000000000E+00 0.  1.
         24    1    1    2    0    0 -0.12406267918E+02 -0.40278587358E+02 -0.12225695115E+03  0.15228347955E+03  0.80419002446E+02 0. -1.
        -24    1    1    2    0    0  0.12406267918E+02  0.40278587358E+02 -0.91610581053E+02  0.12898059776E+03  0.80419002446E+02 0.  0.
<mgrwt>
<rscale>  0 0.90793712E+02</rscale>
<asrwt>0</asrwt>
<pdfrwt beam="1">  1        2 0.51843498E-02 0.90793723E+02</pdfrwt>
<pdfrwt beam="2">  1       -2 0.38087046E-01 0.90793723E+02</pdfrwt>
<totfact> 0.88548924E+03</totfact>
</mgrwt>
</event>
<event>
 4    1  0.1123525E-001  0.8282802E+02  0.7546771E-02  0.1321212E+00
         -1   -1    0    0    0  501 -0.00000000000E+00  0.00000000000E+00  0.28515606014E+01  0.28515606014E+01  0.00000000000E+00 0.  1.
          1   -1    0    0  501    0  0.00000000000E+00 -0.00000000000E+00 -0.26996626517E+04  0.26996626517E+04  0.00000000000E+00 0. -1.
         24    1    1    2    0    0  0.30872474841E+01  0.19589104876E+02 -0.90264179489E+03  0.90643405163E+03  0.80419002446E+02 0.  1.
        -24    1    1    2    0    0 -0.30872474841E+01 -0.19589104876E+02 -0.17941692962E+04  0.17960801606E+04  0.80419002446E+02 0. -1.
<mgrwt>
<rscale>  0 0.82828015E+02</rscale>
<asrwt>0</asrwt>
<pdfrwt beam="1">  1        1 0.41533371E+00 0.82828015E+02</pdfrwt>
<pdfrwt beam="2">  1       -1 0.43870058E-03 0.82828015E+02</pdfrwt>
<totfact> 0.69921213E+03</totfact>
</mgrwt>
</event>
<event>
 4    1  0.1123525E-001  0.8937606E+02  0.7546771E-02  0.1304370E+00
         -3   -1    0    0    0  501 -0.00000000000E+00  0.00000000000E+00  0.27786021025E+03  0.27786021025E+03  0.00000000000E+00 0.  1.
          3   -1    0    0  501    0  0.00000000000E+00 -0.00000000000E+00 -0.75478212191E+02  0.75478212191E+02  0.00000000000E+00 0. -1.
         24    1    1    2    0    0  0.19143714488E+02 -0.33976204294E+02  0.24020109841E+03  0.25629016348E+03  0.80419002446E+02 0.  1.
        -24    1    1    2    0    0 -0.19143714488E+02  0.33976204294E+02 -0.37819100351E+02  0.97048258966E+02  0.80419002446E+02 0. -1.
<mgrwt>
<rscale>  0 0.89376061E+02</rscale>
<asrwt>0</asrwt>
<pdfrwt beam="1">  1        3 0.11612033E-01 0.89376061E+02</pdfrwt>
<pdfrwt beam="2">  1       -3 0.42747724E-01 0.89376061E+02</pdfrwt>
<totfact> 0.67654128E+02</totfact>
</mgrwt>
</event>
<event>
 4    1  0.1123525E-001  0.1846082E+03  0.7546771E-02  0.1163416E+00
          2   -1    0    0  501    0  0.00000000000E+00  0.00000000000E+00  0.36229940869E+04  0.36229940869E+04  0.00000000000E+00 0. -1.
         -2   -1    0    0    0  501 -0.00000000000E+00 -0.00000000000E+00 -0.20934901384E+02  0.20934901384E+02  0.00000000000E+00 0.  1.
         24    1    1    2    0    0  0.95499558445E+02 -0.13598832144E+03  0.31530596163E+04  0.31584592999E+04  0.80419002446E+02 0. -1.
        -24    1    1    2    0    0 -0.95499558445E+02  0.13598832144E+03  0.44899956923E+03  0.48546968839E+03  0.80419002446E+02 0.  1.
<mgrwt>
<rscale>  0 0.18460825E+03</rscale>
<asrwt>0</asrwt>
<pdfrwt beam="1">  1        2 0.55738321E+00 0.18460825E+03</pdfrwt>
<pdfrwt beam="2">  1       -2 0.32207569E-02 0.18460825E+03</pdfrwt>
<totfact> 0.32966264E+02</totfact>
</mgrwt>
</event>
<event>
 4    1  0.1123525E-001  0.8262005E+02  0.7546771E-02  0.1321776E+00
          1   -1    0    0  501    0  0.00000000000E+00  0.00000000000E+00  0.13433034626E+02  0.13433034626E+02  0.00000000000E+00 0. -1.
         -1   -1    0    0    0  501 -0.00000000000E+00 -0.00000000000E+00 -0.51678059993E+03  0.51678059993E+03  0.00000000000E+00 0.  1.
         24    1    1    2    0    0 -0.16533822197E+02  0.92460695897E+01 -0.28592255247E+03  0.29762019260E+03  0.80419002446E+02 0.  1.
        -24    1    1    2    0    0  0.16533822197E+02 -0.92460695897E+01 -0.21742501284E+03  0.23259344195E+03  0.80419002446E+02 0. -1.
<mgrwt>
<rscale>  0 0.82620052E+02</rscale>
<asrwt>0</asrwt>
<pdfrwt beam="1">  1        1 0.20666212E-02 0.82620052E+02</pdfrwt>
<pdfrwt beam="2">  1       -1 0.79504689E-01 0.82620052E+02</pdfrwt>
<totfact> 0.85947690E+03</totfact>
</mgrwt>
</event>
<event>
 4    1  0.1123525E-001  0.9146349E+02  0.7546771E-02  0.1299346E+00
          1   -1    0    0  501    0  0.00000000000E+00  0.00000000000E+00  0.42738491415E+02  0.42738491415E+02  0.00000000000E+00 0. -1.
         -1   -1    0    0    0  501 -0.00000000000E+00 -0.00000000000E+00 -0.46346468202E+03  0.46346468202E+03  0.00000000000E+00 0.  1.
         24    1    1    2    0    0 -0.38905715437E+02 -0.19613742922E+02 -0.40273070209E+03  0.41298618375E+03  0.80419002446E+02 0.  1.
        -24    1    1    2    0    0  0.38905715437E+02  0.19613742922E+02 -0.17995488513E+02  0.93216989687E+02  0.80419002446E+02 0. -1.
<mgrwt>
<rscale>  0 0.91463488E+02</rscale>
<asrwt>0</asrwt>
<pdfrwt beam="1">  1        1 0.65751527E-02 0.91463488E+02</pdfrwt>
<pdfrwt beam="2">  1       -1 0.71302257E-01 0.91463488E+02</pdfrwt>
<totfact> 0.22326676E+03</totfact>
</mgrwt>
</event>
<event>
 4    1  0.1123525E-001  0.8634563E+02  0.7546771E-02  0.1311951E+00
          2   -1    0    0  501    0  0.00000000000E+00  0.00000000000E+00  0.13468957772E+04  0.13468957772E+04  0.00000000000E+00 0. -1.
         -2   -1    0    0    0  501 -0.00000000000E+00 -0.00000000000E+00 -0.13097670418E+02  0.13097670418E+02  0.00000000000E+00 0.  1.
         24    1    1    2    0    0 -0.30536495921E+02 -0.74749245811E+01  0.11835969828E+04  0.11867423418E+04  0.80419002446E+02 0.  1.
        -24    1    1    2    0    0  0.30536495921E+02  0.74749245811E+01  0.15020112398E+03  0.17325110585E+03  0.80419002446E+02 0.  1.
<mgrwt>
<rscale>  0 0.86345631E+02</rscale>
<asrwt>0</asrwt>
<pdfrwt beam="1">  1        2 0.20721463E+00 0.86345631E+02</pdfrwt>
<pdfrwt beam="2">  1       -2 0.20150273E-02 0.86345631E+02</pdfrwt>
<totfact> 0.11933106E+04</totfact>
</mgrwt>
</event>
<event>
 4    1  0.1123525E-001  0.1070617E+03  0.7546771E-02  0.1266110E+00
         -1   -1    0    0    0  501 -0.00000000000E+00  0.00000000000E+00  0.76410457047E+03  0.76410457047E+03  0.00000000000E+00 0.  1.
          1   -1    0    0  501    0  0.00000000000E+00 -0.00000000000E+00 -0.15389052426E+02  0.15389052426E+02  0.00000000000E+00 0. -1.
         24    1    1    2    0    0 -0.15268605359E+02 -0.69006314213E+02  0.43625995169E+03  0.44920481199E+03  0.80419002446E+02 0.  1.
        -24    1    1    2    0    0  0.15268605359E+02  0.69006314213E+02  0.31245556636E+03  0.33028881091E+03  0.80419002446E+02 0. -1.
<mgrwt>
<rscale>  0 0.10706175E+03</rscale>
<asrwt>0</asrwt>
<pdfrwt beam="1">  1        1 0.23675471E-02 0.10706175E+03</pdfrwt>
<pdfrwt beam="2">  1       -1 0.11755452E+00 0.10706175E+03</pdfrwt>
<totfact> 0.31342663E+03</totfact>
</mgrwt>
</event>
<event>
 4    1  0.1123525E-001  0.1069418E+03  0.7546771E-02  0.1266340E+00
          1   -1    0    0  501    0  0.00000000000E+00  0.00000000000E+00  0.70854838152E+03  0.70854838152E+03  0.00000000000E+00 0. -1.
         -1   -1    0    0    0  501 -0.00000000000E+00 -0.00000000000E+00 -0.25518865669E+02  0.25518865669E+02  0.00000000000E+00 0.  1.
         24    1    1    2    0    0  0.60492978409E+02 -0.36192945098E+02  0.11901397502E+03  0.16000272471E+03  0.80419002446E+02 0.  1.
        -24    1    1    2    0    0 -0.60492978409E+02  0.36192945098E+02  0.56401554083E+03  0.57406452247E+03  0.80419002446E+02 0. -1.
<mgrwt>
<rscale>  0 0.10694179E+03</rscale>
<asrwt>0</asrwt>
<pdfrwt beam="1">  1        1 0.10900743E+00 0.10694179E+03</pdfrwt>
<pdfrwt beam="2">  1       -1 0.39259799E-02 0.10694179E+03</pdfrwt>
<totfact> 0.66630302E+03</totfact>
</mgrwt>
</event>
<event>
 4    1  0.1123525E-001  0.1907451E+03  0.7546771E-02  0.1157791E+00
         -2   -1    0    0    0  501 -0.00000000000E+00  0.00000000000E+00  0.12385861327E+03  0.12385861327E+03  0.00000000000E+00 0.  1.
          2   -1    0    0  501    0  0.00000000000E+00 -0.00000000000E+00 -0.35694427230E+03  0.35694427230E+03  0.00000000000E+00 0. -1.
         24    1    1    2    0    0  0.15176151356E+03 -0.82975431655E+02 -0.21769364916E+03  0.28943776550E+03  0.80419002446E+02 0.  1.
        -24    1    1    2    0    0 -0.15176151356E+03  0.82975431655E+02 -0.15392009873E+02  0.19136512007E+03  0.80419002446E+02 0. -1.
<mgrwt>
<rscale>  0 0.19074511E+03</rscale>
<asrwt>0</asrwt>
<pdfrwt beam="1">  1        2 0.54914502E-01 0.19074511E+03</pdfrwt>
<pdfrwt beam="2">  1       -2 0.19055172E-01 0.19074511E+03</pdfrwt>
<totfact> 0.20427637E+03</totfact>
</mgrwt>
</event>
<event>
 4    1  0.1123525E-001  0.1041221E+03  0.7546771E-02  0.1271859E+00
          4   -1    0    0  501    0  0.00000000000E+00  0.00000000000E+00  0.26841217638E+03  0.26841217638E+03  0.00000000000E+00 0. -1.
         -4   -1    0    0    0  501 -0.00000000000E+00 -0.00000000000E+00 -0.11156123241E+03  0.11156123241E+03  0.00000000000E+00 0.  1.
         24    1    1    2    0    0  0.66130525229E+02  0.97402610561E+00  0.23017104705E+03  0.25262644745E+03  0.80419002446E+02 0. -1.
        -24    1    1    2    0    0 -0.66130525229E+02 -0.97402610561E+00 -0.73320103085E+02  0.12734696135E+03  0.80419002446E+02 0.  1.
<mgrwt>
<rscale>  0 0.10412210E+03</rscale>
<asrwt>0</asrwt>
<pdfrwt beam="1">  1        4 0.41294181E-01 0.10412210E+03</pdfrwt>
<pdfrwt beam="2">  1       -4 0.17163267E-01 0.10412210E+03</pdfrwt>
<totfact> 0.26830016E+02</totfact>
</mgrwt>
</event>
<event>
 4    1  0.1123525E-001  0.1240365E+03  0.7546771E-02  0.1236583E+00
         -2   -1    0    0    0  501 -0.00000000000E+00  0.00000000000E+00  0.63951291329E+01  0.63951291329E+01  0.00000000000E+00 0.  1.
          2   -1    0    0  501    0  0.00000000000E+00 -0.00000000000E+00 -0.29642941748E+04  0.29642941748E+04  0.00000000000E+00 0. -1.
         24    1    1    2    0    0  0.70431664538E+02  0.62906508659E+02 -0.21237070626E+04  0.21273261978E+04  0.80419002446E+02 0. -1.
        -24    1    1    2    0    0 -0.70431664538E+02 -0.62906508659E+02 -0.83419198313E+03  0.84336310619E+03  0.80419002446E+02 0.  1.
<mgrwt>
<rscale>  0 0.12403654E+03</rscale>
<asrwt>0</asrwt>
<pdfrwt beam="1">  1        2 0.45604549E+00 0.12403654E+03</pdfrwt>
<pdfrwt beam="2">  1       -2 0.98386551E-03 0.12403654E+03</pdfrwt>
<totfact> 0.48128687E+03</totfact>
</mgrwt>
</event>
<event>
 4    1  0.1123525E-001  0.1018517E+03  0.7546771E-02  0.1276450E+00
          1   -1    0    0  501    0  0.00000000000E+00  0.00000000000E+00  0.13826453044E+03  0.13826453044E+03  0.00000000000E+00 0. -1.
         -1   -1    0    0    0  501 -0.00000000000E+00 -0.00000000000E+00 -0.82886800644E+02  0.82886800644E+02  0.00000000000E+00 0.  1.
         24    1    1    2    0    0 -0.62426680422E+02 -0.30737661247E+01  0.61736454397E+02  0.11910140311E+03  0.80419002446E+02 0.  1.
        -24    1    1    2    0    0  0.62426680422E+02  0.30737661247E+01 -0.63587246024E+01  0.10204992797E+03  0.80419002446E+02 0. -1.
<mgrwt>
<rscale>  0 0.10185164E+03</rscale>
<asrwt>0</asrwt>
<pdfrwt beam="1">  1        1 0.21271466E-01 0.10185165E+03</pdfrwt>
<pdfrwt beam="2">  1       -1 0.12751815E-01 0.10185165E+03</pdfrwt>
<totfact> 0.90288234E+03</totfact>
</mgrwt>
</event>
<event>
 4    1  0.1123525E-001  0.2652277E+03  0.7546771E-02  0.1104042E+00
          2   -1    0    0  501    0  0.00000000000E+00  0.00000000000E+00  0.38502353532E+03  0.38502353532E+03  0.00000000000E+00 0. -1.
         -2   -1    0    0    0  501 -0.00000000000E+00 -0.00000000000E+00 -0.21067361002E+03  0.21067361002E+03  0.00000000000E+00 0.  1.
         24    1    1    2    0    0  0.24995453321E+03 -0.37433266167E+02  0.19569894308E+03  0.32961160533E+03  0.80419002446E+02 0. -1.
        -24    1    1    2    0    0 -0.24995453321E+03  0.37433266167E+02 -0.21349017788E+02  0.26608554001E+03  0.80419002446E+02 0.  1.
<mgrwt>
<rscale>  0 0.26522770E+03</rscale>
<asrwt>0</asrwt>
<pdfrwt beam="1">  1        2 0.59234390E-01 0.26522770E+03</pdfrwt>
<pdfrwt beam="2">  1       -2 0.32411325E-01 0.26522770E+03</pdfrwt>
<totfact> 0.74039178E+02</totfact>
</mgrwt>
</event>
<event>
 4    1  0.1123525E-001  0.8104098E+02  0.7546771E-02  0.1326123E+00
         -1   -1    0    0    0  501 -0.00000000000E+00  0.00000000000E+00  0.73133567696E+03  0.73133567696E+03  0.00000000000E+00 0.  1.
          1   -1    0    0  501    0  0.00000000000E+00 -0.00000000000E+00 -0.10959284698E+02  0.10959284698E+02  0.00000000000E+00 0. -1.
         24    1    1    2    0    0  0.30181013243E+01 -0.95557449288E+01  0.20247315117E+03  0.21808946352E+03  0.80419002446E+02 0. -1.
        -24    1    1    2    0    0 -0.30181013243E+01  0.95557449288E+01  0.51790324109E+03  0.52420549815E+03  0.80419002446E+02 0.  0.
<mgrwt>
<rscale>  0 0.81040970E+02</rscale>
<asrwt>0</asrwt>
<pdfrwt beam="1">  1        1 0.16860444E-02 0.81040980E+02</pdfrwt>
<pdfrwt beam="2">  1       -1 0.11251314E+00 0.81040980E+02</pdfrwt>
<totfact> 0.54103046E+03</totfact>
</mgrwt>
</event>
<event>
 4    1  0.1123525E-001  0.9242822E+02  0.7546771E-02  0.1297076E+00
         -3   -1    0    0    0  501 -0.00000000000E+00  0.00000000000E+00  0.12200327886E+03  0.12200327886E+03  0.00000000000E+00 0.  1.
          3   -1    0    0  501    0  0.00000000000E+00 -0.00000000000E+00 -0.10634372873E+03  0.10634372873E+03  0.00000000000E+00 0. -1.
         24    1    1    2    0    0  0.26332304625E+02 -0.37180240258E+02  0.74554925305E+02  0.11874937210E+03  0.80419002446E+02 0.  1.
        -24    1    1    2    0    0 -0.26332304625E+02  0.37180240258E+02 -0.58895375181E+02  0.10959763549E+03  0.80419002446E+02 0. -1.
<mgrwt>
<rscale>  0 0.92428223E+02</rscale>
<asrwt>0</asrwt>
<pdfrwt beam="1">  1        3 0.16360574E-01 0.92428223E+02</pdfrwt>
<pdfrwt beam="2">  1       -3 0.18769735E-01 0.92428223E+02</pdfrwt>
<totfact> 0.17143870E+03</totfact>
</mgrwt>
</event>
<event>
 4    1  0.1123525E-001  0.2083603E+03  0.7546771E-02  0.1142871E+00
          1   -1    0    0  501    0  0.00000000000E+00  0.00000000000E+00  0.81456808259E+03  0.81456808259E+03  0.00000000000E+00 0. -1.
         -1   -1    0    0    0  501 -0.00000000000E+00 -0.00000000000E+00 -0.66276464321E+02  0.66276464321E+02  0.00000000000E+00 0.  1.
         24    1    1    2    0    0  0.11463898055E+03  0.15428770896E+03  0.17924280643E+03  0.27484903603E+03  0.80419002446E+02 0.  1.
        -24    1    1    2    0    0 -0.11463898055E+03 -0.15428770896E+03  0.56904881184E+03  0.60599551088E+03  0.80419002446E+02 0. -1.
<mgrwt>
<rscale>  0 0.20836029E+03</rscale>
<asrwt>0</asrwt>
<pdfrwt beam="1">  1        1 0.12531816E+00 0.20836029E+03</pdfrwt>
<pdfrwt beam="2">  1       -1 0.10196380E-01 0.20836029E+03</pdfrwt>
<totfact> 0.13245748E+03</totfact>
</mgrwt>
</event>
<event>
 4    1  0.1123525E-001  0.1123104E+03  0.7546771E-02  0.1256350E+00
         -2   -1    0    0    0  501 -0.00000000000E+00  0.00000000000E+00  0.30844325152E+02  0.30844325152E+02  0.00000000000E+00 0.  1.
          2   -1    0    0  501    0  0.00000000000E+00 -0.00000000000E+00 -0.98500085342E+03  0.98500085342E+03  0.00000000000E+00 0. -1.
         24    1    1    2    0    0 -0.63829519657E+02  0.45521367967E+02 -0.86550730603E+03  0.87276372247E+03  0.80419002446E+02 0. -1.
        -24    1    1    2    0    0  0.63829519657E+02 -0.45521367967E+02 -0.88649222238E+02  0.14308145610E+03  0.80419002446E+02 0.  1.
<mgrwt>
<rscale>  0 0.11231037E+03</rscale>
<asrwt>0</asrwt>
<pdfrwt beam="1">  1        2 0.15153858E+00 0.11231037E+03</pdfrwt>
<pdfrwt beam="2">  1       -2 0.47452812E-02 0.11231037E+03</pdfrwt>
<totfact> 0.54968915E+03</totfact>
</mgrwt>
</event>
<event>
 4    1  0.1123525E-001  0.1159725E+03  0.7546771E-02  0.1249893E+00
         -1   -1    0    0    0  501 -0.00000000000E+00  0.00000000000E+00  0.78653237969E+02  0.78653237969E+02  0.00000000000E+00 0.  1.
          1   -1    0    0  501    0  0.00000000000E+00 -0.00000000000E+00 -0.18165498647E+03  0.18165498647E+03  0.00000000000E+00 0. -1.
         24    1    1    2    0    0  0.10010873578E+02  0.82958893102E+02 -0.19977363886E+02  0.11768052752E+03  0.80419002446E+02 0.  1.
        -24    1    1    2    0    0 -0.10010873578E+02 -0.82958893102E+02 -0.83024384619E+02  0.14262769693E+03  0.80419002446E+02 0. -1.
<mgrwt>
<rscale>  0 0.11597246E+03</rscale>
<asrwt>0</asrwt>
<pdfrwt beam="1">  1        1 0.27946921E-01 0.11597246E+03</pdfrwt>
<pdfrwt beam="2">  1       -1 0.12100498E-01 0.11597246E+03</pdfrwt>
<totfact> 0.70332285E+03</totfact>
</mgrwt>
</event>
<event>
 4    1  0.1123525E-001  0.1405727E+03  0.7546771E-02  0.1212561E+00
          1   -1    0    0  501    0  0.00000000000E+00  0.00000000000E+00  0.21495687380E+03  0.21495687380E+03  0.00000000000E+00 0. -1.
         -1   -1    0    0    0  501 -0.00000000000E+00 -0.00000000000E+00 -0.10303268458E+03  0.10303268458E+03  0.00000000000E+00 0.  1.
         24    1    1    2    0    0 -0.11047344895E+03  0.33000945764E+02  0.10815828954E+03  0.17736650444E+03  0.80419002446E+02 0. -1.
        -24    1    1    2    0    0  0.11047344895E+03 -0.33000945764E+02  0.37658996759E+01  0.14062305394E+03  0.80419002446E+02 0.  1.
<mgrwt>
<rscale>  0 0.14057264E+03</rscale>
<asrwt>0</asrwt>
<pdfrwt beam="1">  1        1 0.33070288E-01 0.14057265E+03</pdfrwt>
<pdfrwt beam="2">  1       -1 0.15851182E-01 0.14057265E+03</pdfrwt>
<totfact> 0.37953628E+03</totfact>
</mgrwt>
</event>
<event>
 4    1  0.1123525E-001  0.1000007E+03  0.7546771E-02  0.1280294E+00
          2   -1    0    0  501    0  0.00000000000E+00  0.00000000000E+00  0.69969445840E+03  0.69969445840E+03  0.00000000000E+00 0. -1.
         -2   -1    0    0    0  501 -0.00000000000E+00 -0.00000000000E+00 -0.34800215514E+02  0.34800215514E+02  0.00000000000E+00 0.  1.
         24    1    1    2    0    0  0.59311489517E+02  0.38834253095E+01  0.61436970154E+03  0.62245504247E+03  0.80419002446E+02 0. -1.
        -24    1    1    2    0    0 -0.59311489517E+02 -0.38834253095E+01  0.50524541353E+02  0.11203963144E+03  0.80419002446E+02 0.  1.
<mgrwt>
<rscale>  0 0.10000075E+03</rscale>
<asrwt>0</asrwt>
<pdfrwt beam="1">  1        2 0.10764529E+00 0.10000075E+03</pdfrwt>
<pdfrwt beam="2">  1       -2 0.53538798E-02 0.10000075E+03</pdfrwt>
<totfact> 0.70030976E+03</totfact>
</mgrwt>
</event>
<event>
 4    1  0.1123525E-001  0.8139236E+02  0.7546771E-02  0.1325146E+00
         -2   -1    0    0    0  501 -0.00000000000E+00  0.00000000000E+00  0.47595154131E+02  0.47595154131E+02  0.00000000000E+00 0.  1.
          2   -1    0    0  501    0  0.00000000000E+00 -0.00000000000E+00 -0.32346620938E+03  0.32346620938E+03  0.00000000000E+00 0. -1.
         24    1    1    2    0    0 -0.79526613526E+01 -0.97084866784E+01 -0.27797073961E+03  0.28964192992E+03  0.80419002446E+02 0. -1.
        -24    1    1    2    0    0  0.79526613526E+01  0.97084866784E+01  0.20996843651E+01  0.81419433583E+02  0.80419002446E+02 0.  0.
<mgrwt>
<rscale>  0 0.81392355E+02</rscale>
<asrwt>0</asrwt>
<pdfrwt beam="1">  1        2 0.49764033E-01 0.81392355E+02</pdfrwt>
<pdfrwt beam="2">  1       -2 0.73223313E-02 0.81392355E+02</pdfrwt>
<totfact> 0.99315175E+03</totfact>
</mgrwt>
</event>
<event>
 4    1  0.1123525E-001  0.8122274E+02  0.7546771E-02  0.1325617E+00
          2   -1    0    0  501    0  0.00000000000E+00  0.00000000000E+00  0.14618154023E+04  0.14618154023E+04  0.00000000000E+00 0. -1.
         -2   -1    0    0    0  501 -0.00000000000E+00 -0.00000000000E+00 -0.46354788613E+01  0.46354788613E+01  0.00000000000E+00 0.  1.
         24    1    1    2    0    0 -0.29041265714E+01 -0.11021987503E+02  0.84778765235E+03  0.85166955892E+03  0.80419002446E+02 0.  0.
        -24    1    1    2    0    0  0.29041265714E+01  0.11021987503E+02  0.60939227110E+03  0.61478132225E+03  0.80419002446E+02 0. -1.
<mgrwt>
<rscale>  0 0.81222744E+02</rscale>
<asrwt>0</asrwt>
<pdfrwt beam="1">  1        2 0.22489431E+00 0.81222744E+02</pdfrwt>
<pdfrwt beam="2">  1       -2 0.71315176E-03 0.81222744E+02</pdfrwt>
<totfact> 0.45158810E+04</totfact>
</mgrwt>
</event>
<event>
 4    1  0.1123525E-001  0.8379653E+02  0.7546771E-02  0.1318610E+00
         -3   -1    0    0    0  501 -0.00000000000E+00  0.00000000000E+00  0.50537162681E+02  0.50537162681E+02  0.00000000000E+00 0.  1.
          3   -1    0    0  501    0  0.00000000000E+00 -0.00000000000E+00 -0.15190909203E+03  0.15190909203E+03  0.00000000000E+00 0. -1.
         24    1    1    2    0    0  0.17921451348E+02 -0.15279503979E+02 -0.21114805416E+02  0.86415812340E+02  0.80419002446E+02 0.  1.
        -24    1    1    2    0    0 -0.17921451348E+02  0.15279503979E+02 -0.80257123933E+02  0.11603044237E+03  0.80419002446E+02 0. -1.
<mgrwt>
<rscale>  0 0.83796525E+02</rscale>
<asrwt>0</asrwt>
<pdfrwt beam="1">  1        3 0.23370629E-01 0.83796525E+02</pdfrwt>
<pdfrwt beam="2">  1       -3 0.77749482E-02 0.83796525E+02</pdfrwt>
<totfact> 0.39115956E+03</totfact>
</mgrwt>
</event>
<event>
 4    1  0.1123525E-001  0.9771313E+02  0.7546771E-02  0.1285180E+00
         -1   -1    0    0    0  501 -0.00000000000E+00  0.00000000000E+00  0.42501515537E+01  0.42501515537E+01  0.00000000000E+00 0.  1.
          1   -1    0    0  501    0  0.00000000000E+00 -0.00000000000E+00 -0.22748797204E+04  0.22748797204E+04  0.00000000000E+00 0. -1.
         24    1    1    2    0    0  0.23943074903E+02  0.50073643100E+02 -0.10079762191E+04  0.10127012959E+04  0.80419002446E+02 0.  1.
        -24    1    1    2    0    0 -0.23943074903E+02 -0.50073643100E+02 -0.12626533498E+04  0.12664285761E+04  0.80419002446E+02 0. -1.
<mgrwt>
<rscale>  0 0.97713134E+02</rscale>
<asrwt>0</asrwt>
<pdfrwt beam="1">  1        1 0.34998206E+00 0.97713134E+02</pdfrwt>
<pdfrwt beam="2">  1       -1 0.65386841E-03 0.97713134E+02</pdfrwt>
<totfact> 0.75511779E+03</totfact>
</mgrwt>
</event>
<event>
 4    1  0.1123525E-001  0.1133577E+03  0.7546771E-02  0.1254475E+00
          1   -1    0    0  501    0  0.00000000000E+00  0.00000000000E+00  0.29249438621E+04  0.29249438621E+04  0.00000000000E+00 0. -1.
         -1   -1    0    0    0  501 -0.00000000000E+00 -0.00000000000E+00 -0.53624181551E+01  0.53624181551E+01  0.00000000000E+00 0.  1.
         24    1    1    2    0    0  0.37593827119E+02 -0.70494319145E+02  0.83690842531E+03  0.84455057467E+03  0.80419002446E+02 0.  1.
        -24    1    1    2    0    0 -0.37593827119E+02  0.70494319145E+02  0.20826730186E+04  0.20857557055E+04  0.80419002446E+02 0. -1.
<mgrwt>
<rscale>  0 0.11335767E+03</rscale>
<asrwt>0</asrwt>
<pdfrwt beam="1">  1        1 0.44999009E+00 0.11335767E+03</pdfrwt>
<pdfrwt beam="2">  1       -1 0.82498975E-03 0.11335767E+03</pdfrwt>
<totfact> 0.20491519E+03</totfact>
</mgrwt>
</event>
<event>
 4    1  0.1123525E-001  0.1115969E+03  0.7546771E-02  0.1257641E+00
         -2   -1    0    0    0  501 -0.00000000000E+00  0.00000000000E+00  0.21338020584E+02  0.21338020584E+02  0.00000000000E+00 0.  1.
          2   -1    0    0  501    0  0.00000000000E+00 -0.00000000000E+00 -0.11897058337E+04  0.11897058337E+04  0.00000000000E+00 0. -1.
         24    1    1    2    0    0  0.73995021265E+02 -0.22614006529E+02 -0.10163666875E+04  0.10224749952E+04  0.80419002446E+02 0. -1.
        -24    1    1    2    0    0 -0.73995021265E+02  0.22614006529E+02 -0.15200112565E+03  0.18856885909E+03  0.80419002446E+02 0.  1.
<mgrwt>
<rscale>  0 0.11159692E+03</rscale>
<asrwt>0</asrwt>
<pdfrwt beam="1">  1        2 0.18303171E+00 0.11159692E+03</pdfrwt>
<pdfrwt beam="2">  1       -2 0.32827717E-02 0.11159692E+03</pdfrwt>
<totfact> 0.72376316E+03</totfact>
</mgrwt>
</event>
<event>
 4    1  0.1123525E-001  0.1003617E+03  0.7546771E-02  0.1279537E+00
          2   -1    0    0  501    0  0.00000000000E+00  0.00000000000E+00  0.10521666788E+04  0.10521666788E+04  0.00000000000E+00 0. -1.
         -2   -1    0    0    0  501 -0.00000000000E+00 -0.00000000000E+00 -0.82632883621E+02  0.82632883621E+02  0.00000000000E+00 0.  1.
         24    1    1    2    0    0  0.17539683192E+02 -0.57424862396E+02  0.10182884558E+04  0.10232222879E+04  0.80419002446E+02 0. -1.
        -24    1    1    2    0    0 -0.17539683192E+02  0.57424862396E+02 -0.48754660599E+02  0.11157727453E+03  0.80419002446E+02 0.  1.
<mgrwt>
<rscale>  0 0.10036170E+03</rscale>
<asrwt>0</asrwt>
<pdfrwt beam="1">  1        2 0.16187179E+00 0.10036170E+03</pdfrwt>
<pdfrwt beam="2">  1       -2 0.12712752E-01 0.10036170E+03</pdfrwt>
<totfact> 0.11032717E+03</totfact>
</mgrwt>
</event>
<event>
 4    1  0.1123525E-001  0.9650967E+02  0.7546771E-02  0.1287812E+00
          2   -1    0    0  501    0  0.00000000000E+00  0.00000000000E+00  0.57240106402E+02  0.57240106402E+02  0.00000000000E+00 0. -1.
         -2   -1    0    0    0  501 -0.00000000000E+00 -0.00000000000E+00 -0.33302162591E+03  0.33302162591E+03  0.00000000000E+00 0.  1.
         24    1    1    2    0    0 -0.29488149192E+02  0.44467405669E+02  0.16493294343E+01  0.96523765735E+02  0.80419002446E+02 0. -1.
        -24    1    1    2    0    0  0.29488149192E+02 -0.44467405669E+02 -0.27743084894E+03  0.29373796658E+03  0.80419002446E+02 0.  1.
<mgrwt>
<rscale>  0 0.96509673E+02</rscale>
<asrwt>0</asrwt>
<pdfrwt beam="1">  1        2 0.88061703E-02 0.96509673E+02</pdfrwt>
<pdfrwt beam="2">  1       -2 0.51234096E-01 0.96509673E+02</pdfrwt>
<totfact> 0.25875105E+03</totfact>
</mgrwt>
</event>
<event>
 4    1  0.1123525E-001  0.8496240E+02  0.7546771E-02  0.1315531E+00
          1   -1    0    0  501    0  0.00000000000E+00  0.00000000000E+00  0.12293710993E+03  0.12293710993E+03  0.00000000000E+00 0. -1.
         -1   -1    0    0    0  501 -0.00000000000E+00 -0.00000000000E+00 -0.63297323990E+02  0.63297323990E+02  0.00000000000E+00 0.  1.
         24    1    1    2    0    0  0.11822176791E+02  0.24731150947E+02  0.47736572817E+01  0.85096400919E+02  0.80419002446E+02 0.  1.
        -24    1    1    2    0    0 -0.11822176791E+02 -0.24731150947E+02  0.54866128661E+02  0.10113803300E+03  0.80419002446E+02 0. -1.
<mgrwt>
<rscale>  0 0.84962401E+02</rscale>
<asrwt>0</asrwt>
<pdfrwt beam="1">  1        1 0.18913402E-01 0.84962401E+02</pdfrwt>
<pdfrwt beam="2">  1       -1 0.97380498E-02 0.84962401E+02</pdfrwt>
<totfact> 0.15494609E+04</totfact>
</mgrwt>
</event>
<event>
 4    1  0.1123525E-001  0.1490584E+03  0.7546771E-02  0.1201635E+00
          1   -1    0    0  501    0  0.00000000000E+00  0.00000000000E+00  0.45873631508E+03  0.45873631508E+03  0.00000000000E+00 0. -1.
         -1   -1    0    0    0  501 -0.00000000000E+00 -0.00000000000E+00 -0.51590495500E+02  0.51590495500E+02  0.00000000000E+00 0.  1.
         24    1    1    2    0    0 -0.20792120082E+02  0.12376943748E+03  0.14045668001E+03  0.20480840028E+03  0.80419002446E+02 0.  1.
        -24    1    1    2    0    0  0.20792120082E+02 -0.12376943748E+03  0.26668913957E+03  0.30551841030E+03  0.80419002446E+02 0. -1.
<mgrwt>
<rscale>  0 0.14905838E+03</rscale>
<asrwt>0</asrwt>
<pdfrwt beam="1">  1        1 0.70574815E-01 0.14905838E+03</pdfrwt>
<pdfrwt beam="2">  1       -1 0.79369996E-02 0.14905838E+03</pdfrwt>
<totfact> 0.42837070E+03</totfact>
</mgrwt>
</event>
<event>
 4    1  0.1123525E-001  0.8272965E+02  0.7546771E-02  0.1321479E+00
          1   -1    0    0  501    0  0.00000000000E+00  0.00000000000E+00  0.91284131743E+01  0.91284131743E+01  0.00000000000E+00 0. -1.
         -1   -1    0    0    0  501 -0.00000000000E+00 -0.00000000000E+00 -0.84022765731E+03  0.84022765731E+03  0.00000000000E+00 0.  1.
         24    1    1    2    0    0 -0.15258296678E+02  0.12006814393E+02 -0.55489352591E+03  0.56102675538E+03  0.80419002446E+02 0.  1.
        -24    1    1    2    0    0  0.15258296678E+02 -0.12006814393E+02 -0.27620571823E+03  0.28832931510E+03  0.80419002446E+02 0. -1.
<mgrwt>
<rscale>  0 0.82729651E+02</rscale>
<asrwt>0</asrwt>
<pdfrwt beam="1">  1        1 0.14043717E-02 0.82729651E+02</pdfrwt>
<pdfrwt beam="2">  1       -1 0.12926575E+00 0.82729651E+02</pdfrwt>
<totfact> 0.50488291E+03</totfact>
</mgrwt>
</event>
<event>
 4    1  0.1123525E-001  0.1500002E+03  0.7546771E-02  0.1200473E+00
          2   -1    0    0  501    0  0.00000000000E+00  0.00000000000E+00  0.18631845032E+03  0.18631845032E+03  0.00000000000E+00 0. -1.
         -2   -1    0    0    0  501 -0.00000000000E+00 -0.00000000000E+00 -0.13878913144E+03  0.13878913144E+03  0.00000000000E+00 0.  1.
         24    1    1    2    0    0 -0.48530904796E+02 -0.11695128075E+03  0.82350217332E+02  0.17111874544E+03  0.80419002446E+02 0. -1.
        -24    1    1    2    0    0  0.48530904796E+02  0.11695128075E+03 -0.34820898444E+02  0.15398883633E+03  0.80419002446E+02 0.  0.
<mgrwt>
<rscale>  0 0.15000022E+03</rscale>
<asrwt>0</asrwt>
<pdfrwt beam="1">  1        2 0.28664377E-01 0.15000022E+03</pdfrwt>
<pdfrwt beam="2">  1       -2 0.21352174E-01 0.15000022E+03</pdfrwt>
<totfact> 0.33528856E+03</totfact>
</mgrwt>
</event>
<event>
 4    1  0.1123525E-001  0.1062690E+03  0.7546771E-02  0.1267639E+00
          1   -1    0    0  501    0  0.00000000000E+00  0.00000000000E+00  0.12211267258E+03  0.12211267258E+03  0.00000000000E+00 0. -1.
         -1   -1    0    0    0  501 -0.00000000000E+00 -0.00000000000E+00 -0.22705077568E+03  0.22705077568E+03  0.00000000000E+00 0.  1.
         24    1    1    2    0    0  0.12419868584E+02 -0.68349393887E+02 -0.18687266949E+03  0.21497558777E+03  0.80419002446E+02 0.  1.
        -24    1    1    2    0    0 -0.12419868584E+02  0.68349393887E+02  0.81934566388E+02  0.13418786049E+03  0.80419002446E+02 0. -1.
<mgrwt>
<rscale>  0 0.10626904E+03</rscale>
<asrwt>0</asrwt>
<pdfrwt beam="1">  1        1 0.18786565E-01 0.10626904E+03</pdfrwt>
<pdfrwt beam="2">  1       -1 0.34930888E-01 0.10626904E+03</pdfrwt>
<totfact> 0.20935295E+03</totfact>
</mgrwt>
</event>
<event>
 4    1  0.1123525E-001  0.9543514E+02  0.7546771E-02  0.1290199E+00
         -2   -1    0    0    0  501 -0.00000000000E+00  0.00000000000E+00  0.86312429196E+01  0.86312429196E+01  0.00000000000E+00 0.  1.
          2   -1    0    0  501    0  0.00000000000E+00 -0.00000000000E+00 -0.10568858529E+04  0.10568858529E+04  0.00000000000E+00 0. -1.
         24    1    1    2    0    0  0.13771603757E+01 -0.51368797781E+02 -0.54527425516E+03  0.55356289548E+03  0.80419002446E+02 0.  1.
        -24    1    1    2    0    0 -0.13771603757E+01  0.51368797781E+02 -0.50298035478E+03  0.51195420030E+03  0.80419002446E+02 0. -1.
<mgrwt>
<rscale>  0 0.95435140E+02</rscale>
<asrwt>0</asrwt>
<pdfrwt beam="1">  1        2 0.16259775E+00 0.95435140E+02</pdfrwt>
<pdfrwt beam="2">  1       -2 0.13278841E-02 0.95435140E+02</pdfrwt>
<totfact> 0.31397304E+04</totfact>
</mgrwt>
</event>
<event>
 4    1  0.1123525E-001  0.1237052E+03  0.7546771E-02  0.1237107E+00
         -2   -1    0    0    0  501 -0.00000000000E+00  0.00000000000E+00  0.97707538353E+02  0.97707538353E+02  0.00000000000E+00 0.  1.
          2   -1    0    0  501    0  0.00000000000E+00 -0.00000000000E+00 -0.65988287335E+03  0.65988287335E+03  0.00000000000E+00 0. -1.
         24    1    1    2    0    0 -0.66073578706E+01 -0.93766267753E+02 -0.61188983993E+03  0.62426930271E+03  0.80419002446E+02 0. -1.
        -24    1    1    2    0    0  0.66073578706E+01  0.93766267753E+02  0.49714504935E+02  0.13332110899E+03  0.80419002446E+02 0.  1.
<mgrwt>
<rscale>  0 0.12370524E+03</rscale>
<asrwt>0</asrwt>
<pdfrwt beam="1">  1        2 0.10152044E+00 0.12370524E+03</pdfrwt>
<pdfrwt beam="2">  1       -2 0.15031929E-01 0.12370524E+03</pdfrwt>
<totfact> 0.15203906E+03</totfact>
</mgrwt>
</event>
<event>
 4    1  0.1123525E-001  0.1123009E+03  0.7546771E-02  0.1256367E+00
          1   -1    0    0  501    0  0.00000000000E+00  0.00000000000E+00  0.57199395661E+02  0.57199395661E+02  0.00000000000E+00 0. -1.
         -1   -1    0    0    0  501 -0.00000000000E+00 -0.00000000000E+00 -0.76777840348E+03  0.76777840348E+03  0.00000000000E+00 0.  1.
         24    1    1    2    0    0 -0.67537919915E+02 -0.39785678121E+02 -0.70355084884E+03  0.71245721532E+03  0.80419002446E+02 0.  1.
        -24    1    1    2    0    0  0.67537919915E+02  0.39785678121E+02 -0.70281589824E+01  0.11252058382E+03  0.80419002446E+02 0. -1.
<mgrwt>
<rscale>  0 0.11230088E+03</rscale>
<asrwt>0</asrwt>
<pdfrwt beam="1">  1        1 0.87999069E-02 0.11230088E+03</pdfrwt>
<pdfrwt beam="2">  1       -1 0.11811976E+00 0.11230088E+03</pdfrwt>
<totfact> 0.52108694E+02</totfact>
</mgrwt>
</event>
<event>
 4    1  0.1123525E-001  0.2457531E+03  0.7546771E-02  0.1116019E+00
         -2   -1    0    0    0  501 -0.00000000000E+00  0.00000000000E+00  0.10166508932E+03  0.10166508932E+03  0.00000000000E+00 0.  1.
          2   -1    0    0  501    0  0.00000000000E+00 -0.00000000000E+00 -0.19821680210E+04  0.19821680210E+04  0.00000000000E+00 0. -1.
         24    1    1    2    0    0  0.19454121699E+03 -0.12681118944E+03 -0.18121686494E+04  0.18287563513E+04  0.80419002446E+02 0. -1.
        -24    1    1    2    0    0 -0.19454121699E+03  0.12681118944E+03 -0.68334282298E+02  0.25507675897E+03  0.80419002446E+02 0.  1.
<mgrwt>
<rscale>  0 0.24575309E+03</rscale>
<asrwt>0</asrwt>
<pdfrwt beam="1">  1        2 0.30494896E+00 0.24575309E+03</pdfrwt>
<pdfrwt beam="2">  1       -2 0.15640781E-01 0.24575309E+03</pdfrwt>
<totfact> 0.24501348E+02</totfact>
</mgrwt>
</event>
<event>
 4    1  0.1123525E-001  0.1115918E+03  0.7546771E-02  0.1257650E+00
          1   -1    0    0  501    0  0.00000000000E+00  0.00000000000E+00  0.15926414310E+03  0.15926414310E+03  0.00000000000E+00 0. -1.
         -1   -1    0    0    0  501 -0.00000000000E+00 -0.00000000000E+00 -0.80704836109E+02  0.80704836109E+02  0.00000000000E+00 0.  1.
         24    1    1    2    0    0  0.28942206344E+02  0.71748615469E+02  0.18095950976E+02  0.11304952245E+03  0.80419002446E+02 0.  1.
        -24    1    1    2    0    0 -0.28942206344E+02 -0.71748615469E+02  0.60463356018E+02  0.12691945676E+03  0.80419002446E+02 0. -1.
<mgrwt>
<rscale>  0 0.11159181E+03</rscale>
<asrwt>0</asrwt>
<pdfrwt beam="1">  1        1 0.24502176E-01 0.11159181E+03</pdfrwt>
<pdfrwt beam="2">  1       -1 0.12416129E-01 0.11159181E+03</pdfrwt>
<totfact> 0.79405998E+03</totfact>
</mgrwt>
</event>
<event>
 4    1  0.1123525E-001  0.9820926E+02  0.7546771E-02  0.1284107E+00
         -2   -1    0    0    0  501 -0.00000000000E+00  0.00000000000E+00  0.10048745177E+02  0.10048745177E+02  0.00000000000E+00 0.  1.
          2   -1    0    0  501    0  0.00000000000E+00 -0.00000000000E+00 -0.10416254169E+04  0.10416254169E+04  0.00000000000E+00 0. -1.
         24    1    1    2    0    0  0.37807631081E+02 -0.41814193397E+02 -0.66314410570E+03  0.67037688252E+03  0.80419002446E+02 0. -1.
        -24    1    1    2    0    0 -0.37807631081E+02  0.41814193397E+02 -0.36843256604E+03  0.38129727957E+03  0.80419002446E+02 0.  1.
<mgrwt>
<rscale>  0 0.98209265E+02</rscale>
<asrwt>0</asrwt>
<pdfrwt beam="1">  1        2 0.16025009E+00 0.98209265E+02</pdfrwt>
<pdfrwt beam="2">  1       -2 0.15459606E-02 0.98209265E+02</pdfrwt>
<totfact> 0.25853510E+04</totfact>
</mgrwt>
</event>
<event>
 4    1  0.1123525E-001  0.9811823E+02  0.7546771E-02  0.1284304E+00
          2   -1    0    0  501    0  0.00000000000E+00  0.00000000000E+00  0.15299788050E+04  0.15299788050E+04  0.00000000000E+00 0. -1.
         -2   -1    0    0    0  501 -0.00000000000E+00 -0.00000000000E+00 -0.22078514495E+02  0.22078514495E+02  0.00000000000E+00 0.  1.
         24    1    1    2    0    0  0.55200852914E+02  0.10622479694E+02  0.14101421319E+04  0.14135515623E+04  0.80419002446E+02 0. -1.
        -24    1    1    2    0    0 -0.55200852914E+02 -0.10622479694E+02  0.97758158561E+02  0.13850575713E+03  0.80419002446E+02 0.  1.
<mgrwt>
<rscale>  0 0.98118231E+02</rscale>
<asrwt>0</asrwt>
<pdfrwt beam="1">  1        2 0.23538127E+00 0.98118231E+02</pdfrwt>
<pdfrwt beam="2">  1       -2 0.33966957E-02 0.98118231E+02</pdfrwt>
<totfact> 0.45324058E+03</totfact>
</mgrwt>
</event>
<event>
 4    1  0.1123525E-001  0.8369826E+02  0.7546771E-02  0.1318872E+00
         -2   -1    0    0    0  501 -0.00000000000E+00  0.00000000000E+00  0.16380220887E+02  0.16380220887E+02  0.00000000000E+00 0.  1.
          2   -1    0    0  501    0  0.00000000000E+00 -0.00000000000E+00 -0.50390310594E+03  0.50390310594E+03  0.00000000000E+00 0. -1.
         24    1    1    2    0    0  0.22318576725E+02 -0.63296361712E+01 -0.34494175609E+03  0.35495100254E+03  0.80419002446E+02 0. -1.
        -24    1    1    2    0    0 -0.22318576725E+02  0.63296361712E+01 -0.14258112897E+03  0.16533232428E+03  0.80419002446E+02 0.  1.
<mgrwt>
<rscale>  0 0.83698262E+02</rscale>
<asrwt>0</asrwt>
<pdfrwt beam="1">  1        2 0.77523542E-01 0.83698262E+02</pdfrwt>
<pdfrwt beam="2">  1       -2 0.25200344E-02 0.83698262E+02</pdfrwt>
<totfact> 0.30060811E+04</totfact>
</mgrwt>
</event>
<event>
 4    1  0.1123525E-001  0.8564995E+02  0.7546771E-02  0.1313742E+00
         -1   -1    0    0    0  501 -0.00000000000E+00  0.00000000000E+00  0.99726779551E+02  0.99726779551E+02  0.00000000000E+00 0.  1.
          1   -1    0    0  501    0  0.00000000000E+00 -0.00000000000E+00 -0.75982694032E+02  0.75982694032E+02  0.00000000000E+00 0. -1.
         24    1    1    2    0    0 -0.27254127014E+02  0.11220955679E+02  0.27559296958E+02  0.89974596908E+02  0.80419002446E+02 0.  1.
        -24    1    1    2    0    0  0.27254127014E+02 -0.11220955679E+02 -0.38152114390E+01  0.85734876674E+02  0.80419002446E+02 0. -1.
<mgrwt>
<rscale>  0 0.85649946E+02</rscale>
<asrwt>0</asrwt>
<pdfrwt beam="1">  1        1 0.11689645E-01 0.85649946E+02</pdfrwt>
<pdfrwt beam="2">  1       -1 0.15342582E-01 0.85649946E+02</pdfrwt>
<totfact> 0.14323204E+04</totfact>
</mgrwt>
</event>
<event>
 4    1  0.1123525E-001  0.8939347E+02  0.7546771E-02  0.1304327E+00
          1   -1    0    0  501    0  0.00000000000E+00  0.00000000000E+00  0.17252738784E+04  0.17252738784E+04  0.00000000000E+00 0. -1.
         -1   -1    0    0    0  501 -0.00000000000E+00 -0.00000000000E+00 -0.64005003451E+01  0.64005003451E+01  0.00000000000E+00 0.  1.
         24    1    1    2    0    0  0.35914518680E+02 -0.15301112351E+02  0.40428989676E+03  0.41405496406E+03  0.80419002446E+02 0.  1.
        -24    1    1    2    0    0 -0.35914518680E+02  0.15301112351E+02  0.13145834813E+04  0.13176194147E+04  0.80419002446E+02 0. -1.
<mgrwt>
<rscale>  0 0.89393471E+02</rscale>
<asrwt>0</asrwt>
<pdfrwt beam="1">  1        1 0.26542638E+00 0.89393471E+02</pdfrwt>
<pdfrwt beam="2">  1       -1 0.98469374E-03 0.89393471E+02</pdfrwt>
<totfact> 0.93652137E+03</totfact>
</mgrwt>
</event>
<event>
 4    1  0.1123525E-001  0.1049865E+03  0.7546771E-02  0.1270146E+00
          2   -1    0    0  501    0  0.00000000000E+00  0.00000000000E+00  0.16176764864E+03  0.16176764864E+03  0.00000000000E+00 0. -1.
         -2   -1    0    0    0  501 -0.00000000000E+00 -0.00000000000E+00 -0.81072608111E+02  0.81072608111E+02  0.00000000000E+00 0.  1.
         24    1    1    2    0    0 -0.52488518241E+02  0.42425124153E+02 -0.81555125312E+01  0.10530272573E+03  0.80419002446E+02 0.  0.
        -24    1    1    2    0    0  0.52488518241E+02 -0.42425124153E+02  0.88850553058E+02  0.13753753102E+03  0.80419002446E+02 0.  1.
<mgrwt>
<rscale>  0 0.10498645E+03</rscale>
<asrwt>0</asrwt>
<pdfrwt beam="1">  1        2 0.24887331E-01 0.10498646E+03</pdfrwt>
<pdfrwt beam="2">  1       -2 0.12472709E-01 0.10498646E+03</pdfrwt>
<totfact> 0.92670288E+03</totfact>
</mgrwt>
</event>
<event>
 4    1  0.1123525E-001  0.8389234E+02  0.7546771E-02  0.1318355E+00
         -4   -1    0    0    0  501 -0.00000000000E+00  0.00000000000E+00  0.92519104683E+02  0.92519104683E+02  0.00000000000E+00 0.  1.
          4   -1    0    0  501    0  0.00000000000E+00 -0.00000000000E+00 -0.18590561989E+03  0.18590561989E+03  0.00000000000E+00 0. -1.
         24    1    1    2    0    0 -0.17198826971E+02 -0.16580365061E+02 -0.15369805176E+03  0.17510287040E+03  0.80419002446E+02 0. -1.
        -24    1    1    2    0    0  0.17198826971E+02  0.16580365061E+02  0.60311536548E+02  0.10332185417E+03  0.80419002446E+02 0.  1.
<mgrwt>
<rscale>  0 0.83892336E+02</rscale>
<asrwt>0</asrwt>
<pdfrwt beam="1">  1        4 0.28600865E-01 0.83892336E+02</pdfrwt>
<pdfrwt beam="2">  1       -4 0.14233708E-01 0.83892336E+02</pdfrwt>
<totfact> 0.71369586E+02</totfact>
</mgrwt>
</event>
<event>
 4    1  0.1123525E-001  0.8352981E+02  0.7546771E-02  0.1319323E+00
          4   -1    0    0  501    0  0.00000000000E+00  0.00000000000E+00  0.18075876346E+02  0.18075876346E+02  0.00000000000E+00 0. -1.
         -4   -1    0    0    0  501 -0.00000000000E+00 -0.00000000000E+00 -0.84189814825E+03  0.84189814825E+03  0.00000000000E+00 0.  1.
         24    1    1    2    0    0 -0.16545570466E+02  0.15370663308E+02 -0.95493244012E+02  0.12687075628E+03  0.80419002446E+02 0.  0.
        -24    1    1    2    0    0  0.16545570466E+02 -0.15370663308E+02 -0.72832902789E+03  0.73310326831E+03  0.80419002446E+02 0.  1.
<mgrwt>
<rscale>  0 0.83529810E+02</rscale>
<asrwt>0</asrwt>
<pdfrwt beam="1">  1        4 0.27809028E-02 0.83529810E+02</pdfrwt>
<pdfrwt beam="2">  1       -4 0.12952285E+00 0.83529810E+02</pdfrwt>
<totfact> 0.42101806E+02</totfact>
</mgrwt>
</event>
<event>
 4    1  0.1123525E-001  0.8564092E+02  0.7546771E-02  0.1313765E+00
          1   -1    0    0  501    0  0.00000000000E+00  0.00000000000E+00  0.24761729616E+04  0.24761729616E+04  0.00000000000E+00 0. -1.
         -1   -1    0    0    0  501 -0.00000000000E+00 -0.00000000000E+00 -0.47519078106E+01  0.47519078106E+01  0.00000000000E+00 0.  1.
         24    1    1    2    0    0  0.19314431318E+02  0.22228463068E+02  0.47438969253E+03  0.48205803401E+03  0.80419002446E+02 0.  0.
        -24    1    1    2    0    0 -0.19314431318E+02 -0.22228463068E+02  0.19970313613E+04  0.19988668354E+04  0.80419002446E+02 0. -1.
<mgrwt>
<rscale>  0 0.85640924E+02</rscale>
<asrwt>0</asrwt>
<pdfrwt beam="1">  1        1 0.38094866E+00 0.85640924E+02</pdfrwt>
<pdfrwt beam="2">  1       -1 0.73106472E-03 0.85640924E+02</pdfrwt>
<totfact> 0.47830547E+03</totfact>
</mgrwt>
</event>
<event>
 4    1  0.1123525E-001  0.8835983E+02  0.7546771E-02  0.1306873E+00
         -2   -1    0    0    0  501 -0.00000000000E+00  0.00000000000E+00  0.90871812617E+02  0.90871812617E+02  0.00000000000E+00 0.  1.
          2   -1    0    0  501    0  0.00000000000E+00 -0.00000000000E+00 -0.11417208971E+03  0.11417208971E+03  0.00000000000E+00 0. -1.
         24    1    1    2    0    0  0.21266332164E+01 -0.36547529411E+02 -0.62651639543E+02  0.10831753490E+03  0.80419002446E+02 0. -1.
        -24    1    1    2    0    0 -0.21266332164E+01  0.36547529411E+02  0.39351362449E+02  0.96726367428E+02  0.80419002446E+02 0.  1.
<mgrwt>
<rscale>  0 0.88359835E+02</rscale>
<asrwt>0</asrwt>
<pdfrwt beam="1">  1        2 0.17564937E-01 0.88359835E+02</pdfrwt>
<pdfrwt beam="2">  1       -2 0.13980279E-01 0.88359835E+02</pdfrwt>
<totfact> 0.11205694E+04</totfact>
</mgrwt>
</event>
<event>
 4    1  0.1129315E-001  0.8871862E+02  0.7546771E-02  0.1305985E+00
         -1   -1    0    0    0  501 -0.00000000000E+00  0.00000000000E+00  0.12255776255E+02  0.12255776255E+02  0.00000000000E+00 0.  1.
          1   -1    0    0  501    0  0.00000000000E+00 -0.00000000000E+00 -0.11349484093E+04  0.11349484093E+04  0.00000000000E+00 0. -1.
         24    1    1    2    0    0  0.29078555847E+02 -0.23626586532E+02 -0.18340597053E+03  0.20373694800E+03  0.80419002446E+02 0.  1.
        -24    1    1    2    0    0 -0.29078555847E+02  0.23626586532E+02 -0.93928666252E+03  0.94346723756E+03  0.80419002446E+02 0. -1.
<mgrwt>
<rscale>  0 0.88718622E+02</rscale>
<asrwt>0</asrwt>
<pdfrwt beam="1">  1        1 0.17460740E+00 0.88718622E+02</pdfrwt>
<pdfrwt beam="2">  1       -1 0.18855046E-02 0.88718622E+02</pdfrwt>
<totfact> 0.89932819E+03</totfact>
</mgrwt>
</event>
<event>
 4    1  0.1123525E-001  0.1316737E+03  0.7546771E-02  0.1224993E+00
          1   -1    0    0  501    0  0.00000000000E+00  0.00000000000E+00  0.18886191212E+03  0.18886191212E+03  0.00000000000E+00 0. -1.
         -1   -1    0    0    0  501 -0.00000000000E+00 -0.00000000000E+00 -0.17108781475E+03  0.17108781475E+03  0.00000000000E+00 0.  1.
         24    1    1    2    0    0  0.10269405478E+03 -0.18019065110E+02 -0.11363070919E+03  0.17392501148E+03  0.80419002446E+02 0.  1.
        -24    1    1    2    0    0 -0.10269405478E+03  0.18019065110E+02  0.13140480655E+03  0.18602471538E+03  0.80419002446E+02 0. -1.
<mgrwt>
<rscale>  0 0.13167373E+03</rscale>
<asrwt>0</asrwt>
<pdfrwt beam="1">  1        1 0.29055679E-01 0.13167373E+03</pdfrwt>
<pdfrwt beam="2">  1       -1 0.26321202E-01 0.13167373E+03</pdfrwt>
<totfact> 0.19642927E+03</totfact>
</mgrwt>
</event>
<event>
 4    1  0.1123525E-001  0.8346829E+02  0.7546771E-02  0.1319487E+00
         -2   -1    0    0    0  501 -0.00000000000E+00  0.00000000000E+00  0.91254053723E+02  0.91254053723E+02  0.00000000000E+00 0.  1.
          2   -1    0    0  501    0  0.00000000000E+00 -0.00000000000E+00 -0.92489065479E+02  0.92489065479E+02  0.00000000000E+00 0. -1.
         24    1    1    2    0    0 -0.21583708427E+01 -0.22250413354E+02 -0.38998663857E+02  0.92129534874E+02  0.80419002446E+02 0. -1.
        -24    1    1    2    0    0  0.21583708427E+01  0.22250413354E+02  0.37763652101E+02  0.91613584328E+02  0.80419002446E+02 0.  1.
<mgrwt>
<rscale>  0 0.83468290E+02</rscale>
<asrwt>0</asrwt>
<pdfrwt beam="1">  1        2 0.14229087E-01 0.83468290E+02</pdfrwt>
<pdfrwt beam="2">  1       -2 0.14039085E-01 0.83468290E+02</pdfrwt>
<totfact> 0.14089215E+04</totfact>
</mgrwt>
</event>
<event>
 4    1  0.1123525E-001  0.8370458E+02  0.7546771E-02  0.1318855E+00
         -2   -1    0    0    0  501 -0.00000000000E+00  0.00000000000E+00  0.20918974783E+03  0.20918974783E+03  0.00000000000E+00 0.  1.
          2   -1    0    0  501    0  0.00000000000E+00 -0.00000000000E+00 -0.55554767862E+02  0.55554767862E+02  0.00000000000E+00 0. -1.
         24    1    1    2    0    0 -0.10679504685E+01 -0.23196988656E+02 -0.65992910651E+01  0.83964322172E+02  0.80419002446E+02 0. -1.
        -24    1    1    2    0    0  0.10679504685E+01  0.23196988656E+02  0.16023427103E+03  0.18078019352E+03  0.80419002446E+02 0.  1.
<mgrwt>
<rscale>  0 0.83704580E+02</rscale>
<asrwt>0</asrwt>
<pdfrwt beam="1">  1        2 0.85468875E-02 0.83704580E+02</pdfrwt>
<pdfrwt beam="2">  1       -2 0.32183038E-01 0.83704580E+02</pdfrwt>
<totfact> 0.63714041E+03</totfact>
</mgrwt>
</event>
<event>
 4    1  0.1356481E-001  0.1323692E+03  0.7546771E-02  0.1223982E+00
         -1   -1    0    0    0  501 -0.00000000000E+00  0.00000000000E+00  0.74220755383E+03  0.74220755383E+03  0.00000000000E+00 0.  1.
          1   -1    0    0  501    0  0.00000000000E+00 -0.00000000000E+00 -0.18027234554E+03  0.18027234554E+03  0.00000000000E+00 0. -1.
         24    1    1    2    0    0  0.88772438789E+02  0.56336909780E+02  0.71094759151E+03  0.72316532489E+03  0.80419002446E+02 0.  1.
        -24    1    1    2    0    0 -0.88772438789E+02 -0.56336909780E+02 -0.14901238322E+03  0.19931457448E+03  0.80419002446E+02 0. -1.
<mgrwt>
<rscale>  0 0.13236922E+03</rscale>
<asrwt>0</asrwt>
<pdfrwt beam="1">  1        1 0.27734207E-01 0.13236922E+03</pdfrwt>
<pdfrwt beam="2">  1       -1 0.11418578E+00 0.13236922E+03</pdfrwt>
<totfact> 0.12842289E+02</totfact>
</mgrwt>
</event>
<event>
 4    1  0.1123525E-001  0.9625896E+02  0.7546771E-02  0.1288366E+00
         -1   -1    0    0    0  501 -0.00000000000E+00  0.00000000000E+00  0.22548904041E+02  0.22548904041E+02  0.00000000000E+00 0.  1.
          1   -1    0    0  501    0  0.00000000000E+00 -0.00000000000E+00 -0.50625480721E+03  0.50625480721E+03  0.00000000000E+00 0. -1.
         24    1    1    2    0    0  0.42196646710E+02  0.31906334651E+02 -0.12711514994E+03  0.15944920346E+03  0.80419002446E+02 0.  1.
        -24    1    1    2    0    0 -0.42196646710E+02 -0.31906334651E+02 -0.35659075322E+03  0.36935450779E+03  0.80419002446E+02 0. -1.
<mgrwt>
<rscale>  0 0.96258959E+02</rscale>
<asrwt>0</asrwt>
<pdfrwt beam="1">  1        1 0.77885342E-01 0.96258959E+02</pdfrwt>
<pdfrwt beam="2">  1       -1 0.34690628E-02 0.96258959E+02</pdfrwt>
<totfact> 0.12455991E+04</totfact>
</mgrwt>
</event>
<event>
 4    1  0.1123525E-001  0.1142919E+03  0.7546771E-02  0.1252822E+00
         -2   -1    0    0    0  501 -0.00000000000E+00  0.00000000000E+00  0.28035616802E+02  0.28035616802E+02  0.00000000000E+00 0.  1.
          2   -1    0    0  501    0  0.00000000000E+00 -0.00000000000E+00 -0.76972054092E+03  0.76972054092E+03  0.00000000000E+00 0. -1.
         24    1    1    2    0    0 -0.23411965759E+02  0.77764416846E+02 -0.62143065821E+03  0.63185338773E+03  0.80419002446E+02 0. -1.
        -24    1    1    2    0    0  0.23411965759E+02 -0.77764416846E+02 -0.12025426591E+03  0.16590277000E+03  0.80419002446E+02 0.  1.
<mgrwt>
<rscale>  0 0.11429191E+03</rscale>
<asrwt>0</asrwt>
<pdfrwt beam="1">  1        2 0.11841856E+00 0.11429191E+03</pdfrwt>
<pdfrwt beam="2">  1       -2 0.43131714E-02 0.11429191E+03</pdfrwt>
<totfact> 0.86948586E+03</totfact>
</mgrwt>
</event>
<event>
 4    1  0.1123525E-001  0.8648165E+02  0.7546771E-02  0.1311603E+00
         -3   -1    0    0    0  501 -0.00000000000E+00  0.00000000000E+00  0.88259104803E+02  0.88259104803E+02  0.00000000000E+00 0.  1.
          3   -1    0    0  501    0  0.00000000000E+00 -0.00000000000E+00 -0.85390685150E+02  0.85390685150E+02  0.00000000000E+00 0. -1.
         24    1    1    2    0    0  0.23541031331E+02  0.21393377198E+02 -0.61452628913E+01  0.86699694085E+02  0.80419002446E+02 0.  0.
        -24    1    1    2    0    0 -0.23541031331E+02 -0.21393377198E+02  0.90136825440E+01  0.86950095868E+02  0.80419002446E+02 0.  0.
<mgrwt>
<rscale>  0 0.86481643E+02</rscale>
<asrwt>0</asrwt>
<pdfrwt beam="1">  1        3 0.13137028E-01 0.86481654E+02</pdfrwt>
<pdfrwt beam="2">  1       -3 0.13578324E-01 0.86481654E+02</pdfrwt>
<totfact> 0.42523615E+03</totfact>
</mgrwt>
</event>
<event>
 4    1  0.1123525E-001  0.8396414E+02  0.7546771E-02  0.1318164E+00
         -2   -1    0    0    0  501 -0.00000000000E+00  0.00000000000E+00  0.11412321238E+03  0.11412321238E+03  0.00000000000E+00 0.  1.
          2   -1    0    0  501    0  0.00000000000E+00 -0.00000000000E+00 -0.10160133750E+03  0.10160133750E+03  0.00000000000E+00 0. -1.
         24    1    1    2    0    0 -0.20649460737E+02  0.12504444121E+02 -0.61270235086E+02  0.10394238314E+03  0.80419002446E+02 0.  0.
        -24    1    1    2    0    0  0.20649460737E+02 -0.12504444121E+02  0.73792109968E+02  0.11178216673E+03  0.80419002446E+02 0.  1.
<mgrwt>
<rscale>  0 0.83964143E+02</rscale>
<asrwt>0</asrwt>
<pdfrwt beam="1">  1        2 0.15630975E-01 0.83964143E+02</pdfrwt>
<pdfrwt beam="2">  1       -2 0.17557417E-01 0.83964143E+02</pdfrwt>
<totfact> 0.87989246E+03</totfact>
</mgrwt>
</event>
<event>
 4    1  0.1123525E-001  0.1023563E+03  0.7546771E-02  0.1275418E+00
         -4   -1    0    0    0  501 -0.00000000000E+00  0.00000000000E+00  0.35679984084E+03  0.35679984084E+03  0.00000000000E+00 0.  1.
          4   -1    0    0  501    0  0.00000000000E+00 -0.00000000000E+00 -0.31089069589E+02  0.31089069589E+02  0.00000000000E+00 0. -1.
         24    1    1    2    0    0  0.20173273745E+02  0.60022005160E+02  0.11716068085E+03  0.15557455823E+03  0.80419002446E+02 0. -1.
        -24    1    1    2    0    0 -0.20173273745E+02 -0.60022005160E+02  0.20855009040E+03  0.23231435220E+03  0.80419002446E+02 0.  1.
<mgrwt>
<rscale>  0 0.10235633E+03</rscale>
<asrwt>0</asrwt>
<pdfrwt beam="1">  1        4 0.47829340E-02 0.10235633E+03</pdfrwt>
<pdfrwt beam="2">  1       -4 0.54892280E-01 0.10235633E+03</pdfrwt>
<totfact> 0.12690520E+03</totfact>
</mgrwt>
</event>
<event>
 4    1  0.1123525E-001  0.9526230E+02  0.7546771E-02  0.1290586E+00
         -2   -1    0    0    0  501 -0.00000000000E+00  0.00000000000E+00  0.53734682596E+02  0.53734682596E+02  0.00000000000E+00 0.  1.
          2   -1    0    0  501    0  0.00000000000E+00 -0.00000000000E+00 -0.23224792104E+03  0.23224792104E+03  0.00000000000E+00 0. -1.
         24    1    1    2    0    0 -0.41136372198E+02 -0.30257048280E+02 -0.16394553130E+03  0.18961287740E+03  0.80419002446E+02 0. -1.
        -24    1    1    2    0    0  0.41136372198E+02  0.30257048280E+02 -0.14567707140E+02  0.96369726231E+02  0.80419002446E+02 0.  1.
<mgrwt>
<rscale>  0 0.95262301E+02</rscale>
<asrwt>0</asrwt>
<pdfrwt beam="1">  1        2 0.35730449E-01 0.95262301E+02</pdfrwt>
<pdfrwt beam="2">  1       -2 0.82668744E-02 0.95262301E+02</pdfrwt>
<totfact> 0.11843012E+04</totfact>
</mgrwt>
</event>
<event>
 4    1  0.1123525E-001  0.8330327E+02  0.7546771E-02  0.1319930E+00
          1   -1    0    0  501    0  0.00000000000E+00  0.00000000000E+00  0.32341325705E+03  0.32341325705E+03  0.00000000000E+00 0. -1.
         -1   -1    0    0    0  501 -0.00000000000E+00 -0.00000000000E+00 -0.21474775498E+02  0.21474775498E+02  0.00000000000E+00 0.  1.
         24    1    1    2    0    0 -0.17369331695E+02 -0.13058532373E+02  0.14598927886E+03  0.16808421832E+03  0.80419002446E+02 0.  1.
        -24    1    1    2    0    0  0.17369331695E+02  0.13058532373E+02  0.15594920268E+03  0.17680381422E+03  0.80419002446E+02 0. -1.
<mgrwt>
<rscale>  0 0.83303271E+02</rscale>
<asrwt>0</asrwt>
<pdfrwt beam="1">  1        1 0.49755882E-01 0.83303271E+02</pdfrwt>
<pdfrwt beam="2">  1       -1 0.33038119E-02 0.83303271E+02</pdfrwt>
<totfact> 0.23044927E+04</totfact>
</mgrwt>
</event>
<event>
 4    1  0.1123525E-001  0.9980819E+02  0.7546771E-02  0.1280700E+00
         -1   -1    0    0    0  501 -0.00000000000E+00  0.00000000000E+00  0.41195366435E+02  0.41195366435E+02  0.00000000000E+00 0.  1.
          1   -1    0    0  501    0  0.00000000000E+00 -0.00000000000E+00 -0.40120600626E+03  0.40120600626E+03  0.00000000000E+00 0. -1.
         24    1    1    2    0    0  0.31416311944E+02  0.50074687182E+02 -0.40582427287E+02  0.10774325181E+03  0.80419002446E+02 0.  1.
        -24    1    1    2    0    0 -0.31416311944E+02 -0.50074687182E+02 -0.31942821254E+03  0.33465812088E+03  0.80419002446E+02 0. -1.
<mgrwt>
<rscale>  0 0.99808191E+02</rscale>
<asrwt>0</asrwt>
<pdfrwt beam="1">  1        1 0.61724002E-01 0.99808191E+02</pdfrwt>
<pdfrwt beam="2">  1       -1 0.63377486E-02 0.99808191E+02</pdfrwt>
<totfact> 0.69421753E+03</totfact>
</mgrwt>
</event>
<event>
 4    1  0.1123525E-001  0.1047006E+03  0.7546771E-02  0.1270711E+00
          1   -1    0    0  501    0  0.00000000000E+00  0.00000000000E+00  0.36588191687E+02  0.36588191687E+02  0.00000000000E+00 0. -1.
         -1   -1    0    0    0  501 -0.00000000000E+00 -0.00000000000E+00 -0.31906916363E+03  0.31906916363E+03  0.00000000000E+00 0.  1.
         24    1    1    2    0    0 -0.25569469114E+02 -0.61977481267E+02 -0.18515531182E+03  0.21270804260E+03  0.80419002446E+02 0.  1.
        -24    1    1    2    0    0  0.25569469114E+02  0.61977481267E+02 -0.97325660122E+02  0.14294931272E+03  0.80419002446E+02 0. -1.
<mgrwt>
<rscale>  0 0.10470063E+03</rscale>
<asrwt>0</asrwt>
<pdfrwt beam="1">  1        1 0.56289524E-02 0.10470063E+03</pdfrwt>
<pdfrwt beam="2">  1       -1 0.49087565E-01 0.10470063E+03</pdfrwt>
<totfact> 0.56004742E+03</totfact>
</mgrwt>
</event>
<event>
 4    1  0.1123525E-001  0.9099748E+02  0.7546771E-02  0.1300454E+00
          2   -1    0    0  501    0  0.00000000000E+00  0.00000000000E+00  0.50567396055E+02  0.50567396055E+02  0.00000000000E+00 0. -1.
         -2   -1    0    0    0  501 -0.00000000000E+00 -0.00000000000E+00 -0.16924414225E+03  0.16924414225E+03  0.00000000000E+00 0.  1.
         24    1    1    2    0    0 -0.42437647339E+02 -0.35172750912E+01 -0.39540798143E+02  0.99217013702E+02  0.80419002446E+02 0. -1.
        -24    1    1    2    0    0  0.42437647339E+02  0.35172750912E+01 -0.79135948048E+02  0.12059452460E+03  0.80419002446E+02 0.  1.
<mgrwt>
<rscale>  0 0.90997478E+02</rscale>
<asrwt>0</asrwt>
<pdfrwt beam="1">  1        2 0.77795993E-02 0.90997478E+02</pdfrwt>
<pdfrwt beam="2">  1       -2 0.26037561E-01 0.90997478E+02</pdfrwt>
<totfact> 0.10499889E+04</totfact>
</mgrwt>
</event>
<event>
 4    1  0.1123525E-001  0.9191296E+02  0.7546771E-02  0.1298284E+00
          2   -1    0    0  501    0  0.00000000000E+00  0.00000000000E+00  0.26032704032E+03  0.26032704032E+03  0.00000000000E+00 0. -1.
         -2   -1    0    0    0  501 -0.00000000000E+00 -0.00000000000E+00 -0.32796833690E+02  0.32796833690E+02  0.00000000000E+00 0.  1.
         24    1    1    2    0    0  0.31647456235E+02  0.31292394405E+02  0.12880526947E+03  0.15823649652E+03  0.80419002446E+02 0. -1.
        -24    1    1    2    0    0 -0.31647456235E+02 -0.31292394405E+02  0.98724937154E+02  0.13488737748E+03  0.80419002446E+02 0.  1.
<mgrwt>
<rscale>  0 0.91912955E+02</rscale>
<asrwt>0</asrwt>
<pdfrwt beam="1">  1        2 0.40050313E-01 0.91912955E+02</pdfrwt>
<pdfrwt beam="2">  1       -2 0.50456669E-02 0.91912955E+02</pdfrwt>
<totfact> 0.22041557E+04</totfact>
</mgrwt>
</event>
<event>
 4    1  0.1123525E-001  0.8552644E+02  0.7546771E-02  0.1314062E+00
          1   -1    0    0  501    0  0.00000000000E+00  0.00000000000E+00  0.55187020260E+03  0.55187020260E+03  0.00000000000E+00 0. -1.
         -1   -1    0    0    0  501 -0.00000000000E+00 -0.00000000000E+00 -0.17103269198E+02  0.17103269198E+02  0.00000000000E+00 0.  1.
         24    1    1    2    0    0  0.21239094786E+02  0.19911240460E+02  0.13243048922E+03  0.15764709662E+03  0.80419002446E+02 0.  1.
        -24    1    1    2    0    0 -0.21239094786E+02 -0.19911240460E+02  0.40233644418E+03  0.41132637517E+03  0.80419002446E+02 0. -1.
<mgrwt>
<rscale>  0 0.85526444E+02</rscale>
<asrwt>0</asrwt>
<pdfrwt beam="1">  1        1 0.84903095E-01 0.85526444E+02</pdfrwt>
<pdfrwt beam="2">  1       -1 0.26312726E-02 0.85526444E+02</pdfrwt>
<totfact> 0.16404754E+04</totfact>
</mgrwt>
</event>
<event>
 4    1  0.1123525E-001  0.8823883E+02  0.7546771E-02  0.1307174E+00
         -2   -1    0    0    0  501 -0.00000000000E+00  0.00000000000E+00  0.83802136570E+01  0.83802136570E+01  0.00000000000E+00 0.  1.
          2   -1    0    0  501    0  0.00000000000E+00 -0.00000000000E+00 -0.18250941732E+04  0.18250941732E+04  0.00000000000E+00 0. -1.
         24    1    1    2    0    0  0.23681360956E+02  0.27533034643E+02 -0.15506804824E+04  0.15531889935E+04  0.80419002446E+02 0. -1.
        -24    1    1    2    0    0 -0.23681360956E+02 -0.27533034643E+02 -0.26603347709E+03  0.28028539338E+03  0.80419002446E+02 0.  1.
<mgrwt>
<rscale>  0 0.88238828E+02</rscale>
<asrwt>0</asrwt>
<pdfrwt beam="1">  1        2 0.28078416E+00 0.88238828E+02</pdfrwt>
<pdfrwt beam="2">  1       -2 0.12892616E-02 0.88238828E+02</pdfrwt>
<totfact> 0.12925880E+04</totfact>
</mgrwt>
</event>
<event>
 4    1  0.1123525E-001  0.8128148E+02  0.7546771E-02  0.1325454E+00
         -2   -1    0    0    0  501 -0.00000000000E+00  0.00000000000E+00  0.95986517982E+01  0.95986517982E+01  0.00000000000E+00 0.  1.
          2   -1    0    0  501    0  0.00000000000E+00 -0.00000000000E+00 -0.12505556186E+04  0.12505556186E+04  0.00000000000E+00 0. -1.
         24    1    1    2    0    0  0.18535232424E+01 -0.11663055585E+02 -0.10429642477E+04  0.10461267133E+04  0.80419002446E+02 0.  0.
        -24    1    1    2    0    0 -0.18535232424E+01  0.11663055585E+02 -0.19799271918E+03  0.21402755714E+03  0.80419002446E+02 0.  1.
<mgrwt>
<rscale>  0 0.81281476E+02</rscale>
<asrwt>0</asrwt>
<pdfrwt beam="1">  1        2 0.19239314E+00 0.81281476E+02</pdfrwt>
<pdfrwt beam="2">  1       -2 0.14767159E-02 0.81281476E+02</pdfrwt>
<totfact> 0.20814055E+04</totfact>
</mgrwt>
</event>
<event>
 4    1  0.1123525E-001  0.8228807E+02  0.7546771E-02  0.1322681E+00
          1   -1    0    0  501    0  0.00000000000E+00  0.00000000000E+00  0.13482598937E+04  0.13482598937E+04  0.00000000000E+00 0. -1.
         -1   -1    0    0    0  501 -0.00000000000E+00 -0.00000000000E+00 -0.58479706992E+01  0.58479706992E+01  0.00000000000E+00 0.  1.
         24    1    1    2    0    0  0.97960384971E+01 -0.14427335733E+02  0.41679736765E+03  0.42484276152E+03  0.80419002446E+02 0.  0.
        -24    1    1    2    0    0 -0.97960384971E+01  0.14427335733E+02  0.92561455535E+03  0.92926510288E+03  0.80419002446E+02 0.  0.
<mgrwt>
<rscale>  0 0.82288069E+02</rscale>
<asrwt>0</asrwt>
<pdfrwt beam="1">  1        1 0.20742435E+00 0.82288069E+02</pdfrwt>
<pdfrwt beam="2">  1       -1 0.89968887E-03 0.82288069E+02</pdfrwt>
<totfact> 0.18363613E+04</totfact>
</mgrwt>
</event>
<event>
 4    1  0.1123525E-001  0.1255003E+03  0.7546771E-02  0.1234289E+00
         -2   -1    0    0    0  501 -0.00000000000E+00  0.00000000000E+00  0.45617483269E+02  0.45617483269E+02  0.00000000000E+00 0.  1.
          2   -1    0    0  501    0  0.00000000000E+00 -0.00000000000E+00 -0.46786766386E+03  0.46786766386E+03  0.00000000000E+00 0. -1.
         24    1    1    2    0    0 -0.74120889626E+02  0.61556532683E+02 -0.34255016405E+03  0.36481631520E+03  0.80419002446E+02 0. -1.
        -24    1    1    2    0    0  0.74120889626E+02 -0.61556532683E+02 -0.79700016542E+02  0.14866883193E+03  0.80419002446E+02 0.  1.
<mgrwt>
<rscale>  0 0.12550031E+03</rscale>
<asrwt>0</asrwt>
<pdfrwt beam="1">  1        2 0.71979644E-01 0.12550031E+03</pdfrwt>
<pdfrwt beam="2">  1       -2 0.70180740E-02 0.12550031E+03</pdfrwt>
<totfact> 0.74097873E+03</totfact>
</mgrwt>
</event>
<event>
 4    1  0.3673372E-001  0.8433624E+02  0.7546771E-02  0.1317178E+00
         -1   -1    0    0    0  501 -0.00000000000E+00  0.00000000000E+00  0.60869536748E+02  0.60869536748E+02  0.00000000000E+00 0.  1.
          1   -1    0    0  501    0  0.00000000000E+00 -0.00000000000E+00 -0.27732595726E+04  0.27732595726E+04  0.00000000000E+00 0. -1.
         24    1    1    2    0    0 -0.56999240035E+01  0.24756750414E+02  0.30694602303E+02  0.89748316918E+02  0.80419002446E+02 0.  1.
        -24    1    1    2    0    0  0.56999240035E+01 -0.24756750414E+02 -0.27430846381E+04  0.27443807924E+04  0.80419002446E+02 0. -1.
<mgrwt>
<rscale>  0 0.84336242E+02</rscale>
<asrwt>0</asrwt>
<pdfrwt beam="1">  1        1 0.42665532E+00 0.84336242E+02</pdfrwt>
<pdfrwt beam="2">  1       -1 0.93645441E-02 0.84336242E+02</pdfrwt>
<totfact> 0.78201182E+01</totfact>
</mgrwt>
</event>
<event>
 4    1  0.1123525E-001  0.8133830E+02  0.7546771E-02  0.1325296E+00
         -2   -1    0    0    0  501 -0.00000000000E+00  0.00000000000E+00  0.28307984772E+01  0.28307984772E+01  0.00000000000E+00 0.  1.
          2   -1    0    0  501    0  0.00000000000E+00 -0.00000000000E+00 -0.38664354435E+04  0.38664354435E+04  0.00000000000E+00 0. -1.
         24    1    1    2    0    0  0.29425618789E+01 -0.11834040881E+02 -0.31485250011E+04  0.31495754637E+04  0.80419002446E+02 0. -1.
        -24    1    1    2    0    0 -0.29425618789E+01  0.11834040881E+02 -0.71507964395E+03  0.71969077828E+03  0.80419002446E+02 0.  0.
<mgrwt>
<rscale>  0 0.81338301E+02</rscale>
<asrwt>0</asrwt>
<pdfrwt beam="1">  1        2 0.59483730E+00 0.81338301E+02</pdfrwt>
<pdfrwt beam="2">  1       -2 0.43550667E-03 0.81338301E+02</pdfrwt>
<totfact> 0.41150961E+03</totfact>
</mgrwt>
</event>
<event>
 4    1  0.1123525E-001  0.8910135E+02  0.7546771E-02  0.1305043E+00
          2   -1    0    0  501    0  0.00000000000E+00  0.00000000000E+00  0.89665769894E+02  0.89665769894E+02  0.00000000000E+00 0. -1.
         -2   -1    0    0    0  501 -0.00000000000E+00 -0.00000000000E+00 -0.13237986828E+03  0.13237986828E+03  0.00000000000E+00 0.  1.
         24    1    1    2    0    0 -0.37160367414E+02 -0.95363544250E+01  0.42533038974E+02  0.98732519065E+02  0.80419002446E+02 0. -1.
        -24    1    1    2    0    0  0.37160367414E+02  0.95363544250E+01 -0.85247137365E+02  0.12331311911E+03  0.80419002446E+02 0.  1.
<mgrwt>
<rscale>  0 0.89101352E+02</rscale>
<asrwt>0</asrwt>
<pdfrwt beam="1">  1        2 0.13794734E-01 0.89101352E+02</pdfrwt>
<pdfrwt beam="2">  1       -2 0.20366134E-01 0.89101352E+02</pdfrwt>
<totfact> 0.79903034E+03</totfact>
</mgrwt>
</event>
<event>
 4    1  0.1123525E-001  0.1174273E+03  0.7546771E-02  0.1247402E+00
         -2   -1    0    0    0  501 -0.00000000000E+00  0.00000000000E+00  0.19523137648E+02  0.19523137648E+02  0.00000000000E+00 0.  1.
          2   -1    0    0  501    0  0.00000000000E+00 -0.00000000000E+00 -0.70630068564E+03  0.70630068564E+03  0.00000000000E+00 0. -1.
         24    1    1    2    0    0  0.85544722253E+02  0.20149586968E+01 -0.34285358672E+03  0.36240551520E+03  0.80419002446E+02 0. -1.
        -24    1    1    2    0    0 -0.85544722253E+02 -0.20149586968E+01 -0.34392396127E+03  0.36341830809E+03  0.80419002446E+02 0.  1.
<mgrwt>
<rscale>  0 0.11742733E+03</rscale>
<asrwt>0</asrwt>
<pdfrwt beam="1">  1        2 0.10866166E+00 0.11742735E+03</pdfrwt>
<pdfrwt beam="2">  1       -2 0.30035593E-02 0.11742735E+03</pdfrwt>
<totfact> 0.16462806E+04</totfact>
</mgrwt>
</event>
<event>
 4    1  0.1123525E-001  0.8046228E+02  0.7546771E-02  0.1327745E+00
          2   -1    0    0  501    0  0.00000000000E+00  0.00000000000E+00  0.41650975793E+03  0.41650975793E+03  0.00000000000E+00 0. -1.
         -2   -1    0    0    0  501 -0.00000000000E+00 -0.00000000000E+00 -0.34116460321E+02  0.34116460321E+02  0.00000000000E+00 0.  1.
         24    1    1    2    0    0  0.26387266370E+01 -0.75615437562E-03  0.35743857735E+03  0.36638301736E+03  0.80419002446E+02 0. -1.
        -24    1    1    2    0    0 -0.26387266370E+01  0.75615437562E-03  0.24954720262E+02  0.84243200892E+02  0.80419002446E+02 0.  0.
<mgrwt>
<rscale>  0 0.80462282E+02</rscale>
<asrwt>0</asrwt>
<pdfrwt beam="1">  1        2 0.64078421E-01 0.80462282E+02</pdfrwt>
<pdfrwt beam="2">  1       -2 0.52486865E-02 0.80462282E+02</pdfrwt>
<totfact> 0.12548373E+04</totfact>
</mgrwt>
</event>
<event>
 4    1  0.1123525E-001  0.1728710E+03  0.7546771E-02  0.1174886E+00
          2   -1    0    0  501    0  0.00000000000E+00  0.00000000000E+00  0.17561499257E+04  0.17561499257E+04  0.00000000000E+00 0. -1.
         -2   -1    0    0    0  501 -0.00000000000E+00 -0.00000000000E+00 -0.29684032127E+02  0.29684032127E+02  0.00000000000E+00 0.  1.
         24    1    1    2    0    0  0.78752729160E+02 -0.13120665985E+03  0.14465264549E+04  0.14568195430E+04  0.80419002446E+02 0. -1.
        -24    1    1    2    0    0 -0.78752729160E+02  0.13120665985E+03  0.27993943865E+03  0.32901441489E+03  0.80419002446E+02 0.  1.
<mgrwt>
<rscale>  0 0.17287104E+03</rscale>
<asrwt>0</asrwt>
<pdfrwt beam="1">  1        2 0.27017683E+00 0.17287104E+03</pdfrwt>
<pdfrwt beam="2">  1       -2 0.45667755E-02 0.17287104E+03</pdfrwt>
<totfact> 0.22503357E+03</totfact>
</mgrwt>
</event>
<event>
 4    1  0.1123525E-001  0.9458529E+02  0.7546771E-02  0.1292113E+00
         -1   -1    0    0    0  501 -0.00000000000E+00  0.00000000000E+00  0.10042585259E+03  0.10042585259E+03  0.00000000000E+00 0.  1.
          1   -1    0    0  501    0  0.00000000000E+00 -0.00000000000E+00 -0.25405857125E+03  0.25405857125E+03  0.00000000000E+00 0. -1.
         24    1    1    2    0    0 -0.10115269465E+01  0.49780907292E+02  0.66009945199E+02  0.11534162621E+03  0.80419002446E+02 0.  1.
        -24    1    1    2    0    0  0.10115269465E+01 -0.49780907292E+02 -0.21964266385E+03  0.23914279763E+03  0.80419002446E+02 0. -1.
<mgrwt>
<rscale>  0 0.94585294E+02</rscale>
<asrwt>0</asrwt>
<pdfrwt beam="1">  1        1 0.39085933E-01 0.94585294E+02</pdfrwt>
<pdfrwt beam="2">  1       -1 0.15450131E-01 0.94585294E+02</pdfrwt>
<totfact> 0.31484556E+03</totfact>
</mgrwt>
</event>
<event>
 4    1  0.1123525E-001  0.8950749E+02  0.7546771E-02  0.1304049E+00
         -1   -1    0    0    0  501 -0.00000000000E+00  0.00000000000E+00  0.12103470743E+02  0.12103470743E+02  0.00000000000E+00 0.  1.
          1   -1    0    0  501    0  0.00000000000E+00 -0.00000000000E+00 -0.75099768811E+03  0.75099768811E+03  0.00000000000E+00 0. -1.
         24    1    1    2    0    0  0.19903699137E+01  0.39248107114E+02 -0.23804425974E+03  0.25431606523E+03  0.80419002446E+02 0.  0.
        -24    1    1    2    0    0 -0.19903699137E+01 -0.39248107114E+02 -0.50084995763E+03  0.50878509363E+03  0.80419002446E+02 0.  0.
<mgrwt>
<rscale>  0 0.89507494E+02</rscale>
<asrwt>0</asrwt>
<pdfrwt beam="1">  1        1 0.11553811E+00 0.89507494E+02</pdfrwt>
<pdfrwt beam="2">  1       -1 0.18620724E-02 0.89507494E+02</pdfrwt>
<totfact> 0.17707721E+04</totfact>
</mgrwt>
</event>
<event>
 4    1  0.1123525E-001  0.8146010E+02  0.7546771E-02  0.1324958E+00
          2   -1    0    0  501    0  0.00000000000E+00  0.00000000000E+00  0.34089848254E+02  0.34089848254E+02  0.00000000000E+00 0. -1.
         -2   -1    0    0    0  501 -0.00000000000E+00 -0.00000000000E+00 -0.39050534687E+03  0.39050534687E+03  0.00000000000E+00 0.  1.
         24    1    1    2    0    0 -0.12910860630E+02  0.13571282861E+01 -0.27860970236E+02  0.86092866930E+02  0.80419002446E+02 0. -1.
        -24    1    1    2    0    0  0.12910860630E+02 -0.13571282861E+01 -0.32855452838E+03  0.33850232820E+03  0.80419002446E+02 0.  0.
<mgrwt>
<rscale>  0 0.81460101E+02</rscale>
<asrwt>0</asrwt>
<pdfrwt beam="1">  1        2 0.52445919E-02 0.81460101E+02</pdfrwt>
<pdfrwt beam="2">  1       -2 0.60077747E-01 0.81460101E+02</pdfrwt>
<totfact> 0.35608510E+03</totfact>
</mgrwt>
</event>
<event>
 4    1  0.1123525E-001  0.9132334E+02  0.7546771E-02  0.1299678E+00
          1   -1    0    0  501    0  0.00000000000E+00  0.00000000000E+00  0.34664159781E+03  0.34664159781E+03  0.00000000000E+00 0. -1.
         -1   -1    0    0    0  501 -0.00000000000E+00 -0.00000000000E+00 -0.43418423934E+02  0.43418423934E+02  0.00000000000E+00 0.  1.
         24    1    1    2    0    0  0.27311198118E+02  0.33568368561E+02  0.21382705397E+02  0.93793245786E+02  0.80419002446E+02 0.  1.
        -24    1    1    2    0    0 -0.27311198118E+02 -0.33568368561E+02  0.28184046847E+03  0.29626677595E+03  0.80419002446E+02 0. -1.
<mgrwt>
<rscale>  0 0.91323342E+02</rscale>
<asrwt>0</asrwt>
<pdfrwt beam="1">  1        1 0.53329475E-01 0.91323342E+02</pdfrwt>
<pdfrwt beam="2">  1       -1 0.66797577E-02 0.91323342E+02</pdfrwt>
<totfact> 0.76460657E+03</totfact>
</mgrwt>
</event>
<event>
 4    1  0.1123525E-001  0.1207523E+03  0.7546771E-02  0.1241861E+00
         -2   -1    0    0    0  501 -0.00000000000E+00  0.00000000000E+00  0.48015526528E+02  0.48015526528E+02  0.00000000000E+00 0.  1.
          2   -1    0    0  501    0  0.00000000000E+00 -0.00000000000E+00 -0.38173893098E+03  0.38173893098E+03  0.00000000000E+00 0. -1.
         24    1    1    2    0    0 -0.25032286198E+02 -0.86529110094E+02 -0.26403169980E+03  0.29033404330E+03  0.80419002446E+02 0. -1.
        -24    1    1    2    0    0  0.25032286198E+02  0.86529110094E+02 -0.69691704653E+02  0.13942041421E+03  0.80419002446E+02 0.  1.
<mgrwt>
<rscale>  0 0.12075230E+03</rscale>
<asrwt>0</asrwt>
<pdfrwt beam="1">  1        2 0.58729066E-01 0.12075230E+03</pdfrwt>
<pdfrwt beam="2">  1       -2 0.73870041E-02 0.12075230E+03</pdfrwt>
<totfact> 0.84968917E+03</totfact>
</mgrwt>
</event>
<event>
 4    1  0.1123525E-001  0.1208402E+03  0.7546771E-02  0.1241717E+00
         -3   -1    0    0    0  501 -0.00000000000E+00  0.00000000000E+00  0.45010858465E+02  0.45010858465E+02  0.00000000000E+00 0.  1.
          3   -1    0    0  501    0  0.00000000000E+00 -0.00000000000E+00 -0.32452587926E+03  0.32452587926E+03  0.00000000000E+00 0. -1.
         24    1    1    2    0    0 -0.23932271460E+02 -0.86961956977E+02 -0.14311973929E+03  0.18731153544E+03  0.80419002446E+02 0.  1.
        -24    1    1    2    0    0  0.23932271460E+02  0.86961956977E+02 -0.13639528151E+03  0.18222520229E+03  0.80419002446E+02 0. -1.
<mgrwt>
<rscale>  0 0.12084021E+03</rscale>
<asrwt>0</asrwt>
<pdfrwt beam="1">  1        3 0.49927058E-01 0.12084022E+03</pdfrwt>
<pdfrwt beam="2">  1       -3 0.69247475E-02 0.12084022E+03</pdfrwt>
<totfact> 0.12221191E+03</totfact>
</mgrwt>
</event>
<event>
 4    1  0.1123525E-001  0.8803827E+02  0.7546771E-02  0.1307673E+00
         -2   -1    0    0    0  501 -0.00000000000E+00  0.00000000000E+00  0.11184872890E+03  0.11184872890E+03  0.00000000000E+00 0.  1.
          2   -1    0    0  501    0  0.00000000000E+00 -0.00000000000E+00 -0.43425975157E+03  0.43425975157E+03  0.00000000000E+00 0. -1.
         24    1    1    2    0    0 -0.30740021537E+02  0.18400319546E+02 -0.41152729476E+03  0.42083898461E+03  0.80419002446E+02 0. -1.
        -24    1    1    2    0    0  0.30740021537E+02 -0.18400319546E+02  0.89116272093E+02  0.12526949585E+03  0.80419002446E+02 0.  1.
<mgrwt>
<rscale>  0 0.88038268E+02</rscale>
<asrwt>0</asrwt>
<pdfrwt beam="1">  1        2 0.66809191E-01 0.88038268E+02</pdfrwt>
<pdfrwt beam="2">  1       -2 0.17207497E-01 0.88038268E+02</pdfrwt>
<totfact> 0.19145634E+03</totfact>
</mgrwt>
</event>
<event>
 4    1  0.1123525E-001  0.1041465E+03  0.7546771E-02  0.1271810E+00
          1   -1    0    0  501    0  0.00000000000E+00  0.00000000000E+00  0.23443795843E+02  0.23443795843E+02  0.00000000000E+00 0. -1.
         -1   -1    0    0    0  501 -0.00000000000E+00 -0.00000000000E+00 -0.75407504361E+03  0.75407504361E+03  0.00000000000E+00 0.  1.
         24    1    1    2    0    0  0.22450362700E+02 -0.62251657972E+02 -0.60698950575E+03  0.61585937011E+03  0.80419002446E+02 0.  1.
        -24    1    1    2    0    0 -0.22450362700E+02  0.62251657972E+02 -0.12364174202E+03  0.16165946935E+03  0.80419002446E+02 0. -1.
<mgrwt>
<rscale>  0 0.10414655E+03</rscale>
<asrwt>0</asrwt>
<pdfrwt beam="1">  1        1 0.36067382E-02 0.10414655E+03</pdfrwt>
<pdfrwt beam="2">  1       -1 0.11601153E+00 0.10414655E+03</pdfrwt>
<totfact> 0.18076417E+03</totfact>
</mgrwt>
</event>
<event>
 4    1  0.1123525E-001  0.9325129E+02  0.7546771E-02  0.1295164E+00
         -1   -1    0    0    0  501 -0.00000000000E+00  0.00000000000E+00  0.29864186799E+02  0.29864186799E+02  0.00000000000E+00 0.  1.
          1   -1    0    0  501    0  0.00000000000E+00 -0.00000000000E+00 -0.29478585854E+03  0.29478585854E+03  0.00000000000E+00 0. -1.
         24    1    1    2    0    0 -0.39791672104E+02  0.25400996173E+02 -0.11450367555E+03  0.14767157968E+03  0.80419002446E+02 0. -1.
        -24    1    1    2    0    0  0.39791672104E+02 -0.25400996173E+02 -0.15041799619E+03  0.17697846566E+03  0.80419002446E+02 0.  0.
<mgrwt>
<rscale>  0 0.93251293E+02</rscale>
<asrwt>0</asrwt>
<pdfrwt beam="1">  1        1 0.45351669E-01 0.93251293E+02</pdfrwt>
<pdfrwt beam="2">  1       -1 0.45944904E-02 0.93251293E+02</pdfrwt>
<totfact> 0.16192056E+04</totfact>
</mgrwt>
</event>
<event>
 4    1  0.1123525E-001  0.8348850E+02  0.7546771E-02  0.1319433E+00
         -2   -1    0    0    0  501 -0.00000000000E+00  0.00000000000E+00  0.66495489949E+02  0.66495489949E+02  0.00000000000E+00 0.  1.
          2   -1    0    0  501    0  0.00000000000E+00 -0.00000000000E+00 -0.50241232284E+03  0.50241232284E+03  0.00000000000E+00 0. -1.
         24    1    1    2    0    0  0.10255273693E+02 -0.19948504307E+02 -0.47100385930E+03  0.47834607231E+03  0.80419002446E+02 0. -1.
        -24    1    1    2    0    0 -0.10255273693E+02  0.19948504307E+02  0.35087026408E+02  0.90561740482E+02  0.80419002446E+02 0.  1.
<mgrwt>
<rscale>  0 0.83488499E+02</rscale>
<asrwt>0</asrwt>
<pdfrwt beam="1">  1        2 0.77294200E-01 0.83488499E+02</pdfrwt>
<pdfrwt beam="2">  1       -2 0.10230076E-01 0.83488499E+02</pdfrwt>
<totfact> 0.37471636E+03</totfact>
</mgrwt>
</event>
<event>
 4    1  0.1123525E-001  0.1102094E+03  0.7546771E-02  0.1260183E+00
         -1   -1    0    0    0  501 -0.00000000000E+00  0.00000000000E+00  0.11739145198E+02  0.11739145198E+02  0.00000000000E+00 0.  1.
          1   -1    0    0  501    0  0.00000000000E+00 -0.00000000000E+00 -0.21162171206E+04  0.21162171206E+04  0.00000000000E+00 0. -1.
         24    1    1    2    0    0  0.72003517487E+02 -0.22234864533E+02 -0.29160483615E+03  0.31173625416E+03  0.80419002446E+02 0.  1.
        -24    1    1    2    0    0 -0.72003517487E+02  0.22234864533E+02 -0.18128731393E+04  0.18162200116E+04  0.80419002446E+02 0. -1.
<mgrwt>
<rscale>  0 0.11020940E+03</rscale>
<asrwt>0</asrwt>
<pdfrwt beam="1">  1        1 0.32557181E+00 0.11020940E+03</pdfrwt>
<pdfrwt beam="2">  1       -1 0.18060226E-02 0.11020940E+03</pdfrwt>
<totfact> 0.22598179E+03</totfact>
</mgrwt>
</event>
<event>
 4    1  0.1123525E-001  0.9681783E+02  0.7546771E-02  0.1287134E+00
          2   -1    0    0  501    0  0.00000000000E+00  0.00000000000E+00  0.26814449845E+03  0.26814449845E+03  0.00000000000E+00 0. -1.
         -2   -1    0    0    0  501 -0.00000000000E+00 -0.00000000000E+00 -0.41107965050E+02  0.41107965050E+02  0.00000000000E+00 0.  1.
         24    1    1    2    0    0 -0.29549708331E+02  0.45092022006E+02  0.17332776547E+03  0.19853515041E+03  0.80419002446E+02 0. -1.
        -24    1    1    2    0    0  0.29549708331E+02 -0.45092022006E+02  0.53708767931E+02  0.11071731309E+03  0.80419002446E+02 0.  1.
<mgrwt>
<rscale>  0 0.96817827E+02</rscale>
<asrwt>0</asrwt>
<pdfrwt beam="1">  1        2 0.41252999E-01 0.96817827E+02</pdfrwt>
<pdfrwt beam="2">  1       -2 0.63243025E-02 0.96817827E+02</pdfrwt>
<totfact> 0.15318717E+04</totfact>
</mgrwt>
</event>
<event>
 4    1  0.1123525E-001  0.8542558E+02  0.7546771E-02  0.1314323E+00
          2   -1    0    0  501    0  0.00000000000E+00  0.00000000000E+00  0.11380719205E+04  0.11380719205E+04  0.00000000000E+00 0. -1.
         -2   -1    0    0    0  501 -0.00000000000E+00 -0.00000000000E+00 -0.96400102334E+01  0.96400102334E+01  0.00000000000E+00 0.  1.
         24    1    1    2    0    0  0.18591318610E+02 -0.22015384199E+02  0.89627782571E+03  0.90033964207E+03  0.80419002446E+02 0. -1.
        -24    1    1    2    0    0 -0.18591318610E+02  0.22015384199E+02  0.23215408460E+03  0.24737228870E+03  0.80419002446E+02 0.  1.
<mgrwt>
<rscale>  0 0.85425583E+02</rscale>
<asrwt>0</asrwt>
<pdfrwt beam="1">  1        2 0.17508788E+00 0.85425583E+02</pdfrwt>
<pdfrwt beam="2">  1       -2 0.14830794E-02 0.85425583E+02</pdfrwt>
<totfact> 0.23905145E+04</totfact>
</mgrwt>
</event>
<event>
 4    1  0.1123525E-001  0.8098069E+02  0.7546771E-02  0.1326291E+00
         -1   -1    0    0    0  501 -0.00000000000E+00  0.00000000000E+00  0.30822174408E+01  0.30822174408E+01  0.00000000000E+00 0.  1.
          1   -1    0    0  501    0  0.00000000000E+00 -0.00000000000E+00 -0.23302511164E+04  0.23302511164E+04  0.00000000000E+00 0. -1.
         24    1    1    2    0    0  0.20200834545E+01  0.93045910590E+01 -0.81957603331E+03  0.82356708681E+03  0.80419002446E+02 0.  1.
        -24    1    1    2    0    0 -0.20200834545E+01 -0.93045910590E+01 -0.15075928656E+04  0.15097662470E+04  0.80419002446E+02 0.  0.
<mgrwt>
<rscale>  0 0.80980690E+02</rscale>
<asrwt>0</asrwt>
<pdfrwt beam="1">  1        1 0.35849912E+00 0.80980690E+02</pdfrwt>
<pdfrwt beam="2">  1       -1 0.47418869E-03 0.80980690E+02</pdfrwt>
<totfact> 0.10828404E+04</totfact>
</mgrwt>
</event>
<event>
 4    1  0.1123525E-001  0.1098114E+03  0.7546771E-02  0.1260920E+00
          1   -1    0    0  501    0  0.00000000000E+00  0.00000000000E+00  0.20802932205E+03  0.20802932205E+03  0.00000000000E+00 0. -1.
         -1   -1    0    0    0  501 -0.00000000000E+00 -0.00000000000E+00 -0.57972561683E+02  0.57972561683E+02  0.00000000000E+00 0.  1.
         24    1    1    2    0    0  0.22630275253E+02  0.71268428846E+02  0.73565779675E+02  0.13217586089E+03  0.80419002446E+02 0. -1.
        -24    1    1    2    0    0 -0.22630275253E+02 -0.71268428846E+02  0.76490980689E+02  0.13382602284E+03  0.80419002446E+02 0.  1.
<mgrwt>
<rscale>  0 0.10981136E+03</rscale>
<asrwt>0</asrwt>
<pdfrwt beam="1">  1        1 0.32004511E-01 0.10981136E+03</pdfrwt>
<pdfrwt beam="2">  1       -1 0.89188557E-02 0.10981136E+03</pdfrwt>
<totfact> 0.94235868E+03</totfact>
</mgrwt>
</event>
<event>
 4    1  0.1123525E-001  0.1067991E+03  0.7546771E-02  0.1266615E+00
          2   -1    0    0  501    0  0.00000000000E+00  0.00000000000E+00  0.56556953011E+03  0.56556953011E+03  0.00000000000E+00 0. -1.
         -2   -1    0    0    0  501 -0.00000000000E+00 -0.00000000000E+00 -0.57338628577E+02  0.57338628577E+02  0.00000000000E+00 0.  1.
         24    1    1    2    0    0  0.62974169739E+02  0.31194277178E+02  0.50488457192E+03  0.51605665959E+03  0.80419002446E+02 0. -1.
        -24    1    1    2    0    0 -0.62974169739E+02 -0.31194277178E+02  0.33463296052E+01  0.10685149910E+03  0.80419002446E+02 0.  1.
<mgrwt>
<rscale>  0 0.10679909E+03</rscale>
<asrwt>0</asrwt>
<pdfrwt beam="1">  1        2 0.87010693E-01 0.10679909E+03</pdfrwt>
<pdfrwt beam="2">  1       -2 0.88213278E-02 0.10679909E+03</pdfrwt>
<totfact> 0.41962121E+03</totfact>
</mgrwt>
</event>
<event>
 4    1  0.1123525E-001  0.8790603E+02  0.7546771E-02  0.1308003E+00
         -2   -1    0    0    0  501 -0.00000000000E+00  0.00000000000E+00  0.47672738720E+02  0.47672738720E+02  0.00000000000E+00 0.  1.
          2   -1    0    0  501    0  0.00000000000E+00 -0.00000000000E+00 -0.23157111006E+03  0.23157111006E+03  0.00000000000E+00 0. -1.
         24    1    1    2    0    0  0.35067762589E+02  0.55232959454E+01 -0.16842637566E+03  0.18998661728E+03  0.80419002446E+02 0. -1.
        -24    1    1    2    0    0 -0.35067762589E+02 -0.55232959454E+01 -0.15471995678E+02  0.89257231504E+02  0.80419002446E+02 0.  1.
<mgrwt>
<rscale>  0 0.87906033E+02</rscale>
<asrwt>0</asrwt>
<pdfrwt beam="1">  1        2 0.35626325E-01 0.87906033E+02</pdfrwt>
<pdfrwt beam="2">  1       -2 0.73342674E-02 0.87906033E+02</pdfrwt>
<totfact> 0.14151447E+04</totfact>
</mgrwt>
</event>
<event>
 4    1  0.1123525E-001  0.8721148E+02  0.7546771E-02  0.1309749E+00
         -1   -1    0    0    0  501 -0.00000000000E+00  0.00000000000E+00  0.48097641520E+01  0.48097641520E+01  0.00000000000E+00 0.  1.
          1   -1    0    0  501    0  0.00000000000E+00 -0.00000000000E+00 -0.15813695917E+04  0.15813695917E+04  0.00000000000E+00 0. -1.
         24    1    1    2    0    0 -0.67725784704E+01  0.33056848846E+02 -0.79209218617E+03  0.79687883045E+03  0.80419002446E+02 0.  0.
        -24    1    1    2    0    0  0.67725784704E+01 -0.33056848846E+02 -0.78446764137E+03  0.78930052539E+03  0.80419002446E+02 0. -1.
<mgrwt>
<rscale>  0 0.87211472E+02</rscale>
<asrwt>0</asrwt>
<pdfrwt beam="1">  1        1 0.24328795E+00 0.87211483E+02</pdfrwt>
<pdfrwt beam="2">  1       -1 0.73996273E-03 0.87211483E+02</pdfrwt>
<totfact> 0.17218461E+04</totfact>
</mgrwt>
</event>
<event>
 4    1  0.1123525E-001  0.8630797E+02  0.7546771E-02  0.1312047E+00
          1   -1    0    0  501    0  0.00000000000E+00  0.00000000000E+00  0.10564848440E+03  0.10564848440E+03  0.00000000000E+00 0. -1.
         -1   -1    0    0    0  501 -0.00000000000E+00 -0.00000000000E+00 -0.74103445260E+02  0.74103445260E+02  0.00000000000E+00 0.  1.
         24    1    1    2    0    0 -0.18212882673E+02 -0.25497866317E+02 -0.40244652167E+01  0.86401750889E+02  0.80419002446E+02 0.  1.
        -24    1    1    2    0    0  0.18212882673E+02  0.25497866317E+02  0.35569504355E+02  0.93350178770E+02  0.80419002446E+02 0. -1.
<mgrwt>
<rscale>  0 0.86307973E+02</rscale>
<asrwt>0</asrwt>
<pdfrwt beam="1">  1        1 0.16253613E-01 0.86307973E+02</pdfrwt>
<pdfrwt beam="2">  1       -1 0.11400530E-01 0.86307973E+02</pdfrwt>
<totfact> 0.14811788E+04</totfact>
</mgrwt>
</event>
<event>
 4    1  0.1123525E-001  0.8129789E+02  0.7546771E-02  0.1325408E+00
          2   -1    0    0  501    0  0.00000000000E+00  0.00000000000E+00  0.11660041895E+03  0.11660041895E+03  0.00000000000E+00 0. -1.
         -2   -1    0    0    0  501 -0.00000000000E+00 -0.00000000000E+00 -0.80428452668E+02  0.80428452668E+02  0.00000000000E+00 0.  1.
         24    1    1    2    0    0  0.11832408136E+02  0.14575174811E+01  0.71613685923E+02  0.10834143347E+03  0.80419002446E+02 0.  0.
        -24    1    1    2    0    0 -0.11832408136E+02 -0.14575174811E+01 -0.35441719646E+02  0.88687438148E+02  0.80419002446E+02 0.  1.
<mgrwt>
<rscale>  0 0.81297886E+02</rscale>
<asrwt>0</asrwt>
<pdfrwt beam="1">  1        2 0.17938526E-01 0.81297886E+02</pdfrwt>
<pdfrwt beam="2">  1       -2 0.12373608E-01 0.81297886E+02</pdfrwt>
<totfact> 0.13178304E+04</totfact>
</mgrwt>
</event>
<event>
 4    1  0.1123525E-001  0.8223325E+02  0.7546771E-02  0.1322831E+00
          2   -1    0    0  501    0  0.00000000000E+00  0.00000000000E+00  0.72832867565E+03  0.72832867565E+03  0.00000000000E+00 0. -1.
         -2   -1    0    0    0  501 -0.00000000000E+00 -0.00000000000E+00 -0.12837239614E+02  0.12837239614E+02  0.00000000000E+00 0.  1.
         24    1    1    2    0    0  0.12561569344E+02 -0.11717469268E+02  0.55269404817E+03  0.55877814824E+03  0.80419002446E+02 0. -1.
        -24    1    1    2    0    0 -0.12561569344E+02  0.11717469268E+02  0.16279738786E+03  0.18238776702E+03  0.80419002446E+02 0.  0.
<mgrwt>
<rscale>  0 0.82233254E+02</rscale>
<asrwt>0</asrwt>
<pdfrwt beam="1">  1        2 0.11205053E+00 0.82233254E+02</pdfrwt>
<pdfrwt beam="2">  1       -2 0.19749605E-02 0.82233254E+02</pdfrwt>
<totfact> 0.28185278E+04</totfact>
</mgrwt>
</event>
<event>
 4    1  0.1123525E-001  0.8092091E+02  0.7546771E-02  0.1326458E+00
          2   -1    0    0  501    0  0.00000000000E+00  0.00000000000E+00  0.73339318705E+03  0.73339318705E+03  0.00000000000E+00 0. -1.
         -2   -1    0    0    0  501 -0.00000000000E+00 -0.00000000000E+00 -0.97956269211E+01  0.97956269211E+01  0.00000000000E+00 0.  1.
         24    1    1    2    0    0 -0.81346899391E+01  0.38477270878E+01  0.47234976202E+03  0.47923114654E+03  0.80419002446E+02 0.  0.
        -24    1    1    2    0    0  0.81346899391E+01 -0.38477270878E+01  0.25124779811E+03  0.26395766743E+03  0.80419002446E+02 0.  1.
<mgrwt>
<rscale>  0 0.80920913E+02</rscale>
<asrwt>0</asrwt>
<pdfrwt beam="1">  1        2 0.11282968E+00 0.80920913E+02</pdfrwt>
<pdfrwt beam="2">  1       -2 0.15070201E-02 0.80920913E+02</pdfrwt>
<totfact> 0.41044743E+04</totfact>
</mgrwt>
</event>
<event>
 4    1  0.1123525E-001  0.9554745E+02  0.7546771E-02  0.1289948E+00
         -2   -1    0    0    0  501 -0.00000000000E+00  0.00000000000E+00  0.38430904203E+03  0.38430904203E+03  0.00000000000E+00 0.  1.
          2   -1    0    0  501    0  0.00000000000E+00 -0.00000000000E+00 -0.25510549761E+02  0.25510549761E+02  0.00000000000E+00 0. -1.
         24    1    1    2    0    0 -0.35875374579E+02  0.37081768005E+02  0.12564759816E+03  0.15785003927E+03  0.80419002446E+02 0. -1.
        -24    1    1    2    0    0  0.35875374579E+02 -0.37081768005E+02  0.23315089411E+03  0.25196955252E+03  0.80419002446E+02 0.  1.
<mgrwt>
<rscale>  0 0.95547454E+02</rscale>
<asrwt>0</asrwt>
<pdfrwt beam="1">  1        2 0.39247002E-02 0.95547454E+02</pdfrwt>
<pdfrwt beam="2">  1       -2 0.59124464E-01 0.95547454E+02</pdfrwt>
<totfact> 0.54352571E+03</totfact>
</mgrwt>
</event>
<event>
 4    1  0.1123525E-001  0.8743933E+02  0.7546771E-02  0.1309174E+00
         -3   -1    0    0    0  501 -0.00000000000E+00  0.00000000000E+00  0.47111784892E+03  0.47111784892E+03  0.00000000000E+00 0.  1.
          3   -1    0    0  501    0  0.00000000000E+00 -0.00000000000E+00 -0.16866196720E+02  0.16866196720E+02  0.00000000000E+00 0. -1.
         24    1    1    2    0    0  0.32525822233E+02  0.10976644073E+02  0.17969017065E+03  0.19983540529E+03  0.80419002446E+02 0. -1.
        -24    1    1    2    0    0 -0.32525822233E+02 -0.10976644073E+02  0.27456148155E+03  0.28814864034E+03  0.80419002446E+02 0.  1.
<mgrwt>
<rscale>  0 0.87439314E+02</rscale>
<asrwt>0</asrwt>
<pdfrwt beam="1">  1        3 0.25947998E-02 0.87439325E+02</pdfrwt>
<pdfrwt beam="2">  1       -3 0.72479659E-01 0.87439325E+02</pdfrwt>
<totfact> 0.24772782E+03</totfact>
</mgrwt>
</event>
<event>
 4    1  0.1123525E-001  0.1007461E+03  0.7546771E-02  0.1278735E+00
         -2   -1    0    0    0  501 -0.00000000000E+00  0.00000000000E+00  0.10919102417E+02  0.10919102417E+02  0.00000000000E+00 0.  1.
          2   -1    0    0  501    0  0.00000000000E+00 -0.00000000000E+00 -0.29791323997E+04  0.29791323997E+04  0.00000000000E+00 0. -1.
         24    1    1    2    0    0  0.59513466642E+02 -0.11861950964E+02 -0.27241509775E+04  0.27260132654E+04  0.80419002446E+02 0. -1.
        -24    1    1    2    0    0 -0.59513466642E+02  0.11861950964E+02 -0.24406231979E+03  0.26403823679E+03  0.80419002446E+02 0.  1.
<mgrwt>
<rscale>  0 0.10074609E+03</rscale>
<asrwt>0</asrwt>
<pdfrwt beam="1">  1        2 0.45832819E+00 0.10074609E+03</pdfrwt>
<pdfrwt beam="2">  1       -2 0.16798615E-02 0.10074609E+03</pdfrwt>
<totfact> 0.22020232E+03</totfact>
</mgrwt>
</event>
<event>
 4    1  0.1123525E-001  0.9924170E+02  0.7546771E-02  0.1281899E+00
          1   -1    0    0  501    0  0.00000000000E+00  0.00000000000E+00  0.29790445427E+02  0.29790445427E+02  0.00000000000E+00 0. -1.
         -1   -1    0    0    0  501 -0.00000000000E+00 -0.00000000000E+00 -0.33492956013E+03  0.33492956013E+03  0.00000000000E+00 0.  1.
         24    1    1    2    0    0  0.19619102950E+02  0.54742905864E+02 -0.13185120424E+03  0.16502621294E+03  0.80419002446E+02 0. -1.
        -24    1    1    2    0    0 -0.19619102950E+02 -0.54742905864E+02 -0.17328791047E+03  0.19969379262E+03  0.80419002446E+02 0.  1.
<mgrwt>
<rscale>  0 0.99241692E+02</rscale>
<asrwt>0</asrwt>
<pdfrwt beam="1">  1        1 0.45831455E-02 0.99241704E+02</pdfrwt>
<pdfrwt beam="2">  1       -1 0.51527624E-01 0.99241704E+02</pdfrwt>
<totfact> 0.67450649E+03</totfact>
</mgrwt>
</event>
<event>
 4    1  0.1123525E-001  0.8282342E+02  0.7546771E-02  0.1321225E+00
         -2   -1    0    0    0  501 -0.00000000000E+00  0.00000000000E+00  0.43253077679E+01  0.43253077679E+01  0.00000000000E+00 0.  1.
          2   -1    0    0  501    0  0.00000000000E+00 -0.00000000000E+00 -0.28243178525E+04  0.28243178525E+04  0.00000000000E+00 0. -1.
         24    1    1    2    0    0 -0.92429993349E+01  0.17523394535E+02 -0.23465147690E+04  0.23479759963E+04  0.80419002446E+02 0. -1.
        -24    1    1    2    0    0  0.92429993349E+01 -0.17523394535E+02 -0.47347777573E+03  0.48066716391E+03  0.80419002446E+02 0.  1.
<mgrwt>
<rscale>  0 0.82823417E+02</rscale>
<asrwt>0</asrwt>
<pdfrwt beam="1">  1        2 0.43451145E+00 0.82823417E+02</pdfrwt>
<pdfrwt beam="2">  1       -2 0.66543042E-03 0.82823417E+02</pdfrwt>
<totfact> 0.99849275E+03</totfact>
</mgrwt>
</event>
<event>
 4    1  0.1123525E-001  0.1072501E+03  0.7546771E-02  0.1265749E+00
          2   -1    0    0  501    0  0.00000000000E+00  0.00000000000E+00  0.24452019503E+02  0.24452019503E+02  0.00000000000E+00 0. -1.
         -2   -1    0    0    0  501 -0.00000000000E+00 -0.00000000000E+00 -0.51267770772E+03  0.51267770772E+03  0.00000000000E+00 0.  1.
         24    1    1    2    0    0 -0.26927995063E+02 -0.65652516937E+02 -0.16700333714E+03  0.19847594431E+03  0.80419002446E+02 0.  0.
        -24    1    1    2    0    0  0.26927995063E+02  0.65652516937E+02 -0.32122235107E+03  0.33865378291E+03  0.80419002446E+02 0.  1.
<mgrwt>
<rscale>  0 0.10725011E+03</rscale>
<asrwt>0</asrwt>
<pdfrwt beam="1">  1        2 0.37618490E-02 0.10725011E+03</pdfrwt>
<pdfrwt beam="2">  1       -2 0.78873498E-01 0.10725011E+03</pdfrwt>
<totfact> 0.31682064E+03</totfact>
</mgrwt>
</event>
<event>
 4    1  0.1123525E-001  0.8262304E+02  0.7546771E-02  0.1321768E+00
         -2   -1    0    0    0  501 -0.00000000000E+00  0.00000000000E+00  0.44731294492E+01  0.44731294492E+01  0.00000000000E+00 0.  1.
          2   -1    0    0  501    0  0.00000000000E+00 -0.00000000000E+00 -0.22819567480E+04  0.22819567480E+04  0.00000000000E+00 0. -1.
         24    1    1    2    0    0  0.18569669232E+02 -0.38102747679E+01 -0.17966813322E+04  0.17985801000E+04  0.80419002446E+02 0.  0.
        -24    1    1    2    0    0 -0.18569669232E+02  0.38102747679E+01 -0.48080228635E+03  0.48784977741E+03  0.80419002446E+02 0.  1.
<mgrwt>
<rscale>  0 0.82623040E+02</rscale>
<asrwt>0</asrwt>
<pdfrwt beam="1">  1        2 0.35107018E+00 0.82623040E+02</pdfrwt>
<pdfrwt beam="2">  1       -2 0.68817394E-03 0.82623040E+02</pdfrwt>
<totfact> 0.18404046E+04</totfact>
</mgrwt>
</event>
<event>
 4    1  0.1123525E-001  0.1126722E+03  0.7546771E-02  0.1255700E+00
         -1   -1    0    0    0  501 -0.00000000000E+00  0.00000000000E+00  0.10498774090E+02  0.10498774090E+02  0.00000000000E+00 0.  1.
          1   -1    0    0  501    0  0.00000000000E+00 -0.00000000000E+00 -0.12252018216E+04  0.12252018216E+04  0.00000000000E+00 0. -1.
         24    1    1    2    0    0  0.60837834128E+02  0.50264942414E+02 -0.53672185935E+03  0.54842080263E+03  0.80419002446E+02 0. -1.
        -24    1    1    2    0    0 -0.60837834128E+02 -0.50264942414E+02 -0.67798118812E+03  0.68727979302E+03  0.80419002446E+02 0.  1.
<mgrwt>
<rscale>  0 0.11267219E+03</rscale>
<asrwt>0</asrwt>
<pdfrwt beam="1">  1        1 0.18849251E+00 0.11267219E+03</pdfrwt>
<pdfrwt beam="2">  1       -1 0.16151966E-02 0.11267219E+03</pdfrwt>
<totfact> 0.98793067E+03</totfact>
</mgrwt>
</event>
<event>
 4    1  0.1123525E-001  0.8217370E+02  0.7546771E-02  0.1322994E+00
         -2   -1    0    0    0  501 -0.00000000000E+00  0.00000000000E+00  0.37217333005E+03  0.37217333005E+03  0.00000000000E+00 0.  1.
          2   -1    0    0  501    0  0.00000000000E+00 -0.00000000000E+00 -0.25880788603E+02  0.25880788603E+02  0.00000000000E+00 0. -1.
         24    1    1    2    0    0 -0.10682005046E+02 -0.13084187363E+02  0.64323820322E+02  0.10435550300E+03  0.80419002446E+02 0.  0.
        -24    1    1    2    0    0  0.10682005046E+02  0.13084187363E+02  0.28196872113E+03  0.29369861566E+03  0.80419002446E+02 0.  1.
<mgrwt>
<rscale>  0 0.82173701E+02</rscale>
<asrwt>0</asrwt>
<pdfrwt beam="1">  1        2 0.39816600E-02 0.82173701E+02</pdfrwt>
<pdfrwt beam="2">  1       -2 0.57257432E-01 0.82173701E+02</pdfrwt>
<totfact> 0.56085704E+03</totfact>
</mgrwt>
</event>
<event>
 4    1  0.1123525E-001  0.9083389E+02  0.7546771E-02  0.1300845E+00
          1   -1    0    0  501    0  0.00000000000E+00  0.00000000000E+00  0.18188397081E+03  0.18188397081E+03  0.00000000000E+00 0. -1.
         -1   -1    0    0    0  501 -0.00000000000E+00 -0.00000000000E+00 -0.63409698167E+02  0.63409698167E+02  0.00000000000E+00 0.  1.
         24    1    1    2    0    0  0.18313299299E+02  0.38055266188E+02 -0.61929963939E+01  0.91044765773E+02  0.80419002446E+02 0.  1.
        -24    1    1    2    0    0 -0.18313299299E+02 -0.38055266188E+02  0.12466726903E+03  0.15424890320E+03  0.80419002446E+02 0. -1.
<mgrwt>
<rscale>  0 0.90833893E+02</rscale>
<asrwt>0</asrwt>
<pdfrwt beam="1">  1        1 0.27982149E-01 0.90833893E+02</pdfrwt>
<pdfrwt beam="2">  1       -1 0.97553382E-02 0.90833893E+02</pdfrwt>
<totfact> 0.95564535E+03</totfact>
</mgrwt>
</event>
<event>
 4    1  0.1123525E-001  0.1128601E+03  0.7546771E-02  0.1255363E+00
          2   -1    0    0  501    0  0.00000000000E+00  0.00000000000E+00  0.45763926038E+03  0.45763926038E+03  0.00000000000E+00 0. -1.
         -2   -1    0    0    0  501 -0.00000000000E+00 -0.00000000000E+00 -0.31399552616E+02  0.31399552616E+02  0.00000000000E+00 0.  1.
         24    1    1    2    0    0  0.12825238788E+02 -0.78138941686E+02  0.13070867739E+03  0.17269092407E+03  0.80419002446E+02 0.  0.
        -24    1    1    2    0    0 -0.12825238788E+02  0.78138941686E+02  0.29553103037E+03  0.31634788892E+03  0.80419002446E+02 0.  0.
<mgrwt>
<rscale>  0 0.11286009E+03</rscale>
<asrwt>0</asrwt>
<pdfrwt beam="1">  1        2 0.70406035E-01 0.11286010E+03</pdfrwt>
<pdfrwt beam="2">  1       -2 0.48307007E-02 0.11286010E+03</pdfrwt>
<totfact> 0.13230601E+04</totfact>
</mgrwt>
</event>
<event>
 4    1  0.1491884E-001  0.1096449E+03  0.7546771E-02  0.1261229E+00
         -1   -1    0    0    0  501 -0.00000000000E+00  0.00000000000E+00  0.57311605559E+02  0.57311605559E+02  0.00000000000E+00 0.  1.
          1   -1    0    0  501    0  0.00000000000E+00 -0.00000000000E+00 -0.74000253770E+03  0.74000253770E+03  0.00000000000E+00 0. -1.
         24    1    1    2    0    0  0.51033235448E+02  0.54317460296E+02 -0.38888658817E+01  0.10971379515E+03  0.80419002446E+02 0.  1.
        -24    1    1    2    0    0 -0.51033235448E+02 -0.54317460296E+02 -0.67880206626E+03  0.68760034811E+03  0.80419002446E+02 0. -1.
<mgrwt>
<rscale>  0 0.10964485E+03</rscale>
<asrwt>0</asrwt>
<pdfrwt beam="1">  1        1 0.11384653E+00 0.10964485E+03</pdfrwt>
<pdfrwt beam="2">  1       -1 0.88171708E-02 0.10964485E+03</pdfrwt>
<totfact> 0.18916646E+03</totfact>
</mgrwt>
</event>
<event>
 4    1  0.1123525E-001  0.1354028E+03  0.7546771E-02  0.1219652E+00
          2   -1    0    0  501    0  0.00000000000E+00  0.00000000000E+00  0.13369125662E+04  0.13369125662E+04  0.00000000000E+00 0. -1.
         -2   -1    0    0    0  501 -0.00000000000E+00 -0.00000000000E+00 -0.15742734251E+02  0.15742734251E+02  0.00000000000E+00 0.  1.
         24    1    1    2    0    0 -0.79937394937E+02 -0.74004831103E+02  0.90339668676E+03  0.91348754328E+03  0.80419002446E+02 0. -1.
        -24    1    1    2    0    0  0.79937394937E+02  0.74004831103E+02  0.41777314515E+03  0.43916775713E+03  0.80419002446E+02 0.  1.
<mgrwt>
<rscale>  0 0.13540280E+03</rscale>
<asrwt>0</asrwt>
<pdfrwt beam="1">  1        2 0.20567877E+00 0.13540280E+03</pdfrwt>
<pdfrwt beam="2">  1       -2 0.24219602E-02 0.13540280E+03</pdfrwt>
<totfact> 0.94821365E+03</totfact>
</mgrwt>
</event>
<event>
 4    1  0.1123525E-001  0.1060857E+03  0.7546771E-02  0.1267995E+00
         -1   -1    0    0    0  501 -0.00000000000E+00  0.00000000000E+00  0.10132734200E+02  0.10132734200E+02  0.00000000000E+00 0.  1.
          1   -1    0    0  501    0  0.00000000000E+00 -0.00000000000E+00 -0.14802313499E+04  0.14802313499E+04  0.00000000000E+00 0. -1.
         24    1    1    2    0    0  0.82419414144E+01  0.68695216392E+02 -0.36271101910E+03  0.37790668383E+03  0.80419002446E+02 0.  1.
        -24    1    1    2    0    0 -0.82419414144E+01 -0.68695216392E+02 -0.11073875966E+04  0.11124574002E+04  0.80419002446E+02 0. -1.
<mgrwt>
<rscale>  0 0.10608571E+03</rscale>
<asrwt>0</asrwt>
<pdfrwt beam="1">  1        1 0.22772792E+00 0.10608571E+03</pdfrwt>
<pdfrwt beam="2">  1       -1 0.15588821E-02 0.10608571E+03</pdfrwt>
<totfact> 0.70436344E+03</totfact>
</mgrwt>
</event>
<event>
 4    1  0.1123525E-001  0.8392233E+02  0.7546771E-02  0.1318275E+00
         -2   -1    0    0    0  501 -0.00000000000E+00  0.00000000000E+00  0.95544086156E+01  0.95544086156E+01  0.00000000000E+00 0.  1.
          2   -1    0    0  501    0  0.00000000000E+00 -0.00000000000E+00 -0.24996496975E+04  0.24996496975E+04  0.00000000000E+00 0. -1.
         24    1    1    2    0    0 -0.15320175242E+02 -0.18467101071E+02 -0.22985412605E+04  0.23000727997E+04  0.80419002446E+02 0. -1.
        -24    1    1    2    0    0  0.15320175242E+02  0.18467101071E+02 -0.19155402836E+03  0.20913130642E+03  0.80419002446E+02 0.  1.
<mgrwt>
<rscale>  0 0.83922330E+02</rscale>
<asrwt>0</asrwt>
<pdfrwt beam="1">  1        2 0.38456165E+00 0.83922330E+02</pdfrwt>
<pdfrwt beam="2">  1       -2 0.14699084E-02 0.83922330E+02</pdfrwt>
<totfact> 0.48665199E+03</totfact>
</mgrwt>
</event>
<event>
 4    1  0.1123525E-001  0.8538894E+02  0.7546771E-02  0.1314419E+00
          4   -1    0    0  501    0  0.00000000000E+00  0.00000000000E+00  0.75367737893E+02  0.75367737893E+02  0.00000000000E+00 0. -1.
         -4   -1    0    0    0  501 -0.00000000000E+00 -0.00000000000E+00 -0.13580441220E+03  0.13580441220E+03  0.00000000000E+00 0.  1.
         24    1    1    2    0    0  0.28484740767E+02  0.35601116582E+01  0.26408969815E+02  0.89379552990E+02  0.80419002446E+02 0. -1.
        -24    1    1    2    0    0 -0.28484740767E+02 -0.35601116582E+01 -0.86845644119E+02  0.12179259710E+03  0.80419002446E+02 0.  0.
<mgrwt>
<rscale>  0 0.85388938E+02</rscale>
<asrwt>0</asrwt>
<pdfrwt beam="1">  1        4 0.11595037E-01 0.85388938E+02</pdfrwt>
<pdfrwt beam="2">  1       -4 0.20892986E-01 0.85388938E+02</pdfrwt>
<totfact> 0.18017785E+03</totfact>
</mgrwt>
</event>
<event>
 4    1  0.1123525E-001  0.8267241E+02  0.7546771E-02  0.1321634E+00
         -1   -1    0    0    0  501 -0.00000000000E+00  0.00000000000E+00  0.32714583263E+03  0.32714583263E+03  0.00000000000E+00 0.  1.
          1   -1    0    0  501    0  0.00000000000E+00 -0.00000000000E+00 -0.29563296418E+02  0.29563296418E+02  0.00000000000E+00 0. -1.
         24    1    1    2    0    0  0.14969428313E+02 -0.11976146237E+02  0.24538524326E+03  0.25893753190E+03  0.80419002446E+02 0.  1.
        -24    1    1    2    0    0 -0.14969428313E+02  0.11976146237E+02  0.52197292950E+02  0.97771597146E+02  0.80419002446E+02 0. -1.
<mgrwt>
<rscale>  0 0.82672413E+02</rscale>
<asrwt>0</asrwt>
<pdfrwt beam="1">  1        1 0.45481997E-02 0.82672413E+02</pdfrwt>
<pdfrwt beam="2">  1       -1 0.50330126E-01 0.82672413E+02</pdfrwt>
<totfact> 0.69961278E+03</totfact>
</mgrwt>
</event>
<event>
 4    1  0.1123525E-001  0.8424733E+02  0.7546771E-02  0.1317413E+00
          2   -1    0    0  501    0  0.00000000000E+00  0.00000000000E+00  0.13732624356E+04  0.13732624356E+04  0.00000000000E+00 0. -1.
         -2   -1    0    0    0  501 -0.00000000000E+00 -0.00000000000E+00 -0.54500580655E+01  0.54500580655E+01  0.00000000000E+00 0.  1.
         24    1    1    2    0    0 -0.23131486324E+02  0.97637656060E+01  0.84061016435E+03  0.84482131907E+03  0.80419002446E+02 0. -1.
        -24    1    1    2    0    0  0.23131486324E+02 -0.97637656060E+01  0.52720221315E+03  0.53389117457E+03  0.80419002446E+02 0. -1.
<mgrwt>
<rscale>  0 0.84247331E+02</rscale>
<asrwt>0</asrwt>
<pdfrwt beam="1">  1        2 0.21127087E+00 0.84247331E+02</pdfrwt>
<pdfrwt beam="2">  1       -2 0.83847157E-03 0.84247331E+02</pdfrwt>
<totfact> 0.40088784E+04</totfact>
</mgrwt>
</event>
<event>
 4    1  0.1123525E-001  0.1067067E+03  0.7546771E-02  0.1266793E+00
         -2   -1    0    0    0  501 -0.00000000000E+00  0.00000000000E+00  0.16313020771E+03  0.16313020771E+03  0.00000000000E+00 0.  1.
          2   -1    0    0  501    0  0.00000000000E+00 -0.00000000000E+00 -0.93706561039E+02  0.93706561039E+02  0.00000000000E+00 0. -1.
         24    1    1    2    0    0  0.67459670538E+02  0.19190845411E+02 -0.30153203512E+02  0.11088519889E+03  0.80419002446E+02 0.  1.
        -24    1    1    2    0    0 -0.67459670538E+02 -0.19190845411E+02  0.99576850178E+02  0.14595156985E+03  0.80419002446E+02 0.  0.
<mgrwt>
<rscale>  0 0.10670666E+03</rscale>
<asrwt>0</asrwt>
<pdfrwt beam="1">  1        2 0.14416394E-01 0.10670666E+03</pdfrwt>
<pdfrwt beam="2">  1       -2 0.25096955E-01 0.10670666E+03</pdfrwt>
<totfact> 0.53918828E+03</totfact>
</mgrwt>
</event>
<event>
 4    1  0.1123525E-001  0.8242106E+02  0.7546771E-02  0.1322318E+00
          2   -1    0    0  501    0  0.00000000000E+00  0.00000000000E+00  0.23925479207E+04  0.23925479207E+04  0.00000000000E+00 0. -1.
         -2   -1    0    0    0  501 -0.00000000000E+00 -0.00000000000E+00 -0.29190344105E+01  0.29190344105E+01  0.00000000000E+00 0.  1.
         24    1    1    2    0    0 -0.26883369611E+00  0.18053790399E+02  0.99689519287E+03  0.10002965826E+04  0.80419002446E+02 0.  1.
        -24    1    1    2    0    0  0.26883369611E+00 -0.18053790399E+02  0.13927336935E+04  0.13951703726E+04  0.80419002446E+02 0. -1.
<mgrwt>
<rscale>  0 0.82421049E+02</rscale>
<asrwt>0</asrwt>
<pdfrwt beam="1">  1        2 0.36808273E+00 0.82421059E+02</pdfrwt>
<pdfrwt beam="2">  1       -2 0.44908413E-03 0.82421059E+02</pdfrwt>
<totfact> 0.29346487E+04</totfact>
</mgrwt>
</event>
<event>
 4    1  0.1123525E-001  0.8780001E+02  0.7546771E-02  0.1308268E+00
          4   -1    0    0  501    0  0.00000000000E+00  0.00000000000E+00  0.15782614144E+03  0.15782614144E+03  0.00000000000E+00 0. -1.
         -4   -1    0    0    0  501 -0.00000000000E+00 -0.00000000000E+00 -0.76098888110E+02  0.76098888110E+02  0.00000000000E+00 0.  1.
         24    1    1    2    0    0  0.14735740719E+02  0.32007557143E+02  0.11086082680E+03  0.14141769565E+03  0.80419002446E+02 0. -1.
        -24    1    1    2    0    0 -0.14735740719E+02 -0.32007557143E+02 -0.29133573469E+02  0.92507333905E+02  0.80419002446E+02 0.  1.
<mgrwt>
<rscale>  0 0.87800010E+02</rscale>
<asrwt>0</asrwt>
<pdfrwt beam="1">  1        4 0.24280945E-01 0.87800010E+02</pdfrwt>
<pdfrwt beam="2">  1       -4 0.11707521E-01 0.87800010E+02</pdfrwt>
<totfact> 0.13614281E+03</totfact>
</mgrwt>
</event>
<event>
 4    1  0.1123525E-001  0.9141690E+02  0.7546771E-02  0.1299456E+00
          1   -1    0    0  501    0  0.00000000000E+00  0.00000000000E+00  0.25496371450E+03  0.25496371450E+03  0.00000000000E+00 0. -1.
         -1   -1    0    0    0  501 -0.00000000000E+00 -0.00000000000E+00 -0.34451375413E+02  0.34451375413E+02  0.00000000000E+00 0.  1.
         24    1    1    2    0    0  0.40582694496E+02 -0.15584448692E+02  0.14215415298E+03  0.16901138807E+03  0.80419002446E+02 0. -1.
        -24    1    1    2    0    0 -0.40582694496E+02  0.15584448692E+02  0.78358186116E+02  0.12040370185E+03  0.80419002446E+02 0.  1.
<mgrwt>
<rscale>  0 0.91416892E+02</rscale>
<asrwt>0</asrwt>
<pdfrwt beam="1">  1        1 0.39225186E-01 0.91416904E+02</pdfrwt>
<pdfrwt beam="2">  1       -1 0.53002118E-02 0.91416904E+02</pdfrwt>
<totfact> 0.15650882E+04</totfact>
</mgrwt>
</event>
<event>
 4    1  0.1123525E-001  0.1142080E+03  0.7546771E-02  0.1252970E+00
         -1   -1    0    0    0  501 -0.00000000000E+00  0.00000000000E+00  0.22034653375E+02  0.22034653375E+02  0.00000000000E+00 0.  1.
          1   -1    0    0  501    0  0.00000000000E+00 -0.00000000000E+00 -0.62230535134E+03  0.62230535134E+03  0.00000000000E+00 0. -1.
         24    1    1    2    0    0  0.12887267918E+02  0.80063502219E+02 -0.22898368323E+03  0.25588471858E+03  0.80419002446E+02 0.  1.
        -24    1    1    2    0    0 -0.12887267918E+02 -0.80063502219E+02 -0.37128701474E+03  0.38845528614E+03  0.80419002446E+02 0.  0.
<mgrwt>
<rscale>  0 0.11420798E+03</rscale>
<asrwt>0</asrwt>
<pdfrwt beam="1">  1        1 0.95739280E-01 0.11420798E+03</pdfrwt>
<pdfrwt beam="2">  1       -1 0.33899469E-02 0.11420798E+03</pdfrwt>
<totfact> 0.99289717E+03</totfact>
</mgrwt>
</event>
<event>
 4    1  0.1123525E-001  0.1455994E+03  0.7546771E-02  0.1205987E+00
         -1   -1    0    0    0  501 -0.00000000000E+00  0.00000000000E+00  0.11281112981E+04  0.11281112981E+04  0.00000000000E+00 0.  1.
          1   -1    0    0  501    0  0.00000000000E+00 -0.00000000000E+00 -0.10622925632E+03  0.10622925632E+03  0.00000000000E+00 0. -1.
         24    1    1    2    0    0 -0.10433019774E+03 -0.62025726261E+02  0.10708685089E+04  0.10807213148E+04  0.80419002446E+02 0.  1.
        -24    1    1    2    0    0  0.10433019774E+03  0.62025726261E+02 -0.48986467120E+02  0.15361923966E+03  0.80419002446E+02 0. -1.
<mgrwt>
<rscale>  0 0.14559944E+03</rscale>
<asrwt>0</asrwt>
<pdfrwt beam="1">  1        1 0.16342963E-01 0.14559944E+03</pdfrwt>
<pdfrwt beam="2">  1       -1 0.17355558E+00 0.14559944E+03</pdfrwt>
<totfact> 0.86919580E+01</totfact>
</mgrwt>
</event>
<event>
 4    1  0.1123525E-001  0.1373920E+03  0.7546771E-02  0.1216882E+00
         -2   -1    0    0    0  501 -0.00000000000E+00  0.00000000000E+00  0.15355657579E+02  0.15355657579E+02  0.00000000000E+00 0.  1.
          2   -1    0    0  501    0  0.00000000000E+00 -0.00000000000E+00 -0.14938583983E+04  0.14938583983E+04  0.00000000000E+00 0. -1.
         24    1    1    2    0    0 -0.17095986427E+02  0.11007763772E+03 -0.10568174533E+04  0.10657108917E+04  0.80419002446E+02 0. -1.
        -24    1    1    2    0    0  0.17095986427E+02 -0.11007763772E+03 -0.42168528742E+03  0.44350316420E+03  0.80419002446E+02 0.  1.
<mgrwt>
<rscale>  0 0.13739205E+03</rscale>
<asrwt>0</asrwt>
<pdfrwt beam="1">  1        2 0.22982442E+00 0.13739205E+03</pdfrwt>
<pdfrwt beam="2">  1       -2 0.23624084E-02 0.13739205E+03</pdfrwt>
<totfact> 0.81310688E+03</totfact>
</mgrwt>
</event>
<event>
 4    1  0.1123525E-001  0.1208841E+03  0.7546771E-02  0.1241646E+00
          1   -1    0    0  501    0  0.00000000000E+00  0.00000000000E+00  0.10925475857E+03  0.10925475857E+03  0.00000000000E+00 0. -1.
         -1   -1    0    0    0  501 -0.00000000000E+00 -0.00000000000E+00 -0.21448467645E+03  0.21448467645E+03  0.00000000000E+00 0.  1.
         24    1    1    2    0    0  0.65752234105E+02  0.61825510146E+02 -0.15192519924E+03  0.19415002476E+03  0.80419002446E+02 0.  1.
        -24    1    1    2    0    0 -0.65752234105E+02 -0.61825510146E+02  0.46695281369E+02  0.12958941026E+03  0.80419002446E+02 0. -1.
<mgrwt>
<rscale>  0 0.12088410E+03</rscale>
<asrwt>0</asrwt>
<pdfrwt beam="1">  1        1 0.16808425E-01 0.12088410E+03</pdfrwt>
<pdfrwt beam="2">  1       -1 0.32997642E-01 0.12088410E+03</pdfrwt>
<totfact> 0.26739030E+03</totfact>
</mgrwt>
</event>
<event>
 4    1  0.1123525E-001  0.1014266E+03  0.7546771E-02  0.1277324E+00
         -1   -1    0    0    0  501 -0.00000000000E+00  0.00000000000E+00  0.92728422385E+01  0.92728422385E+01  0.00000000000E+00 0.  1.
          1   -1    0    0  501    0  0.00000000000E+00 -0.00000000000E+00 -0.11373607777E+04  0.11373607777E+04  0.00000000000E+00 0. -1.
         24    1    1    2    0    0  0.61489706928E+02  0.62576476238E+01 -0.47416376041E+03  0.48489032766E+03  0.80419002446E+02 0.  1.
        -24    1    1    2    0    0 -0.61489706928E+02 -0.62576476238E+01 -0.65392417501E+03  0.66174329225E+03  0.80419002446E+02 0. -1.
<mgrwt>
<rscale>  0 0.10142661E+03</rscale>
<asrwt>0</asrwt>
<pdfrwt beam="1">  1        1 0.17497859E+00 0.10142661E+03</pdfrwt>
<pdfrwt beam="2">  1       -1 0.14265911E-02 0.10142661E+03</pdfrwt>
<totfact> 0.13444183E+04</totfact>
</mgrwt>
</event>
<event>
 4    1  0.1123525E-001  0.9502392E+02  0.7546771E-02  0.1291122E+00
          2   -1    0    0  501    0  0.00000000000E+00  0.00000000000E+00  0.72000188704E+02  0.72000188704E+02  0.00000000000E+00 0. -1.
         -2   -1    0    0    0  501 -0.00000000000E+00 -0.00000000000E+00 -0.21304095754E+03  0.21304095754E+03  0.00000000000E+00 0.  1.
         24    1    1    2    0    0 -0.46072804649E+02 -0.20967272624E+02  0.20885617297E+02  0.97292110748E+02  0.80419002446E+02 0.  0.
        -24    1    1    2    0    0  0.46072804649E+02  0.20967272624E+02 -0.16192638614E+03  0.18774903550E+03  0.80419002446E+02 0. -1.
<mgrwt>
<rscale>  0 0.95023922E+02</rscale>
<asrwt>0</asrwt>
<pdfrwt beam="1">  1        2 0.11076952E-01 0.95023922E+02</pdfrwt>
<pdfrwt beam="2">  1       -2 0.32775532E-01 0.95023922E+02</pdfrwt>
<totfact> 0.45479033E+03</totfact>
</mgrwt>
</event>
<event>
 4    1  0.1123525E-001  0.8094176E+02  0.7546771E-02  0.1326400E+00
         -2   -1    0    0    0  501 -0.00000000000E+00  0.00000000000E+00  0.43522828856E+02  0.43522828856E+02  0.00000000000E+00 0.  1.
          2   -1    0    0  501    0  0.00000000000E+00 -0.00000000000E+00 -0.16620323253E+03  0.16620323253E+03  0.00000000000E+00 0. -1.
         24    1    1    2    0    0 -0.30051634081E+01  0.86788288652E+01 -0.93540304426E+02  0.12369865635E+03  0.80419002446E+02 0.  0.
        -24    1    1    2    0    0  0.30051634081E+01 -0.86788288652E+01 -0.29140099246E+02  0.86027405029E+02  0.80419002446E+02 0.  0.
<mgrwt>
<rscale>  0 0.80941763E+02</rscale>
<asrwt>0</asrwt>
<pdfrwt beam="1">  1        2 0.25569728E-01 0.80941763E+02</pdfrwt>
<pdfrwt beam="2">  1       -2 0.66958198E-02 0.80941763E+02</pdfrwt>
<totfact> 0.22928550E+04</totfact>
</mgrwt>
</event>
<event>
 4    1  0.1123525E-001  0.1183621E+03  0.7546771E-02  0.1245824E+00
         -2   -1    0    0    0  501 -0.00000000000E+00  0.00000000000E+00  0.64994053039E+02  0.64994053039E+02  0.00000000000E+00 0.  1.
          2   -1    0    0  501    0  0.00000000000E+00 -0.00000000000E+00 -0.23454790111E+03  0.23454790111E+03  0.00000000000E+00 0. -1.
         24    1    1    2    0    0 -0.80649890081E+02  0.32217408944E+02 -0.12739998587E+03  0.17389749441E+03  0.80419002446E+02 0. -1.
        -24    1    1    2    0    0  0.80649890081E+02 -0.32217408944E+02 -0.42153862200E+02  0.12564445973E+03  0.80419002446E+02 0.  1.
<mgrwt>
<rscale>  0 0.11836208E+03</rscale>
<asrwt>0</asrwt>
<pdfrwt beam="1">  1        2 0.36084293E-01 0.11836208E+03</pdfrwt>
<pdfrwt beam="2">  1       -2 0.99990849E-02 0.11836208E+03</pdfrwt>
<totfact> 0.88884809E+03</totfact>
</mgrwt>
</event>
<event>
 4    1  0.1123525E-001  0.1263782E+03  0.7546771E-02  0.1232931E+00
          2   -1    0    0  501    0  0.00000000000E+00  0.00000000000E+00  0.63867816605E+03  0.63867816605E+03  0.00000000000E+00 0. -1.
         -2   -1    0    0    0  501 -0.00000000000E+00 -0.00000000000E+00 -0.25427172095E+02  0.25427172095E+02  0.00000000000E+00 0.  1.
         24    1    1    2    0    0  0.96585914574E+02  0.13243741618E+02  0.34930801066E+03  0.37146673855E+03  0.80419002446E+02 0.  0.
        -24    1    1    2    0    0 -0.96585914574E+02 -0.13243741618E+02  0.26394298330E+03  0.29263859960E+03  0.80419002446E+02 0.  1.
<mgrwt>
<rscale>  0 0.12637821E+03</rscale>
<asrwt>0</asrwt>
<pdfrwt beam="1">  1        2 0.98258167E-01 0.12637821E+03</pdfrwt>
<pdfrwt beam="2">  1       -2 0.39118731E-02 0.12637821E+03</pdfrwt>
<totfact> 0.12617147E+04</totfact>
</mgrwt>
</event>
<event>
 4    1  0.1123525E-001  0.9163461E+02  0.7546771E-02  0.1298941E+00
         -2   -1    0    0    0  501 -0.00000000000E+00  0.00000000000E+00  0.51001322122E+02  0.51001322122E+02  0.00000000000E+00 0.  1.
          2   -1    0    0  501    0  0.00000000000E+00 -0.00000000000E+00 -0.23944943103E+03  0.23944943103E+03  0.00000000000E+00 0. -1.
         24    1    1    2    0    0 -0.43911550444E+02  0.12093006517E+01 -0.17539698477E+03  0.19789139671E+03  0.80419002446E+02 0. -1.
        -24    1    1    2    0    0  0.43911550444E+02 -0.12093006517E+01 -0.13051124143E+02  0.92559356449E+02  0.80419002446E+02 0.  1.
<mgrwt>
<rscale>  0 0.91634615E+02</rscale>
<asrwt>0</asrwt>
<pdfrwt beam="1">  1        2 0.36838373E-01 0.91634615E+02</pdfrwt>
<pdfrwt beam="2">  1       -2 0.78463574E-02 0.91634615E+02</pdfrwt>
<totfact> 0.12377148E+04</totfact>
</mgrwt>
</event>
<event>
 4    1  0.1123525E-001  0.8865209E+02  0.7546771E-02  0.1306149E+00
          1   -1    0    0  501    0  0.00000000000E+00  0.00000000000E+00  0.10842111380E+02  0.10842111380E+02  0.00000000000E+00 0. -1.
         -1   -1    0    0    0  501 -0.00000000000E+00 -0.00000000000E+00 -0.94023077822E+03  0.94023077822E+03  0.00000000000E+00 0.  1.
         24    1    1    2    0    0 -0.72567248334E+01 -0.36596689756E+02 -0.69227907654E+03  0.69793231300E+03  0.80419002446E+02 0.  0.
        -24    1    1    2    0    0  0.72567248334E+01  0.36596689756E+02 -0.23710959030E+03  0.25314057660E+03  0.80419002446E+02 0.  0.
<mgrwt>
<rscale>  0 0.88652094E+02</rscale>
<asrwt>0</asrwt>
<pdfrwt beam="1">  1        1 0.16680165E-02 0.88652094E+02</pdfrwt>
<pdfrwt beam="2">  1       -1 0.14465094E+00 0.88652094E+02</pdfrwt>
<totfact> 0.30394756E+03</totfact>
</mgrwt>
</event>
<event>
 4    1  0.1123525E-001  0.9174166E+02  0.7546771E-02  0.1298688E+00
         -2   -1    0    0    0  501 -0.00000000000E+00  0.00000000000E+00  0.69949753217E+02  0.69949753217E+02  0.00000000000E+00 0.  1.
          2   -1    0    0  501    0  0.00000000000E+00 -0.00000000000E+00 -0.48579067390E+03  0.48579067390E+03  0.00000000000E+00 0. -1.
         24    1    1    2    0    0  0.34263357614E+00  0.44149728834E+02 -0.44893440274E+03  0.45821242876E+03  0.80419002446E+02 0. -1.
        -24    1    1    2    0    0 -0.34263357614E+00 -0.44149728834E+02  0.33093482058E+02  0.97527998354E+02  0.80419002446E+02 0.  1.
<mgrwt>
<rscale>  0 0.91741659E+02</rscale>
<asrwt>0</asrwt>
<pdfrwt beam="1">  1        2 0.74737028E-01 0.91741659E+02</pdfrwt>
<pdfrwt beam="2">  1       -2 0.10761500E-01 0.91741659E+02</pdfrwt>
<totfact> 0.36088463E+03</totfact>
</mgrwt>
</event>
<event>
 4    1  0.1406018E-001  0.8314912E+02  0.7546771E-02  0.1320345E+00
         -1   -1    0    0    0  501 -0.00000000000E+00  0.00000000000E+00  0.37005028577E+02  0.37005028577E+02  0.00000000000E+00 0.  1.
          1   -1    0    0  501    0  0.00000000000E+00 -0.00000000000E+00 -0.68796902742E+03  0.68796902742E+03  0.00000000000E+00 0. -1.
         24    1    1    2    0    0  0.20696097474E+02  0.42699015477E+01 -0.16106688842E+02  0.84694757156E+02  0.80419002446E+02 0.  1.
        -24    1    1    2    0    0 -0.20696097474E+02 -0.42699015477E+01 -0.63485731000E+03  0.64027929885E+03  0.80419002446E+02 0. -1.
<mgrwt>
<rscale>  0 0.83149122E+02</rscale>
<asrwt>0</asrwt>
<pdfrwt beam="1">  1        1 0.10584138E+00 0.83149122E+02</pdfrwt>
<pdfrwt beam="2">  1       -1 0.56930818E-02 0.83149122E+02</pdfrwt>
<totfact> 0.39770735E+03</totfact>
</mgrwt>
</event>
<event>
 4    1  0.1123525E-001  0.1370364E+03  0.7546771E-02  0.1217373E+00
          1   -1    0    0  501    0  0.00000000000E+00  0.00000000000E+00  0.38255778605E+03  0.38255778605E+03  0.00000000000E+00 0. -1.
         -1   -1    0    0    0  501 -0.00000000000E+00 -0.00000000000E+00 -0.58610749905E+02  0.58610749905E+02  0.00000000000E+00 0.  1.
         24    1    1    2    0    0  0.53789859846E+02 -0.97048467893E+02  0.73059821661E+02  0.15529554932E+03  0.80419002446E+02 0. -1.
        -24    1    1    2    0    0 -0.53789859846E+02  0.97048467893E+02  0.25088721449E+03  0.28587298664E+03  0.80419002446E+02 0.  0.
<mgrwt>
<rscale>  0 0.13703638E+03</rscale>
<asrwt>0</asrwt>
<pdfrwt beam="1">  1        1 0.58855042E-01 0.13703638E+03</pdfrwt>
<pdfrwt beam="2">  1       -1 0.90170387E-02 0.13703638E+03</pdfrwt>
<totfact> 0.44289624E+03</totfact>
</mgrwt>
</event>
<event>
 4    1  0.1123525E-001  0.1054425E+03  0.7546771E-02  0.1269250E+00
         -2   -1    0    0    0  501 -0.00000000000E+00  0.00000000000E+00  0.24883429372E+02  0.24883429372E+02  0.00000000000E+00 0.  1.
          2   -1    0    0  501    0  0.00000000000E+00 -0.00000000000E+00 -0.89411122117E+03  0.89411122117E+03  0.00000000000E+00 0. -1.
         24    1    1    2    0    0 -0.27653452123E+02  0.62339369282E+02 -0.75961737711E+03  0.76690070149E+03  0.80419002446E+02 0. -1.
        -24    1    1    2    0    0  0.27653452123E+02 -0.62339369282E+02 -0.10961041468E+03  0.15209394905E+03  0.80419002446E+02 0.  1.
<mgrwt>
<rscale>  0 0.10544253E+03</rscale>
<asrwt>0</asrwt>
<pdfrwt beam="1">  1        2 0.13755559E+00 0.10544253E+03</pdfrwt>
<pdfrwt beam="2">  1       -2 0.38282195E-02 0.10544253E+03</pdfrwt>
<totfact> 0.85576450E+03</totfact>
</mgrwt>
</event>
<event>
 4    1  0.1123525E-001  0.8718785E+02  0.7546771E-02  0.1309808E+00
          2   -1    0    0  501    0  0.00000000000E+00  0.00000000000E+00  0.81590349937E+02  0.81590349937E+02  0.00000000000E+00 0. -1.
         -2   -1    0    0    0  501 -0.00000000000E+00 -0.00000000000E+00 -0.21025529303E+03  0.21025529303E+03  0.00000000000E+00 0.  1.
         24    1    1    2    0    0 -0.31955615848E+02 -0.10646270477E+02  0.44561068405E+02  0.97915316632E+02  0.80419002446E+02 0. -1.
        -24    1    1    2    0    0  0.31955615848E+02  0.10646270477E+02 -0.17322601150E+03  0.19393032634E+03  0.80419002446E+02 0.  1.
<mgrwt>
<rscale>  0 0.87187846E+02</rscale>
<asrwt>0</asrwt>
<pdfrwt beam="1">  1        2 0.12552362E-01 0.87187846E+02</pdfrwt>
<pdfrwt beam="2">  1       -2 0.32346967E-01 0.87187846E+02</pdfrwt>
<totfact> 0.39872513E+03</totfact>
</mgrwt>
</event>
<event>
 4    1  0.1123525E-001  0.1172503E+03  0.7546771E-02  0.1247703E+00
         -1   -1    0    0    0  501 -0.00000000000E+00  0.00000000000E+00  0.77441863788E+01  0.77441863788E+01  0.00000000000E+00 0.  1.
          1   -1    0    0  501    0  0.00000000000E+00 -0.00000000000E+00 -0.20532864335E+04  0.20532864335E+04  0.00000000000E+00 0. -1.
         24    1    1    2    0    0 -0.85112956606E+02 -0.60160662219E+01 -0.64353911461E+03  0.65413317943E+03  0.80419002446E+02 0.  1.
        -24    1    1    2    0    0  0.85112956606E+02  0.60160662219E+01 -0.14020031326E+04  0.14068974405E+04  0.80419002446E+02 0. -1.
<mgrwt>
<rscale>  0 0.11725026E+03</rscale>
<asrwt>0</asrwt>
<pdfrwt beam="1">  1        1 0.31589035E+00 0.11725026E+03</pdfrwt>
<pdfrwt beam="2">  1       -1 0.11914128E-02 0.11725026E+03</pdfrwt>
<totfact> 0.44895818E+03</totfact>
</mgrwt>
</event>
<event>
 4    1  0.1123525E-001  0.1037258E+03  0.7546771E-02  0.1272651E+00
         -2   -1    0    0    0  501 -0.00000000000E+00  0.00000000000E+00  0.50505105552E+01  0.50505105552E+01  0.00000000000E+00 0.  1.
          2   -1    0    0  501    0  0.00000000000E+00 -0.00000000000E+00 -0.24282289207E+04  0.24282289207E+04  0.00000000000E+00 0. -1.
         24    1    1    2    0    0 -0.36165988902E+02 -0.54624529823E+02 -0.16377597374E+04  0.16410411303E+04  0.80419002446E+02 0. -1.
        -24    1    1    2    0    0  0.36165988902E+02  0.54624529823E+02 -0.78541867272E+03  0.79223830090E+03  0.80419002446E+02 0.  1.
<mgrwt>
<rscale>  0 0.10372576E+03</rscale>
<asrwt>0</asrwt>
<pdfrwt beam="1">  1        2 0.37357442E+00 0.10372576E+03</pdfrwt>
<pdfrwt beam="2">  1       -2 0.77700008E-03 0.10372576E+03</pdfrwt>
<totfact> 0.13165965E+04</totfact>
</mgrwt>
</event>
<event>
 4    1  0.1123525E-001  0.1216476E+03  0.7546771E-02  0.1240404E+00
          1   -1    0    0  501    0  0.00000000000E+00  0.00000000000E+00  0.73992149593E+03  0.73992149593E+03  0.00000000000E+00 0. -1.
         -1   -1    0    0    0  501 -0.00000000000E+00 -0.00000000000E+00 -0.20098879550E+02  0.20098879550E+02  0.00000000000E+00 0.  1.
         24    1    1    2    0    0  0.66814414816E+02 -0.62183218179E+02  0.33320355958E+03  0.35471502184E+03  0.80419002446E+02 0.  1.
        -24    1    1    2    0    0 -0.66814414816E+02  0.62183218179E+02  0.38661905680E+03  0.40530535364E+03  0.80419002446E+02 0. -1.
<mgrwt>
<rscale>  0 0.12164758E+03</rscale>
<asrwt>0</asrwt>
<pdfrwt beam="1">  1        1 0.11383406E+00 0.12164758E+03</pdfrwt>
<pdfrwt beam="2">  1       -1 0.30921359E-02 0.12164758E+03</pdfrwt>
<totfact> 0.89330259E+03</totfact>
</mgrwt>
</event>
<event>
 4    1  0.1123525E-001  0.1092046E+03  0.7546771E-02  0.1262050E+00
          2   -1    0    0  501    0  0.00000000000E+00  0.00000000000E+00  0.23887779245E+03  0.23887779245E+03  0.00000000000E+00 0. -1.
         -2   -1    0    0    0  501 -0.00000000000E+00 -0.00000000000E+00 -0.52907114451E+02  0.52907114451E+02  0.00000000000E+00 0.  1.
         24    1    1    2    0    0 -0.26143815741E+02  0.69100941452E+02  0.12762989874E+03  0.16797334973E+03  0.80419002446E+02 0. -1.
        -24    1    1    2    0    0  0.26143815741E+02 -0.69100941452E+02  0.58340779255E+02  0.12381155717E+03  0.80419002446E+02 0.  1.
<mgrwt>
<rscale>  0 0.10920465E+03</rscale>
<asrwt>0</asrwt>
<pdfrwt beam="1">  1        2 0.36750429E-01 0.10920465E+03</pdfrwt>
<pdfrwt beam="2">  1       -2 0.81395562E-02 0.10920465E+03</pdfrwt>
<totfact> 0.11917448E+04</totfact>
</mgrwt>
</event>
<event>
 4    1  0.1123525E-001  0.8405375E+02  0.7546771E-02  0.1317926E+00
          1   -1    0    0  501    0  0.00000000000E+00  0.00000000000E+00  0.47297151211E+02  0.47297151211E+02  0.00000000000E+00 0. -1.
         -1   -1    0    0    0  501 -0.00000000000E+00 -0.00000000000E+00 -0.20336725827E+03  0.20336725827E+03  0.00000000000E+00 0.  1.
         24    1    1    2    0    0 -0.12159449158E+02  0.21212377859E+02 -0.14261327926E+03  0.16554026868E+03  0.80419002446E+02 0.  0.
        -24    1    1    2    0    0  0.12159449158E+02 -0.21212377859E+02 -0.13456827795E+02  0.85124140800E+02  0.80419002446E+02 0. -1.
<mgrwt>
<rscale>  0 0.84053751E+02</rscale>
<asrwt>0</asrwt>
<pdfrwt beam="1">  1        1 0.72764848E-02 0.84053751E+02</pdfrwt>
<pdfrwt beam="2">  1       -1 0.31287270E-01 0.84053751E+02</pdfrwt>
<totfact> 0.84995372E+03</totfact>
</mgrwt>
</event>
<event>
 4    1  0.1123525E-001  0.8570553E+02  0.7546771E-02  0.1313598E+00
          2   -1    0    0  501    0  0.00000000000E+00  0.00000000000E+00  0.27632915080E+02  0.27632915080E+02  0.00000000000E+00 0. -1.
         -2   -1    0    0    0  501 -0.00000000000E+00 -0.00000000000E+00 -0.27734066292E+03  0.27734066292E+03  0.00000000000E+00 0.  1.
         24    1    1    2    0    0  0.17787564027E+02 -0.23702831798E+02 -0.93777818668E+02  0.12704218550E+03  0.80419002446E+02 0. -1.
        -24    1    1    2    0    0 -0.17787564027E+02  0.23702831798E+02 -0.15592992917E+03  0.17793139249E+03  0.80419002446E+02 0.  1.
<mgrwt>
<rscale>  0 0.85705529E+02</rscale>
<asrwt>0</asrwt>
<pdfrwt beam="1">  1        2 0.42512176E-02 0.85705529E+02</pdfrwt>
<pdfrwt beam="2">  1       -2 0.42667795E-01 0.85705529E+02</pdfrwt>
<totfact> 0.91912324E+03</totfact>
</mgrwt>
</event>
<event>
 4    1  0.1123525E-001  0.1140283E+03  0.7546771E-02  0.1253287E+00
         -2   -1    0    0    0  501 -0.00000000000E+00  0.00000000000E+00  0.58243900810E+01  0.58243900810E+01  0.00000000000E+00 0.  1.
          2   -1    0    0  501    0  0.00000000000E+00 -0.00000000000E+00 -0.22352293452E+04  0.22352293452E+04  0.00000000000E+00 0. -1.
         24    1    1    2    0    0 -0.39627094979E+02  0.70462274131E+02 -0.10749408246E+04  0.10809718919E+04  0.80419002446E+02 0.  1.
        -24    1    1    2    0    0  0.39627094979E+02 -0.70462274131E+02 -0.11544641305E+04  0.11600818434E+04  0.80419002446E+02 0. -1.
<mgrwt>
<rscale>  0 0.11402832E+03</rscale>
<asrwt>0</asrwt>
<pdfrwt beam="1">  1        2 0.34388085E+00 0.11402834E+03</pdfrwt>
<pdfrwt beam="2">  1       -2 0.89606153E-03 0.11402834E+03</pdfrwt>
<totfact> 0.13593750E+04</totfact>
</mgrwt>
</event>
<event>
 4    1  0.1123525E-001  0.8209931E+02  0.7546771E-02  0.1323197E+00
         -1   -1    0    0    0  501 -0.00000000000E+00  0.00000000000E+00  0.10787275800E+02  0.10787275800E+02  0.00000000000E+00 0.  1.
          1   -1    0    0  501    0  0.00000000000E+00 -0.00000000000E+00 -0.80872375575E+03  0.80872375575E+03  0.00000000000E+00 0. -1.
         24    1    1    2    0    0 -0.10965100384E+02 -0.12363147708E+02 -0.20357970127E+03  0.21951080058E+03  0.80419002446E+02 0.  1.
        -24    1    1    2    0    0  0.10965100384E+02  0.12363147708E+02 -0.59435677868E+03  0.60000023097E+03  0.80419002446E+02 0. -1.
<mgrwt>
<rscale>  0 0.82099311E+02</rscale>
<asrwt>0</asrwt>
<pdfrwt beam="1">  1        1 0.12441903E+00 0.82099311E+02</pdfrwt>
<pdfrwt beam="2">  1       -1 0.16595810E-02 0.82099311E+02</pdfrwt>
<totfact> 0.18563987E+04</totfact>
</mgrwt>
</event>
<event>
 4    1  0.1123525E-001  0.1207318E+03  0.7546771E-02  0.1241895E+00
          1   -1    0    0  501    0  0.00000000000E+00  0.00000000000E+00  0.77835098500E+03  0.77835098500E+03  0.00000000000E+00 0. -1.
         -1   -1    0    0    0  501 -0.00000000000E+00 -0.00000000000E+00 -0.36980691846E+02  0.36980691846E+02  0.00000000000E+00 0.  1.
         24    1    1    2    0    0 -0.47597831646E+01  0.89923801342E+02  0.84272344166E+02  0.14723447127E+03  0.80419002446E+02 0.  1.
        -24    1    1    2    0    0  0.47597831646E+01 -0.89923801342E+02  0.65709794899E+03  0.66809720558E+03  0.80419002446E+02 0. -1.
<mgrwt>
<rscale>  0 0.12073178E+03</rscale>
<asrwt>0</asrwt>
<pdfrwt beam="1">  1        1 0.11974629E+00 0.12073178E+03</pdfrwt>
<pdfrwt beam="2">  1       -1 0.56893378E-02 0.12073178E+03</pdfrwt>
<totfact> 0.33902100E+03</totfact>
</mgrwt>
</event>
<event>
 4    1  0.1123525E-001  0.9097770E+02  0.7546771E-02  0.1300501E+00
          2   -1    0    0  501    0  0.00000000000E+00  0.00000000000E+00  0.17623151292E+04  0.17623151292E+04  0.00000000000E+00 0. -1.
         -2   -1    0    0    0  501 -0.00000000000E+00 -0.00000000000E+00 -0.62260845231E+01  0.62260845231E+01  0.00000000000E+00 0.  1.
         24    1    1    2    0    0 -0.14945244884E+02 -0.39829157984E+02  0.43976993654E+03  0.44908188030E+03  0.80419002446E+02 0.  1.
        -24    1    1    2    0    0  0.14945244884E+02  0.39829157984E+02  0.13163191082E+04  0.13194593334E+04  0.80419002446E+02 0.  1.
<mgrwt>
<rscale>  0 0.90977691E+02</rscale>
<asrwt>0</asrwt>
<pdfrwt beam="1">  1        2 0.27112501E+00 0.90977702E+02</pdfrwt>
<pdfrwt beam="2">  1       -2 0.95786056E-03 0.90977702E+02</pdfrwt>
<totfact> 0.21214110E+04</totfact>
</mgrwt>
</event>
<event>
 4    1  0.1123525E-001  0.1222187E+03  0.7546771E-02  0.1239481E+00
          2   -1    0    0  501    0  0.00000000000E+00  0.00000000000E+00  0.80507499976E+02  0.80507499976E+02  0.00000000000E+00 0. -1.
         -2   -1    0    0    0  501 -0.00000000000E+00 -0.00000000000E+00 -0.26438271202E+03  0.26438271202E+03  0.00000000000E+00 0.  1.
         24    1    1    2    0    0  0.80060876308E+02  0.45392169444E+02  0.22325963460E+01  0.12223908296E+03  0.80419002446E+02 0.  1.
        -24    1    1    2    0    0 -0.80060876308E+02 -0.45392169444E+02 -0.18610780839E+03  0.22265112903E+03  0.80419002446E+02 0. -1.
<mgrwt>
<rscale>  0 0.12221869E+03</rscale>
<asrwt>0</asrwt>
<pdfrwt beam="1">  1        2 0.12385769E-01 0.12221869E+03</pdfrwt>
<pdfrwt beam="2">  1       -2 0.40674263E-01 0.12221869E+03</pdfrwt>
<totfact> 0.27129885E+03</totfact>
</mgrwt>
</event>
<event>
 4    1  0.1123525E-001  0.8353243E+02  0.7546771E-02  0.1319316E+00
          2   -1    0    0  501    0  0.00000000000E+00  0.00000000000E+00  0.71939892658E+03  0.71939892658E+03  0.00000000000E+00 0. -1.
         -2   -1    0    0    0  501 -0.00000000000E+00 -0.00000000000E+00 -0.10172206400E+02  0.10172206400E+02  0.00000000000E+00 0.  1.
         24    1    1    2    0    0 -0.31394821434E+01 -0.22373903929E+02  0.27595968513E+03  0.28832518395E+03  0.80419002446E+02 0.  1.
        -24    1    1    2    0    0  0.31394821434E+01  0.22373903929E+02  0.43326703505E+03  0.44124594903E+03  0.80419002446E+02 0. -1.
<mgrwt>
<rscale>  0 0.83532423E+02</rscale>
<asrwt>0</asrwt>
<pdfrwt beam="1">  1        2 0.11067672E+00 0.83532433E+02</pdfrwt>
<pdfrwt beam="2">  1       -2 0.15649554E-02 0.83532433E+02</pdfrwt>
<totfact> 0.39936874E+04</totfact>
</mgrwt>
</event>
<event>
 4    1  0.1123525E-001  0.8922618E+02  0.7546771E-02  0.1304736E+00
         -4   -1    0    0    0  501 -0.00000000000E+00  0.00000000000E+00  0.89735004132E+03  0.89735004132E+03  0.00000000000E+00 0.  1.
          4   -1    0    0  501    0  0.00000000000E+00 -0.00000000000E+00 -0.38250970628E+02  0.38250970628E+02  0.00000000000E+00 0. -1.
         24    1    1    2    0    0 -0.37960824716E+02  0.72850445533E+01  0.19574360628E+02  0.91348057646E+02  0.80419002446E+02 0. -1.
        -24    1    1    2    0    0  0.37960824716E+02 -0.72850445533E+01  0.83952471007E+03  0.84425295430E+03  0.80419002446E+02 0.  1.
<mgrwt>
<rscale>  0 0.89226185E+02</rscale>
<asrwt>0</asrwt>
<pdfrwt beam="1">  1        4 0.58847654E-02 0.89226185E+02</pdfrwt>
<pdfrwt beam="2">  1       -4 0.13805384E+00 0.89226185E+02</pdfrwt>
<totfact> 0.11234349E+02</totfact>
</mgrwt>
</event>
<event>
 4    1  0.1123525E-001  0.8130955E+02  0.7546771E-02  0.1325376E+00
          1   -1    0    0  501    0  0.00000000000E+00  0.00000000000E+00  0.31615490113E+03  0.31615490113E+03  0.00000000000E+00 0. -1.
         -1   -1    0    0    0  501 -0.00000000000E+00 -0.00000000000E+00 -0.20968057298E+02  0.20968057298E+02  0.00000000000E+00 0.  1.
         24    1    1    2    0    0 -0.81682531869E-03  0.12000990138E+02  0.15635596082E+03  0.17623400978E+03  0.80419002446E+02 0. -1.
        -24    1    1    2    0    0  0.81682531869E-03 -0.12000990138E+02  0.13883088301E+03  0.16088894865E+03  0.80419002446E+02 0.  1.
<mgrwt>
<rscale>  0 0.81309540E+02</rscale>
<asrwt>0</asrwt>
<pdfrwt beam="1">  1        1 0.48639212E-01 0.81309551E+02</pdfrwt>
<pdfrwt beam="2">  1       -1 0.32258552E-02 0.81309551E+02</pdfrwt>
<totfact> 0.24452337E+04</totfact>
</mgrwt>
</event>
<event>
 4    1  0.1123525E-001  0.9585332E+02  0.7546771E-02  0.1289266E+00
         -1   -1    0    0    0  501 -0.00000000000E+00  0.00000000000E+00  0.18263725292E+02  0.18263725292E+02  0.00000000000E+00 0.  1.
          1   -1    0    0  501    0  0.00000000000E+00 -0.00000000000E+00 -0.89813261469E+03  0.89813261469E+03  0.00000000000E+00 0. -1.
         24    1    1    2    0    0 -0.31563022059E+02 -0.41526116283E+02 -0.13604312202E+03  0.16641991977E+03  0.80419002446E+02 0.  1.
        -24    1    1    2    0    0  0.31563022059E+02  0.41526116283E+02 -0.74382576738E+03  0.74997642021E+03  0.80419002446E+02 0. -1.
<mgrwt>
<rscale>  0 0.95853318E+02</rscale>
<asrwt>0</asrwt>
<pdfrwt beam="1">  1        1 0.13817425E+00 0.95853318E+02</pdfrwt>
<pdfrwt beam="2">  1       -1 0.28098038E-02 0.95853318E+02</pdfrwt>
<totfact> 0.75483304E+03</totfact>
</mgrwt>
</event>
<event>
 4    1  0.1123525E-001  0.8591957E+02  0.7546771E-02  0.1313045E+00
         -1   -1    0    0    0  501 -0.00000000000E+00  0.00000000000E+00  0.77142472552E+03  0.77142472552E+03  0.00000000000E+00 0.  1.
          1   -1    0    0  501    0  0.00000000000E+00 -0.00000000000E+00 -0.11438877937E+02  0.11438877937E+02  0.00000000000E+00 0. -1.
         24    1    1    2    0    0  0.11357616210E+01 -0.30226920581E+02  0.53823041099E+03  0.54504508800E+03  0.80419002446E+02 0.  1.
        -24    1    1    2    0    0 -0.11357616210E+01  0.30226920581E+02  0.22175543659E+03  0.23781851546E+03  0.80419002446E+02 0. -1.
<mgrwt>
<rscale>  0 0.85919571E+02</rscale>
<asrwt>0</asrwt>
<pdfrwt beam="1">  1        1 0.17598280E-02 0.85919571E+02</pdfrwt>
<pdfrwt beam="2">  1       -1 0.11868069E+00 0.85919571E+02</pdfrwt>
<totfact> 0.45388328E+03</totfact>
</mgrwt>
</event>
<event>
 4    1  0.1123525E-001  0.2384262E+03  0.7546771E-02  0.1120846E+00
         -1   -1    0    0    0  501 -0.00000000000E+00  0.00000000000E+00  0.52300637614E+02  0.52300637614E+02  0.00000000000E+00 0.  1.
          1   -1    0    0  501    0  0.00000000000E+00 -0.00000000000E+00 -0.12186885281E+04  0.12186885281E+04  0.00000000000E+00 0. -1.
         24    1    1    2    0    0  0.77049869069E+02  0.21081535326E+03 -0.79215177964E+03  0.82725537378E+03  0.80419002446E+02 0.  1.
        -24    1    1    2    0    0 -0.77049869069E+02 -0.21081535326E+03 -0.37423611083E+03  0.44373379192E+03  0.80419002446E+02 0. -1.
<mgrwt>
<rscale>  0 0.23842614E+03</rscale>
<asrwt>0</asrwt>
<pdfrwt beam="1">  1        1 0.18749052E+00 0.23842617E+03</pdfrwt>
<pdfrwt beam="2">  1       -1 0.80462530E-02 0.23842617E+03</pdfrwt>
<totfact> 0.95103967E+02</totfact>
</mgrwt>
</event>
<event>
 4    1  0.1123525E-001  0.1096949E+03  0.7546771E-02  0.1261136E+00
         -2   -1    0    0    0  501 -0.00000000000E+00  0.00000000000E+00  0.16672010837E+02  0.16672010837E+02  0.00000000000E+00 0.  1.
          2   -1    0    0  501    0  0.00000000000E+00 -0.00000000000E+00 -0.74741148265E+03  0.74741148265E+03  0.00000000000E+00 0. -1.
         24    1    1    2    0    0  0.24559127855E+02 -0.70445714422E+02 -0.43616455301E+03  0.44974713195E+03  0.80419002446E+02 0. -1.
        -24    1    1    2    0    0 -0.24559127855E+02  0.70445714422E+02 -0.29457491880E+03  0.31433636153E+03  0.80419002446E+02 0.  0.
<mgrwt>
<rscale>  0 0.10969487E+03</rscale>
<asrwt>0</asrwt>
<pdfrwt beam="1">  1        2 0.11498637E+00 0.10969487E+03</pdfrwt>
<pdfrwt beam="2">  1       -2 0.25649249E-02 0.10969487E+03</pdfrwt>
<totfact> 0.19267484E+04</totfact>
</mgrwt>
</event>
<event>
 4    1  0.1123525E-001  0.1733231E+03  0.7546771E-02  0.1174426E+00
         -2   -1    0    0    0  501 -0.00000000000E+00  0.00000000000E+00  0.41109837039E+02  0.41109837039E+02  0.00000000000E+00 0.  1.
          2   -1    0    0  501    0  0.00000000000E+00 -0.00000000000E+00 -0.81758807582E+03  0.81758807582E+03  0.00000000000E+00 0. -1.
         24    1    1    2    0    0  0.55885214629E+02  0.14300528958E+03 -0.52816755615E+03  0.55587935147E+03  0.80419002446E+02 0.  0.
        -24    1    1    2    0    0 -0.55885214629E+02 -0.14300528958E+03 -0.24831068263E+03  0.30281856139E+03  0.80419002446E+02 0. -1.
<mgrwt>
<rscale>  0 0.17332307E+03</rscale>
<asrwt>0</asrwt>
<pdfrwt beam="1">  1        2 0.12578277E+00 0.17332307E+03</pdfrwt>
<pdfrwt beam="2">  1       -2 0.63245908E-02 0.17332307E+03</pdfrwt>
<totfact> 0.46245142E+03</totfact>
</mgrwt>
</event>
<event>
 4    1  0.1123525E-001  0.8817476E+02  0.7546771E-02  0.1307333E+00
         -1   -1    0    0    0  501 -0.00000000000E+00  0.00000000000E+00  0.21916762791E+02  0.21916762791E+02  0.00000000000E+00 0.  1.
          1   -1    0    0  501    0  0.00000000000E+00 -0.00000000000E+00 -0.37899732525E+03  0.37899732525E+03  0.00000000000E+00 0. -1.
         24    1    1    2    0    0  0.36114343927E+02 -0.18236814131E+01 -0.12782832799E+03  0.15528962954E+03  0.80419002446E+02 0.  1.
        -24    1    1    2    0    0 -0.36114343927E+02  0.18236814131E+01 -0.22925223447E+03  0.24562445850E+03  0.80419002446E+02 0. -1.
<mgrwt>
<rscale>  0 0.88174756E+02</rscale>
<asrwt>0</asrwt>
<pdfrwt beam="1">  1        1 0.58307278E-01 0.88174756E+02</pdfrwt>
<pdfrwt beam="2">  1       -1 0.33718099E-02 0.88174756E+02</pdfrwt>
<totfact> 0.18533135E+04</totfact>
</mgrwt>
</event>
<event>
 4    1  0.1123525E-001  0.9735149E+02  0.7546771E-02  0.1285966E+00
         -2   -1    0    0    0  501 -0.00000000000E+00  0.00000000000E+00  0.33546473900E+02  0.33546473900E+02  0.00000000000E+00 0.  1.
          2   -1    0    0  501    0  0.00000000000E+00 -0.00000000000E+00 -0.88021964587E+03  0.88021964587E+03  0.00000000000E+00 0. -1.
         24    1    1    2    0    0  0.45176610306E+02  0.31131517933E+02 -0.79982670762E+03  0.80572953012E+03  0.80419002446E+02 0. -1.
        -24    1    1    2    0    0 -0.45176610306E+02 -0.31131517933E+02 -0.46846464352E+02  0.10803658965E+03  0.80419002446E+02 0.  1.
<mgrwt>
<rscale>  0 0.97351495E+02</rscale>
<asrwt>0</asrwt>
<pdfrwt beam="1">  1        2 0.13541839E+00 0.97351495E+02</pdfrwt>
<pdfrwt beam="2">  1       -2 0.51609966E-02 0.97351495E+02</pdfrwt>
<totfact> 0.55832865E+03</totfact>
</mgrwt>
</event>
<event>
 4    1  0.1123525E-001  0.9344246E+02  0.7546771E-02  0.1294723E+00
          1   -1    0    0  501    0  0.00000000000E+00  0.00000000000E+00  0.10621739001E+03  0.10621739001E+03  0.00000000000E+00 0. -1.
         -1   -1    0    0    0  501 -0.00000000000E+00 -0.00000000000E+00 -0.93459210783E+02  0.93459210783E+02  0.00000000000E+00 0.  1.
         24    1    1    2    0    0 -0.47583130819E+02  0.35079072052E+00 -0.28267709590E+02  0.97624570435E+02  0.80419002446E+02 0.  1.
        -24    1    1    2    0    0  0.47583130819E+02 -0.35079072052E+00  0.41025888817E+02  0.10205203036E+03  0.80419002446E+02 0. -1.
<mgrwt>
<rscale>  0 0.93442460E+02</rscale>
<asrwt>0</asrwt>
<pdfrwt beam="1">  1        1 0.16341137E-01 0.93442460E+02</pdfrwt>
<pdfrwt beam="2">  1       -1 0.14378340E-01 0.93442460E+02</pdfrwt>
<totfact> 0.10390960E+04</totfact>
</mgrwt>
</event>
<event>
 4    1  0.1123525E-001  0.1023661E+03  0.7546771E-02  0.1275398E+00
          2   -1    0    0  501    0  0.00000000000E+00  0.00000000000E+00  0.35098815862E+04  0.35098815862E+04  0.00000000000E+00 0. -1.
         -2   -1    0    0    0  501 -0.00000000000E+00 -0.00000000000E+00 -0.33523926415E+01  0.33523926415E+01  0.00000000000E+00 0.  1.
         24    1    1    2    0    0  0.63324596039E+02 -0.12624037704E+01  0.23343749100E+04  0.23366182903E+04  0.80419002446E+02 0.  0.
        -24    1    1    2    0    0 -0.63324596039E+02  0.12624037704E+01  0.11721542836E+04  0.11766156886E+04  0.80419002446E+02 0.  1.
<mgrwt>
<rscale>  0 0.10236608E+03</rscale>
<asrwt>0</asrwt>
<pdfrwt beam="1">  1        2 0.53997884E+00 0.10236608E+03</pdfrwt>
<pdfrwt beam="2">  1       -2 0.51575552E-03 0.10236608E+03</pdfrwt>
<totfact> 0.56252597E+03</totfact>
</mgrwt>
</event>
<event>
 4    1  0.1123525E-001  0.8057856E+02  0.7546771E-02  0.1327418E+00
         -2   -1    0    0    0  501 -0.00000000000E+00  0.00000000000E+00  0.17507370221E+02  0.17507370221E+02  0.00000000000E+00 0.  1.
          2   -1    0    0  501    0  0.00000000000E+00 -0.00000000000E+00 -0.88631385157E+03  0.88631385157E+03  0.00000000000E+00 0. -1.
         24    1    1    2    0    0 -0.28859752232E+01  0.41665344999E+01 -0.77903138487E+03  0.78318759146E+03  0.80419002446E+02 0. -1.
        -24    1    1    2    0    0  0.28859752232E+01 -0.41665344999E+01 -0.89775096483E+02  0.12063363033E+03  0.80419002446E+02 0.  0.
<mgrwt>
<rscale>  0 0.80578563E+02</rscale>
<asrwt>0</asrwt>
<pdfrwt beam="1">  1        2 0.13635600E+00 0.80578563E+02</pdfrwt>
<pdfrwt beam="2">  1       -2 0.26934412E-02 0.80578563E+02</pdfrwt>
<totfact> 0.14176929E+04</totfact>
</mgrwt>
</event>
<event>
 4    1  0.1123525E-001  0.9034148E+02  0.7546771E-02  0.1302027E+00
         -1   -1    0    0    0  501 -0.00000000000E+00  0.00000000000E+00  0.28519248597E+03  0.28519248597E+03  0.00000000000E+00 0.  1.
          1   -1    0    0  501    0  0.00000000000E+00 -0.00000000000E+00 -0.39481067569E+02  0.39481067569E+02  0.00000000000E+00 0. -1.
         24    1    1    2    0    0  0.39218780155E+02  0.12500175135E+02  0.20800922944E+03  0.22678056042E+03  0.80419002446E+02 0.  1.
        -24    1    1    2    0    0 -0.39218780155E+02 -0.12500175135E+02  0.37702188952E+02  0.97892993117E+02  0.80419002446E+02 0.  1.
<mgrwt>
<rscale>  0 0.90341480E+02</rscale>
<asrwt>0</asrwt>
<pdfrwt beam="1">  1        1 0.60740106E-02 0.90341480E+02</pdfrwt>
<pdfrwt beam="2">  1       -1 0.43875766E-01 0.90341480E+02</pdfrwt>
<totfact> 0.61022973E+03</totfact>
</mgrwt>
</event>
<event>
 4    1  0.1123525E-001  0.9865195E+02  0.7546771E-02  0.1283157E+00
          2   -1    0    0  501    0  0.00000000000E+00  0.00000000000E+00  0.34299628688E+04  0.34299628688E+04  0.00000000000E+00 0. -1.
         -2   -1    0    0    0  501 -0.00000000000E+00 -0.00000000000E+00 -0.23929703654E+02  0.23929703654E+02  0.00000000000E+00 0.  1.
         24    1    1    2    0    0  0.20741106391E+02 -0.53242810069E+02  0.33243490820E+04  0.33258125361E+04  0.80419002446E+02 0. -1.
        -24    1    1    2    0    0 -0.20741106391E+02  0.53242810069E+02  0.81684083134E+02  0.12808003635E+03  0.80419002446E+02 0.  1.
<mgrwt>
<rscale>  0 0.98651945E+02</rscale>
<asrwt>0</asrwt>
<pdfrwt beam="1">  1        2 0.52768620E+00 0.98651945E+02</pdfrwt>
<pdfrwt beam="2">  1       -2 0.36814956E-02 0.98651945E+02</pdfrwt>
<totfact> 0.38025292E+02</totfact>
</mgrwt>
</event>
<event>
 4    1  0.1123525E-001  0.8301210E+02  0.7546771E-02  0.1320714E+00
         -2   -1    0    0    0  501 -0.00000000000E+00  0.00000000000E+00  0.91200873077E+01  0.91200873077E+01  0.00000000000E+00 0.  1.
          2   -1    0    0  501    0  0.00000000000E+00 -0.00000000000E+00 -0.10134010780E+04  0.10134010780E+04  0.00000000000E+00 0. -1.
         24    1    1    2    0    0 -0.13084078710E+02  0.15893405671E+02 -0.76001349191E+03  0.76453352922E+03  0.80419002446E+02 0. -1.
        -24    1    1    2    0    0  0.13084078710E+02 -0.15893405671E+02 -0.24426749879E+03  0.25798763610E+03  0.80419002446E+02 0.  1.
<mgrwt>
<rscale>  0 0.83012104E+02</rscale>
<asrwt>0</asrwt>
<pdfrwt beam="1">  1        2 0.15590787E+00 0.83012104E+02</pdfrwt>
<pdfrwt beam="2">  1       -2 0.14030902E-02 0.83012104E+02</pdfrwt>
<totfact> 0.30341840E+04</totfact>
</mgrwt>
</event>
<event>
 4    1  0.1123525E-001  0.1597337E+03  0.7546771E-02  0.1188998E+00
         -1   -1    0    0    0  501 -0.00000000000E+00  0.00000000000E+00  0.15940417607E+03  0.15940417607E+03  0.00000000000E+00 0.  1.
          1   -1    0    0  501    0  0.00000000000E+00 -0.00000000000E+00 -0.20295548500E+03  0.20295548500E+03  0.00000000000E+00 0. -1.
         24    1    1    2    0    0 -0.75872279392E+02  0.11528682059E+03  0.61514756254E+02  0.17116931668E+03  0.80419002446E+02 0.  1.
        -24    1    1    2    0    0  0.75872279392E+02 -0.11528682059E+03 -0.10506606518E+03  0.19119034439E+03  0.80419002446E+02 0.  0.
<mgrwt>
<rscale>  0 0.15973375E+03</rscale>
<asrwt>0</asrwt>
<pdfrwt beam="1">  1        1 0.31223921E-01 0.15973375E+03</pdfrwt>
<pdfrwt beam="2">  1       -1 0.24523719E-01 0.15973375E+03</pdfrwt>
<totfact> 0.20318360E+03</totfact>
</mgrwt>
</event>
<event>
 4    1  0.1123525E-001  0.8586039E+02  0.7546771E-02  0.1313198E+00
          1   -1    0    0  501    0  0.00000000000E+00  0.00000000000E+00  0.72509667612E+03  0.72509667612E+03  0.00000000000E+00 0. -1.
         -1   -1    0    0    0  501 -0.00000000000E+00 -0.00000000000E+00 -0.21863013070E+02  0.21863013070E+02  0.00000000000E+00 0.  1.
         24    1    1    2    0    0 -0.27041058348E+02 -0.13174671085E+02  0.78447214028E+02  0.11630121297E+03  0.80419002446E+02 0.  1.
        -24    1    1    2    0    0  0.27041058348E+02  0.13174671085E+02  0.62478644902E+03  0.63065847622E+03  0.80419002446E+02 0. -1.
<mgrwt>
<rscale>  0 0.85860391E+02</rscale>
<asrwt>0</asrwt>
<pdfrwt beam="1">  1        1 0.11155332E+00 0.85860391E+02</pdfrwt>
<pdfrwt beam="2">  1       -1 0.33635410E-02 0.85860391E+02</pdfrwt>
<totfact> 0.79541622E+03</totfact>
</mgrwt>
</event>
<event>
 4    1  0.1123525E-001  0.8527212E+02  0.7546771E-02  0.1314722E+00
         -2   -1    0    0    0  501 -0.00000000000E+00  0.00000000000E+00  0.28616891017E+02  0.28616891017E+02  0.00000000000E+00 0.  1.
          2   -1    0    0  501    0  0.00000000000E+00 -0.00000000000E+00 -0.46937600954E+03  0.46937600954E+03  0.00000000000E+00 0. -1.
         24    1    1    2    0    0 -0.49951399121E+01 -0.27913578037E+02 -0.38901085233E+03  0.39824713237E+03  0.80419002446E+02 0. -1.
        -24    1    1    2    0    0  0.49951399121E+01  0.27913578037E+02 -0.51748266194E+02  0.99745768181E+02  0.80419002446E+02 0.  1.
<mgrwt>
<rscale>  0 0.85272124E+02</rscale>
<asrwt>0</asrwt>
<pdfrwt beam="1">  1        2 0.72211688E-01 0.85272124E+02</pdfrwt>
<pdfrwt beam="2">  1       -2 0.44025990E-02 0.85272124E+02</pdfrwt>
<totfact> 0.14416795E+04</totfact>
</mgrwt>
</event>
<event>
 4    1  0.1123525E-001  0.9129041E+02  0.7546771E-02  0.1299757E+00
         -2   -1    0    0    0  501 -0.00000000000E+00  0.00000000000E+00  0.70530050463E+01  0.70530050463E+01  0.00000000000E+00 0.  1.
          2   -1    0    0  501    0  0.00000000000E+00 -0.00000000000E+00 -0.15776619729E+04  0.15776619729E+04  0.00000000000E+00 0. -1.
         24    1    1    2    0    0 -0.91942795661E+01  0.42215961557E+02 -0.11823016570E+04  0.11858208744E+04  0.80419002446E+02 0. -1.
        -24    1    1    2    0    0  0.91942795661E+01 -0.42215961557E+02 -0.38830731091E+03  0.39889410355E+03  0.80419002446E+02 0.  1.
<mgrwt>
<rscale>  0 0.91290406E+02</rscale>
<asrwt>0</asrwt>
<pdfrwt beam="1">  1        2 0.24271723E+00 0.91290406E+02</pdfrwt>
<pdfrwt beam="2">  1       -2 0.10850777E-02 0.91290406E+02</pdfrwt>
<totfact> 0.22032960E+04</totfact>
</mgrwt>
</event>
<event>
 4    1  0.1208493E-001  0.8964119E+02  0.7546771E-02  0.1303723E+00
          3   -1    0    0  501    0  0.00000000000E+00  0.00000000000E+00  0.12193629604E+04  0.12193629604E+04  0.00000000000E+00 0. -1.
         -3   -1    0    0    0  501 -0.00000000000E+00 -0.00000000000E+00 -0.10429013278E+02  0.10429013278E+02  0.00000000000E+00 0.  1.
         24    1    1    2    0    0  0.33953407965E+02 -0.20383644502E+02  0.23139502453E+03  0.24815156700E+03  0.80419002446E+02 0.  1.
        -24    1    1    2    0    0 -0.33953407965E+02  0.20383644502E+02  0.97753892257E+03  0.98164040665E+03  0.80419002446E+02 0. -1.
<mgrwt>
<rscale>  0 0.89641189E+02</rscale>
<asrwt>0</asrwt>
<pdfrwt beam="1">  1        3 0.18759419E+00 0.89641189E+02</pdfrwt>
<pdfrwt beam="2">  1       -3 0.16044645E-02 0.89641189E+02</pdfrwt>
<totfact> 0.56097704E+02</totfact>
</mgrwt>
</event>
<event>
 4    1  0.1123525E-001  0.9352888E+02  0.7546771E-02  0.1294524E+00
          2   -1    0    0  501    0  0.00000000000E+00  0.00000000000E+00  0.13390785062E+04  0.13390785062E+04  0.00000000000E+00 0. -1.
         -2   -1    0    0    0  501 -0.00000000000E+00 -0.00000000000E+00 -0.22083751118E+02  0.22083751118E+02  0.00000000000E+00 0.  1.
         24    1    1    2    0    0 -0.45038918379E+02  0.15872335477E+02  0.12296141150E+04  0.12331660565E+04  0.80419002446E+02 0. -1.
        -24    1    1    2    0    0  0.45038918379E+02 -0.15872335477E+02  0.87380640084E+02  0.12799620080E+03  0.80419002446E+02 0.  1.
<mgrwt>
<rscale>  0 0.93528879E+02</rscale>
<asrwt>0</asrwt>
<pdfrwt beam="1">  1        2 0.20601202E+00 0.93528879E+02</pdfrwt>
<pdfrwt beam="2">  1       -2 0.33975012E-02 0.93528879E+02</pdfrwt>
<totfact> 0.56785929E+03</totfact>
</mgrwt>
</event>
<event>
 4    1  0.1123525E-001  0.9690229E+02  0.7546771E-02  0.1286948E+00
          2   -1    0    0  501    0  0.00000000000E+00  0.00000000000E+00  0.67433492418E+03  0.67433492418E+03  0.00000000000E+00 0. -1.
         -2   -1    0    0    0  501 -0.00000000000E+00 -0.00000000000E+00 -0.17777051563E+02  0.17777051563E+02  0.00000000000E+00 0.  1.
         24    1    1    2    0    0  0.52865682736E+02  0.11316227485E+02  0.48936857279E+03  0.49887037736E+03  0.80419002446E+02 0. -1.
        -24    1    1    2    0    0 -0.52865682736E+02 -0.11316227485E+02  0.16718929982E+03  0.19324159838E+03  0.80419002446E+02 0.  1.
<mgrwt>
<rscale>  0 0.96902288E+02</rscale>
<asrwt>0</asrwt>
<pdfrwt beam="1">  1        2 0.10374381E+00 0.96902288E+02</pdfrwt>
<pdfrwt beam="2">  1       -2 0.27349315E-02 0.96902288E+02</pdfrwt>
<totfact> 0.19598693E+04</totfact>
</mgrwt>
</event>
<event>
 4    1  0.1123525E-001  0.8930213E+02  0.7546771E-02  0.1304551E+00
          1   -1    0    0  501    0  0.00000000000E+00  0.00000000000E+00  0.20087204708E+02  0.20087204708E+02  0.00000000000E+00 0. -1.
         -1   -1    0    0    0  501 -0.00000000000E+00 -0.00000000000E+00 -0.40879846012E+03  0.40879846012E+03  0.00000000000E+00 0.  1.
         24    1    1    2    0    0  0.38587860161E+02  0.43159207136E+01 -0.15794365261E+03  0.18144162554E+03  0.80419002446E+02 0. -1.
        -24    1    1    2    0    0 -0.38587860161E+02 -0.43159207136E+01 -0.23076760280E+03  0.24744403929E+03  0.80419002446E+02 0.  1.
<mgrwt>
<rscale>  0 0.89302117E+02</rscale>
<asrwt>0</asrwt>
<pdfrwt beam="1">  1        1 0.30903393E-02 0.89302128E+02</pdfrwt>
<pdfrwt beam="2">  1       -1 0.62892068E-01 0.89302128E+02</pdfrwt>
<totfact> 0.78923412E+03</totfact>
</mgrwt>
</event>
<event>
 4    1  0.1123525E-001  0.1074882E+03  0.7546771E-02  0.1265293E+00
         -1   -1    0    0    0  501 -0.00000000000E+00  0.00000000000E+00  0.27390690038E+02  0.27390690038E+02  0.00000000000E+00 0.  1.
          1   -1    0    0  501    0  0.00000000000E+00 -0.00000000000E+00 -0.46594389405E+03  0.46594389405E+03  0.00000000000E+00 0. -1.
         24    1    1    2    0    0 -0.49869780764E+02 -0.50985335001E+02 -0.14336254845E+03  0.17918296702E+03  0.80419002446E+02 0.  1.
        -24    1    1    2    0    0  0.49869780764E+02  0.50985335001E+02 -0.29519065556E+03  0.31415161706E+03  0.80419002446E+02 0. -1.
<mgrwt>
<rscale>  0 0.10748821E+03</rscale>
<asrwt>0</asrwt>
<pdfrwt beam="1">  1        1 0.71683674E-01 0.10748821E+03</pdfrwt>
<pdfrwt beam="2">  1       -1 0.42139524E-02 0.10748821E+03</pdfrwt>
<totfact> 0.10535911E+04</totfact>
</mgrwt>
</event>
<event>
 4    1  0.1123525E-001  0.1004067E+03  0.7546771E-02  0.1279443E+00
         -1   -1    0    0    0  501 -0.00000000000E+00  0.00000000000E+00  0.25008984383E+03  0.25008984383E+03  0.00000000000E+00 0.  1.
          1   -1    0    0  501    0  0.00000000000E+00 -0.00000000000E+00 -0.96369914119E+02  0.96369914119E+02  0.00000000000E+00 0. -1.
         24    1    1    2    0    0  0.37096182096E+02  0.47309259941E+02  0.20898109612E+03  0.23185039852E+03  0.80419002446E+02 0.  1.
        -24    1    1    2    0    0 -0.37096182096E+02 -0.47309259941E+02 -0.55261166409E+02  0.11460935943E+03  0.80419002446E+02 0. -1.
<mgrwt>
<rscale>  0 0.10040672E+03</rscale>
<asrwt>0</asrwt>
<pdfrwt beam="1">  1        1 0.14826141E-01 0.10040672E+03</pdfrwt>
<pdfrwt beam="2">  1       -1 0.38475360E-01 0.10040672E+03</pdfrwt>
<totfact> 0.23920251E+03</totfact>
</mgrwt>
</event>
<event>
 4    1  0.1123525E-001  0.9209664E+02  0.7546771E-02  0.1297852E+00
          1   -1    0    0  501    0  0.00000000000E+00  0.00000000000E+00  0.64543845087E+02  0.64543845087E+02  0.00000000000E+00 0. -1.
         -1   -1    0    0    0  501 -0.00000000000E+00 -0.00000000000E+00 -0.13234656716E+03  0.13234656716E+03  0.00000000000E+00 0.  1.
         24    1    1    2    0    0  0.61278930569E+01  0.44463693395E+02 -0.25625393502E+02  0.95595229223E+02  0.80419002446E+02 0.  1.
        -24    1    1    2    0    0 -0.61278930569E+01 -0.44463693395E+02 -0.42177328568E+02  0.10129518302E+03  0.80419002446E+02 0.  0.
<mgrwt>
<rscale>  0 0.92096630E+02</rscale>
<asrwt>0</asrwt>
<pdfrwt beam="1">  1        1 0.99298224E-02 0.92096641E+02</pdfrwt>
<pdfrwt beam="2">  1       -1 0.20361010E-01 0.92096641E+02</pdfrwt>
<totfact> 0.11447540E+04</totfact>
</mgrwt>
</event>
<event>
 4    1  0.1123525E-001  0.1491538E+03  0.7546771E-02  0.1201517E+00
         -2   -1    0    0    0  501 -0.00000000000E+00  0.00000000000E+00  0.52104478260E+03  0.52104478260E+03  0.00000000000E+00 0.  1.
          2   -1    0    0  501    0  0.00000000000E+00 -0.00000000000E+00 -0.57349424548E+02  0.57349424548E+02  0.00000000000E+00 0. -1.
         24    1    1    2    0    0 -0.99810824561E+02 -0.76272046179E+02  0.85666973871E+02  0.17200486067E+03  0.80419002446E+02 0. -1.
        -24    1    1    2    0    0  0.99810824561E+02  0.76272046179E+02  0.37802838418E+03  0.40638934647E+03  0.80419002446E+02 0.  1.
<mgrwt>
<rscale>  0 0.14915375E+03</rscale>
<asrwt>0</asrwt>
<pdfrwt beam="1">  1        2 0.88229887E-02 0.14915375E+03</pdfrwt>
<pdfrwt beam="2">  1       -2 0.80160733E-01 0.14915375E+03</pdfrwt>
<totfact> 0.10412124E+03</totfact>
</mgrwt>
</event>
<event>
 4    1  0.1123525E-001  0.8485915E+02  0.7546771E-02  0.1315801E+00
         -1   -1    0    0    0  501 -0.00000000000E+00  0.00000000000E+00  0.71795470985E+02  0.71795470985E+02  0.00000000000E+00 0.  1.
          1   -1    0    0  501    0  0.00000000000E+00 -0.00000000000E+00 -0.11732982074E+03  0.11732982074E+03  0.00000000000E+00 0. -1.
         24    1    1    2    0    0 -0.11233575473E+02 -0.24650868624E+02  0.13259356204E+02  0.85888794515E+02  0.80419002446E+02 0.  0.
        -24    1    1    2    0    0  0.11233575473E+02  0.24650868624E+02 -0.58793705962E+02  0.10323649721E+03  0.80419002446E+02 0.  0.
<mgrwt>
<rscale>  0 0.84859145E+02</rscale>
<asrwt>0</asrwt>
<pdfrwt beam="1">  1        1 0.18050742E-01 0.84859145E+02</pdfrwt>
<pdfrwt beam="2">  1       -1 0.11045457E-01 0.84859145E+02</pdfrwt>
<totfact> 0.13584235E+04</totfact>
</mgrwt>
</event>
<event>
 4    1  0.1123525E-001  0.8473592E+02  0.7546771E-02  0.1316125E+00
         -2   -1    0    0    0  501 -0.00000000000E+00  0.00000000000E+00  0.86980149968E+01  0.86980149968E+01  0.00000000000E+00 0.  1.
          2   -1    0    0  501    0  0.00000000000E+00 -0.00000000000E+00 -0.82776162079E+03  0.82776162079E+03  0.00000000000E+00 0. -1.
         24    1    1    2    0    0  0.13517580753E+02  0.23026748980E+02 -0.38764888301E+03  0.39680200177E+03  0.80419002446E+02 0.  1.
        -24    1    1    2    0    0 -0.13517580753E+02 -0.23026748980E+02 -0.43141472278E+03  0.43965763401E+03  0.80419002446E+02 0. -1.
<mgrwt>
<rscale>  0 0.84735907E+02</rscale>
<asrwt>0</asrwt>
<pdfrwt beam="1">  1        2 0.12734798E+00 0.84735917E+02</pdfrwt>
<pdfrwt beam="2">  1       -2 0.13381558E-02 0.84735917E+02</pdfrwt>
<totfact> 0.42225928E+04</totfact>
</mgrwt>
</event>
<event>
 4    1  0.1123525E-001  0.8969825E+02  0.7546771E-02  0.1303584E+00
         -2   -1    0    0    0  501 -0.00000000000E+00  0.00000000000E+00  0.31654130227E+02  0.31654130227E+02  0.00000000000E+00 0.  1.
          2   -1    0    0  501    0  0.00000000000E+00 -0.00000000000E+00 -0.19998005445E+04  0.19998005445E+04  0.00000000000E+00 0. -1.
         24    1    1    2    0    0  0.25716526091E+02  0.30285655348E+02 -0.19330574435E+04  0.19351374257E+04  0.80419002446E+02 0. -1.
        -24    1    1    2    0    0 -0.25716526091E+02 -0.30285655348E+02 -0.35088970806E+02  0.96317249030E+02  0.80419002446E+02 0.  1.
<mgrwt>
<rscale>  0 0.89698253E+02</rscale>
<asrwt>0</asrwt>
<pdfrwt beam="1">  1        2 0.30766164E+00 0.89698253E+02</pdfrwt>
<pdfrwt beam="2">  1       -2 0.48698659E-02 0.89698253E+02</pdfrwt>
<totfact> 0.15446747E+03</totfact>
</mgrwt>
</event>
<event>
 4    1  0.1123525E-001  0.8693420E+02  0.7546771E-02  0.1310451E+00
         -1   -1    0    0    0  501 -0.00000000000E+00  0.00000000000E+00  0.24563894776E+02  0.24563894776E+02  0.00000000000E+00 0.  1.
          1   -1    0    0  501    0  0.00000000000E+00 -0.00000000000E+00 -0.36302722252E+03  0.36302722252E+03  0.00000000000E+00 0. -1.
         24    1    1    2    0    0  0.27638532771E+02  0.18067954358E+02 -0.93554602958E+02  0.12771068537E+03  0.80419002446E+02 0.  1.
        -24    1    1    2    0    0 -0.27638532771E+02 -0.18067954358E+02 -0.24490872479E+03  0.25988043193E+03  0.80419002446E+02 0. -1.
<mgrwt>
<rscale>  0 0.86934202E+02</rscale>
<asrwt>0</asrwt>
<pdfrwt beam="1">  1        1 0.55850341E-01 0.86934202E+02</pdfrwt>
<pdfrwt beam="2">  1       -1 0.37790608E-02 0.86934202E+02</pdfrwt>
<totfact> 0.16548994E+04</totfact>
</mgrwt>
</event>
<event>
 4    1  0.1123525E-001  0.9654385E+02  0.7546771E-02  0.1287736E+00
          2   -1    0    0  501    0  0.00000000000E+00  0.00000000000E+00  0.43190196583E+03  0.43190196583E+03  0.00000000000E+00 0. -1.
         -2   -1    0    0    0  501 -0.00000000000E+00 -0.00000000000E+00 -0.24492163793E+02  0.24492163793E+02  0.00000000000E+00 0.  1.
         24    1    1    2    0    0  0.42011519332E+02 -0.32992909105E+02  0.28238366433E+03  0.29843131479E+03  0.80419002446E+02 0.  1.
        -24    1    1    2    0    0 -0.42011519332E+02  0.32992909105E+02  0.12502613770E+03  0.15796281484E+03  0.80419002446E+02 0.  0.
<mgrwt>
<rscale>  0 0.96543854E+02</rscale>
<asrwt>0</asrwt>
<pdfrwt beam="1">  1        2 0.66446451E-01 0.96543854E+02</pdfrwt>
<pdfrwt beam="2">  1       -2 0.37680255E-02 0.96543854E+02</pdfrwt>
<totfact> 0.20045002E+04</totfact>
</mgrwt>
</event>
<event>
 4    1  0.1123525E-001  0.2216051E+03  0.7546771E-02  0.1132692E+00
          1   -1    0    0  501    0  0.00000000000E+00  0.00000000000E+00  0.14545143137E+04  0.14545143137E+04  0.00000000000E+00 0. -1.
         -1   -1    0    0    0  501 -0.00000000000E+00 -0.00000000000E+00 -0.34690283987E+02  0.34690283987E+02  0.00000000000E+00 0.  1.
         24    1    1    2    0    0  0.19731816071E+03  0.60886212485E+02  0.83164854901E+03  0.86066724839E+03  0.80419002446E+02 0. -1.
        -24    1    1    2    0    0 -0.19731816071E+03 -0.60886212485E+02  0.58817548071E+03  0.62853734931E+03  0.80419002446E+02 0.  1.
<mgrwt>
<rscale>  0 0.22160509E+03</rscale>
<asrwt>0</asrwt>
<pdfrwt beam="1">  1        1 0.22377139E+00 0.22160512E+03</pdfrwt>
<pdfrwt beam="2">  1       -1 0.53369679E-02 0.22160512E+03</pdfrwt>
<totfact> 0.12272685E+03</totfact>
</mgrwt>
</event>
<event>
 4    1  0.1123525E-001  0.8466943E+02  0.7546771E-02  0.1316299E+00
          2   -1    0    0  501    0  0.00000000000E+00  0.00000000000E+00  0.17550573876E+04  0.17550573876E+04  0.00000000000E+00 0. -1.
         -2   -1    0    0    0  501 -0.00000000000E+00 -0.00000000000E+00 -0.41593706616E+01  0.41593706616E+01  0.00000000000E+00 0.  1.
         24    1    1    2    0    0 -0.22708795666E+02  0.13638415898E+02  0.99329173087E+03  0.99689386313E+03  0.80419002446E+02 0. -1.
        -24    1    1    2    0    0  0.22708795666E+02 -0.13638415898E+02  0.75760628612E+03  0.76232289518E+03  0.80419002446E+02 0.  1.
<mgrwt>
<rscale>  0 0.84669426E+02</rscale>
<asrwt>0</asrwt>
<pdfrwt beam="1">  1        2 0.27000824E+00 0.84669426E+02</pdfrwt>
<pdfrwt beam="2">  1       -2 0.63990458E-03 0.84669426E+02</pdfrwt>
<totfact> 0.37556096E+04</totfact>
</mgrwt>
</event>
<event>
 4    1  0.1123525E-001  0.8086736E+02  0.7546771E-02  0.1326608E+00
          2   -1    0    0  501    0  0.00000000000E+00  0.00000000000E+00  0.21732029124E+04  0.21732029124E+04  0.00000000000E+00 0. -1.
         -2   -1    0    0    0  501 -0.00000000000E+00 -0.00000000000E+00 -0.38742172789E+01  0.38742172789E+01  0.00000000000E+00 0.  1.
         24    1    1    2    0    0 -0.56109590482E+01  0.63899230373E+01  0.15990307252E+04  0.16010742612E+04  0.80419002446E+02 0. -1.
        -24    1    1    2    0    0  0.56109590482E+01 -0.63899230373E+01  0.57029796996E+03  0.57600286846E+03  0.80419002446E+02 0.  0.
<mgrwt>
<rscale>  0 0.80867360E+02</rscale>
<asrwt>0</asrwt>
<pdfrwt beam="1">  1        2 0.33433794E+00 0.80867360E+02</pdfrwt>
<pdfrwt beam="2">  1       -2 0.59603516E-03 0.80867360E+02</pdfrwt>
<totfact> 0.25529247E+04</totfact>
</mgrwt>
</event>
<event>
 4    1  0.1123525E-001  0.1020768E+03  0.7546771E-02  0.1275988E+00
         -2   -1    0    0    0  501 -0.00000000000E+00  0.00000000000E+00  0.36231063544E+02  0.36231063544E+02  0.00000000000E+00 0.  1.
          2   -1    0    0  501    0  0.00000000000E+00 -0.00000000000E+00 -0.41417109243E+03  0.41417109243E+03  0.00000000000E+00 0. -1.
         24    1    1    2    0    0 -0.46452624755E+02  0.42362751500E+02 -0.31346912537E+03  0.32967037716E+03  0.80419002446E+02 0.  0.
        -24    1    1    2    0    0  0.46452624755E+02 -0.42362751500E+02 -0.64470903515E+02  0.12073177881E+03  0.80419002446E+02 0.  1.
<mgrwt>
<rscale>  0 0.10207676E+03</rscale>
<asrwt>0</asrwt>
<pdfrwt beam="1">  1        2 0.63718629E-01 0.10207676E+03</pdfrwt>
<pdfrwt beam="2">  1       -2 0.55740099E-02 0.10207676E+03</pdfrwt>
<totfact> 0.11784497E+04</totfact>
</mgrwt>
</event>
<event>
 4    1  0.1123525E-001  0.8262952E+02  0.7546771E-02  0.1321751E+00
          2   -1    0    0  501    0  0.00000000000E+00  0.00000000000E+00  0.31140839916E+04  0.31140839916E+04  0.00000000000E+00 0. -1.
         -2   -1    0    0    0  501 -0.00000000000E+00 -0.00000000000E+00 -0.29405690204E+01  0.29405690204E+01  0.00000000000E+00 0.  1.
         24    1    1    2    0    0 -0.18610779438E+02  0.37498022146E+01  0.23416477211E+04  0.23431051381E+04  0.80419002446E+02 0.  0.
        -24    1    1    2    0    0  0.18610779438E+02 -0.37498022146E+01  0.76949570142E+03  0.77391942254E+03  0.80419002446E+02 0.  1.
<mgrwt>
<rscale>  0 0.82629523E+02</rscale>
<asrwt>0</asrwt>
<pdfrwt beam="1">  1        2 0.47908721E+00 0.82629523E+02</pdfrwt>
<pdfrwt beam="2">  1       -2 0.45239772E-03 0.82629523E+02</pdfrwt>
<totfact> 0.11759204E+04</totfact>
</mgrwt>
</event>
<event>
 4    1  0.1123525E-001  0.1064550E+03  0.7546771E-02  0.1267279E+00
         -2   -1    0    0    0  501 -0.00000000000E+00  0.00000000000E+00  0.17753363193E+02  0.17753363193E+02  0.00000000000E+00 0.  1.
          2   -1    0    0  501    0  0.00000000000E+00 -0.00000000000E+00 -0.12239181135E+04  0.12239181135E+04  0.00000000000E+00 0. -1.
         24    1    1    2    0    0 -0.48706266564E+02 -0.49931454313E+02 -0.10325132515E+04  0.10379866478E+04  0.80419002446E+02 0. -1.
        -24    1    1    2    0    0  0.48706266564E+02  0.49931454313E+02 -0.17365149887E+03  0.20368482895E+03  0.80419002446E+02 0.  1.
<mgrwt>
<rscale>  0 0.10645500E+03</rscale>
<asrwt>0</asrwt>
<pdfrwt beam="1">  1        2 0.18829511E+00 0.10645500E+03</pdfrwt>
<pdfrwt beam="2">  1       -2 0.27312865E-02 0.10645500E+03</pdfrwt>
<totfact> 0.90488235E+03</totfact>
</mgrwt>
</event>
<event>
 4    1  0.1123525E-001  0.1079365E+03  0.7546771E-02  0.1264440E+00
         -1   -1    0    0    0  501 -0.00000000000E+00  0.00000000000E+00  0.10257189280E+03  0.10257189280E+03  0.00000000000E+00 0.  1.
          1   -1    0    0  501    0  0.00000000000E+00 -0.00000000000E+00 -0.23176025519E+03  0.23176025519E+03  0.00000000000E+00 0. -1.
         24    1    1    2    0    0 -0.53829697268E+02 -0.47806181961E+02  0.54776623098E+02  0.12104033102E+03  0.80419002446E+02 0.  1.
        -24    1    1    2    0    0  0.53829697268E+02  0.47806181961E+02 -0.18396498549E+03  0.21329181696E+03  0.80419002446E+02 0. -1.
<mgrwt>
<rscale>  0 0.10793648E+03</rscale>
<asrwt>0</asrwt>
<pdfrwt beam="1">  1        1 0.35655423E-01 0.10793648E+03</pdfrwt>
<pdfrwt beam="2">  1       -1 0.15780291E-01 0.10793648E+03</pdfrwt>
<totfact> 0.34342444E+03</totfact>
</mgrwt>
</event>
<event>
 4    1  0.1123525E-001  0.1024694E+03  0.7546771E-02  0.1275187E+00
         -1   -1    0    0    0  501 -0.00000000000E+00  0.00000000000E+00  0.15499453307E+03  0.15499453307E+03  0.00000000000E+00 0.  1.
          1   -1    0    0  501    0  0.00000000000E+00 -0.00000000000E+00 -0.67992914051E+02  0.67992914051E+02  0.00000000000E+00 0. -1.
         24    1    1    2    0    0  0.53679258092E+02  0.33930850717E+02  0.36757627463E+02  0.10886277835E+03  0.80419002446E+02 0.  1.
        -24    1    1    2    0    0 -0.53679258092E+02 -0.33930850717E+02  0.50243991560E+02  0.11412466877E+03  0.80419002446E+02 0.  0.
<mgrwt>
<rscale>  0 0.10246943E+03</rscale>
<asrwt>0</asrwt>
<pdfrwt beam="1">  1        1 0.10460448E-01 0.10246944E+03</pdfrwt>
<pdfrwt beam="2">  1       -1 0.23845313E-01 0.10246944E+03</pdfrwt>
<totfact> 0.83778348E+03</totfact>
</mgrwt>
</event>
<event>
 4    1  0.1123525E-001  0.8044637E+02  0.7546771E-02  0.1327789E+00
         -2   -1    0    0    0  501 -0.00000000000E+00  0.00000000000E+00  0.26765721346E+01  0.26765721346E+01  0.00000000000E+00 0.  1.
          2   -1    0    0  501    0  0.00000000000E+00 -0.00000000000E+00 -0.32381820153E+04  0.32381820153E+04  0.00000000000E+00 0. -1.
         24    1    1    2    0    0 -0.28435127894E+00  0.20789485632E+01 -0.24333344239E+04  0.24346638448E+04  0.80419002446E+02 0.  0.
        -24    1    1    2    0    0  0.28435127894E+00 -0.20789485632E+01 -0.80217101928E+03  0.80619474261E+03  0.80419002446E+02 0.  1.
<mgrwt>
<rscale>  0 0.80446372E+02</rscale>
<asrwt>0</asrwt>
<pdfrwt beam="1">  1        2 0.49818032E+00 0.80446372E+02</pdfrwt>
<pdfrwt beam="2">  1       -2 0.41178159E-03 0.80446372E+02</pdfrwt>
<totfact> 0.11326580E+04</totfact>
</mgrwt>
</event>
<event>
 4    1  0.1123525E-001  0.1208139E+03  0.7546771E-02  0.1241760E+00
          2   -1    0    0  501    0  0.00000000000E+00  0.00000000000E+00  0.15036221204E+04  0.15036221204E+04  0.00000000000E+00 0. -1.
         -2   -1    0    0    0  501 -0.00000000000E+00 -0.00000000000E+00 -0.97484514675E+01  0.97484514675E+01  0.00000000000E+00 0.  1.
         24    1    1    2    0    0  0.83225969186E+02  0.34672929294E+02  0.79614811259E+03  0.80526257028E+03  0.80419002446E+02 0.  1.
        -24    1    1    2    0    0 -0.83225969186E+02 -0.34672929294E+02  0.69772555637E+03  0.70810800161E+03  0.80419002446E+02 0. -1.
<mgrwt>
<rscale>  0 0.12081386E+03</rscale>
<asrwt>0</asrwt>
<pdfrwt beam="1">  1        2 0.23132630E+00 0.12081386E+03</pdfrwt>
<pdfrwt beam="2">  1       -2 0.14997630E-02 0.12081386E+03</pdfrwt>
<totfact> 0.15423055E+04</totfact>
</mgrwt>
</event>
<event>
 4    1  0.1123525E-001  0.9880730E+02  0.7546771E-02  0.1282824E+00
         -2   -1    0    0    0  501 -0.00000000000E+00  0.00000000000E+00  0.55374417491E+02  0.55374417491E+02  0.00000000000E+00 0.  1.
          2   -1    0    0  501    0  0.00000000000E+00 -0.00000000000E+00 -0.18922159284E+03  0.18922159284E+03  0.00000000000E+00 0. -1.
         24    1    1    2    0    0 -0.57321598134E+02  0.31457280762E+01 -0.34972876085E+02  0.10481402212E+03  0.80419002446E+02 0.  1.
        -24    1    1    2    0    0  0.57321598134E+02 -0.31457280762E+01 -0.98874299266E+02  0.13978198821E+03  0.80419002446E+02 0. -1.
<mgrwt>
<rscale>  0 0.98807285E+02</rscale>
<asrwt>0</asrwt>
<pdfrwt beam="1">  1        2 0.29111014E-01 0.98807298E+02</pdfrwt>
<pdfrwt beam="2">  1       -2 0.85191412E-02 0.98807298E+02</pdfrwt>
<totfact> 0.14115873E+04</totfact>
</mgrwt>
</event>
<event>
 4    1  0.1162877E-001  0.1059980E+03  0.7546771E-02  0.1268166E+00
         -1   -1    0    0    0  501 -0.00000000000E+00  0.00000000000E+00  0.82171291323E+02  0.82171291323E+02  0.00000000000E+00 0.  1.
          1   -1    0    0  501    0  0.00000000000E+00 -0.00000000000E+00 -0.37665808533E+03  0.37665808533E+03  0.00000000000E+00 0. -1.
         24    1    1    2    0    0  0.27858016063E+02  0.63184573422E+02  0.35855138906E+02  0.11189801749E+03  0.80419002446E+02 0.  1.
        -24    1    1    2    0    0 -0.27858016063E+02 -0.63184573422E+02 -0.33034193291E+03  0.34693135917E+03  0.80419002446E+02 0. -1.
<mgrwt>
<rscale>  0 0.10599800E+03</rscale>
<asrwt>0</asrwt>
<pdfrwt beam="1">  1        1 0.57947398E-01 0.10599800E+03</pdfrwt>
<pdfrwt beam="2">  1       -1 0.12641737E-01 0.10599800E+03</pdfrwt>
<totfact> 0.26620885E+03</totfact>
</mgrwt>
</event>
<event>
 4    1  0.1123525E-001  0.8081215E+02  0.7546771E-02  0.1326762E+00
         -2   -1    0    0    0  501 -0.00000000000E+00  0.00000000000E+00  0.44106264986E+02  0.44106264986E+02  0.00000000000E+00 0.  1.
          2   -1    0    0  501    0  0.00000000000E+00 -0.00000000000E+00 -0.19526796995E+03  0.19526796995E+03  0.00000000000E+00 0. -1.
         24    1    1    2    0    0  0.38730830281E+01 -0.69560406675E+01 -0.13442667193E+03  0.15684748437E+03  0.80419002446E+02 0. -1.
        -24    1    1    2    0    0 -0.38730830281E+01  0.69560406675E+01 -0.16735033040E+02  0.82526750567E+02  0.80419002446E+02 0.  0.
<mgrwt>
<rscale>  0 0.80812148E+02</rscale>
<asrwt>0</asrwt>
<pdfrwt beam="1">  1        2 0.30041226E-01 0.80812148E+02</pdfrwt>
<pdfrwt beam="2">  1       -2 0.67855793E-02 0.80812148E+02</pdfrwt>
<totfact> 0.18900268E+04</totfact>
</mgrwt>
</event>
<event>
 4    1  0.1123525E-001  0.8530514E+02  0.7546771E-02  0.1314636E+00
         -2   -1    0    0    0  501 -0.00000000000E+00  0.00000000000E+00  0.23040410887E+03  0.23040410887E+03  0.00000000000E+00 0.  1.
          2   -1    0    0  501    0  0.00000000000E+00 -0.00000000000E+00 -0.32661302704E+02  0.32661302704E+02  0.00000000000E+00 0. -1.
         24    1    1    2    0    0 -0.27575780606E+02 -0.70233269882E+01  0.74977457025E+02  0.11357194114E+03  0.80419002446E+02 0.  0.
        -24    1    1    2    0    0  0.27575780606E+02  0.70233269882E+01  0.12276534914E+03  0.14949347043E+03  0.80419002446E+02 0. -1.
<mgrwt>
<rscale>  0 0.85305139E+02</rscale>
<asrwt>0</asrwt>
<pdfrwt beam="1">  1        2 0.50248160E-02 0.85305139E+02</pdfrwt>
<pdfrwt beam="2">  1       -2 0.35446785E-01 0.85305139E+02</pdfrwt>
<totfact> 0.10454914E+04</totfact>
</mgrwt>
</event>
<event>
 4    1  0.1719131E-001  0.1132567E+03  0.7546771E-02  0.1254655E+00
         -1   -1    0    0    0  501 -0.00000000000E+00  0.00000000000E+00  0.59140693921E+02  0.59140693921E+02  0.00000000000E+00 0.  1.
          1   -1    0    0  501    0  0.00000000000E+00 -0.00000000000E+00 -0.94525987899E+03  0.94525987899E+03  0.00000000000E+00 0. -1.
         24    1    1    2    0    0  0.78815927149E+02 -0.12162001698E+02 -0.22235929603E+01  0.11327852832E+03  0.80419002446E+02 0.  1.
        -24    1    1    2    0    0 -0.78815927149E+02  0.12162001698E+02 -0.88389559211E+03  0.89112204460E+03  0.80419002446E+02 0. -1.
<mgrwt>
<rscale>  0 0.11325670E+03</rscale>
<asrwt>0</asrwt>
<pdfrwt beam="1">  1        1 0.14542457E+00 0.11325670E+03</pdfrwt>
<pdfrwt beam="2">  1       -1 0.90985698E-02 0.11325670E+03</pdfrwt>
<totfact> 0.12416863E+03</totfact>
</mgrwt>
</event>
<event>
 4    1  0.1123525E-001  0.1076768E+03  0.7546771E-02  0.1264934E+00
          1   -1    0    0  501    0  0.00000000000E+00  0.00000000000E+00  0.22748289060E+04  0.22748289060E+04  0.00000000000E+00 0. -1.
         -1   -1    0    0    0  501 -0.00000000000E+00 -0.00000000000E+00 -0.63826664234E+01  0.63826664234E+01  0.00000000000E+00 0.  1.
         24    1    1    2    0    0  0.11757438025E+01  0.71594009359E+02  0.62226321671E+03  0.63151073734E+03  0.80419002446E+02 0.  1.
        -24    1    1    2    0    0 -0.11757438025E+01 -0.71594009359E+02  0.16461830229E+04  0.16497008351E+04  0.80419002446E+02 0. -1.
<mgrwt>
<rscale>  0 0.10767683E+03</rscale>
<asrwt>0</asrwt>
<pdfrwt beam="1">  1        1 0.34997303E+00 0.10767683E+03</pdfrwt>
<pdfrwt beam="2">  1       -1 0.98195049E-03 0.10767683E+03</pdfrwt>
<totfact> 0.42660388E+03</totfact>
</mgrwt>
</event>
<event>
 4    1  0.1123525E-001  0.1152507E+03  0.7546771E-02  0.1251144E+00
          2   -1    0    0  501    0  0.00000000000E+00  0.00000000000E+00  0.43174627357E+03  0.43174627357E+03  0.00000000000E+00 0. -1.
         -2   -1    0    0    0  501 -0.00000000000E+00 -0.00000000000E+00 -0.54358013714E+02  0.54358013714E+02  0.00000000000E+00 0.  1.
         24    1    1    2    0    0 -0.24863374628E+01 -0.82518612436E+02  0.34881886143E+03  0.36736537305E+03  0.80419002446E+02 0. -1.
        -24    1    1    2    0    0  0.24863374628E+01  0.82518612436E+02  0.28569398423E+02  0.11873891423E+03  0.80419002446E+02 0.  1.
<mgrwt>
<rscale>  0 0.11525068E+03</rscale>
<asrwt>0</asrwt>
<pdfrwt beam="1">  1        2 0.66422501E-01 0.11525068E+03</pdfrwt>
<pdfrwt beam="2">  1       -2 0.83627717E-02 0.11525068E+03</pdfrwt>
<totfact> 0.61400545E+03</totfact>
</mgrwt>
</event>
<event>
 4    1  0.1123525E-001  0.9030594E+02  0.7546771E-02  0.1302113E+00
          1   -1    0    0  501    0  0.00000000000E+00  0.00000000000E+00  0.16601209617E+03  0.16601209617E+03  0.00000000000E+00 0. -1.
         -1   -1    0    0    0  501 -0.00000000000E+00 -0.00000000000E+00 -0.50233845319E+02  0.50233845319E+02  0.00000000000E+00 0.  1.
         24    1    1    2    0    0 -0.34091966333E+02 -0.22927806246E+02  0.41817137627E+02  0.99518015562E+02  0.80419002446E+02 0. -1.
        -24    1    1    2    0    0  0.34091966333E+02  0.22927806246E+02  0.73961113226E+02  0.11672792593E+03  0.80419002446E+02 0.  1.
<mgrwt>
<rscale>  0 0.90305938E+02</rscale>
<asrwt>0</asrwt>
<pdfrwt beam="1">  1        1 0.25540322E-01 0.90305938E+02</pdfrwt>
<pdfrwt beam="2">  1       -1 0.77282840E-02 0.90305938E+02</pdfrwt>
<totfact> 0.15156290E+04</totfact>
</mgrwt>
</event>
<event>
 4    1  0.1123525E-001  0.8597930E+02  0.7546771E-02  0.1312891E+00
         -1   -1    0    0    0  501 -0.00000000000E+00  0.00000000000E+00  0.23687368616E+02  0.23687368616E+02  0.00000000000E+00 0.  1.
          1   -1    0    0  501    0  0.00000000000E+00 -0.00000000000E+00 -0.70819429455E+03  0.70819429455E+03  0.00000000000E+00 0. -1.
         24    1    1    2    0    0 -0.33008963148E+01  0.30237856813E+02 -0.68573546030E+02  0.10997622957E+03  0.80419002446E+02 0.  1.
        -24    1    1    2    0    0  0.33008963148E+01 -0.30237856813E+02 -0.61593337991E+03  0.62190543360E+03  0.80419002446E+02 0. -1.
<mgrwt>
<rscale>  0 0.85979299E+02</rscale>
<asrwt>0</asrwt>
<pdfrwt beam="1">  1        1 0.10895295E+00 0.85979299E+02</pdfrwt>
<pdfrwt beam="2">  1       -1 0.36442111E-02 0.85979299E+02</pdfrwt>
<totfact> 0.73259298E+03</totfact>
</mgrwt>
</event>
<event>
 4    1  0.1123525E-001  0.8414475E+02  0.7546771E-02  0.1317684E+00
         -1   -1    0    0    0  501 -0.00000000000E+00  0.00000000000E+00  0.21073559590E+02  0.21073559590E+02  0.00000000000E+00 0.  1.
          1   -1    0    0  501    0  0.00000000000E+00 -0.00000000000E+00 -0.38233689361E+03  0.38233689361E+03  0.00000000000E+00 0. -1.
         24    1    1    2    0    0  0.17678281471E+02  0.17337739476E+02 -0.25086483596E+03  0.26460064385E+03  0.80419002446E+02 0. -1.
        -24    1    1    2    0    0 -0.17678281471E+02 -0.17337739476E+02 -0.11039849806E+03  0.13880980936E+03  0.80419002446E+02 0.  1.
<mgrwt>
<rscale>  0 0.84144736E+02</rscale>
<asrwt>0</asrwt>
<pdfrwt beam="1">  1        1 0.58821060E-01 0.84144746E+02</pdfrwt>
<pdfrwt beam="2">  1       -1 0.32420861E-02 0.84144746E+02</pdfrwt>
<totfact> 0.19305020E+04</totfact>
</mgrwt>
</event>
<event>
 4    1  0.1123525E-001  0.8498933E+02  0.7546771E-02  0.1315460E+00
         -1   -1    0    0    0  501 -0.00000000000E+00  0.00000000000E+00  0.25450813585E+02  0.25450813585E+02  0.00000000000E+00 0.  1.
          1   -1    0    0  501    0  0.00000000000E+00 -0.00000000000E+00 -0.53711310480E+03  0.53711310480E+03  0.00000000000E+00 0. -1.
         24    1    1    2    0    0 -0.25599493786E+02 -0.10031733871E+02 -0.62665634874E+02  0.10559435361E+03  0.80419002446E+02 0.  1.
        -24    1    1    2    0    0  0.25599493786E+02  0.10031733871E+02 -0.44899665634E+03  0.45696956477E+03  0.80419002446E+02 0. -1.
<mgrwt>
<rscale>  0 0.84989327E+02</rscale>
<asrwt>0</asrwt>
<pdfrwt beam="1">  1        1 0.82632779E-01 0.84989327E+02</pdfrwt>
<pdfrwt beam="2">  1       -1 0.39155101E-02 0.84989327E+02</pdfrwt>
<totfact> 0.95812432E+03</totfact>
</mgrwt>
</event>
<event>
 4    1  0.1123525E-001  0.8644432E+02  0.7546771E-02  0.1311698E+00
         -2   -1    0    0    0  501 -0.00000000000E+00  0.00000000000E+00  0.28538552795E+02  0.28538552795E+02  0.00000000000E+00 0.  1.
          2   -1    0    0  501    0  0.00000000000E+00 -0.00000000000E+00 -0.37151375794E+04  0.37151375794E+04  0.00000000000E+00 0. -1.
         24    1    1    2    0    0 -0.17999836737E+02 -0.26103843631E+02 -0.36479688397E+04  0.36489929126E+04  0.80419002446E+02 0. -1.
        -24    1    1    2    0    0  0.17999836737E+02  0.26103843631E+02 -0.38630186864E+02  0.94683219561E+02  0.80419002446E+02 0.  1.
<mgrwt>
<rscale>  0 0.86444322E+02</rscale>
<asrwt>0</asrwt>
<pdfrwt beam="1">  1        2 0.57155912E+00 0.86444322E+02</pdfrwt>
<pdfrwt beam="2">  1       -2 0.43905504E-02 0.86444322E+02</pdfrwt>
<totfact> 0.19363124E+02</totfact>
</mgrwt>
</event>
<event>
 4    1  0.1123525E-001  0.1035614E+03  0.7546771E-02  0.1272980E+00
         -1   -1    0    0    0  501 -0.00000000000E+00  0.00000000000E+00  0.21057889517E+02  0.21057889517E+02  0.00000000000E+00 0.  1.
          1   -1    0    0  501    0  0.00000000000E+00 -0.00000000000E+00 -0.55473179217E+03  0.55473179217E+03  0.00000000000E+00 0. -1.
         24    1    1    2    0    0  0.35734223017E+02  0.54596769830E+02 -0.18445489825E+03  0.21153857193E+03  0.80419002446E+02 0.  1.
        -24    1    1    2    0    0 -0.35734223017E+02 -0.54596769830E+02 -0.34921900440E+03  0.36425110976E+03  0.80419002446E+02 0. -1.
<mgrwt>
<rscale>  0 0.10356137E+03</rscale>
<asrwt>0</asrwt>
<pdfrwt beam="1">  1        1 0.85343348E-01 0.10356137E+03</pdfrwt>
<pdfrwt beam="2">  1       -1 0.32396755E-02 0.10356137E+03</pdfrwt>
<totfact> 0.12281411E+04</totfact>
</mgrwt>
</event>
<event>
 4    1  0.1123525E-001  0.8079573E+02  0.7546771E-02  0.1326808E+00
          2   -1    0    0  501    0  0.00000000000E+00  0.00000000000E+00  0.31717125668E+02  0.31717125668E+02  0.00000000000E+00 0. -1.
         -2   -1    0    0    0  501 -0.00000000000E+00 -0.00000000000E+00 -0.26535409305E+03  0.26535409305E+03  0.00000000000E+00 0.  1.
         24    1    1    2    0    0 -0.73465495930E+01  0.26004987163E+01 -0.46461302550E+02  0.93201947263E+02  0.80419002446E+02 0. -1.
        -24    1    1    2    0    0  0.73465495930E+01 -0.26004987163E+01 -0.18717566483E+03  0.20386927145E+03  0.80419002446E+02 0.  0.
<mgrwt>
<rscale>  0 0.80795732E+02</rscale>
<asrwt>0</asrwt>
<pdfrwt beam="1">  1        2 0.48795578E-02 0.80795732E+02</pdfrwt>
<pdfrwt beam="2">  1       -2 0.40823706E-01 0.80795732E+02</pdfrwt>
<totfact> 0.83060430E+03</totfact>
</mgrwt>
</event>
<event>
 4    1  0.1123525E-001  0.8688342E+02  0.7546771E-02  0.1310579E+00
         -2   -1    0    0    0  501 -0.00000000000E+00  0.00000000000E+00  0.24610989911E+02  0.24610989911E+02  0.00000000000E+00 0.  1.
          2   -1    0    0  501    0  0.00000000000E+00 -0.00000000000E+00 -0.41746346985E+03  0.41746346985E+03  0.00000000000E+00 0. -1.
         24    1    1    2    0    0  0.98083844424E+01 -0.31389625529E+02 -0.31027061530E+03  0.32220580949E+03  0.80419002446E+02 0. -1.
        -24    1    1    2    0    0 -0.98083844424E+01  0.31389625529E+02 -0.82581864643E+02  0.11986865027E+03  0.80419002446E+02 0.  1.
<mgrwt>
<rscale>  0 0.86883422E+02</rscale>
<asrwt>0</asrwt>
<pdfrwt beam="1">  1        2 0.64225144E-01 0.86883422E+02</pdfrwt>
<pdfrwt beam="2">  1       -2 0.37863065E-02 0.86883422E+02</pdfrwt>
<totfact> 0.20413370E+04</totfact>
</mgrwt>
</event>
<event>
 4    1  0.1123525E-001  0.3750923E+03  0.7546771E-02  0.1052763E+00
          3   -1    0    0  501    0  0.00000000000E+00  0.00000000000E+00  0.39967586045E+03  0.39967586045E+03  0.00000000000E+00 0. -1.
         -3   -1    0    0    0  501 -0.00000000000E+00 -0.00000000000E+00 -0.95554126675E+03  0.95554126675E+03  0.00000000000E+00 0.  1.
         24    1    1    2    0    0  0.33676654773E+03  0.14427503345E+03 -0.81645063593E+03  0.89849087353E+03  0.80419002446E+02 0.  1.
        -24    1    1    2    0    0 -0.33676654773E+03 -0.14427503345E+03  0.26058522963E+03  0.45672625368E+03  0.80419002446E+02 0. -1.
<mgrwt>
<rscale>  0 0.37509227E+03</rscale>
<asrwt>0</asrwt>
<pdfrwt beam="1">  1        3 0.61488594E-01 0.37509227E+03</pdfrwt>
<pdfrwt beam="2">  1       -3 0.14700635E+00 0.37509227E+03</pdfrwt>
<totfact> 0.23057126E+00</totfact>
</mgrwt>
</event>
<event>
 4    1  0.1211753E-001  0.8855684E+02  0.7546771E-02  0.1306385E+00
          1   -1    0    0  501    0  0.00000000000E+00  0.00000000000E+00  0.27368941057E+03  0.27368941057E+03  0.00000000000E+00 0. -1.
         -1   -1    0    0    0  501 -0.00000000000E+00 -0.00000000000E+00 -0.99976570733E+02  0.99976570733E+02  0.00000000000E+00 0.  1.
         24    1    1    2    0    0 -0.11423320148E+02  0.35278957634E+02 -0.70947488807E+02  0.11347184328E+03  0.80419002446E+02 0.  1.
        -24    1    1    2    0    0  0.11423320148E+02 -0.35278957634E+02  0.24466032864E+03  0.26019413802E+03  0.80419002446E+02 0. -1.
<mgrwt>
<rscale>  0 0.88556835E+02</rscale>
<asrwt>0</asrwt>
<pdfrwt beam="1">  1        1 0.42106063E-01 0.88556835E+02</pdfrwt>
<pdfrwt beam="2">  1       -1 0.15381011E-01 0.88556835E+02</pdfrwt>
<totfact> 0.28850962E+03</totfact>
</mgrwt>
</event>
<event>
 4    1  0.1123525E-001  0.4495728E+03  0.7546771E-02  0.1027850E+00
         -2   -1    0    0    0  501 -0.00000000000E+00  0.00000000000E+00  0.19175263478E+03  0.19175263478E+03  0.00000000000E+00 0.  1.
          2   -1    0    0  501    0  0.00000000000E+00 -0.00000000000E+00 -0.13458281632E+04  0.13458281632E+04  0.00000000000E+00 0. -1.
         24    1    1    2    0    0 -0.38208982159E+03 -0.22283594708E+03 -0.93500562051E+03  0.10374734779E+04  0.80419002446E+02 0. -1.
        -24    1    1    2    0    0  0.38208982159E+03  0.22283594708E+03 -0.21906990795E+03  0.50010732008E+03  0.80419002446E+02 0.  1.
<mgrwt>
<rscale>  0 0.44957281E+03</rscale>
<asrwt>0</asrwt>
<pdfrwt beam="1">  1        2 0.20705049E+00 0.44957281E+03</pdfrwt>
<pdfrwt beam="2">  1       -2 0.29500405E-01 0.44957281E+03</pdfrwt>
<totfact> 0.17151572E+02</totfact>
</mgrwt>
</event>
<event>
 4    1  0.1123525E-001  0.8772638E+02  0.7546771E-02  0.1308453E+00
          1   -1    0    0  501    0  0.00000000000E+00  0.00000000000E+00  0.78355651465E+03  0.78355651465E+03  0.00000000000E+00 0. -1.
         -1   -1    0    0    0  501 -0.00000000000E+00 -0.00000000000E+00 -0.57842277821E+02  0.57842277821E+02  0.00000000000E+00 0.  1.
         24    1    1    2    0    0 -0.67261278472E+01 -0.34401465792E+02 -0.20463814418E+02  0.90081548051E+02  0.80419002446E+02 0.  1.
        -24    1    1    2    0    0  0.67261278472E+01  0.34401465792E+02  0.74617805125E+03  0.75131724442E+03  0.80419002446E+02 0. -1.
<mgrwt>
<rscale>  0 0.87726379E+02</rscale>
<asrwt>0</asrwt>
<pdfrwt beam="1">  1        1 0.12054715E+00 0.87726379E+02</pdfrwt>
<pdfrwt beam="2">  1       -1 0.88988125E-02 0.87726379E+02</pdfrwt>
<totfact> 0.17072222E+03</totfact>
</mgrwt>
</event>
<event>
 4    1  0.1123525E-001  0.1784473E+03  0.7546771E-02  0.1169314E+00
         -1   -1    0    0    0  501 -0.00000000000E+00  0.00000000000E+00  0.41957115034E+03  0.41957115034E+03  0.00000000000E+00 0.  1.
          1   -1    0    0  501    0  0.00000000000E+00 -0.00000000000E+00 -0.12727800733E+03  0.12727800733E+03  0.00000000000E+00 0. -1.
         24    1    1    2    0    0 -0.48706069223E+02  0.15167049163E+03  0.31987456133E+03  0.36628290999E+03  0.80419002446E+02 0.  1.
        -24    1    1    2    0    0  0.48706069223E+02 -0.15167049163E+03 -0.27581418320E+02  0.18056624768E+03  0.80419002446E+02 0. -1.
<mgrwt>
<rscale>  0 0.17844729E+03</rscale>
<asrwt>0</asrwt>
<pdfrwt beam="1">  1        1 0.19581232E-01 0.17844729E+03</pdfrwt>
<pdfrwt beam="2">  1       -1 0.64549407E-01 0.17844729E+03</pdfrwt>
<totfact> 0.66103796E+02</totfact>
</mgrwt>
</event>
<event>
 4    1  0.1123525E-001  0.8061445E+02  0.7546771E-02  0.1327317E+00
         -2   -1    0    0    0  501 -0.00000000000E+00  0.00000000000E+00  0.16787770247E+02  0.16787770247E+02  0.00000000000E+00 0.  1.
          2   -1    0    0  501    0  0.00000000000E+00 -0.00000000000E+00 -0.54831110293E+03  0.54831110293E+03  0.00000000000E+00 0. -1.
         24    1    1    2    0    0 -0.33034979168E+01 -0.45343989278E+01 -0.41896451789E+03  0.42664968895E+03  0.80419002446E+02 0. -1.
        -24    1    1    2    0    0  0.33034979168E+01  0.45343989278E+01 -0.11255881479E+03  0.13844918423E+03  0.80419002446E+02 0.  1.
<mgrwt>
<rscale>  0 0.80614452E+02</rscale>
<asrwt>0</asrwt>
<pdfrwt beam="1">  1        2 0.84355545E-01 0.80614452E+02</pdfrwt>
<pdfrwt beam="2">  1       -2 0.25827342E-02 0.80614452E+02</pdfrwt>
<totfact> 0.26362581E+04</totfact>
</mgrwt>
</event>
<event>
 4    1  0.1123525E-001  0.8672102E+02  0.7546771E-02  0.1310992E+00
         -1   -1    0    0    0  501 -0.00000000000E+00  0.00000000000E+00  0.30217760070E+02  0.30217760070E+02  0.00000000000E+00 0.  1.
          1   -1    0    0  501    0  0.00000000000E+00 -0.00000000000E+00 -0.37857253151E+03  0.37857253151E+03  0.00000000000E+00 0. -1.
         24    1    1    2    0    0 -0.41905344089E+01  0.32183210074E+02 -0.54542767402E+02  0.10244729874E+03  0.80419002446E+02 0.  1.
        -24    1    1    2    0    0  0.41905344089E+01 -0.32183210074E+02 -0.29381200403E+03  0.30634299283E+03  0.80419002446E+02 0. -1.
<mgrwt>
<rscale>  0 0.86721021E+02</rscale>
<asrwt>0</asrwt>
<pdfrwt beam="1">  1        1 0.58241925E-01 0.86721021E+02</pdfrwt>
<pdfrwt beam="2">  1       -1 0.46488864E-02 0.86721021E+02</pdfrwt>
<totfact> 0.11628791E+04</totfact>
</mgrwt>
</event>
<event>
 4    1  0.1123525E-001  0.8591260E+02  0.7546771E-02  0.1313063E+00
          1   -1    0    0  501    0  0.00000000000E+00  0.00000000000E+00  0.38321191009E+03  0.38321191009E+03  0.00000000000E+00 0. -1.
         -1   -1    0    0    0  501 -0.00000000000E+00 -0.00000000000E+00 -0.21059434271E+02  0.21059434271E+02  0.00000000000E+00 0.  1.
         24    1    1    2    0    0 -0.45074739295E+01  0.29890441634E+02  0.24014934876E+03  0.25505427165E+03  0.80419002446E+02 0.  0.
        -24    1    1    2    0    0  0.45074739295E+01 -0.29890441634E+02  0.12200312706E+03  0.14921707271E+03  0.80419002446E+02 0. -1.
<mgrwt>
<rscale>  0 0.85912593E+02</rscale>
<asrwt>0</asrwt>
<pdfrwt beam="1">  1        1 0.58955673E-01 0.85912604E+02</pdfrwt>
<pdfrwt beam="2">  1       -1 0.32399132E-02 0.85912604E+02</pdfrwt>
<totfact> 0.19311898E+04</totfact>
</mgrwt>
</event>
<event>
 4    1  0.1123525E-001  0.9619488E+02  0.7546771E-02  0.1288507E+00
          2   -1    0    0  501    0  0.00000000000E+00  0.00000000000E+00  0.39348126892E+04  0.39348126892E+04  0.00000000000E+00 0. -1.
         -2   -1    0    0    0  501 -0.00000000000E+00 -0.00000000000E+00 -0.24242152960E+01  0.24242152960E+01  0.00000000000E+00 0.  1.
         24    1    1    2    0    0 -0.12731638653E+02  0.51226365035E+02  0.16256862856E+04  0.16285298125E+04  0.80419002446E+02 0.  1.
        -24    1    1    2    0    0  0.12731638653E+02 -0.51226365035E+02  0.23067021882E+04  0.23087070919E+04  0.80419002446E+02 0. -1.
<mgrwt>
<rscale>  0 0.96194872E+02</rscale>
<asrwt>0</asrwt>
<pdfrwt beam="1">  1        2 0.60535069E+00 0.96194884E+02</pdfrwt>
<pdfrwt beam="2">  1       -2 0.37295935E-03 0.96194884E+02</pdfrwt>
<totfact> 0.45531211E+03</totfact>
</mgrwt>
</event>
<event>
 4    1  0.1123525E-001  0.1041408E+03  0.7546771E-02  0.1271822E+00
         -2   -1    0    0    0  501 -0.00000000000E+00  0.00000000000E+00  0.20601560710E+02  0.20601560710E+02  0.00000000000E+00 0.  1.
          2   -1    0    0  501    0  0.00000000000E+00 -0.00000000000E+00 -0.82651191295E+03  0.82651191295E+03  0.00000000000E+00 0. -1.
         24    1    1    2    0    0 -0.65862250980E+02  0.63448407433E+01 -0.65817000807E+03  0.66635806335E+03  0.80419002446E+02 0. -1.
        -24    1    1    2    0    0  0.65862250980E+02 -0.63448407433E+01 -0.14774034417E+03  0.18075541032E+03  0.80419002446E+02 0.  1.
<mgrwt>
<rscale>  0 0.10414081E+03</rscale>
<asrwt>0</asrwt>
<pdfrwt beam="1">  1        2 0.12715565E+00 0.10414081E+03</pdfrwt>
<pdfrwt beam="2">  1       -2 0.31694717E-02 0.10414081E+03</pdfrwt>
<totfact> 0.12462133E+04</totfact>
</mgrwt>
</event>
<event>
 4    1  0.1123525E-001  0.1410265E+03  0.7546771E-02  0.1211954E+00
          1   -1    0    0  501    0  0.00000000000E+00  0.00000000000E+00  0.26978688487E+03  0.26978688487E+03  0.00000000000E+00 0. -1.
         -1   -1    0    0    0  501 -0.00000000000E+00 -0.00000000000E+00 -0.95741290827E+02  0.95741290827E+02  0.00000000000E+00 0.  1.
         24    1    1    2    0    0 -0.18784157861E+02 -0.11431718535E+03 -0.63090767572E+00  0.14102793146E+03  0.80419002446E+02 0.  1.
        -24    1    1    2    0    0  0.18784157861E+02  0.11431718535E+03  0.17467650172E+03  0.22450024423E+03  0.80419002446E+02 0. -1.
<mgrwt>
<rscale>  0 0.14102652E+03</rscale>
<asrwt>0</asrwt>
<pdfrwt beam="1">  1        1 0.41505674E-01 0.14102652E+03</pdfrwt>
<pdfrwt beam="2">  1       -1 0.14729429E-01 0.14102652E+03</pdfrwt>
<totfact> 0.32148995E+03</totfact>
</mgrwt>
</event>
<event>
 4    1  0.1123525E-001  0.1075020E+03  0.7546771E-02  0.1265267E+00
         -2   -1    0    0    0  501 -0.00000000000E+00  0.00000000000E+00  0.36748520801E+02  0.36748520801E+02  0.00000000000E+00 0.  1.
          2   -1    0    0  501    0  0.00000000000E+00 -0.00000000000E+00 -0.33287770684E+03  0.33287770684E+03  0.00000000000E+00 0. -1.
         24    1    1    2    0    0 -0.33960934053E+02 -0.62738470642E+02 -0.19151278155E+03  0.21962199842E+03  0.80419002446E+02 0. -1.
        -24    1    1    2    0    0  0.33960934053E+02  0.62738470642E+02 -0.10461640449E+03  0.15000422922E+03  0.80419002446E+02 0.  1.
<mgrwt>
<rscale>  0 0.10750198E+03</rscale>
<asrwt>0</asrwt>
<pdfrwt beam="1">  1        2 0.51211958E-01 0.10750198E+03</pdfrwt>
<pdfrwt beam="2">  1       -2 0.56536183E-02 0.10750198E+03</pdfrwt>
<totfact> 0.14593936E+04</totfact>
</mgrwt>
</event>
<event>
 4    1  0.1123525E-001  0.1097686E+03  0.7546771E-02  0.1260999E+00
         -2   -1    0    0    0  501 -0.00000000000E+00  0.00000000000E+00  0.16732026013E+02  0.16732026013E+02  0.00000000000E+00 0.  1.
          2   -1    0    0  501    0  0.00000000000E+00 -0.00000000000E+00 -0.72013705934E+03  0.72013705934E+03  0.00000000000E+00 0. -1.
         24    1    1    2    0    0 -0.29085786869E+01 -0.74655616375E+02 -0.35014558831E+03  0.36694832041E+03  0.80419002446E+02 0. -1.
        -24    1    1    2    0    0  0.29085786869E+01  0.74655616375E+02 -0.35325944501E+03  0.36992076493E+03  0.80419002446E+02 0.  1.
<mgrwt>
<rscale>  0 0.10976857E+03</rscale>
<asrwt>0</asrwt>
<pdfrwt beam="1">  1        2 0.11079034E+00 0.10976859E+03</pdfrwt>
<pdfrwt beam="2">  1       -2 0.25741573E-02 0.10976859E+03</pdfrwt>
<totfact> 0.20038484E+04</totfact>
</mgrwt>
</event>
<event>
 4    1  0.1123525E-001  0.1166735E+03  0.7546771E-02  0.1248688E+00
          2   -1    0    0  501    0  0.00000000000E+00  0.00000000000E+00  0.28424369424E+04  0.28424369424E+04  0.00000000000E+00 0. -1.
         -2   -1    0    0    0  501 -0.00000000000E+00 -0.00000000000E+00 -0.68085103741E+01  0.68085103741E+01  0.00000000000E+00 0.  1.
         24    1    1    2    0    0 -0.36060144985E+02  0.76453597040E+02  0.21936799493E+04  0.21967804675E+04  0.80419002446E+02 0.  1.
        -24    1    1    2    0    0  0.36060144985E+02 -0.76453597040E+02  0.64194848277E+03  0.65246498530E+03  0.80419002446E+02 0. -1.
<mgrwt>
<rscale>  0 0.11667349E+03</rscale>
<asrwt>0</asrwt>
<pdfrwt beam="1">  1        2 0.43729704E+00 0.11667349E+03</pdfrwt>
<pdfrwt beam="2">  1       -2 0.10474654E-02 0.11667349E+03</pdfrwt>
<totfact> 0.51587804E+03</totfact>
</mgrwt>
</event>
<event>
 4    1  0.1123525E-001  0.8120298E+02  0.7546771E-02  0.1325672E+00
          1   -1    0    0  501    0  0.00000000000E+00  0.00000000000E+00  0.68731617932E+02  0.68731617932E+02  0.00000000000E+00 0. -1.
         -1   -1    0    0    0  501 -0.00000000000E+00 -0.00000000000E+00 -0.14428962456E+03  0.14428962456E+03  0.00000000000E+00 0.  1.
         24    1    1    2    0    0  0.50767571359E+01 -0.10046629038E+02 -0.99436253863E+02  0.12838026622E+03  0.80419002446E+02 0.  0.
        -24    1    1    2    0    0 -0.50767571359E+01  0.10046629038E+02  0.23878247239E+02  0.84640976268E+02  0.80419002446E+02 0. -1.
<mgrwt>
<rscale>  0 0.81202981E+02</rscale>
<asrwt>0</asrwt>
<pdfrwt beam="1">  1        1 0.10574095E-01 0.81202981E+02</pdfrwt>
<pdfrwt beam="2">  1       -1 0.22198404E-01 0.81202981E+02</pdfrwt>
<totfact> 0.90735402E+03</totfact>
</mgrwt>
</event>
<event>
 4    1  0.1123525E-001  0.8808758E+02  0.7546771E-02  0.1307550E+00
          3   -1    0    0  501    0  0.00000000000E+00  0.00000000000E+00  0.14835818958E+03  0.14835818958E+03  0.00000000000E+00 0. -1.
         -3   -1    0    0    0  501 -0.00000000000E+00 -0.00000000000E+00 -0.20941455785E+03  0.20941455785E+03  0.00000000000E+00 0.  1.
         24    1    1    2    0    0  0.24197542369E+02  0.26583546164E+02 -0.18547382077E+03  0.20532890720E+03  0.80419002446E+02 0.  1.
        -24    1    1    2    0    0 -0.24197542369E+02 -0.26583546164E+02  0.12441745251E+03  0.15244384024E+03  0.80419002446E+02 0. -1.
<mgrwt>
<rscale>  0 0.88087581E+02</rscale>
<asrwt>0</asrwt>
<pdfrwt beam="1">  1        3 0.22824337E-01 0.88087581E+02</pdfrwt>
<pdfrwt beam="2">  1       -3 0.32217624E-01 0.88087581E+02</pdfrwt>
<totfact> 0.36271074E+02</totfact>
</mgrwt>
</event>
<event>
 4    1  0.1123525E-001  0.1082753E+03  0.7546771E-02  0.1263798E+00
          3   -1    0    0  501    0  0.00000000000E+00  0.00000000000E+00  0.26088683323E+02  0.26088683323E+02  0.00000000000E+00 0. -1.
         -3   -1    0    0    0  501 -0.00000000000E+00 -0.00000000000E+00 -0.77471896571E+03  0.77471896571E+03  0.00000000000E+00 0.  1.
         24    1    1    2    0    0  0.65619961416E+02 -0.30827612948E+02 -0.63379231890E+03  0.64297452555E+03  0.80419002446E+02 0.  1.
        -24    1    1    2    0    0 -0.65619961416E+02  0.30827612948E+02 -0.11483796349E+03  0.15783312349E+03  0.80419002446E+02 0. -1.
<mgrwt>
<rscale>  0 0.10827528E+03</rscale>
<asrwt>0</asrwt>
<pdfrwt beam="1">  1        3 0.40136441E-02 0.10827528E+03</pdfrwt>
<pdfrwt beam="2">  1       -3 0.11918752E+00 0.10827528E+03</pdfrwt>
<totfact> 0.43636517E+02</totfact>
</mgrwt>
</event>
<event>
 4    1  0.1123525E-001  0.8790464E+02  0.7546771E-02  0.1308007E+00
          1   -1    0    0  501    0  0.00000000000E+00  0.00000000000E+00  0.44541086228E+03  0.44541086228E+03  0.00000000000E+00 0. -1.
         -1   -1    0    0    0  501 -0.00000000000E+00 -0.00000000000E+00 -0.19058723356E+02  0.19058723356E+02  0.00000000000E+00 0.  1.
         24    1    1    2    0    0  0.25828337722E+02 -0.24349590813E+02  0.28274312186E+03  0.29609271271E+03  0.80419002446E+02 0.  0.
        -24    1    1    2    0    0 -0.25828337722E+02  0.24349590813E+02  0.14360901706E+03  0.16837687293E+03  0.80419002446E+02 0. -1.
<mgrwt>
<rscale>  0 0.87904627E+02</rscale>
<asrwt>0</asrwt>
<pdfrwt beam="1">  1        1 0.68524740E-01 0.87904638E+02</pdfrwt>
<pdfrwt beam="2">  1       -1 0.29321116E-02 0.87904638E+02</pdfrwt>
<totfact> 0.18531837E+04</totfact>
</mgrwt>
</event>
<event>
 4    1  0.1123525E-001  0.1025395E+03  0.7546771E-02  0.1275045E+00
          2   -1    0    0  501    0  0.00000000000E+00  0.00000000000E+00  0.11816183545E+04  0.11816183545E+04  0.00000000000E+00 0. -1.
         -2   -1    0    0    0  501 -0.00000000000E+00 -0.00000000000E+00 -0.20092338202E+02  0.20092338202E+02  0.00000000000E+00 0.  1.
         24    1    1    2    0    0 -0.58591941444E+02  0.24781305288E+02  0.10292490203E+04  0.10343441838E+04  0.80419002446E+02 0. -1.
        -24    1    1    2    0    0  0.58591941444E+02 -0.24781305288E+02  0.13227699594E+03  0.16736650891E+03  0.80419002446E+02 0.  1.
<mgrwt>
<rscale>  0 0.10253948E+03</rscale>
<asrwt>0</asrwt>
<pdfrwt beam="1">  1        2 0.18178739E+00 0.10253948E+03</pdfrwt>
<pdfrwt beam="2">  1       -2 0.30911299E-02 0.10253948E+03</pdfrwt>
<totfact> 0.79521185E+03</totfact>
</mgrwt>
</event>
<event>
 4    1  0.1123525E-001  0.9170782E+02  0.7546771E-02  0.1298768E+00
          1   -1    0    0  501    0  0.00000000000E+00  0.00000000000E+00  0.30957132043E+03  0.30957132043E+03  0.00000000000E+00 0. -1.
         -1   -1    0    0    0  501 -0.00000000000E+00 -0.00000000000E+00 -0.12816784513E+03  0.12816784513E+03  0.00000000000E+00 0.  1.
         24    1    1    2    0    0 -0.32709973968E+02  0.29549389973E+02 -0.10359118379E+03  0.13835265866E+03  0.80419002446E+02 0.  1.
        -24    1    1    2    0    0  0.32709973968E+02 -0.29549389973E+02  0.28499465909E+03  0.29938650689E+03  0.80419002446E+02 0. -1.
<mgrwt>
<rscale>  0 0.91707823E+02</rscale>
<asrwt>0</asrwt>
<pdfrwt beam="1">  1        1 0.47626357E-01 0.91707823E+02</pdfrwt>
<pdfrwt beam="2">  1       -1 0.19718130E-01 0.91707823E+02</pdfrwt>
<totfact> 0.16840179E+03</totfact>
</mgrwt>
</event>
<event>
 4    1  0.1123525E-001  0.1076481E+03  0.7546771E-02  0.1264988E+00
         -2   -1    0    0    0  501 -0.00000000000E+00  0.00000000000E+00  0.49719348917E+03  0.49719348917E+03  0.00000000000E+00 0.  1.
          2   -1    0    0  501    0  0.00000000000E+00 -0.00000000000E+00 -0.24707681751E+02  0.24707681751E+02  0.00000000000E+00 0. -1.
         24    1    1    2    0    0  0.25643132329E+02  0.66808158970E+02  0.17411261212E+03  0.20470299948E+03  0.80419002446E+02 0.  1.
        -24    1    1    2    0    0 -0.25643132329E+02 -0.66808158970E+02  0.29837319529E+03  0.31719817144E+03  0.80419002446E+02 0. -1.
<mgrwt>
<rscale>  0 0.10764811E+03</rscale>
<asrwt>0</asrwt>
<pdfrwt beam="1">  1        2 0.38011822E-02 0.10764811E+03</pdfrwt>
<pdfrwt beam="2">  1       -2 0.76491299E-01 0.10764811E+03</pdfrwt>
<totfact> 0.33405458E+03</totfact>
</mgrwt>
</event>
<event>
 4    1  0.1123525E-001  0.8249541E+02  0.7546771E-02  0.1322115E+00
         -1   -1    0    0    0  501 -0.00000000000E+00  0.00000000000E+00  0.49943507865E+02  0.49943507865E+02  0.00000000000E+00 0.  1.
          1   -1    0    0  501    0  0.00000000000E+00 -0.00000000000E+00 -0.19671731840E+03  0.19671731840E+03  0.00000000000E+00 0. -1.
         24    1    1    2    0    0 -0.11908387777E+02 -0.14016654241E+02 -0.50178350914E+01  0.82647873045E+02  0.80419002446E+02 0.  1.
        -24    1    1    2    0    0  0.11908387777E+02  0.14016654241E+02 -0.14175597544E+03  0.16401295322E+03  0.80419002446E+02 0.  1.
<mgrwt>
<rscale>  0 0.82495407E+02</rscale>
<asrwt>0</asrwt>
<pdfrwt beam="1">  1        1 0.30264203E-01 0.82495407E+02</pdfrwt>
<pdfrwt beam="2">  1       -1 0.76836166E-02 0.82495407E+02</pdfrwt>
<totfact> 0.12292359E+04</totfact>
</mgrwt>
</event>
<event>
 4    1  0.1123525E-001  0.1136168E+03  0.7546771E-02  0.1254015E+00
          1   -1    0    0  501    0  0.00000000000E+00  0.00000000000E+00  0.62204806470E+03  0.62204806470E+03  0.00000000000E+00 0. -1.
         -1   -1    0    0    0  501 -0.00000000000E+00 -0.00000000000E+00 -0.32706630474E+02  0.32706630474E+02  0.00000000000E+00 0.  1.
         24    1    1    2    0    0 -0.79244683383E+02  0.12722017329E+02  0.96747147749E+02  0.14922733034E+03  0.80419002446E+02 0.  1.
        -24    1    1    2    0    0  0.79244683383E+02 -0.12722017329E+02  0.49259428648E+03  0.50552736483E+03  0.80419002446E+02 0. -1.
<mgrwt>
<rscale>  0 0.11361684E+03</rscale>
<asrwt>0</asrwt>
<pdfrwt beam="1">  1        1 0.95699694E-01 0.11361684E+03</pdfrwt>
<pdfrwt beam="2">  1       -1 0.50317898E-02 0.11361684E+03</pdfrwt>
<totfact> 0.55723631E+03</totfact>
</mgrwt>
</event>
<event>
 4    1  0.1123525E-001  0.1156967E+03  0.7546771E-02  0.1250370E+00
         -2   -1    0    0    0  501 -0.00000000000E+00  0.00000000000E+00  0.99754847444E+01  0.99754847444E+01  0.00000000000E+00 0.  1.
          2   -1    0    0  501    0  0.00000000000E+00 -0.00000000000E+00 -0.31663190577E+04  0.31663190577E+04  0.00000000000E+00 0. -1.
         24    1    1    2    0    0  0.82406391448E+02  0.11299961373E+02 -0.27837081740E+04  0.27861114329E+04  0.80419002446E+02 0. -1.
        -24    1    1    2    0    0 -0.82406391448E+02 -0.11299961373E+02 -0.37263539892E+03  0.39018310953E+03  0.80419002446E+02 0.  1.
<mgrwt>
<rscale>  0 0.11569667E+03</rscale>
<asrwt>0</asrwt>
<pdfrwt beam="1">  1        2 0.48712638E+00 0.11569667E+03</pdfrwt>
<pdfrwt beam="2">  1       -2 0.15346888E-02 0.11569667E+03</pdfrwt>
<totfact> 0.19438818E+03</totfact>
</mgrwt>
</event>
<event>
 4    1  0.1123525E-001  0.8478732E+02  0.7546771E-02  0.1315990E+00
         -1   -1    0    0    0  501 -0.00000000000E+00  0.00000000000E+00  0.38207870764E+02  0.38207870764E+02  0.00000000000E+00 0.  1.
          1   -1    0    0  501    0  0.00000000000E+00 -0.00000000000E+00 -0.26238105277E+03  0.26238105277E+03  0.00000000000E+00 0. -1.
         24    1    1    2    0    0  0.12375312895E+02  0.23843753461E+02 -0.32146695004E+02  0.90676892880E+02  0.80419002446E+02 0.  1.
        -24    1    1    2    0    0 -0.12375312895E+02 -0.23843753461E+02 -0.19202648700E+03  0.20991203065E+03  0.80419002446E+02 0. -1.
<mgrwt>
<rscale>  0 0.84787316E+02</rscale>
<asrwt>0</asrwt>
<pdfrwt beam="1">  1        1 0.40366314E-01 0.84787316E+02</pdfrwt>
<pdfrwt beam="2">  1       -1 0.58781342E-02 0.84787316E+02</pdfrwt>
<totfact> 0.12885710E+04</totfact>
</mgrwt>
</event>
<event>
 4    1  0.1123525E-001  0.8319012E+02  0.7546771E-02  0.1320235E+00
         -2   -1    0    0    0  501 -0.00000000000E+00  0.00000000000E+00  0.38737932151E+01  0.38737932151E+01  0.00000000000E+00 0.  1.
          2   -1    0    0  501    0  0.00000000000E+00 -0.00000000000E+00 -0.20463997947E+04  0.20463997947E+04  0.00000000000E+00 0. -1.
         24    1    1    2    0    0  0.19851805928E+02  0.76996941019E+01 -0.13865849560E+04  0.13890782683E+04  0.80419002446E+02 0. -1.
        -24    1    1    2    0    0 -0.19851805928E+02 -0.76996941019E+01 -0.65594104557E+03  0.66119531964E+03  0.80419002446E+02 0.  1.
<mgrwt>
<rscale>  0 0.83190116E+02</rscale>
<asrwt>0</asrwt>
<pdfrwt beam="1">  1        2 0.31483085E+00 0.83190116E+02</pdfrwt>
<pdfrwt beam="2">  1       -2 0.59596798E-03 0.83190116E+02</pdfrwt>
<totfact> 0.29631225E+04</totfact>
</mgrwt>
</event>
<event>
 4    1  0.1123525E-001  0.9635763E+02  0.7546771E-02  0.1288147E+00
          2   -1    0    0  501    0  0.00000000000E+00  0.00000000000E+00  0.12854757194E+03  0.12854757194E+03  0.00000000000E+00 0. -1.
         -2   -1    0    0    0  501 -0.00000000000E+00 -0.00000000000E+00 -0.23188165235E+03  0.23188165235E+03  0.00000000000E+00 0.  1.
         24    1    1    2    0    0  0.44297636124E+02 -0.29245448000E+02  0.97868910464E+02  0.13734306093E+03  0.80419002446E+02 0. -1.
        -24    1    1    2    0    0 -0.44297636124E+02  0.29245448000E+02 -0.20120299087E+03  0.22308616336E+03  0.80419002446E+02 0.  1.
<mgrwt>
<rscale>  0 0.96357629E+02</rscale>
<asrwt>0</asrwt>
<pdfrwt beam="1">  1        2 0.19776550E-01 0.96357629E+02</pdfrwt>
<pdfrwt beam="2">  1       -2 0.35674100E-01 0.96357629E+02</pdfrwt>
<totfact> 0.19905233E+03</totfact>
</mgrwt>
</event>
<event>
 4    1  0.1123525E-001  0.1142510E+03  0.7546771E-02  0.1252894E+00
         -2   -1    0    0    0  501 -0.00000000000E+00  0.00000000000E+00  0.20943580517E+02  0.20943580517E+02  0.00000000000E+00 0.  1.
          2   -1    0    0  501    0  0.00000000000E+00 -0.00000000000E+00 -0.17555874615E+04  0.17555874615E+04  0.00000000000E+00 0. -1.
         24    1    1    2    0    0  0.19972080932E+02  0.78658656765E+02 -0.15806966310E+04  0.15848202181E+04  0.80419002446E+02 0. -1.
        -24    1    1    2    0    0 -0.19972080932E+02 -0.78658656765E+02 -0.15394725002E+03  0.19171082401E+03  0.80419002446E+02 0.  1.
<mgrwt>
<rscale>  0 0.11425097E+03</rscale>
<asrwt>0</asrwt>
<pdfrwt beam="1">  1        2 0.27009046E+00 0.11425097E+03</pdfrwt>
<pdfrwt beam="2">  1       -2 0.32220884E-02 0.11425097E+03</pdfrwt>
<totfact> 0.37722356E+03</totfact>
</mgrwt>
</event>
<event>
 4    1  0.1123525E-001  0.1010301E+03  0.7546771E-02  0.1278145E+00
          3   -1    0    0  501    0  0.00000000000E+00  0.00000000000E+00  0.11451861216E+03  0.11451861216E+03  0.00000000000E+00 0. -1.
         -3   -1    0    0    0  501 -0.00000000000E+00 -0.00000000000E+00 -0.17981736520E+03  0.17981736520E+03  0.00000000000E+00 0.  1.
         24    1    1    2    0    0  0.11179434225E+02  0.60123892198E+02 -0.13716235297E+03  0.17035430487E+03  0.80419002446E+02 0.  1.
        -24    1    1    2    0    0 -0.11179434225E+02 -0.60123892198E+02  0.71863599936E+02  0.12398167249E+03  0.80419002446E+02 0. -1.
<mgrwt>
<rscale>  0 0.10103009E+03</rscale>
<asrwt>0</asrwt>
<pdfrwt beam="1">  1        3 0.17618248E-01 0.10103009E+03</pdfrwt>
<pdfrwt beam="2">  1       -3 0.27664210E-01 0.10103009E+03</pdfrwt>
<totfact> 0.77113814E+02</totfact>
</mgrwt>
</event>
<event>
 4    1  0.1123525E-001  0.9340895E+02  0.7546771E-02  0.1294800E+00
         -2   -1    0    0    0  501 -0.00000000000E+00  0.00000000000E+00  0.62074664665E+02  0.62074664665E+02  0.00000000000E+00 0.  1.
          2   -1    0    0  501    0  0.00000000000E+00 -0.00000000000E+00 -0.13420904295E+04  0.13420904295E+04  0.00000000000E+00 0. -1.
         24    1    1    2    0    0 -0.42875373980E+02 -0.20487048257E+02 -0.13043084481E+04  0.13076489440E+04  0.80419002446E+02 0. -1.
        -24    1    1    2    0    0  0.42875373980E+02  0.20487048257E+02  0.24292683265E+02  0.96516150228E+02  0.80419002446E+02 0.  1.
<mgrwt>
<rscale>  0 0.93408955E+02</rscale>
<asrwt>0</asrwt>
<pdfrwt beam="1">  1        2 0.20647542E+00 0.93408955E+02</pdfrwt>
<pdfrwt beam="2">  1       -2 0.95499498E-02 0.93408955E+02</pdfrwt>
<totfact> 0.12005367E+03</totfact>
</mgrwt>
</event>
<event>
 4    1  0.1123525E-001  0.8244851E+02  0.7546771E-02  0.1322243E+00
          2   -1    0    0  501    0  0.00000000000E+00  0.00000000000E+00  0.77787750140E+03  0.77787750140E+03  0.00000000000E+00 0. -1.
         -2   -1    0    0    0  501 -0.00000000000E+00 -0.00000000000E+00 -0.25802248847E+02  0.25802248847E+02  0.00000000000E+00 0.  1.
         24    1    1    2    0    0 -0.17450059539E+02 -0.51025926223E+01  0.70281876811E+03  0.70763831001E+03  0.80419002446E+02 0. -1.
        -24    1    1    2    0    0  0.17450059539E+02  0.51025926223E+01  0.49256484448E+02  0.96041440243E+02  0.80419002446E+02 0.  0.
<mgrwt>
<rscale>  0 0.82448511E+02</rscale>
<asrwt>0</asrwt>
<pdfrwt beam="1">  1        2 0.11967344E+00 0.82448511E+02</pdfrwt>
<pdfrwt beam="2">  1       -2 0.39695773E-02 0.82448511E+02</pdfrwt>
<totfact> 0.94911884E+03</totfact>
</mgrwt>
</event>
<event>
 4    1  0.1123525E-001  0.8308891E+02  0.7546771E-02  0.1320507E+00
          1   -1    0    0  501    0  0.00000000000E+00  0.00000000000E+00  0.77077400590E+03  0.77077400590E+03  0.00000000000E+00 0. -1.
         -1   -1    0    0    0  501 -0.00000000000E+00 -0.00000000000E+00 -0.10662895728E+02  0.10662895728E+02  0.00000000000E+00 0.  1.
         24    1    1    2    0    0 -0.21276348566E+01  0.20785185212E+02  0.22377251946E+03  0.23870045491E+03  0.80419002446E+02 0.  1.
        -24    1    1    2    0    0  0.21276348566E+01 -0.20785185212E+02  0.53633859071E+03  0.54273644672E+03  0.80419002446E+02 0. -1.
<mgrwt>
<rscale>  0 0.83088908E+02</rscale>
<asrwt>0</asrwt>
<pdfrwt beam="1">  1        1 0.11858057E+00 0.83088908E+02</pdfrwt>
<pdfrwt beam="2">  1       -1 0.16404461E-02 0.83088908E+02</pdfrwt>
<totfact> 0.20274924E+04</totfact>
</mgrwt>
</event>
<event>
 4    1  0.1123525E-001  0.9779640E+02  0.7546771E-02  0.1284999E+00
         -4   -1    0    0    0  501 -0.00000000000E+00  0.00000000000E+00  0.71381376675E+01  0.71381376675E+01  0.00000000000E+00 0. -1.
          4   -1    0    0  501    0  0.00000000000E+00 -0.00000000000E+00 -0.13405907952E+04  0.13405907952E+04  0.00000000000E+00 0.  1.
         24    1    1    2    0    0 -0.38951942649E+02 -0.39744961588E+02 -0.65103314531E+03  0.65833751834E+03  0.80419002446E+02 0.  0.
        -24    1    1    2    0    0  0.38951942649E+02  0.39744961588E+02 -0.68241951223E+03  0.68939141453E+03  0.80419002446E+02 0.  1.
<mgrwt>
<rscale>  0 0.97796391E+02</rscale>
<asrwt>0</asrwt>
<pdfrwt beam="1">  1        4 0.20624465E+00 0.97796404E+02</pdfrwt>
<pdfrwt beam="2">  1       -4 0.10981755E-02 0.97796404E+02</pdfrwt>
<totfact> 0.53320925E+02</totfact>
</mgrwt>
</event>
<event>
 4    1  0.1123525E-001  0.1625790E+03  0.7546771E-02  0.1185816E+00
          2   -1    0    0  501    0  0.00000000000E+00  0.00000000000E+00  0.10140250267E+04  0.10140250267E+04  0.00000000000E+00 0. -1.
         -2   -1    0    0    0  501 -0.00000000000E+00 -0.00000000000E+00 -0.84470774595E+02  0.84470774595E+02  0.00000000000E+00 0.  1.
         24    1    1    2    0    0 -0.13949020821E+03 -0.22520777648E+02  0.92148456437E+03  0.93571668893E+03  0.80419002446E+02 0. -1.
        -24    1    1    2    0    0  0.13949020821E+03  0.22520777648E+02  0.80696877451E+01  0.16277911238E+03  0.80419002446E+02 0.  1.
<mgrwt>
<rscale>  0 0.16257896E+03</rscale>
<asrwt>0</asrwt>
<pdfrwt beam="1">  1        2 0.15600384E+00 0.16257896E+03</pdfrwt>
<pdfrwt beam="2">  1       -2 0.12995504E-01 0.16257896E+03</pdfrwt>
<totfact> 0.11213801E+03</totfact>
</mgrwt>
</event>
<event>
 4    1  0.1123525E-001  0.8200739E+02  0.7546771E-02  0.1323449E+00
          2   -1    0    0  501    0  0.00000000000E+00  0.00000000000E+00  0.47048212214E+03  0.47048212214E+03  0.00000000000E+00 0. -1.
         -2   -1    0    0    0  501 -0.00000000000E+00 -0.00000000000E+00 -0.54376033149E+02  0.54376033149E+02  0.00000000000E+00 0.  1.
         24    1    1    2    0    0  0.33392566026E+01  0.15711313558E+02  0.43336355245E+03  0.44105462310E+03  0.80419002446E+02 0. -1.
        -24    1    1    2    0    0 -0.33392566026E+01 -0.15711313558E+02 -0.17257463460E+02  0.83803532192E+02  0.80419002446E+02 0.  1.
<mgrwt>
<rscale>  0 0.82007390E+02</rscale>
<asrwt>0</asrwt>
<pdfrwt beam="1">  1        2 0.72381862E-01 0.82007390E+02</pdfrwt>
<pdfrwt beam="2">  1       -2 0.83655439E-02 0.82007390E+02</pdfrwt>
<totfact> 0.54764926E+03</totfact>
</mgrwt>
</event>
<event>
 4    1  0.1123525E-001  0.8737704E+02  0.7546771E-02  0.1309331E+00
         -2   -1    0    0    0  501 -0.00000000000E+00  0.00000000000E+00  0.40296310390E+03  0.40296310390E+03  0.00000000000E+00 0.  1.
          2   -1    0    0  501    0  0.00000000000E+00 -0.00000000000E+00 -0.32189912253E+02  0.32189912253E+02  0.00000000000E+00 0. -1.
         24    1    1    2    0    0  0.16683406371E+02  0.29819363988E+02  0.45829536351E+02  0.98666574246E+02  0.80419002446E+02 0. -1.
        -24    1    1    2    0    0 -0.16683406371E+02 -0.29819363988E+02  0.32494365529E+03  0.33648644190E+03  0.80419002446E+02 0.  1.
<mgrwt>
<rscale>  0 0.87377036E+02</rscale>
<asrwt>0</asrwt>
<pdfrwt beam="1">  1        2 0.49522945E-02 0.87377036E+02</pdfrwt>
<pdfrwt beam="2">  1       -2 0.61994320E-01 0.87377036E+02</pdfrwt>
<totfact> 0.36168839E+03</totfact>
</mgrwt>
</event>
<event>
 4    1  0.1123525E-001  0.1079060E+03  0.7546771E-02  0.1264497E+00
          2   -1    0    0  501    0  0.00000000000E+00  0.00000000000E+00  0.10961982304E+04  0.10961982304E+04  0.00000000000E+00 0. -1.
         -2   -1    0    0    0  501 -0.00000000000E+00 -0.00000000000E+00 -0.22597316505E+02  0.22597316505E+02  0.00000000000E+00 0.  1.
         24    1    1    2    0    0  0.46967109103E+02 -0.54503109420E+02  0.94402834264E+03  0.95017536589E+03  0.80419002446E+02 0. -1.
        -24    1    1    2    0    0 -0.46967109103E+02  0.54503109420E+02  0.12957257130E+03  0.16862018106E+03  0.80419002446E+02 0.  1.
<mgrwt>
<rscale>  0 0.10790604E+03</rscale>
<asrwt>0</asrwt>
<pdfrwt beam="1">  1        2 0.16864584E+00 0.10790604E+03</pdfrwt>
<pdfrwt beam="2">  1       -2 0.34765111E-02 0.10790604E+03</pdfrwt>
<totfact> 0.74909119E+03</totfact>
</mgrwt>
</event>
<event>
 4    1  0.1123525E-001  0.1153310E+03  0.7546771E-02  0.1251004E+00
          1   -1    0    0  501    0  0.00000000000E+00  0.00000000000E+00  0.15326856153E+04  0.15326856153E+04  0.00000000000E+00 0. -1.
         -1   -1    0    0    0  501 -0.00000000000E+00 -0.00000000000E+00 -0.26078798611E+02  0.26078798611E+02  0.00000000000E+00 0.  1.
         24    1    1    2    0    0 -0.61431648773E+02 -0.55318854386E+02  0.11667435241E+03  0.16405530649E+03  0.80419002446E+02 0.  1.
        -24    1    1    2    0    0  0.61431648773E+02  0.55318854386E+02  0.13899324642E+04  0.13947091074E+04  0.80419002446E+02 0. -1.
<mgrwt>
<rscale>  0 0.11533100E+03</rscale>
<asrwt>0</asrwt>
<pdfrwt beam="1">  1        1 0.23579772E+00 0.11533100E+03</pdfrwt>
<pdfrwt beam="2">  1       -1 0.40121240E-02 0.11533100E+03</pdfrwt>
<totfact> 0.16699787E+03</totfact>
</mgrwt>
</event>
<event>
 4    1  0.1123525E-001  0.1108493E+03  0.7546771E-02  0.1259005E+00
          2   -1    0    0  501    0  0.00000000000E+00  0.00000000000E+00  0.68891750219E+02  0.68891750219E+02  0.00000000000E+00 0. -1.
         -2   -1    0    0    0  501 -0.00000000000E+00 -0.00000000000E+00 -0.18773492855E+03  0.18773492855E+03  0.00000000000E+00 0.  1.
         24    1    1    2    0    0  0.11259200039E+02  0.75455861286E+02 -0.30748808666E+02  0.11503504586E+03  0.80419002446E+02 0.  0.
        -24    1    1    2    0    0 -0.11259200039E+02 -0.75455861286E+02 -0.88094369661E+02  0.14159163290E+03  0.80419002446E+02 0. -1.
<mgrwt>
<rscale>  0 0.11084932E+03</rscale>
<asrwt>0</asrwt>
<pdfrwt beam="1">  1        2 0.10598731E-01 0.11084932E+03</pdfrwt>
<pdfrwt beam="2">  1       -2 0.28882297E-01 0.11084932E+03</pdfrwt>
<totfact> 0.60919466E+03</totfact>
</mgrwt>
</event>
<event>
 4    1  0.1123525E-001  0.9035101E+02  0.7546771E-02  0.1302004E+00
         -2   -1    0    0    0  501 -0.00000000000E+00  0.00000000000E+00  0.10351869929E+02  0.10351869929E+02  0.00000000000E+00 0.  1.
          2   -1    0    0  501    0  0.00000000000E+00 -0.00000000000E+00 -0.92442835388E+03  0.92442835388E+03  0.00000000000E+00 0. -1.
         24    1    1    2    0    0  0.35552478777E+02 -0.20787244465E+02 -0.63620851981E+03  0.64259208283E+03  0.80419002446E+02 0. -1.
        -24    1    1    2    0    0 -0.35552478777E+02  0.20787244465E+02 -0.27786796415E+03  0.29218814099E+03  0.80419002446E+02 0.  1.
<mgrwt>
<rscale>  0 0.90351006E+02</rscale>
<asrwt>0</asrwt>
<pdfrwt beam="1">  1        2 0.14221981E+00 0.90351006E+02</pdfrwt>
<pdfrwt beam="2">  1       -2 0.15925947E-02 0.90351006E+02</pdfrwt>
<totfact> 0.28852451E+04</totfact>
</mgrwt>
</event>
<event>
 4    1  0.1123525E-001  0.1110876E+03  0.7546771E-02  0.1258569E+00
         -2   -1    0    0    0  501 -0.00000000000E+00  0.00000000000E+00  0.34386383276E+03  0.34386383276E+03  0.00000000000E+00 0.  1.
          2   -1    0    0  501    0  0.00000000000E+00 -0.00000000000E+00 -0.54433209598E+02  0.54433209598E+02  0.00000000000E+00 0. -1.
         24    1    1    2    0    0  0.19122582775E+02 -0.74212960980E+02  0.28472662103E+02  0.11467844257E+03  0.80419002446E+02 0. -1.
        -24    1    1    2    0    0 -0.19122582775E+02  0.74212960980E+02  0.26095796106E+03  0.28361859979E+03  0.80419002446E+02 0.  1.
<mgrwt>
<rscale>  0 0.11108759E+03</rscale>
<asrwt>0</asrwt>
<pdfrwt beam="1">  1        2 0.83743402E-02 0.11108759E+03</pdfrwt>
<pdfrwt beam="2">  1       -2 0.52902127E-01 0.11108759E+03</pdfrwt>
<totfact> 0.26081420E+03</totfact>
</mgrwt>
</event>
<event>
 4    1  0.1123525E-001  0.1729794E+03  0.7546771E-02  0.1174776E+00
          2   -1    0    0  501    0  0.00000000000E+00  0.00000000000E+00  0.95255908466E+03  0.95255908466E+03  0.00000000000E+00 0. -1.
         -2   -1    0    0    0  501 -0.00000000000E+00 -0.00000000000E+00 -0.90040391562E+02  0.90040391562E+02  0.00000000000E+00 0.  1.
         24    1    1    2    0    0  0.14124499053E+03 -0.59198836235E+02  0.85191090264E+03  0.86929514640E+03  0.80419002446E+02 0. -1.
        -24    1    1    2    0    0 -0.14124499053E+03  0.59198836235E+02  0.10607790451E+02  0.17330432982E+03  0.80419002446E+02 0.  1.
<mgrwt>
<rscale>  0 0.17297938E+03</rscale>
<asrwt>0</asrwt>
<pdfrwt beam="1">  1        2 0.14654754E+00 0.17297938E+03</pdfrwt>
<pdfrwt beam="2">  1       -2 0.13852369E-01 0.17297938E+03</pdfrwt>
<totfact> 0.11016975E+03</totfact>
</mgrwt>
</event>
<event>
 4    1  0.1123525E-001  0.1209503E+03  0.7546771E-02  0.1241538E+00
         -1   -1    0    0    0  501 -0.00000000000E+00  0.00000000000E+00  0.18341343764E+02  0.18341343764E+02  0.00000000000E+00 0.  1.
          1   -1    0    0  501    0  0.00000000000E+00 -0.00000000000E+00 -0.83831388805E+03  0.83831388805E+03  0.00000000000E+00 0. -1.
         24    1    1    2    0    0  0.90326631954E+02 -0.16906376968E+01 -0.31558722150E+03  0.33797081090E+03  0.80419002446E+02 0.  1.
        -24    1    1    2    0    0 -0.90326631954E+02  0.16906376968E+01 -0.50438532279E+03  0.51868442091E+03  0.80419002446E+02 0. -1.
<mgrwt>
<rscale>  0 0.12095030E+03</rscale>
<asrwt>0</asrwt>
<pdfrwt beam="1">  1        1 0.12897139E+00 0.12095030E+03</pdfrwt>
<pdfrwt beam="2">  1       -1 0.28217448E-02 0.12095030E+03</pdfrwt>
<totfact> 0.84663410E+03</totfact>
</mgrwt>
</event>
<event>
 4    1  0.1123525E-001  0.9565646E+02  0.7546771E-02  0.1289704E+00
          1   -1    0    0  501    0  0.00000000000E+00  0.00000000000E+00  0.20311789056E+04  0.20311789056E+04  0.00000000000E+00 0. -1.
         -1   -1    0    0    0  501 -0.00000000000E+00 -0.00000000000E+00 -0.47703135757E+01  0.47703135757E+01  0.00000000000E+00 0.  1.
         24    1    1    2    0    0  0.81726112630E+01  0.51148268363E+02  0.12533458540E+04  0.12569908443E+04  0.80419002446E+02 0.  1.
        -24    1    1    2    0    0 -0.81726112630E+01 -0.51148268363E+02  0.77306273804E+03  0.77895837490E+03  0.80419002446E+02 0.  0.
<mgrwt>
<rscale>  0 0.95656443E+02</rscale>
<asrwt>0</asrwt>
<pdfrwt beam="1">  1        1 0.31248837E+00 0.95656455E+02</pdfrwt>
<pdfrwt beam="2">  1       -1 0.73389602E-03 0.95656455E+02</pdfrwt>
<totfact> 0.91401599E+03</totfact>
</mgrwt>
</event>
<event>
 4    1  0.1123525E-001  0.1337256E+03  0.7546771E-02  0.1222030E+00
          1   -1    0    0  501    0  0.00000000000E+00  0.00000000000E+00  0.24552259861E+03  0.24552259861E+03  0.00000000000E+00 0. -1.
         -1   -1    0    0    0  501 -0.00000000000E+00 -0.00000000000E+00 -0.85266527831E+02  0.85266527831E+02  0.00000000000E+00 0.  1.
         24    1    1    2    0    0 -0.10672724541E+03 -0.49602023302E+01  0.16973825865E+02  0.13479849865E+03  0.80419002446E+02 0.  1.
        -24    1    1    2    0    0  0.10672724541E+03  0.49602023302E+01  0.14328224492E+03  0.19599062779E+03  0.80419002446E+02 0. -1.
<mgrwt>
<rscale>  0 0.13372556E+03</rscale>
<asrwt>0</asrwt>
<pdfrwt beam="1">  1        1 0.37772707E-01 0.13372556E+03</pdfrwt>
<pdfrwt beam="2">  1       -1 0.13117927E-01 0.13372556E+03</pdfrwt>
<totfact> 0.43158843E+03</totfact>
</mgrwt>
</event>
<event>
 4    1  0.1123525E-001  0.8119052E+02  0.7546771E-02  0.1325706E+00
         -1   -1    0    0    0  501 -0.00000000000E+00  0.00000000000E+00  0.26516481625E+02  0.26516481625E+02  0.00000000000E+00 0.  1.
          1   -1    0    0  501    0  0.00000000000E+00 -0.00000000000E+00 -0.37613064307E+03  0.37613064307E+03  0.00000000000E+00 0. -1.
         24    1    1    2    0    0 -0.59866354288E+01 -0.94257734730E+01 -0.57577095282E+02  0.99534028678E+02  0.80419002446E+02 0.  1.
        -24    1    1    2    0    0  0.59866354288E+01  0.94257734730E+01 -0.29203706616E+03  0.30311309602E+03  0.80419002446E+02 0.  0.
<mgrwt>
<rscale>  0 0.81190523E+02</rscale>
<asrwt>0</asrwt>
<pdfrwt beam="1">  1        1 0.57866252E-01 0.81190523E+02</pdfrwt>
<pdfrwt beam="2">  1       -1 0.40794588E-02 0.81190523E+02</pdfrwt>
<totfact> 0.14084371E+04</totfact>
</mgrwt>
</event>
<event>
 4    1  0.1123525E-001  0.1057109E+03  0.7546771E-02  0.1268725E+00
          1   -1    0    0  501    0  0.00000000000E+00  0.00000000000E+00  0.16727516107E+03  0.16727516107E+03  0.00000000000E+00 0. -1.
         -1   -1    0    0    0  501 -0.00000000000E+00 -0.00000000000E+00 -0.66873461059E+02  0.66873461059E+02  0.00000000000E+00 0.  1.
         24    1    1    2    0    0 -0.67753898959E+02  0.10815975662E+02  0.46450856076E+02  0.11546633335E+03  0.80419002446E+02 0. -1.
        -24    1    1    2    0    0  0.67753898959E+02 -0.10815975662E+02  0.53950843939E+02  0.11868228878E+03  0.80419002446E+02 0.  1.
<mgrwt>
<rscale>  0 0.10571089E+03</rscale>
<asrwt>0</asrwt>
<pdfrwt beam="1">  1        1 0.25734640E-01 0.10571089E+03</pdfrwt>
<pdfrwt beam="2">  1       -1 0.10288225E-01 0.10571089E+03</pdfrwt>
<totfact> 0.99107562E+03</totfact>
</mgrwt>
</event>
<event>
 4    1  0.1123525E-001  0.9331672E+02  0.7546771E-02  0.1295013E+00
          2   -1    0    0  501    0  0.00000000000E+00  0.00000000000E+00  0.13608693157E+03  0.13608693157E+03  0.00000000000E+00 0. -1.
         -2   -1    0    0    0  501 -0.00000000000E+00 -0.00000000000E+00 -0.64053330445E+02  0.64053330445E+02  0.00000000000E+00 0.  1.
         24    1    1    2    0    0  0.40829889132E+02  0.23952321547E+02  0.39198469400E+02  0.10121526324E+03  0.80419002446E+02 0. -1.
        -24    1    1    2    0    0 -0.40829889132E+02 -0.23952321547E+02  0.32835131725E+02  0.98924998781E+02  0.80419002446E+02 0.  1.
<mgrwt>
<rscale>  0 0.93316716E+02</rscale>
<asrwt>0</asrwt>
<pdfrwt beam="1">  1        2 0.20936451E-01 0.93316716E+02</pdfrwt>
<pdfrwt beam="2">  1       -2 0.98543586E-02 0.93316716E+02</pdfrwt>
<totfact> 0.16066119E+04</totfact>
</mgrwt>
</event>
<event>
 4    1  0.1123525E-001  0.8896034E+02  0.7546771E-02  0.1305389E+00
         -1   -1    0    0    0  501 -0.00000000000E+00  0.00000000000E+00  0.39649138500E+03  0.39649138500E+03  0.00000000000E+00 0.  1.
          1   -1    0    0  501    0  0.00000000000E+00 -0.00000000000E+00 -0.23210978403E+02  0.23210978403E+02  0.00000000000E+00 0. -1.
         24    1    1    2    0    0 -0.37293649325E+02 -0.74773059545E+01  0.26517752161E+03  0.27970173455E+03  0.80419002446E+02 0.  1.
        -24    1    1    2    0    0  0.37293649325E+02  0.74773059545E+01  0.10810288498E+03  0.14000062886E+03  0.80419002446E+02 0. -1.
<mgrwt>
<rscale>  0 0.88960341E+02</rscale>
<asrwt>0</asrwt>
<pdfrwt beam="1">  1        1 0.35709200E-02 0.88960341E+02</pdfrwt>
<pdfrwt beam="2">  1       -1 0.60998670E-01 0.88960341E+02</pdfrwt>
<totfact> 0.68624140E+03</totfact>
</mgrwt>
</event>
<event>
 4    1  0.1123525E-001  0.9039375E+02  0.7546771E-02  0.1301901E+00
          1   -1    0    0  501    0  0.00000000000E+00  0.00000000000E+00  0.73782189291E+03  0.73782189291E+03  0.00000000000E+00 0. -1.
         -1   -1    0    0    0  501 -0.00000000000E+00 -0.00000000000E+00 -0.11478640792E+02  0.11478640792E+02  0.00000000000E+00 0.  1.
         24    1    1    2    0    0  0.14135110853E+02  0.38781542364E+02  0.43346832501E+03  0.44279319566E+03  0.80419002446E+02 0.  1.
        -24    1    1    2    0    0 -0.14135110853E+02 -0.38781542364E+02  0.29287492711E+03  0.30650733804E+03  0.80419002446E+02 0. -1.
<mgrwt>
<rscale>  0 0.90393735E+02</rscale>
<asrwt>0</asrwt>
<pdfrwt beam="1">  1        1 0.11351102E+00 0.90393747E+02</pdfrwt>
<pdfrwt beam="2">  1       -1 0.17659453E-02 0.90393747E+02</pdfrwt>
<totfact> 0.19605955E+04</totfact>
</mgrwt>
</event>
<event>
 4    1  0.1123525E-001  0.2854685E+03  0.7546771E-02  0.1092739E+00
         -1   -1    0    0    0  501 -0.00000000000E+00  0.00000000000E+00  0.49268629095E+03  0.49268629095E+03  0.00000000000E+00 0.  1.
          1   -1    0    0  501    0  0.00000000000E+00 -0.00000000000E+00 -0.68995141209E+03  0.68995141209E+03  0.00000000000E+00 0. -1.
         24    1    1    2    0    0 -0.13281339560E+03 -0.23955297845E+03  0.41695790611E+03  0.50531785933E+03  0.80419002446E+02 0.  1.
        -24    1    1    2    0    0  0.13281339560E+03  0.23955297845E+03 -0.61422302724E+03  0.67731984371E+03  0.80419002446E+02 0. -1.
<mgrwt>
<rscale>  0 0.28546846E+03</rscale>
<asrwt>0</asrwt>
<pdfrwt beam="1">  1        1 0.10614637E+00 0.28546846E+03</pdfrwt>
<pdfrwt beam="2">  1       -1 0.75797891E-01 0.28546846E+03</pdfrwt>
<totfact> 0.53140569E+01</totfact>
</mgrwt>
</event>
<event>
 4    1  0.1123525E-001  0.8124771E+02  0.7546771E-02  0.1325547E+00
          2   -1    0    0  501    0  0.00000000000E+00  0.00000000000E+00  0.53500396198E+03  0.53500396198E+03  0.00000000000E+00 0. -1.
         -2   -1    0    0    0  501 -0.00000000000E+00 -0.00000000000E+00 -0.19500288395E+02  0.19500288395E+02  0.00000000000E+00 0.  1.
         24    1    1    2    0    0 -0.26424203867E+00 -0.11571741999E+02  0.42577245611E+03  0.43345515959E+03  0.80419002446E+02 0. -1.
        -24    1    1    2    0    0  0.26424203867E+00  0.11571741999E+02  0.89731217478E+02  0.12104909079E+03  0.80419002446E+02 0. -1.
<mgrwt>
<rscale>  0 0.81247714E+02</rscale>
<asrwt>0</asrwt>
<pdfrwt beam="1">  1        2 0.82308291E-01 0.81247714E+02</pdfrwt>
<pdfrwt beam="2">  1       -2 0.30000448E-02 0.81247714E+02</pdfrwt>
<totfact> 0.21824531E+04</totfact>
</mgrwt>
</event>
<event>
 4    1  0.1123525E-001  0.1273639E+03  0.7546771E-02  0.1231421E+00
         -2   -1    0    0    0  501 -0.00000000000E+00  0.00000000000E+00  0.90417791536E+02  0.90417791536E+02  0.00000000000E+00 0.  1.
          2   -1    0    0  501    0  0.00000000000E+00 -0.00000000000E+00 -0.14421228552E+04  0.14421228552E+04  0.00000000000E+00 0. -1.
         24    1    1    2    0    0  0.77201947890E+02  0.61597052689E+02 -0.13928766307E+04  0.13986875498E+04  0.80419002446E+02 0. -1.
        -24    1    1    2    0    0 -0.77201947890E+02 -0.61597052689E+02  0.41171567079E+02  0.13385309689E+03  0.80419002446E+02 0.  1.
<mgrwt>
<rscale>  0 0.12736386E+03</rscale>
<asrwt>0</asrwt>
<pdfrwt beam="1">  1        2 0.22186503E+00 0.12736386E+03</pdfrwt>
<pdfrwt beam="2">  1       -2 0.13910431E-01 0.12736386E+03</pdfrwt>
<totfact> 0.58399066E+02</totfact>
</mgrwt>
</event>
<event>
 4    1  0.1123525E-001  0.1033962E+03  0.7546771E-02  0.1273312E+00
         -2   -1    0    0    0  501 -0.00000000000E+00  0.00000000000E+00  0.43767239806E+02  0.43767239806E+02  0.00000000000E+00 0.  1.
          2   -1    0    0  501    0  0.00000000000E+00 -0.00000000000E+00 -0.58210947323E+03  0.58210947323E+03  0.00000000000E+00 0. -1.
         24    1    1    2    0    0  0.55612398307E+02  0.33627689971E+02 -0.50757607954E+03  0.51800024407E+03  0.80419002446E+02 0. -1.
        -24    1    1    2    0    0 -0.55612398307E+02 -0.33627689971E+02 -0.30766153886E+02  0.10787646897E+03  0.80419002446E+02 0.  1.
<mgrwt>
<rscale>  0 0.10339621E+03</rscale>
<asrwt>0</asrwt>
<pdfrwt beam="1">  1        2 0.89555300E-01 0.10339621E+03</pdfrwt>
<pdfrwt beam="2">  1       -2 0.67334218E-02 0.10339621E+03</pdfrwt>
<totfact> 0.61324504E+03</totfact>
</mgrwt>
</event>
<event>
 4    1  0.1123525E-001  0.1173692E+03  0.7546771E-02  0.1247501E+00
         -2   -1    0    0    0  501 -0.00000000000E+00  0.00000000000E+00  0.18549253786E+02  0.18549253786E+02  0.00000000000E+00 0.  1.
          2   -1    0    0  501    0  0.00000000000E+00 -0.00000000000E+00 -0.84036563944E+03  0.84036563944E+03  0.00000000000E+00 0. -1.
         24    1    1    2    0    0 -0.15166341403E+02 -0.84132669722E+02 -0.55735355485E+03  0.56957749700E+03  0.80419002446E+02 0. -1.
        -24    1    1    2    0    0  0.15166341403E+02  0.84132669722E+02 -0.26446283080E+03  0.28933739623E+03  0.80419002446E+02 0.  1.
<mgrwt>
<rscale>  0 0.11736925E+03</rscale>
<asrwt>0</asrwt>
<pdfrwt beam="1">  1        2 0.12928703E+00 0.11736925E+03</pdfrwt>
<pdfrwt beam="2">  1       -2 0.28537312E-02 0.11736925E+03</pdfrwt>
<totfact> 0.14353093E+04</totfact>
</mgrwt>
</event>
<event>
 4    1  0.1123525E-001  0.8837072E+02  0.7546771E-02  0.1306846E+00
         -2   -1    0    0    0  501 -0.00000000000E+00  0.00000000000E+00  0.20217934013E+02  0.20217934013E+02  0.00000000000E+00 0.  1.
          2   -1    0    0  501    0  0.00000000000E+00 -0.00000000000E+00 -0.18420734701E+04  0.18420734701E+04  0.00000000000E+00 0. -1.
         24    1    1    2    0    0 -0.36526976526E+02 -0.28192546505E+01 -0.17387117134E+04  0.17409560036E+04  0.80419002446E+02 0. -1.
        -24    1    1    2    0    0  0.36526976526E+02  0.28192546505E+01 -0.83143822680E+02  0.12133540050E+03  0.80419002446E+02 0.  1.
<mgrwt>
<rscale>  0 0.88370720E+02</rscale>
<asrwt>0</asrwt>
<pdfrwt beam="1">  1        2 0.28339585E+00 0.88370720E+02</pdfrwt>
<pdfrwt beam="2">  1       -2 0.31104522E-02 0.88370720E+02</pdfrwt>
<totfact> 0.35785952E+03</totfact>
</mgrwt>
</event>
<event>
 4    1  0.1123525E-001  0.8881804E+02  0.7546771E-02  0.1305739E+00
          2   -1    0    0  501    0  0.00000000000E+00  0.00000000000E+00  0.32867807953E+03  0.32867807953E+03  0.00000000000E+00 0. -1.
         -2   -1    0    0    0  501 -0.00000000000E+00 -0.00000000000E+00 -0.24298666165E+02  0.24298666165E+02  0.00000000000E+00 0.  1.
         24    1    1    2    0    0  0.37287852421E+02  0.55717438892E+01  0.17171947935E+03  0.19332931441E+03  0.80419002446E+02 0. -1.
        -24    1    1    2    0    0 -0.37287852421E+02 -0.55717438892E+01  0.13265993402E+03  0.15964743128E+03  0.80419002446E+02 0.  1.
<mgrwt>
<rscale>  0 0.88818040E+02</rscale>
<asrwt>0</asrwt>
<pdfrwt beam="1">  1        2 0.50565855E-01 0.88818040E+02</pdfrwt>
<pdfrwt beam="2">  1       -2 0.37382566E-02 0.88818040E+02</pdfrwt>
<totfact> 0.26788147E+04</totfact>
</mgrwt>
</event>
<event>
 4    1  0.1243729E-001  0.1039642E+03  0.7546771E-02  0.1272174E+00
          1   -1    0    0  501    0  0.00000000000E+00  0.00000000000E+00  0.10867639579E+04  0.10867639579E+04  0.00000000000E+00 0. -1.
         -1   -1    0    0    0  501 -0.00000000000E+00 -0.00000000000E+00 -0.28934132640E+02  0.28934132640E+02  0.00000000000E+00 0.  1.
         24    1    1    2    0    0 -0.59253374170E+01  0.65621824292E+02  0.76999816106E+02  0.12937357181E+03  0.80419002446E+02 0.  1.
        -24    1    1    2    0    0  0.59253374170E+01 -0.65621824292E+02  0.98083000920E+03  0.98632451878E+03  0.80419002446E+02 0. -1.
<mgrwt>
<rscale>  0 0.10396417E+03</rscale>
<asrwt>0</asrwt>
<pdfrwt beam="1">  1        1 0.16719442E+00 0.10396417E+03</pdfrwt>
<pdfrwt beam="2">  1       -1 0.44514059E-02 0.10396417E+03</pdfrwt>
<totfact> 0.28341782E+03</totfact>
</mgrwt>
</event>
<event>
 4    1  0.1123525E-001  0.8296388E+02  0.7546771E-02  0.1320845E+00
          2   -1    0    0  501    0  0.00000000000E+00  0.00000000000E+00  0.68689968063E+03  0.68689968063E+03  0.00000000000E+00 0. -1.
         -2   -1    0    0    0  501 -0.00000000000E+00 -0.00000000000E+00 -0.22178709027E+02  0.22178709027E+02  0.00000000000E+00 0.  1.
         24    1    1    2    0    0 -0.12693124331E+02  0.15958499111E+02  0.59486261381E+03  0.60062012484E+03  0.80419002446E+02 0. -1.
        -24    1    1    2    0    0  0.12693124331E+02 -0.15958499111E+02  0.69858357794E+02  0.10845826482E+03  0.80419002446E+02 0.  0.
<mgrwt>
<rscale>  0 0.82963878E+02</rscale>
<asrwt>0</asrwt>
<pdfrwt beam="1">  1        2 0.10567686E+00 0.82963878E+02</pdfrwt>
<pdfrwt beam="2">  1       -2 0.34121096E-02 0.82963878E+02</pdfrwt>
<totfact> 0.13715795E+04</totfact>
</mgrwt>
</event>
<event>
 4    1  0.1123525E-001  0.9072364E+02  0.7546771E-02  0.1301109E+00
         -1   -1    0    0    0  501 -0.00000000000E+00  0.00000000000E+00  0.59227566732E+01  0.59227566732E+01  0.00000000000E+00 0.  1.
          1   -1    0    0  501    0  0.00000000000E+00 -0.00000000000E+00 -0.21000290849E+04  0.21000290849E+04  0.00000000000E+00 0. -1.
         24    1    1    2    0    0 -0.34919909200E+02 -0.23327294140E+02 -0.43464704541E+03  0.44401445106E+03  0.80419002446E+02 0.  0.
        -24    1    1    2    0    0  0.34919909200E+02  0.23327294140E+02 -0.16594592828E+04  0.16619373905E+04  0.80419002446E+02 0.  1.
<mgrwt>
<rscale>  0 0.90723639E+02</rscale>
<asrwt>0</asrwt>
<pdfrwt beam="1">  1        1 0.32308155E+00 0.90723639E+02</pdfrwt>
<pdfrwt beam="2">  1       -1 0.91119292E-03 0.90723639E+02</pdfrwt>
<totfact> 0.60872911E+03</totfact>
</mgrwt>
</event>
<event>
 4    1  0.1123525E-001  0.8562048E+02  0.7546771E-02  0.1313818E+00
         -2   -1    0    0    0  501 -0.00000000000E+00  0.00000000000E+00  0.18939774484E+02  0.18939774484E+02  0.00000000000E+00 0.  1.
          2   -1    0    0  501    0  0.00000000000E+00 -0.00000000000E+00 -0.61151252583E+03  0.61151252583E+03  0.00000000000E+00 0. -1.
         24    1    1    2    0    0  0.24546093691E+02 -0.16159830326E+02 -0.48726285528E+03  0.49472816467E+03  0.80419002446E+02 0. -1.
        -24    1    1    2    0    0 -0.24546093691E+02  0.16159830326E+02 -0.10530989607E+03  0.13572413565E+03  0.80419002446E+02 0.  1.
<mgrwt>
<rscale>  0 0.85620481E+02</rscale>
<asrwt>0</asrwt>
<pdfrwt beam="1">  1        2 0.94078870E-01 0.85620481E+02</pdfrwt>
<pdfrwt beam="2">  1       -2 0.29138108E-02 0.85620481E+02</pdfrwt>
<totfact> 0.19750325E+04</totfact>
</mgrwt>
</event>
<event>
 4    1  0.1123525E-001  0.8339131E+02  0.7546771E-02  0.1319694E+00
          1   -1    0    0  501    0  0.00000000000E+00  0.00000000000E+00  0.43846285414E+03  0.43846285414E+03  0.00000000000E+00 0. -1.
         -1   -1    0    0    0  501 -0.00000000000E+00 -0.00000000000E+00 -0.20678854197E+02  0.20678854197E+02  0.00000000000E+00 0.  1.
         24    1    1    2    0    0  0.19999852581E+02 -0.93220640369E+01  0.98072509038E+02  0.12873355415E+03  0.80419002446E+02 0.  1.
        -24    1    1    2    0    0 -0.19999852581E+02  0.93220640369E+01  0.31971149091E+03  0.33040815419E+03  0.80419002446E+02 0.  0.
<mgrwt>
<rscale>  0 0.83391312E+02</rscale>
<asrwt>0</asrwt>
<pdfrwt beam="1">  1        1 0.67455817E-01 0.83391312E+02</pdfrwt>
<pdfrwt beam="2">  1       -1 0.31813625E-02 0.83391312E+02</pdfrwt>
<totfact> 0.16717996E+04</totfact>
</mgrwt>
</event>
<event>
 4    1  0.1123525E-001  0.9232413E+02  0.7546771E-02  0.1297319E+00
          2   -1    0    0  501    0  0.00000000000E+00  0.00000000000E+00  0.73390611820E+03  0.73390611820E+03  0.00000000000E+00 0. -1.
         -2   -1    0    0    0  501 -0.00000000000E+00 -0.00000000000E+00 -0.15810982245E+02  0.15810982245E+02  0.00000000000E+00 0.  1.
         24    1    1    2    0    0 -0.38898736919E+02  0.23311300084E+02  0.55217562458E+03  0.55984074949E+03  0.80419002446E+02 0. -1.
        -24    1    1    2    0    0  0.38898736919E+02 -0.23311300084E+02  0.16591951137E+03  0.18987635096E+03  0.80419002446E+02 0.  1.
<mgrwt>
<rscale>  0 0.92324127E+02</rscale>
<asrwt>0</asrwt>
<pdfrwt beam="1">  1        2 0.11290861E+00 0.92324127E+02</pdfrwt>
<pdfrwt beam="2">  1       -2 0.24324594E-02 0.92324127E+02</pdfrwt>
<totfact> 0.20940448E+04</totfact>
</mgrwt>
</event>
<event>
 4    1  0.1123525E-001  0.8662546E+02  0.7546771E-02  0.1311236E+00
          1   -1    0    0  501    0  0.00000000000E+00  0.00000000000E+00  0.12475541732E+03  0.12475541732E+03  0.00000000000E+00 0. -1.
         -1   -1    0    0    0  501 -0.00000000000E+00 -0.00000000000E+00 -0.73627402892E+02  0.73627402892E+02  0.00000000000E+00 0.  1.
         24    1    1    2    0    0  0.36048437793E+01 -0.31996247439E+02 -0.16875092820E+02  0.88253835389E+02  0.80419002446E+02 0.  1.
        -24    1    1    2    0    0 -0.36048437793E+01  0.31996247439E+02  0.68003107252E+02  0.11012898483E+03  0.80419002446E+02 0. -1.
<mgrwt>
<rscale>  0 0.86625462E+02</rscale>
<asrwt>0</asrwt>
<pdfrwt beam="1">  1        1 0.19193141E-01 0.86625462E+02</pdfrwt>
<pdfrwt beam="2">  1       -1 0.11327293E-01 0.86625462E+02</pdfrwt>
<totfact> 0.12128378E+04</totfact>
</mgrwt>
</event>
<event>
 4    1  0.1123525E-001  0.1155354E+03  0.7546771E-02  0.1250649E+00
          2   -1    0    0  501    0  0.00000000000E+00  0.00000000000E+00  0.58713368275E+03  0.58713368275E+03  0.00000000000E+00 0. -1.
         -2   -1    0    0    0  501 -0.00000000000E+00 -0.00000000000E+00 -0.24048715002E+02  0.24048715002E+02  0.00000000000E+00 0.  1.
         24    1    1    2    0    0  0.80489296120E+02  0.20066859433E+02  0.35296960251E+03  0.37139731002E+03  0.80419002446E+02 0. -1.
        -24    1    1    2    0    0 -0.80489296120E+02 -0.20066859433E+02  0.21011536524E+03  0.23978508774E+03  0.80419002446E+02 0.  1.
<mgrwt>
<rscale>  0 0.11553537E+03</rscale>
<asrwt>0</asrwt>
<pdfrwt beam="1">  1        2 0.90328248E-01 0.11553537E+03</pdfrwt>
<pdfrwt beam="2">  1       -2 0.36998028E-02 0.11553537E+03</pdfrwt>
<totfact> 0.14974424E+04</totfact>
</mgrwt>
</event>
<event>
 4    1  0.1123525E-001  0.1060428E+03  0.7546771E-02  0.1268079E+00
          2   -1    0    0  501    0  0.00000000000E+00  0.00000000000E+00  0.41860599782E+04  0.41860599782E+04  0.00000000000E+00 0. -1.
         -2   -1    0    0    0  501 -0.00000000000E+00 -0.00000000000E+00 -0.43948162105E+01  0.43948162105E+01  0.00000000000E+00 0.  1.
         24    1    1    2    0    0 -0.60690933523E+02  0.33082860521E+02  0.33972088705E+04  0.33988635146E+04  0.80419002446E+02 0. -1.
        -24    1    1    2    0    0  0.60690933523E+02 -0.33082860521E+02  0.78445629153E+03  0.79159127986E+03  0.80419002446E+02 0.  1.
<mgrwt>
<rscale>  0 0.10604283E+03</rscale>
<asrwt>0</asrwt>
<pdfrwt beam="1">  1        2 0.64400604E+00 0.10604283E+03</pdfrwt>
<pdfrwt beam="2">  1       -2 0.67612892E-03 0.10604283E+03</pdfrwt>
<totfact> 0.12677627E+03</totfact>
</mgrwt>
</event>
<event>
 4    1  0.1123525E-001  0.8220916E+02  0.7546771E-02  0.1322897E+00
         -1   -1    0    0    0  501 -0.00000000000E+00  0.00000000000E+00  0.11116777669E+04  0.11116777669E+04  0.00000000000E+00 0.  1.
          1   -1    0    0  501    0  0.00000000000E+00 -0.00000000000E+00 -0.10721169137E+02  0.10721169137E+02  0.00000000000E+00 0. -1.
         24    1    1    2    0    0  0.15719741822E+02  0.66346956856E+01  0.91974271287E+03  0.92340944510E+03  0.80419002446E+02 0.  1.
        -24    1    1    2    0    0 -0.15719741822E+02 -0.66346956856E+01  0.18121388488E+03  0.19898949092E+03  0.80419002446E+02 0. -1.
<mgrwt>
<rscale>  0 0.82209157E+02</rscale>
<asrwt>0</asrwt>
<pdfrwt beam="1">  1        1 0.16494115E-02 0.82209157E+02</pdfrwt>
<pdfrwt beam="2">  1       -1 0.17102726E+00 0.82209157E+02</pdfrwt>
<totfact> 0.19794687E+03</totfact>
</mgrwt>
</event>
<event>
 4    1  0.1123525E-001  0.8784925E+02  0.7546771E-02  0.1308145E+00
          4   -1    0    0  501    0  0.00000000000E+00  0.00000000000E+00  0.56915944813E+03  0.56915944813E+03  0.00000000000E+00 0. -1.
         -4   -1    0    0    0  501 -0.00000000000E+00 -0.00000000000E+00 -0.67955201423E+02  0.67955201423E+02  0.00000000000E+00 0.  1.
         24    1    1    2    0    0  0.59288311893E+01 -0.34858629275E+02  0.53561121897E+03  0.54276778544E+03  0.80419002446E+02 0. -1.
        -24    1    1    2    0    0 -0.59288311893E+01  0.34858629275E+02 -0.34406972257E+02  0.94346864116E+02  0.80419002446E+02 0.  1.
<mgrwt>
<rscale>  0 0.87849252E+02</rscale>
<asrwt>0</asrwt>
<pdfrwt beam="1">  1        4 0.87562989E-01 0.87849252E+02</pdfrwt>
<pdfrwt beam="2">  1       -4 0.10454647E-01 0.87849252E+02</pdfrwt>
<totfact> 0.12626912E+02</totfact>
</mgrwt>
</event>
<event>
 4    1  0.1123525E-001  0.8233459E+02  0.7546771E-02  0.1322554E+00
         -4   -1    0    0    0  501 -0.00000000000E+00  0.00000000000E+00  0.36486690324E+02  0.36486690324E+02  0.00000000000E+00 0.  1.
          4   -1    0    0  501    0  0.00000000000E+00 -0.00000000000E+00 -0.20397019751E+03  0.20397019751E+03  0.00000000000E+00 0. -1.
         24    1    1    2    0    0 -0.15443242160E+02  0.85600354831E+01 -0.11963256901E+03  0.14522718567E+03  0.80419002446E+02 0.  0.
        -24    1    1    2    0    0  0.15443242160E+02 -0.85600354831E+01 -0.47850938182E+02  0.95229702169E+02  0.80419002446E+02 0.  0.
<mgrwt>
<rscale>  0 0.82334585E+02</rscale>
<asrwt>0</asrwt>
<pdfrwt beam="1">  1        4 0.31380029E-01 0.82334585E+02</pdfrwt>
<pdfrwt beam="2">  1       -4 0.56133371E-02 0.82334585E+02</pdfrwt>
<totfact> 0.27841675E+03</totfact>
</mgrwt>
</event>
<event>
 4    1  0.1123525E-001  0.8048783E+02  0.7546771E-02  0.1327673E+00
          2   -1    0    0  501    0  0.00000000000E+00  0.00000000000E+00  0.43198924911E+02  0.43198924911E+02  0.00000000000E+00 0. -1.
         -2   -1    0    0    0  501 -0.00000000000E+00 -0.00000000000E+00 -0.16386603878E+03  0.16386603878E+03  0.00000000000E+00 0.  1.
         24    1    1    2    0    0  0.35332889945E+00  0.33091328705E+01 -0.30177909715E+02  0.85959277514E+02  0.80419002446E+02 0. -1.
        -24    1    1    2    0    0 -0.35332889945E+00 -0.33091328705E+01 -0.90489204159E+02  0.12110568618E+03  0.80419002446E+02 0.  0.
<mgrwt>
<rscale>  0 0.80487832E+02</rscale>
<asrwt>0</asrwt>
<pdfrwt beam="1">  1        2 0.66459883E-02 0.80487832E+02</pdfrwt>
<pdfrwt beam="2">  1       -2 0.25210161E-01 0.80487832E+02</pdfrwt>
<totfact> 0.13342014E+04</totfact>
</mgrwt>
</event>
<event>
 4    1  0.1123525E-001  0.1126168E+03  0.7546771E-02  0.1255799E+00
          1   -1    0    0  501    0  0.00000000000E+00  0.00000000000E+00  0.32207994955E+02  0.32207994955E+02  0.00000000000E+00 0. -1.
         -1   -1    0    0    0  501 -0.00000000000E+00 -0.00000000000E+00 -0.40191549886E+03  0.40191549886E+03  0.00000000000E+00 0.  1.
         24    1    1    2    0    0  0.51528990480E+02 -0.59666390934E+02 -0.15395193676E+03  0.19074519615E+03  0.80419002446E+02 0. -1.
        -24    1    1    2    0    0 -0.51528990480E+02  0.59666390934E+02 -0.21575556715E+03  0.24337829767E+03  0.80419002446E+02 0.  1.
<mgrwt>
<rscale>  0 0.11261676E+03</rscale>
<asrwt>0</asrwt>
<pdfrwt beam="1">  1        1 0.49550762E-02 0.11261677E+03</pdfrwt>
<pdfrwt beam="2">  1       -1 0.61833154E-01 0.11261677E+03</pdfrwt>
<totfact> 0.43639593E+03</totfact>
</mgrwt>
</event>
<event>
 4    1  0.1123525E-001  0.8750104E+02  0.7546771E-02  0.1309019E+00
          1   -1    0    0  501    0  0.00000000000E+00  0.00000000000E+00  0.39311448478E+02  0.39311448478E+02  0.00000000000E+00 0. -1.
         -1   -1    0    0    0  501 -0.00000000000E+00 -0.00000000000E+00 -0.25135992028E+03  0.25135992028E+03  0.00000000000E+00 0.  1.
         24    1    1    2    0    0  0.21742713476E+02 -0.26766959740E+02 -0.17498770180E+03  0.19564541257E+03  0.80419002446E+02 0.  1.
        -24    1    1    2    0    0 -0.21742713476E+02  0.26766959740E+02 -0.37060770007E+02  0.95025956195E+02  0.80419002446E+02 0.  1.
<mgrwt>
<rscale>  0 0.87501038E+02</rscale>
<asrwt>0</asrwt>
<pdfrwt beam="1">  1        1 0.60479151E-02 0.87501038E+02</pdfrwt>
<pdfrwt beam="2">  1       -1 0.38670757E-01 0.87501038E+02</pdfrwt>
<totfact> 0.76258905E+03</totfact>
</mgrwt>
</event>
<event>
 4    1  0.1123525E-001  0.9080580E+02  0.7546771E-02  0.1300912E+00
          2   -1    0    0  501    0  0.00000000000E+00  0.00000000000E+00  0.30350487890E+04  0.30350487890E+04  0.00000000000E+00 0. -1.
         -2   -1    0    0    0  501 -0.00000000000E+00 -0.00000000000E+00 -0.32732124658E+01  0.32732124658E+01  0.00000000000E+00 0.  1.
         24    1    1    2    0    0  0.38584137639E+02 -0.17021807171E+02  0.21422214357E+04  0.21441451381E+04  0.80419002446E+02 0. -1.
        -24    1    1    2    0    0 -0.38584137639E+02  0.17021807171E+02  0.88955414084E+03  0.89417686340E+03  0.80419002446E+02 0.  1.
<mgrwt>
<rscale>  0 0.90805801E+02</rscale>
<asrwt>0</asrwt>
<pdfrwt beam="1">  1        2 0.46692833E+00 0.90805801E+02</pdfrwt>
<pdfrwt beam="2">  1       -2 0.50357358E-03 0.90805801E+02</pdfrwt>
<totfact> 0.11266456E+04</totfact>
</mgrwt>
</event>
<event>
 4    1  0.1123525E-001  0.1255638E+03  0.7546771E-02  0.1234191E+00
          4   -1    0    0  501    0  0.00000000000E+00  0.00000000000E+00  0.36240788658E+02  0.36240788658E+02  0.00000000000E+00 0. -1.
         -4   -1    0    0    0  501 -0.00000000000E+00 -0.00000000000E+00 -0.51837801791E+03  0.51837801791E+03  0.00000000000E+00 0.  1.
         24    1    1    2    0    0  0.50879481325E+02 -0.81916563455E+02 -0.35225663163E+03  0.37396656999E+03  0.80419002446E+02 0. -1.
        -24    1    1    2    0    0 -0.50879481325E+02  0.81916563455E+02 -0.12988059763E+03  0.18065223658E+03  0.80419002446E+02 0.  1.
<mgrwt>
<rscale>  0 0.12556379E+03</rscale>
<asrwt>0</asrwt>
<pdfrwt beam="1">  1        4 0.55755059E-02 0.12556380E+03</pdfrwt>
<pdfrwt beam="2">  1       -4 0.79750465E-01 0.12556380E+03</pdfrwt>
<totfact> 0.46864189E+02</totfact>
</mgrwt>
</event>
<event>
 4    1  0.1123525E-001  0.9683237E+02  0.7546771E-02  0.1287102E+00
         -1   -1    0    0    0  501 -0.00000000000E+00  0.00000000000E+00  0.99657187258E+01  0.99657187258E+01  0.00000000000E+00 0.  1.
          1   -1    0    0  501    0  0.00000000000E+00 -0.00000000000E+00 -0.13125851262E+04  0.13125851262E+04  0.00000000000E+00 0. -1.
         24    1    1    2    0    0 -0.90949205814E+01  0.53165538049E+02 -0.29940901754E+03  0.31467803825E+03  0.80419002446E+02 0.  1.
        -24    1    1    2    0    0  0.90949205814E+01 -0.53165538049E+02 -0.10032103900E+04  0.10078728067E+04  0.80419002446E+02 0. -1.
<mgrwt>
<rscale>  0 0.96832370E+02</rscale>
<asrwt>0</asrwt>
<pdfrwt beam="1">  1        1 0.20193607E+00 0.96832370E+02</pdfrwt>
<pdfrwt beam="2">  1       -1 0.15331883E-02 0.96832370E+02</pdfrwt>
<totfact> 0.92261823E+03</totfact>
</mgrwt>
</event>
<event>
 4    1  0.1123525E-001  0.8865265E+02  0.7546771E-02  0.1306148E+00
          2   -1    0    0  501    0  0.00000000000E+00  0.00000000000E+00  0.88541802067E+03  0.88541802067E+03  0.00000000000E+00 0. -1.
         -2   -1    0    0    0  501 -0.00000000000E+00 -0.00000000000E+00 -0.40672796266E+02  0.40672796266E+02  0.00000000000E+00 0.  1.
         24    1    1    2    0    0 -0.34811795236E+02  0.13424415555E+02  0.83178480079E+03  0.83649581398E+03  0.80419002446E+02 0. -1.
        -24    1    1    2    0    0  0.34811795236E+02 -0.13424415555E+02  0.12960423613E+02  0.89595002958E+02  0.80419002446E+02 0.  1.
<mgrwt>
<rscale>  0 0.88652648E+02</rscale>
<asrwt>0</asrwt>
<pdfrwt beam="1">  1        2 0.13621814E+00 0.88652648E+02</pdfrwt>
<pdfrwt beam="2">  1       -2 0.62573539E-02 0.88652648E+02</pdfrwt>
<totfact> 0.41351439E+03</totfact>
</mgrwt>
</event>
<event>
 4    1  0.1123525E-001  0.1062956E+03  0.7546771E-02  0.1267588E+00
          2   -1    0    0  501    0  0.00000000000E+00  0.00000000000E+00  0.24010326098E+04  0.24010326098E+04  0.00000000000E+00 0. -1.
         -2   -1    0    0    0  501 -0.00000000000E+00 -0.00000000000E+00 -0.56251439801E+01  0.56251439801E+01  0.00000000000E+00 0.  1.
         24    1    1    2    0    0 -0.14497433843E+02  0.67980627286E+02  0.16841766894E+04  0.16875277415E+04  0.80419002446E+02 0. -1.
        -24    1    1    2    0    0  0.14497433843E+02 -0.67980627286E+02  0.71123077641E+03  0.71913001226E+03  0.80419002446E+02 0.  0.
<mgrwt>
<rscale>  0 0.10629561E+03</rscale>
<asrwt>0</asrwt>
<pdfrwt beam="1">  1        2 0.36938881E+00 0.10629561E+03</pdfrwt>
<pdfrwt beam="2">  1       -2 0.86540868E-03 0.10629561E+03</pdfrwt>
<totfact> 0.11687911E+04</totfact>
</mgrwt>
</event>
<event>
 4    1  0.1123525E-001  0.4370873E+03  0.7546771E-02  0.1031644E+00
          2   -1    0    0  501    0  0.00000000000E+00  0.00000000000E+00  0.28160306912E+03  0.28160306912E+03  0.00000000000E+00 0. -1.
         -2   -1    0    0    0  501 -0.00000000000E+00 -0.00000000000E+00 -0.72055602631E+03  0.72055602631E+03  0.00000000000E+00 0.  1.
         24    1    1    2    0    0  0.24095898331E+03  0.35569211730E+03 -0.98306126078E+02  0.44800605389E+03  0.80419002446E+02 0.  0.
        -24    1    1    2    0    0 -0.24095898331E+03 -0.35569211730E+03 -0.34064683111E+03  0.55415304154E+03  0.80419002446E+02 0.  0.
<mgrwt>
<rscale>  0 0.43708733E+03</rscale>
<asrwt>0</asrwt>
<pdfrwt beam="1">  1        2 0.43323550E-01 0.43708733E+03</pdfrwt>
<pdfrwt beam="2">  1       -2 0.11085477E+00 0.43708733E+03</pdfrwt>
<totfact> 0.78197852E+01</totfact>
</mgrwt>
</event>
<event>
 4    1  0.1123525E-001  0.9557536E+02  0.7546771E-02  0.1289885E+00
         -1   -1    0    0    0  501 -0.00000000000E+00  0.00000000000E+00  0.33557003789E+01  0.33557003789E+01  0.00000000000E+00 0.  1.
          1   -1    0    0  501    0  0.00000000000E+00 -0.00000000000E+00 -0.34387494804E+04  0.34387494804E+04  0.00000000000E+00 0. -1.
         24    1    1    2    0    0  0.12330263595E+02 -0.50153740373E+02 -0.93202990031E+03  0.93691749055E+03  0.80419002446E+02 0. -1.
        -24    1    1    2    0    0 -0.12330263595E+02  0.50153740373E+02 -0.25033638798E+04  0.25051876903E+04  0.80419002446E+02 0.  1.
<mgrwt>
<rscale>  0 0.95575358E+02</rscale>
<asrwt>0</asrwt>
<pdfrwt beam="1">  1        1 0.52903480E+00 0.95575358E+02</pdfrwt>
<pdfrwt beam="2">  1       -1 0.51626509E-03 0.95575358E+02</pdfrwt>
<totfact> 0.17334180E+03</totfact>
</mgrwt>
</event>
<event>
 4    1  0.1123525E-001  0.8197422E+02  0.7546771E-02  0.1323540E+00
          3   -1    0    0  501    0  0.00000000000E+00  0.00000000000E+00  0.14310519509E+02  0.14310519509E+02  0.00000000000E+00 0. -1.
         -3   -1    0    0    0  501 -0.00000000000E+00 -0.00000000000E+00 -0.15871639265E+04  0.15871639265E+04  0.00000000000E+00 0.  1.
         24    1    1    2    0    0 -0.37418068540E+01 -0.15445257364E+02 -0.14583526023E+04  0.14606546771E+04  0.80419002446E+02 0.  1.
        -24    1    1    2    0    0  0.37418068540E+01  0.15445257364E+02 -0.11450080474E+03  0.14081976897E+03  0.80419002446E+02 0. -1.
<mgrwt>
<rscale>  0 0.81974222E+02</rscale>
<asrwt>0</asrwt>
<pdfrwt beam="1">  1        3 0.22016200E-02 0.81974222E+02</pdfrwt>
<pdfrwt beam="2">  1       -3 0.24417889E+00 0.81974222E+02</pdfrwt>
<totfact> 0.16311358E+02</totfact>
</mgrwt>
</event>
<event>
 4    1  0.1123525E-001  0.1164535E+03  0.7546771E-02  0.1249065E+00
         -2   -1    0    0    0  501 -0.00000000000E+00  0.00000000000E+00  0.49308164544E+02  0.49308164544E+02  0.00000000000E+00 0.  1.
          2   -1    0    0  501    0  0.00000000000E+00 -0.00000000000E+00 -0.10919714609E+04  0.10919714609E+04  0.00000000000E+00 0. -1.
         24    1    1    2    0    0  0.40654698839E+01  0.84128943401E+02 -0.10149039983E+04  0.10215632868E+04  0.80419002446E+02 0. -1.
        -24    1    1    2    0    0 -0.40654698839E+01 -0.84128943401E+02 -0.27759298063E+02  0.11971633868E+03  0.80419002446E+02 0.  1.
<mgrwt>
<rscale>  0 0.11645352E+03</rscale>
<asrwt>0</asrwt>
<pdfrwt beam="1">  1        2 0.16799561E+00 0.11645352E+03</pdfrwt>
<pdfrwt beam="2">  1       -2 0.75858714E-02 0.11645352E+03</pdfrwt>
<totfact> 0.23473689E+03</totfact>
</mgrwt>
</event>
<event>
 4    1  0.1123525E-001  0.9055225E+02  0.7546771E-02  0.1301520E+00
          2   -1    0    0  501    0  0.00000000000E+00  0.00000000000E+00  0.60538804957E+03  0.60538804957E+03  0.00000000000E+00 0. -1.
         -2   -1    0    0    0  501 -0.00000000000E+00 -0.00000000000E+00 -0.28062090685E+02  0.28062090685E+02  0.00000000000E+00 0.  1.
         24    1    1    2    0    0 -0.34981294580E+02 -0.22556671588E+02  0.51647094952E+03  0.52434907462E+03  0.80419002446E+02 0. -1.
        -24    1    1    2    0    0  0.34981294580E+02  0.22556671588E+02  0.60855009368E+02  0.10910106564E+03  0.80419002446E+02 0.  1.
<mgrwt>
<rscale>  0 0.90552252E+02</rscale>
<asrwt>0</asrwt>
<pdfrwt beam="1">  1        2 0.93136613E-01 0.90552252E+02</pdfrwt>
<pdfrwt beam="2">  1       -2 0.43172452E-02 0.90552252E+02</pdfrwt>
<totfact> 0.11298723E+04</totfact>
</mgrwt>
</event>
<event>
 4    1  0.1123525E-001  0.9578962E+02  0.7546771E-02  0.1289408E+00
          1   -1    0    0  501    0  0.00000000000E+00  0.00000000000E+00  0.40995080881E+03  0.40995080881E+03  0.00000000000E+00 0. -1.
         -1   -1    0    0    0  501 -0.00000000000E+00 -0.00000000000E+00 -0.23335333259E+02  0.23335333259E+02  0.00000000000E+00 0.  1.
         24    1    1    2    0    0 -0.18948117769E+02 -0.48470657099E+02  0.14952666303E+03  0.17757779894E+03  0.80419002446E+02 0. -1.
        -24    1    1    2    0    0  0.18948117769E+02  0.48470657099E+02  0.23708881253E+03  0.25570834313E+03  0.80419002446E+02 0.  0.
<mgrwt>
<rscale>  0 0.95789622E+02</rscale>
<asrwt>0</asrwt>
<pdfrwt beam="1">  1        1 0.63069350E-01 0.95789622E+02</pdfrwt>
<pdfrwt beam="2">  1       -1 0.35900516E-02 0.95789622E+02</pdfrwt>
<totfact> 0.15480083E+04</totfact>
</mgrwt>
</event>
<event>
 4    1  0.1123525E-001  0.1036831E+03  0.7546771E-02  0.1272736E+00
          2   -1    0    0  501    0  0.00000000000E+00  0.00000000000E+00  0.15006438849E+04  0.15006438849E+04  0.00000000000E+00 0. -1.
         -2   -1    0    0    0  501 -0.00000000000E+00 -0.00000000000E+00 -0.87835391449E+01  0.87835391449E+01  0.00000000000E+00 0.  1.
         24    1    1    2    0    0 -0.55456339952E+02  0.34749928702E+02  0.10700323417E+04  0.10750439021E+04  0.80419002446E+02 0. -1.
        -24    1    1    2    0    0  0.55456339952E+02 -0.34749928702E+02  0.42182800408E+03  0.43438352197E+03  0.80419002446E+02 0.  1.
<mgrwt>
<rscale>  0 0.10368307E+03</rscale>
<asrwt>0</asrwt>
<pdfrwt beam="1">  1        2 0.23086809E+00 0.10368307E+03</pdfrwt>
<pdfrwt beam="2">  1       -2 0.13513149E-02 0.10368307E+03</pdfrwt>
<totfact> 0.17805879E+04</totfact>
</mgrwt>
</event>
<event>
 4    1  0.1123525E-001  0.8732318E+02  0.7546771E-02  0.1309467E+00
         -2   -1    0    0    0  501 -0.00000000000E+00  0.00000000000E+00  0.28071285961E+03  0.28071285961E+03  0.00000000000E+00 0.  1.
          2   -1    0    0  501    0  0.00000000000E+00 -0.00000000000E+00 -0.29238595166E+02  0.29238595166E+02  0.00000000000E+00 0. -1.
         24    1    1    2    0    0  0.18741060595E+02 -0.28405829523E+02  0.16701652902E+03  0.18846712027E+03  0.80419002446E+02 0.  0.
        -24    1    1    2    0    0 -0.18741060595E+02  0.28405829523E+02  0.84457735428E+02  0.12148433451E+03  0.80419002446E+02 0.  0.
<mgrwt>
<rscale>  0 0.87323172E+02</rscale>
<asrwt>0</asrwt>
<pdfrwt beam="1">  1        2 0.44982456E-02 0.87323183E+02</pdfrwt>
<pdfrwt beam="2">  1       -2 0.43186592E-01 0.87323183E+02</pdfrwt>
<totfact> 0.83637978E+03</totfact>
</mgrwt>
</event>
<event>
 4    1  0.1123525E-001  0.1028136E+03  0.7546771E-02  0.1274488E+00
         -1   -1    0    0    0  501 -0.00000000000E+00  0.00000000000E+00  0.50145176128E+03  0.50145176128E+03  0.00000000000E+00 0.  1.
          1   -1    0    0  501    0  0.00000000000E+00 -0.00000000000E+00 -0.27237894010E+02  0.27237894010E+02  0.00000000000E+00 0. -1.
         24    1    1    2    0    0  0.45939731259E+02  0.44642530607E+02  0.36279621443E+03  0.37708317863E+03  0.80419002446E+02 0.  1.
        -24    1    1    2    0    0 -0.45939731259E+02 -0.44642530607E+02  0.11141765285E+03  0.15160647667E+03  0.80419002446E+02 0. -1.
<mgrwt>
<rscale>  0 0.10281357E+03</rscale>
<asrwt>0</asrwt>
<pdfrwt beam="1">  1        1 0.41904456E-02 0.10281357E+03</pdfrwt>
<pdfrwt beam="2">  1       -1 0.77146418E-01 0.10281357E+03</pdfrwt>
<totfact> 0.35341643E+03</totfact>
</mgrwt>
</event>
<event>
 4    1  0.1123525E-001  0.9513065E+02  0.7546771E-02  0.1290882E+00
          1   -1    0    0  501    0  0.00000000000E+00  0.00000000000E+00  0.20018521020E+03  0.20018521020E+03  0.00000000000E+00 0. -1.
         -1   -1    0    0    0  501 -0.00000000000E+00 -0.00000000000E+00 -0.56483145172E+02  0.56483145172E+02  0.00000000000E+00 0.  1.
         24    1    1    2    0    0 -0.17341957442E+01 -0.50789929841E+02  0.14511159620E+02  0.96231045490E+02  0.80419002446E+02 0.  1.
        -24    1    1    2    0    0  0.17341957442E+01  0.50789929841E+02  0.12919090541E+03  0.16043730989E+03  0.80419002446E+02 0. -1.
<mgrwt>
<rscale>  0 0.95130649E+02</rscale>
<asrwt>0</asrwt>
<pdfrwt beam="1">  1        1 0.30797724E-01 0.95130649E+02</pdfrwt>
<pdfrwt beam="2">  1       -1 0.86897147E-02 0.95130649E+02</pdfrwt>
<totfact> 0.10148384E+04</totfact>
</mgrwt>
</event>
<event>
 4    1  0.1123525E-001  0.8778627E+02  0.7546771E-02  0.1308303E+00
         -2   -1    0    0    0  501 -0.00000000000E+00  0.00000000000E+00  0.27916129323E+02  0.27916129323E+02  0.00000000000E+00 0.  1.
          2   -1    0    0  501    0  0.00000000000E+00 -0.00000000000E+00 -0.31581443210E+03  0.31581443210E+03  0.00000000000E+00 0. -1.
         24    1    1    2    0    0  0.32379877243E+02  0.13811481171E+02 -0.20492866681E+03  0.22293987507E+03  0.80419002446E+02 0. -1.
        -24    1    1    2    0    0 -0.32379877243E+02 -0.13811481171E+02 -0.82969635967E+02  0.12079068635E+03  0.80419002446E+02 0.  1.
<mgrwt>
<rscale>  0 0.87786271E+02</rscale>
<asrwt>0</asrwt>
<pdfrwt beam="1">  1        2 0.48586835E-01 0.87786271E+02</pdfrwt>
<pdfrwt beam="2">  1       -2 0.42947892E-02 0.87786271E+02</pdfrwt>
<totfact> 0.22746824E+04</totfact>
</mgrwt>
</event>
<event>
 4    1  0.1123525E-001  0.8908881E+02  0.7546771E-02  0.1305073E+00
          1   -1    0    0  501    0  0.00000000000E+00  0.00000000000E+00  0.13129487078E+02  0.13129487078E+02  0.00000000000E+00 0. -1.
         -1   -1    0    0    0  501 -0.00000000000E+00 -0.00000000000E+00 -0.13943780106E+04  0.13943780106E+04  0.00000000000E+00 0.  1.
         24    1    1    2    0    0 -0.18702664230E+02  0.33463571159E+02 -0.12202994220E+04  0.12235470957E+04  0.80419002446E+02 0.  1.
        -24    1    1    2    0    0  0.18702664230E+02 -0.33463571159E+02 -0.16094910160E+03  0.18396040200E+03  0.80419002446E+02 0. -1.
<mgrwt>
<rscale>  0 0.89088811E+02</rscale>
<asrwt>0</asrwt>
<pdfrwt beam="1">  1        1 0.20199199E-02 0.89088811E+02</pdfrwt>
<pdfrwt beam="2">  1       -1 0.21451983E+00 0.89088811E+02</pdfrwt>
<totfact> 0.77569204E+02</totfact>
</mgrwt>
</event>
<event>
 4    1  0.1123525E-001  0.1345203E+03  0.7546771E-02  0.1220899E+00
         -2   -1    0    0    0  501 -0.00000000000E+00  0.00000000000E+00  0.73017806647E+02  0.73017806647E+02  0.00000000000E+00 0.  1.
          2   -1    0    0  501    0  0.00000000000E+00 -0.00000000000E+00 -0.24782654009E+03  0.24782654009E+03  0.00000000000E+00 0. -1.
         24    1    1    2    0    0  0.91021572661E+02  0.57823421366E+02 -0.87113022979E+02  0.16026343774E+03  0.80419002446E+02 0. -1.
        -24    1    1    2    0    0 -0.91021572661E+02 -0.57823421366E+02 -0.87695710469E+02  0.16058090901E+03  0.80419002446E+02 0.  1.
<mgrwt>
<rscale>  0 0.13452024E+03</rscale>
<asrwt>0</asrwt>
<pdfrwt beam="1">  1        2 0.38127160E-01 0.13452026E+03</pdfrwt>
<pdfrwt beam="2">  1       -2 0.11233509E-01 0.13452026E+03</pdfrwt>
<totfact> 0.70424610E+03</totfact>
</mgrwt>
</event>
<event>
 4    1  0.1123525E-001  0.8974983E+02  0.7546771E-02  0.1303459E+00
         -2   -1    0    0    0  501 -0.00000000000E+00  0.00000000000E+00  0.60958089426E+01  0.60958089426E+01  0.00000000000E+00 0.  1.
          2   -1    0    0  501    0  0.00000000000E+00 -0.00000000000E+00 -0.22276889576E+04  0.22276889576E+04  0.00000000000E+00 0. -1.
         24    1    1    2    0    0 -0.33906679761E+02 -0.20932127053E+02 -0.18231838984E+04  0.18253916183E+04  0.80419002446E+02 0. -1.
        -24    1    1    2    0    0  0.33906679761E+02  0.20932127053E+02 -0.39840925032E+03  0.40839314829E+03  0.80419002446E+02 0.  1.
<mgrwt>
<rscale>  0 0.89749835E+02</rscale>
<asrwt>0</asrwt>
<pdfrwt beam="1">  1        2 0.34272144E+00 0.89749835E+02</pdfrwt>
<pdfrwt beam="2">  1       -2 0.93781660E-03 0.89749835E+02</pdfrwt>
<totfact> 0.12733995E+04</totfact>
</mgrwt>
</event>
<event>
 4    1  0.1123525E-001  0.1983780E+03  0.7546771E-02  0.1151115E+00
          2   -1    0    0  501    0  0.00000000000E+00  0.00000000000E+00  0.34131929921E+04  0.34131929921E+04  0.00000000000E+00 0. -1.
         -2   -1    0    0    0  501 -0.00000000000E+00 -0.00000000000E+00 -0.11530926856E+02  0.11530926856E+02  0.00000000000E+00 0.  1.
         24    1    1    2    0    0 -0.15680856324E+03 -0.91091450187E+02  0.16847177767E+04  0.16963572091E+04  0.80419002446E+02 0. -1.
        -24    1    1    2    0    0  0.15680856324E+03  0.91091450187E+02  0.17169442885E+04  0.17283667098E+04  0.80419002446E+02 0.  1.
<mgrwt>
<rscale>  0 0.19837793E+03</rscale>
<asrwt>0</asrwt>
<pdfrwt beam="1">  1        2 0.52510581E+00 0.19837796E+03</pdfrwt>
<pdfrwt beam="2">  1       -2 0.17739915E-02 0.19837796E+03</pdfrwt>
<totfact> 0.10845640E+03</totfact>
</mgrwt>
</event>
<event>
 4    1  0.1123525E-001  0.9327674E+02  0.7546771E-02  0.1295105E+00
         -1   -1    0    0    0  501 -0.00000000000E+00  0.00000000000E+00  0.15676123307E+04  0.15676123307E+04  0.00000000000E+00 0.  1.
          1   -1    0    0  501    0  0.00000000000E+00 -0.00000000000E+00 -0.68737768313E+01  0.68737768313E+01  0.00000000000E+00 0. -1.
         24    1    1    2    0    0  0.15282126420E+02 -0.44719015579E+02  0.11258206990E+04  0.11296781825E+04  0.80419002446E+02 0. -1.
        -24    1    1    2    0    0 -0.15282126420E+02  0.44719015579E+02  0.43491785490E+03  0.44480792508E+03  0.80419002446E+02 0.  1.
<mgrwt>
<rscale>  0 0.93276737E+02</rscale>
<asrwt>0</asrwt>
<pdfrwt beam="1">  1        1 0.10575054E-02 0.93276737E+02</pdfrwt>
<pdfrwt beam="2">  1       -1 0.24117084E+00 0.93276737E+02</pdfrwt>
<totfact> 0.12956773E+03</totfact>
</mgrwt>
</event>
<event>
 4    1  0.1123525E-001  0.8771354E+02  0.7546771E-02  0.1308485E+00
         -2   -1    0    0    0  501 -0.00000000000E+00  0.00000000000E+00  0.16559906056E+02  0.16559906056E+02  0.00000000000E+00 0.  1.
          2   -1    0    0  501    0  0.00000000000E+00 -0.00000000000E+00 -0.48763800581E+03  0.48763800581E+03  0.00000000000E+00 0. -1.
         24    1    1    2    0    0 -0.11483381494E+02 -0.33084462687E+02 -0.29033931554E+03  0.30329949526E+03  0.80419002446E+02 0.  0.
        -24    1    1    2    0    0  0.11483381494E+02  0.33084462687E+02 -0.18073878421E+03  0.20089841660E+03  0.80419002446E+02 0.  0.
<mgrwt>
<rscale>  0 0.87713543E+02</rscale>
<asrwt>0</asrwt>
<pdfrwt beam="1">  1        2 0.75021240E-01 0.87713543E+02</pdfrwt>
<pdfrwt beam="2">  1       -2 0.25476776E-02 0.87713543E+02</pdfrwt>
<totfact> 0.30819238E+04</totfact>
</mgrwt>
</event>
<event>
 4    1  0.1123525E-001  0.9078736E+02  0.7546771E-02  0.1300956E+00
         -1   -1    0    0    0  501 -0.00000000000E+00  0.00000000000E+00  0.17246544198E+03  0.17246544198E+03  0.00000000000E+00 0.  1.
          1   -1    0    0  501    0  0.00000000000E+00 -0.00000000000E+00 -0.56450248955E+02  0.56450248955E+02  0.00000000000E+00 0. -1.
         24    1    1    2    0    0  0.32941711877E+02 -0.26267324664E+02  0.10283521439E+03  0.13717662337E+03  0.80419002446E+02 0.  1.
        -24    1    1    2    0    0 -0.32941711877E+02  0.26267324664E+02  0.13179978635E+02  0.91739067564E+02  0.80419002446E+02 0. -1.
<mgrwt>
<rscale>  0 0.90787360E+02</rscale>
<asrwt>0</asrwt>
<pdfrwt beam="1">  1        1 0.86846538E-02 0.90787360E+02</pdfrwt>
<pdfrwt beam="2">  1       -1 0.26533145E-01 0.90787360E+02</pdfrwt>
<totfact> 0.88951645E+03</totfact>
</mgrwt>
</event>
<event>
 4    1  0.1123525E-001  0.1423432E+03  0.7546771E-02  0.1210210E+00
         -1   -1    0    0    0  501 -0.00000000000E+00  0.00000000000E+00  0.25171945532E+02  0.25171945532E+02  0.00000000000E+00 0.  1.
          1   -1    0    0  501    0  0.00000000000E+00 -0.00000000000E+00 -0.10139111893E+04  0.10139111893E+04  0.00000000000E+00 0. -1.
         24    1    1    2    0    0 -0.75422479140E+02  0.90032370884E+02 -0.25849760691E+03  0.29509762266E+03  0.80419002446E+02 0.  1.
        -24    1    1    2    0    0  0.75422479140E+02 -0.90032370884E+02 -0.73024163681E+03  0.74398551213E+03  0.80419002446E+02 0. -1.
<mgrwt>
<rscale>  0 0.14234323E+03</rscale>
<asrwt>0</asrwt>
<pdfrwt beam="1">  1        1 0.15598631E+00 0.14234323E+03</pdfrwt>
<pdfrwt beam="2">  1       -1 0.38726076E-02 0.14234323E+03</pdfrwt>
<totfact> 0.39558584E+03</totfact>
</mgrwt>
</event>
<event>
 4    1  0.1123525E-001  0.1293982E+03  0.7546771E-02  0.1228351E+00
          2   -1    0    0  501    0  0.00000000000E+00  0.00000000000E+00  0.49112008323E+03  0.49112008323E+03  0.00000000000E+00 0. -1.
         -2   -1    0    0    0  501 -0.00000000000E+00 -0.00000000000E+00 -0.42247065582E+02  0.42247065582E+02  0.00000000000E+00 0.  1.
         24    1    1    2    0    0  0.91345369765E+02 -0.43962418765E+02  0.10727686176E+03  0.16808394291E+03  0.80419002446E+02 0.  0.
        -24    1    1    2    0    0 -0.91345369765E+02  0.43962418765E+02  0.34159615589E+03  0.36528320590E+03  0.80419002446E+02 0.  0.
<mgrwt>
<rscale>  0 0.12939819E+03</rscale>
<asrwt>0</asrwt>
<pdfrwt beam="1">  1        2 0.75556932E-01 0.12939820E+03</pdfrwt>
<pdfrwt beam="2">  1       -2 0.64995489E-02 0.12939820E+03</pdfrwt>
<totfact> 0.79171691E+03</totfact>
</mgrwt>
</event>
<event>
 4    1  0.1123525E-001  0.8454199E+02  0.7546771E-02  0.1316635E+00
          2   -1    0    0  501    0  0.00000000000E+00  0.00000000000E+00  0.74436750731E+03  0.74436750731E+03  0.00000000000E+00 0. -1.
         -2   -1    0    0    0  501 -0.00000000000E+00 -0.00000000000E+00 -0.12018426796E+02  0.12018426796E+02  0.00000000000E+00 0.  1.
         24    1    1    2    0    0 -0.17695284956E+01 -0.26019242106E+02  0.53575849047E+03  0.54238778402E+03  0.80419002446E+02 0. -1.
        -24    1    1    2    0    0  0.17695284956E+01  0.26019242106E+02  0.19659059004E+03  0.21399815008E+03  0.80419002446E+02 0.  1.
<mgrwt>
<rscale>  0 0.84541990E+02</rscale>
<asrwt>0</asrwt>
<pdfrwt beam="1">  1        2 0.11451804E+00 0.84541990E+02</pdfrwt>
<pdfrwt beam="2">  1       -2 0.18489893E-02 0.84541990E+02</pdfrwt>
<totfact> 0.30275451E+04</totfact>
</mgrwt>
</event>
<event>
 4    1  0.1123525E-001  0.1736307E+03  0.7546771E-02  0.1174114E+00
         -1   -1    0    0    0  501 -0.00000000000E+00  0.00000000000E+00  0.22078207757E+03  0.22078207757E+03  0.00000000000E+00 0.  1.
          1   -1    0    0  501    0  0.00000000000E+00 -0.00000000000E+00 -0.16095453655E+03  0.16095453655E+03  0.00000000000E+00 0. -1.
         24    1    1    2    0    0 -0.11232822711E+03 -0.10517968059E+03 -0.44409495244E+02  0.17922001851E+03  0.80419002446E+02 0.  0.
        -24    1    1    2    0    0  0.11232822711E+03  0.10517968059E+03  0.10423703625E+03  0.20251659561E+03  0.80419002446E+02 0.  0.
<mgrwt>
<rscale>  0 0.17363070E+03</rscale>
<asrwt>0</asrwt>
<pdfrwt beam="1">  1        1 0.24762236E-01 0.17363072E+03</pdfrwt>
<pdfrwt beam="2">  1       -1 0.33966474E-01 0.17363072E+03</pdfrwt>
<totfact> 0.15764440E+03</totfact>
</mgrwt>
</event>
<event>
 4    1  0.1123525E-001  0.8748124E+02  0.7546771E-02  0.1309068E+00
          1   -1    0    0  501    0  0.00000000000E+00  0.00000000000E+00  0.86410018281E+02  0.86410018281E+02  0.00000000000E+00 0. -1.
         -1   -1    0    0    0  501 -0.00000000000E+00 -0.00000000000E+00 -0.13174798046E+03  0.13174798046E+03  0.00000000000E+00 0.  1.
         24    1    1    2    0    0  0.13860507756E+02 -0.31522010765E+02 -0.85117446720E+02  0.12205714452E+03  0.80419002446E+02 0.  1.
        -24    1    1    2    0    0 -0.13860507756E+02  0.31522010765E+02  0.39779484538E+02  0.96100854223E+02  0.80419002446E+02 0. -1.
<mgrwt>
<rscale>  0 0.87481237E+02</rscale>
<asrwt>0</asrwt>
<pdfrwt beam="1">  1        1 0.13293849E-01 0.87481237E+02</pdfrwt>
<pdfrwt beam="2">  1       -1 0.20268920E-01 0.87481237E+02</pdfrwt>
<totfact> 0.78546321E+03</totfact>
</mgrwt>
</event>
<event>
 4    1  0.1123525E-001  0.1523090E+03  0.7546771E-02  0.1197664E+00
         -2   -1    0    0    0  501 -0.00000000000E+00  0.00000000000E+00  0.61151395267E+02  0.61151395267E+02  0.00000000000E+00 0.  1.
          2   -1    0    0  501    0  0.00000000000E+00 -0.00000000000E+00 -0.72017644333E+03  0.72017644333E+03  0.00000000000E+00 0. -1.
         24    1    1    2    0    0 -0.17288633950E+02 -0.12818702389E+03 -0.59826219722E+03  0.61734567507E+03  0.80419002446E+02 0. -1.
        -24    1    1    2    0    0  0.17288633950E+02  0.12818702389E+03 -0.60762850844E+02  0.16398216352E+03  0.80419002446E+02 0.  1.
<mgrwt>
<rscale>  0 0.15230898E+03</rscale>
<asrwt>0</asrwt>
<pdfrwt beam="1">  1        2 0.11079638E+00 0.15230898E+03</pdfrwt>
<pdfrwt beam="2">  1       -2 0.94079066E-02 0.15230898E+03</pdfrwt>
<totfact> 0.29127459E+03</totfact>
</mgrwt>
</event>
<event>
 4    1  0.1123525E-001  0.9346800E+02  0.7546771E-02  0.1294664E+00
         -1   -1    0    0    0  501 -0.00000000000E+00  0.00000000000E+00  0.18170600978E+02  0.18170600978E+02  0.00000000000E+00 0.  1.
          1   -1    0    0  501    0  0.00000000000E+00 -0.00000000000E+00 -0.52442966330E+03  0.52442966330E+03  0.00000000000E+00 0. -1.
         24    1    1    2    0    0  0.17557546617E+02  0.44280733098E+02 -0.17486938632E+03  0.19828153972E+03  0.80419002446E+02 0.  1.
        -24    1    1    2    0    0 -0.17557546617E+02 -0.44280733098E+02 -0.33138967600E+03  0.34431872456E+03  0.80419002446E+02 0. -1.
<mgrwt>
<rscale>  0 0.93467998E+02</rscale>
<asrwt>0</asrwt>
<pdfrwt beam="1">  1        1 0.80681492E-01 0.93467998E+02</pdfrwt>
<pdfrwt beam="2">  1       -1 0.27954769E-02 0.93467998E+02</pdfrwt>
<totfact> 0.16209183E+04</totfact>
</mgrwt>
</event>
<event>
 4    1  0.1123525E-001  0.8510659E+02  0.7546771E-02  0.1315154E+00
          1   -1    0    0  501    0  0.00000000000E+00  0.00000000000E+00  0.28129528827E+03  0.28129528827E+03  0.00000000000E+00 0. -1.
         -1   -1    0    0    0  501 -0.00000000000E+00 -0.00000000000E+00 -0.11218575506E+03  0.11218575506E+03  0.00000000000E+00 0.  1.
         24    1    1    2    0    0 -0.20581951999E+02  0.18769615403E+02 -0.88137807587E+02  0.12252103612E+03  0.80419002446E+02 0.  1.
        -24    1    1    2    0    0  0.20581951999E+02 -0.18769615403E+02  0.25724734080E+03  0.27096000722E+03  0.80419002446E+02 0.  0.
<mgrwt>
<rscale>  0 0.85106587E+02</rscale>
<asrwt>0</asrwt>
<pdfrwt beam="1">  1        1 0.43276198E-01 0.85106587E+02</pdfrwt>
<pdfrwt beam="2">  1       -1 0.17259347E-01 0.85106587E+02</pdfrwt>
<totfact> 0.23270111E+03</totfact>
</mgrwt>
</event>
<event>
 4    1  0.1123525E-001  0.1384743E+03  0.7546771E-02  0.1215397E+00
          2   -1    0    0  501    0  0.00000000000E+00  0.00000000000E+00  0.97816718478E+02  0.97816718478E+02  0.00000000000E+00 0. -1.
         -2   -1    0    0    0  501 -0.00000000000E+00 -0.00000000000E+00 -0.20737707579E+03  0.20737707579E+03  0.00000000000E+00 0.  1.
         24    1    1    2    0    0  0.10901637956E+03  0.28694013328E+02 -0.19087147625E+02  0.13978359193E+03  0.80419002446E+02 0.  1.
        -24    1    1    2    0    0 -0.10901637956E+03 -0.28694013328E+02 -0.90473209692E+02  0.16541020234E+03  0.80419002446E+02 0. -1.
<mgrwt>
<rscale>  0 0.13847431E+03</rscale>
<asrwt>0</asrwt>
<pdfrwt beam="1">  1        2 0.15048726E-01 0.13847431E+03</pdfrwt>
<pdfrwt beam="2">  1       -2 0.31904165E-01 0.13847431E+03</pdfrwt>
<totfact> 0.34058820E+03</totfact>
</mgrwt>
</event>
<event>
 4    1  0.1123525E-001  0.1534541E+03  0.7546771E-02  0.1196292E+00
          2   -1    0    0  501    0  0.00000000000E+00  0.00000000000E+00  0.50912874967E+03  0.50912874967E+03  0.00000000000E+00 0. -1.
         -2   -1    0    0    0  501 -0.00000000000E+00 -0.00000000000E+00 -0.59878598284E+02  0.59878598284E+02  0.00000000000E+00 0.  1.
         24    1    1    2    0    0 -0.47866243400E+02 -0.12161316120E+03  0.36034635495E+03  0.39166012015E+03  0.80419002446E+02 0.  0.
        -24    1    1    2    0    0  0.47866243400E+02  0.12161316120E+03  0.88903796428E+02  0.17734722780E+03  0.80419002446E+02 0.  1.
<mgrwt>
<rscale>  0 0.15345408E+03</rscale>
<asrwt>0</asrwt>
<pdfrwt beam="1">  1        2 0.78327497E-01 0.15345408E+03</pdfrwt>
<pdfrwt beam="2">  1       -2 0.92120924E-02 0.15345408E+03</pdfrwt>
<totfact> 0.44851441E+03</totfact>
</mgrwt>
</event>
<event>
 4    1  0.1123525E-001  0.8419478E+02  0.7546771E-02  0.1317552E+00
         -2   -1    0    0    0  501 -0.00000000000E+00  0.00000000000E+00  0.60922752455E+02  0.60922752455E+02  0.00000000000E+00 0.  1.
          2   -1    0    0  501    0  0.00000000000E+00 -0.00000000000E+00 -0.15671772220E+03  0.15671772220E+03  0.00000000000E+00 0. -1.
         24    1    1    2    0    0 -0.24907960736E+02 -0.10672823278E+01 -0.10312207174E+03  0.13312746987E+03  0.80419002446E+02 0. -1.
        -24    1    1    2    0    0  0.24907960736E+02  0.10672823278E+01  0.73271019964E+01  0.84513004784E+02  0.80419002446E+02 0.  1.
<mgrwt>
<rscale>  0 0.84194783E+02</rscale>
<asrwt>0</asrwt>
<pdfrwt beam="1">  1        2 0.24110418E-01 0.84194783E+02</pdfrwt>
<pdfrwt beam="2">  1       -2 0.93727314E-02 0.84194783E+02</pdfrwt>
<totfact> 0.14704599E+04</totfact>
</mgrwt>
</event>
<event>
 4    1  0.1123525E-001  0.1188898E+03  0.7546771E-02  0.1244940E+00
         -2   -1    0    0    0  501 -0.00000000000E+00  0.00000000000E+00  0.34664660504E+02  0.34664660504E+02  0.00000000000E+00 0.  1.
          2   -1    0    0  501    0  0.00000000000E+00 -0.00000000000E+00 -0.48284060605E+03  0.48284060605E+03  0.00000000000E+00 0. -1.
         24    1    1    2    0    0 -0.47077796653E+02 -0.73832513316E+02 -0.32612411554E+03  0.34711916347E+03  0.80419002446E+02 0.  1.
        -24    1    1    2    0    0  0.47077796653E+02  0.73832513316E+02 -0.12205183001E+03  0.17038610308E+03  0.80419002446E+02 0.  0.
<mgrwt>
<rscale>  0 0.11888976E+03</rscale>
<asrwt>0</asrwt>
<pdfrwt beam="1">  1        2 0.74283165E-01 0.11888976E+03</pdfrwt>
<pdfrwt beam="2">  1       -2 0.53330250E-02 0.11888976E+03</pdfrwt>
<totfact> 0.10811019E+04</totfact>
</mgrwt>
</event>
<event>
 4    1  0.1123525E-001  0.1321690E+03  0.7546771E-02  0.1224272E+00
         -2   -1    0    0    0  501 -0.00000000000E+00  0.00000000000E+00  0.22636853644E+03  0.22636853644E+03  0.00000000000E+00 0.  1.
          2   -1    0    0  501    0  0.00000000000E+00 -0.00000000000E+00 -0.80964345011E+02  0.80964345011E+02  0.00000000000E+00 0. -1.
         24    1    1    2    0    0  0.96820562067E+02  0.40338710416E+02  0.10597218196E+03  0.16940706036E+03  0.80419002446E+02 0.  1.
        -24    1    1    2    0    0 -0.96820562067E+02 -0.40338710416E+02  0.39432009463E+02  0.13792582108E+03  0.80419002446E+02 0. -1.
<mgrwt>
<rscale>  0 0.13216903E+03</rscale>
<asrwt>0</asrwt>
<pdfrwt beam="1">  1        2 0.12456053E-01 0.13216905E+03</pdfrwt>
<pdfrwt beam="2">  1       -2 0.34825928E-01 0.13216905E+03</pdfrwt>
<totfact> 0.36187320E+03</totfact>
</mgrwt>
</event>
<event>
 4    1  0.1123525E-001  0.1504361E+03  0.7546771E-02  0.1199938E+00
          2   -1    0    0  501    0  0.00000000000E+00  0.00000000000E+00  0.91600090481E+02  0.91600090481E+02  0.00000000000E+00 0. -1.
         -2   -1    0    0    0  501 -0.00000000000E+00 -0.00000000000E+00 -0.35799780870E+03  0.35799780870E+03  0.00000000000E+00 0.  1.
         24    1    1    2    0    0 -0.74634020273E+02  0.10292502278E+03 -0.80613277028E+01  0.15065191089E+03  0.80419002446E+02 0. -1.
        -24    1    1    2    0    0  0.74634020273E+02 -0.10292502278E+03 -0.25833639051E+03  0.29894598829E+03  0.80419002446E+02 0.  1.
<mgrwt>
<rscale>  0 0.15043608E+03</rscale>
<asrwt>0</asrwt>
<pdfrwt beam="1">  1        2 0.14092321E-01 0.15043608E+03</pdfrwt>
<pdfrwt beam="2">  1       -2 0.55076587E-01 0.15043608E+03</pdfrwt>
<totfact> 0.12989025E+03</totfact>
</mgrwt>
</event>
<event>
 4    1  0.1264063E-001  0.8165598E+02  0.7546771E-02  0.1324417E+00
          1   -1    0    0  501    0  0.00000000000E+00  0.00000000000E+00  0.58858857728E+03  0.58858857728E+03  0.00000000000E+00 0. -1.
         -1   -1    0    0    0  501 -0.00000000000E+00 -0.00000000000E+00 -0.47988787843E+02  0.47988787843E+02  0.00000000000E+00 0.  1.
         24    1    1    2    0    0 -0.10561435104E+02  0.94307566609E+01 -0.78958716032E+01  0.82036844316E+02  0.80419002446E+02 0.  1.
        -24    1    1    2    0    0  0.10561435104E+02 -0.94307566609E+01  0.54849566104E+03  0.55454052081E+03  0.80419002446E+02 0. -1.
<mgrwt>
<rscale>  0 0.81655980E+02</rscale>
<asrwt>0</asrwt>
<pdfrwt beam="1">  1        1 0.90552084E-01 0.81655980E+02</pdfrwt>
<pdfrwt beam="2">  1       -1 0.73828909E-02 0.81655980E+02</pdfrwt>
<totfact> 0.33480498E+03</totfact>
</mgrwt>
</event>
<event>
 4    1  0.1123525E-001  0.2353498E+03  0.7546771E-02  0.1122930E+00
         -2   -1    0    0    0  501 -0.00000000000E+00  0.00000000000E+00  0.23440756654E+03  0.23440756654E+03  0.00000000000E+00 0.  1.
          2   -1    0    0  501    0  0.00000000000E+00 -0.00000000000E+00 -0.67568586252E+03  0.67568586252E+03  0.00000000000E+00 0. -1.
         24    1    1    2    0    0  0.14854054729E+03  0.16388418888E+03 -0.58759063555E+03  0.63297100446E+03  0.80419002446E+02 0. -1.
        -24    1    1    2    0    0 -0.14854054729E+03 -0.16388418888E+03  0.14631233957E+03  0.27712242460E+03  0.80419002446E+02 0.  1.
<mgrwt>
<rscale>  0 0.23534982E+03</rscale>
<asrwt>0</asrwt>
<pdfrwt beam="1">  1        2 0.10395167E+00 0.23534982E+03</pdfrwt>
<pdfrwt beam="2">  1       -2 0.36062703E-01 0.23534982E+03</pdfrwt>
<totfact> 0.32142457E+02</totfact>
</mgrwt>
</event>
<event>
 4    1  0.1123525E-001  0.1048601E+03  0.7546771E-02  0.1270395E+00
          1   -1    0    0  501    0  0.00000000000E+00  0.00000000000E+00  0.93467297783E+03  0.93467297783E+03  0.00000000000E+00 0. -1.
         -1   -1    0    0    0  501 -0.00000000000E+00 -0.00000000000E+00 -0.14714682464E+02  0.14714682464E+02  0.00000000000E+00 0.  1.
         24    1    1    2    0    0 -0.55204653004E+02  0.38482145666E+02  0.24741628692E+03  0.26872004808E+03  0.80419002446E+02 0.  1.
        -24    1    1    2    0    0  0.55204653004E+02 -0.38482145666E+02  0.67254200844E+03  0.68066761222E+03  0.80419002446E+02 0. -1.
<mgrwt>
<rscale>  0 0.10486012E+03</rscale>
<asrwt>0</asrwt>
<pdfrwt beam="1">  1        1 0.14379580E+00 0.10486012E+03</pdfrwt>
<pdfrwt beam="2">  1       -1 0.22637980E-02 0.10486012E+03</pdfrwt>
<totfact> 0.97223670E+03</totfact>
</mgrwt>
</event>
<event>
 4    1  0.1123525E-001  0.8933892E+02  0.7546771E-02  0.1304461E+00
          2   -1    0    0  501    0  0.00000000000E+00  0.00000000000E+00  0.13599419888E+04  0.13599419888E+04  0.00000000000E+00 0. -1.
         -2   -1    0    0    0  501 -0.00000000000E+00 -0.00000000000E+00 -0.63766570878E+01  0.63766570878E+01  0.00000000000E+00 0.  1.
         24    1    1    2    0    0  0.31869560771E+02  0.22328394003E+02  0.86954793027E+03  0.87412530285E+03  0.80419002446E+02 0.  1.
        -24    1    1    2    0    0 -0.31869560771E+02 -0.22328394003E+02  0.48401740144E+03  0.49219334304E+03  0.80419002446E+02 0. -1.
<mgrwt>
<rscale>  0 0.89338917E+02</rscale>
<asrwt>0</asrwt>
<pdfrwt beam="1">  1        2 0.20922161E+00 0.89338917E+02</pdfrwt>
<pdfrwt beam="2">  1       -2 0.98102525E-03 0.89338917E+02</pdfrwt>
<totfact> 0.32816330E+04</totfact>
</mgrwt>
</event>
<event>
 4    1  0.1123525E-001  0.1076115E+03  0.7546771E-02  0.1265058E+00
          2   -1    0    0  501    0  0.00000000000E+00  0.00000000000E+00  0.32164362136E+03  0.32164362136E+03  0.00000000000E+00 0. -1.
         -2   -1    0    0    0  501 -0.00000000000E+00 -0.00000000000E+00 -0.36499137804E+02  0.36499137804E+02  0.00000000000E+00 0.  1.
         24    1    1    2    0    0 -0.24574220379E+02 -0.67150073044E+02  0.16344321695E+03  0.19568833828E+03  0.80419002446E+02 0.  1.
        -24    1    1    2    0    0  0.24574220379E+02  0.67150073044E+02  0.12170126661E+03  0.16245442088E+03  0.80419002446E+02 0. -1.
<mgrwt>
<rscale>  0 0.10761153E+03</rscale>
<asrwt>0</asrwt>
<pdfrwt beam="1">  1        2 0.49483632E-01 0.10761153E+03</pdfrwt>
<pdfrwt beam="2">  1       -2 0.56152522E-02 0.10761153E+03</pdfrwt>
<totfact> 0.15287474E+04</totfact>
</mgrwt>
</event>
<event>
 4    1  0.1123525E-001  0.9186894E+02  0.7546771E-02  0.1298388E+00
          1   -1    0    0  501    0  0.00000000000E+00  0.00000000000E+00  0.90138310282E+02  0.90138310282E+02  0.00000000000E+00 0. -1.
         -1   -1    0    0    0  501 -0.00000000000E+00 -0.00000000000E+00 -0.23629648830E+03  0.23629648830E+03  0.00000000000E+00 0.  1.
         24    1    1    2    0    0 -0.34142447931E+02  0.28407387779E+02 -0.19990107317E+03  0.22000077599E+03  0.80419002446E+02 0.  1.
        -24    1    1    2    0    0  0.34142447931E+02 -0.28407387779E+02  0.53742895147E+02  0.10643402259E+03  0.80419002446E+02 0. -1.
<mgrwt>
<rscale>  0 0.91868941E+02</rscale>
<asrwt>0</asrwt>
<pdfrwt beam="1">  1        1 0.13867432E-01 0.91868941E+02</pdfrwt>
<pdfrwt beam="2">  1       -1 0.36353306E-01 0.91868941E+02</pdfrwt>
<totfact> 0.28592962E+03</totfact>
</mgrwt>
</event>
<event>
 4    1  0.1123525E-001  0.1081859E+03  0.7546771E-02  0.1263967E+00
         -2   -1    0    0    0  501 -0.00000000000E+00  0.00000000000E+00  0.43305071735E+02  0.43305071735E+02  0.00000000000E+00 0.  1.
          2   -1    0    0  501    0  0.00000000000E+00 -0.00000000000E+00 -0.29146851580E+03  0.29146851580E+03  0.00000000000E+00 0. -1.
         24    1    1    2    0    0  0.58526989749E+02  0.42562512583E+02 -0.16922023919E+03  0.20084740803E+03  0.80419002446E+02 0. -1.
        -24    1    1    2    0    0 -0.58526989749E+02 -0.42562512583E+02 -0.78943204875E+02  0.13392617951E+03  0.80419002446E+02 0.  0.
<mgrwt>
<rscale>  0 0.10818591E+03</rscale>
<asrwt>0</asrwt>
<pdfrwt beam="1">  1        2 0.44841310E-01 0.10818591E+03</pdfrwt>
<pdfrwt beam="2">  1       -2 0.66623187E-02 0.10818591E+03</pdfrwt>
<totfact> 0.13105859E+04</totfact>
</mgrwt>
</event>
<event>
 4    1  0.1123525E-001  0.8539734E+02  0.7546771E-02  0.1314397E+00
          1   -1    0    0  501    0  0.00000000000E+00  0.00000000000E+00  0.87393759210E+03  0.87393759210E+03  0.00000000000E+00 0. -1.
         -1   -1    0    0    0  501 -0.00000000000E+00 -0.00000000000E+00 -0.10193848465E+02  0.10193848465E+02  0.00000000000E+00 0.  1.
         24    1    1    2    0    0 -0.27775943446E+02 -0.73475758238E+01  0.24358971072E+03  0.25812526616E+03  0.80419002446E+02 0. -1.
        -24    1    1    2    0    0  0.27775943446E+02  0.73475758238E+01  0.62015403292E+03  0.62600617441E+03  0.80419002446E+02 0. -1.
<mgrwt>
<rscale>  0 0.85397341E+02</rscale>
<asrwt>0</asrwt>
<pdfrwt beam="1">  1        1 0.13445188E+00 0.85397341E+02</pdfrwt>
<pdfrwt beam="2">  1       -1 0.15682851E-02 0.85397341E+02</pdfrwt>
<totfact> 0.17956064E+04</totfact>
</mgrwt>
</event>
<event>
 4    1  0.1123525E-001  0.1106935E+03  0.7546771E-02  0.1259291E+00
          1   -1    0    0  501    0  0.00000000000E+00  0.00000000000E+00  0.12368146459E+04  0.12368146459E+04  0.00000000000E+00 0. -1.
         -1   -1    0    0    0  501 -0.00000000000E+00 -0.00000000000E+00 -0.11653054898E+02  0.11653054898E+02  0.00000000000E+00 0.  1.
         24    1    1    2    0    0 -0.72162644627E+02  0.24049554107E+02  0.37094334177E+03  0.38710722945E+03  0.80419002446E+02 0.  1.
        -24    1    1    2    0    0  0.72162644627E+02 -0.24049554107E+02  0.85421824925E+03  0.86136047137E+03  0.80419002446E+02 0. -1.
<mgrwt>
<rscale>  0 0.11069347E+03</rscale>
<asrwt>0</asrwt>
<pdfrwt beam="1">  1        1 0.19027907E+00 0.11069347E+03</pdfrwt>
<pdfrwt beam="2">  1       -1 0.17927787E-02 0.11069347E+03</pdfrwt>
<totfact> 0.83498069E+03</totfact>
</mgrwt>
</event>
<event>
 4    1  0.1123525E-001  0.1408688E+03  0.7546771E-02  0.1212165E+00
          2   -1    0    0  501    0  0.00000000000E+00  0.00000000000E+00  0.76162725981E+03  0.76162725981E+03  0.00000000000E+00 0. -1.
         -2   -1    0    0    0  501 -0.00000000000E+00 -0.00000000000E+00 -0.19237667724E+03  0.19237667724E+03  0.00000000000E+00 0.  1.
         24    1    1    2    0    0 -0.33425673297E+02 -0.11072277556E+03  0.72815088640E+03  0.74165203295E+03  0.80419002446E+02 0. -1.
        -24    1    1    2    0    0  0.33425673297E+02  0.11072277556E+03 -0.15890030383E+03  0.21235190410E+03  0.80419002446E+02 0.  1.
<mgrwt>
<rscale>  0 0.14086882E+03</rscale>
<asrwt>0</asrwt>
<pdfrwt beam="1">  1        2 0.11717342E+00 0.14086882E+03</pdfrwt>
<pdfrwt beam="2">  1       -2 0.29596412E-01 0.14086882E+03</pdfrwt>
<totfact> 0.40347533E+02</totfact>
</mgrwt>
</event>
<event>
 4    1  0.1123525E-001  0.1023682E+03  0.7546771E-02  0.1275393E+00
          1   -1    0    0  501    0  0.00000000000E+00  0.00000000000E+00  0.73797495574E+01  0.73797495574E+01  0.00000000000E+00 0. -1.
         -1   -1    0    0    0  501 -0.00000000000E+00 -0.00000000000E+00 -0.21546779206E+04  0.21546779206E+04  0.00000000000E+00 0.  1.
         24    1    1    2    0    0 -0.45575257821E+02  0.43987920730E+02 -0.17048884530E+04  0.17079589850E+04  0.80419002446E+02 0.  1.
        -24    1    1    2    0    0  0.45575257821E+02 -0.43987920730E+02 -0.44240971811E+03  0.45409868523E+03  0.80419002446E+02 0.  0.
<mgrwt>
<rscale>  0 0.10236824E+03</rscale>
<asrwt>0</asrwt>
<pdfrwt beam="1">  1        1 0.11353455E-02 0.10236824E+03</pdfrwt>
<pdfrwt beam="2">  1       -1 0.33148908E+00 0.10236824E+03</pdfrwt>
<totfact> 0.33059914E+02</totfact>
</mgrwt>
</event>
<event>
 4    1  0.1123525E-001  0.9376372E+02  0.7546771E-02  0.1293985E+00
         -1   -1    0    0    0  501 -0.00000000000E+00  0.00000000000E+00  0.19582033325E+02  0.19582033325E+02  0.00000000000E+00 0.  1.
          1   -1    0    0  501    0  0.00000000000E+00 -0.00000000000E+00 -0.49381627566E+03  0.49381627566E+03  0.00000000000E+00 0. -1.
         24    1    1    2    0    0  0.42955588042E+02 -0.21891387762E+02 -0.31448009437E+03  0.32816057215E+03  0.80419002446E+02 0.  0.
        -24    1    1    2    0    0 -0.42955588042E+02  0.21891387762E+02 -0.15975414796E+03  0.18523773683E+03  0.80419002446E+02 0.  0.
<mgrwt>
<rscale>  0 0.93763711E+02</rscale>
<asrwt>0</asrwt>
<pdfrwt beam="1">  1        1 0.75971734E-01 0.93763723E+02</pdfrwt>
<pdfrwt beam="2">  1       -1 0.30126205E-02 0.93763723E+02</pdfrwt>
<totfact> 0.15732884E+04</totfact>
</mgrwt>
</event>
<event>
 4    1  0.1271608E-001  0.1547022E+03  0.7546771E-02  0.1194811E+00
          1   -1    0    0  501    0  0.00000000000E+00  0.00000000000E+00  0.39155574559E+03  0.39155574559E+03  0.00000000000E+00 0. -1.
         -1   -1    0    0    0  501 -0.00000000000E+00 -0.00000000000E+00 -0.26171853120E+03  0.26171853120E+03  0.00000000000E+00 0.  1.
         24    1    1    2    0    0  0.38065672003E+02 -0.12655653901E+03 -0.22104433827E+03  0.26980246179E+03  0.80419002446E+02 0.  1.
        -24    1    1    2    0    0 -0.38065672003E+02  0.12655653901E+03  0.35088155266E+03  0.38347181501E+03  0.80419002446E+02 0. -1.
<mgrwt>
<rscale>  0 0.15470219E+03</rscale>
<asrwt>0</asrwt>
<pdfrwt beam="1">  1        1 0.60239346E-01 0.15470219E+03</pdfrwt>
<pdfrwt beam="2">  1       -1 0.40264389E-01 0.15470219E+03</pdfrwt>
<totfact> 0.38558106E+02</totfact>
</mgrwt>
</event>
<event>
 4    1  0.1123525E-001  0.1643117E+03  0.7546771E-02  0.1183913E+00
          2   -1    0    0  501    0  0.00000000000E+00  0.00000000000E+00  0.50434919231E+03  0.50434919231E+03  0.00000000000E+00 0. -1.
         -2   -1    0    0    0  501 -0.00000000000E+00 -0.00000000000E+00 -0.12559968431E+03  0.12559968431E+03  0.00000000000E+00 0.  1.
         24    1    1    2    0    0  0.14319680297E+03  0.50795659740E+01  0.42796582103E+03  0.45842456991E+03  0.80419002446E+02 0. -1.
        -24    1    1    2    0    0 -0.14319680297E+03 -0.50795659740E+01 -0.49216313027E+02  0.17152430671E+03  0.80419002446E+02 0.  1.
<mgrwt>
<rscale>  0 0.16431172E+03</rscale>
<asrwt>0</asrwt>
<pdfrwt beam="1">  1        2 0.77592182E-01 0.16431172E+03</pdfrwt>
<pdfrwt beam="2">  1       -2 0.19323029E-01 0.16431172E+03</pdfrwt>
<totfact> 0.13654020E+03</totfact>
</mgrwt>
</event>
<event>
 4    1  0.1123525E-001  0.9398436E+02  0.7546771E-02  0.1293480E+00
         -1   -1    0    0    0  501 -0.00000000000E+00  0.00000000000E+00  0.61017865254E+02  0.61017865254E+02  0.00000000000E+00 0.  1.
          1   -1    0    0  501    0  0.00000000000E+00 -0.00000000000E+00 -0.15194940475E+03  0.15194940475E+03  0.00000000000E+00 0. -1.
         24    1    1    2    0    0  0.11590501918E+02  0.47238809797E+02 -0.22306595699E+02  0.96595264127E+02  0.80419002446E+02 0.  1.
        -24    1    1    2    0    0 -0.11590501918E+02 -0.47238809797E+02 -0.68624943793E+02  0.11637200587E+03  0.80419002446E+02 0. -1.
<mgrwt>
<rscale>  0 0.93984365E+02</rscale>
<asrwt>0</asrwt>
<pdfrwt beam="1">  1        1 0.23376832E-01 0.93984365E+02</pdfrwt>
<pdfrwt beam="2">  1       -1 0.93873638E-02 0.93984365E+02</pdfrwt>
<totfact> 0.12692674E+04</totfact>
</mgrwt>
</event>
<event>
 4    1  0.1123525E-001  0.2423984E+03  0.7546771E-02  0.1118205E+00
          1   -1    0    0  501    0  0.00000000000E+00  0.00000000000E+00  0.11141260689E+04  0.11141260689E+04  0.00000000000E+00 0. -1.
         -1   -1    0    0    0  501 -0.00000000000E+00 -0.00000000000E+00 -0.54362285294E+02  0.54362285294E+02  0.00000000000E+00 0.  1.
         24    1    1    2    0    0  0.21554556518E+03  0.76353487056E+02  0.42889733171E+03  0.49265594765E+03  0.80419002446E+02 0.  1.
        -24    1    1    2    0    0 -0.21554556518E+03 -0.76353487056E+02  0.63086645190E+03  0.67583240654E+03  0.80419002446E+02 0. -1.
<mgrwt>
<rscale>  0 0.24239835E+03</rscale>
<asrwt>0</asrwt>
<pdfrwt beam="1">  1        1 0.17140399E+00 0.24239835E+03</pdfrwt>
<pdfrwt beam="2">  1       -1 0.83634293E-02 0.24239835E+03</pdfrwt>
<totfact> 0.10620190E+03</totfact>
</mgrwt>
</event>
<event>
 4    1  0.1123525E-001  0.1771907E+03  0.7546771E-02  0.1170550E+00
          2   -1    0    0  501    0  0.00000000000E+00  0.00000000000E+00  0.81924113987E+03  0.81924113987E+03  0.00000000000E+00 0. -1.
         -2   -1    0    0    0  501 -0.00000000000E+00 -0.00000000000E+00 -0.44217157312E+02  0.44217157312E+02  0.00000000000E+00 0.  1.
         24    1    1    2    0    0  0.13035317754E+03  0.89092026486E+02  0.54512492101E+03  0.57319955996E+03  0.80419002446E+02 0.  1.
        -24    1    1    2    0    0 -0.13035317754E+03 -0.89092026486E+02  0.22989906155E+03  0.29025873723E+03  0.80419002446E+02 0. -1.
<mgrwt>
<rscale>  0 0.17719073E+03</rscale>
<asrwt>0</asrwt>
<pdfrwt beam="1">  1        2 0.12603709E+00 0.17719073E+03</pdfrwt>
<pdfrwt beam="2">  1       -2 0.68026402E-02 0.17719073E+03</pdfrwt>
<totfact> 0.41279901E+03</totfact>
</mgrwt>
</event>
<event>
 4    1  0.1123525E-001  0.8554631E+02  0.7546771E-02  0.1314010E+00
         -1   -1    0    0    0  501 -0.00000000000E+00  0.00000000000E+00  0.28183463399E+01  0.28183463399E+01  0.00000000000E+00 0.  1.
          1   -1    0    0  501    0  0.00000000000E+00 -0.00000000000E+00 -0.34074918315E+04  0.34074918315E+04  0.00000000000E+00 0. -1.
         24    1    1    2    0    0 -0.80100769037E+01  0.28049766579E+02 -0.25341451778E+04  0.25355886789E+04  0.80419002446E+02 0.  0.
        -24    1    1    2    0    0  0.80100769037E+01 -0.28049766579E+02 -0.87052830737E+03  0.87472149889E+03  0.80419002446E+02 0.  1.
<mgrwt>
<rscale>  0 0.85546295E+02</rscale>
<asrwt>0</asrwt>
<pdfrwt beam="1">  1        1 0.52423071E+00 0.85546305E+02</pdfrwt>
<pdfrwt beam="2">  1       -1 0.43359075E-03 0.85546305E+02</pdfrwt>
<totfact> 0.23317117E+03</totfact>
</mgrwt>
</event>
<event>
 4    1  0.1123525E-001  0.8160952E+02  0.7546771E-02  0.1324545E+00
          1   -1    0    0  501    0  0.00000000000E+00  0.00000000000E+00  0.83229238395E+01  0.83229238395E+01  0.00000000000E+00 0. -1.
         -1   -1    0    0    0  501 -0.00000000000E+00 -0.00000000000E+00 -0.13149814068E+04  0.13149814068E+04  0.00000000000E+00 0.  1.
         24    1    1    2    0    0 -0.92649789275E+01 -0.10346892433E+02 -0.10673058165E+04  0.10704213282E+04  0.80419002446E+02 0.  0.
        -24    1    1    2    0    0  0.92649789275E+01  0.10346892433E+02 -0.23935266648E+03  0.25288300244E+03  0.80419002446E+02 0. -1.
<mgrwt>
<rscale>  0 0.81609521E+02</rscale>
<asrwt>0</asrwt>
<pdfrwt beam="1">  1        1 0.12804495E-02 0.81609521E+02</pdfrwt>
<pdfrwt beam="2">  1       -1 0.20230488E+00 0.81609521E+02</pdfrwt>
<totfact> 0.17333748E+03</totfact>
</mgrwt>
</event>
<event>
 4    1  0.1123525E-001  0.8627129E+02  0.7546771E-02  0.1312141E+00
         -2   -1    0    0    0  501 -0.00000000000E+00  0.00000000000E+00  0.73446756894E+02  0.73446756894E+02  0.00000000000E+00 0.  1.
          2   -1    0    0  501    0  0.00000000000E+00 -0.00000000000E+00 -0.13615443244E+03  0.13615443244E+03  0.00000000000E+00 0. -1.
         24    1    1    2    0    0 -0.13977873678E+02 -0.27930962742E+02 -0.84351654510E+02  0.12065627711E+03  0.80419002446E+02 0. -1.
        -24    1    1    2    0    0  0.13977873678E+02  0.27930962742E+02  0.21643978961E+02  0.88944912231E+02  0.80419002446E+02 0.  1.
<mgrwt>
<rscale>  0 0.86271291E+02</rscale>
<asrwt>0</asrwt>
<pdfrwt beam="1">  1        2 0.20946836E-01 0.86271291E+02</pdfrwt>
<pdfrwt beam="2">  1       -2 0.11299501E-01 0.86271291E+02</pdfrwt>
<totfact> 0.12863131E+04</totfact>
</mgrwt>
</event>
<event>
 4    1  0.1123525E-001  0.1121099E+03  0.7546771E-02  0.1256712E+00
          3   -1    0    0  501    0  0.00000000000E+00  0.00000000000E+00  0.19458536782E+03  0.19458536782E+03  0.00000000000E+00 0. -1.
         -3   -1    0    0    0  501 -0.00000000000E+00 -0.00000000000E+00 -0.76905955171E+02  0.76905955171E+02  0.00000000000E+00 0.  1.
         24    1    1    2    0    0  0.48654834096E+02  0.61107422886E+02  0.45212189989E+01  0.11220101331E+03  0.80419002446E+02 0.  1.
        -24    1    1    2    0    0 -0.48654834096E+02 -0.61107422886E+02  0.11315819365E+03  0.15929030968E+03  0.80419002446E+02 0. -1.
<mgrwt>
<rscale>  0 0.11210988E+03</rscale>
<asrwt>0</asrwt>
<pdfrwt beam="1">  1        3 0.29936210E-01 0.11210988E+03</pdfrwt>
<pdfrwt beam="2">  1       -3 0.11831686E-01 0.11210988E+03</pdfrwt>
<totfact> 0.13351569E+03</totfact>
</mgrwt>
</event>
<event>
 4    1  0.1123525E-001  0.1318246E+03  0.7546771E-02  0.1224773E+00
          2   -1    0    0  501    0  0.00000000000E+00  0.00000000000E+00  0.12758723316E+04  0.12758723316E+04  0.00000000000E+00 0. -1.
         -2   -1    0    0    0  501 -0.00000000000E+00 -0.00000000000E+00 -0.19429806135E+02  0.19429806135E+02  0.00000000000E+00 0.  1.
         24    1    1    2    0    0 -0.65267673818E+02 -0.81551406756E+02  0.27407894068E+03  0.30413316634E+03  0.80419002446E+02 0.  0.
        -24    1    1    2    0    0  0.65267673818E+02  0.81551406756E+02  0.98236358483E+03  0.99116897144E+03  0.80419002446E+02 0.  0.
<mgrwt>
<rscale>  0 0.13182459E+03</rscale>
<asrwt>0</asrwt>
<pdfrwt beam="1">  1        2 0.19628799E+00 0.13182460E+03</pdfrwt>
<pdfrwt beam="2">  1       -2 0.29892019E-02 0.13182460E+03</pdfrwt>
<totfact> 0.75070890E+03</totfact>
</mgrwt>
</event>
<event>
 4    1  0.1123525E-001  0.1068139E+03  0.7546771E-02  0.1266586E+00
         -2   -1    0    0    0  501 -0.00000000000E+00  0.00000000000E+00  0.41403007151E+02  0.41403007151E+02  0.00000000000E+00 0.  1.
          2   -1    0    0  501    0  0.00000000000E+00 -0.00000000000E+00 -0.29828385715E+03  0.29828385715E+03  0.00000000000E+00 0. -1.
         24    1    1    2    0    0  0.70069763700E+02  0.56763193396E+01 -0.17531417906E+03  0.20529069565E+03  0.80419002446E+02 0.  0.
        -24    1    1    2    0    0 -0.70069763700E+02 -0.56763193396E+01 -0.81566670946E+02  0.13439616866E+03  0.80419002446E+02 0. -1.
<mgrwt>
<rscale>  0 0.10681390E+03</rscale>
<asrwt>0</asrwt>
<pdfrwt beam="1">  1        2 0.45889824E-01 0.10681390E+03</pdfrwt>
<pdfrwt beam="2">  1       -2 0.63696934E-02 0.10681390E+03</pdfrwt>
<totfact> 0.13676023E+04</totfact>
</mgrwt>
</event>
<event>
 4    1  0.1123525E-001  0.9509026E+02  0.7546771E-02  0.1290973E+00
          1   -1    0    0  501    0  0.00000000000E+00  0.00000000000E+00  0.35750701357E+04  0.35750701357E+04  0.00000000000E+00 0. -1.
         -1   -1    0    0    0  501 -0.00000000000E+00 -0.00000000000E+00 -0.28153078439E+01  0.28153078439E+01  0.00000000000E+00 0.  1.
         24    1    1    2    0    0 -0.38406886186E+02 -0.33164035986E+02  0.12158592795E+04  0.12195720339E+04  0.80419002446E+02 0.  1.
        -24    1    1    2    0    0  0.38406886186E+02  0.33164035986E+02  0.23563955483E+04  0.23583134096E+04  0.80419002446E+02 0. -1.
<mgrwt>
<rscale>  0 0.95090263E+02</rscale>
<asrwt>0</asrwt>
<pdfrwt beam="1">  1        1 0.55000716E+00 0.95090263E+02</pdfrwt>
<pdfrwt beam="2">  1       -1 0.43312715E-03 0.95090263E+02</pdfrwt>
<totfact> 0.17589860E+03</totfact>
</mgrwt>
</event>
<event>
 4    1  0.1123525E-001  0.1048226E+03  0.7546771E-02  0.1270470E+00
          3   -1    0    0  501    0  0.00000000000E+00  0.00000000000E+00  0.13079408563E+03  0.13079408563E+03  0.00000000000E+00 0. -1.
         -3   -1    0    0    0  501 -0.00000000000E+00 -0.00000000000E+00 -0.97739621373E+02  0.97739621373E+02  0.00000000000E+00 0.  1.
         24    1    1    2    0    0 -0.22693835514E+01  0.67196753906E+02 -0.26302307342E+02  0.10807211094E+03  0.80419002446E+02 0.  1.
        -24    1    1    2    0    0  0.22693835514E+01 -0.67196753906E+02  0.59356771603E+02  0.12046159607E+03  0.80419002446E+02 0. -1.
<mgrwt>
<rscale>  0 0.10482256E+03</rscale>
<asrwt>0</asrwt>
<pdfrwt beam="1">  1        3 0.20122167E-01 0.10482256E+03</pdfrwt>
<pdfrwt beam="2">  1       -3 0.15036865E-01 0.10482256E+03</pdfrwt>
<totfact> 0.17964289E+03</totfact>
</mgrwt>
</event>
<event>
 4    1  0.1123525E-001  0.1274680E+03  0.7546771E-02  0.1231262E+00
         -1   -1    0    0    0  501 -0.00000000000E+00  0.00000000000E+00  0.13341343589E+03  0.13341343589E+03  0.00000000000E+00 0.  1.
          1   -1    0    0  501    0  0.00000000000E+00 -0.00000000000E+00 -0.14321429393E+03  0.14321429393E+03  0.00000000000E+00 0. -1.
         24    1    1    2    0    0  0.92512718533E+02 -0.34961171440E+02  0.48599115852E+02  0.13641838811E+03  0.80419002446E+02 0.  1.
        -24    1    1    2    0    0 -0.92512718533E+02  0.34961171440E+02 -0.58399973882E+02  0.14020934171E+03  0.80419002446E+02 0. -1.
<mgrwt>
<rscale>  0 0.12746805E+03</rscale>
<asrwt>0</asrwt>
<pdfrwt beam="1">  1        1 0.22032968E-01 0.12746805E+03</pdfrwt>
<pdfrwt beam="2">  1       -1 0.20525144E-01 0.12746805E+03</pdfrwt>
<totfact> 0.41581334E+03</totfact>
</mgrwt>
</event>
<event>
 4    1  0.1123525E-001  0.8393419E+02  0.7546771E-02  0.1318244E+00
         -2   -1    0    0    0  501 -0.00000000000E+00  0.00000000000E+00  0.34407557580E+01  0.34407557580E+01  0.00000000000E+00 0.  1.
          2   -1    0    0  501    0  0.00000000000E+00 -0.00000000000E+00 -0.30176070799E+04  0.30176070799E+04  0.00000000000E+00 0. -1.
         24    1    1    2    0    0  0.35013909899E+01 -0.23779668342E+02 -0.23635411012E+04  0.23650309692E+04  0.80419002446E+02 0. -1.
        -24    1    1    2    0    0 -0.35013909899E+01  0.23779668342E+02 -0.65062522297E+03  0.65601686646E+03  0.80419002446E+02 0.  1.
<mgrwt>
<rscale>  0 0.83934190E+02</rscale>
<asrwt>0</asrwt>
<pdfrwt beam="1">  1        2 0.46424586E+00 0.83934190E+02</pdfrwt>
<pdfrwt beam="2">  1       -2 0.52934862E-03 0.83934190E+02</pdfrwt>
<totfact> 0.10731453E+04</totfact>
</mgrwt>
</event>
<event>
 4    1  0.1123525E-001  0.3258050E+03  0.7546771E-02  0.1073008E+00
         -2   -1    0    0    0  501 -0.00000000000E+00  0.00000000000E+00  0.51692627579E+02  0.51692627579E+02  0.00000000000E+00 0.  1.
          2   -1    0    0  501    0  0.00000000000E+00 -0.00000000000E+00 -0.20850762960E+04  0.20850762960E+04  0.00000000000E+00 0. -1.
         24    1    1    2    0    0  0.73777355536E+02  0.30698307086E+03 -0.11482441737E+04  0.11935717835E+04  0.80419002446E+02 0.  1.
        -24    1    1    2    0    0 -0.73777355536E+02 -0.30698307086E+03 -0.88513949472E+03  0.94319714008E+03  0.80419002446E+02 0. -1.
<mgrwt>
<rscale>  0 0.32580503E+03</rscale>
<asrwt>0</asrwt>
<pdfrwt beam="1">  1        2 0.32078098E+00 0.32580503E+03</pdfrwt>
<pdfrwt beam="2">  1       -2 0.79527117E-02 0.32580503E+03</pdfrwt>
<totfact> 0.63481479E+02</totfact>
</mgrwt>
</event>
<event>
 4    1  0.2034764E-001  0.1841212E+03  0.7546771E-02  0.1163873E+00
          1   -1    0    0  501    0  0.00000000000E+00  0.00000000000E+00  0.12821638978E+04  0.12821638978E+04  0.00000000000E+00 0. -1.
         -1   -1    0    0    0  501 -0.00000000000E+00 -0.00000000000E+00 -0.21067235265E+03  0.21067235265E+03  0.00000000000E+00 0.  1.
         24    1    1    2    0    0  0.16413427392E+03  0.22211151644E+02 -0.16226346724E+03  0.24541810016E+03  0.80419002446E+02 0.  1.
        -24    1    1    2    0    0 -0.16413427392E+03 -0.22211151644E+02  0.12337550124E+04  0.12474181503E+04  0.80419002446E+02 0. -1.
<mgrwt>
<rscale>  0 0.18412119E+03</rscale>
<asrwt>0</asrwt>
<pdfrwt beam="1">  1        1 0.19725598E+00 0.18412119E+03</pdfrwt>
<pdfrwt beam="2">  1       -1 0.32411132E-01 0.18412119E+03</pdfrwt>
<totfact> 0.93308305E+01</totfact>
</mgrwt>
</event>
<event>
 4    1  0.1123525E-001  0.1136092E+03  0.7546771E-02  0.1254029E+00
          1   -1    0    0  501    0  0.00000000000E+00  0.00000000000E+00  0.72803847639E+03  0.72803847639E+03  0.00000000000E+00 0. -1.
         -1   -1    0    0    0  501 -0.00000000000E+00 -0.00000000000E+00 -0.24285239227E+02  0.24285239227E+02  0.00000000000E+00 0.  1.
         24    1    1    2    0    0  0.79265132410E+02  0.12524644157E+02  0.15642156950E+03  0.19332550605E+03  0.80419002446E+02 0.  1.
        -24    1    1    2    0    0 -0.79265132410E+02 -0.12524644157E+02  0.54733166766E+03  0.55899820957E+03  0.80419002446E+02 0. -1.
<mgrwt>
<rscale>  0 0.11360917E+03</rscale>
<asrwt>0</asrwt>
<pdfrwt beam="1">  1        1 0.11200590E+00 0.11360917E+03</pdfrwt>
<pdfrwt beam="2">  1       -1 0.37361912E-02 0.11360917E+03</pdfrwt>
<totfact> 0.69142363E+03</totfact>
</mgrwt>
</event>
<event>
 4    1  0.1123525E-001  0.1589884E+03  0.7546771E-02  0.1189844E+00
          2   -1    0    0  501    0  0.00000000000E+00  0.00000000000E+00  0.13666289706E+04  0.13666289706E+04  0.00000000000E+00 0. -1.
         -2   -1    0    0    0  501 -0.00000000000E+00 -0.00000000000E+00 -0.50527044810E+02  0.50527044810E+02  0.00000000000E+00 0.  1.
         24    1    1    2    0    0 -0.38930628709E+02 -0.13150861723E+03  0.12222216202E+04  0.12325189715E+04  0.80419002446E+02 0. -1.
        -24    1    1    2    0    0  0.38930628709E+02  0.13150861723E+03  0.93880305611E+02  0.18463704394E+03  0.80419002446E+02 0.  1.
<mgrwt>
<rscale>  0 0.15898845E+03</rscale>
<asrwt>0</asrwt>
<pdfrwt beam="1">  1        2 0.21025058E+00 0.15898845E+03</pdfrwt>
<pdfrwt beam="2">  1       -2 0.77733926E-02 0.15898845E+03</pdfrwt>
<totfact> 0.16002348E+03</totfact>
</mgrwt>
</event>
<event>
 4    1  0.1123525E-001  0.9856706E+02  0.7546771E-02  0.1283338E+00
          1   -1    0    0  501    0  0.00000000000E+00  0.00000000000E+00  0.94704919860E+03  0.94704919860E+03  0.00000000000E+00 0. -1.
         -1   -1    0    0    0  501 -0.00000000000E+00 -0.00000000000E+00 -0.10259985848E+02  0.10259985848E+02  0.00000000000E+00 0.  1.
         24    1    1    2    0    0 -0.45171582342E+02 -0.34753019998E+02  0.47382611874E+03  0.48396967984E+03  0.80419002446E+02 0. -1.
        -24    1    1    2    0    0  0.45171582342E+02  0.34753019998E+02  0.46296309401E+03  0.47333950460E+03  0.80419002446E+02 0.  1.
<mgrwt>
<rscale>  0 0.98567046E+02</rscale>
<asrwt>0</asrwt>
<pdfrwt beam="1">  1        1 0.14569981E+00 0.98567059E+02</pdfrwt>
<pdfrwt beam="2">  1       -1 0.15784601E-02 0.98567059E+02</pdfrwt>
<totfact> 0.15868356E+04</totfact>
</mgrwt>
</event>
<event>
 4    1  0.1123525E-001  0.8110171E+02  0.7546771E-02  0.1325954E+00
          2   -1    0    0  501    0  0.00000000000E+00  0.00000000000E+00  0.21067377953E+04  0.21067377953E+04  0.00000000000E+00 0. -1.
         -2   -1    0    0    0  501 -0.00000000000E+00 -0.00000000000E+00 -0.44904236515E+01  0.44904236515E+01  0.00000000000E+00 0.  1.
         24    1    1    2    0    0  0.92511363014E+01  0.49687054874E+01  0.16338341583E+04  0.16358458193E+04  0.80419002446E+02 0. -1.
        -24    1    1    2    0    0 -0.92511363014E+01 -0.49687054874E+01  0.46841321332E+03  0.47538239968E+03  0.80419002446E+02 0.  0.
<mgrwt>
<rscale>  0 0.81101711E+02</rscale>
<asrwt>0</asrwt>
<pdfrwt beam="1">  1        2 0.32411272E+00 0.81101711E+02</pdfrwt>
<pdfrwt beam="2">  1       -2 0.69083609E-03 0.81101711E+02</pdfrwt>
<totfact> 0.22426745E+04</totfact>
</mgrwt>
</event>
<event>
 4    1  0.1123525E-001  0.9148470E+02  0.7546771E-02  0.1299296E+00
         -1   -1    0    0    0  501 -0.00000000000E+00  0.00000000000E+00  0.25937857767E+02  0.25937857767E+02  0.00000000000E+00 0.  1.
          1   -1    0    0  501    0  0.00000000000E+00 -0.00000000000E+00 -0.43467743625E+03  0.43467743625E+03  0.00000000000E+00 0. -1.
         24    1    1    2    0    0 -0.16988591234E+02  0.40169861860E+02 -0.32127731019E+03  0.33404873302E+03  0.80419002446E+02 0. -1.
        -24    1    1    2    0    0  0.16988591234E+02 -0.40169861860E+02 -0.87462268298E+02  0.12656656100E+03  0.80419002446E+02 0.  1.
<mgrwt>
<rscale>  0 0.91484688E+02</rscale>
<asrwt>0</asrwt>
<pdfrwt beam="1">  1        1 0.66873455E-01 0.91484699E+02</pdfrwt>
<pdfrwt beam="2">  1       -1 0.39904395E-02 0.91484699E+02</pdfrwt>
<totfact> 0.12288285E+04</totfact>
</mgrwt>
</event>
<event>
 4    1  0.1171454E-001  0.1209582E+03  0.7546771E-02  0.1241525E+00
         -1   -1    0    0    0  501 -0.00000000000E+00  0.00000000000E+00  0.55188353314E+03  0.55188353314E+03  0.00000000000E+00 0.  1.
          1   -1    0    0  501    0  0.00000000000E+00 -0.00000000000E+00 -0.10675691459E+03  0.10675691459E+03  0.00000000000E+00 0. -1.
         24    1    1    2    0    0  0.22920811547E+02  0.87397474247E+02  0.50808051446E+03  0.52228029566E+03  0.80419002446E+02 0.  1.
        -24    1    1    2    0    0 -0.22920811547E+02 -0.87397474247E+02 -0.62953895908E+02  0.13636015206E+03  0.80419002446E+02 0. -1.
<mgrwt>
<rscale>  0 0.12095825E+03</rscale>
<asrwt>0</asrwt>
<pdfrwt beam="1">  1        1 0.16424141E-01 0.12095825E+03</pdfrwt>
<pdfrwt beam="2">  1       -1 0.84905157E-01 0.12095825E+03</pdfrwt>
<totfact> 0.47639248E+02</totfact>
</mgrwt>
</event>
<event>
 4    1  0.1123525E-001  0.1138672E+03  0.7546771E-02  0.1253571E+00
          2   -1    0    0  501    0  0.00000000000E+00  0.00000000000E+00  0.68728469467E+03  0.68728469467E+03  0.00000000000E+00 0. -1.
         -2   -1    0    0    0  501 -0.00000000000E+00 -0.00000000000E+00 -0.25942825470E+02  0.25942825470E+02  0.00000000000E+00 0.  1.
         24    1    1    2    0    0  0.14558734925E+02  0.79287899945E+02  0.51693716066E+03  0.52932954940E+03  0.80419002446E+02 0. -1.
        -24    1    1    2    0    0 -0.14558734925E+02 -0.79287899945E+02  0.14440470854E+03  0.18389797074E+03  0.80419002446E+02 0.  1.
<mgrwt>
<rscale>  0 0.11386722E+03</rscale>
<asrwt>0</asrwt>
<pdfrwt beam="1">  1        2 0.10573609E+00 0.11386722E+03</pdfrwt>
<pdfrwt beam="2">  1       -2 0.39912044E-02 0.11386722E+03</pdfrwt>
<totfact> 0.11163157E+04</totfact>
</mgrwt>
</event>
<event>
 4    1  0.1123525E-001  0.1087759E+03  0.7546771E-02  0.1262854E+00
         -2   -1    0    0    0  501 -0.00000000000E+00  0.00000000000E+00  0.18234786069E+02  0.18234786069E+02  0.00000000000E+00 0.  1.
          2   -1    0    0  501    0  0.00000000000E+00 -0.00000000000E+00 -0.67561590046E+03  0.67561590046E+03  0.00000000000E+00 0. -1.
         24    1    1    2    0    0 -0.72874635988E+02  0.73669844283E+01 -0.39770304973E+03  0.41231046161E+03  0.80419002446E+02 0. -1.
        -24    1    1    2    0    0  0.72874635988E+02 -0.73669844283E+01 -0.25967806466E+03  0.28154022493E+03  0.80419002446E+02 0.  1.
<mgrwt>
<rscale>  0 0.10877592E+03</rscale>
<asrwt>0</asrwt>
<pdfrwt beam="1">  1        2 0.10394089E+00 0.10877592E+03</pdfrwt>
<pdfrwt beam="2">  1       -2 0.28053523E-02 0.10877592E+03</pdfrwt>
<totfact> 0.19041544E+04</totfact>
</mgrwt>
</event>
<event>
 4    1  0.1123525E-001  0.8283369E+02  0.7546771E-02  0.1321197E+00
          2   -1    0    0  501    0  0.00000000000E+00  0.00000000000E+00  0.28405105332E+04  0.28405105332E+04  0.00000000000E+00 0. -1.
         -2   -1    0    0    0  501 -0.00000000000E+00 -0.00000000000E+00 -0.86596354504E+01  0.86596354504E+01  0.00000000000E+00 0.  1.
         24    1    1    2    0    0 -0.77016782012E+01 -0.18299941369E+02  0.26256115972E+04  0.26269179049E+04  0.80419002446E+02 0. -1.
        -24    1    1    2    0    0  0.77016782012E+01  0.18299941369E+02  0.20623930049E+03  0.22225226370E+03  0.80419002446E+02 0.  1.
<mgrwt>
<rscale>  0 0.82833687E+02</rscale>
<asrwt>0</asrwt>
<pdfrwt beam="1">  1        2 0.43700088E+00 0.82833687E+02</pdfrwt>
<pdfrwt beam="2">  1       -2 0.13322539E-02 0.82833687E+02</pdfrwt>
<totfact> 0.36742391E+03</totfact>
</mgrwt>
</event>
<event>
 4    1  0.1123525E-001  0.1391971E+03  0.7546771E-02  0.1214413E+00
         -1   -1    0    0    0  501 -0.00000000000E+00  0.00000000000E+00  0.17544940373E+03  0.17544940373E+03  0.00000000000E+00 0.  1.
          1   -1    0    0  501    0  0.00000000000E+00 -0.00000000000E+00 -0.11775994383E+03  0.11775994383E+03  0.00000000000E+00 0. -1.
         24    1    1    2    0    0  0.86608538545E+02  0.73536298234E+02  0.65407277047E+02  0.15379841986E+03  0.80419002446E+02 0. -1.
        -24    1    1    2    0    0 -0.86608538545E+02 -0.73536298234E+02 -0.77178171423E+01  0.13941092770E+03  0.80419002446E+02 0.  1.
<mgrwt>
<rscale>  0 0.13919713E+03</rscale>
<asrwt>0</asrwt>
<pdfrwt beam="1">  1        1 0.18116914E-01 0.13919713E+03</pdfrwt>
<pdfrwt beam="2">  1       -1 0.26992216E-01 0.13919713E+03</pdfrwt>
<totfact> 0.34270719E+03</totfact>
</mgrwt>
</event>
<event>
 4    1  0.1123525E-001  0.1020474E+03  0.7546771E-02  0.1276049E+00
         -2   -1    0    0    0  501 -0.00000000000E+00  0.00000000000E+00  0.84886494826E+01  0.84886494826E+01  0.00000000000E+00 0.  1.
          2   -1    0    0  501    0  0.00000000000E+00 -0.00000000000E+00 -0.12983862749E+04  0.12983862749E+04  0.00000000000E+00 0. -1.
         24    1    1    2    0    0  0.84716801048E+01  0.62246975000E+02 -0.79840691679E+03  0.80490202881E+03  0.80419002446E+02 0. -1.
        -24    1    1    2    0    0 -0.84716801048E+01 -0.62246975000E+02 -0.49149070858E+03  0.50197289552E+03  0.80419002446E+02 0.  0.
<mgrwt>
<rscale>  0 0.10204740E+03</rscale>
<asrwt>0</asrwt>
<pdfrwt beam="1">  1        2 0.19975168E+00 0.10204740E+03</pdfrwt>
<pdfrwt beam="2">  1       -2 0.13059464E-02 0.10204740E+03</pdfrwt>
<totfact> 0.23815614E+04</totfact>
</mgrwt>
</event>
<event>
 4    1  0.1123525E-001  0.8042382E+02  0.7546771E-02  0.1327853E+00
          1   -1    0    0  501    0  0.00000000000E+00  0.00000000000E+00  0.48231077131E+03  0.48231077131E+03  0.00000000000E+00 0. -1.
         -1   -1    0    0    0  501 -0.00000000000E+00 -0.00000000000E+00 -0.16898850645E+02  0.16898850645E+02  0.00000000000E+00 0.  1.
         24    1    1    2    0    0  0.53334821924E+00  0.70082510970E+00  0.11929912965E+03  0.14387589758E+03  0.80419002446E+02 0.  0.
        -24    1    1    2    0    0 -0.53334821924E+00 -0.70082510970E+00  0.34611279102E+03  0.35533372437E+03  0.80419002446E+02 0. -1.
<mgrwt>
<rscale>  0 0.80423825E+02</rscale>
<asrwt>0</asrwt>
<pdfrwt beam="1">  1        1 0.74201647E-01 0.80423825E+02</pdfrwt>
<pdfrwt beam="2">  1       -1 0.25998235E-02 0.80423825E+02</pdfrwt>
<totfact> 0.19730013E+04</totfact>
</mgrwt>
</event>
<event>
 4    1  0.1123525E-001  0.8727459E+02  0.7546771E-02  0.1309589E+00
         -1   -1    0    0    0  501 -0.00000000000E+00  0.00000000000E+00  0.91661758162E+02  0.91661758162E+02  0.00000000000E+00 0.  1.
          1   -1    0    0  501    0  0.00000000000E+00 -0.00000000000E+00 -0.89142275661E+02  0.89142275661E+02  0.00000000000E+00 0. -1.
         24    1    1    2    0    0 -0.19096605380E+02 -0.28017083853E+02  0.24801025160E+02  0.90730061876E+02  0.80419002446E+02 0.  1.
        -24    1    1    2    0    0  0.19096605380E+02  0.28017083853E+02 -0.22281542659E+02  0.90073971947E+02  0.80419002446E+02 0. -1.
<mgrwt>
<rscale>  0 0.87274586E+02</rscale>
<asrwt>0</asrwt>
<pdfrwt beam="1">  1        1 0.13714196E-01 0.87274586E+02</pdfrwt>
<pdfrwt beam="2">  1       -1 0.14101809E-01 0.87274586E+02</pdfrwt>
<totfact> 0.13305897E+04</totfact>
</mgrwt>
</event>
<event>
 4    1  0.1123525E-001  0.1091868E+03  0.7546771E-02  0.1262083E+00
          1   -1    0    0  501    0  0.00000000000E+00  0.00000000000E+00  0.12174013780E+04  0.12174013780E+04  0.00000000000E+00 0. -1.
         -1   -1    0    0    0  501 -0.00000000000E+00 -0.00000000000E+00 -0.11177272134E+02  0.11177272134E+02  0.00000000000E+00 0.  1.
         24    1    1    2    0    0 -0.68554881813E+02 -0.27472931599E+02  0.38691511189E+03  0.40202618516E+03  0.80419002446E+02 0.  1.
        -24    1    1    2    0    0  0.68554881813E+02  0.27472931599E+02  0.81930899398E+03  0.82655246498E+03  0.80419002446E+02 0. -1.
<mgrwt>
<rscale>  0 0.10918677E+03</rscale>
<asrwt>0</asrwt>
<pdfrwt beam="1">  1        1 0.18729242E+00 0.10918677E+03</pdfrwt>
<pdfrwt beam="2">  1       -1 0.17195813E-02 0.10918677E+03</pdfrwt>
<totfact> 0.91270951E+03</totfact>
</mgrwt>
</event>
<event>
 4    1  0.1190002E-001  0.1058317E+03  0.7546771E-02  0.1268490E+00
          1   -1    0    0  501    0  0.00000000000E+00  0.00000000000E+00  0.91080625159E+03  0.91080625159E+03  0.00000000000E+00 0. -1.
         -1   -1    0    0    0  501 -0.00000000000E+00 -0.00000000000E+00 -0.40341217811E+02  0.40341217811E+02  0.00000000000E+00 0.  1.
         24    1    1    2    0    0  0.30780715607E+02  0.61527911143E+02  0.38713885730E+02  0.11269035986E+03  0.80419002446E+02 0.  1.
        -24    1    1    2    0    0 -0.30780715607E+02 -0.61527911143E+02  0.83175114805E+03  0.83845710954E+03  0.80419002446E+02 0. -1.
<mgrwt>
<rscale>  0 0.10583172E+03</rscale>
<asrwt>0</asrwt>
<pdfrwt beam="1">  1        1 0.14012402E+00 0.10583172E+03</pdfrwt>
<pdfrwt beam="2">  1       -1 0.62063419E-02 0.10583172E+03</pdfrwt>
<totfact> 0.23329161E+03</totfact>
</mgrwt>
</event>
<event>
 4    1  0.1123525E-001  0.1389483E+03  0.7546771E-02  0.1214751E+00
          1   -1    0    0  501    0  0.00000000000E+00  0.00000000000E+00  0.19762272839E+04  0.19762272839E+04  0.00000000000E+00 0. -1.
         -1   -1    0    0    0  501 -0.00000000000E+00 -0.00000000000E+00 -0.10098200722E+02  0.10098200722E+02  0.00000000000E+00 0.  1.
         24    1    1    2    0    0  0.80617145399E+02  0.79625991856E+02  0.80386504660E+03  0.81578529762E+03  0.80419002446E+02 0.  0.
        -24    1    1    2    0    0 -0.80617145399E+02 -0.79625991856E+02  0.11622640366E+04  0.11705401870E+04  0.80419002446E+02 0. -1.
<mgrwt>
<rscale>  0 0.13894833E+03</rscale>
<asrwt>0</asrwt>
<pdfrwt beam="1">  1        1 0.30403466E+00 0.13894833E+03</pdfrwt>
<pdfrwt beam="2">  1       -1 0.15535709E-02 0.13894833E+03</pdfrwt>
<totfact> 0.34478449E+03</totfact>
</mgrwt>
</event>
<event>
 4    1  0.1123525E-001  0.1324200E+03  0.7546771E-02  0.1223908E+00
          2   -1    0    0  501    0  0.00000000000E+00  0.00000000000E+00  0.55001888048E+03  0.55001888048E+03  0.00000000000E+00 0. -1.
         -2   -1    0    0    0  501 -0.00000000000E+00 -0.00000000000E+00 -0.40830566315E+02  0.40830566315E+02  0.00000000000E+00 0.  1.
         24    1    1    2    0    0  0.10489574524E+03 -0.80456145535E+01  0.39290586852E+03  0.41462041286E+03  0.80419002446E+02 0. -1.
        -24    1    1    2    0    0 -0.10489574524E+03  0.80456145535E+01  0.11628244564E+03  0.17622903394E+03  0.80419002446E+02 0.  1.
<mgrwt>
<rscale>  0 0.13242003E+03</rscale>
<asrwt>0</asrwt>
<pdfrwt beam="1">  1        2 0.84618284E-01 0.13242003E+03</pdfrwt>
<pdfrwt beam="2">  1       -2 0.62816260E-02 0.13242003E+03</pdfrwt>
<totfact> 0.73694022E+03</totfact>
</mgrwt>
</event>
<event>
 4    1  0.1123525E-001  0.1185482E+03  0.7546771E-02  0.1245511E+00
          1   -1    0    0  501    0  0.00000000000E+00  0.00000000000E+00  0.16732750494E+03  0.16732750494E+03  0.00000000000E+00 0. -1.
         -1   -1    0    0    0  501 -0.00000000000E+00 -0.00000000000E+00 -0.10559053814E+03  0.10559053814E+03  0.00000000000E+00 0.  1.
         24    1    1    2    0    0  0.68198653144E+01  0.86832864147E+02 -0.30852368117E+02  0.12249710785E+03  0.80419002446E+02 0.  1.
        -24    1    1    2    0    0 -0.68198653144E+01 -0.86832864147E+02  0.92589334917E+02  0.15042093522E+03  0.80419002446E+02 0. -1.
<mgrwt>
<rscale>  0 0.11854819E+03</rscale>
<asrwt>0</asrwt>
<pdfrwt beam="1">  1        1 0.25742693E-01 0.11854819E+03</pdfrwt>
<pdfrwt beam="2">  1       -1 0.16244698E-01 0.11854819E+03</pdfrwt>
<totfact> 0.49374249E+03</totfact>
</mgrwt>
</event>
<event>
 4    1  0.1123525E-001  0.8771152E+02  0.7546771E-02  0.1308490E+00
          2   -1    0    0  501    0  0.00000000000E+00  0.00000000000E+00  0.31269112398E+04  0.31269112398E+04  0.00000000000E+00 0. -1.
         -2   -1    0    0    0  501 -0.00000000000E+00 -0.00000000000E+00 -0.25515072312E+01  0.25515072312E+01  0.00000000000E+00 0.  1.
         24    1    1    2    0    0 -0.15514306674E+02  0.31391100141E+02  0.18579305130E+04  0.18599997586E+04  0.80419002446E+02 0. -1.
        -24    1    1    2    0    0  0.15514306674E+02 -0.31391100141E+02  0.12664292196E+04  0.12694629885E+04  0.80419002446E+02 0.  0.
<mgrwt>
<rscale>  0 0.87711521E+02</rscale>
<asrwt>0</asrwt>
<pdfrwt beam="1">  1        2 0.48106020E+00 0.87711521E+02</pdfrwt>
<pdfrwt beam="2">  1       -2 0.39254208E-03 0.87711521E+02</pdfrwt>
<totfact> 0.14112630E+04</totfact>
</mgrwt>
</event>
<event>
 4    1  0.1347048E-001  0.9412263E+02  0.7546771E-02  0.1293164E+00
          3   -1    0    0  501    0  0.00000000000E+00  0.00000000000E+00  0.24557515350E+03  0.24557515350E+03  0.00000000000E+00 0. -1.
         -3   -1    0    0    0  501 -0.00000000000E+00 -0.00000000000E+00 -0.43824821201E+03  0.43824821201E+03  0.00000000000E+00 0.  1.
         24    1    1    2    0    0  0.17910219527E+02  0.45509095819E+02 -0.42387366919E+03  0.43419806212E+03  0.80419002446E+02 0.  1.
        -24    1    1    2    0    0 -0.17910219527E+02 -0.45509095819E+02  0.23120061067E+03  0.24962530339E+03  0.80419002446E+02 0. -1.
<mgrwt>
<rscale>  0 0.94122631E+02</rscale>
<asrwt>0</asrwt>
<pdfrwt beam="1">  1        3 0.37780793E-01 0.94122631E+02</pdfrwt>
<pdfrwt beam="2">  1       -3 0.67422802E-01 0.94122631E+02</pdfrwt>
<totfact> 0.34271371E+01</totfact>
</mgrwt>
</event>
<event>
 4    1  0.1123525E-001  0.9789877E+02  0.7546771E-02  0.1284778E+00
         -2   -1    0    0    0  501 -0.00000000000E+00  0.00000000000E+00  0.70275935976E+02  0.70275935976E+02  0.00000000000E+00 0.  1.
          2   -1    0    0  501    0  0.00000000000E+00 -0.00000000000E+00 -0.27985329580E+03  0.27985329580E+03  0.00000000000E+00 0. -1.
         24    1    1    2    0    0 -0.19333249927E+02 -0.52375355359E+02 -0.23013744899E+03  0.25009480959E+03  0.80419002446E+02 0. -1.
        -24    1    1    2    0    0  0.19333249927E+02  0.52375355359E+02  0.20560089165E+02  0.10003442219E+03  0.80419002446E+02 0.  1.
<mgrwt>
<rscale>  0 0.97898766E+02</rscale>
<asrwt>0</asrwt>
<pdfrwt beam="1">  1        2 0.43054352E-01 0.97898766E+02</pdfrwt>
<pdfrwt beam="2">  1       -2 0.10811683E-01 0.97898766E+02</pdfrwt>
<totfact> 0.64337587E+03</totfact>
</mgrwt>
</event>
<event>
 4    1  0.1123525E-001  0.1235131E+03  0.7546771E-02  0.1237411E+00
          1   -1    0    0  501    0  0.00000000000E+00  0.00000000000E+00  0.11065208471E+04  0.11065208471E+04  0.00000000000E+00 0. -1.
         -1   -1    0    0    0  501 -0.00000000000E+00 -0.00000000000E+00 -0.14688822617E+02  0.14688822617E+02  0.00000000000E+00 0.  1.
         24    1    1    2    0    0 -0.93343084481E+02  0.86801133418E+01  0.40700134639E+03  0.42532997508E+03  0.80419002446E+02 0.  1.
        -24    1    1    2    0    0  0.93343084481E+02 -0.86801133418E+01  0.68483067806E+03  0.69587969460E+03  0.80419002446E+02 0.  0.
<mgrwt>
<rscale>  0 0.12351312E+03</rscale>
<asrwt>0</asrwt>
<pdfrwt beam="1">  1        1 0.17023391E+00 0.12351312E+03</pdfrwt>
<pdfrwt beam="2">  1       -1 0.22598197E-02 0.12351312E+03</pdfrwt>
<totfact> 0.73952211E+03</totfact>
</mgrwt>
</event>
<event>
 4    1  0.1123525E-001  0.1002718E+03  0.7546771E-02  0.1279725E+00
         -3   -1    0    0    0  501 -0.00000000000E+00  0.00000000000E+00  0.20773731973E+03  0.20773731973E+03  0.00000000000E+00 0.  1.
          3   -1    0    0  501    0  0.00000000000E+00 -0.00000000000E+00 -0.58029604690E+02  0.58029604690E+02  0.00000000000E+00 0. -1.
         24    1    1    2    0    0 -0.55501906562E+02  0.22511268159E+02  0.12898609121E+03  0.16337639519E+03  0.80419002446E+02 0.  1.
        -24    1    1    2    0    0  0.55501906562E+02 -0.22511268159E+02  0.20721623825E+02  0.10239052922E+03  0.80419002446E+02 0. -1.
<mgrwt>
<rscale>  0 0.10027180E+03</rscale>
<asrwt>0</asrwt>
<pdfrwt beam="1">  1        3 0.89276316E-02 0.10027180E+03</pdfrwt>
<pdfrwt beam="2">  1       -3 0.31959587E-01 0.10027180E+03</pdfrwt>
<totfact> 0.18426396E+03</totfact>
</mgrwt>
</event>
<event>
 4    1  0.1123525E-001  0.9446781E+02  0.7546771E-02  0.1292379E+00
          1   -1    0    0  501    0  0.00000000000E+00  0.00000000000E+00  0.59825728032E+02  0.59825728032E+02  0.00000000000E+00 0. -1.
         -1   -1    0    0    0  501 -0.00000000000E+00 -0.00000000000E+00 -0.41575822572E+03  0.41575822572E+03  0.00000000000E+00 0.  1.
         24    1    1    2    0    0  0.68924514594E+01  0.49086092316E+02 -0.36837976184E+03  0.38029963875E+03  0.80419002446E+02 0.  1.
        -24    1    1    2    0    0 -0.68924514594E+01 -0.49086092316E+02  0.12447264151E+02  0.95284315001E+02  0.80419002446E+02 0. -1.
<mgrwt>
<rscale>  0 0.94467806E+02</rscale>
<asrwt>0</asrwt>
<pdfrwt beam="1">  1        1 0.92039585E-02 0.94467806E+02</pdfrwt>
<pdfrwt beam="2">  1       -1 0.63962802E-01 0.94467806E+02</pdfrwt>
<totfact> 0.17660194E+03</totfact>
</mgrwt>
</event>
<event>
 4    1  0.1123525E-001  0.1776154E+03  0.7546771E-02  0.1170131E+00
          1   -1    0    0  501    0  0.00000000000E+00  0.00000000000E+00  0.23645125691E+03  0.23645125691E+03  0.00000000000E+00 0. -1.
         -1   -1    0    0    0  501 -0.00000000000E+00 -0.00000000000E+00 -0.13342175812E+03  0.13342175812E+03  0.00000000000E+00 0.  1.
         24    1    1    2    0    0 -0.11892503795E+03  0.10457937233E+03  0.52263178304E+02  0.18514498516E+03  0.80419002446E+02 0.  1.
        -24    1    1    2    0    0  0.11892503795E+03 -0.10457937233E+03  0.50766320492E+02  0.18472802987E+03  0.80419002446E+02 0. -1.
<mgrwt>
<rscale>  0 0.17761541E+03</rscale>
<asrwt>0</asrwt>
<pdfrwt beam="1">  1        1 0.36377116E-01 0.17761543E+03</pdfrwt>
<pdfrwt beam="2">  1       -1 0.20526424E-01 0.17761543E+03</pdfrwt>
<totfact> 0.22533600E+03</totfact>
</mgrwt>
</event>
<event>
 4    1  0.1123525E-001  0.1621555E+03  0.7546771E-02  0.1186285E+00
          2   -1    0    0  501    0  0.00000000000E+00  0.00000000000E+00  0.26336344656E+04  0.26336344656E+04  0.00000000000E+00 0. -1.
         -2   -1    0    0    0  501 -0.00000000000E+00 -0.00000000000E+00 -0.10948896297E+02  0.10948896297E+02  0.00000000000E+00 0.  1.
         24    1    1    2    0    0 -0.14033657706E+03  0.11524902310E+02  0.17038669291E+04  0.17115656301E+04  0.80419002446E+02 0. -1.
        -24    1    1    2    0    0  0.14033657706E+03 -0.11524902310E+02  0.91881864017E+03  0.93301773173E+03  0.80419002446E+02 0.  1.
<mgrwt>
<rscale>  0 0.16215546E+03</rscale>
<asrwt>0</asrwt>
<pdfrwt beam="1">  1        2 0.40517403E+00 0.16215546E+03</pdfrwt>
<pdfrwt beam="2">  1       -2 0.16844477E-02 0.16215546E+03</pdfrwt>
<totfact> 0.33911188E+03</totfact>
</mgrwt>
</event>
<event>
 4    1  0.1123525E-001  0.9492234E+02  0.7546771E-02  0.1291351E+00
         -1   -1    0    0    0  501 -0.00000000000E+00  0.00000000000E+00  0.61293535457E+01  0.61293535457E+01  0.00000000000E+00 0.  1.
          1   -1    0    0  501    0  0.00000000000E+00 -0.00000000000E+00 -0.14747269459E+04  0.14747269459E+04  0.00000000000E+00 0. -1.
         24    1    1    2    0    0  0.49177855362E+02  0.11161002577E+02 -0.77614915141E+03  0.78193206267E+03  0.80419002446E+02 0.  0.
        -24    1    1    2    0    0 -0.49177855362E+02 -0.11161002577E+02 -0.69244844090E+03  0.69892423673E+03  0.80419002446E+02 0. -1.
<mgrwt>
<rscale>  0 0.94922324E+02</rscale>
<asrwt>0</asrwt>
<pdfrwt beam="1">  1        1 0.22688115E+00 0.94922336E+02</pdfrwt>
<pdfrwt beam="2">  1       -1 0.94297715E-03 0.94922336E+02</pdfrwt>
<totfact> 0.14397628E+04</totfact>
</mgrwt>
</event>
<event>
 4    1  0.1123525E-001  0.1914214E+03  0.7546771E-02  0.1157186E+00
          1   -1    0    0  501    0  0.00000000000E+00  0.00000000000E+00  0.22961242723E+03  0.22961242723E+03  0.00000000000E+00 0. -1.
         -1   -1    0    0    0  501 -0.00000000000E+00 -0.00000000000E+00 -0.17733821381E+03  0.17733821381E+03  0.00000000000E+00 0.  1.
         24    1    1    2    0    0 -0.17280230932E+03 -0.17727988284E+02  0.90521274636E+02  0.21174568895E+03  0.80419002446E+02 0. -1.
        -24    1    1    2    0    0  0.17280230932E+03  0.17727988284E+02 -0.38247061221E+02  0.19520495209E+03  0.80419002446E+02 0.  1.
<mgrwt>
<rscale>  0 0.19142138E+03</rscale>
<asrwt>0</asrwt>
<pdfrwt beam="1">  1        1 0.35324989E-01 0.19142140E+03</pdfrwt>
<pdfrwt beam="2">  1       -1 0.27282802E-01 0.19142140E+03</pdfrwt>
<totfact> 0.14665904E+03</totfact>
</mgrwt>
</event>
<event>
 4    1  0.1123525E-001  0.8673733E+02  0.7546771E-02  0.1310951E+00
          2   -1    0    0  501    0  0.00000000000E+00  0.00000000000E+00  0.20130171365E+03  0.20130171365E+03  0.00000000000E+00 0. -1.
         -2   -1    0    0    0  501 -0.00000000000E+00 -0.00000000000E+00 -0.38607788020E+02  0.38607788020E+02  0.00000000000E+00 0.  1.
         24    1    1    2    0    0 -0.32493999479E+02 -0.53708951554E+00  0.10279439441E+03  0.13449926373E+03  0.80419002446E+02 0.  1.
        -24    1    1    2    0    0  0.32493999479E+02  0.53708951554E+00  0.59899531213E+02  0.10541023793E+03  0.80419002446E+02 0.  0.
<mgrwt>
<rscale>  0 0.86737330E+02</rscale>
<asrwt>0</asrwt>
<pdfrwt beam="1">  1        2 0.30969494E-01 0.86737330E+02</pdfrwt>
<pdfrwt beam="2">  1       -2 0.59396598E-02 0.86737330E+02</pdfrwt>
<totfact> 0.22527090E+04</totfact>
</mgrwt>
</event>
<event>
 4    1  0.1123525E-001  0.1056939E+03  0.7546771E-02  0.1268759E+00
          1   -1    0    0  501    0  0.00000000000E+00  0.00000000000E+00  0.10046443995E+04  0.10046443995E+04  0.00000000000E+00 0. -1.
         -1   -1    0    0    0  501 -0.00000000000E+00 -0.00000000000E+00 -0.15075013162E+02  0.15075013162E+02  0.00000000000E+00 0.  1.
         24    1    1    2    0    0  0.35054504479E+02 -0.58950510358E+02  0.23361646993E+03  0.25641343945E+03  0.80419002446E+02 0.  1.
        -24    1    1    2    0    0 -0.35054504479E+02  0.58950510358E+02  0.75595291641E+03  0.76330597321E+03  0.80419002446E+02 0. -1.
<mgrwt>
<rscale>  0 0.10569388E+03</rscale>
<asrwt>0</asrwt>
<pdfrwt beam="1">  1        1 0.15456062E+00 0.10569388E+03</pdfrwt>
<pdfrwt beam="2">  1       -1 0.23192336E-02 0.10569388E+03</pdfrwt>
<totfact> 0.83463622E+03</totfact>
</mgrwt>
</event>
<event>
 4    1  0.1123525E-001  0.8300971E+02  0.7546771E-02  0.1320721E+00
          1   -1    0    0  501    0  0.00000000000E+00  0.00000000000E+00  0.63323324169E+03  0.63323324169E+03  0.00000000000E+00 0. -1.
         -1   -1    0    0    0  501 -0.00000000000E+00 -0.00000000000E+00 -0.15614906724E+02  0.15614906724E+02  0.00000000000E+00 0.  1.
         24    1    1    2    0    0  0.12693420791E+02 -0.16194841156E+02  0.13019159404E+03  0.15440357160E+03  0.80419002446E+02 0.  1.
        -24    1    1    2    0    0 -0.12693420791E+02  0.16194841156E+02  0.48742674093E+03  0.49444457681E+03  0.80419002446E+02 0.  0.
<mgrwt>
<rscale>  0 0.83009709E+02</rscale>
<asrwt>0</asrwt>
<pdfrwt beam="1">  1        1 0.97420479E-01 0.83009709E+02</pdfrwt>
<pdfrwt beam="2">  1       -1 0.24022938E-02 0.83009709E+02</pdfrwt>
<totfact> 0.15517271E+04</totfact>
</mgrwt>
</event>
<event>
 4    1  0.1123525E-001  0.1302590E+03  0.7546771E-02  0.1227072E+00
          2   -1    0    0  501    0  0.00000000000E+00  0.00000000000E+00  0.22890757609E+04  0.22890757609E+04  0.00000000000E+00 0. -1.
         -2   -1    0    0    0  501 -0.00000000000E+00 -0.00000000000E+00 -0.13118984804E+02  0.13118984804E+02  0.00000000000E+00 0.  1.
         24    1    1    2    0    0  0.10069795525E+03 -0.18976498814E+02  0.18971718716E+04  0.19016383757E+04  0.80419002446E+02 0. -1.
        -24    1    1    2    0    0 -0.10069795525E+03  0.18976498814E+02  0.37878490449E+03  0.40055636997E+03  0.80419002446E+02 0.  1.
<mgrwt>
<rscale>  0 0.13025898E+03</rscale>
<asrwt>0</asrwt>
<pdfrwt beam="1">  1        2 0.35216519E+00 0.13025898E+03</pdfrwt>
<pdfrwt beam="2">  1       -2 0.20183072E-02 0.13025898E+03</pdfrwt>
<totfact> 0.39859348E+03</totfact>
</mgrwt>
</event>
<event>
 4    1  0.1123525E-001  0.1045873E+03  0.7546771E-02  0.1270935E+00
          2   -1    0    0  501    0  0.00000000000E+00  0.00000000000E+00  0.18770864804E+04  0.18770864804E+04  0.00000000000E+00 0. -1.
         -2   -1    0    0    0  501 -0.00000000000E+00 -0.00000000000E+00 -0.62837353443E+01  0.62837353443E+01  0.00000000000E+00 0.  1.
         24    1    1    2    0    0  0.32037778834E+02 -0.58693054328E+02  0.11891740564E+04  0.11937644015E+04  0.80419002446E+02 0. -1.
        -24    1    1    2    0    0 -0.32037778834E+02  0.58693054328E+02  0.68162868868E+03  0.68960581427E+03  0.80419002446E+02 0.  1.
<mgrwt>
<rscale>  0 0.10458733E+03</rscale>
<asrwt>0</asrwt>
<pdfrwt beam="1">  1        2 0.28878209E+00 0.10458733E+03</pdfrwt>
<pdfrwt beam="2">  1       -2 0.96673001E-03 0.10458733E+03</pdfrwt>
<totfact> 0.18490779E+04</totfact>
</mgrwt>
</event>
<event>
 4    1  0.1123525E-001  0.1101909E+03  0.7546771E-02  0.1260217E+00
          3   -1    0    0  501    0  0.00000000000E+00  0.00000000000E+00  0.94200381349E+03  0.94200381349E+03  0.00000000000E+00 0. -1.
         -3   -1    0    0    0  501 -0.00000000000E+00 -0.00000000000E+00 -0.17458304332E+02  0.17458304332E+02  0.00000000000E+00 0.  1.
         24    1    1    2    0    0 -0.36192160017E+02  0.66067799740E+02  0.21686186636E+03  0.24325112876E+03  0.80419002446E+02 0.  1.
        -24    1    1    2    0    0  0.36192160017E+02 -0.66067799740E+02  0.70768364280E+03  0.71621098906E+03  0.80419002446E+02 0. -1.
<mgrwt>
<rscale>  0 0.11019094E+03</rscale>
<asrwt>0</asrwt>
<pdfrwt beam="1">  1        3 0.14492362E+00 0.11019094E+03</pdfrwt>
<pdfrwt beam="2">  1       -3 0.26858937E-02 0.11019094E+03</pdfrwt>
<totfact> 0.51114080E+02</totfact>
</mgrwt>
</event>
<event>
 4    1  0.1123525E-001  0.9550609E+02  0.7546771E-02  0.1290040E+00
          1   -1    0    0  501    0  0.00000000000E+00  0.00000000000E+00  0.17893409799E+02  0.17893409799E+02  0.00000000000E+00 0. -1.
         -1   -1    0    0    0  501 -0.00000000000E+00 -0.00000000000E+00 -0.52929562413E+03  0.52929562413E+03  0.00000000000E+00 0.  1.
         24    1    1    2    0    0 -0.16678847276E+02 -0.48744357931E+02 -0.30825801326E+03  0.32271413832E+03  0.80419002446E+02 0. -1.
        -24    1    1    2    0    0  0.16678847276E+02  0.48744357931E+02 -0.20314420106E+03  0.22447489560E+03  0.80419002446E+02 0.  0.
<mgrwt>
<rscale>  0 0.95506085E+02</rscale>
<asrwt>0</asrwt>
<pdfrwt beam="1">  1        1 0.27528329E-02 0.95506085E+02</pdfrwt>
<pdfrwt beam="2">  1       -1 0.81430078E-01 0.95506085E+02</pdfrwt>
<totfact> 0.55984735E+03</totfact>
</mgrwt>
</event>
<event>
 4    1  0.1123525E-001  0.1194130E+03  0.7546771E-02  0.1244069E+00
         -2   -1    0    0    0  501 -0.00000000000E+00  0.00000000000E+00  0.16350716747E+03  0.16350716747E+03  0.00000000000E+00 0.  1.
          2   -1    0    0  501    0  0.00000000000E+00 -0.00000000000E+00 -0.59279520011E+03  0.59279520011E+03  0.00000000000E+00 0. -1.
         24    1    1    2    0    0 -0.60388712886E+02  0.64385141691E+02 -0.56387301916E+03  0.57637855686E+03  0.80419002446E+02 0. -1.
        -24    1    1    2    0    0  0.60388712886E+02 -0.64385141691E+02  0.13458498652E+03  0.17992381073E+03  0.80419002446E+02 0.  1.
<mgrwt>
<rscale>  0 0.11941298E+03</rscale>
<asrwt>0</asrwt>
<pdfrwt beam="1">  1        2 0.91199262E-01 0.11941298E+03</pdfrwt>
<pdfrwt beam="2">  1       -2 0.25154949E-01 0.11941298E+03</pdfrwt>
<totfact> 0.72228202E+02</totfact>
</mgrwt>
</event>
<event>
 4    1  0.1123525E-001  0.9667008E+02  0.7546771E-02  0.1287458E+00
          1   -1    0    0  501    0  0.00000000000E+00  0.00000000000E+00  0.92315238886E+03  0.92315238886E+03  0.00000000000E+00 0. -1.
         -1   -1    0    0    0  501 -0.00000000000E+00 -0.00000000000E+00 -0.16750754342E+02  0.16750754342E+02  0.00000000000E+00 0.  1.
         24    1    1    2    0    0 -0.25065170820E+02  0.47430223170E+02  0.15759161775E+03  0.18487894093E+03  0.80419002446E+02 0.  1.
        -24    1    1    2    0    0  0.25065170820E+02 -0.47430223170E+02  0.74881001677E+03  0.75502420228E+03  0.80419002446E+02 0. -1.
<mgrwt>
<rscale>  0 0.96670082E+02</rscale>
<asrwt>0</asrwt>
<pdfrwt beam="1">  1        1 0.14202340E+00 0.96670082E+02</pdfrwt>
<pdfrwt beam="2">  1       -1 0.25770399E-02 0.96670082E+02</pdfrwt>
<totfact> 0.81894383E+03</totfact>
</mgrwt>
</event>
<event>
 4    1  0.1123525E-001  0.2010864E+03  0.7546771E-02  0.1148826E+00
         -4   -1    0    0    0  501 -0.00000000000E+00  0.00000000000E+00  0.53126997511E+03  0.53126997511E+03  0.00000000000E+00 0.  1.
          4   -1    0    0  501    0  0.00000000000E+00 -0.00000000000E+00 -0.11425395426E+03  0.11425395426E+03  0.00000000000E+00 0. -1.
         24    1    1    2    0    0 -0.68174920687E+02 -0.17123290299E+03  0.22019888669E+02  0.20228845328E+03  0.80419002446E+02 0. -1.
        -24    1    1    2    0    0  0.68174920687E+02  0.17123290299E+03  0.39499613218E+03  0.44323547609E+03  0.80419002446E+02 0.  1.
<mgrwt>
<rscale>  0 0.20108641E+03</rscale>
<asrwt>0</asrwt>
<pdfrwt beam="1">  1        4 0.17577532E-01 0.20108641E+03</pdfrwt>
<pdfrwt beam="2">  1       -4 0.81733841E-01 0.20108641E+03</pdfrwt>
<totfact> 0.68535899E+01</totfact>
</mgrwt>
</event>
<event>
 4    1  0.1123525E-001  0.1067896E+03  0.7546771E-02  0.1266633E+00
         -2   -1    0    0    0  501 -0.00000000000E+00  0.00000000000E+00  0.26789341364E+02  0.26789341364E+02  0.00000000000E+00 0.  1.
          2   -1    0    0  501    0  0.00000000000E+00 -0.00000000000E+00 -0.47183721837E+03  0.47183721837E+03  0.00000000000E+00 0. -1.
         24    1    1    2    0    0  0.24321879866E+02  0.65918446230E+02 -0.30049117348E+03  0.31890273861E+03  0.80419002446E+02 0. -1.
        -24    1    1    2    0    0 -0.24321879866E+02 -0.65918446230E+02 -0.14455670352E+03  0.17972382112E+03  0.80419002446E+02 0.  1.
<mgrwt>
<rscale>  0 0.10678957E+03</rscale>
<asrwt>0</asrwt>
<pdfrwt beam="1">  1        2 0.72590336E-01 0.10678957E+03</pdfrwt>
<pdfrwt beam="2">  1       -2 0.41214375E-02 0.10678957E+03</pdfrwt>
<totfact> 0.16130404E+04</totfact>
</mgrwt>
</event>
<event>
 4    1  0.1123525E-001  0.8329917E+02  0.7546771E-02  0.1319941E+00
         -1   -1    0    0    0  501 -0.00000000000E+00  0.00000000000E+00  0.80530863519E+01  0.80530863519E+01  0.00000000000E+00 0.  1.
          1   -1    0    0  501    0  0.00000000000E+00 -0.00000000000E+00 -0.98162190227E+03  0.98162190227E+03  0.00000000000E+00 0. -1.
         24    1    1    2    0    0 -0.12147025032E+02 -0.17999599866E+02 -0.31377370486E+03  0.32464240270E+03  0.80419002446E+02 0.  0.
        -24    1    1    2    0    0  0.12147025032E+02  0.17999599866E+02 -0.65979511106E+03  0.66503258593E+03  0.80419002446E+02 0.  0.
<mgrwt>
<rscale>  0 0.83299170E+02</rscale>
<asrwt>0</asrwt>
<pdfrwt beam="1">  1        1 0.15101876E+00 0.83299170E+02</pdfrwt>
<pdfrwt beam="2">  1       -1 0.12389363E-02 0.83299170E+02</pdfrwt>
<totfact> 0.20798228E+04</totfact>
</mgrwt>
</event>
<event>
 4    1  0.1123525E-001  0.9980090E+02  0.7546771E-02  0.1280715E+00
          1   -1    0    0  501    0  0.00000000000E+00  0.00000000000E+00  0.80126255537E+03  0.80126255537E+03  0.00000000000E+00 0. -1.
         -1   -1    0    0    0  501 -0.00000000000E+00 -0.00000000000E+00 -0.12732384407E+02  0.12732384407E+02  0.00000000000E+00 0.  1.
         24    1    1    2    0    0 -0.15588773432E+02 -0.57008668965E+02  0.45691918140E+03  0.46769151422E+03  0.80419002446E+02 0. -1.
        -24    1    1    2    0    0  0.15588773432E+02  0.57008668965E+02  0.33161098957E+03  0.34630342555E+03  0.80419002446E+02 0.  1.
<mgrwt>
<rscale>  0 0.99800885E+02</rscale>
<asrwt>0</asrwt>
<pdfrwt beam="1">  1        1 0.12327112E+00 0.99800897E+02</pdfrwt>
<pdfrwt beam="2">  1       -1 0.19588290E-02 0.99800897E+02</pdfrwt>
<totfact> 0.15122249E+04</totfact>
</mgrwt>
</event>
<event>
 4    1  0.1123525E-001  0.1012592E+03  0.7546771E-02  0.1277670E+00
         -2   -1    0    0    0  501 -0.00000000000E+00  0.00000000000E+00  0.19002520698E+03  0.19002520698E+03  0.00000000000E+00 0.  1.
          2   -1    0    0  501    0  0.00000000000E+00 -0.00000000000E+00 -0.41408898267E+03  0.41408898267E+03  0.00000000000E+00 0. -1.
         24    1    1    2    0    0  0.53853567438E+02  0.29765898625E+02 -0.39372244156E+03  0.40653510597E+03  0.80419002446E+02 0. -1.
        -24    1    1    2    0    0 -0.53853567438E+02 -0.29765898625E+02  0.16965866587E+03  0.19757908367E+03  0.80419002446E+02 0.  1.
<mgrwt>
<rscale>  0 0.10125923E+03</rscale>
<asrwt>0</asrwt>
<pdfrwt beam="1">  1        2 0.63705997E-01 0.10125923E+03</pdfrwt>
<pdfrwt beam="2">  1       -2 0.29234648E-01 0.10125923E+03</pdfrwt>
<totfact> 0.81814861E+02</totfact>
</mgrwt>
</event>
<event>
 4    1  0.1123525E-001  0.9234602E+02  0.7546771E-02  0.1297268E+00
          3   -1    0    0  501    0  0.00000000000E+00  0.00000000000E+00  0.77110431247E+03  0.77110431247E+03  0.00000000000E+00 0. -1.
         -3   -1    0    0    0  501 -0.00000000000E+00 -0.00000000000E+00 -0.59551833263E+02  0.59551833263E+02  0.00000000000E+00 0.  1.
         24    1    1    2    0    0 -0.17831517380E+02  0.41744561457E+02 -0.19008291933E+02  0.94282037207E+02  0.80419002446E+02 0.  1.
        -24    1    1    2    0    0  0.17831517380E+02 -0.41744561457E+02  0.73056077114E+03  0.73637410853E+03  0.80419002446E+02 0. -1.
<mgrwt>
<rscale>  0 0.92346020E+02</rscale>
<asrwt>0</asrwt>
<pdfrwt beam="1">  1        3 0.11863143E+00 0.92346020E+02</pdfrwt>
<pdfrwt beam="2">  1       -3 0.91618210E-02 0.92346020E+02</pdfrwt>
<totfact> 0.11650078E+02</totfact>
</mgrwt>
</event>
<event>
 4    1  0.1123525E-001  0.9090633E+02  0.7546771E-02  0.1300672E+00
          1   -1    0    0  501    0  0.00000000000E+00  0.00000000000E+00  0.51701547172E+03  0.51701547172E+03  0.00000000000E+00 0. -1.
         -1   -1    0    0    0  501 -0.00000000000E+00 -0.00000000000E+00 -0.20879827520E+02  0.20879827520E+02  0.00000000000E+00 0.  1.
         24    1    1    2    0    0 -0.32501093352E+02  0.27210736468E+02  0.11783556610E+03  0.14882601198E+03  0.80419002446E+02 0.  1.
        -24    1    1    2    0    0  0.32501093352E+02 -0.27210736468E+02  0.37830007810E+03  0.38906928726E+03  0.80419002446E+02 0. -1.
<mgrwt>
<rscale>  0 0.90906332E+02</rscale>
<asrwt>0</asrwt>
<pdfrwt beam="1">  1        1 0.79540832E-01 0.90906332E+02</pdfrwt>
<pdfrwt beam="2">  1       -1 0.32122816E-02 0.90906332E+02</pdfrwt>
<totfact> 0.13480757E+04</totfact>
</mgrwt>
</event>
<event>
 4    1  0.1123525E-001  0.9051855E+02  0.7546771E-02  0.1301601E+00
         -2   -1    0    0    0  501 -0.00000000000E+00  0.00000000000E+00  0.24725110016E+02  0.24725110016E+02  0.00000000000E+00 0.  1.
          2   -1    0    0  501    0  0.00000000000E+00 -0.00000000000E+00 -0.26403400110E+04  0.26403400110E+04  0.00000000000E+00 0. -1.
         24    1    1    2    0    0  0.21223445147E+02  0.35720546561E+02 -0.25539144695E+04  0.25555180933E+04  0.80419002446E+02 0. -1.
        -24    1    1    2    0    0 -0.21223445147E+02 -0.35720546561E+02 -0.61700431531E+02  0.10954702769E+03  0.80419002446E+02 0.  1.
<mgrwt>
<rscale>  0 0.90518551E+02</rscale>
<asrwt>0</asrwt>
<pdfrwt beam="1">  1        2 0.40620585E+00 0.90518551E+02</pdfrwt>
<pdfrwt beam="2">  1       -2 0.38038660E-02 0.90518551E+02</pdfrwt>
<totfact> 0.10392081E+03</totfact>
</mgrwt>
</event>
<event>
 4    1  0.1123525E-001  0.9406175E+02  0.7546771E-02  0.1293303E+00
          2   -1    0    0  501    0  0.00000000000E+00  0.00000000000E+00  0.49442595641E+03  0.49442595641E+03  0.00000000000E+00 0. -1.
         -2   -1    0    0    0  501 -0.00000000000E+00 -0.00000000000E+00 -0.21604797200E+02  0.21604797200E+02  0.00000000000E+00 0.  1.
         24    1    1    2    0    0  0.41348659070E+02  0.25897586708E+02  0.34333136545E+03  0.35598320053E+03  0.80419002446E+02 0. -1.
        -24    1    1    2    0    0 -0.41348659070E+02 -0.25897586708E+02  0.12948979376E+03  0.16004755308E+03  0.80419002446E+02 0.  1.
<mgrwt>
<rscale>  0 0.94061749E+02</rscale>
<asrwt>0</asrwt>
<pdfrwt beam="1">  1        2 0.76065523E-01 0.94061749E+02</pdfrwt>
<pdfrwt beam="2">  1       -2 0.33238153E-02 0.94061749E+02</pdfrwt>
<totfact> 0.20787886E+04</totfact>
</mgrwt>
</event>
<event>
 4    1  0.1123525E-001  0.9987687E+02  0.7546771E-02  0.1280555E+00
         -2   -1    0    0    0  501 -0.00000000000E+00  0.00000000000E+00  0.71143593563E+01  0.71143593563E+01  0.00000000000E+00 0.  1.
          2   -1    0    0  501    0  0.00000000000E+00 -0.00000000000E+00 -0.16204067762E+04  0.16204067762E+04  0.00000000000E+00 0. -1.
         24    1    1    2    0    0 -0.49503763811E+02  0.32520017266E+02 -0.11053011628E+04  0.11098045101E+04  0.80419002446E+02 0.  1.
        -24    1    1    2    0    0  0.49503763811E+02 -0.32520017266E+02 -0.50799125404E+03  0.51771662547E+03  0.80419002446E+02 0. -1.
<mgrwt>
<rscale>  0 0.99876875E+02</rscale>
<asrwt>0</asrwt>
<pdfrwt beam="1">  1        2 0.24929337E+00 0.99876875E+02</pdfrwt>
<pdfrwt beam="2">  1       -2 0.10945167E-02 0.99876875E+02</pdfrwt>
<totfact> 0.20834129E+04</totfact>
</mgrwt>
</event>
<event>
 4    1  0.1123525E-001  0.1196325E+03  0.7546771E-02  0.1243705E+00
          2   -1    0    0  501    0  0.00000000000E+00  0.00000000000E+00  0.37244559705E+04  0.37244559705E+04  0.00000000000E+00 0. -1.
         -2   -1    0    0    0  501 -0.00000000000E+00 -0.00000000000E+00 -0.74881747914E+01  0.74881747914E+01  0.00000000000E+00 0.  1.
         24    1    1    2    0    0 -0.23434055785E+01 -0.88539440944E+02  0.31604348754E+04  0.31626983008E+04  0.80419002446E+02 0. -1.
        -24    1    1    2    0    0  0.23434055785E+01  0.88539440944E+02  0.55653292028E+03  0.56924584449E+03  0.80419002446E+02 0.  1.
<mgrwt>
<rscale>  0 0.11963252E+03</rscale>
<asrwt>0</asrwt>
<pdfrwt beam="1">  1        2 0.57299175E+00 0.11963252E+03</pdfrwt>
<pdfrwt beam="2">  1       -2 0.11520299E-02 0.11963252E+03</pdfrwt>
<totfact> 0.12919933E+03</totfact>
</mgrwt>
</event>
<event>
 4    1  0.1123525E-001  0.8209902E+02  0.7546771E-02  0.1323198E+00
         -4   -1    0    0    0  501 -0.00000000000E+00  0.00000000000E+00  0.11757773072E+03  0.11757773072E+03  0.00000000000E+00 0.  1.
          4   -1    0    0  501    0  0.00000000000E+00 -0.00000000000E+00 -0.59329835339E+02  0.59329835339E+02  0.00000000000E+00 0. -1.
         24    1    1    2    0    0  0.16504098081E+02  0.80490225652E+00  0.12867642723E+02  0.83101295446E+02  0.80419002446E+02 0. -1.
        -24    1    1    2    0    0 -0.16504098081E+02 -0.80490225652E+00  0.45380252663E+02  0.93806270618E+02  0.80419002446E+02 0.  0.
<mgrwt>
<rscale>  0 0.82099020E+02</rscale>
<asrwt>0</asrwt>
<pdfrwt beam="1">  1        4 0.91276670E-02 0.82099020E+02</pdfrwt>
<pdfrwt beam="2">  1       -4 0.18088882E-01 0.82099020E+02</pdfrwt>
<totfact> 0.34326281E+03</totfact>
</mgrwt>
</event>
<event>
 4    1  0.1123525E-001  0.1086032E+03  0.7546771E-02  0.1263179E+00
          1   -1    0    0  501    0  0.00000000000E+00  0.00000000000E+00  0.10582797558E+04  0.10582797558E+04  0.00000000000E+00 0. -1.
         -1   -1    0    0    0  501 -0.00000000000E+00 -0.00000000000E+00 -0.12235812922E+02  0.12235812922E+02  0.00000000000E+00 0.  1.
         24    1    1    2    0    0 -0.71429197727E+02 -0.15010561793E+02  0.36321480276E+03  0.37910375381E+03  0.80419002446E+02 0.  1.
        -24    1    1    2    0    0  0.71429197727E+02  0.15010561793E+02  0.68282914013E+03  0.69141181493E+03  0.80419002446E+02 0. -1.
<mgrwt>
<rscale>  0 0.10860324E+03</rscale>
<asrwt>0</asrwt>
<pdfrwt beam="1">  1        1 0.16281220E+00 0.10860324E+03</pdfrwt>
<pdfrwt beam="2">  1       -1 0.18824336E-02 0.10860324E+03</pdfrwt>
<totfact> 0.10324200E+04</totfact>
</mgrwt>
</event>
<event>
 4    1  0.1123525E-001  0.1001521E+03  0.7546771E-02  0.1279976E+00
         -1   -1    0    0    0  501 -0.00000000000E+00  0.00000000000E+00  0.54571161065E+02  0.54571161065E+02  0.00000000000E+00 0.  1.
          1   -1    0    0  501    0  0.00000000000E+00 -0.00000000000E+00 -0.20699084324E+03  0.20699084324E+03  0.00000000000E+00 0. -1.
         24    1    1    2    0    0 -0.18657577849E+02  0.56702095640E+02 -0.32439378875E+02  0.10527469837E+03  0.80419002446E+02 0.  1.
        -24    1    1    2    0    0  0.18657577849E+02 -0.56702095640E+02 -0.11998030330E+03  0.15628730593E+03  0.80419002446E+02 0.  0.
<mgrwt>
<rscale>  0 0.10015213E+03</rscale>
<asrwt>0</asrwt>
<pdfrwt beam="1">  1        1 0.31844745E-01 0.10015213E+03</pdfrwt>
<pdfrwt beam="2">  1       -1 0.83955632E-02 0.10015213E+03</pdfrwt>
<totfact> 0.10302593E+04</totfact>
</mgrwt>
</event>
<event>
 4    1  0.1123525E-001  0.8866040E+02  0.7546771E-02  0.1306129E+00
         -2   -1    0    0    0  501 -0.00000000000E+00  0.00000000000E+00  0.27995196815E+02  0.27995196815E+02  0.00000000000E+00 0.  1.
          2   -1    0    0  501    0  0.00000000000E+00 -0.00000000000E+00 -0.35959556046E+03  0.35959556046E+03  0.00000000000E+00 0. -1.
         24    1    1    2    0    0 -0.19850676358E+02 -0.31613299997E+02 -0.25652477887E+03  0.27141412678E+03  0.80419002446E+02 0.  0.
        -24    1    1    2    0    0  0.19850676358E+02  0.31613299997E+02 -0.75075584773E+02  0.11617663049E+03  0.80419002446E+02 0. -1.
<mgrwt>
<rscale>  0 0.88660397E+02</rscale>
<asrwt>0</asrwt>
<pdfrwt beam="1">  1        2 0.55322392E-01 0.88660397E+02</pdfrwt>
<pdfrwt beam="2">  1       -2 0.43069535E-02 0.88660397E+02</pdfrwt>
<totfact> 0.19799421E+04</totfact>
</mgrwt>
</event>
<event>
 4    1  0.1123525E-001  0.9179940E+02  0.7546771E-02  0.1298552E+00
         -2   -1    0    0    0  501 -0.00000000000E+00  0.00000000000E+00  0.50541764880E+01  0.50541764880E+01  0.00000000000E+00 0.  1.
          2   -1    0    0  501    0  0.00000000000E+00 -0.00000000000E+00 -0.18086953685E+04  0.18086953685E+04  0.00000000000E+00 0. -1.
         24    1    1    2    0    0 -0.20713269081E+02 -0.39126386385E+02 -0.11553280198E+04  0.11589693537E+04  0.80419002446E+02 0.  0.
        -24    1    1    2    0    0  0.20713269081E+02  0.39126386385E+02 -0.64831317218E+03  0.65478019122E+03  0.80419002446E+02 0. -1.
<mgrwt>
<rscale>  0 0.91799399E+02</rscale>
<asrwt>0</asrwt>
<pdfrwt beam="1">  1        2 0.27826097E+00 0.91799399E+02</pdfrwt>
<pdfrwt beam="2">  1       -2 0.77756522E-03 0.91799399E+02</pdfrwt>
<totfact> 0.27010495E+04</totfact>
</mgrwt>
</event>
<event>
 4    1  0.1123525E-001  0.1025781E+03  0.7546771E-02  0.1274966E+00
         -1   -1    0    0    0  501 -0.00000000000E+00  0.00000000000E+00  0.10754348614E+03  0.10754348614E+03  0.00000000000E+00 0.  1.
          1   -1    0    0  501    0  0.00000000000E+00 -0.00000000000E+00 -0.10853340388E+03  0.10853340388E+03  0.00000000000E+00 0. -1.
         24    1    1    2    0    0  0.25488231376E+02  0.58355863614E+02  0.33413919573E+02  0.10788309753E+03  0.80419002446E+02 0. -1.
        -24    1    1    2    0    0 -0.25488231376E+02 -0.58355863614E+02 -0.34403837322E+02  0.10819379249E+03  0.80419002446E+02 0.  1.
<mgrwt>
<rscale>  0 0.10257813E+03</rscale>
<asrwt>0</asrwt>
<pdfrwt beam="1">  1        1 0.16697447E-01 0.10257813E+03</pdfrwt>
<pdfrwt beam="2">  1       -1 0.16545152E-01 0.10257813E+03</pdfrwt>
<totfact> 0.81920387E+03</totfact>
</mgrwt>
</event>
<event>
 4    1  0.1123525E-001  0.1160791E+03  0.7546771E-02  0.1249709E+00
         -2   -1    0    0    0  501 -0.00000000000E+00  0.00000000000E+00  0.60918299144E+01  0.60918299144E+01  0.00000000000E+00 0.  1.
          2   -1    0    0  501    0  0.00000000000E+00 -0.00000000000E+00 -0.24808710159E+04  0.24808710159E+04  0.00000000000E+00 0. -1.
         24    1    1    2    0    0  0.73877839115E+02 -0.39359924029E+02 -0.16468497707E+04  0.16509356504E+04  0.80419002446E+02 0. -1.
        -24    1    1    2    0    0 -0.73877839115E+02  0.39359924029E+02 -0.82792941526E+03  0.83602719534E+03  0.80419002446E+02 0.  1.
<mgrwt>
<rscale>  0 0.11607909E+03</rscale>
<asrwt>0</asrwt>
<pdfrwt beam="1">  1        2 0.38167276E+00 0.11607909E+03</pdfrwt>
<pdfrwt beam="2">  1       -2 0.93720388E-03 0.11607909E+03</pdfrwt>
<totfact> 0.94987420E+03</totfact>
</mgrwt>
</event>
<event>
 4    1  0.1123525E-001  0.8713170E+02  0.7546771E-02  0.1309950E+00
         -2   -1    0    0    0  501 -0.00000000000E+00  0.00000000000E+00  0.22586124598E+03  0.22586124598E+03  0.00000000000E+00 0.  1.
          2   -1    0    0  501    0  0.00000000000E+00 -0.00000000000E+00 -0.70647520943E+02  0.70647520943E+02  0.00000000000E+00 0. -1.
         24    1    1    2    0    0  0.22919510302E+02 -0.24482934725E+02 -0.29732964054E+02  0.92065102786E+02  0.80419002446E+02 0. -1.
        -24    1    1    2    0    0 -0.22919510302E+02  0.24482934725E+02  0.18494668909E+03  0.20444366414E+03  0.80419002446E+02 0.  1.
<mgrwt>
<rscale>  0 0.87131705E+02</rscale>
<asrwt>0</asrwt>
<pdfrwt beam="1">  1        2 0.10868849E-01 0.87131705E+02</pdfrwt>
<pdfrwt beam="2">  1       -2 0.34747884E-01 0.87131705E+02</pdfrwt>
<totfact> 0.41554649E+03</totfact>
</mgrwt>
</event>
<event>
 4    1  0.1123525E-001  0.8806332E+02  0.7546771E-02  0.1307611E+00
         -1   -1    0    0    0  501 -0.00000000000E+00  0.00000000000E+00  0.19010885450E+03  0.19010885450E+03  0.00000000000E+00 0.  1.
          1   -1    0    0  501    0  0.00000000000E+00 -0.00000000000E+00 -0.95363996105E+02  0.95363996105E+02  0.00000000000E+00 0. -1.
         24    1    1    2    0    0 -0.28837049821E+02 -0.21362517728E+02  0.15534731151E+03  0.17857193440E+03  0.80419002446E+02 0.  1.
        -24    1    1    2    0    0  0.28837049821E+02  0.21362517728E+02 -0.60602453123E+02  0.10690091620E+03  0.80419002446E+02 0. -1.
<mgrwt>
<rscale>  0 0.88063321E+02</rscale>
<asrwt>0</asrwt>
<pdfrwt beam="1">  1        1 0.14671384E-01 0.88063321E+02</pdfrwt>
<pdfrwt beam="2">  1       -1 0.29247516E-01 0.88063321E+02</pdfrwt>
<totfact> 0.38232860E+03</totfact>
</mgrwt>
</event>
<event>
 4    1  0.1123525E-001  0.8344585E+02  0.7546771E-02  0.1319548E+00
         -2   -1    0    0    0  501 -0.00000000000E+00  0.00000000000E+00  0.16744929599E+02  0.16744929599E+02  0.00000000000E+00 0.  1.
          2   -1    0    0  501    0  0.00000000000E+00 -0.00000000000E+00 -0.49032544142E+03  0.49032544142E+03  0.00000000000E+00 0. -1.
         24    1    1    2    0    0  0.22105106356E+02 -0.27125748113E+01 -0.33560733967E+03  0.34582581769E+03  0.80419002446E+02 0. -1.
        -24    1    1    2    0    0 -0.22105106356E+02  0.27125748113E+01 -0.13797317215E+03  0.16124455332E+03  0.80419002446E+02 0. -1.
<mgrwt>
<rscale>  0 0.83445849E+02</rscale>
<asrwt>0</asrwt>
<pdfrwt beam="1">  1        2 0.75434683E-01 0.83445849E+02</pdfrwt>
<pdfrwt beam="2">  1       -2 0.25761430E-02 0.83445849E+02</pdfrwt>
<totfact> 0.29979013E+04</totfact>
</mgrwt>
</event>
<event>
 4    1  0.1123525E-001  0.8532216E+02  0.7546771E-02  0.1314592E+00
          1   -1    0    0  501    0  0.00000000000E+00  0.00000000000E+00  0.14618658322E+04  0.14618658322E+04  0.00000000000E+00 0. -1.
         -1   -1    0    0    0  501 -0.00000000000E+00 -0.00000000000E+00 -0.74965779714E+01  0.74965779714E+01  0.00000000000E+00 0.  1.
         24    1    1    2    0    0 -0.16946435499E+02 -0.22923196923E+02  0.30150226763E+03  0.31334244522E+03  0.80419002446E+02 0.  1.
        -24    1    1    2    0    0  0.16946435499E+02  0.22923196923E+02  0.11528669866E+04  0.11560199650E+04  0.80419002446E+02 0. -1.
<mgrwt>
<rscale>  0 0.85322158E+02</rscale>
<asrwt>0</asrwt>
<pdfrwt beam="1">  1        1 0.22490221E+00 0.85322158E+02</pdfrwt>
<pdfrwt beam="2">  1       -1 0.11533209E-02 0.85322158E+02</pdfrwt>
<totfact> 0.10967590E+04</totfact>
</mgrwt>
</event>
<event>
 4    1  0.1123525E-001  0.8397173E+02  0.7546771E-02  0.1318144E+00
          2   -1    0    0  501    0  0.00000000000E+00  0.00000000000E+00  0.26137634081E+03  0.26137634081E+03  0.00000000000E+00 0. -1.
         -2   -1    0    0    0  501 -0.00000000000E+00 -0.00000000000E+00 -0.78164581776E+02  0.78164581776E+02  0.00000000000E+00 0.  1.
         24    1    1    2    0    0 -0.14784569022E+02  0.19116785373E+02  0.22899039474E+03  0.24390131570E+03  0.80419002446E+02 0. -1.
        -24    1    1    2    0    0  0.14784569022E+02 -0.19116785373E+02 -0.45778635703E+02  0.95639606886E+02  0.80419002446E+02 0.  1.
<mgrwt>
<rscale>  0 0.83971727E+02</rscale>
<asrwt>0</asrwt>
<pdfrwt beam="1">  1        2 0.40211744E-01 0.83971727E+02</pdfrwt>
<pdfrwt beam="2">  1       -2 0.12025320E-01 0.83971727E+02</pdfrwt>
<totfact> 0.57796544E+03</totfact>
</mgrwt>
</event>
<event>
 4    1  0.1123525E-001  0.1682080E+03  0.7546771E-02  0.1179730E+00
          1   -1    0    0  501    0  0.00000000000E+00  0.00000000000E+00  0.11233052188E+04  0.11233052188E+04  0.00000000000E+00 0. -1.
         -1   -1    0    0    0  501 -0.00000000000E+00 -0.00000000000E+00 -0.30123178369E+02  0.30123178369E+02  0.00000000000E+00 0.  1.
         24    1    1    2    0    0 -0.13856694847E+03  0.51243830320E+02  0.31316114043E+03  0.35547692637E+03  0.80419002446E+02 0.  1.
        -24    1    1    2    0    0  0.13856694847E+03 -0.51243830320E+02  0.78002090000E+03  0.79795147080E+03  0.80419002446E+02 0. -1.
<mgrwt>
<rscale>  0 0.16820804E+03</rscale>
<asrwt>0</asrwt>
<pdfrwt beam="1">  1        1 0.17281616E+00 0.16820804E+03</pdfrwt>
<pdfrwt beam="2">  1       -1 0.46343360E-02 0.16820804E+03</pdfrwt>
<totfact> 0.25441089E+03</totfact>
</mgrwt>
</event>
<event>
 4    1  0.1123525E-001  0.1677732E+03  0.7546771E-02  0.1180190E+00
          2   -1    0    0  501    0  0.00000000000E+00  0.00000000000E+00  0.20206759526E+04  0.20206759526E+04  0.00000000000E+00 0. -1.
         -2   -1    0    0    0  501 -0.00000000000E+00 -0.00000000000E+00 -0.16008798594E+02  0.16008798594E+02  0.00000000000E+00 0.  1.
         24    1    1    2    0    0 -0.32076855029E+01 -0.14720849400E+03  0.13693026346E+04  0.13795425152E+04  0.80419002446E+02 0. -1.
        -24    1    1    2    0    0  0.32076855029E+01  0.14720849400E+03  0.63536451934E+03  0.65714223601E+03  0.80419002446E+02 0.  1.
<mgrwt>
<rscale>  0 0.16777320E+03</rscale>
<asrwt>0</asrwt>
<pdfrwt beam="1">  1        2 0.31087302E+00 0.16777320E+03</pdfrwt>
<pdfrwt beam="2">  1       -2 0.24628937E-02 0.16777320E+03</pdfrwt>
<totfact> 0.41103184E+03</totfact>
</mgrwt>
</event>
<event>
 4    1  0.1123525E-001  0.1005704E+03  0.7546771E-02  0.1279101E+00
          2   -1    0    0  501    0  0.00000000000E+00  0.00000000000E+00  0.68593993510E+03  0.68593993510E+03  0.00000000000E+00 0. -1.
         -2   -1    0    0    0  501 -0.00000000000E+00 -0.00000000000E+00 -0.16555013967E+02  0.16555013967E+02  0.00000000000E+00 0.  1.
         24    1    1    2    0    0 -0.59658031384E+02  0.93862487472E+01  0.45082447748E+03  0.46190595128E+03  0.80419002446E+02 0. -1.
        -24    1    1    2    0    0  0.59658031384E+02 -0.93862487472E+01  0.21856044365E+03  0.24058899779E+03  0.80419002446E+02 0.  1.
<mgrwt>
<rscale>  0 0.10057037E+03</rscale>
<asrwt>0</asrwt>
<pdfrwt beam="1">  1        2 0.10552920E+00 0.10057037E+03</pdfrwt>
<pdfrwt beam="2">  1       -2 0.25469257E-02 0.10057037E+03</pdfrwt>
<totfact> 0.21378998E+04</totfact>
</mgrwt>
</event>
<event>
 4    1  0.1123525E-001  0.8261066E+02  0.7546771E-02  0.1321802E+00
          2   -1    0    0  501    0  0.00000000000E+00  0.00000000000E+00  0.70811091061E+02  0.70811091061E+02  0.00000000000E+00 0. -1.
         -2   -1    0    0    0  501 -0.00000000000E+00 -0.00000000000E+00 -0.13227635403E+03  0.13227635403E+03  0.00000000000E+00 0.  1.
         24    1    1    2    0    0 -0.10190572681E+02  0.15920361522E+02  0.22167726522E+02  0.85533208382E+02  0.80419002446E+02 0.  0.
        -24    1    1    2    0    0  0.10190572681E+02 -0.15920361522E+02 -0.83632989492E+02  0.11755423671E+03  0.80419002446E+02 0.  1.
<mgrwt>
<rscale>  0 0.82610663E+02</rscale>
<asrwt>0</asrwt>
<pdfrwt beam="1">  1        2 0.10894014E-01 0.82610663E+02</pdfrwt>
<pdfrwt beam="2">  1       -2 0.20350208E-01 0.82610663E+02</pdfrwt>
<totfact> 0.10499301E+04</totfact>
</mgrwt>
</event>
<event>
 4    1  0.1123525E-001  0.8302110E+02  0.7546771E-02  0.1320690E+00
         -1   -1    0    0    0  501 -0.00000000000E+00  0.00000000000E+00  0.56323932288E+02  0.56323932288E+02  0.00000000000E+00 0.  1.
          1   -1    0    0  501    0  0.00000000000E+00 -0.00000000000E+00 -0.16614780553E+03  0.16614780553E+03  0.00000000000E+00 0. -1.
         24    1    1    2    0    0  0.30375475176E+00 -0.20620268898E+02  0.21848738650E+01  0.83049848793E+02  0.80419002446E+02 0.  1.
        -24    1    1    2    0    0 -0.30375475176E+00  0.20620268898E+02 -0.11200874710E+03  0.13942188902E+03  0.80419002446E+02 0.  0.
<mgrwt>
<rscale>  0 0.83021104E+02</rscale>
<asrwt>0</asrwt>
<pdfrwt beam="1">  1        1 0.25561200E-01 0.83021104E+02</pdfrwt>
<pdfrwt beam="2">  1       -1 0.86652205E-02 0.83021104E+02</pdfrwt>
<totfact> 0.12654432E+04</totfact>
</mgrwt>
</event>
<event>
 4    1  0.1123525E-001  0.9877828E+02  0.7546771E-02  0.1282886E+00
          1   -1    0    0  501    0  0.00000000000E+00  0.00000000000E+00  0.16505516307E+04  0.16505516307E+04  0.00000000000E+00 0. -1.
         -1   -1    0    0    0  501 -0.00000000000E+00 -0.00000000000E+00 -0.62017276284E+01  0.62017276284E+01  0.00000000000E+00 0.  1.
         24    1    1    2    0    0  0.57257553678E+02  0.33913419206E+01  0.10013932314E+04  0.10062532228E+04  0.80419002446E+02 0.  1.
        -24    1    1    2    0    0 -0.57257553678E+02 -0.33913419206E+01  0.64295667174E+03  0.65050013554E+03  0.80419002446E+02 0. -1.
<mgrwt>
<rscale>  0 0.98778272E+02</rscale>
<asrwt>0</asrwt>
<pdfrwt beam="1">  1        1 0.25393067E+00 0.98778284E+02</pdfrwt>
<pdfrwt beam="2">  1       -1 0.95411326E-03 0.98778284E+02</pdfrwt>
<totfact> 0.10972415E+04</totfact>
</mgrwt>
</event>
<event>
 4    1  0.1123525E-001  0.1357791E+03  0.7546771E-02  0.1219124E+00
          1   -1    0    0  501    0  0.00000000000E+00  0.00000000000E+00  0.35560694509E+03  0.35560694509E+03  0.00000000000E+00 0. -1.
         -1   -1    0    0    0  501 -0.00000000000E+00 -0.00000000000E+00 -0.52112126232E+02  0.52112126232E+02  0.00000000000E+00 0.  1.
         24    1    1    2    0    0 -0.58165764011E+01  0.10924706043E+03  0.13711555906E+03  0.19296799026E+03  0.80419002446E+02 0.  1.
        -24    1    1    2    0    0  0.58165764011E+01 -0.10924706043E+03  0.16637925980E+03  0.21475108106E+03  0.80419002446E+02 0. -1.
<mgrwt>
<rscale>  0 0.13577912E+03</rscale>
<asrwt>0</asrwt>
<pdfrwt beam="1">  1        1 0.54708759E-01 0.13577912E+03</pdfrwt>
<pdfrwt beam="2">  1       -1 0.80172504E-02 0.13577912E+03</pdfrwt>
<totfact> 0.57948450E+03</totfact>
</mgrwt>
</event>
<event>
 4    1  0.1123525E-001  0.8190402E+02  0.7546771E-02  0.1323733E+00
          1   -1    0    0  501    0  0.00000000000E+00  0.00000000000E+00  0.36118031407E+02  0.36118031407E+02  0.00000000000E+00 0. -1.
         -1   -1    0    0    0  501 -0.00000000000E+00 -0.00000000000E+00 -0.26791298872E+03  0.26791298872E+03  0.00000000000E+00 0.  1.
         24    1    1    2    0    0  0.53509962194E+01 -0.14574639965E+02 -0.20009068722E+03  0.21620488514E+03  0.80419002446E+02 0.  0.
        -24    1    1    2    0    0 -0.53509962194E+01  0.14574639965E+02 -0.31704270092E+02  0.87826134989E+02  0.80419002446E+02 0. -1.
<mgrwt>
<rscale>  0 0.81904025E+02</rscale>
<asrwt>0</asrwt>
<pdfrwt beam="1">  1        1 0.55566202E-02 0.81904025E+02</pdfrwt>
<pdfrwt beam="2">  1       -1 0.41217383E-01 0.81904025E+02</pdfrwt>
<totfact> 0.76027073E+03</totfact>
</mgrwt>
</event>
<event>
 4    1  0.1123525E-001  0.9374051E+02  0.7546771E-02  0.1294038E+00
         -1   -1    0    0    0  501 -0.00000000000E+00  0.00000000000E+00  0.28930492707E+03  0.28930492707E+03  0.00000000000E+00 0.  1.
          1   -1    0    0  501    0  0.00000000000E+00 -0.00000000000E+00 -0.84260370693E+02  0.84260370693E+02  0.00000000000E+00 0. -1.
         24    1    1    2    0    0  0.43616192274E+02 -0.20437611115E+02  0.25189290457E+03  0.26877001228E+03  0.80419002446E+02 0.  1.
        -24    1    1    2    0    0 -0.43616192274E+02  0.20437611115E+02 -0.46848348189E+02  0.10479528548E+03  0.80419002446E+02 0. -1.
<mgrwt>
<rscale>  0 0.93740515E+02</rscale>
<asrwt>0</asrwt>
<pdfrwt beam="1">  1        1 0.12963134E-01 0.93740515E+02</pdfrwt>
<pdfrwt beam="2">  1       -1 0.44508450E-01 0.93740515E+02</pdfrwt>
<totfact> 0.21965922E+03</totfact>
</mgrwt>
</event>
<event>
 4    1  0.1123525E-001  0.8397364E+02  0.7546771E-02  0.1318139E+00
          2   -1    0    0  501    0  0.00000000000E+00  0.00000000000E+00  0.12238241034E+03  0.12238241034E+03  0.00000000000E+00 0. -1.
         -2   -1    0    0    0  501 -0.00000000000E+00 -0.00000000000E+00 -0.50572889670E+03  0.50572889670E+03  0.00000000000E+00 0.  1.
         24    1    1    2    0    0  0.23752290458E+02  0.44926887629E+01  0.10395091549E+03  0.13363144966E+03  0.80419002446E+02 0. -1.
        -24    1    1    2    0    0 -0.23752290458E+02 -0.44926887629E+01 -0.48729740184E+03  0.49447985738E+03  0.80419002446E+02 0.  1.
<mgrwt>
<rscale>  0 0.83973636E+02</rscale>
<asrwt>0</asrwt>
<pdfrwt beam="1">  1        2 0.18828063E-01 0.83973636E+02</pdfrwt>
<pdfrwt beam="2">  1       -2 0.77804445E-01 0.83973636E+02</pdfrwt>
<totfact> 0.44414451E+02</totfact>
</mgrwt>
</event>
<event>
 4    1  0.1123525E-001  0.9824218E+02  0.7546771E-02  0.1284036E+00
          2   -1    0    0  501    0  0.00000000000E+00  0.00000000000E+00  0.13683544769E+03  0.13683544769E+03  0.00000000000E+00 0. -1.
         -2   -1    0    0    0  501 -0.00000000000E+00 -0.00000000000E+00 -0.73302770616E+02  0.73302770616E+02  0.00000000000E+00 0.  1.
         24    1    1    2    0    0  0.55359816685E+02  0.10936173410E+02  0.52187170370E+02  0.11124309371E+03  0.80419002446E+02 0. -1.
        -24    1    1    2    0    0 -0.55359816685E+02 -0.10936173410E+02  0.11345506702E+02  0.98895124596E+02  0.80419002446E+02 0.  1.
<mgrwt>
<rscale>  0 0.98242176E+02</rscale>
<asrwt>0</asrwt>
<pdfrwt beam="1">  1        2 0.21051607E-01 0.98242176E+02</pdfrwt>
<pdfrwt beam="2">  1       -2 0.11277349E-01 0.98242176E+02</pdfrwt>
<totfact> 0.12996675E+04</totfact>
</mgrwt>
</event>
<event>
 4    1  0.1123525E-001  0.8082249E+02  0.7546771E-02  0.1326733E+00
         -2   -1    0    0    0  501 -0.00000000000E+00  0.00000000000E+00  0.10764025807E+02  0.10764025807E+02  0.00000000000E+00 0.  1.
          2   -1    0    0  501    0  0.00000000000E+00 -0.00000000000E+00 -0.11850682624E+04  0.11850682624E+04  0.00000000000E+00 0. -1.
         24    1    1    2    0    0 -0.80614977622E+01 -0.26807006133E+00 -0.10047998094E+04  0.10080451044E+04  0.80419002446E+02 0.  0.
        -24    1    1    2    0    0  0.80614977622E+01  0.26807006133E+00 -0.16950442728E+03  0.18778718388E+03  0.80419002446E+02 0.  1.
<mgrwt>
<rscale>  0 0.80822494E+02</rscale>
<asrwt>0</asrwt>
<pdfrwt beam="1">  1        2 0.18231809E+00 0.80822494E+02</pdfrwt>
<pdfrwt beam="2">  1       -2 0.16560049E-02 0.80822494E+02</pdfrwt>
<totfact> 0.19164808E+04</totfact>
</mgrwt>
</event>
<event>
 4    1  0.1123525E-001  0.8166623E+02  0.7546771E-02  0.1324388E+00
          1   -1    0    0  501    0  0.00000000000E+00  0.00000000000E+00  0.11183854391E+03  0.11183854391E+03  0.00000000000E+00 0. -1.
         -1   -1    0    0    0  501 -0.00000000000E+00 -0.00000000000E+00 -0.83536805282E+02  0.83536805282E+02  0.00000000000E+00 0.  1.
         24    1    1    2    0    0 -0.21334276028E+01 -0.14057237908E+02 -0.38103882664E+02  0.90118140678E+02  0.80419002446E+02 0.  0.
        -24    1    1    2    0    0  0.21334276028E+01  0.14057237908E+02  0.66405621295E+02  0.10525720852E+03  0.80419002446E+02 0. -1.
<mgrwt>
<rscale>  0 0.81666232E+02</rscale>
<asrwt>0</asrwt>
<pdfrwt beam="1">  1        1 0.17205930E-01 0.81666232E+02</pdfrwt>
<pdfrwt beam="2">  1       -1 0.12851816E-01 0.81666232E+02</pdfrwt>
<totfact> 0.11415360E+04</totfact>
</mgrwt>
</event>
<event>
 4    1  0.1123525E-001  0.1430175E+03  0.7546771E-02  0.1209325E+00
         -2   -1    0    0    0  501 -0.00000000000E+00  0.00000000000E+00  0.17748170244E+02  0.17748170244E+02  0.00000000000E+00 0.  1.
          2   -1    0    0  501    0  0.00000000000E+00 -0.00000000000E+00 -0.15812598402E+04  0.15812598402E+04  0.00000000000E+00 0. -1.
         24    1    1    2    0    0  0.71408778396E+02 -0.94273882503E+02 -0.11980957921E+04  0.12066016416E+04  0.80419002446E+02 0. -1.
        -24    1    1    2    0    0 -0.71408778396E+02  0.94273882503E+02 -0.36541587790E+03  0.39240636887E+03  0.80419002446E+02 0.  1.
<mgrwt>
<rscale>  0 0.14301746E+03</rscale>
<asrwt>0</asrwt>
<pdfrwt beam="1">  1        2 0.24327069E+00 0.14301746E+03</pdfrwt>
<pdfrwt beam="2">  1       -2 0.27304884E-02 0.14301746E+03</pdfrwt>
<totfact> 0.59334822E+03</totfact>
</mgrwt>
</event>
<event>
 4    1  0.1123525E-001  0.9390265E+02  0.7546771E-02  0.1293667E+00
         -2   -1    0    0    0  501 -0.00000000000E+00  0.00000000000E+00  0.93654534011E+01  0.93654534011E+01  0.00000000000E+00 0. -1.
          2   -1    0    0  501    0  0.00000000000E+00 -0.00000000000E+00 -0.10056227809E+04  0.10056227809E+04  0.00000000000E+00 0.  1.
         24    1    1    2    0    0  0.20566124891E+02  0.43903560151E+02 -0.36999219681E+03  0.38172232021E+03  0.80419002446E+02 0. -1.
        -24    1    1    2    0    0 -0.20566124891E+02 -0.43903560151E+02 -0.62626513071E+03  0.63326591412E+03  0.80419002446E+02 0.  0.
<mgrwt>
<rscale>  0 0.93902642E+02</rscale>
<asrwt>0</asrwt>
<pdfrwt beam="1">  1        2 0.15471112E+00 0.93902654E+02</pdfrwt>
<pdfrwt beam="2">  1       -2 0.14408397E-02 0.93902654E+02</pdfrwt>
<totfact> 0.29878925E+04</totfact>
</mgrwt>
</event>
<event>
 4    1  0.1123525E-001  0.8157224E+02  0.7546771E-02  0.1324648E+00
         -2   -1    0    0    0  501 -0.00000000000E+00  0.00000000000E+00  0.15104047335E+03  0.15104047335E+03  0.00000000000E+00 0.  1.
          2   -1    0    0  501    0  0.00000000000E+00 -0.00000000000E+00 -0.11592999397E+03  0.11592999397E+03  0.00000000000E+00 0. -1.
         24    1    1    2    0    0  0.21276897946E+01 -0.13501381274E+02 -0.87550246369E+02  0.11966234142E+03  0.80419002446E+02 0. -1.
        -24    1    1    2    0    0 -0.21276897946E+01  0.13501381274E+02  0.12266072575E+03  0.14730812590E+03  0.80419002446E+02 0.  0.
<mgrwt>
<rscale>  0 0.81572240E+02</rscale>
<asrwt>0</asrwt>
<pdfrwt beam="1">  1        2 0.17835384E-01 0.81572240E+02</pdfrwt>
<pdfrwt beam="2">  1       -2 0.23236996E-01 0.81572240E+02</pdfrwt>
<totfact> 0.47237516E+03</totfact>
</mgrwt>
</event>
<event>
 4    1  0.1123525E-001  0.9932980E+02  0.7546771E-02  0.1281712E+00
         -2   -1    0    0    0  501 -0.00000000000E+00  0.00000000000E+00  0.14960876743E+02  0.14960876743E+02  0.00000000000E+00 0.  1.
          2   -1    0    0  501    0  0.00000000000E+00 -0.00000000000E+00 -0.83808194796E+03  0.83808194796E+03  0.00000000000E+00 0. -1.
         24    1    1    2    0    0 -0.89057276505E+01  0.57618413099E+02 -0.60845787155E+03  0.61651227961E+03  0.80419002446E+02 0. -1.
        -24    1    1    2    0    0  0.89057276505E+01 -0.57618413099E+02 -0.21466319967E+03  0.23653054509E+03  0.80419002446E+02 0.  1.
<mgrwt>
<rscale>  0 0.99329802E+02</rscale>
<asrwt>0</asrwt>
<pdfrwt beam="1">  1        2 0.12893569E+00 0.99329802E+02</pdfrwt>
<pdfrwt beam="2">  1       -2 0.23016733E-02 0.99329802E+02</pdfrwt>
<totfact> 0.19426635E+04</totfact>
</mgrwt>
</event>
<event>
 4    1  0.1123525E-001  0.1073666E+03  0.7546771E-02  0.1265526E+00
         -2   -1    0    0    0  501 -0.00000000000E+00  0.00000000000E+00  0.31654391933E+02  0.31654391933E+02  0.00000000000E+00 0.  1.
          2   -1    0    0  501    0  0.00000000000E+00 -0.00000000000E+00 -0.39909836540E+03  0.39909836540E+03  0.00000000000E+00 0. -1.
         24    1    1    2    0    0  0.22488243068E+02 -0.67488050671E+02 -0.12000600416E+03  0.16102488953E+03  0.80419002446E+02 0.  0.
        -24    1    1    2    0    0 -0.22488243068E+02  0.67488050671E+02 -0.24743796931E+03  0.26972786781E+03  0.80419002446E+02 0.  0.
<mgrwt>
<rscale>  0 0.10736655E+03</rscale>
<asrwt>0</asrwt>
<pdfrwt beam="1">  1        2 0.61399748E-01 0.10736657E+03</pdfrwt>
<pdfrwt beam="2">  1       -2 0.48699065E-02 0.10736657E+03</pdfrwt>
<totfact> 0.15063871E+04</totfact>
</mgrwt>
</event>
<event>
 4    1  0.1123525E-001  0.9683530E+02  0.7546771E-02  0.1287095E+00
          3   -1    0    0  501    0  0.00000000000E+00  0.00000000000E+00  0.13678051928E+02  0.13678051928E+02  0.00000000000E+00 0. -1.
         -3   -1    0    0    0  501 -0.00000000000E+00 -0.00000000000E+00 -0.12117211919E+04  0.12117211919E+04  0.00000000000E+00 0.  1.
         24    1    1    2    0    0 -0.27662770994E+02 -0.46310154003E+02 -0.10027665890E+04  0.10074313412E+04  0.80419002446E+02 0.  1.
        -24    1    1    2    0    0  0.27662770994E+02  0.46310154003E+02 -0.19527655100E+03  0.21796790265E+03  0.80419002446E+02 0. -1.
<mgrwt>
<rscale>  0 0.96835299E+02</rscale>
<asrwt>0</asrwt>
<pdfrwt beam="1">  1        3 0.21043157E-02 0.96835299E+02</pdfrwt>
<pdfrwt beam="2">  1       -3 0.18641864E+00 0.96835299E+02</pdfrwt>
<totfact> 0.38154693E+02</totfact>
</mgrwt>
</event>
<event>
 4    1  0.1123525E-001  0.1310392E+03  0.7546771E-02  0.1225922E+00
         -2   -1    0    0    0  501 -0.00000000000E+00  0.00000000000E+00  0.15591682698E+03  0.15591682698E+03  0.00000000000E+00 0.  1.
          2   -1    0    0  501    0  0.00000000000E+00 -0.00000000000E+00 -0.16816159519E+03  0.16816159519E+03  0.00000000000E+00 0. -1.
         24    1    1    2    0    0  0.77043952932E+02 -0.69052799869E+02 -0.10131104773E+03  0.16563575761E+03  0.80419002446E+02 0. -1.
        -24    1    1    2    0    0 -0.77043952932E+02  0.69052799869E+02  0.89066279511E+02  0.15844266456E+03  0.80419002446E+02 0.  1.
<mgrwt>
<rscale>  0 0.13103921E+03</rscale>
<asrwt>0</asrwt>
<pdfrwt beam="1">  1        2 0.25871014E-01 0.13103921E+03</pdfrwt>
<pdfrwt beam="2">  1       -2 0.23987204E-01 0.13103921E+03</pdfrwt>
<totfact> 0.30487862E+03</totfact>
</mgrwt>
</event>
<event>
 4    1  0.1123525E-001  0.1135526E+03  0.7546771E-02  0.1254129E+00
          2   -1    0    0  501    0  0.00000000000E+00  0.00000000000E+00  0.64526328074E+03  0.64526328074E+03  0.00000000000E+00 0. -1.
         -2   -1    0    0    0  501 -0.00000000000E+00 -0.00000000000E+00 -0.20001940535E+02  0.20001940535E+02  0.00000000000E+00 0.  1.
         24    1    1    2    0    0 -0.62855644596E+02 -0.49760746729E+02  0.30234624745E+03  0.32296661325E+03  0.80419002446E+02 0. -1.
        -24    1    1    2    0    0  0.62855644596E+02  0.49760746729E+02  0.32291509275E+03  0.34229860802E+03  0.80419002446E+02 0.  1.
<mgrwt>
<rscale>  0 0.11355256E+03</rscale>
<asrwt>0</asrwt>
<pdfrwt beam="1">  1        2 0.99271258E-01 0.11355257E+03</pdfrwt>
<pdfrwt beam="2">  1       -2 0.30772221E-02 0.11355257E+03</pdfrwt>
<totfact> 0.17607462E+04</totfact>
</mgrwt>
</event>
<event>
 4    1  0.1123525E-001  0.1291473E+03  0.7546771E-02  0.1228727E+00
         -2   -1    0    0    0  501 -0.00000000000E+00  0.00000000000E+00  0.22222483069E+02  0.22222483069E+02  0.00000000000E+00 0.  1.
          2   -1    0    0  501    0  0.00000000000E+00 -0.00000000000E+00 -0.82460771086E+03  0.82460771086E+03  0.00000000000E+00 0. -1.
         24    1    1    2    0    0  0.95734855565E+02  0.32351898649E+02 -0.52808507089E+03  0.54364774070E+03  0.80419002446E+02 0. -1.
        -24    1    1    2    0    0 -0.95734855565E+02 -0.32351898649E+02 -0.27430015690E+03  0.30318245323E+03  0.80419002446E+02 0.  1.
<mgrwt>
<rscale>  0 0.12914730E+03</rscale>
<asrwt>0</asrwt>
<pdfrwt beam="1">  1        2 0.12686269E+00 0.12914730E+03</pdfrwt>
<pdfrwt beam="2">  1       -2 0.34188446E-02 0.12914730E+03</pdfrwt>
<totfact> 0.11348435E+04</totfact>
</mgrwt>
</event>
<event>
 4    1  0.1123525E-001  0.8573096E+02  0.7546771E-02  0.1313532E+00
          3   -1    0    0  501    0  0.00000000000E+00  0.00000000000E+00  0.10897093886E+02  0.10897093886E+02  0.00000000000E+00 0. -1.
         -3   -1    0    0    0  501 -0.00000000000E+00 -0.00000000000E+00 -0.75370905229E+03  0.75370905229E+03  0.00000000000E+00 0.  1.
         24    1    1    2    0    0  0.29684420008E+02  0.11902701195E+01 -0.49536178260E+03  0.50272566391E+03  0.80419002446E+02 0.  1.
        -24    1    1    2    0    0 -0.29684420008E+02 -0.11902701195E+01 -0.24745017581E+03  0.26188048228E+03  0.80419002446E+02 0. -1.
<mgrwt>
<rscale>  0 0.85730960E+02</rscale>
<asrwt>0</asrwt>
<pdfrwt beam="1">  1        3 0.16764752E-02 0.85730960E+02</pdfrwt>
<pdfrwt beam="2">  1       -3 0.11595530E+00 0.85730960E+02</pdfrwt>
<totfact> 0.16908268E+03</totfact>
</mgrwt>
</event>
<event>
 4    1  0.1123525E-001  0.1220800E+03  0.7546771E-02  0.1239705E+00
         -1   -1    0    0    0  501 -0.00000000000E+00  0.00000000000E+00  0.14535331016E+02  0.14535331016E+02  0.00000000000E+00 0.  1.
          1   -1    0    0  501    0  0.00000000000E+00 -0.00000000000E+00 -0.11581631469E+04  0.11581631469E+04  0.00000000000E+00 0. -1.
         24    1    1    2    0    0  0.67082963746E+02  0.62739100306E+02 -0.37324005781E+03  0.39269794428E+03  0.80419002446E+02 0.  1.
        -24    1    1    2    0    0 -0.67082963746E+02 -0.62739100306E+02 -0.77038775809E+03  0.78000053365E+03  0.80419002446E+02 0. -1.
<mgrwt>
<rscale>  0 0.12208003E+03</rscale>
<asrwt>0</asrwt>
<pdfrwt beam="1">  1        1 0.17817890E+00 0.12208003E+03</pdfrwt>
<pdfrwt beam="2">  1       -1 0.22362054E-02 0.12208003E+03</pdfrwt>
<totfact> 0.69090185E+03</totfact>
</mgrwt>
</event>
<event>
 4    1  0.1123525E-001  0.8606666E+02  0.7546771E-02  0.1312666E+00
          1   -1    0    0  501    0  0.00000000000E+00  0.00000000000E+00  0.60569175511E+03  0.60569175511E+03  0.00000000000E+00 0. -1.
         -1   -1    0    0    0  501 -0.00000000000E+00 -0.00000000000E+00 -0.26257602474E+02  0.26257602474E+02  0.00000000000E+00 0.  1.
         24    1    1    2    0    0  0.30560768536E+02 -0.25086189600E+01  0.58765962285E+02  0.10421568030E+03  0.80419002446E+02 0.  1.
        -24    1    1    2    0    0 -0.30560768536E+02  0.25086189600E+01  0.52066819036E+03  0.52773367729E+03  0.80419002446E+02 0. -1.
<mgrwt>
<rscale>  0 0.86066658E+02</rscale>
<asrwt>0</asrwt>
<pdfrwt beam="1">  1        1 0.93183337E-01 0.86066658E+02</pdfrwt>
<pdfrwt beam="2">  1       -1 0.40396316E-02 0.86066658E+02</pdfrwt>
<totfact> 0.78224764E+03</totfact>
</mgrwt>
</event>
<event>
 4    1  0.1123525E-001  0.9227573E+02  0.7546771E-02  0.1297432E+00
         -2   -1    0    0    0  501 -0.00000000000E+00  0.00000000000E+00  0.10039880166E+03  0.10039880166E+03  0.00000000000E+00 0.  1.
          2   -1    0    0  501    0  0.00000000000E+00 -0.00000000000E+00 -0.95959680737E+02  0.95959680737E+02  0.00000000000E+00 0. -1.
         24    1    1    2    0    0 -0.39070528807E+02  0.22827336108E+02 -0.31246839429E+02  0.97422658677E+02  0.80419002446E+02 0.  0.
        -24    1    1    2    0    0  0.39070528807E+02 -0.22827336108E+02  0.35685960356E+02  0.98935823724E+02  0.80419002446E+02 0.  0.
<mgrwt>
<rscale>  0 0.92275725E+02</rscale>
<asrwt>0</asrwt>
<pdfrwt beam="1">  1        2 0.14763028E-01 0.92275725E+02</pdfrwt>
<pdfrwt beam="2">  1       -2 0.15445969E-01 0.92275725E+02</pdfrwt>
<totfact> 0.11693145E+04</totfact>
</mgrwt>
</event>
<event>
 4    1  0.1123525E-001  0.1317661E+03  0.7546771E-02  0.1224858E+00
         -1   -1    0    0    0  501 -0.00000000000E+00  0.00000000000E+00  0.89538305709E+01  0.89538305709E+01  0.00000000000E+00 0.  1.
          1   -1    0    0  501    0  0.00000000000E+00 -0.00000000000E+00 -0.23311826616E+04  0.23311826616E+04  0.00000000000E+00 0. -1.
         24    1    1    2    0    0  0.70952292411E+02  0.76556233019E+02 -0.68125244659E+03  0.69387837302E+03  0.80419002446E+02 0.  1.
        -24    1    1    2    0    0 -0.70952292411E+02 -0.76556233019E+02 -0.16409763844E+04  0.16462581191E+04  0.80419002446E+02 0. -1.
<mgrwt>
<rscale>  0 0.13176608E+03</rscale>
<asrwt>0</asrwt>
<pdfrwt beam="1">  1        1 0.35864385E+00 0.13176608E+03</pdfrwt>
<pdfrwt beam="2">  1       -1 0.13775110E-02 0.13176608E+03</pdfrwt>
<totfact> 0.24293744E+03</totfact>
</mgrwt>
</event>
<event>
 4    1  0.1123525E-001  0.1051968E+03  0.7546771E-02  0.1269732E+00
         -2   -1    0    0    0  501 -0.00000000000E+00  0.00000000000E+00  0.45436355493E+01  0.45436355493E+01  0.00000000000E+00 0.  1.
          2   -1    0    0  501    0  0.00000000000E+00 -0.00000000000E+00 -0.31705644979E+04  0.31705644979E+04  0.00000000000E+00 0. -1.
         24    1    1    2    0    0  0.22398499614E+02  0.64011426870E+02 -0.23473747087E+04  0.23497307068E+04  0.80419002446E+02 0.  1.
        -24    1    1    2    0    0 -0.22398499614E+02 -0.64011426870E+02 -0.81864615367E+03  0.82537742665E+03  0.80419002446E+02 0.  0.
<mgrwt>
<rscale>  0 0.10519682E+03</rscale>
<asrwt>0</asrwt>
<pdfrwt beam="1">  1        2 0.48777620E+00 0.10519682E+03</pdfrwt>
<pdfrwt beam="2">  1       -2 0.69902508E-03 0.10519682E+03</pdfrwt>
<totfact> 0.59314283E+03</totfact>
</mgrwt>
</event>
<event>
 4    1  0.1123525E-001  0.8079932E+02  0.7546771E-02  0.1326798E+00
          1   -1    0    0  501    0  0.00000000000E+00  0.00000000000E+00  0.29747581791E+03  0.29747581791E+03  0.00000000000E+00 0. -1.
         -1   -1    0    0    0  501 -0.00000000000E+00 -0.00000000000E+00 -0.26178885886E+02  0.26178885886E+02  0.00000000000E+00 0.  1.
         24    1    1    2    0    0 -0.44116851550E+01 -0.64689898529E+01  0.20071737277E+03  0.21637003138E+03  0.80419002446E+02 0. -1.
        -24    1    1    2    0    0  0.44116851550E+01  0.64689898529E+01  0.70579559259E+02  0.10728467242E+03  0.80419002446E+02 0.  0.
<mgrwt>
<rscale>  0 0.80799309E+02</rscale>
<asrwt>0</asrwt>
<pdfrwt beam="1">  1        1 0.45765508E-01 0.80799319E+02</pdfrwt>
<pdfrwt beam="2">  1       -1 0.40275211E-02 0.80799319E+02</pdfrwt>
<totfact> 0.19103176E+04</totfact>
</mgrwt>
</event>
<event>
 4    1  0.1123525E-001  0.1228334E+03  0.7546771E-02  0.1238495E+00
          1   -1    0    0  501    0  0.00000000000E+00  0.00000000000E+00  0.24966103933E+02  0.24966103933E+02  0.00000000000E+00 0. -1.
         -1   -1    0    0    0  501 -0.00000000000E+00 -0.00000000000E+00 -0.88218822689E+03  0.88218822689E+03  0.00000000000E+00 0.  1.
         24    1    1    2    0    0 -0.74242336922E+02 -0.55757532842E+02 -0.68316129482E+03  0.69411627106E+03  0.80419002446E+02 0.  1.
        -24    1    1    2    0    0  0.74242336922E+02  0.55757532842E+02 -0.17406082814E+03  0.21303805976E+03  0.80419002446E+02 0. -1.
<mgrwt>
<rscale>  0 0.12283340E+03</rscale>
<asrwt>0</asrwt>
<pdfrwt beam="1">  1        1 0.38409397E-02 0.12283340E+03</pdfrwt>
<pdfrwt beam="2">  1       -1 0.13572124E+00 0.12283340E+03</pdfrwt>
<totfact> 0.11493011E+03</totfact>
</mgrwt>
</event>
<event>
 4    1  0.1152801E-001  0.9605014E+02  0.7546771E-02  0.1288828E+00
          1   -1    0    0  501    0  0.00000000000E+00  0.00000000000E+00  0.25014593974E+03  0.25014593974E+03  0.00000000000E+00 0. -1.
         -1   -1    0    0    0  501 -0.00000000000E+00 -0.00000000000E+00 -0.10560031167E+03  0.10560031167E+03  0.00000000000E+00 0.  1.
         24    1    1    2    0    0  0.34548953768E+02 -0.39557332024E+02 -0.71215715271E+02  0.11957134598E+03  0.80419002446E+02 0.  1.
        -24    1    1    2    0    0 -0.34548953768E+02  0.39557332024E+02  0.21576134333E+03  0.23617490543E+03  0.80419002446E+02 0. -1.
<mgrwt>
<rscale>  0 0.96050136E+02</rscale>
<asrwt>0</asrwt>
<pdfrwt beam="1">  1        1 0.38483991E-01 0.96050136E+02</pdfrwt>
<pdfrwt beam="2">  1       -1 0.16246202E-01 0.96050136E+02</pdfrwt>
<totfact> 0.29694742E+03</totfact>
</mgrwt>
</event>
<event>
 4    1  0.1123525E-001  0.1177365E+03  0.7546771E-02  0.1246878E+00
          2   -1    0    0  501    0  0.00000000000E+00  0.00000000000E+00  0.11903723214E+04  0.11903723214E+04  0.00000000000E+00 0. -1.
         -2   -1    0    0    0  501 -0.00000000000E+00 -0.00000000000E+00 -0.22801624724E+03  0.22801624724E+03  0.00000000000E+00 0.  1.
         24    1    1    2    0    0  0.80543791685E+02 -0.30122662126E+02  0.11720253902E+04  0.11779241946E+04  0.80419002446E+02 0. -1.
        -24    1    1    2    0    0 -0.80543791685E+02  0.30122662126E+02 -0.20966931599E+03  0.24046437403E+03  0.80419002446E+02 0.  1.
<mgrwt>
<rscale>  0 0.11773654E+03</rscale>
<asrwt>0</asrwt>
<pdfrwt beam="1">  1        2 0.18313420E+00 0.11773654E+03</pdfrwt>
<pdfrwt beam="2">  1       -2 0.35079423E-01 0.11773654E+03</pdfrwt>
<totfact> 0.16315547E+02</totfact>
</mgrwt>
</event>
<event>
 4    1  0.1123525E-001  0.1046009E+03  0.7546771E-02  0.1270908E+00
          2   -1    0    0  501    0  0.00000000000E+00  0.00000000000E+00  0.82491844508E+02  0.82491844508E+02  0.00000000000E+00 0. -1.
         -2   -1    0    0    0  501 -0.00000000000E+00 -0.00000000000E+00 -0.20776724449E+03  0.20776724449E+03  0.00000000000E+00 0.  1.
         24    1    1    2    0    0 -0.22158806576E+02  0.63111913822E+02  0.24635157072E+02  0.10746270652E+03  0.80419002446E+02 0. -1.
        -24    1    1    2    0    0  0.22158806576E+02 -0.63111913822E+02 -0.14991055705E+03  0.18279638248E+03  0.80419002446E+02 0.  1.
<mgrwt>
<rscale>  0 0.10460087E+03</rscale>
<asrwt>0</asrwt>
<pdfrwt beam="1">  1        2 0.12691053E-01 0.10460087E+03</pdfrwt>
<pdfrwt beam="2">  1       -2 0.31964192E-01 0.10460087E+03</pdfrwt>
<totfact> 0.40749164E+03</totfact>
</mgrwt>
</event>
<event>
 4    1  0.1123525E-001  0.8798751E+02  0.7546771E-02  0.1307800E+00
          2   -1    0    0  501    0  0.00000000000E+00  0.00000000000E+00  0.62727835408E+03  0.62727835408E+03  0.00000000000E+00 0. -1.
         -2   -1    0    0    0  501 -0.00000000000E+00 -0.00000000000E+00 -0.12356491821E+02  0.12356491821E+02  0.00000000000E+00 0.  1.
         24    1    1    2    0    0 -0.27677265094E+02  0.22551087444E+02  0.29646570682E+03  0.30924701101E+03  0.80419002446E+02 0.  0.
        -24    1    1    2    0    0  0.27677265094E+02 -0.22551087444E+02  0.31845615544E+03  0.33038783488E+03  0.80419002446E+02 0.  1.
<mgrwt>
<rscale>  0 0.87987502E+02</rscale>
<asrwt>0</asrwt>
<pdfrwt beam="1">  1        2 0.96504338E-01 0.87987513E+02</pdfrwt>
<pdfrwt beam="2">  1       -2 0.19009992E-02 0.87987513E+02</pdfrwt>
<totfact> 0.35620209E+04</totfact>
</mgrwt>
</event>
<event>
 4    1  0.1123525E-001  0.9754679E+02  0.7546771E-02  0.1285541E+00
          3   -1    0    0  501    0  0.00000000000E+00  0.00000000000E+00  0.18474121571E+03  0.18474121571E+03  0.00000000000E+00 0. -1.
         -3   -1    0    0    0  501 -0.00000000000E+00 -0.00000000000E+00 -0.63716067194E+02  0.63716067194E+02  0.00000000000E+00 0.  1.
         24    1    1    2    0    0  0.23356097094E+01  0.55160685357E+02  0.11489361369E+03  0.15071799727E+03  0.80419002446E+02 0. -1.
        -24    1    1    2    0    0 -0.23356097094E+01 -0.55160685357E+02  0.61315348293E+01  0.97739285630E+02  0.80419002446E+02 0.  1.
<mgrwt>
<rscale>  0 0.97546782E+02</rscale>
<asrwt>0</asrwt>
<pdfrwt beam="1">  1        3 0.28421725E-01 0.97546794E+02</pdfrwt>
<pdfrwt beam="2">  1       -3 0.98024719E-02 0.97546794E+02</pdfrwt>
<totfact> 0.19520906E+03</totfact>
</mgrwt>
</event>
<event>
 4    1  0.1123525E-001  0.9750063E+02  0.7546771E-02  0.1285641E+00
          2   -1    0    0  501    0  0.00000000000E+00  0.00000000000E+00  0.10359252941E+04  0.10359252941E+04  0.00000000000E+00 0. -1.
         -2   -1    0    0    0  501 -0.00000000000E+00 -0.00000000000E+00 -0.10855620037E+02  0.10855620037E+02  0.00000000000E+00 0.  1.
         24    1    1    2    0    0  0.11059431486E+02  0.54007828015E+02  0.71836730727E+03  0.72495376447E+03  0.80419002446E+02 0.  1.
        -24    1    1    2    0    0 -0.11059431486E+02 -0.54007828015E+02  0.30670236682E+03  0.32182714969E+03  0.80419002446E+02 0.  0.
<mgrwt>
<rscale>  0 0.97500628E+02</rscale>
<asrwt>0</asrwt>
<pdfrwt beam="1">  1        2 0.15937304E+00 0.97500628E+02</pdfrwt>
<pdfrwt beam="2">  1       -2 0.16700962E-02 0.97500628E+02</pdfrwt>
<totfact> 0.23308743E+04</totfact>
</mgrwt>
</event>
<event>
 4    1  0.1123525E-001  0.1368637E+03  0.7546771E-02  0.1217613E+00
         -4   -1    0    0    0  501 -0.00000000000E+00  0.00000000000E+00  0.19000892060E+03  0.19000892060E+03  0.00000000000E+00 0.  1.
          4   -1    0    0  501    0  0.00000000000E+00 -0.00000000000E+00 -0.25747365087E+03  0.25747365087E+03  0.00000000000E+00 0. -1.
         24    1    1    2    0    0 -0.46316727512E+02  0.10059429380E+03 -0.20949590002E+03  0.25024028308E+03  0.80419002446E+02 0. -1.
        -24    1    1    2    0    0  0.46316727512E+02 -0.10059429380E+03  0.14203116976E+03  0.19724228839E+03  0.80419002446E+02 0.  1.
<mgrwt>
<rscale>  0 0.13686368E+03</rscale>
<asrwt>0</asrwt>
<pdfrwt beam="1">  1        4 0.39611331E-01 0.13686368E+03</pdfrwt>
<pdfrwt beam="2">  1       -4 0.29232142E-01 0.13686368E+03</pdfrwt>
<totfact> 0.11623860E+02</totfact>
</mgrwt>
</event>
<event>
 4    1  0.1123525E-001  0.9306732E+02  0.7546771E-02  0.1295589E+00
          1   -1    0    0  501    0  0.00000000000E+00  0.00000000000E+00  0.54400303699E+03  0.54400303699E+03  0.00000000000E+00 0. -1.
         -1   -1    0    0    0  501 -0.00000000000E+00 -0.00000000000E+00 -0.17563131345E+02  0.17563131345E+02  0.00000000000E+00 0.  1.
         24    1    1    2    0    0  0.77076153478E+01 -0.46205017968E+02  0.17738515781E+03  0.20031730127E+03  0.80419002446E+02 0.  1.
        -24    1    1    2    0    0 -0.77076153478E+01  0.46205017968E+02  0.34905474784E+03  0.36124886707E+03  0.80419002446E+02 0. -1.
<mgrwt>
<rscale>  0 0.93067325E+02</rscale>
<asrwt>0</asrwt>
<pdfrwt beam="1">  1        1 0.83692762E-01 0.93067325E+02</pdfrwt>
<pdfrwt beam="2">  1       -1 0.27020206E-02 0.93067325E+02</pdfrwt>
<totfact> 0.16221122E+04</totfact>
</mgrwt>
</event>
<event>
 4    1  0.1123525E-001  0.1111515E+03  0.7546771E-02  0.1258452E+00
          1   -1    0    0  501    0  0.00000000000E+00  0.00000000000E+00  0.39663881608E+02  0.39663881608E+02  0.00000000000E+00 0. -1.
         -1   -1    0    0    0  501 -0.00000000000E+00 -0.00000000000E+00 -0.36589746158E+03  0.36589746158E+03  0.00000000000E+00 0.  1.
         24    1    1    2    0    0  0.40568515260E+02 -0.65127788476E+02 -0.24131585741E+03  0.26568400828E+03  0.80419002446E+02 0.  1.
        -24    1    1    2    0    0 -0.40568515260E+02  0.65127788476E+02 -0.84917722558E+02  0.13987733491E+03  0.80419002446E+02 0. -1.
<mgrwt>
<rscale>  0 0.11115147E+03</rscale>
<asrwt>0</asrwt>
<pdfrwt beam="1">  1        1 0.61021353E-02 0.11115147E+03</pdfrwt>
<pdfrwt beam="2">  1       -1 0.56291920E-01 0.11115147E+03</pdfrwt>
<totfact> 0.39245108E+03</totfact>
</mgrwt>
</event>
<event>
 4    1  0.1123525E-001  0.8326673E+02  0.7546771E-02  0.1320028E+00
         -1   -1    0    0    0  501 -0.00000000000E+00  0.00000000000E+00  0.77867552553E+02  0.77867552553E+02  0.00000000000E+00 0.  1.
          1   -1    0    0  501    0  0.00000000000E+00 -0.00000000000E+00 -0.95087778154E+02  0.95087778154E+02  0.00000000000E+00 0. -1.
         24    1    1    2    0    0 -0.57789476910E+01 -0.20802245543E+02 -0.30418868889E+02  0.88649045087E+02  0.80419002446E+02 0.  0.
        -24    1    1    2    0    0  0.57789476910E+01  0.20802245543E+02  0.13198643288E+02  0.84306285620E+02  0.80419002446E+02 0.  0.
<mgrwt>
<rscale>  0 0.83266724E+02</rscale>
<asrwt>0</asrwt>
<pdfrwt beam="1">  1        1 0.14628889E-01 0.83266735E+02</pdfrwt>
<pdfrwt beam="2">  1       -1 0.11979624E-01 0.83266735E+02</pdfrwt>
<totfact> 0.15647218E+04</totfact>
</mgrwt>
</event>
<event>
 4    1  0.1123525E-001  0.8742819E+02  0.7546771E-02  0.1309202E+00
          2   -1    0    0  501    0  0.00000000000E+00  0.00000000000E+00  0.46463386607E+03  0.46463386607E+03  0.00000000000E+00 0. -1.
         -2   -1    0    0    0  501 -0.00000000000E+00 -0.00000000000E+00 -0.17842727969E+02  0.17842727969E+02  0.00000000000E+00 0.  1.
         24    1    1    2    0    0  0.20853585692E+02  0.27232341181E+02  0.29076981599E+03  0.30362933700E+03  0.80419002446E+02 0.  1.
        -24    1    1    2    0    0 -0.20853585692E+02 -0.27232341181E+02  0.15602132212E+03  0.17884725704E+03  0.80419002446E+02 0.  1.
<mgrwt>
<rscale>  0 0.87428190E+02</rscale>
<asrwt>0</asrwt>
<pdfrwt beam="1">  1        2 0.71482124E-01 0.87428190E+02</pdfrwt>
<pdfrwt beam="2">  1       -2 0.27450354E-02 0.87428190E+02</pdfrwt>
<totfact> 0.29125723E+04</totfact>
</mgrwt>
</event>
<event>
 4    1  0.1123525E-001  0.2111152E+03  0.7546771E-02  0.1140686E+00
          4   -1    0    0  501    0  0.00000000000E+00  0.00000000000E+00  0.65104739089E+03  0.65104739089E+03  0.00000000000E+00 0. -1.
         -4   -1    0    0    0  501 -0.00000000000E+00 -0.00000000000E+00 -0.80985651262E+02  0.80985651262E+02  0.00000000000E+00 0.  1.
         24    1    1    2    0    0  0.80703078058E+02  0.17773414313E+03  0.42898543992E+03  0.47811937428E+03  0.80419002446E+02 0.  0.
        -24    1    1    2    0    0 -0.80703078058E+02 -0.17773414313E+03  0.14107629971E+03  0.25391366788E+03  0.80419002446E+02 0.  1.
<mgrwt>
<rscale>  0 0.21111520E+03</rscale>
<asrwt>0</asrwt>
<pdfrwt beam="1">  1        4 0.10016113E+00 0.21111520E+03</pdfrwt>
<pdfrwt beam="2">  1       -4 0.12459331E-01 0.21111520E+03</pdfrwt>
<totfact> 0.79384589E+01</totfact>
</mgrwt>
</event>
<event>
 4    1  0.1123525E-001  0.1619260E+03  0.7546771E-02  0.1186539E+00
          2   -1    0    0  501    0  0.00000000000E+00  0.00000000000E+00  0.87231458619E+02  0.87231458619E+02  0.00000000000E+00 0. -1.
         -2   -1    0    0    0  501 -0.00000000000E+00 -0.00000000000E+00 -0.37762817392E+03  0.37762817392E+03  0.00000000000E+00 0.  1.
         24    1    1    2    0    0 -0.12883595998E+03  0.56161588648E+02 -0.40210177471E+02  0.16684394790E+03  0.80419002446E+02 0. -1.
        -24    1    1    2    0    0  0.12883595998E+03 -0.56161588648E+02 -0.25018653783E+03  0.29801568464E+03  0.80419002446E+02 0.  1.
<mgrwt>
<rscale>  0 0.16192605E+03</rscale>
<asrwt>0</asrwt>
<pdfrwt beam="1">  1        2 0.13420224E-01 0.16192605E+03</pdfrwt>
<pdfrwt beam="2">  1       -2 0.58096642E-01 0.16192605E+03</pdfrwt>
<totfact> 0.12382775E+03</totfact>
</mgrwt>
</event>
<event>
 4    1  0.1123525E-001  0.8059399E+02  0.7546771E-02  0.1327374E+00
         -3   -1    0    0    0  501 -0.00000000000E+00  0.00000000000E+00  0.65959841349E+02  0.65959841349E+02  0.00000000000E+00 0.  1.
          3   -1    0    0  501    0  0.00000000000E+00 -0.00000000000E+00 -0.11678963974E+03  0.11678963974E+03  0.00000000000E+00 0. -1.
         24    1    1    2    0    0  0.15667365226E+00 -0.53056818128E+01  0.10769720905E+02  0.81310378482E+02  0.80419002446E+02 0.  1.
        -24    1    1    2    0    0 -0.15667365226E+00  0.53056818128E+01 -0.61599519298E+02  0.10143910261E+03  0.80419002446E+02 0.  0.
<mgrwt>
<rscale>  0 0.80593987E+02</rscale>
<asrwt>0</asrwt>
<pdfrwt beam="1">  1        3 0.17967637E-01 0.80593987E+02</pdfrwt>
<pdfrwt beam="2">  1       -3 0.10147668E-01 0.80593987E+02</pdfrwt>
<totfact> 0.39853798E+03</totfact>
</mgrwt>
</event>
<event>
 4    1  0.1123525E-001  0.1054471E+03  0.7546771E-02  0.1269241E+00
         -3   -1    0    0    0  501 -0.00000000000E+00  0.00000000000E+00  0.19201512795E+03  0.19201512795E+03  0.00000000000E+00 0.  1.
          3   -1    0    0  501    0  0.00000000000E+00 -0.00000000000E+00 -0.13984785869E+03  0.13984785869E+03  0.00000000000E+00 0. -1.
         24    1    1    2    0    0  0.32706461425E+02 -0.59851130587E+02  0.15309724186E+03  0.18589742298E+03  0.80419002446E+02 0.  1.
        -24    1    1    2    0    0 -0.32706461425E+02  0.59851130587E+02 -0.10092997260E+03  0.14596556366E+03  0.80419002446E+02 0. -1.
<mgrwt>
<rscale>  0 0.10544708E+03</rscale>
<asrwt>0</asrwt>
<pdfrwt beam="1">  1        3 0.21515055E-01 0.10544708E+03</pdfrwt>
<pdfrwt beam="2">  1       -3 0.29540789E-01 0.10544708E+03</pdfrwt>
<totfact> 0.48613196E+02</totfact>
</mgrwt>
</event>
<event>
 4    1  0.1123525E-001  0.9443122E+02  0.7546771E-02  0.1292462E+00
          2   -1    0    0  501    0  0.00000000000E+00  0.00000000000E+00  0.81300769007E+03  0.81300769007E+03  0.00000000000E+00 0. -1.
         -2   -1    0    0    0  501 -0.00000000000E+00 -0.00000000000E+00 -0.15285410348E+02  0.15285410348E+02  0.00000000000E+00 0.  1.
         24    1    1    2    0    0  0.47391042254E+02  0.14287366404E+02  0.61895887397E+03  0.62612086960E+03  0.80419002446E+02 0. -1.
        -24    1    1    2    0    0 -0.47391042254E+02 -0.14287366404E+02  0.17876340576E+03  0.20217223083E+03  0.80419002446E+02 0.  1.
<mgrwt>
<rscale>  0 0.94431222E+02</rscale>
<asrwt>0</asrwt>
<pdfrwt beam="1">  1        2 0.12507807E+00 0.94431222E+02</pdfrwt>
<pdfrwt beam="2">  1       -2 0.23516022E-02 0.94431222E+02</pdfrwt>
<totfact> 0.19471146E+04</totfact>
</mgrwt>
</event>
<event>
 4    1  0.1123525E-001  0.1535801E+03  0.7546771E-02  0.1196142E+00
          2   -1    0    0  501    0  0.00000000000E+00  0.00000000000E+00  0.13301621086E+03  0.13301621086E+03  0.00000000000E+00 0. -1.
         -2   -1    0    0    0  501 -0.00000000000E+00 -0.00000000000E+00 -0.20516488475E+03  0.20516488475E+03  0.00000000000E+00 0.  1.
         24    1    1    2    0    0  0.11983920886E+03  0.52518493521E+02  0.26215402416E+02  0.15580144871E+03  0.80419002446E+02 0.  0.
        -24    1    1    2    0    0 -0.11983920886E+03 -0.52518493521E+02 -0.98364076301E+02  0.18237964690E+03  0.80419002446E+02 0.  1.
<mgrwt>
<rscale>  0 0.15358009E+03</rscale>
<asrwt>0</asrwt>
<pdfrwt beam="1">  1        2 0.20464033E-01 0.15358009E+03</pdfrwt>
<pdfrwt beam="2">  1       -2 0.31563828E-01 0.15358009E+03</pdfrwt>
<totfact> 0.24510593E+03</totfact>
</mgrwt>
</event>
<event>
 4    1  0.1123525E-001  0.1182277E+03  0.7546771E-02  0.1246050E+00
          2   -1    0    0  501    0  0.00000000000E+00  0.00000000000E+00  0.26428179791E+03  0.26428179791E+03  0.00000000000E+00 0. -1.
         -2   -1    0    0    0  501 -0.00000000000E+00 -0.00000000000E+00 -0.55675930687E+02  0.55675930687E+02  0.00000000000E+00 0.  1.
         24    1    1    2    0    0 -0.26124660444E+02  0.82632222714E+02  0.14009061402E+03  0.18331169686E+03  0.80419002446E+02 0.  1.
        -24    1    1    2    0    0  0.26124660444E+02 -0.82632222714E+02  0.68515253200E+02  0.13664603174E+03  0.80419002446E+02 0. -1.
<mgrwt>
<rscale>  0 0.11822774E+03</rscale>
<asrwt>0</asrwt>
<pdfrwt beam="1">  1        2 0.40658737E-01 0.11822774E+03</pdfrwt>
<pdfrwt beam="2">  1       -2 0.85655280E-02 0.11822774E+03</pdfrwt>
<totfact> 0.99626480E+03</totfact>
</mgrwt>
</event>
<event>
 4    1  0.1123525E-001  0.8123703E+02  0.7546771E-02  0.1325577E+00
          2   -1    0    0  501    0  0.00000000000E+00  0.00000000000E+00  0.45120476667E+04  0.45120476667E+04  0.00000000000E+00 0. -1.
         -2   -1    0    0    0  501 -0.00000000000E+00 -0.00000000000E+00 -0.20203147851E+01  0.20203147851E+01  0.00000000000E+00 0.  1.
         24    1    1    2    0    0 -0.53782715253E+01 -0.10164286970E+02  0.34408455813E+04  0.34418044350E+04  0.80419002446E+02 0. -1.
        -24    1    1    2    0    0  0.53782715253E+01  0.10164286970E+02  0.10691817706E+04  0.10722635465E+04  0.80419002446E+02 0.  0.
<mgrwt>
<rscale>  0 0.81237027E+02</rscale>
<asrwt>0</asrwt>
<pdfrwt beam="1">  1        2 0.69415311E+00 0.81237027E+02</pdfrwt>
<pdfrwt beam="2">  1       -2 0.31082127E-03 0.81237027E+02</pdfrwt>
<totfact> 0.20267005E+03</totfact>
</mgrwt>
</event>
<event>
 4    1  0.1123525E-001  0.1372104E+03  0.7546771E-02  0.1217133E+00
         -2   -1    0    0    0  501 -0.00000000000E+00  0.00000000000E+00  0.10848323516E+03  0.10848323516E+03  0.00000000000E+00 0.  1.
          2   -1    0    0  501    0  0.00000000000E+00 -0.00000000000E+00 -0.17627968275E+03  0.17627968275E+03  0.00000000000E+00 0. -1.
         24    1    1    2    0    0  0.21054861430E+02  0.10916115140E+03 -0.16162978427E+02  0.13815904600E+03  0.80419002446E+02 0. -1.
        -24    1    1    2    0    0 -0.21054861430E+02 -0.10916115140E+03 -0.51633469165E+02  0.14660387191E+03  0.80419002446E+02 0.  1.
<mgrwt>
<rscale>  0 0.13721037E+03</rscale>
<asrwt>0</asrwt>
<pdfrwt beam="1">  1        2 0.27119951E-01 0.13721038E+03</pdfrwt>
<pdfrwt beam="2">  1       -2 0.16689729E-01 0.13721038E+03</pdfrwt>
<totfact> 0.53633778E+03</totfact>
</mgrwt>
</event>
<event>
 4    1  0.1123525E-001  0.8105693E+02  0.7546771E-02  0.1326079E+00
          2   -1    0    0  501    0  0.00000000000E+00  0.00000000000E+00  0.24837956708E+04  0.24837956708E+04  0.00000000000E+00 0. -1.
         -2   -1    0    0    0  501 -0.00000000000E+00 -0.00000000000E+00 -0.52874125613E+01  0.52874125613E+01  0.00000000000E+00 0.  1.
         24    1    1    2    0    0  0.91025107170E+01  0.44892717603E+01  0.21190232873E+04  0.21205730162E+04  0.80419002446E+02 0.  0.
        -24    1    1    2    0    0 -0.91025107170E+01 -0.44892717603E+01  0.35948497096E+03  0.36851006712E+03  0.80419002446E+02 0.  1.
<mgrwt>
<rscale>  0 0.81056926E+02</rscale>
<asrwt>0</asrwt>
<pdfrwt beam="1">  1        2 0.38212148E+00 0.81056926E+02</pdfrwt>
<pdfrwt beam="2">  1       -2 0.81345007E-03 0.81056926E+02</pdfrwt>
<totfact> 0.11441474E+04</totfact>
</mgrwt>
</event>
<event>
 4    1  0.1123525E-001  0.1462830E+03  0.7546771E-02  0.1205116E+00
         -1   -1    0    0    0  501 -0.00000000000E+00  0.00000000000E+00  0.11382411906E+03  0.11382411906E+03  0.00000000000E+00 0.  1.
          1   -1    0    0  501    0  0.00000000000E+00 -0.00000000000E+00 -0.25566049911E+03  0.25566049911E+03  0.00000000000E+00 0. -1.
         24    1    1    2    0    0 -0.91388305606E+02 -0.81115210267E+02  0.24122223203E+02  0.14825854898E+03  0.80419002446E+02 0.  0.
        -24    1    1    2    0    0  0.91388305606E+02  0.81115210267E+02 -0.16595860326E+03  0.22122606919E+03  0.80419002446E+02 0. -1.
<mgrwt>
<rscale>  0 0.14628300E+03</rscale>
<asrwt>0</asrwt>
<pdfrwt beam="1">  1        1 0.39332385E-01 0.14628300E+03</pdfrwt>
<pdfrwt beam="2">  1       -1 0.17511403E-01 0.14628300E+03</pdfrwt>
<totfact> 0.26195017E+03</totfact>
</mgrwt>
</event>
<event>
 4    1  0.1123525E-001  0.1833404E+03  0.7546771E-02  0.1164609E+00
         -2   -1    0    0    0  501 -0.00000000000E+00  0.00000000000E+00  0.23209309529E+02  0.23209309529E+02  0.00000000000E+00 0.  1.
          2   -1    0    0  501    0  0.00000000000E+00 -0.00000000000E+00 -0.15938593747E+04  0.15938593747E+04  0.00000000000E+00 0. -1.
         24    1    1    2    0    0  0.16463416261E+03  0.64880547358E+01 -0.10296762064E+04  0.10458713154E+04  0.80419002446E+02 0.  1.
        -24    1    1    2    0    0 -0.16463416261E+03 -0.64880547358E+01 -0.54097385874E+03  0.57119736882E+03  0.80419002446E+02 0. -1.
<mgrwt>
<rscale>  0 0.18334044E+03</rscale>
<asrwt>0</asrwt>
<pdfrwt beam="1">  1        2 0.24520914E+00 0.18334044E+03</pdfrwt>
<pdfrwt beam="2">  1       -2 0.35706629E-02 0.18334044E+03</pdfrwt>
<totfact> 0.39496172E+03</totfact>
</mgrwt>
</event>
<event>
 4    1  0.1123525E-001  0.8242452E+02  0.7546771E-02  0.1322308E+00
          2   -1    0    0  501    0  0.00000000000E+00  0.00000000000E+00  0.11931241139E+04  0.11931241139E+04  0.00000000000E+00 0. -1.
         -2   -1    0    0    0  501 -0.00000000000E+00 -0.00000000000E+00 -0.10184930195E+02  0.10184930195E+02  0.00000000000E+00 0.  1.
         24    1    1    2    0    0 -0.14653818096E+02  0.10575937727E+02  0.99098188323E+03  0.99440378805E+03  0.80419002446E+02 0. -1.
        -24    1    1    2    0    0  0.14653818096E+02 -0.10575937727E+02  0.19195730049E+03  0.20890525606E+03  0.80419002446E+02 0.  1.
<mgrwt>
<rscale>  0 0.82424516E+02</rscale>
<asrwt>0</asrwt>
<pdfrwt beam="1">  1        2 0.18355745E+00 0.82424516E+02</pdfrwt>
<pdfrwt beam="2">  1       -2 0.15669133E-02 0.82424516E+02</pdfrwt>
<totfact> 0.20561615E+04</totfact>
</mgrwt>
</event>
<event>
 4    1  0.1123525E-001  0.1066238E+03  0.7546771E-02  0.1266953E+00
          2   -1    0    0  501    0  0.00000000000E+00  0.00000000000E+00  0.66762245865E+03  0.66762245865E+03  0.00000000000E+00 0. -1.
         -2   -1    0    0    0  501 -0.00000000000E+00 -0.00000000000E+00 -0.32871013554E+02  0.32871013554E+02  0.00000000000E+00 0.  1.
         24    1    1    2    0    0 -0.57681646149E+02 -0.39676714956E+02  0.56052845990E+03  0.57057934095E+03  0.80419002446E+02 0. -1.
        -24    1    1    2    0    0  0.57681646149E+02  0.39676714956E+02  0.74222985196E+02  0.12991413125E+03  0.80419002446E+02 0.  1.
<mgrwt>
<rscale>  0 0.10662378E+03</rscale>
<asrwt>0</asrwt>
<pdfrwt beam="1">  1        2 0.10271114E+00 0.10662378E+03</pdfrwt>
<pdfrwt beam="2">  1       -2 0.50570795E-02 0.10662378E+03</pdfrwt>
<totfact> 0.80872770E+03</totfact>
</mgrwt>
</event>
<event>
 4    1  0.1123525E-001  0.8489678E+02  0.7546771E-02  0.1315703E+00
         -1   -1    0    0    0  501 -0.00000000000E+00  0.00000000000E+00  0.37739762590E+02  0.37739762590E+02  0.00000000000E+00 0.  1.
          1   -1    0    0  501    0  0.00000000000E+00 -0.00000000000E+00 -0.26933301895E+03  0.26933301895E+03  0.00000000000E+00 0. -1.
         24    1    1    2    0    0  0.17338363423E+02 -0.20967336707E+02 -0.32983352225E+02  0.91078897299E+02  0.80419002446E+02 0.  1.
        -24    1    1    2    0    0 -0.17338363423E+02  0.20967336707E+02 -0.19860990414E+03  0.21599388424E+03  0.80419002446E+02 0. -1.
<mgrwt>
<rscale>  0 0.84896784E+02</rscale>
<asrwt>0</asrwt>
<pdfrwt beam="1">  1        1 0.41435850E-01 0.84896784E+02</pdfrwt>
<pdfrwt beam="2">  1       -1 0.58061172E-02 0.84896784E+02</pdfrwt>
<totfact> 0.12712142E+04</totfact>
</mgrwt>
</event>
<event>
 4    1  0.1123525E-001  0.8657615E+02  0.7546771E-02  0.1311361E+00
          1   -1    0    0  501    0  0.00000000000E+00  0.00000000000E+00  0.21234377997E+03  0.21234377997E+03  0.00000000000E+00 0. -1.
         -1   -1    0    0    0  501 -0.00000000000E+00 -0.00000000000E+00 -0.37312547949E+02  0.37312547949E+02  0.00000000000E+00 0.  1.
         24    1    1    2    0    0 -0.96474984686E+01  0.30579998444E+02  0.11651676296E+03  0.14516054056E+03  0.80419002446E+02 0.  0.
        -24    1    1    2    0    0  0.96474984686E+01 -0.30579998444E+02  0.58514469066E+02  0.10449578736E+03  0.80419002446E+02 0.  0.
<mgrwt>
<rscale>  0 0.86576142E+02</rscale>
<asrwt>0</asrwt>
<pdfrwt beam="1">  1        1 0.32668273E-01 0.86576153E+02</pdfrwt>
<pdfrwt beam="2">  1       -1 0.57403921E-02 0.86576153E+02</pdfrwt>
<totfact> 0.17306566E+04</totfact>
</mgrwt>
</event>
<event>
 4    1  0.1123525E-001  0.1025634E+03  0.7546771E-02  0.1274996E+00
          2   -1    0    0  501    0  0.00000000000E+00  0.00000000000E+00  0.12149953878E+03  0.12149953878E+03  0.00000000000E+00 0. -1.
         -2   -1    0    0    0  501 -0.00000000000E+00 -0.00000000000E+00 -0.25113783980E+03  0.25113783980E+03  0.00000000000E+00 0.  1.
         24    1    1    2    0    0 -0.30796400402E+02 -0.55710176351E+02  0.86001740103E+02  0.13384900927E+03  0.80419002446E+02 0. -1.
        -24    1    1    2    0    0  0.30796400402E+02  0.55710176351E+02 -0.21564004112E+03  0.23878836931E+03  0.80419002446E+02 0.  1.
<mgrwt>
<rscale>  0 0.10256343E+03</rscale>
<asrwt>0</asrwt>
<pdfrwt beam="1">  1        2 0.18692237E-01 0.10256343E+03</pdfrwt>
<pdfrwt beam="2">  1       -2 0.38636591E-01 0.10256343E+03</pdfrwt>
<totfact> 0.18350949E+03</totfact>
</mgrwt>
</event>
<event>
 4    1  0.1123525E-001  0.1199225E+03  0.7546771E-02  0.1243225E+00
         -1   -1    0    0    0  501 -0.00000000000E+00  0.00000000000E+00  0.26304257316E+02  0.26304257316E+02  0.00000000000E+00 0.  1.
          1   -1    0    0  501    0  0.00000000000E+00 -0.00000000000E+00 -0.62188005412E+03  0.62188005412E+03  0.00000000000E+00 0. -1.
         24    1    1    2    0    0 -0.62651358438E+02 -0.63158539113E+02 -0.18512764528E+03  0.22057573479E+03  0.80419002446E+02 0.  1.
        -24    1    1    2    0    0  0.62651358438E+02  0.63158539113E+02 -0.41044815152E+03  0.42760857665E+03  0.80419002446E+02 0. -1.
<mgrwt>
<rscale>  0 0.11992252E+03</rscale>
<asrwt>0</asrwt>
<pdfrwt beam="1">  1        1 0.95673845E-01 0.11992252E+03</pdfrwt>
<pdfrwt beam="2">  1       -1 0.40468092E-02 0.11992252E+03</pdfrwt>
<totfact> 0.77000747E+03</totfact>
</mgrwt>
</event>
<event>
 4    1  0.1123525E-001  0.1128835E+03  0.7546771E-02  0.1255321E+00
          3   -1    0    0  501    0  0.00000000000E+00  0.00000000000E+00  0.20245363353E+03  0.20245363353E+03  0.00000000000E+00 0. -1.
         -3   -1    0    0    0  501 -0.00000000000E+00 -0.00000000000E+00 -0.69908852940E+02  0.69908852940E+02  0.00000000000E+00 0.  1.
         24    1    1    2    0    0 -0.45305605052E+02  0.64983604630E+02  0.23279838347E+02  0.11525898467E+03  0.80419002446E+02 0.  1.
        -24    1    1    2    0    0  0.45305605052E+02 -0.64983604630E+02  0.10926494225E+03  0.15710350180E+03  0.80419002446E+02 0. -1.
<mgrwt>
<rscale>  0 0.11288349E+03</rscale>
<asrwt>0</asrwt>
<pdfrwt beam="1">  1        3 0.31146713E-01 0.11288349E+03</pdfrwt>
<pdfrwt beam="2">  1       -3 0.10755208E-01 0.11288349E+03</pdfrwt>
<totfact> 0.14557705E+03</totfact>
</mgrwt>
</event>
<event>
 4    1  0.1123525E-001  0.1804675E+03  0.7546771E-02  0.1167351E+00
          1   -1    0    0  501    0  0.00000000000E+00  0.00000000000E+00  0.18059575053E+03  0.18059575053E+03  0.00000000000E+00 0. -1.
         -1   -1    0    0    0  501 -0.00000000000E+00 -0.00000000000E+00 -0.21899667114E+03  0.21899667114E+03  0.00000000000E+00 0.  1.
         24    1    1    2    0    0  0.14036208730E+02  0.16094807264E+03 -0.10314348002E+03  0.20786315370E+03  0.80419002446E+02 0.  1.
        -24    1    1    2    0    0 -0.14036208730E+02 -0.16094807264E+03  0.64742559411E+02  0.19172926797E+03  0.80419002446E+02 0. -1.
<mgrwt>
<rscale>  0 0.18046749E+03</rscale>
<asrwt>0</asrwt>
<pdfrwt beam="1">  1        1 0.27783962E-01 0.18046749E+03</pdfrwt>
<pdfrwt beam="2">  1       -1 0.33691795E-01 0.18046749E+03</pdfrwt>
<totfact> 0.13838232E+03</totfact>
</mgrwt>
</event>
<event>
 4    1  0.1123525E-001  0.9598571E+02  0.7546771E-02  0.1288971E+00
          2   -1    0    0  501    0  0.00000000000E+00  0.00000000000E+00  0.10784703823E+04  0.10784703823E+04  0.00000000000E+00 0. -1.
         -2   -1    0    0    0  501 -0.00000000000E+00 -0.00000000000E+00 -0.85429461373E+01  0.85429461373E+01  0.00000000000E+00 0.  1.
         24    1    1    2    0    0  0.28492954029E+01 -0.52325161493E+02  0.53632059107E+03  0.54484220960E+03  0.80419002446E+02 0.  1.
        -24    1    1    2    0    0 -0.28492954029E+01  0.52325161493E+02  0.53360684511E+03  0.54217111884E+03  0.80419002446E+02 0. -1.
<mgrwt>
<rscale>  0 0.95985712E+02</rscale>
<asrwt>0</asrwt>
<pdfrwt beam="1">  1        2 0.16591841E+00 0.95985712E+02</pdfrwt>
<pdfrwt beam="2">  1       -2 0.13143003E-02 0.95985712E+02</pdfrwt>
<totfact> 0.30986913E+04</totfact>
</mgrwt>
</event>
<event>
 4    1  0.1123525E-001  0.8922560E+02  0.7546771E-02  0.1304738E+00
          2   -1    0    0  501    0  0.00000000000E+00  0.00000000000E+00  0.77542882976E+03  0.77542882976E+03  0.00000000000E+00 0. -1.
         -2   -1    0    0    0  501 -0.00000000000E+00 -0.00000000000E+00 -0.26250974800E+02  0.26250974800E+02  0.00000000000E+00 0.  1.
         24    1    1    2    0    0 -0.77677998199E+00  0.38644342965E+02  0.61806186065E+02  0.10854127888E+03  0.80419002446E+02 0.  1.
        -24    1    1    2    0    0  0.77677998199E+00 -0.38644342965E+02  0.68737166890E+03  0.69313852568E+03  0.80419002446E+02 0.  0.
<mgrwt>
<rscale>  0 0.89225594E+02</rscale>
<asrwt>0</asrwt>
<pdfrwt beam="1">  1        2 0.11929673E+00 0.89225605E+02</pdfrwt>
<pdfrwt beam="2">  1       -2 0.40386121E-02 0.89225605E+02</pdfrwt>
<totfact> 0.93424626E+03</totfact>
</mgrwt>
</event>
<event>
 4    1  0.1123525E-001  0.8680932E+02  0.7546771E-02  0.1310768E+00
          2   -1    0    0  501    0  0.00000000000E+00  0.00000000000E+00  0.10027372906E+04  0.10027372906E+04  0.00000000000E+00 0. -1.
         -2   -1    0    0    0  501 -0.00000000000E+00 -0.00000000000E+00 -0.10053989929E+02  0.10053989929E+02  0.00000000000E+00 0.  1.
         24    1    1    2    0    0 -0.14489639952E+02  0.29303439278E+02  0.75080590964E+03  0.75580776069E+03  0.80419002446E+02 0. -1.
        -24    1    1    2    0    0  0.14489639952E+02 -0.29303439278E+02  0.24187739100E+03  0.25698351980E+03  0.80419002446E+02 0.  1.
<mgrwt>
<rscale>  0 0.86809315E+02</rscale>
<asrwt>0</asrwt>
<pdfrwt beam="1">  1        2 0.15426720E+00 0.86809315E+02</pdfrwt>
<pdfrwt beam="2">  1       -2 0.15467685E-02 0.86809315E+02</pdfrwt>
<totfact> 0.26907736E+04</totfact>
</mgrwt>
</event>
<event>
 4    1  0.1477639E-001  0.9784187E+02  0.7546771E-02  0.1284901E+00
          1   -1    0    0  501    0  0.00000000000E+00  0.00000000000E+00  0.13395219846E+04  0.13395219846E+04  0.00000000000E+00 0. -1.
         -1   -1    0    0    0  501 -0.00000000000E+00 -0.00000000000E+00 -0.24255793922E+02  0.24255793922E+02  0.00000000000E+00 0.  1.
         24    1    1    2    0    0  0.55416845710E+02  0.58981723073E+01  0.84941763823E+02  0.12956903342E+03  0.80419002446E+02 0.  1.
        -24    1    1    2    0    0 -0.55416845710E+02 -0.58981723073E+01  0.12303244269E+04  0.12342087451E+04  0.80419002446E+02 0. -1.
<mgrwt>
<rscale>  0 0.97841868E+02</rscale>
<asrwt>0</asrwt>
<pdfrwt beam="1">  1        1 0.20608025E+00 0.97841868E+02</pdfrwt>
<pdfrwt beam="2">  1       -1 0.37316616E-02 0.97841868E+02</pdfrwt>
<totfact> 0.24708256E+03</totfact>
</mgrwt>
</event>
<event>
 4    1  0.1123525E-001  0.8669572E+02  0.7546771E-02  0.1311057E+00
          1   -1    0    0  501    0  0.00000000000E+00  0.00000000000E+00  0.26708985323E+03  0.26708985323E+03  0.00000000000E+00 0. -1.
         -1   -1    0    0    0  501 -0.00000000000E+00 -0.00000000000E+00 -0.48966885906E+02  0.48966885906E+02  0.00000000000E+00 0.  1.
         24    1    1    2    0    0  0.18479436443E+02  0.26597799640E+02  0.60023193613E+01  0.86903258334E+02  0.80419002446E+02 0.  0.
        -24    1    1    2    0    0 -0.18479436443E+02 -0.26597799640E+02  0.21212064796E+03  0.22915348080E+03  0.80419002446E+02 0.  0.
<mgrwt>
<rscale>  0 0.86695723E+02</rscale>
<asrwt>0</asrwt>
<pdfrwt beam="1">  1        1 0.41090746E-01 0.86695723E+02</pdfrwt>
<pdfrwt beam="2">  1       -1 0.75333672E-02 0.86695723E+02</pdfrwt>
<totfact> 0.87579795E+03</totfact>
</mgrwt>
</event>
<event>
 4    1  0.1123525E-001  0.1214177E+03  0.7546771E-02  0.1240776E+00
         -1   -1    0    0    0  501 -0.00000000000E+00  0.00000000000E+00  0.14312460256E+03  0.14312460256E+03  0.00000000000E+00 0.  1.
          1   -1    0    0  501    0  0.00000000000E+00 -0.00000000000E+00 -0.25686708949E+03  0.25686708949E+03  0.00000000000E+00 0. -1.
         24    1    1    2    0    0 -0.65269354935E+02  0.63363738558E+02  0.97916059598E+02  0.15598019983E+03  0.80419002446E+02 0.  1.
        -24    1    1    2    0    0  0.65269354935E+02 -0.63363738558E+02 -0.21165854653E+03  0.24401149221E+03  0.80419002446E+02 0. -1.
<mgrwt>
<rscale>  0 0.12141774E+03</rscale>
<asrwt>0</asrwt>
<pdfrwt beam="1">  1        1 0.39518014E-01 0.12141774E+03</pdfrwt>
<pdfrwt beam="2">  1       -1 0.22019170E-01 0.12141774E+03</pdfrwt>
<totfact> 0.17916873E+03</totfact>
</mgrwt>
</event>
<event>
 4    1  0.1123525E-001  0.8452192E+02  0.7546771E-02  0.1316688E+00
          2   -1    0    0  501    0  0.00000000000E+00  0.00000000000E+00  0.34408331285E+03  0.34408331285E+03  0.00000000000E+00 0. -1.
         -2   -1    0    0    0  501 -0.00000000000E+00 -0.00000000000E+00 -0.24560225512E+02  0.24560225512E+02  0.00000000000E+00 0.  1.
         24    1    1    2    0    0  0.24177901759E+02 -0.96004248062E+01  0.23224429342E+03  0.24714644823E+03  0.80419002446E+02 0. -1.
        -24    1    1    2    0    0 -0.24177901759E+02  0.96004248062E+01  0.87278793922E+02  0.12149709014E+03  0.80419002446E+02 0.  1.
<mgrwt>
<rscale>  0 0.84521920E+02</rscale>
<asrwt>0</asrwt>
<pdfrwt beam="1">  1        2 0.52935891E-01 0.84521920E+02</pdfrwt>
<pdfrwt beam="2">  1       -2 0.37784965E-02 0.84521920E+02</pdfrwt>
<totfact> 0.24998227E+04</totfact>
</mgrwt>
</event>
<event>
 4    1  0.1123525E-001  0.8799197E+02  0.7546771E-02  0.1307789E+00
         -1   -1    0    0    0  501 -0.00000000000E+00  0.00000000000E+00  0.13000854484E+03  0.13000854484E+03  0.00000000000E+00 0.  1.
          1   -1    0    0  501    0  0.00000000000E+00 -0.00000000000E+00 -0.12135236477E+03  0.12135236477E+03  0.00000000000E+00 0. -1.
         24    1    1    2    0    0 -0.17301203499E+02 -0.31241624643E+02  0.94015307553E+02  0.12876903650E+03  0.80419002446E+02 0.  1.
        -24    1    1    2    0    0  0.17301203499E+02  0.31241624643E+02 -0.85359127481E+02  0.12259187311E+03  0.80419002446E+02 0. -1.
<mgrwt>
<rscale>  0 0.87991970E+02</rscale>
<asrwt>0</asrwt>
<pdfrwt beam="1">  1        1 0.18669594E-01 0.87991970E+02</pdfrwt>
<pdfrwt beam="2">  1       -1 0.20001315E-01 0.87991970E+02</pdfrwt>
<totfact> 0.52085608E+03</totfact>
</mgrwt>
</event>
<event>
 4    1  0.1123525E-001  0.9904502E+02  0.7546771E-02  0.1282317E+00
          2   -1    0    0  501    0  0.00000000000E+00  0.00000000000E+00  0.11884456368E+04  0.11884456368E+04  0.00000000000E+00 0. -1.
         -2   -1    0    0    0  501 -0.00000000000E+00 -0.00000000000E+00 -0.19601038309E+02  0.19601038309E+02  0.00000000000E+00 0.  1.
         24    1    1    2    0    0 -0.87008016727E+01 -0.57157643634E+02  0.10439880096E+04  0.10486757746E+04  0.80419002446E+02 0. -1.
        -24    1    1    2    0    0  0.87008016727E+01  0.57157643634E+02  0.12485658894E+03  0.15937090051E+03  0.80419002446E+02 0.  1.
<mgrwt>
<rscale>  0 0.99045021E+02</rscale>
<asrwt>0</asrwt>
<pdfrwt beam="1">  1        2 0.18283773E+00 0.99045021E+02</pdfrwt>
<pdfrwt beam="2">  1       -2 0.30155453E-02 0.99045021E+02</pdfrwt>
<totfact> 0.81592055E+03</totfact>
</mgrwt>
</event>
<event>
 4    1  0.1123525E-001  0.1300171E+03  0.7546771E-02  0.1227430E+00
          1   -1    0    0  501    0  0.00000000000E+00  0.00000000000E+00  0.50914645195E+03  0.50914645195E+03  0.00000000000E+00 0. -1.
         -1   -1    0    0    0  501 -0.00000000000E+00 -0.00000000000E+00 -0.55989711100E+02  0.55989711100E+02  0.00000000000E+00 0.  1.
         24    1    1    2    0    0  0.75926945425E+02 -0.68354380928E+02  0.46308198295E+02  0.13801770762E+03  0.80419002446E+02 0.  1.
        -24    1    1    2    0    0 -0.75926945425E+02  0.68354380928E+02  0.40684854255E+03  0.42711845543E+03  0.80419002446E+02 0. -1.
<mgrwt>
<rscale>  0 0.13001707E+03</rscale>
<asrwt>0</asrwt>
<pdfrwt beam="1">  1        1 0.78330220E-01 0.13001707E+03</pdfrwt>
<pdfrwt beam="2">  1       -1 0.86138020E-02 0.13001707E+03</pdfrwt>
<totfact> 0.32864748E+03</totfact>
</mgrwt>
</event>
<event>
 4    1  0.1123525E-001  0.1160399E+03  0.7546771E-02  0.1249777E+00
         -2   -1    0    0    0  501 -0.00000000000E+00  0.00000000000E+00  0.83729074810E+01  0.83729074810E+01  0.00000000000E+00 0.  1.
          2   -1    0    0  501    0  0.00000000000E+00 -0.00000000000E+00 -0.16555196077E+04  0.16555196077E+04  0.00000000000E+00 0. -1.
         24    1    1    2    0    0  0.29683103356E+02 -0.78210909709E+02 -0.96423704303E+03  0.97119427723E+03  0.80419002446E+02 0. -1.
        -24    1    1    2    0    0 -0.29683103356E+02  0.78210909709E+02 -0.68290965724E+03  0.69269823800E+03  0.80419002446E+02 0.  1.
<mgrwt>
<rscale>  0 0.11603986E+03</rscale>
<asrwt>0</asrwt>
<pdfrwt beam="1">  1        2 0.25469537E+00 0.11603986E+03</pdfrwt>
<pdfrwt beam="2">  1       -2 0.12881394E-02 0.11603986E+03</pdfrwt>
<totfact> 0.15994547E+04</totfact>
</mgrwt>
</event>
<event>
 4    1  0.1123525E-001  0.8194428E+02  0.7546771E-02  0.1323623E+00
          3   -1    0    0  501    0  0.00000000000E+00  0.00000000000E+00  0.24845227820E+02  0.24845227820E+02  0.00000000000E+00 0. -1.
         -3   -1    0    0    0  501 -0.00000000000E+00 -0.00000000000E+00 -0.34354442086E+03  0.34354442086E+03  0.00000000000E+00 0.  1.
         24    1    1    2    0    0  0.11700402789E+02 -0.10523772421E+02 -0.24441807741E+03  0.25778879288E+03  0.80419002446E+02 0.  0.
        -24    1    1    2    0    0 -0.11700402789E+02  0.10523772421E+02 -0.74281115626E+02  0.11060085580E+03  0.80419002446E+02 0.  0.
<mgrwt>
<rscale>  0 0.81944281E+02</rscale>
<asrwt>0</asrwt>
<pdfrwt beam="1">  1        3 0.38223428E-02 0.81944281E+02</pdfrwt>
<pdfrwt beam="2">  1       -3 0.52852987E-01 0.81944281E+02</pdfrwt>
<totfact> 0.25773738E+03</totfact>
</mgrwt>
</event>
<event>
 4    1  0.1123525E-001  0.1285228E+03  0.7546771E-02  0.1229664E+00
          1   -1    0    0  501    0  0.00000000000E+00  0.00000000000E+00  0.92430452212E+02  0.92430452212E+02  0.00000000000E+00 0. -1.
         -1   -1    0    0    0  501 -0.00000000000E+00 -0.00000000000E+00 -0.24681474718E+03  0.24681474718E+03  0.00000000000E+00 0.  1.
         24    1    1    2    0    0 -0.47665420127E+02  0.88198125105E+02 -0.16629493513E+03  0.21017165116E+03  0.80419002446E+02 0.  1.
        -24    1    1    2    0    0  0.47665420127E+02 -0.88198125105E+02  0.11910640166E+02  0.12907354823E+03  0.80419002446E+02 0. -1.
<mgrwt>
<rscale>  0 0.12852283E+03</rscale>
<asrwt>0</asrwt>
<pdfrwt beam="1">  1        1 0.14220069E-01 0.12852283E+03</pdfrwt>
<pdfrwt beam="2">  1       -1 0.37971500E-01 0.12852283E+03</pdfrwt>
<totfact> 0.26150416E+03</totfact>
</mgrwt>
</event>
<event>
 4    1  0.1123525E-001  0.8429911E+02  0.7546771E-02  0.1317276E+00
          2   -1    0    0  501    0  0.00000000000E+00  0.00000000000E+00  0.79483733956E+03  0.79483733956E+03  0.00000000000E+00 0. -1.
         -2   -1    0    0    0  501 -0.00000000000E+00 -0.00000000000E+00 -0.14377287691E+02  0.14377287691E+02  0.00000000000E+00 0.  1.
         24    1    1    2    0    0  0.10894989589E+02 -0.22812771874E+02  0.63903645959E+03  0.64457267705E+03  0.80419002446E+02 0. -1.
        -24    1    1    2    0    0 -0.10894989589E+02  0.22812771874E+02  0.14142359228E+03  0.16464195020E+03  0.80419002446E+02 0.  1.
<mgrwt>
<rscale>  0 0.84299106E+02</rscale>
<asrwt>0</asrwt>
<pdfrwt beam="1">  1        2 0.12228263E+00 0.84299106E+02</pdfrwt>
<pdfrwt beam="2">  1       -2 0.22118910E-02 0.84299106E+02</pdfrwt>
<totfact> 0.21636499E+04</totfact>
</mgrwt>
</event>
<event>
 4    1  0.1123525E-001  0.1228164E+03  0.7546771E-02  0.1238522E+00
          1   -1    0    0  501    0  0.00000000000E+00  0.00000000000E+00  0.45764491348E+03  0.45764491348E+03  0.00000000000E+00 0. -1.
         -1   -1    0    0    0  501 -0.00000000000E+00 -0.00000000000E+00 -0.69973054168E+02  0.69973054168E+02  0.00000000000E+00 0.  1.
         24    1    1    2    0    0 -0.86375302080E+02 -0.33999426783E+02  0.19677331429E+01  0.12283216907E+03  0.80419002446E+02 0.  1.
        -24    1    1    2    0    0  0.86375302080E+02  0.33999426783E+02  0.38570412617E+03  0.40478579858E+03  0.80419002446E+02 0.  0.
<mgrwt>
<rscale>  0 0.12281641E+03</rscale>
<asrwt>0</asrwt>
<pdfrwt beam="1">  1        1 0.70406908E-01 0.12281641E+03</pdfrwt>
<pdfrwt beam="2">  1       -1 0.10765086E-01 0.12281641E+03</pdfrwt>
<totfact> 0.26814432E+03</totfact>
</mgrwt>
</event>
<event>
 4    1  0.1123525E-001  0.9036608E+02  0.7546771E-02  0.1301968E+00
          1   -1    0    0  501    0  0.00000000000E+00  0.00000000000E+00  0.46979546095E+03  0.46979546095E+03  0.00000000000E+00 0. -1.
         -1   -1    0    0    0  501 -0.00000000000E+00 -0.00000000000E+00 -0.29287289427E+02  0.29287289427E+02  0.00000000000E+00 0.  1.
         24    1    1    2    0    0 -0.38999038844E+02 -0.13337442645E+02  0.61153690546E+02  0.10911371238E+03  0.80419002446E+02 0.  1.
        -24    1    1    2    0    0  0.38999038844E+02  0.13337442645E+02  0.37935448097E+03  0.38996903800E+03  0.80419002446E+02 0. -1.
<mgrwt>
<rscale>  0 0.90366080E+02</rscale>
<asrwt>0</asrwt>
<pdfrwt beam="1">  1        1 0.72276219E-01 0.90366080E+02</pdfrwt>
<pdfrwt beam="2">  1       -1 0.45057372E-02 0.90366080E+02</pdfrwt>
<totfact> 0.93258257E+03</totfact>
</mgrwt>
</event>
<event>
 4    1  0.1123525E-001  0.9285105E+02  0.7546771E-02  0.1296091E+00
         -2   -1    0    0    0  501 -0.00000000000E+00  0.00000000000E+00  0.11499266621E+02  0.11499266621E+02  0.00000000000E+00 0.  1.
          2   -1    0    0  501    0  0.00000000000E+00 -0.00000000000E+00 -0.10975590449E+04  0.10975590449E+04  0.00000000000E+00 0. -1.
         24    1    1    2    0    0  0.31095182804E+02  0.34455632097E+02 -0.85520256964E+03  0.86022831391E+03  0.80419002446E+02 0. -1.
        -24    1    1    2    0    0 -0.31095182804E+02 -0.34455632097E+02 -0.23085720865E+03  0.24882999762E+03  0.80419002446E+02 0.  1.
<mgrwt>
<rscale>  0 0.92851047E+02</rscale>
<asrwt>0</asrwt>
<pdfrwt beam="1">  1        2 0.16885522E+00 0.92851047E+02</pdfrwt>
<pdfrwt beam="2">  1       -2 0.17691182E-02 0.92851047E+02</pdfrwt>
<totfact> 0.19713120E+04</totfact>
</mgrwt>
</event>
<event>
 4    1  0.1123525E-001  0.1155098E+03  0.7546771E-02  0.1250694E+00
         -1   -1    0    0    0  501 -0.00000000000E+00  0.00000000000E+00  0.27028212881E+02  0.27028212881E+02  0.00000000000E+00 0.  1.
          1   -1    0    0  501    0  0.00000000000E+00 -0.00000000000E+00 -0.14885284911E+04  0.14885284911E+04  0.00000000000E+00 0. -1.
         24    1    1    2    0    0  0.39329111332E+01  0.82824059276E+02 -0.11124004510E+03  0.16036475976E+03  0.80419002446E+02 0.  1.
        -24    1    1    2    0    0 -0.39329111332E+01 -0.82824059276E+02 -0.13502602331E+04  0.13551919442E+04  0.80419002446E+02 0. -1.
<mgrwt>
<rscale>  0 0.11550978E+03</rscale>
<asrwt>0</asrwt>
<pdfrwt beam="1">  1        1 0.22900442E+00 0.11550978E+03</pdfrwt>
<pdfrwt beam="2">  1       -1 0.41581859E-02 0.11550978E+03</pdfrwt>
<totfact> 0.16920427E+03</totfact>
</mgrwt>
</event>
<event>
 4    1  0.1123525E-001  0.9693113E+02  0.7546771E-02  0.1286885E+00
         -2   -1    0    0    0  501 -0.00000000000E+00  0.00000000000E+00  0.20823889235E+03  0.20823889235E+03  0.00000000000E+00 0.  1.
          2   -1    0    0  501    0  0.00000000000E+00 -0.00000000000E+00 -0.49809334699E+02  0.49809334699E+02  0.00000000000E+00 0. -1.
         24    1    1    2    0    0  0.48144234034E+02  0.24709545747E+02  0.39624184683E+02  0.10471733805E+03  0.80419002446E+02 0. -1.
        -24    1    1    2    0    0 -0.48144234034E+02 -0.24709545747E+02  0.11880537297E+03  0.15333088901E+03  0.80419002446E+02 0.  1.
<mgrwt>
<rscale>  0 0.96931135E+02</rscale>
<asrwt>0</asrwt>
<pdfrwt beam="1">  1        2 0.76629747E-02 0.96931135E+02</pdfrwt>
<pdfrwt beam="2">  1       -2 0.32036752E-01 0.96931135E+02</pdfrwt>
<totfact> 0.74533410E+03</totfact>
</mgrwt>
</event>
<event>
 4    1  0.1123525E-001  0.8489750E+02  0.7546771E-02  0.1315701E+00
         -2   -1    0    0    0  501 -0.00000000000E+00  0.00000000000E+00  0.26084263107E+02  0.26084263107E+02  0.00000000000E+00 0.  1.
          2   -1    0    0  501    0  0.00000000000E+00 -0.00000000000E+00 -0.12043691681E+04  0.12043691681E+04  0.00000000000E+00 0. -1.
         24    1    1    2    0    0  0.97187304632E+01  0.25414883365E+02 -0.11292012217E+04  0.11323881777E+04  0.80419002446E+02 0. -1.
        -24    1    1    2    0    0 -0.97187304632E+01 -0.25414883365E+02 -0.49083683279E+02  0.98065253463E+02  0.80419002446E+02 0.  1.
<mgrwt>
<rscale>  0 0.84897503E+02</rscale>
<asrwt>0</asrwt>
<pdfrwt beam="1">  1        2 0.18528754E+00 0.84897503E+02</pdfrwt>
<pdfrwt beam="2">  1       -2 0.40129641E-02 0.84897503E+02</pdfrwt>
<totfact> 0.52274243E+03</totfact>
</mgrwt>
</event>
<event>
 4    1  0.1123525E-001  0.1739109E+03  0.7546771E-02  0.1173830E+00
          2   -1    0    0  501    0  0.00000000000E+00  0.00000000000E+00  0.77827007569E+03  0.77827007569E+03  0.00000000000E+00 0. -1.
         -2   -1    0    0    0  501 -0.00000000000E+00 -0.00000000000E+00 -0.49075636906E+02  0.49075636906E+02  0.00000000000E+00 0.  1.
         24    1    1    2    0    0  0.14535356193E+03 -0.51479353743E+02  0.55331721503E+03  0.58000425708E+03  0.80419002446E+02 0. -1.
        -24    1    1    2    0    0 -0.14535356193E+03  0.51479353743E+02  0.17587722375E+03  0.24734145551E+03  0.80419002446E+02 0.  1.
<mgrwt>
<rscale>  0 0.17391089E+03</rscale>
<asrwt>0</asrwt>
<pdfrwt beam="1">  1        2 0.11973385E+00 0.17391089E+03</pdfrwt>
<pdfrwt beam="2">  1       -2 0.75500985E-02 0.17391089E+03</pdfrwt>
<totfact> 0.37465610E+03</totfact>
</mgrwt>
</event>
<event>
 4    1  0.1123525E-001  0.8510443E+02  0.7546771E-02  0.1315160E+00
         -4   -1    0    0    0  501 -0.00000000000E+00  0.00000000000E+00  0.37713403285E+03  0.37713403285E+03  0.00000000000E+00 0.  1.
          4   -1    0    0  501    0  0.00000000000E+00 -0.00000000000E+00 -0.20441183251E+02  0.20441183251E+02  0.00000000000E+00 0. -1.
         24    1    1    2    0    0 -0.15309405718E+02  0.23263054923E+02  0.12945618073E+03  0.15492471175E+03  0.80419002446E+02 0. -1.
        -24    1    1    2    0    0  0.15309405718E+02 -0.23263054923E+02  0.22723666887E+03  0.24265050435E+03  0.80419002446E+02 0.  1.
<mgrwt>
<rscale>  0 0.85104428E+02</rscale>
<asrwt>0</asrwt>
<pdfrwt beam="1">  1        4 0.31447977E-02 0.85104428E+02</pdfrwt>
<pdfrwt beam="2">  1       -4 0.58020615E-01 0.85104428E+02</pdfrwt>
<totfact> 0.20887449E+03</totfact>
</mgrwt>
</event>
<event>
 4    1  0.1123525E-001  0.8399565E+02  0.7546771E-02  0.1318080E+00
          2   -1    0    0  501    0  0.00000000000E+00  0.00000000000E+00  0.87735979360E+03  0.87735979360E+03  0.00000000000E+00 0. -1.
         -2   -1    0    0    0  501 -0.00000000000E+00 -0.00000000000E+00 -0.87063002350E+01  0.87063002350E+01  0.00000000000E+00 0.  1.
         24    1    1    2    0    0 -0.13104438517E+02  0.20404108207E+02  0.55675225491E+03  0.56305270024E+03  0.80419002446E+02 0. -1.
        -24    1    1    2    0    0  0.13104438517E+02 -0.20404108207E+02  0.31190123845E+03  0.32301339360E+03  0.80419002446E+02 0.  1.
<mgrwt>
<rscale>  0 0.83995654E+02</rscale>
<asrwt>0</asrwt>
<pdfrwt beam="1">  1        2 0.13497836E+00 0.83995654E+02</pdfrwt>
<pdfrwt beam="2">  1       -2 0.13394315E-02 0.83995654E+02</pdfrwt>
<totfact> 0.39175431E+04</totfact>
</mgrwt>
</event>
<event>
 4    1  0.1123525E-001  0.8537224E+02  0.7546771E-02  0.1314462E+00
          1   -1    0    0  501    0  0.00000000000E+00  0.00000000000E+00  0.51516610864E+02  0.51516610864E+02  0.00000000000E+00 0. -1.
         -1   -1    0    0    0  501 -0.00000000000E+00 -0.00000000000E+00 -0.19663446270E+03  0.19663446270E+03  0.00000000000E+00 0.  1.
         24    1    1    2    0    0  0.21963885157E+02 -0.18406291838E+02 -0.13827296498E+03  0.16250486956E+03  0.80419002446E+02 0. -1.
        -24    1    1    2    0    0 -0.21963885157E+02  0.18406291838E+02 -0.68448868540E+01  0.85646204007E+02  0.80419002446E+02 0. -1.
<mgrwt>
<rscale>  0 0.85372242E+02</rscale>
<asrwt>0</asrwt>
<pdfrwt beam="1">  1        1 0.79256326E-02 0.85372242E+02</pdfrwt>
<pdfrwt beam="2">  1       -1 0.30251455E-01 0.85372242E+02</pdfrwt>
<totfact> 0.80388396E+03</totfact>
</mgrwt>
</event>
<event>
 4    1  0.1311620E-001  0.8627505E+02  0.7546771E-02  0.1312131E+00
         -1   -1    0    0    0  501 -0.00000000000E+00  0.00000000000E+00  0.25182846552E+02  0.25182846552E+02  0.00000000000E+00 0.  1.
          1   -1    0    0  501    0  0.00000000000E+00 -0.00000000000E+00 -0.91116088976E+03  0.91116088976E+03  0.00000000000E+00 0. -1.
         24    1    1    2    0    0  0.13009605562E+02  0.28406308422E+02 -0.58173476531E+02  0.10405545407E+03  0.80419002446E+02 0.  1.
        -24    1    1    2    0    0 -0.13009605562E+02 -0.28406308422E+02 -0.82780456668E+03  0.83228828225E+03  0.80419002446E+02 0. -1.
<mgrwt>
<rscale>  0 0.86275049E+02</rscale>
<asrwt>0</asrwt>
<pdfrwt beam="1">  1        1 0.14017858E+00 0.86275049E+02</pdfrwt>
<pdfrwt beam="2">  1       -1 0.38742845E-02 0.86275049E+02</pdfrwt>
<totfact> 0.46131151E+03</totfact>
</mgrwt>
</event>
<event>
 4    1  0.1123525E-001  0.8133330E+02  0.7546771E-02  0.1325310E+00
          1   -1    0    0  501    0  0.00000000000E+00  0.00000000000E+00  0.96616250940E+03  0.96616250940E+03  0.00000000000E+00 0. -1.
         -1   -1    0    0    0  501 -0.00000000000E+00 -0.00000000000E+00 -0.16946852107E+02  0.16946852107E+02  0.00000000000E+00 0.  1.
         24    1    1    2    0    0  0.12116044667E+02  0.10443903598E+01  0.95127310876E+02  0.12515714330E+03  0.80419002446E+02 0.  1.
        -24    1    1    2    0    0 -0.12116044667E+02 -0.10443903598E+01  0.85408834642E+03  0.85795221821E+03  0.80419002446E+02 0.  0.
<mgrwt>
<rscale>  0 0.81333297E+02</rscale>
<asrwt>0</asrwt>
<pdfrwt beam="1">  1        1 0.14864034E+00 0.81333297E+02</pdfrwt>
<pdfrwt beam="2">  1       -1 0.26072088E-02 0.81333297E+02</pdfrwt>
<totfact> 0.74049104E+03</totfact>
</mgrwt>
</event>
<event>
 4    1  0.1123525E-001  0.9203122E+02  0.7546771E-02  0.1298006E+00
         -2   -1    0    0    0  501 -0.00000000000E+00  0.00000000000E+00  0.42036841214E+03  0.42036841214E+03  0.00000000000E+00 0.  1.
          2   -1    0    0  501    0  0.00000000000E+00 -0.00000000000E+00 -0.22112268774E+02  0.22112268774E+02  0.00000000000E+00 0. -1.
         24    1    1    2    0    0  0.37093774109E+02 -0.25031538655E+02  0.26506159043E+03  0.28058401359E+03  0.80419002446E+02 0.  0.
        -24    1    1    2    0    0 -0.37093774109E+02  0.25031538655E+02  0.13319455293E+03  0.16189666732E+03  0.80419002446E+02 0.  0.
<mgrwt>
<rscale>  0 0.92031213E+02</rscale>
<asrwt>0</asrwt>
<pdfrwt beam="1">  1        2 0.34018878E-02 0.92031224E+02</pdfrwt>
<pdfrwt beam="2">  1       -2 0.64672057E-01 0.92031224E+02</pdfrwt>
<totfact> 0.54380301E+03</totfact>
</mgrwt>
</event>
<event>
 4    1  0.1123525E-001  0.9617108E+02  0.7546771E-02  0.1288560E+00
         -2   -1    0    0    0  501 -0.00000000000E+00  0.00000000000E+00  0.56935037581E+03  0.56935037581E+03  0.00000000000E+00 0.  1.
          2   -1    0    0  501    0  0.00000000000E+00 -0.00000000000E+00 -0.74633338503E+02  0.74633338503E+02  0.00000000000E+00 0. -1.
         24    1    1    2    0    0  0.42439059125E+01 -0.52570433329E+02 -0.37443424561E+02  0.10320313559E+03  0.80419002446E+02 0. -1.
        -24    1    1    2    0    0 -0.42439059125E+01  0.52570433329E+02  0.53216046186E+03  0.54078057872E+03  0.80419002446E+02 0.  1.
<mgrwt>
<rscale>  0 0.96171083E+02</rscale>
<asrwt>0</asrwt>
<pdfrwt beam="1">  1        2 0.11482052E-01 0.96171083E+02</pdfrwt>
<pdfrwt beam="2">  1       -2 0.87592363E-01 0.96171083E+02</pdfrwt>
<totfact> 0.61058226E+02</totfact>
</mgrwt>
</event>
<event>
 4    1  0.1123525E-001  0.8747647E+02  0.7546771E-02  0.1309080E+00
          2   -1    0    0  501    0  0.00000000000E+00  0.00000000000E+00  0.24046777470E+03  0.24046777470E+03  0.00000000000E+00 0. -1.
         -2   -1    0    0    0  501 -0.00000000000E+00 -0.00000000000E+00 -0.45174655653E+02  0.45174655653E+02  0.00000000000E+00 0.  1.
         24    1    1    2    0    0 -0.34191287106E+02  0.39840290806E+01  0.17529475242E+03  0.19590911868E+03  0.80419002446E+02 0. -1.
        -24    1    1    2    0    0  0.34191287106E+02 -0.39840290806E+01  0.19998366627E+02  0.89733311673E+02  0.80419002446E+02 0.  1.
<mgrwt>
<rscale>  0 0.87476469E+02</rscale>
<asrwt>0</asrwt>
<pdfrwt beam="1">  1        2 0.36995042E-01 0.87476469E+02</pdfrwt>
<pdfrwt beam="2">  1       -2 0.69499472E-02 0.87476469E+02</pdfrwt>
<totfact> 0.14748639E+04</totfact>
</mgrwt>
</event>
<event>
 4    1  0.1123525E-001  0.8142909E+02  0.7546771E-02  0.1325044E+00
         -3   -1    0    0    0  501 -0.00000000000E+00  0.00000000000E+00  0.35163045846E+03  0.35163045846E+03  0.00000000000E+00 0.  1.
          3   -1    0    0  501    0  0.00000000000E+00 -0.00000000000E+00 -0.28544613624E+02  0.28544613624E+02  0.00000000000E+00 0. -1.
         24    1    1    2    0    0 -0.10909136058E+02  0.66684010838E+01  0.50804039401E+02  0.95977826587E+02  0.80419002446E+02 0.  0.
        -24    1    1    2    0    0  0.10909136058E+02 -0.66684010838E+01  0.27228180544E+03  0.28419724550E+03  0.80419002446E+02 0.  0.
<mgrwt>
<rscale>  0 0.81429076E+02</rscale>
<asrwt>0</asrwt>
<pdfrwt beam="1">  1        3 0.43914793E-02 0.81429086E+02</pdfrwt>
<pdfrwt beam="2">  1       -3 0.54096991E-01 0.81429086E+02</pdfrwt>
<totfact> 0.19820595E+03</totfact>
</mgrwt>
</event>
<event>
 4    1  0.1123525E-001  0.8393968E+02  0.7546771E-02  0.1318229E+00
         -2   -1    0    0    0  501 -0.00000000000E+00  0.00000000000E+00  0.28987499535E+02  0.28987499535E+02  0.00000000000E+00 0.  1.
          2   -1    0    0  501    0  0.00000000000E+00 -0.00000000000E+00 -0.56085686070E+03  0.56085686070E+03  0.00000000000E+00 0. -1.
         24    1    1    2    0    0  0.97762922550E+01  0.21979037603E+02 -0.48793431099E+03  0.49510176911E+03  0.80419002446E+02 0. -1.
        -24    1    1    2    0    0 -0.97762922550E+01 -0.21979037603E+02 -0.43935050177E+02  0.94742591122E+02  0.80419002446E+02 0.  1.
<mgrwt>
<rscale>  0 0.83939680E+02</rscale>
<asrwt>0</asrwt>
<pdfrwt beam="1">  1        2 0.86285658E-01 0.83939680E+02</pdfrwt>
<pdfrwt beam="2">  1       -2 0.44596160E-02 0.83939680E+02</pdfrwt>
<totfact> 0.11649746E+04</totfact>
</mgrwt>
</event>
<event>
 4    1  0.1123525E-001  0.9436538E+02  0.7546771E-02  0.1292612E+00
         -2   -1    0    0    0  501 -0.00000000000E+00  0.00000000000E+00  0.27359069437E+03  0.27359069437E+03  0.00000000000E+00 0.  1.
          2   -1    0    0  501    0  0.00000000000E+00 -0.00000000000E+00 -0.41344990486E+02  0.41344990486E+02  0.00000000000E+00 0. -1.
         24    1    1    2    0    0 -0.69551774520E+01  0.48879751176E+02  0.18875825283E+03  0.21103198462E+03  0.80419002446E+02 0.  1.
        -24    1    1    2    0    0  0.69551774520E+01 -0.48879751176E+02  0.43487451055E+02  0.10390370023E+03  0.80419002446E+02 0. -1.
<mgrwt>
<rscale>  0 0.94365368E+02</rscale>
<asrwt>0</asrwt>
<pdfrwt beam="1">  1        2 0.63607680E-02 0.94365380E+02</pdfrwt>
<pdfrwt beam="2">  1       -2 0.42090875E-01 0.94365380E+02</pdfrwt>
<totfact> 0.56732029E+03</totfact>
</mgrwt>
</event>
<event>
 4    1  0.1123525E-001  0.1174421E+03  0.7546771E-02  0.1247377E+00
         -2   -1    0    0    0  501 -0.00000000000E+00  0.00000000000E+00  0.25596651421E+02  0.25596651421E+02  0.00000000000E+00 0.  1.
          2   -1    0    0  501    0  0.00000000000E+00 -0.00000000000E+00 -0.54113995010E+03  0.54113995010E+03  0.00000000000E+00 0. -1.
         24    1    1    2    0    0  0.71072949789E+02 -0.47687207757E+02 -0.27622183158E+03  0.30015187851E+03  0.80419002446E+02 0. -1.
        -24    1    1    2    0    0 -0.71072949789E+02  0.47687207757E+02 -0.23932146710E+03  0.26658472301E+03  0.80419002446E+02 0.  1.
<mgrwt>
<rscale>  0 0.11744211E+03</rscale>
<asrwt>0</asrwt>
<pdfrwt beam="1">  1        2 0.83252294E-01 0.11744211E+03</pdfrwt>
<pdfrwt beam="2">  1       -2 0.39379467E-02 0.11744211E+03</pdfrwt>
<totfact> 0.14976606E+04</totfact>
</mgrwt>
</event>
<event>
 4    1  0.1123525E-001  0.8132675E+02  0.7546771E-02  0.1325328E+00
         -1   -1    0    0    0  501 -0.00000000000E+00  0.00000000000E+00  0.54498861029E+03  0.54498861029E+03  0.00000000000E+00 0.  1.
          1   -1    0    0  501    0  0.00000000000E+00 -0.00000000000E+00 -0.44497562978E+02  0.44497562978E+02  0.00000000000E+00 0. -1.
         24    1    1    2    0    0 -0.10218073849E+02 -0.65127358804E+01  0.50160168352E+03  0.50815183717E+03  0.80419002446E+02 0.  0.
        -24    1    1    2    0    0  0.10218073849E+02  0.65127358804E+01 -0.11106361986E+01  0.81334336101E+02  0.80419002446E+02 0. -1.
<mgrwt>
<rscale>  0 0.81326753E+02</rscale>
<asrwt>0</asrwt>
<pdfrwt beam="1">  1        1 0.68457793E-02 0.81326753E+02</pdfrwt>
<pdfrwt beam="2">  1       -1 0.83844397E-01 0.81326753E+02</pdfrwt>
<totfact> 0.15194511E+03</totfact>
</mgrwt>
</event>
<event>
 4    1  0.1123525E-001  0.9483055E+02  0.7546771E-02  0.1291558E+00
          2   -1    0    0  501    0  0.00000000000E+00  0.00000000000E+00  0.12076968126E+04  0.12076968126E+04  0.00000000000E+00 0. -1.
         -2   -1    0    0    0  501 -0.00000000000E+00 -0.00000000000E+00 -0.82013254750E+01  0.82013254750E+01  0.00000000000E+00 0.  1.
         24    1    1    2    0    0  0.65376584858E+01  0.49828473051E+02  0.78421330228E+03  0.78992615929E+03  0.80419002446E+02 0. -1.
        -24    1    1    2    0    0 -0.65376584858E+01 -0.49828473051E+02  0.41528218485E+03  0.42597197878E+03  0.80419002446E+02 0.  1.
<mgrwt>
<rscale>  0 0.94830552E+02</rscale>
<asrwt>0</asrwt>
<pdfrwt beam="1">  1        2 0.18579937E+00 0.94830552E+02</pdfrwt>
<pdfrwt beam="2">  1       -2 0.12617433E-02 0.94830552E+02</pdfrwt>
<totfact> 0.27814336E+04</totfact>
</mgrwt>
</event>
<event>
 4    1  0.1123525E-001  0.9787505E+02  0.7546771E-02  0.1284829E+00
          2   -1    0    0  501    0  0.00000000000E+00  0.00000000000E+00  0.31294076346E+04  0.31294076346E+04  0.00000000000E+00 0. -1.
         -2   -1    0    0    0  501 -0.00000000000E+00 -0.00000000000E+00 -0.40195939228E+01  0.40195939228E+01  0.00000000000E+00 0.  1.
         24    1    1    2    0    0  0.51733644021E+02  0.20879147196E+02  0.23277378810E+04  0.23297946620E+04  0.80419002446E+02 0. -1.
        -24    1    1    2    0    0 -0.51733644021E+02 -0.20879147196E+02  0.79765015970E+03  0.80363256650E+03  0.80419002446E+02 0.  1.
<mgrwt>
<rscale>  0 0.97875046E+02</rscale>
<asrwt>0</asrwt>
<pdfrwt beam="1">  1        2 0.48144538E+00 0.97875046E+02</pdfrwt>
<pdfrwt beam="2">  1       -2 0.61840157E-03 0.97875046E+02</pdfrwt>
<totfact> 0.74536494E+03</totfact>
</mgrwt>
</event>
<event>
 4    1  0.1123525E-001  0.8466273E+02  0.7546771E-02  0.1316317E+00
         -1   -1    0    0    0  501 -0.00000000000E+00  0.00000000000E+00  0.55991164585E+01  0.55991164585E+01  0.00000000000E+00 0.  1.
          1   -1    0    0  501    0  0.00000000000E+00 -0.00000000000E+00 -0.14061643344E+04  0.14061643344E+04  0.00000000000E+00 0. -1.
         24    1    1    2    0    0  0.26457477408E+02 -0.74819136860E+00 -0.91158474779E+03  0.91550779694E+03  0.80419002446E+02 0.  0.
        -24    1    1    2    0    0 -0.26457477408E+02  0.74819136860E+00 -0.48898047012E+03  0.49625565388E+03  0.80419002446E+02 0.  0.
<mgrwt>
<rscale>  0 0.84662717E+02</rscale>
<asrwt>0</asrwt>
<pdfrwt beam="1">  1        1 0.21633330E+00 0.84662728E+02</pdfrwt>
<pdfrwt beam="2">  1       -1 0.86140124E-03 0.84662728E+02</pdfrwt>
<totfact> 0.17949081E+04</totfact>
</mgrwt>
</event>
<event>
 4    1  0.1123525E-001  0.8503115E+02  0.7546771E-02  0.1315351E+00
         -2   -1    0    0    0  501 -0.00000000000E+00  0.00000000000E+00  0.26126493985E+01  0.26126493985E+01  0.00000000000E+00 0.  1.
          2   -1    0    0  501    0  0.00000000000E+00 -0.00000000000E+00 -0.27739812717E+04  0.27739812717E+04  0.00000000000E+00 0. -1.
         24    1    1    2    0    0 -0.68121394050E+01 -0.26770733899E+02 -0.13181560588E+04  0.13208957902E+04  0.80419002446E+02 0.  0.
        -24    1    1    2    0    0  0.68121394050E+01  0.26770733899E+02 -0.14532125636E+04  0.14556981309E+04  0.80419002446E+02 0.  1.
<mgrwt>
<rscale>  0 0.85031143E+02</rscale>
<asrwt>0</asrwt>
<pdfrwt beam="1">  1        2 0.42676552E+00 0.85031153E+02</pdfrwt>
<pdfrwt beam="2">  1       -2 0.40194684E-03 0.85031153E+02</pdfrwt>
<totfact> 0.21555326E+04</totfact>
</mgrwt>
</event>
<event>
 4    1  0.1123525E-001  0.8560078E+02  0.7546771E-02  0.1313869E+00
          2   -1    0    0  501    0  0.00000000000E+00  0.00000000000E+00  0.38096463153E+02  0.38096463153E+02  0.00000000000E+00 0. -1.
         -2   -1    0    0    0  501 -0.00000000000E+00 -0.00000000000E+00 -0.23663887368E+03  0.23663887368E+03  0.00000000000E+00 0.  1.
         24    1    1    2    0    0 -0.17654236105E+02  0.23422345727E+02 -0.39837175377E+02  0.94416602503E+02  0.80419002446E+02 0. -1.
        -24    1    1    2    0    0  0.17654236105E+02 -0.23422345727E+02 -0.15870523515E+03  0.18031873433E+03  0.80419002446E+02 0.  1.
<mgrwt>
<rscale>  0 0.85600784E+02</rscale>
<asrwt>0</asrwt>
<pdfrwt beam="1">  1        2 0.58609942E-02 0.85600784E+02</pdfrwt>
<pdfrwt beam="2">  1       -2 0.36405981E-01 0.85600784E+02</pdfrwt>
<totfact> 0.81782523E+03</totfact>
</mgrwt>
</event>
<event>
 4    1  0.1123525E-001  0.1122209E+03  0.7546771E-02  0.1256511E+00
         -3   -1    0    0    0  501 -0.00000000000E+00  0.00000000000E+00  0.35501999475E+02  0.35501999475E+02  0.00000000000E+00 0.  1.
          3   -1    0    0  501    0  0.00000000000E+00 -0.00000000000E+00 -0.86586558603E+03  0.86586558603E+03  0.00000000000E+00 0. -1.
         24    1    1    2    0    0  0.77562861450E+02  0.10503594125E+02 -0.68911064056E+02  0.13169006671E+03  0.80419002446E+02 0.  1.
        -24    1    1    2    0    0 -0.77562861450E+02 -0.10503594125E+02 -0.76145252250E+03  0.76967751880E+03  0.80419002446E+02 0. -1.
<mgrwt>
<rscale>  0 0.11222094E+03</rscale>
<asrwt>0</asrwt>
<pdfrwt beam="1">  1        3 0.13321008E+00 0.11222094E+03</pdfrwt>
<pdfrwt beam="2">  1       -3 0.54618464E-02 0.11222094E+03</pdfrwt>
<totfact> 0.20838991E+02</totfact>
</mgrwt>
</event>
<event>
 4    1  0.1123525E-001  0.8281151E+02  0.7546771E-02  0.1321257E+00
         -1   -1    0    0    0  501 -0.00000000000E+00  0.00000000000E+00  0.56501893824E+03  0.56501893824E+03  0.00000000000E+00 0.  1.
          1   -1    0    0  501    0  0.00000000000E+00 -0.00000000000E+00 -0.12237418244E+02  0.12237418244E+02  0.00000000000E+00 0. -1.
         24    1    1    2    0    0 -0.10424912697E+02 -0.16788318659E+02  0.25026985992E+03  0.26361476663E+03  0.80419002446E+02 0.  0.
        -24    1    1    2    0    0  0.10424912697E+02  0.16788318659E+02  0.30251166007E+03  0.31364158985E+03  0.80419002446E+02 0. -1.
<mgrwt>
<rscale>  0 0.82811497E+02</rscale>
<asrwt>0</asrwt>
<pdfrwt beam="1">  1        1 0.18826802E-02 0.82811508E+02</pdfrwt>
<pdfrwt beam="2">  1       -1 0.86925970E-01 0.82811508E+02</pdfrwt>
<totfact> 0.81424020E+03</totfact>
</mgrwt>
</event>
<event>
 4    1  0.1123525E-001  0.1003638E+03  0.7546771E-02  0.1279533E+00
         -1   -1    0    0    0  501 -0.00000000000E+00  0.00000000000E+00  0.72478843559E+02  0.72478843559E+02  0.00000000000E+00 0.  1.
          1   -1    0    0  501    0  0.00000000000E+00 -0.00000000000E+00 -0.24112508694E+03  0.24112508694E+03  0.00000000000E+00 0. -1.
         24    1    1    2    0    0  0.42474075864E+02 -0.42445667347E+02  0.17734456886E+02  0.10191863771E+03  0.80419002446E+02 0.  1.
        -24    1    1    2    0    0 -0.42474075864E+02  0.42445667347E+02 -0.18638070027E+03  0.21168529279E+03  0.80419002446E+02 0. -1.
<mgrwt>
<rscale>  0 0.10036383E+03</rscale>
<asrwt>0</asrwt>
<pdfrwt beam="1">  1        1 0.37096167E-01 0.10036383E+03</pdfrwt>
<pdfrwt beam="2">  1       -1 0.11150591E-01 0.10036383E+03</pdfrwt>
<totfact> 0.55642374E+03</totfact>
</mgrwt>
</event>
<event>
 4    1  0.1123525E-001  0.1029757E+03  0.7546771E-02  0.1274160E+00
         -2   -1    0    0    0  501 -0.00000000000E+00  0.00000000000E+00  0.62215354837E+01  0.62215354837E+01  0.00000000000E+00 0.  1.
          2   -1    0    0  501    0  0.00000000000E+00 -0.00000000000E+00 -0.18828551589E+04  0.18828551589E+04  0.00000000000E+00 0. -1.
         24    1    1    2    0    0  0.39385319667E+02 -0.50848473882E+02 -0.12291040772E+04  0.12334102396E+04  0.80419002446E+02 0.  0.
        -24    1    1    2    0    0 -0.39385319667E+02  0.50848473882E+02 -0.64752954628E+03  0.65566645481E+03  0.80419002446E+02 0. -1.
<mgrwt>
<rscale>  0 0.10297566E+03</rscale>
<asrwt>0</asrwt>
<pdfrwt beam="1">  1        2 0.28967020E+00 0.10297566E+03</pdfrwt>
<pdfrwt beam="2">  1       -2 0.95715871E-03 0.10297566E+03</pdfrwt>
<totfact> 0.18612281E+04</totfact>
</mgrwt>
</event>
<event>
 4    1  0.1123525E-001  0.8799982E+02  0.7546771E-02  0.1307769E+00
          2   -1    0    0  501    0  0.00000000000E+00  0.00000000000E+00  0.40459635840E+02  0.40459635840E+02  0.00000000000E+00 0. -1.
         -2   -1    0    0    0  501 -0.00000000000E+00 -0.00000000000E+00 -0.19229744507E+03  0.19229744507E+03  0.00000000000E+00 0.  1.
         24    1    1    2    0    0  0.35597957519E+02 -0.30876897758E+01 -0.83870412780E+02  0.12156566333E+03  0.80419002446E+02 0.  1.
        -24    1    1    2    0    0 -0.35597957519E+02  0.30876897758E+01 -0.67967396446E+02  0.11119141757E+03  0.80419002446E+02 0. -1.
<mgrwt>
<rscale>  0 0.87999809E+02</rscale>
<asrwt>0</asrwt>
<pdfrwt beam="1">  1        2 0.62245594E-02 0.87999820E+02</pdfrwt>
<pdfrwt beam="2">  1       -2 0.29584222E-01 0.87999820E+02</pdfrwt>
<totfact> 0.11058144E+04</totfact>
</mgrwt>
</event>
<event>
 4    1  0.1123525E-001  0.1164209E+03  0.7546771E-02  0.1249121E+00
         -1   -1    0    0    0  501 -0.00000000000E+00  0.00000000000E+00  0.98088585787E+03  0.98088585787E+03  0.00000000000E+00 0.  1.
          1   -1    0    0  501    0  0.00000000000E+00 -0.00000000000E+00 -0.21297565566E+02  0.21297565566E+02  0.00000000000E+00 0. -1.
         24    1    1    2    0    0 -0.83738528206E+02 -0.86298532771E+01  0.77674999599E+03  0.78542624587E+03  0.80419002446E+02 0.  1.
        -24    1    1    2    0    0  0.83738528206E+02  0.86298532771E+01  0.18283829632E+03  0.21675717757E+03  0.80419002446E+02 0. -1.
<mgrwt>
<rscale>  0 0.11642092E+03</rscale>
<asrwt>0</asrwt>
<pdfrwt beam="1">  1        1 0.32765493E-02 0.11642092E+03</pdfrwt>
<pdfrwt beam="2">  1       -1 0.15090548E+00 0.11642092E+03</pdfrwt>
<totfact> 0.10917598E+03</totfact>
</mgrwt>
</event>
<event>
 4    1  0.1123525E-001  0.1076698E+03  0.7546771E-02  0.1264947E+00
          2   -1    0    0  501    0  0.00000000000E+00  0.00000000000E+00  0.34413951891E+03  0.34413951891E+03  0.00000000000E+00 0. -1.
         -2   -1    0    0    0  501 -0.00000000000E+00 -0.00000000000E+00 -0.18588238166E+03  0.18588238166E+03  0.00000000000E+00 0.  1.
         24    1    1    2    0    0 -0.80399307694E+01  0.71140259454E+02  0.31892704349E+03  0.33661142586E+03  0.80419002446E+02 0. -1.
        -24    1    1    2    0    0  0.80399307694E+01 -0.71140259454E+02 -0.16066990623E+03  0.19341047471E+03  0.80419002446E+02 0.  1.
<mgrwt>
<rscale>  0 0.10766983E+03</rscale>
<asrwt>0</asrwt>
<pdfrwt beam="1">  1        2 0.52944541E-01 0.10766983E+03</pdfrwt>
<pdfrwt beam="2">  1       -2 0.28597290E-01 0.10766983E+03</pdfrwt>
<totfact> 0.10356771E+03</totfact>
</mgrwt>
</event>
<event>
 4    1  0.1123525E-001  0.8117430E+02  0.7546771E-02  0.1325752E+00
          1   -1    0    0  501    0  0.00000000000E+00  0.00000000000E+00  0.61260812413E+03  0.61260812413E+03  0.00000000000E+00 0. -1.
         -1   -1    0    0    0  501 -0.00000000000E+00 -0.00000000000E+00 -0.26201358716E+02  0.26201358716E+02  0.00000000000E+00 0.  1.
         24    1    1    2    0    0 -0.10496421568E+02  0.34462318310E+01  0.47971346302E+02  0.94289540247E+02  0.80419002446E+02 0.  0.
        -24    1    1    2    0    0  0.10496421568E+02 -0.34462318310E+01  0.53843541911E+03  0.54451994260E+03  0.80419002446E+02 0. -1.
<mgrwt>
<rscale>  0 0.81174302E+02</rscale>
<asrwt>0</asrwt>
<pdfrwt beam="1">  1        1 0.94247393E-01 0.81174302E+02</pdfrwt>
<pdfrwt beam="2">  1       -1 0.40309787E-02 0.81174302E+02</pdfrwt>
<totfact> 0.76949651E+03</totfact>
</mgrwt>
</event>
<event>
 4    1  0.1123525E-001  0.1223501E+03  0.7546771E-02  0.1239270E+00
         -1   -1    0    0    0  501 -0.00000000000E+00  0.00000000000E+00  0.55482623098E+02  0.55482623098E+02  0.00000000000E+00 0.  1.
          1   -1    0    0  501    0  0.00000000000E+00 -0.00000000000E+00 -0.29331413066E+03  0.29331413066E+03  0.00000000000E+00 0. -1.
         24    1    1    2    0    0  0.21856586517E+01 -0.92182161541E+02 -0.16828825175E+03  0.20806364325E+03  0.80419002446E+02 0. -1.
        -24    1    1    2    0    0 -0.21856586517E+01  0.92182161541E+02 -0.69543255811E+02  0.14073311051E+03  0.80419002446E+02 0.  1.
<mgrwt>
<rscale>  0 0.12235010E+03</rscale>
<asrwt>0</asrwt>
<pdfrwt beam="1">  1        1 0.45125250E-01 0.12235012E+03</pdfrwt>
<pdfrwt beam="2">  1       -1 0.85357884E-02 0.12235012E+03</pdfrwt>
<totfact> 0.66492477E+03</totfact>
</mgrwt>
</event>
<event>
 4    1  0.1123525E-001  0.1469472E+03  0.7546771E-02  0.1204275E+00
          2   -1    0    0  501    0  0.00000000000E+00  0.00000000000E+00  0.97168333065E+02  0.97168333065E+02  0.00000000000E+00 0. -1.
         -2   -1    0    0    0  501 -0.00000000000E+00 -0.00000000000E+00 -0.22253247012E+03  0.22253247012E+03  0.00000000000E+00 0.  1.
         24    1    1    2    0    0 -0.98546066231E+02  0.73586223954E+02 -0.68599695189E+02  0.16217087796E+03  0.80419002446E+02 0.  1.
        -24    1    1    2    0    0  0.98546066231E+02 -0.73586223954E+02 -0.56764441867E+02  0.15752992522E+03  0.80419002446E+02 0. -1.
<mgrwt>
<rscale>  0 0.14694720E+03</rscale>
<asrwt>0</asrwt>
<pdfrwt beam="1">  1        2 0.14948975E-01 0.14694722E+03</pdfrwt>
<pdfrwt beam="2">  1       -2 0.34235764E-01 0.14694722E+03</pdfrwt>
<totfact> 0.30268722E+03</totfact>
</mgrwt>
</event>
<event>
 4    1  0.1123525E-001  0.8633306E+02  0.7546771E-02  0.1311983E+00
         -2   -1    0    0    0  501 -0.00000000000E+00  0.00000000000E+00  0.49608167769E+01  0.49608167769E+01  0.00000000000E+00 0.  1.
          2   -1    0    0  501    0  0.00000000000E+00 -0.00000000000E+00 -0.15344126260E+04  0.15344126260E+04  0.00000000000E+00 0. -1.
         24    1    1    2    0    0 -0.46426483125E+01 -0.31058394634E+02 -0.65364387587E+03  0.65932064315E+03  0.80419002446E+02 0.  0.
        -24    1    1    2    0    0  0.46426483125E+01  0.31058394634E+02 -0.87580793331E+03  0.88005279959E+03  0.80419002446E+02 0.  1.
<mgrwt>
<rscale>  0 0.86333052E+02</rscale>
<asrwt>0</asrwt>
<pdfrwt beam="1">  1        2 0.23606382E+00 0.86333063E+02</pdfrwt>
<pdfrwt beam="2">  1       -2 0.76320149E-03 0.86333063E+02</pdfrwt>
<totfact> 0.37922055E+04</totfact>
</mgrwt>
</event>
<event>
 4    1  0.1123525E-001  0.8310448E+02  0.7546771E-02  0.1320465E+00
          1   -1    0    0  501    0  0.00000000000E+00  0.00000000000E+00  0.34589922457E+03  0.34589922457E+03  0.00000000000E+00 0. -1.
         -1   -1    0    0    0  501 -0.00000000000E+00 -0.00000000000E+00 -0.22731738987E+02  0.22731738987E+02  0.00000000000E+00 0.  1.
         24    1    1    2    0    0  0.20817518401E+02 -0.24013381665E+01  0.22587059059E+03  0.24067379406E+03  0.80419002446E+02 0. -1.
        -24    1    1    2    0    0 -0.20817518401E+02  0.24013381665E+01  0.97296894994E+02  0.12795716950E+03  0.80419002446E+02 0.  0.
<mgrwt>
<rscale>  0 0.83104471E+02</rscale>
<asrwt>0</asrwt>
<pdfrwt beam="1">  1        1 0.53215261E-01 0.83104482E+02</pdfrwt>
<pdfrwt beam="2">  1       -1 0.34971909E-02 0.83104482E+02</pdfrwt>
<totfact> 0.19550112E+04</totfact>
</mgrwt>
</event>
<event>
 4    1  0.1123525E-001  0.1250306E+03  0.7546771E-02  0.1235021E+00
         -2   -1    0    0    0  501 -0.00000000000E+00  0.00000000000E+00  0.70354973500E+03  0.70354973500E+03  0.00000000000E+00 0.  1.
          2   -1    0    0  501    0  0.00000000000E+00 -0.00000000000E+00 -0.51821089639E+02  0.51821089639E+02  0.00000000000E+00 0. -1.
         24    1    1    2    0    0 -0.95720901890E+02  0.17151448784E+01  0.40412283311E+02  0.13139939641E+03  0.80419002446E+02 0. -1.
        -24    1    1    2    0    0  0.95720901890E+02 -0.17151448784E+01  0.61131636205E+03  0.62397142823E+03  0.80419002446E+02 0.  1.
<mgrwt>
<rscale>  0 0.12503059E+03</rscale>
<asrwt>0</asrwt>
<pdfrwt beam="1">  1        2 0.79724759E-02 0.12503059E+03</pdfrwt>
<pdfrwt beam="2">  1       -2 0.10823841E+00 0.12503059E+03</pdfrwt>
<totfact> 0.59464673E+02</totfact>
</mgrwt>
</event>
<event>
 4    1  0.1123525E-001  0.1201617E+03  0.7546771E-02  0.1242831E+00
          1   -1    0    0  501    0  0.00000000000E+00  0.00000000000E+00  0.42835816730E+02  0.42835816730E+02  0.00000000000E+00 0. -1.
         -1   -1    0    0    0  501 -0.00000000000E+00 -0.00000000000E+00 -0.48906652797E+03  0.48906652797E+03  0.00000000000E+00 0.  1.
         24    1    1    2    0    0  0.43760443754E+02  0.77824455795E+02 -0.37137710402E+03  0.39033292418E+03  0.80419002446E+02 0.  1.
        -24    1    1    2    0    0 -0.43760443754E+02 -0.77824455795E+02 -0.74853607221E+02  0.14156942052E+03  0.80419002446E+02 0. -1.
<mgrwt>
<rscale>  0 0.12016172E+03</rscale>
<asrwt>0</asrwt>
<pdfrwt beam="1">  1        1 0.65901252E-02 0.12016172E+03</pdfrwt>
<pdfrwt beam="2">  1       -1 0.75241009E-01 0.12016172E+03</pdfrwt>
<totfact> 0.20294317E+03</totfact>
</mgrwt>
</event>
<event>
 4    1  0.1123525E-001  0.1099018E+03  0.7546771E-02  0.1260752E+00
          1   -1    0    0  501    0  0.00000000000E+00  0.00000000000E+00  0.14259106196E+03  0.14259106196E+03  0.00000000000E+00 0. -1.
         -1   -1    0    0    0  501 -0.00000000000E+00 -0.00000000000E+00 -0.84706769555E+02  0.84706769555E+02  0.00000000000E+00 0.  1.
         24    1    1    2    0    0  0.74206994480E+02 -0.10223160898E+02  0.28791498408E+02  0.11361055137E+03  0.80419002446E+02 0. -1.
        -24    1    1    2    0    0 -0.74206994480E+02  0.10223160898E+02  0.29092793993E+02  0.11368728014E+03  0.80419002446E+02 0.  1.
<mgrwt>
<rscale>  0 0.10990181E+03</rscale>
<asrwt>0</asrwt>
<pdfrwt beam="1">  1        1 0.21937086E-01 0.10990181E+03</pdfrwt>
<pdfrwt beam="2">  1       -1 0.13031811E-01 0.10990181E+03</pdfrwt>
<totfact> 0.84548947E+03</totfact>
</mgrwt>
</event>
<event>
 4    1  0.1123525E-001  0.8809145E+02  0.7546771E-02  0.1307540E+00
         -1   -1    0    0    0  501 -0.00000000000E+00  0.00000000000E+00  0.10888522390E+03  0.10888522390E+03  0.00000000000E+00 0.  1.
          1   -1    0    0  501    0  0.00000000000E+00 -0.00000000000E+00 -0.73139997782E+02  0.73139997782E+02  0.00000000000E+00 0. -1.
         24    1    1    2    0    0  0.17094207156E+02 -0.31633394932E+02  0.33145049229E+01  0.88153760501E+02  0.80419002446E+02 0.  0.
        -24    1    1    2    0    0 -0.17094207156E+02  0.31633394932E+02  0.32430721198E+02  0.93871461185E+02  0.80419002446E+02 0. -1.
<mgrwt>
<rscale>  0 0.88091438E+02</rscale>
<asrwt>0</asrwt>
<pdfrwt beam="1">  1        1 0.11252307E-01 0.88091449E+02</pdfrwt>
<pdfrwt beam="2">  1       -1 0.16751573E-01 0.88091449E+02</pdfrwt>
<totfact> 0.13166105E+04</totfact>
</mgrwt>
</event>
<event>
 4    1  0.1123525E-001  0.8183943E+02  0.7546771E-02  0.1323911E+00
          1   -1    0    0  501    0  0.00000000000E+00  0.00000000000E+00  0.23750313910E+02  0.23750313910E+02  0.00000000000E+00 0. -1.
         -1   -1    0    0    0  501 -0.00000000000E+00 -0.00000000000E+00 -0.29440701849E+03  0.29440701849E+03  0.00000000000E+00 0.  1.
         24    1    1    2    0    0 -0.63859578624E+01  0.13772890943E+02 -0.10267727112E+03  0.13130236457E+03  0.80419002446E+02 0.  0.
        -24    1    1    2    0    0  0.63859578624E+01 -0.13772890943E+02 -0.16797943346E+03  0.18685496783E+03  0.80419002446E+02 0.  1.
<mgrwt>
<rscale>  0 0.81839420E+02</rscale>
<asrwt>0</asrwt>
<pdfrwt beam="1">  1        1 0.36538944E-02 0.81839430E+02</pdfrwt>
<pdfrwt beam="2">  1       -1 0.45293388E-01 0.81839430E+02</pdfrwt>
<totfact> 0.11349583E+04</totfact>
</mgrwt>
</event>
<event>
 4    1  0.1123525E-001  0.9995081E+02  0.7546771E-02  0.1280399E+00
         -2   -1    0    0    0  501 -0.00000000000E+00  0.00000000000E+00  0.85769814873E+02  0.85769814873E+02  0.00000000000E+00 0.  1.
          2   -1    0    0  501    0  0.00000000000E+00 -0.00000000000E+00 -0.10874250067E+04  0.10874250067E+04  0.00000000000E+00 0. -1.
         24    1    1    2    0    0 -0.56723643914E+02  0.17475056650E+02 -0.10551195688E+04  0.10598431346E+04  0.80419002446E+02 0. -1.
        -24    1    1    2    0    0  0.56723643914E+02 -0.17475056650E+02  0.53464377013E+02  0.11335168701E+03  0.80419002446E+02 0.  1.
<mgrwt>
<rscale>  0 0.99950815E+02</rscale>
<asrwt>0</asrwt>
<pdfrwt beam="1">  1        2 0.16729616E+00 0.99950815E+02</pdfrwt>
<pdfrwt beam="2">  1       -2 0.13195356E-01 0.99950815E+02</pdfrwt>
<totfact> 0.99245115E+02</totfact>
</mgrwt>
</event>
<event>
 4    1  0.1123525E-001  0.1180777E+03  0.7546771E-02  0.1246302E+00
         -1   -1    0    0    0  501 -0.00000000000E+00  0.00000000000E+00  0.12705387303E+02  0.12705387303E+02  0.00000000000E+00 0.  1.
          1   -1    0    0  501    0  0.00000000000E+00 -0.00000000000E+00 -0.10994270157E+04  0.10994270157E+04  0.00000000000E+00 0. -1.
         24    1    1    2    0    0  0.41442730226E+02 -0.75878991992E+02 -0.51922846126E+03  0.53248524134E+03  0.80419002446E+02 0. -1.
        -24    1    1    2    0    0 -0.41442730226E+02  0.75878991992E+02 -0.56749316711E+03  0.57964716163E+03  0.80419002446E+02 0.  1.
<mgrwt>
<rscale>  0 0.11807767E+03</rscale>
<asrwt>0</asrwt>
<pdfrwt beam="1">  1        1 0.16914266E+00 0.11807767E+03</pdfrwt>
<pdfrwt beam="2">  1       -1 0.19546745E-02 0.11807767E+03</pdfrwt>
<totfact> 0.91954562E+03</totfact>
</mgrwt>
</event>
<event>
 4    1  0.1123525E-001  0.1042432E+03  0.7546771E-02  0.1271618E+00
          2   -1    0    0  501    0  0.00000000000E+00  0.00000000000E+00  0.36735661165E+04  0.36735661165E+04  0.00000000000E+00 0. -1.
         -2   -1    0    0    0  501 -0.00000000000E+00 -0.00000000000E+00 -0.30483464320E+01  0.30483464320E+01  0.00000000000E+00 0.  1.
         24    1    1    2    0    0 -0.43313940185E+02  0.50232783093E+02  0.15188955617E+04  0.15224685131E+04  0.80419002446E+02 0.  0.
        -24    1    1    2    0    0  0.43313940185E+02 -0.50232783093E+02  0.21516222084E+04  0.21541459499E+04  0.80419002446E+02 0.  1.
<mgrwt>
<rscale>  0 0.10424322E+03</rscale>
<asrwt>0</asrwt>
<pdfrwt beam="1">  1        2 0.56516047E+00 0.10424323E+03</pdfrwt>
<pdfrwt beam="2">  1       -2 0.46897931E-03 0.10424323E+03</pdfrwt>
<totfact> 0.50188214E+03</totfact>
</mgrwt>
</event>
<event>
 4    1  0.1123525E-001  0.9547480E+02  0.7546771E-02  0.1290110E+00
          2   -1    0    0  501    0  0.00000000000E+00  0.00000000000E+00  0.16365686706E+02  0.16365686706E+02  0.00000000000E+00 0. -1.
         -2   -1    0    0    0  501 -0.00000000000E+00 -0.00000000000E+00 -0.56650071691E+03  0.56650071691E+03  0.00000000000E+00 0.  1.
         24    1    1    2    0    0  0.45987009447E+02  0.23095720109E+02 -0.31283966684E+03  0.32708422528E+03  0.80419002446E+02 0.  1.
        -24    1    1    2    0    0 -0.45987009447E+02 -0.23095720109E+02 -0.23729536336E+03  0.25578217833E+03  0.80419002446E+02 0. -1.
<mgrwt>
<rscale>  0 0.95474790E+02</rscale>
<asrwt>0</asrwt>
<pdfrwt beam="1">  1        2 0.25177976E-02 0.95474802E+02</pdfrwt>
<pdfrwt beam="2">  1       -2 0.87153969E-01 0.95474802E+02</pdfrwt>
<totfact> 0.42976885E+03</totfact>
</mgrwt>
</event>
<event>
 4    1  0.1123525E-001  0.1035942E+03  0.7546771E-02  0.1272914E+00
         -1   -1    0    0    0  501 -0.00000000000E+00  0.00000000000E+00  0.29566772151E+02  0.29566772151E+02  0.00000000000E+00 0.  1.
          1   -1    0    0  501    0  0.00000000000E+00 -0.00000000000E+00 -0.36998829675E+03  0.36998829675E+03  0.00000000000E+00 0. -1.
         24    1    1    2    0    0 -0.60432795065E+02 -0.24747251155E+02 -0.14269011290E+03  0.17632989943E+03  0.80419002446E+02 0. -1.
        -24    1    1    2    0    0  0.60432795065E+02  0.24747251155E+02 -0.19773141170E+03  0.22322516947E+03  0.80419002446E+02 0.  1.
<mgrwt>
<rscale>  0 0.10359423E+03</rscale>
<asrwt>0</asrwt>
<pdfrwt beam="1">  1        1 0.56921279E-01 0.10359423E+03</pdfrwt>
<pdfrwt beam="2">  1       -1 0.45487340E-02 0.10359423E+03</pdfrwt>
<totfact> 0.12546997E+04</totfact>
</mgrwt>
</event>
<event>
 4    1  0.1123525E-001  0.8396706E+02  0.7546771E-02  0.1318156E+00
         -2   -1    0    0    0  501 -0.00000000000E+00  0.00000000000E+00  0.10547759930E+03  0.10547759930E+03  0.00000000000E+00 0.  1.
          2   -1    0    0  501    0  0.00000000000E+00 -0.00000000000E+00 -0.14097594077E+03  0.14097594077E+03  0.00000000000E+00 0. -1.
         24    1    1    2    0    0  0.23663448204E+02 -0.48262319412E+01 -0.10710798530E+03  0.13609771403E+03  0.80419002446E+02 0. -1.
        -24    1    1    2    0    0 -0.23663448204E+02  0.48262319412E+01  0.71609643830E+02  0.11035582603E+03  0.80419002446E+02 0.  1.
<mgrwt>
<rscale>  0 0.83967061E+02</rscale>
<asrwt>0</asrwt>
<pdfrwt beam="1">  1        2 0.21688606E-01 0.83967061E+02</pdfrwt>
<pdfrwt beam="2">  1       -2 0.16227323E-01 0.83967061E+02</pdfrwt>
<totfact> 0.69240142E+03</totfact>
</mgrwt>
</event>
<event>
 4    1  0.1123525E-001  0.8695583E+02  0.7546771E-02  0.1310396E+00
          2   -1    0    0  501    0  0.00000000000E+00  0.00000000000E+00  0.11217434375E+04  0.11217434375E+04  0.00000000000E+00 0. -1.
         -2   -1    0    0    0  501 -0.00000000000E+00 -0.00000000000E+00 -0.89074671433E+01  0.89074671433E+01  0.00000000000E+00 0.  1.
         24    1    1    2    0    0  0.28555941933E+02  0.16693069783E+02  0.83524143697E+03  0.83975566351E+03  0.80419002446E+02 0. -1.
        -24    1    1    2    0    0 -0.28555941933E+02 -0.16693069783E+02  0.27759453341E+03  0.29089524117E+03  0.80419002446E+02 0.  1.
<mgrwt>
<rscale>  0 0.86955830E+02</rscale>
<asrwt>0</asrwt>
<pdfrwt beam="1">  1        2 0.17257580E+00 0.86955830E+02</pdfrwt>
<pdfrwt beam="2">  1       -2 0.13703805E-02 0.86955830E+02</pdfrwt>
<totfact> 0.27357253E+04</totfact>
</mgrwt>
</event>
<event>
 4    1  0.1123525E-001  0.8595227E+02  0.7546771E-02  0.1312961E+00
          2   -1    0    0  501    0  0.00000000000E+00  0.00000000000E+00  0.24660890048E+03  0.24660890048E+03  0.00000000000E+00 0. -1.
         -2   -1    0    0    0  501 -0.00000000000E+00 -0.00000000000E+00 -0.31309565300E+02  0.31309565300E+02  0.00000000000E+00 0.  1.
         24    1    1    2    0    0  0.28939952526E+02 -0.91132699225E+01  0.78773059015E+02  0.11658895026E+03  0.80419002446E+02 0.  1.
        -24    1    1    2    0    0 -0.28939952526E+02  0.91132699225E+01  0.13652627616E+03  0.16132951552E+03  0.80419002446E+02 0. -1.
<mgrwt>
<rscale>  0 0.85952256E+02</rscale>
<asrwt>0</asrwt>
<pdfrwt beam="1">  1        2 0.37939830E-01 0.85952267E+02</pdfrwt>
<pdfrwt beam="2">  1       -2 0.48168563E-02 0.85952267E+02</pdfrwt>
<totfact> 0.24805197E+04</totfact>
</mgrwt>
</event>
<event>
 4    1  0.1123525E-001  0.1148106E+03  0.7546771E-02  0.1251912E+00
          1   -1    0    0  501    0  0.00000000000E+00  0.00000000000E+00  0.18836381152E+03  0.18836381152E+03  0.00000000000E+00 0. -1.
         -1   -1    0    0    0  501 -0.00000000000E+00 -0.00000000000E+00 -0.24825023550E+03  0.24825023550E+03  0.00000000000E+00 0.  1.
         24    1    1    2    0    0  0.78632399522E+02 -0.23047753354E+02 -0.21493982731E+03  0.24368134625E+03  0.80419002446E+02 0.  1.
        -24    1    1    2    0    0 -0.78632399522E+02  0.23047753354E+02  0.15505340333E+03  0.19293270077E+03  0.80419002446E+02 0. -1.
<mgrwt>
<rscale>  0 0.11481058E+03</rscale>
<asrwt>0</asrwt>
<pdfrwt beam="1">  1        1 0.28979048E-01 0.11481058E+03</pdfrwt>
<pdfrwt beam="2">  1       -1 0.38192344E-01 0.11481058E+03</pdfrwt>
<totfact> 0.10464806E+03</totfact>
</mgrwt>
</event>
<event>
 4    1  0.1123525E-001  0.1157838E+03  0.7546771E-02  0.1250219E+00
         -2   -1    0    0    0  501 -0.00000000000E+00  0.00000000000E+00  0.14763985627E+03  0.14763985627E+03  0.00000000000E+00 0.  1.
          2   -1    0    0  501    0  0.00000000000E+00 -0.00000000000E+00 -0.28676522178E+03  0.28676522178E+03  0.00000000000E+00 0. -1.
         24    1    1    2    0    0 -0.18910894361E+02  0.81123714517E+02 -0.24911445181E+03  0.27470694392E+03  0.80419002446E+02 0. -1.
        -24    1    1    2    0    0  0.18910894361E+02 -0.81123714517E+02  0.10998908630E+03  0.15969813412E+03  0.80419002446E+02 0.  1.
<mgrwt>
<rscale>  0 0.11578383E+03</rscale>
<asrwt>0</asrwt>
<pdfrwt beam="1">  1        2 0.44117726E-01 0.11578383E+03</pdfrwt>
<pdfrwt beam="2">  1       -2 0.22713824E-01 0.11578383E+03</pdfrwt>
<totfact> 0.18795936E+03</totfact>
</mgrwt>
</event>
<event>
 4    1  0.1123525E-001  0.9060091E+02  0.7546771E-02  0.1301403E+00
          2   -1    0    0  501    0  0.00000000000E+00  0.00000000000E+00  0.54774172106E+03  0.54774172106E+03  0.00000000000E+00 0. -1.
         -2   -1    0    0    0  501 -0.00000000000E+00 -0.00000000000E+00 -0.15505600517E+02  0.15505600517E+02  0.00000000000E+00 0.  1.
         24    1    1    2    0    0 -0.41615741754E+02  0.30716303573E+01  0.21457012725E+03  0.23291384746E+03  0.80419002446E+02 0.  1.
        -24    1    1    2    0    0  0.41615741754E+02 -0.30716303573E+01  0.31766599330E+03  0.33033347412E+03  0.80419002446E+02 0. -1.
<mgrwt>
<rscale>  0 0.90600899E+02</rscale>
<asrwt>0</asrwt>
<pdfrwt beam="1">  1        2 0.84267943E-01 0.90600910E+02</pdfrwt>
<pdfrwt beam="2">  1       -2 0.23854774E-02 0.90600910E+02</pdfrwt>
<totfact> 0.29980913E+04</totfact>
</mgrwt>
</event>
<event>
 4    1  0.1123525E-001  0.1384600E+03  0.7546771E-02  0.1215416E+00
          1   -1    0    0  501    0  0.00000000000E+00  0.00000000000E+00  0.33051688821E+03  0.33051688821E+03  0.00000000000E+00 0. -1.
         -1   -1    0    0    0  501 -0.00000000000E+00 -0.00000000000E+00 -0.88045676206E+02  0.88045676206E+02  0.00000000000E+00 0.  1.
         24    1    1    2    0    0  0.79565383610E+02  0.79832942639E+02 -0.10123029521E+01  0.13846367650E+03  0.80419002446E+02 0.  1.
        -24    1    1    2    0    0 -0.79565383610E+02 -0.79832942639E+02  0.24348351495E+03  0.28009888791E+03  0.80419002446E+02 0. -1.
<mgrwt>
<rscale>  0 0.13845998E+03</rscale>
<asrwt>0</asrwt>
<pdfrwt beam="1">  1        1 0.50848751E-01 0.13845998E+03</pdfrwt>
<pdfrwt beam="2">  1       -1 0.13545489E-01 0.13845998E+03</pdfrwt>
<totfact> 0.28468818E+03</totfact>
</mgrwt>
</event>
<event>
 4    1  0.1123525E-001  0.9442234E+02  0.7546771E-02  0.1292482E+00
          2   -1    0    0  501    0  0.00000000000E+00  0.00000000000E+00  0.48296282485E+03  0.48296282485E+03  0.00000000000E+00 0. -1.
         -2   -1    0    0    0  501 -0.00000000000E+00 -0.00000000000E+00 -0.18621919884E+02  0.18621919884E+02  0.00000000000E+00 0.  1.
         24    1    1    2    0    0 -0.45012352472E+02  0.20548730932E+02  0.25554362320E+03  0.27243003052E+03  0.80419002446E+02 0. -1.
        -24    1    1    2    0    0  0.45012352472E+02 -0.20548730932E+02  0.20879728177E+03  0.22915471422E+03  0.80419002446E+02 0.  1.
<mgrwt>
<rscale>  0 0.94422339E+02</rscale>
<asrwt>0</asrwt>
<pdfrwt beam="1">  1        2 0.74301963E-01 0.94422339E+02</pdfrwt>
<pdfrwt beam="2">  1       -2 0.28649111E-02 0.94422339E+02</pdfrwt>
<totfact> 0.26483980E+04</totfact>
</mgrwt>
</event>
<event>
 4    1  0.1123525E-001  0.9080324E+02  0.7546771E-02  0.1300918E+00
          2   -1    0    0  501    0  0.00000000000E+00  0.00000000000E+00  0.16033451940E+03  0.16033451940E+03  0.00000000000E+00 0. -1.
         -2   -1    0    0    0  501 -0.00000000000E+00 -0.00000000000E+00 -0.56665954997E+02  0.56665954997E+02  0.00000000000E+00 0.  1.
         24    1    1    2    0    0 -0.41878920238E+02 -0.49160943802E+01  0.84830812500E+02  0.12426381069E+03  0.80419002446E+02 0.  1.
        -24    1    1    2    0    0  0.41878920238E+02  0.49160943802E+01  0.18837751907E+02  0.92736663707E+02  0.80419002446E+02 0. -1.
<mgrwt>
<rscale>  0 0.90803237E+02</rscale>
<asrwt>0</asrwt>
<pdfrwt beam="1">  1        2 0.24666849E-01 0.90803237E+02</pdfrwt>
<pdfrwt beam="2">  1       -2 0.87178393E-02 0.90803237E+02</pdfrwt>
<totfact> 0.16165032E+04</totfact>
</mgrwt>
</event>
<event>
 4    1  0.1123525E-001  0.1677896E+03  0.7546771E-02  0.1180173E+00
          2   -1    0    0  501    0  0.00000000000E+00  0.00000000000E+00  0.57024386428E+02  0.57024386428E+02  0.00000000000E+00 0. -1.
         -2   -1    0    0    0  501 -0.00000000000E+00 -0.00000000000E+00 -0.57605285037E+03  0.57605285037E+03  0.00000000000E+00 0.  1.
         24    1    1    2    0    0 -0.14628539396E+03  0.16932905728E+02 -0.13983587690E+03  0.21842030173E+03  0.80419002446E+02 0.  1.
        -24    1    1    2    0    0  0.14628539396E+03 -0.16932905728E+02 -0.37919258704E+03  0.41465693507E+03  0.80419002446E+02 0. -1.
<mgrwt>
<rscale>  0 0.16778962E+03</rscale>
<asrwt>0</asrwt>
<pdfrwt beam="1">  1        2 0.87729828E-02 0.16778962E+03</pdfrwt>
<pdfrwt beam="2">  1       -2 0.88623512E-01 0.16778962E+03</pdfrwt>
<totfact> 0.84300897E+02</totfact>
</mgrwt>
</event>
<event>
 4    1  0.1123525E-001  0.1192776E+03  0.7546771E-02  0.1244294E+00
         -2   -1    0    0    0  501 -0.00000000000E+00  0.00000000000E+00  0.31744527352E+02  0.31744527352E+02  0.00000000000E+00 0.  1.
          2   -1    0    0  501    0  0.00000000000E+00 -0.00000000000E+00 -0.69150496918E+03  0.69150496918E+03  0.00000000000E+00 0. -1.
         24    1    1    2    0    0  0.67004571940E+02 -0.57186682751E+02 -0.54439495061E+03  0.55730871835E+03  0.80419002446E+02 0. -1.
        -24    1    1    2    0    0 -0.67004571940E+02  0.57186682751E+02 -0.11536549121E+03  0.16594077818E+03  0.80419002446E+02 0.  1.
<mgrwt>
<rscale>  0 0.11927760E+03</rscale>
<asrwt>0</asrwt>
<pdfrwt beam="1">  1        2 0.10638539E+00 0.11927760E+03</pdfrwt>
<pdfrwt beam="2">  1       -2 0.48837730E-02 0.11927760E+03</pdfrwt>
<totfact> 0.82351875E+03</totfact>
</mgrwt>
</event>
<event>
 4    1  0.1123525E-001  0.1093090E+03  0.7546771E-02  0.1261855E+00
         -2   -1    0    0    0  501 -0.00000000000E+00  0.00000000000E+00  0.92307466862E+01  0.92307466862E+01  0.00000000000E+00 0.  1.
          2   -1    0    0  501    0  0.00000000000E+00 -0.00000000000E+00 -0.12965641259E+04  0.12965641259E+04  0.00000000000E+00 0. -1.
         24    1    1    2    0    0  0.73344482014E+02 -0.10090832772E+02 -0.61710997946E+03  0.62671618827E+03  0.80419002446E+02 0.  1.
        -24    1    1    2    0    0 -0.73344482014E+02  0.10090832772E+02 -0.67022339975E+03  0.67907868430E+03  0.80419002446E+02 0. -1.
<mgrwt>
<rscale>  0 0.10930900E+03</rscale>
<asrwt>0</asrwt>
<pdfrwt beam="1">  1        2 0.19947119E+00 0.10930901E+03</pdfrwt>
<pdfrwt beam="2">  1       -2 0.14201164E-02 0.10930901E+03</pdfrwt>
<totfact> 0.21284329E+04</totfact>
</mgrwt>
</event>
<event>
 4    1  0.1123525E-001  0.8972038E+02  0.7546771E-02  0.1303530E+00
          2   -1    0    0  501    0  0.00000000000E+00  0.00000000000E+00  0.14845770945E+04  0.14845770945E+04  0.00000000000E+00 0. -1.
         -2   -1    0    0    0  501 -0.00000000000E+00 -0.00000000000E+00 -0.55267805629E+01  0.55267805629E+01  0.00000000000E+00 0.  1.
         24    1    1    2    0    0 -0.36291607320E+02  0.16292646619E+02  0.84198970357E+03  0.84675640415E+03  0.80419002446E+02 0.  1.
        -24    1    1    2    0    0  0.36291607320E+02 -0.16292646619E+02  0.63706061041E+03  0.64334747096E+03  0.80419002446E+02 0. -1.
<mgrwt>
<rscale>  0 0.89720383E+02</rscale>
<asrwt>0</asrwt>
<pdfrwt beam="1">  1        2 0.22839616E+00 0.89720383E+02</pdfrwt>
<pdfrwt beam="2">  1       -2 0.85027512E-03 0.89720383E+02</pdfrwt>
<totfact> 0.34645834E+04</totfact>
</mgrwt>
</event>
<event>
 4    1  0.1123525E-001  0.1229404E+03  0.7546771E-02  0.1238324E+00
         -2   -1    0    0    0  501 -0.00000000000E+00  0.00000000000E+00  0.54529257083E+02  0.54529257083E+02  0.00000000000E+00 0.  1.
          2   -1    0    0  501    0  0.00000000000E+00 -0.00000000000E+00 -0.33395581391E+03  0.33395581391E+03  0.00000000000E+00 0. -1.
         24    1    1    2    0    0  0.65555965857E+02 -0.65951123975E+02 -0.21980475410E+03  0.25185011673E+03  0.80419002446E+02 0.  1.
        -24    1    1    2    0    0 -0.65555965857E+02  0.65951123975E+02 -0.59621802717E+02  0.13663495426E+03  0.80419002446E+02 0.  0.
<mgrwt>
<rscale>  0 0.12294044E+03</rscale>
<asrwt>0</asrwt>
<pdfrwt beam="1">  1        2 0.51377816E-01 0.12294044E+03</pdfrwt>
<pdfrwt beam="2">  1       -2 0.83891167E-02 0.12294044E+03</pdfrwt>
<totfact> 0.80599820E+03</totfact>
</mgrwt>
</event>
<event>
 4    1  0.1123525E-001  0.1040364E+03  0.7546771E-02  0.1272030E+00
          1   -1    0    0  501    0  0.00000000000E+00  0.00000000000E+00  0.11619531205E+04  0.11619531205E+04  0.00000000000E+00 0. -1.
         -1   -1    0    0    0  501 -0.00000000000E+00 -0.00000000000E+00 -0.10402036961E+02  0.10402036961E+02  0.00000000000E+00 0.  1.
         24    1    1    2    0    0  0.45215798958E+02 -0.48082017410E+02  0.76527023830E+03  0.77230958978E+03  0.80419002446E+02 0. -1.
        -24    1    1    2    0    0 -0.45215798958E+02  0.48082017410E+02  0.38628084522E+03  0.40004556767E+03  0.80419002446E+02 0.  1.
<mgrwt>
<rscale>  0 0.10403638E+03</rscale>
<asrwt>0</asrwt>
<pdfrwt beam="1">  1        1 0.17876192E+00 0.10403639E+03</pdfrwt>
<pdfrwt beam="2">  1       -1 0.16003143E-02 0.10403639E+03</pdfrwt>
<totfact> 0.10998262E+04</totfact>
</mgrwt>
</event>
<event>
 4    1  0.1224852E-001  0.8093386E+02  0.7546771E-02  0.1326422E+00
          1   -1    0    0  501    0  0.00000000000E+00  0.00000000000E+00  0.70911307211E+03  0.70911307211E+03  0.00000000000E+00 0. -1.
         -1   -1    0    0    0  501 -0.00000000000E+00 -0.00000000000E+00 -0.21394692068E+02  0.21394692068E+02  0.00000000000E+00 0.  1.
         24    1    1    2    0    0  0.73010538602E+01 -0.54560551936E+01  0.68523798304E+02  0.10604622018E+03  0.80419002446E+02 0.  1.
        -24    1    1    2    0    0 -0.73010538602E+01  0.54560551936E+01  0.61919458173E+03  0.62446154400E+03  0.80419002446E+02 0. -1.
<mgrwt>
<rscale>  0 0.80933861E+02</rscale>
<asrwt>0</asrwt>
<pdfrwt beam="1">  1        1 0.10909430E+00 0.80933861E+02</pdfrwt>
<pdfrwt beam="2">  1       -1 0.32914916E-02 0.80933861E+02</pdfrwt>
<totfact> 0.84327342E+03</totfact>
</mgrwt>
</event>
<event>
 4    1  0.1123525E-001  0.8597655E+02  0.7546771E-02  0.1312898E+00
          1   -1    0    0  501    0  0.00000000000E+00  0.00000000000E+00  0.19210888558E+03  0.19210888558E+03  0.00000000000E+00 0. -1.
         -1   -1    0    0    0  501 -0.00000000000E+00 -0.00000000000E+00 -0.58593842457E+02  0.58593842457E+02  0.00000000000E+00 0.  1.
         24    1    1    2    0    0  0.46257604636E+01 -0.30055836451E+02 -0.66891499281E+01  0.86236370783E+02  0.80419002446E+02 0.  1.
        -24    1    1    2    0    0 -0.46257604636E+01  0.30055836451E+02  0.14020419305E+03  0.16446635725E+03  0.80419002446E+02 0. -1.
<mgrwt>
<rscale>  0 0.85976549E+02</rscale>
<asrwt>0</asrwt>
<pdfrwt beam="1">  1        1 0.29555213E-01 0.85976549E+02</pdfrwt>
<pdfrwt beam="2">  1       -1 0.90144374E-02 0.85976549E+02</pdfrwt>
<totfact> 0.10010817E+04</totfact>
</mgrwt>
</event>
<event>
 4    1  0.1123525E-001  0.9060847E+02  0.7546771E-02  0.1301385E+00
         -2   -1    0    0    0  501 -0.00000000000E+00  0.00000000000E+00  0.17849647628E+02  0.17849647628E+02  0.00000000000E+00 0.  1.
          2   -1    0    0  501    0  0.00000000000E+00 -0.00000000000E+00 -0.71304339893E+03  0.71304339893E+03  0.00000000000E+00 0. -1.
         24    1    1    2    0    0 -0.41399583777E+02 -0.53622616626E+01 -0.56532206113E+03  0.57253727228E+03  0.80419002446E+02 0. -1.
        -24    1    1    2    0    0  0.41399583777E+02  0.53622616626E+01 -0.12987169017E+03  0.15835577429E+03  0.80419002446E+02 0.  1.
<mgrwt>
<rscale>  0 0.90608473E+02</rscale>
<asrwt>0</asrwt>
<pdfrwt beam="1">  1        2 0.10969900E+00 0.90608473E+02</pdfrwt>
<pdfrwt beam="2">  1       -2 0.27460993E-02 0.90608473E+02</pdfrwt>
<totfact> 0.18146418E+04</totfact>
</mgrwt>
</event>
<event>
 4    1  0.1123525E-001  0.1610175E+03  0.7546771E-02  0.1187553E+00
         -2   -1    0    0    0  501 -0.00000000000E+00  0.00000000000E+00  0.30386235147E+02  0.30386235147E+02  0.00000000000E+00 0.  1.
          2   -1    0    0  501    0  0.00000000000E+00 -0.00000000000E+00 -0.10734437301E+04  0.10734437301E+04  0.00000000000E+00 0. -1.
         24    1    1    2    0    0 -0.41453218664E+02  0.13319553583E+03 -0.77150492157E+03  0.78812846673E+03  0.80419002446E+02 0. -1.
        -24    1    1    2    0    0  0.41453218664E+02 -0.13319553583E+03 -0.27155257339E+03  0.31570149852E+03  0.80419002446E+02 0.  1.
<mgrwt>
<rscale>  0 0.16101750E+03</rscale>
<asrwt>0</asrwt>
<pdfrwt beam="1">  1        2 0.16514519E+00 0.16101750E+03</pdfrwt>
<pdfrwt beam="2">  1       -2 0.46748053E-02 0.16101750E+03</pdfrwt>
<totfact> 0.50550336E+03</totfact>
</mgrwt>
</event>
<event>
 4    1  0.1123525E-001  0.8054583E+02  0.7546771E-02  0.1327510E+00
         -2   -1    0    0    0  501 -0.00000000000E+00  0.00000000000E+00  0.19991458276E+03  0.19991458276E+03  0.00000000000E+00 0.  1.
          2   -1    0    0  501    0  0.00000000000E+00 -0.00000000000E+00 -0.45743136783E+02  0.45743136783E+02  0.00000000000E+00 0. -1.
         24    1    1    2    0    0  0.43551791335E+01  0.12028107214E+01  0.10876524786E+02  0.81276866848E+02  0.80419002446E+02 0. -1.
        -24    1    1    2    0    0 -0.43551791335E+01 -0.12028107214E+01  0.14329492119E+03  0.16438085270E+03  0.80419002446E+02 0.  0.
<mgrwt>
<rscale>  0 0.80545827E+02</rscale>
<asrwt>0</asrwt>
<pdfrwt beam="1">  1        2 0.70374058E-02 0.80545827E+02</pdfrwt>
<pdfrwt beam="2">  1       -2 0.30756089E-01 0.80545827E+02</pdfrwt>
<totfact> 0.87604306E+03</totfact>
</mgrwt>
</event>
<event>
 4    1  0.1123525E-001  0.9480157E+02  0.7546771E-02  0.1291624E+00
          2   -1    0    0  501    0  0.00000000000E+00  0.00000000000E+00  0.23887394094E+04  0.23887394094E+04  0.00000000000E+00 0. -1.
         -2   -1    0    0    0  501 -0.00000000000E+00 -0.00000000000E+00 -0.63315216722E+01  0.63315216722E+01  0.00000000000E+00 0.  1.
         24    1    1    2    0    0 -0.22287450253E+02 -0.44982114823E+02  0.19540355116E+04  0.19563338461E+04  0.80419002446E+02 0. -1.
        -24    1    1    2    0    0  0.22287450253E+02  0.44982114823E+02  0.42837237620E+03  0.43873708498E+03  0.80419002446E+02 0.  1.
<mgrwt>
<rscale>  0 0.94801567E+02</rscale>
<asrwt>0</asrwt>
<pdfrwt beam="1">  1        2 0.36749765E+00 0.94801567E+02</pdfrwt>
<pdfrwt beam="2">  1       -2 0.97408217E-03 0.94801567E+02</pdfrwt>
<totfact> 0.99942156E+03</totfact>
</mgrwt>
</event>
<event>
 4    1  0.1123525E-001  0.1093555E+03  0.7546771E-02  0.1261768E+00
          2   -1    0    0  501    0  0.00000000000E+00  0.00000000000E+00  0.87378273208E+03  0.87378273208E+03  0.00000000000E+00 0. -1.
         -2   -1    0    0    0  501 -0.00000000000E+00 -0.00000000000E+00 -0.15327501666E+02  0.15327501666E+02  0.00000000000E+00 0.  1.
         24    1    1    2    0    0  0.45393407183E+02  0.58573372809E+02  0.57470869593E+03  0.58502025824E+03  0.80419002446E+02 0. -1.
        -24    1    1    2    0    0 -0.45393407183E+02 -0.58573372809E+02  0.28374653449E+03  0.30408997551E+03  0.80419002446E+02 0.  1.
<mgrwt>
<rscale>  0 0.10935546E+03</rscale>
<asrwt>0</asrwt>
<pdfrwt beam="1">  1        2 0.13442807E+00 0.10935546E+03</pdfrwt>
<pdfrwt beam="2">  1       -2 0.23580779E-02 0.10935546E+03</pdfrwt>
<totfact> 0.17937567E+04</totfact>
</mgrwt>
</event>
<event>
 4    1  0.1123525E-001  0.1111015E+03  0.7546771E-02  0.1258544E+00
          2   -1    0    0  501    0  0.00000000000E+00  0.00000000000E+00  0.17509268733E+04  0.17509268733E+04  0.00000000000E+00 0. -1.
         -2   -1    0    0    0  501 -0.00000000000E+00 -0.00000000000E+00 -0.78804989385E+01  0.78804989385E+01  0.00000000000E+00 0.  1.
         24    1    1    2    0    0 -0.65966214701E+02  0.39048371714E+02  0.11570558984E+04  0.11623776859E+04  0.80419002446E+02 0. -1.
        -24    1    1    2    0    0  0.65966214701E+02 -0.39048371714E+02  0.58599047596E+03  0.59642968629E+03  0.80419002446E+02 0.  1.
<mgrwt>
<rscale>  0 0.11110145E+03</rscale>
<asrwt>0</asrwt>
<pdfrwt beam="1">  1        2 0.26937306E+00 0.11110145E+03</pdfrwt>
<pdfrwt beam="2">  1       -2 0.12123858E-02 0.11110145E+03</pdfrwt>
<totfact> 0.15563449E+04</totfact>
</mgrwt>
</event>
<event>
 4    1  0.1123525E-001  0.8498773E+02  0.7546771E-02  0.1315465E+00
          2   -1    0    0  501    0  0.00000000000E+00  0.00000000000E+00  0.66217165279E+03  0.66217165279E+03  0.00000000000E+00 0. -1.
         -2   -1    0    0    0  501 -0.00000000000E+00 -0.00000000000E+00 -0.13096066751E+02  0.13096066751E+02  0.00000000000E+00 0.  1.
         24    1    1    2    0    0  0.10296373132E+02  0.25488885235E+02  0.46254885876E+03  0.47029178312E+03  0.80419002446E+02 0.  1.
        -24    1    1    2    0    0 -0.10296373132E+02 -0.25488885235E+02  0.18652672727E+03  0.20497593642E+03  0.80419002446E+02 0.  0.
<mgrwt>
<rscale>  0 0.84987732E+02</rscale>
<asrwt>0</asrwt>
<pdfrwt beam="1">  1        2 0.10187254E+00 0.84987732E+02</pdfrwt>
<pdfrwt beam="2">  1       -2 0.20147800E-02 0.84987732E+02</pdfrwt>
<totfact> 0.30697240E+04</totfact>
</mgrwt>
</event>
<event>
 4    1  0.1123525E-001  0.1460061E+03  0.7546771E-02  0.1205468E+00
          2   -1    0    0  501    0  0.00000000000E+00  0.00000000000E+00  0.24445446374E+04  0.24445446374E+04  0.00000000000E+00 0. -1.
         -2   -1    0    0    0  501 -0.00000000000E+00 -0.00000000000E+00 -0.87453014789E+01  0.87453014789E+01  0.00000000000E+00 0.  1.
         24    1    1    2    0    0 -0.70434394399E+02  0.99446210589E+02  0.12831601469E+04  0.12914401772E+04  0.80419002446E+02 0.  0.
        -24    1    1    2    0    0  0.70434394399E+02 -0.99446210589E+02  0.11526391891E+04  0.11618497617E+04  0.80419002446E+02 0.  0.
<mgrwt>
<rscale>  0 0.14600606E+03</rscale>
<asrwt>0</asrwt>
<pdfrwt beam="1">  1        2 0.37608325E+00 0.14600606E+03</pdfrwt>
<pdfrwt beam="2">  1       -2 0.13454329E-02 0.14600606E+03</pdfrwt>
<totfact> 0.59377360E+03</totfact>
</mgrwt>
</event>
<event>
 4    1  0.1123525E-001  0.9738350E+02  0.7546771E-02  0.1285896E+00
         -1   -1    0    0    0  501 -0.00000000000E+00  0.00000000000E+00  0.96225423590E+01  0.96225423590E+01  0.00000000000E+00 0.  1.
          1   -1    0    0  501    0  0.00000000000E+00 -0.00000000000E+00 -0.13582895645E+04  0.13582895645E+04  0.00000000000E+00 0. -1.
         24    1    1    2    0    0  0.43398167762E+02 -0.33659022255E+02 -0.31604595011E+03  0.33070922164E+03  0.80419002446E+02 0.  1.
        -24    1    1    2    0    0 -0.43398167762E+02  0.33659022255E+02 -0.10326210721E+04  0.10372028852E+04  0.80419002446E+02 0. -1.
<mgrwt>
<rscale>  0 0.97383503E+02</rscale>
<asrwt>0</asrwt>
<pdfrwt beam="1">  1        1 0.20896749E+00 0.97383503E+02</pdfrwt>
<pdfrwt beam="2">  1       -1 0.14803921E-02 0.97383503E+02</pdfrwt>
<totfact> 0.90544140E+03</totfact>
</mgrwt>
</event>
<event>
 4    1  0.1123525E-001  0.1426309E+03  0.7546771E-02  0.1209832E+00
          1   -1    0    0  501    0  0.00000000000E+00  0.00000000000E+00  0.39635445285E+03  0.39635445285E+03  0.00000000000E+00 0. -1.
         -1   -1    0    0    0  501 -0.00000000000E+00 -0.00000000000E+00 -0.69291479650E+02  0.69291479650E+02  0.00000000000E+00 0.  1.
         24    1    1    2    0    0 -0.72877677393E+02  0.92548415504E+02  0.44982896784E+02  0.14955615010E+03  0.80419002446E+02 0.  1.
        -24    1    1    2    0    0  0.72877677393E+02 -0.92548415504E+02  0.28208007642E+03  0.31608978240E+03  0.80419002446E+02 0. -1.
<mgrwt>
<rscale>  0 0.14263093E+03</rscale>
<asrwt>0</asrwt>
<pdfrwt beam="1">  1        1 0.60977607E-01 0.14263093E+03</pdfrwt>
<pdfrwt beam="2">  1       -1 0.10660228E-01 0.14263093E+03</pdfrwt>
<totfact> 0.32871841E+03</totfact>
</mgrwt>
</event>
<event>
 4    1  0.1123525E-001  0.8475393E+02  0.7546771E-02  0.1316077E+00
          1   -1    0    0  501    0  0.00000000000E+00  0.00000000000E+00  0.24655847777E+03  0.24655847777E+03  0.00000000000E+00 0. -1.
         -1   -1    0    0    0  501 -0.00000000000E+00 -0.00000000000E+00 -0.50269781069E+02  0.50269781069E+02  0.00000000000E+00 0.  1.
         24    1    1    2    0    0  0.24690852434E+02 -0.10313813483E+02  0.19097707740E+01  0.84775445273E+02  0.80419002446E+02 0.  1.
        -24    1    1    2    0    0 -0.24690852434E+02  0.10313813483E+02  0.19437892593E+03  0.21205281356E+03  0.80419002446E+02 0. -1.
<mgrwt>
<rscale>  0 0.84753931E+02</rscale>
<asrwt>0</asrwt>
<pdfrwt beam="1">  1        1 0.37932073E-01 0.84753931E+02</pdfrwt>
<pdfrwt beam="2">  1       -1 0.77338126E-02 0.84753931E+02</pdfrwt>
<totfact> 0.92655104E+03</totfact>
</mgrwt>
</event>
<event>
 4    1  0.1123525E-001  0.1319356E+03  0.7546771E-02  0.1224612E+00
         -1   -1    0    0    0  501 -0.00000000000E+00  0.00000000000E+00  0.15418343795E+03  0.15418343795E+03  0.00000000000E+00 0.  1.
          1   -1    0    0  501    0  0.00000000000E+00 -0.00000000000E+00 -0.21002713642E+03  0.21002713642E+03  0.00000000000E+00 0. -1.
         24    1    1    2    0    0 -0.10450066625E+03 -0.44043147089E+01  0.95917765665E+02  0.16311720007E+03  0.80419002446E+02 0. -1.
        -24    1    1    2    0    0  0.10450066625E+03  0.44043147089E+01 -0.15176146414E+03  0.20109337430E+03  0.80419002446E+02 0.  0.
<mgrwt>
<rscale>  0 0.13193560E+03</rscale>
<asrwt>0</asrwt>
<pdfrwt beam="1">  1        1 0.32311867E-01 0.13193560E+03</pdfrwt>
<pdfrwt beam="2">  1       -1 0.23720529E-01 0.13193560E+03</pdfrwt>
<totfact> 0.20422842E+03</totfact>
</mgrwt>
</event>
<event>
 4    1  0.1123525E-001  0.1231113E+03  0.7546771E-02  0.1238051E+00
          2   -1    0    0  501    0  0.00000000000E+00  0.00000000000E+00  0.13048144606E+03  0.13048144606E+03  0.00000000000E+00 0. -1.
         -2   -1    0    0    0  501 -0.00000000000E+00 -0.00000000000E+00 -0.11616554682E+03  0.11616554682E+03  0.00000000000E+00 0.  1.
         24    1    1    2    0    0  0.32085944590E+02  0.87519499336E+02  0.81902103225E+01  0.12338341097E+03  0.80419002446E+02 0.  1.
        -24    1    1    2    0    0 -0.32085944590E+02 -0.87519499336E+02  0.61256889179E+01  0.12326358190E+03  0.80419002446E+02 0. -1.
<mgrwt>
<rscale>  0 0.12311128E+03</rscale>
<asrwt>0</asrwt>
<pdfrwt beam="1">  1        2 0.20074069E-01 0.12311128E+03</pdfrwt>
<pdfrwt beam="2">  1       -2 0.17871623E-01 0.12311128E+03</pdfrwt>
<totfact> 0.66366273E+03</totfact>
</mgrwt>
</event>
<event>
 4    1  0.1123525E-001  0.9463035E+02  0.7546771E-02  0.1292011E+00
         -4   -1    0    0    0  501 -0.00000000000E+00  0.00000000000E+00  0.33711113733E+03  0.33711113733E+03  0.00000000000E+00 0.  1.
          4   -1    0    0  501    0  0.00000000000E+00 -0.00000000000E+00 -0.34687527036E+02  0.34687527036E+02  0.00000000000E+00 0. -1.
         24    1    1    2    0    0  0.14269647167E+02 -0.47791886582E+02  0.61246976753E+02  0.11272131728E+03  0.80419002446E+02 0. -1.
        -24    1    1    2    0    0 -0.14269647167E+02  0.47791886582E+02  0.24117663354E+03  0.25907734709E+03  0.80419002446E+02 0.  1.
<mgrwt>
<rscale>  0 0.94630350E+02</rscale>
<asrwt>0</asrwt>
<pdfrwt beam="1">  1        4 0.53365428E-02 0.94630350E+02</pdfrwt>
<pdfrwt beam="2">  1       -4 0.51863250E-01 0.94630350E+02</pdfrwt>
<totfact> 0.11739001E+03</totfact>
</mgrwt>
</event>
<event>
 4    1  0.1123525E-001  0.1300689E+03  0.7546771E-02  0.1227354E+00
          2   -1    0    0  501    0  0.00000000000E+00  0.00000000000E+00  0.83403560993E+03  0.83403560993E+03  0.00000000000E+00 0.  1.
         -2   -1    0    0    0  501 -0.00000000000E+00 -0.00000000000E+00 -0.20678810482E+02  0.20678810482E+02  0.00000000000E+00 0. -1.
         24    1    1    2    0    0  0.82819705408E+02  0.59929782059E+02  0.34765673508E+03  0.37119146513E+03  0.80419002446E+02 0. -1.
        -24    1    1    2    0    0 -0.82819705408E+02 -0.59929782059E+02  0.46570006437E+03  0.48352295529E+03  0.80419002446E+02 0.  0.
<mgrwt>
<rscale>  0 0.13006884E+03</rscale>
<asrwt>0</asrwt>
<pdfrwt beam="1">  1        2 0.12831314E+00 0.13006885E+03</pdfrwt>
<pdfrwt beam="2">  1       -2 0.31813561E-02 0.13006885E+03</pdfrwt>
<totfact> 0.12444593E+04</totfact>
</mgrwt>
</event>
