<event>
 4    1  0.1008211E-007  0.6876505E+03  0.7818608E-02  0.1005290E+00
          1   -1    0    0  501    0  0.00000000000E+00  0.00000000000E+00  0.64941536537E+03  0.64941536539E+03  0.50400000000E-02 0. -1.
         -1   -1    0    0    0  501 -0.00000000000E+00 -0.00000000000E+00 -0.64524186492E+03  0.64524186494E+03  0.50400000000E-02 0.  1.
    8880023    1    1    2    0    0  0.71483597239E+02  0.18423642042E+03 -0.41752360965E+03  0.80448066115E+03  0.65864270000E+03 0.  1.
    8880022    1    1    2    0    0 -0.71483597239E+02 -0.18423642042E+03  0.42169711011E+03  0.49017656918E+03  0.15294330000E+03 0.  0.
<mgrwt>
<rscale>  0 0.53390340E+03</rscale>
<asrwt>0</asrwt>
<pdfrwt beam="1">  1        1 0.99910056E-01 0.68765047E+03</pdfrwt>
<pdfrwt beam="2">  1       -1 0.99267979E-01 0.68765047E+03</pdfrwt>
<totfact> 0.30485931E+01</totfact>
</mgrwt>
</event>
<event>
 4    1  0.1008211E-007  0.1196665E+04  0.7818608E-02  0.9160371E-01
          1   -1    0    0  501    0  0.00000000000E+00  0.00000000000E+00  0.21320789506E+04  0.21320789506E+04  0.50400000000E-02 0. -1.
         -1   -1    0    0    0  501 -0.00000000000E+00 -0.00000000000E+00 -0.10077385989E+04  0.10077385989E+04  0.50400000000E-02 0.  1.
    8880023    1    1    2    0    0 -0.18890631926E+03 -0.98107713716E+03 -0.44199515471E+03  0.12756832952E+04  0.65864270000E+03 0.  1.
    8880022    1    1    2    0    0  0.18890631926E+03  0.98107713716E+03  0.15663355065E+04  0.18641342544E+04  0.15294330000E+03 0.  0.
<mgrwt>
<rscale>  0 0.11471999E+04</rscale>
<asrwt>0</asrwt>
<pdfrwt beam="1">  1        1 0.32801215E+00 0.11966654E+04</pdfrwt>
<pdfrwt beam="2">  1       -1 0.15503671E+00 0.11966654E+04</pdfrwt>
<totfact> 0.76050954E-01</totfact>
</mgrwt>
</event>
<event>
 4    1  0.1008211E-007  0.1024357E+04  0.7818608E-02  0.9350363E-01
         -1   -1    0    0    0  501 -0.00000000000E+00  0.00000000000E+00  0.10523331448E+04  0.10523331448E+04  0.50400000000E-02 0.  1.
          1   -1    0    0  501    0  0.00000000000E+00 -0.00000000000E+00 -0.88012117862E+03  0.88012117863E+03  0.50400000000E-02 0. -1.
    8880023    1    1    2    0    0  0.25265405991E+03 -0.74273972013E+03 -0.21127235946E+03  0.10459171009E+04  0.65864270000E+03 0. -1.
    8880022    1    1    2    0    0 -0.25265405991E+03  0.74273972013E+03  0.38348432560E+03  0.88653722248E+03  0.15294330000E+03 0.  0.
<mgrwt>
<rscale>  0 0.96275657E+03</rscale>
<asrwt>0</asrwt>
<pdfrwt beam="1">  1        1 0.13540326E+00 0.10243567E+04</pdfrwt>
<pdfrwt beam="2">  1       -1 0.16189741E+00 0.10243567E+04</pdfrwt>
<totfact> 0.53426897E+00</totfact>
</mgrwt>
</event>
<event>
 4    1  0.1008211E-007  0.7283142E+03  0.7818608E-02  0.9895396E-01
          1   -1    0    0  501    0  0.00000000000E+00  0.00000000000E+00  0.60933222030E+03  0.60933222032E+03  0.50400000000E-02 0. -1.
         -1   -1    0    0    0  501 -0.00000000000E+00 -0.00000000000E+00 -0.58834805107E+03  0.58834805109E+03  0.50400000000E-02 0.  1.
    8880023    1    1    2    0    0 -0.16089474771E+03  0.26597793345E+03 -0.23680962523E+03  0.76584618938E+03  0.65864270000E+03 0.  1.
    8880022    1    1    2    0    0  0.16089474771E+03 -0.26597793345E+03  0.25779379446E+03  0.43183408203E+03  0.15294330000E+03 0.  0.
<mgrwt>
<rscale>  0 0.60484927E+03</rscale>
<asrwt>0</asrwt>
<pdfrwt beam="1">  1        1 0.93743418E-01 0.72831421E+03</pdfrwt>
<pdfrwt beam="2">  1       -1 0.90515085E-01 0.72831421E+03</pdfrwt>
<totfact> 0.40942761E+01</totfact>
</mgrwt>
</event>
<event>
 4    1  0.1008211E-007  0.1011032E+04  0.7818608E-02  0.9367265E-01
          1   -1    0    0  501    0  0.00000000000E+00  0.00000000000E+00  0.12509898811E+04  0.12509898811E+04  0.50400000000E-02 0. -1.
         -1   -1    0    0    0  501 -0.00000000000E+00 -0.00000000000E+00 -0.72212814905E+03  0.72212814907E+03  0.50400000000E-02 0.  1.
    8880023    1    1    2    0    0 -0.27508851411E+03  0.71603192508E+03 -0.30561355066E+02  0.10114937523E+04  0.65864270000E+03 0.  0.
    8880022    1    1    2    0    0  0.27508851411E+03 -0.71603192508E+03  0.55942308713E+03  0.96162427786E+03  0.15294330000E+03 0.  0.
<mgrwt>
<rscale>  0 0.94819339E+03</rscale>
<asrwt>0</asrwt>
<pdfrwt beam="1">  1        1 0.19245998E+00 0.10110320E+04</pdfrwt>
<pdfrwt beam="2">  1       -1 0.11109664E+00 0.10110320E+04</pdfrwt>
<totfact> 0.73311468E+00</totfact>
</mgrwt>
</event>
<event>
 4    1  0.1008211E-007  0.9461876E+03  0.7818608E-02  0.9455621E-01
          1   -1    0    0  501    0  0.00000000000E+00  0.00000000000E+00  0.93143317270E+03  0.93143317272E+03  0.50400000000E-02 0. -1.
         -1   -1    0    0    0  501 -0.00000000000E+00 -0.00000000000E+00 -0.11719698251E+04  0.11719698251E+04  0.50400000000E-02 0.  1.
    8880023    1    1    2    0    0  0.46975690816E+03 -0.49070277929E+03 -0.77705139071E+03  0.12243691602E+04  0.65864270000E+03 0.  0.
    8880022    1    1    2    0    0 -0.46975690816E+03  0.49070277929E+03  0.53651473828E+03  0.87903383767E+03  0.15294330000E+03 0.  0.
<mgrwt>
<rscale>  0 0.87636321E+03</rscale>
<asrwt>0</asrwt>
<pdfrwt beam="1">  1        1 0.14329741E+00 0.94618760E+03</pdfrwt>
<pdfrwt beam="2">  1       -1 0.18030305E+00 0.94618760E+03</pdfrwt>
<totfact> 0.35873209E+00</totfact>
</mgrwt>
</event>
<event>
 4    1  0.1008211E-007  0.8501690E+03  0.7818608E-02  0.9611296E-01
          1   -1    0    0  501    0  0.00000000000E+00  0.00000000000E+00  0.82506650921E+03  0.82506650923E+03  0.50400000000E-02 0. -1.
         -1   -1    0    0    0  501 -0.00000000000E+00 -0.00000000000E+00 -0.69549251917E+03  0.69549251919E+03  0.50400000000E-02 0.  1.
    8880023    1    1    2    0    0 -0.53440382888E+03 -0.58221490200E+02 -0.19774824908E+03  0.87286411916E+03  0.65864270000E+03 0.  1.
    8880022    1    1    2    0    0  0.53440382888E+03  0.58221490200E+02  0.32732223912E+03  0.64769490926E+03  0.15294330000E+03 0. -1.
<mgrwt>
<rscale>  0 0.76553038E+03</rscale>
<asrwt>0</asrwt>
<pdfrwt beam="1">  1        1 0.12693331E+00 0.85016904E+03</pdfrwt>
<pdfrwt beam="2">  1       -1 0.10699885E+00 0.85016904E+03</pdfrwt>
<totfact> 0.17422097E+01</totfact>
</mgrwt>
</event>
<event>
 4    1  0.1008211E-007  0.1173466E+04  0.7818608E-02  0.9183357E-01
          1   -1    0    0  501    0  0.00000000000E+00  0.00000000000E+00  0.25309779915E+04  0.25309779915E+04  0.50400000000E-02 0. -1.
         -1   -1    0    0    0  501 -0.00000000000E+00 -0.00000000000E+00 -0.72549085408E+03  0.72549085409E+03  0.50400000000E-02 0.  1.
    8880023    1    1    2    0    0 -0.87038243720E+03  0.43086783294E+03 -0.30446073877E+02  0.11738610847E+04  0.65864270000E+03 0.  0.
    8880022    1    1    2    0    0  0.87038243720E+03 -0.43086783294E+03  0.18359332113E+04  0.20826077609E+04  0.15294330000E+03 0.  0.
<mgrwt>
<rscale>  0 0.11226879E+04</rscale>
<asrwt>0</asrwt>
<pdfrwt beam="1">  1        1 0.38938123E+00 0.11734662E+04</pdfrwt>
<pdfrwt beam="2">  1       -1 0.11161398E+00 0.11734662E+04</pdfrwt>
<totfact> 0.94393920E-01</totfact>
</mgrwt>
</event>
<event>
 4    1  0.1008211E-007  0.9364004E+03  0.7818608E-02  0.9469957E-01
          1   -1    0    0  501    0  0.00000000000E+00  0.00000000000E+00  0.18254304794E+04  0.18254304794E+04  0.50400000000E-02 0. -1.
         -1   -1    0    0    0  501 -0.00000000000E+00 -0.00000000000E+00 -0.13101018564E+04  0.13101018564E+04  0.50400000000E-02 0.  1.
    8880023    1    1    2    0    0 -0.56126903073E+03  0.35778833920E+03 -0.10624958688E+04  0.14162425986E+04  0.65864270000E+03 0.  1.
    8880022    1    1    2    0    0  0.56126903073E+03 -0.35778833920E+03  0.15778244918E+04  0.17192897372E+04  0.15294330000E+03 0.  0.
<mgrwt>
<rscale>  0 0.86535468E+03</rscale>
<asrwt>0</asrwt>
<pdfrwt beam="1">  1        1 0.28083546E+00 0.93640036E+03</pdfrwt>
<pdfrwt beam="2">  1       -1 0.20155413E+00 0.93640036E+03</pdfrwt>
<totfact> 0.58739914E-01</totfact>
</mgrwt>
</event>
<event>
 4    1  0.1008211E-007  0.7567587E+03  0.7818608E-02  0.9813572E-01
         -1   -1    0    0    0  501 -0.00000000000E+00  0.00000000000E+00  0.27075043817E+03  0.27075043821E+03  0.50400000000E-02 0.  1.
          1   -1    0    0  501    0  0.00000000000E+00 -0.00000000000E+00 -0.13467120551E+04  0.13467120551E+04  0.50400000000E-02 0. -1.
    8880023    1    1    2    0    0 -0.34668690660E+03 -0.13668121599E+03 -0.47332215180E+03  0.89259040532E+03  0.65864270000E+03 0.  1.
    8880022    1    1    2    0    0  0.34668690660E+03  0.13668121599E+03 -0.60263946511E+03  0.72487208798E+03  0.15294330000E+03 0. -1.
<mgrwt>
<rscale>  0 0.64639243E+03</rscale>
<asrwt>0</asrwt>
<pdfrwt beam="1">  1        1 0.20718647E+00 0.75675873E+03</pdfrwt>
<pdfrwt beam="2">  1       -1 0.41653914E-01 0.75675873E+03</pdfrwt>
<totfact> 0.48604459E+01</totfact>
</mgrwt>
</event>
<event>
 4    1  0.1008211E-007  0.6898915E+03  0.7818608E-02  0.1004204E+00
          1   -1    0    0  501    0  0.00000000000E+00  0.00000000000E+00  0.73491802488E+03  0.73491802490E+03  0.50400000000E-02 0. -1.
         -1   -1    0    0    0  501 -0.00000000000E+00 -0.00000000000E+00 -0.12743845197E+04  0.12743845197E+04  0.50400000000E-02 0.  1.
    8880023    1    1    2    0    0  0.20042860442E+03 -0.44367145524E+02 -0.11534878609E+04  0.13440552521E+04  0.65864270000E+03 0.  1.
    8880022    1    1    2    0    0 -0.20042860442E+03  0.44367145524E+02  0.61402136614E+03  0.66524729249E+03  0.15294330000E+03 0.  0.
<mgrwt>
<rscale>  0 0.53844586E+03</rscale>
<asrwt>0</asrwt>
<pdfrwt beam="1">  1        1 0.11306431E+00 0.68989150E+03</pdfrwt>
<pdfrwt beam="2">  1       -1 0.19605916E+00 0.68989150E+03</pdfrwt>
<totfact> 0.42439847E+00</totfact>
</mgrwt>
</event>
<event>
 4    1  0.1008211E-007  0.1317834E+04  0.7818608E-02  0.9050310E-01
          1   -1    0    0  501    0  0.00000000000E+00  0.00000000000E+00  0.31270956701E+04  0.31270956701E+04  0.50400000000E-02 0. -1.
         -1   -1    0    0    0  501 -0.00000000000E+00 -0.00000000000E+00 -0.12490222194E+04  0.12490222194E+04  0.50400000000E-02 0.  1.
    8880023    1    1    2    0    0 -0.10270887179E+04 -0.49796122855E+03  0.26706544443E+04  0.29781003990E+04  0.65864270000E+03 0.  0.
    8880022    1    1    2    0    0  0.10270887179E+04  0.49796122855E+03 -0.79258099355E+03  0.13980174906E+04  0.15294330000E+03 0.  0.
<mgrwt>
<rscale>  0 0.12741615E+04</rscale>
<asrwt>0</asrwt>
<pdfrwt beam="1">  1        1 0.48109164E+00 0.13178341E+04</pdfrwt>
<pdfrwt beam="2">  1       -1 0.19215726E+00 0.13178341E+04</pdfrwt>
<totfact> 0.80125850E-02</totfact>
</mgrwt>
</event>
<event>
 4    1  0.1008211E-007  0.8348710E+03  0.7818608E-02  0.9639928E-01
         -1   -1    0    0    0  501 -0.00000000000E+00  0.00000000000E+00  0.45806785142E+03  0.45806785145E+03  0.50400000000E-02 0.  1.
          1   -1    0    0  501    0  0.00000000000E+00 -0.00000000000E+00 -0.14146387314E+04  0.14146387314E+04  0.50400000000E-02 0. -1.
    8880023    1    1    2    0    0  0.43541915720E+03  0.27131084789E+03 -0.70981417610E+02  0.83788303871E+03  0.65864270000E+03 0.  0.
    8880022    1    1    2    0    0 -0.43541915720E+03 -0.27131084789E+03 -0.88558946237E+03  0.10348235441E+04  0.15294330000E+03 0.  0.
<mgrwt>
<rscale>  0 0.74708905E+03</rscale>
<asrwt>0</asrwt>
<pdfrwt beam="1">  1        1 0.21763673E+00 0.83487102E+03</pdfrwt>
<pdfrwt beam="2">  1       -1 0.70471978E-01 0.83487102E+03</pdfrwt>
<totfact> 0.15629248E+01</totfact>
</mgrwt>
</event>
<event>
 4    1  0.1008211E-007  0.9745611E+03  0.7818608E-02  0.9415623E-01
         -1   -1    0    0    0  501 -0.00000000000E+00  0.00000000000E+00  0.83869686564E+03  0.83869686566E+03  0.50400000000E-02 0.  1.
          1   -1    0    0  501    0  0.00000000000E+00 -0.00000000000E+00 -0.15695883058E+04  0.15695883058E+04  0.50400000000E-02 0. -1.
    8880023    1    1    2    0    0 -0.64640330652E+03  0.31324426255E+03  0.40523980106E+03  0.10554566336E+04  0.65864270000E+03 0.  0.
    8880022    1    1    2    0    0  0.64640330652E+03 -0.31324426255E+03 -0.11361312412E+04  0.13528285379E+04  0.15294330000E+03 0.  0.
<mgrwt>
<rscale>  0 0.90801022E+03</rscale>
<asrwt>0</asrwt>
<pdfrwt beam="1">  1        1 0.24147512E+00 0.97456114E+03</pdfrwt>
<pdfrwt beam="2">  1       -1 0.12903029E+00 0.97456114E+03</pdfrwt>
<totfact> 0.30550854E+00</totfact>
</mgrwt>
</event>
<event>
 4    1  0.1008211E-007  0.1173090E+04  0.7818608E-02  0.9183735E-01
          1   -1    0    0  501    0  0.00000000000E+00  0.00000000000E+00  0.85575931653E+03  0.85575931655E+03  0.50400000000E-02 0. -1.
         -1   -1    0    0    0  501 -0.00000000000E+00 -0.00000000000E+00 -0.14589248876E+04  0.14589248876E+04  0.50400000000E-02 0.  1.
    8880023    1    1    2    0    0  0.83997014629E+03  0.48660144681E+03 -0.63010037324E+03  0.13316033574E+04  0.65864270000E+03 0.  0.
    8880022    1    1    2    0    0 -0.83997014629E+03 -0.48660144681E+03  0.26934802204E+02  0.98308084677E+03  0.15294330000E+03 0.  0.
<mgrwt>
<rscale>  0 0.11222901E+04</rscale>
<asrwt>0</asrwt>
<pdfrwt beam="1">  1        1 0.13165528E+00 0.11730904E+04</pdfrwt>
<pdfrwt beam="2">  1       -1 0.22444998E+00 0.11730904E+04</pdfrwt>
<totfact> 0.20053714E+00</totfact>
</mgrwt>
</event>
<event>
 4    1  0.1008211E-007  0.1299360E+04  0.7818608E-02  0.9066113E-01
          1   -1    0    0  501    0  0.00000000000E+00  0.00000000000E+00  0.21626994563E+04  0.21626994563E+04  0.50400000000E-02 0. -1.
         -1   -1    0    0    0  501 -0.00000000000E+00 -0.00000000000E+00 -0.72722948843E+03  0.72722948845E+03  0.50400000000E-02 0.  1.
    8880023    1    1    2    0    0  0.20398792084E+03 -0.11013244085E+04  0.40692502923E+03  0.13615890387E+04  0.65864270000E+03 0.  0.
    8880022    1    1    2    0    0 -0.20398792084E+03  0.11013244085E+04  0.10285449387E+04  0.15283399061E+04  0.15294330000E+03 0.  0.
<mgrwt>
<rscale>  0 0.12549026E+04</rscale>
<asrwt>0</asrwt>
<pdfrwt beam="1">  1        1 0.33272299E+00 0.12993601E+04</pdfrwt>
<pdfrwt beam="2">  1       -1 0.11188146E+00 0.12993601E+04</pdfrwt>
<totfact> 0.16507610E+00</totfact>
</mgrwt>
</event>
<event>
 4    1  0.1008211E-007  0.6633065E+03  0.7818608E-02  0.1020999E+00
          1   -1    0    0  501    0  0.00000000000E+00  0.00000000000E+00  0.11094075080E+04  0.11094075080E+04  0.50400000000E-02 0. -1.
         -1   -1    0    0    0  501 -0.00000000000E+00 -0.00000000000E+00 -0.22874252101E+03  0.22874252106E+03  0.50400000000E-02 0.  1.
    8880023    1    1    2    0    0 -0.73092472638E+02  0.28684109717E+02  0.29171365018E+03  0.72461876022E+03  0.65864270000E+03 0.  1.
    8880022    1    1    2    0    0  0.73092472638E+02 -0.28684109717E+02  0.58895133684E+03  0.61353126888E+03  0.15294330000E+03 0.  0.
<mgrwt>
<rscale>  0 0.47327996E+03</rscale>
<asrwt>0</asrwt>
<pdfrwt beam="1">  1        1 0.17067808E+00 0.66330649E+03</pdfrwt>
<pdfrwt beam="2">  1       -1 0.35191157E-01 0.66330649E+03</pdfrwt>
<totfact> 0.98506041E+01</totfact>
</mgrwt>
</event>
<event>
 4    1  0.1008211E-007  0.7793068E+03  0.7818608E-02  0.9757468E-01
          1   -1    0    0  501    0  0.00000000000E+00  0.00000000000E+00  0.24100305107E+04  0.24100305107E+04  0.50400000000E-02 0. -1.
         -1   -1    0    0    0  501 -0.00000000000E+00 -0.00000000000E+00 -0.25397813530E+03  0.25397813535E+03  0.50400000000E-02 0.  1.
    8880023    1    1    2    0    0  0.48163261134E+02  0.41375010167E+03  0.44723932331E+03  0.89852215606E+03  0.65864270000E+03 0.  1.
    8880022    1    1    2    0    0 -0.48163261134E+02 -0.41375010167E+03  0.17088130521E+04  0.17654864900E+04  0.15294330000E+03 0.  0.
<mgrwt>
<rscale>  0 0.67695873E+03</rscale>
<asrwt>0</asrwt>
<pdfrwt beam="1">  1        1 0.37077391E+00 0.77930678E+03</pdfrwt>
<pdfrwt beam="2">  1       -1 0.39073560E-01 0.77930678E+03</pdfrwt>
<totfact> 0.10407444E+01</totfact>
</mgrwt>
</event>
<event>
 4    1  0.1008211E-007  0.6935613E+03  0.7818608E-02  0.1002504E+00
          1   -1    0    0  501    0  0.00000000000E+00  0.00000000000E+00  0.23921768584E+04  0.23921768584E+04  0.50400000000E-02 0. -1.
         -1   -1    0    0    0  501 -0.00000000000E+00 -0.00000000000E+00 -0.31203348919E+03  0.31203348923E+03  0.50400000000E-02 0.  1.
    8880023    1    1    2    0    0 -0.12565993715E+03 -0.17727582612E+03  0.93453971225E+02  0.69982925727E+03  0.65864270000E+03 0.  1.
    8880022    1    1    2    0    0  0.12565993715E+03  0.17727582612E+03  0.19866893980E+04  0.20043810904E+04  0.15294330000E+03 0.  0.
<mgrwt>
<rscale>  0 0.54565861E+03</rscale>
<asrwt>0</asrwt>
<pdfrwt beam="1">  1        1 0.36802719E+00 0.69356135E+03</pdfrwt>
<pdfrwt beam="2">  1       -1 0.48005154E-01 0.69356135E+03</pdfrwt>
<totfact> 0.74275348E+00</totfact>
</mgrwt>
</event>
<event>
 4    1  0.1008211E-007  0.6949368E+03  0.7818608E-02  0.1001889E+00
          1   -1    0    0  501    0  0.00000000000E+00  0.00000000000E+00  0.43769006312E+04  0.43769006312E+04  0.50400000000E-02 0. -1.
         -1   -1    0    0    0  501 -0.00000000000E+00 -0.00000000000E+00 -0.10350635759E+03  0.10350635772E+03  0.50400000000E-02 0.  1.
    8880023    1    1    2    0    0 -0.21197236282E+03  0.64766535823E+02  0.11375813474E+04  0.13330523302E+04  0.65864270000E+03 0.  1.
    8880022    1    1    2    0    0  0.21197236282E+03 -0.64766535823E+02  0.31358129262E+04  0.31473546588E+04  0.15294330000E+03 0.  0.
<mgrwt>
<rscale>  0 0.54829616E+03</rscale>
<asrwt>0</asrwt>
<pdfrwt beam="1">  1        1 0.67336920E+00 0.69493683E+03</pdfrwt>
<pdfrwt beam="2">  1       -1 0.15924058E-01 0.69493683E+03</pdfrwt>
<totfact> 0.14456958E+00</totfact>
</mgrwt>
</event>
<event>
 4    1  0.1008211E-007  0.1045385E+04  0.7818608E-02  0.9324450E-01
         -1   -1    0    0    0  501 -0.00000000000E+00  0.00000000000E+00  0.10439940928E+04  0.10439940928E+04  0.50400000000E-02 0.  1.
          1   -1    0    0  501    0  0.00000000000E+00 -0.00000000000E+00 -0.36378815903E+04  0.36378815903E+04  0.50400000000E-02 0. -1.
    8880023    1    1    2    0    0 -0.30968571326E+03 -0.75040900947E+03  0.71820147378E+03  0.12683227057E+04  0.65864270000E+03 0.  0.
    8880022    1    1    2    0    0  0.30968571326E+03  0.75040900947E+03 -0.33120889714E+04  0.34135529774E+04  0.15294330000E+03 0.  0.
<mgrwt>
<rscale>  0 0.98562751E+03</rscale>
<asrwt>0</asrwt>
<pdfrwt beam="1">  1        1 0.55967409E+00 0.10453847E+04</pdfrwt>
<pdfrwt beam="2">  1       -1 0.16061448E+00 0.10453847E+04</pdfrwt>
<totfact> 0.57920922E-02</totfact>
</mgrwt>
</event>
<event>
 4    1  0.1008211E-007  0.8559531E+03  0.7818608E-02  0.9600803E-01
          1   -1    0    0  501    0  0.00000000000E+00  0.00000000000E+00  0.31231679568E+04  0.31231679568E+04  0.50400000000E-02 0. -1.
         -1   -1    0    0    0  501 -0.00000000000E+00 -0.00000000000E+00 -0.38126337632E+03  0.38126337636E+03  0.50400000000E-02 0.  1.
    8880023    1    1    2    0    0  0.48254587252E+03  0.25689502043E+03  0.17262181131E+03  0.87318615805E+03  0.65864270000E+03 0.  0.
    8880022    1    1    2    0    0 -0.48254587252E+03 -0.25689502043E+03  0.25692827692E+04  0.26312451751E+04  0.15294330000E+03 0.  0.
<mgrwt>
<rscale>  0 0.77243057E+03</rscale>
<asrwt>0</asrwt>
<pdfrwt beam="1">  1        1 0.48048738E+00 0.85595314E+03</pdfrwt>
<pdfrwt beam="2">  1       -1 0.58655903E-01 0.85595314E+03</pdfrwt>
<totfact> 0.15095620E+00</totfact>
</mgrwt>
</event>
<event>
 4    1  0.1008211E-007  0.1191379E+04  0.7818608E-02  0.9165548E-01
         -1   -1    0    0    0  501 -0.00000000000E+00  0.00000000000E+00  0.44086855440E+03  0.44086855443E+03  0.50400000000E-02 0.  1.
          1   -1    0    0  501    0  0.00000000000E+00 -0.00000000000E+00 -0.31829953367E+04  0.31829953367E+04  0.50400000000E-02 0. -1.
    8880023    1    1    2    0    0 -0.43080261844E+03  0.89441789591E+03 -0.79309061697E+03  0.14312152883E+04  0.65864270000E+03 0.  0.
    8880022    1    1    2    0    0  0.43080261844E+03 -0.89441789591E+03 -0.19490361654E+04  0.21926486028E+04  0.15294330000E+03 0.  0.
<mgrwt>
<rscale>  0 0.11416213E+04</rscale>
<asrwt>0</asrwt>
<pdfrwt beam="1">  1        1 0.48969157E+00 0.11913792E+04</pdfrwt>
<pdfrwt beam="2">  1       -1 0.67825934E-01 0.11913792E+04</pdfrwt>
<totfact> 0.96636521E-01</totfact>
</mgrwt>
</event>
<event>
 4    1  0.1008211E-007  0.9199851E+03  0.7818608E-02  0.9494682E-01
          1   -1    0    0  501    0  0.00000000000E+00  0.00000000000E+00  0.13099594481E+04  0.13099594481E+04  0.50400000000E-02 0. -1.
         -1   -1    0    0    0  501 -0.00000000000E+00 -0.00000000000E+00 -0.87288523786E+03  0.87288523788E+03  0.50400000000E-02 0.  1.
    8880023    1    1    2    0    0 -0.47687834848E+03 -0.43028993116E+03 -0.49181961789E+03  0.10431965907E+04  0.65864270000E+03 0.  1.
    8880022    1    1    2    0    0  0.47687834848E+03  0.43028993116E+03  0.92889382814E+03  0.11396480953E+04  0.15294330000E+03 0.  0.
<mgrwt>
<rscale>  0 0.84677043E+03</rscale>
<asrwt>0</asrwt>
<pdfrwt beam="1">  1        1 0.20153222E+00 0.91998510E+03</pdfrwt>
<pdfrwt beam="2">  1       -1 0.13429004E+00 0.91998510E+03</pdfrwt>
<totfact> 0.42142245E+00</totfact>
</mgrwt>
</event>
<event>
 4    1  0.1008211E-007  0.7452494E+03  0.7818608E-02  0.9844912E-01
         -1   -1    0    0    0  501 -0.00000000000E+00  0.00000000000E+00  0.91356697053E+03  0.91356697055E+03  0.50400000000E-02 0.  1.
          1   -1    0    0  501    0  0.00000000000E+00 -0.00000000000E+00 -0.64705315479E+03  0.64705315481E+03  0.50400000000E-02 0. -1.
    8880023    1    1    2    0    0  0.34710875911E+03 -0.33195673365E+02  0.67264404340E+03  0.10039156632E+04  0.65864270000E+03 0.  0.
    8880022    1    1    2    0    0 -0.34710875911E+03  0.33195673365E+02 -0.40613022766E+03  0.55670446218E+03  0.15294330000E+03 0.  0.
<mgrwt>
<rscale>  0 0.63007032E+03</rscale>
<asrwt>0</asrwt>
<pdfrwt beam="1">  1        1 0.99546640E-01 0.74524939E+03</pdfrwt>
<pdfrwt beam="2">  1       -1 0.14054876E+00 0.74524939E+03</pdfrwt>
<totfact> 0.13097081E+01</totfact>
</mgrwt>
</event>
<event>
 4    1  0.1008211E-007  0.9436201E+03  0.7818608E-02  0.9459353E-01
         -1   -1    0    0    0  501 -0.00000000000E+00  0.00000000000E+00  0.45721281570E+03  0.45721281573E+03  0.50400000000E-02 0.  1.
          1   -1    0    0  501    0  0.00000000000E+00 -0.00000000000E+00 -0.21682933945E+04  0.21682933945E+04  0.50400000000E-02 0. -1.
    8880023    1    1    2    0    0  0.67571550202E+03  0.41633451730E+01 -0.20201733504E+03  0.96500258188E+03  0.65864270000E+03 0.  0.
    8880022    1    1    2    0    0 -0.67571550202E+03 -0.41633451730E+01 -0.15090632438E+04  0.16605036284E+04  0.15294330000E+03 0.  0.
<mgrwt>
<rscale>  0 0.87348028E+03</rscale>
<asrwt>0</asrwt>
<pdfrwt beam="1">  1        1 0.33358359E+00 0.94362015E+03</pdfrwt>
<pdfrwt beam="2">  1       -1 0.70340434E-01 0.94362015E+03</pdfrwt>
<totfact> 0.47777157E+00</totfact>
</mgrwt>
</event>
<event>
 4    1  0.1008211E-007  0.2124227E+04  0.7818608E-02  0.8561659E-01
         -1   -1    0    0    0  501 -0.00000000000E+00  0.00000000000E+00  0.17883535736E+04  0.17883535736E+04  0.50400000000E-02 0.  1.
          1   -1    0    0  501    0  0.00000000000E+00 -0.00000000000E+00 -0.31835871395E+04  0.31835871396E+04  0.50400000000E-02 0. -1.
    8880023    1    1    2    0    0 -0.17243455196E+04 -0.10512674178E+04  0.51730891932E+03  0.21863095341E+04  0.65864270000E+03 0.  0.
    8880022    1    1    2    0    0  0.17243455196E+04  0.10512674178E+04 -0.19125424852E+04  0.27856311790E+04  0.15294330000E+03 0.  0.
<mgrwt>
<rscale>  0 0.20990566E+04</rscale>
<asrwt>0</asrwt>
<pdfrwt beam="1">  1        1 0.48978263E+00 0.21242271E+04</pdfrwt>
<pdfrwt beam="2">  1       -1 0.27513132E+00 0.21242271E+04</pdfrwt>
<totfact> 0.18314011E-02</totfact>
</mgrwt>
</event>
<event>
 4    1  0.1008211E-007  0.1120422E+04  0.7818608E-02  0.9238652E-01
         -1   -1    0    0    0  501 -0.00000000000E+00  0.00000000000E+00  0.11467963560E+04  0.11467963560E+04  0.50400000000E-02 0.  1.
          1   -1    0    0  501    0  0.00000000000E+00 -0.00000000000E+00 -0.19917104563E+04  0.19917104563E+04  0.50400000000E-02 0. -1.
    8880023    1    1    2    0    0  0.65704971172E+03 -0.62435669667E+03  0.71413261363E+03  0.13286576702E+04  0.65864270000E+03 0.  0.
    8880022    1    1    2    0    0 -0.65704971172E+03  0.62435669667E+03 -0.15590467139E+04  0.18098491422E+04  0.15294330000E+03 0.  0.
<mgrwt>
<rscale>  0 0.10663228E+04</rscale>
<asrwt>0</asrwt>
<pdfrwt beam="1">  1        1 0.30641699E+00 0.11204222E+04</pdfrwt>
<pdfrwt beam="2">  1       -1 0.17643021E+00 0.11204222E+04</pdfrwt>
<totfact> 0.66197487E-01</totfact>
</mgrwt>
</event>
<event>
 4    1  0.1008211E-007  0.1293466E+04  0.7818608E-02  0.9071223E-01
         -1   -1    0    0    0  501 -0.00000000000E+00  0.00000000000E+00  0.10895100628E+04  0.10895100628E+04  0.50400000000E-02 0.  1.
          1   -1    0    0  501    0  0.00000000000E+00 -0.00000000000E+00 -0.23279121273E+04  0.23279121273E+04  0.50400000000E-02 0. -1.
    8880023    1    1    2    0    0 -0.79451898235E+03  0.77973347826E+03  0.46693437034E+03  0.13751663983E+04  0.65864270000E+03 0.  0.
    8880022    1    1    2    0    0  0.79451898235E+03 -0.77973347826E+03 -0.17053364348E+04  0.20422557919E+04  0.15294330000E+03 0.  0.
<mgrwt>
<rscale>  0 0.12487518E+04</rscale>
<asrwt>0</asrwt>
<pdfrwt beam="1">  1        1 0.35814033E+00 0.12934662E+04</pdfrwt>
<pdfrwt beam="2">  1       -1 0.16761693E+00 0.12934662E+04</pdfrwt>
<totfact> 0.44354618E-01</totfact>
</mgrwt>
</event>
<event>
 4    1  0.1008211E-007  0.7583726E+03  0.7818608E-02  0.9809339E-01
         -1   -1    0    0    0  501 -0.00000000000E+00  0.00000000000E+00  0.92814753632E+03  0.92814753634E+03  0.50400000000E-02 0.  1.
          1   -1    0    0  501    0  0.00000000000E+00 -0.00000000000E+00 -0.83909528560E+03  0.83909528561E+03  0.50400000000E-02 0. -1.
    8880023    1    1    2    0    0  0.22200908123E+03  0.30336582377E+03  0.70114378709E+03  0.10328270289E+04  0.65864270000E+03 0.  1.
    8880022    1    1    2    0    0 -0.22200908123E+03 -0.30336582377E+03 -0.61209153636E+03  0.73441579305E+03  0.15294330000E+03 0.  0.
<mgrwt>
<rscale>  0 0.64863765E+03</rscale>
<asrwt>0</asrwt>
<pdfrwt beam="1">  1        1 0.12909158E+00 0.75837264E+03</pdfrwt>
<pdfrwt beam="2">  1       -1 0.14279193E+00 0.75837264E+03</pdfrwt>
<totfact> 0.83955614E+00</totfact>
</mgrwt>
</event>
<event>
 4    1  0.1008211E-007  0.8390538E+03  0.7818608E-02  0.9631967E-01
          1   -1    0    0  501    0  0.00000000000E+00  0.00000000000E+00  0.20704652168E+04  0.20704652168E+04  0.50400000000E-02 0. -1.
         -1   -1    0    0    0  501 -0.00000000000E+00 -0.00000000000E+00 -0.32364454515E+03  0.32364454519E+03  0.50400000000E-02 0.  1.
    8880023    1    1    2    0    0 -0.45504446182E+03 -0.25126787405E+03  0.37477701895E+03  0.91894995890E+03  0.65864270000E+03 0.  1.
    8880022    1    1    2    0    0  0.45504446182E+03  0.25126787405E+03  0.13720436527E+04  0.14751598031E+04  0.15294330000E+03 0.  0.
<mgrwt>
<rscale>  0 0.75216044E+03</rscale>
<asrwt>0</asrwt>
<pdfrwt beam="1">  1        1 0.31853310E+00 0.83905376E+03</pdfrwt>
<pdfrwt beam="2">  1       -1 0.49791470E-01 0.83905376E+03</pdfrwt>
<totfact> 0.11150557E+01</totfact>
</mgrwt>
</event>
<event>
 4    1  0.1008211E-007  0.1325136E+04  0.7818608E-02  0.9044152E-01
         -1   -1    0    0    0  501 -0.00000000000E+00  0.00000000000E+00  0.32402476558E+04  0.32402476558E+04  0.50400000000E-02 0.  1.
          1   -1    0    0  501    0  0.00000000000E+00 -0.00000000000E+00 -0.17311634257E+04  0.17311634257E+04  0.50400000000E-02 0. -1.
    8880023    1    1    2    0    0  0.65840770290E+03  0.94269470813E+03 -0.13465145876E+04  0.18892024129E+04  0.65864270000E+03 0. -1.
    8880022    1    1    2    0    0 -0.65840770290E+03 -0.94269470813E+03  0.28555988177E+04  0.30822086686E+04  0.15294330000E+03 0.  0.
<mgrwt>
<rscale>  0 0.12817648E+04</rscale>
<asrwt>0</asrwt>
<pdfrwt beam="1">  1        1 0.26633284E+00 0.13251355E+04</pdfrwt>
<pdfrwt beam="2">  1       -1 0.49849964E+00 0.13251355E+04</pdfrwt>
<totfact> 0.66584755E-03</totfact>
</mgrwt>
</event>
<event>
 4    1  0.1008211E-007  0.9439362E+03  0.7818608E-02  0.9458893E-01
         -1   -1    0    0    0  501 -0.00000000000E+00  0.00000000000E+00  0.71052012356E+03  0.71052012358E+03  0.50400000000E-02 0.  1.
          1   -1    0    0  501    0  0.00000000000E+00 -0.00000000000E+00 -0.16638959374E+04  0.16638959374E+04  0.50400000000E-02 0. -1.
    8880023    1    1    2    0    0  0.19383958495E+03  0.64778967826E+03  0.25812224575E+03  0.97859212748E+03  0.65864270000E+03 0.  1.
    8880022    1    1    2    0    0 -0.19383958495E+03 -0.64778967826E+03 -0.12114980596E+04  0.13958239335E+04  0.15294330000E+03 0.  0.
<mgrwt>
<rscale>  0 0.87383530E+03</rscale>
<asrwt>0</asrwt>
<pdfrwt beam="1">  1        1 0.25598399E+00 0.94393615E+03</pdfrwt>
<pdfrwt beam="2">  1       -1 0.10931079E+00 0.94393615E+03</pdfrwt>
<totfact> 0.39648236E+00</totfact>
</mgrwt>
</event>
<event>
 4    1  0.1008211E-007  0.6733115E+03  0.7818608E-02  0.1013392E+00
         -1   -1    0    0    0  501 -0.00000000000E+00  0.00000000000E+00  0.50770693590E+03  0.50770693592E+03  0.50400000000E-02 0.  1.
          1   -1    0    0  501    0  0.00000000000E+00 -0.00000000000E+00 -0.38756798411E+03  0.38756798415E+03  0.50400000000E-02 0. -1.
    8880023    1    1    2    0    0 -0.10198879011E+03 -0.95584648227E+02  0.13801185789E+03  0.68731042293E+03  0.65864270000E+03 0.  1.
    8880022    1    1    2    0    0  0.10198879011E+03  0.95584648227E+02 -0.17872906105E+02  0.20796449714E+03  0.15294330000E+03 0.  0.
<mgrwt>
<rscale>  0 0.50148374E+03</rscale>
<asrwt>0</asrwt>
<pdfrwt beam="1">  1        1 0.59625844E-01 0.67331148E+03</pdfrwt>
<pdfrwt beam="2">  1       -1 0.78108759E-01 0.67331148E+03</pdfrwt>
<totfact> 0.10498150E+02</totfact>
</mgrwt>
</event>
<event>
 4    1  0.1008211E-007  0.1898450E+04  0.7818608E-02  0.8669947E-01
         -1   -1    0    0    0  501 -0.00000000000E+00  0.00000000000E+00  0.16835930954E+04  0.16835930954E+04  0.50400000000E-02 0.  1.
          1   -1    0    0  501    0  0.00000000000E+00 -0.00000000000E+00 -0.24275734549E+04  0.24275734549E+04  0.50400000000E-02 0. -1.
    8880023    1    1    2    0    0 -0.94938382334E+03 -0.15063111164E+04  0.46371777148E+03  0.19542638515E+04  0.65864270000E+03 0.  0.
    8880022    1    1    2    0    0  0.94938382334E+03  0.15063111164E+04 -0.12076981309E+04  0.21569026988E+04  0.15294330000E+03 0.  0.
<mgrwt>
<rscale>  0 0.18699762E+04</rscale>
<asrwt>0</asrwt>
<pdfrwt beam="1">  1        1 0.37347284E+00 0.18984502E+04</pdfrwt>
<pdfrwt beam="2">  1       -1 0.25901432E+00 0.18984502E+04</pdfrwt>
<totfact> 0.83372627E-02</totfact>
</mgrwt>
</event>
<event>
 4    1  0.1008211E-007  0.7998651E+03  0.7818608E-02  0.9711088E-01
          1   -1    0    0  501    0  0.00000000000E+00  0.00000000000E+00  0.13446097243E+04  0.13446097243E+04  0.50400000000E-02 0. -1.
         -1   -1    0    0    0  501 -0.00000000000E+00 -0.00000000000E+00 -0.80225463847E+03  0.80225463848E+03  0.50400000000E-02 0.  1.
    8880023    1    1    2    0    0 -0.44862875080E+03 -0.68601747764E+02 -0.53878070044E+03  0.96440074931E+03  0.65864270000E+03 0.  1.
    8880022    1    1    2    0    0  0.44862875080E+03  0.68601747764E+02  0.10811357862E+04  0.11824636135E+04  0.15294330000E+03 0.  0.
<mgrwt>
<rscale>  0 0.70360448E+03</rscale>
<asrwt>0</asrwt>
<pdfrwt beam="1">  1        1 0.20686303E+00 0.79986509E+03</pdfrwt>
<pdfrwt beam="2">  1       -1 0.12342379E+00 0.79986509E+03</pdfrwt>
<totfact> 0.50097112E+00</totfact>
</mgrwt>
</event>
<event>
 4    1  0.1008211E-007  0.9115659E+03  0.7818608E-02  0.9507714E-01
         -1   -1    0    0    0  501 -0.00000000000E+00  0.00000000000E+00  0.59074975710E+03  0.59074975712E+03  0.50400000000E-02 0.  1.
          1   -1    0    0  501    0  0.00000000000E+00 -0.00000000000E+00 -0.12658125005E+04  0.12658125005E+04  0.50400000000E-02 0. -1.
    8880023    1    1    2    0    0 -0.58911190246E+03  0.22380664751E+03  0.12199844780E+02  0.91164756982E+03  0.65864270000E+03 0.  1.
    8880022    1    1    2    0    0  0.58911190246E+03 -0.22380664751E+03 -0.68726258814E+03  0.94491468777E+03  0.15294330000E+03 0.  0.
<mgrwt>
<rscale>  0 0.83717489E+03</rscale>
<asrwt>0</asrwt>
<pdfrwt beam="1">  1        1 0.19474038E+00 0.91156594E+03</pdfrwt>
<pdfrwt beam="2">  1       -1 0.90884578E-01 0.91156594E+03</pdfrwt>
<totfact> 0.11469516E+01</totfact>
</mgrwt>
</event>
<event>
 4    1  0.1008211E-007  0.1225825E+04  0.7818608E-02  0.9132419E-01
          1   -1    0    0  501    0  0.00000000000E+00  0.00000000000E+00  0.15480757199E+04  0.15480757199E+04  0.50400000000E-02 0. -1.
         -1   -1    0    0    0  501 -0.00000000000E+00 -0.00000000000E+00 -0.12413137296E+04  0.12413137296E+04  0.50400000000E-02 0.  1.
    8880023    1    1    2    0    0 -0.73292174547E+03 -0.72915154076E+03  0.95994266371E+03  0.15569638333E+04  0.65864270000E+03 0.  0.
    8880022    1    1    2    0    0  0.73292174547E+03  0.72915154076E+03 -0.65318067340E+03  0.12324256162E+04  0.15294330000E+03 0.  0.
<mgrwt>
<rscale>  0 0.11779055E+04</rscale>
<asrwt>0</asrwt>
<pdfrwt beam="1">  1        1 0.23816549E+00 0.12258248E+04</pdfrwt>
<pdfrwt beam="2">  1       -1 0.19097134E+00 0.12258248E+04</pdfrwt>
<totfact> 0.10295571E+00</totfact>
</mgrwt>
</event>
<event>
 4    1  0.1088283E-007  0.8095779E+03  0.7818608E-02  0.9690457E-01
          1   -1    0    0  501    0  0.00000000000E+00  0.00000000000E+00  0.19230878141E+04  0.19230878141E+04  0.50400000000E-02 0. -1.
         -1   -1    0    0    0  501 -0.00000000000E+00 -0.00000000000E+00 -0.16020704484E+04  0.16020704484E+04  0.50400000000E-02 0.  1.
    8880023    1    1    2    0    0  0.40518216524E+03 -0.23965311973E+03 -0.14639185482E+04  0.16728639894E+04  0.65864270000E+03 0.  1.
    8880022    1    1    2    0    0 -0.40518216524E+03  0.23965311973E+03  0.17849359139E+04  0.18522942732E+04  0.15294330000E+03 0.  0.
<mgrwt>
<rscale>  0 0.71587843E+03</rscale>
<asrwt>0</asrwt>
<pdfrwt beam="1">  1        1 0.29585966E+00 0.80957792E+03</pdfrwt>
<pdfrwt beam="2">  1       -1 0.24647238E+00 0.80957792E+03</pdfrwt>
<totfact> 0.26089598E-01</totfact>
</mgrwt>
</event>
<event>
 4    1  0.1008211E-007  0.1179450E+04  0.7818608E-02  0.9177362E-01
          1   -1    0    0  501    0  0.00000000000E+00  0.00000000000E+00  0.20793598698E+04  0.20793598698E+04  0.50400000000E-02 0. -1.
         -1   -1    0    0    0  501 -0.00000000000E+00 -0.00000000000E+00 -0.74303158733E+03  0.74303158735E+03  0.50400000000E-02 0.  1.
    8880023    1    1    2    0    0  0.10068374477E+03 -0.97321850283E+03  0.25736073417E+02  0.11797304872E+04  0.65864270000E+03 0.  0.
    8880022    1    1    2    0    0 -0.10068374477E+03  0.97321850283E+03  0.13105922090E+04  0.16426609699E+04  0.15294330000E+03 0.  0.
<mgrwt>
<rscale>  0 0.11290175E+04</rscale>
<asrwt>0</asrwt>
<pdfrwt beam="1">  1        1 0.31990152E+00 0.11794497E+04</pdfrwt>
<pdfrwt beam="2">  1       -1 0.11431255E+00 0.11794497E+04</pdfrwt>
<totfact> 0.18109829E+00</totfact>
</mgrwt>
</event>
<event>
 4    1  0.1008211E-007  0.1016368E+04  0.7818608E-02  0.9360449E-01
         -1   -1    0    0    0  501 -0.00000000000E+00  0.00000000000E+00  0.10677375664E+04  0.10677375664E+04  0.50400000000E-02 0.  1.
          1   -1    0    0  501    0  0.00000000000E+00 -0.00000000000E+00 -0.27987588473E+04  0.27987588473E+04  0.50400000000E-02 0. -1.
    8880023    1    1    2    0    0  0.12289233123E+03  0.76425920310E+03  0.74993150728E+03  0.12630922874E+04  0.65864270000E+03 0.  0.
    8880022    1    1    2    0    0 -0.12289233123E+03 -0.76425920310E+03 -0.24809527882E+04  0.26034041263E+04  0.15294330000E+03 0.  0.
<mgrwt>
<rscale>  0 0.95403286E+03</rscale>
<asrwt>0</asrwt>
<pdfrwt beam="1">  1        1 0.43057828E+00 0.10163685E+04</pdfrwt>
<pdfrwt beam="2">  1       -1 0.16426732E+00 0.10163685E+04</pdfrwt>
<totfact> 0.23138847E-01</totfact>
</mgrwt>
</event>
<event>
 4    1  0.1008211E-007  0.9175282E+03  0.7818608E-02  0.9498459E-01
          1   -1    0    0  501    0  0.00000000000E+00  0.00000000000E+00  0.12008470299E+04  0.12008470299E+04  0.50400000000E-02 0. -1.
         -1   -1    0    0    0  501 -0.00000000000E+00 -0.00000000000E+00 -0.87690019268E+03  0.87690019270E+03  0.50400000000E-02 0.  1.
    8880023    1    1    2    0    0 -0.63517502425E+03 -0.67827327767E+02 -0.48329985174E+03  0.10370326951E+04  0.65864270000E+03 0.  1.
    8880022    1    1    2    0    0  0.63517502425E+03  0.67827327767E+02  0.80724668893E+03  0.10407145274E+04  0.15294330000E+03 0.  0.
<mgrwt>
<rscale>  0 0.84397497E+03</rscale>
<asrwt>0</asrwt>
<pdfrwt beam="1">  1        1 0.18474570E+00 0.91752824E+03</pdfrwt>
<pdfrwt beam="2">  1       -1 0.13490772E+00 0.91752824E+03</pdfrwt>
<totfact> 0.49905604E+00</totfact>
</mgrwt>
</event>
<event>
 4    1  0.1008211E-007  0.1082446E+04  0.7818608E-02  0.9280856E-01
         -1   -1    0    0    0  501 -0.00000000000E+00  0.00000000000E+00  0.86695257967E+03  0.86695257968E+03  0.50400000000E-02 0.  1.
          1   -1    0    0  501    0  0.00000000000E+00 -0.00000000000E+00 -0.19860869255E+04  0.19860869255E+04  0.50400000000E-02 0. -1.
    8880023    1    1    2    0    0 -0.85238553459E+03  0.10638835162E+03  0.35574551973E+03  0.11394053984E+04  0.65864270000E+03 0.  0.
    8880022    1    1    2    0    0  0.85238553459E+03 -0.10638835162E+03 -0.14748798656E+04  0.17136341068E+04  0.15294330000E+03 0.  0.
<mgrwt>
<rscale>  0 0.10256452E+04</rscale>
<asrwt>0</asrwt>
<pdfrwt beam="1">  1        1 0.30555183E+00 0.10824462E+04</pdfrwt>
<pdfrwt beam="2">  1       -1 0.13337732E+00 0.10824462E+04</pdfrwt>
<totfact> 0.14453331E+00</totfact>
</mgrwt>
</event>
<event>
 4    1  0.1008211E-007  0.7988897E+03  0.7818608E-02  0.9713202E-01
          1   -1    0    0  501    0  0.00000000000E+00  0.00000000000E+00  0.91984816725E+03  0.91984816726E+03  0.50400000000E-02 0. -1.
         -1   -1    0    0    0  501 -0.00000000000E+00 -0.00000000000E+00 -0.72268654502E+03  0.72268654504E+03  0.50400000000E-02 0.  1.
    8880023    1    1    2    0    0  0.44428441584E+03  0.83820976122E+02 -0.38740460851E+03  0.88786662014E+03  0.65864270000E+03 0.  1.
    8880022    1    1    2    0    0 -0.44428441584E+03 -0.83820976122E+02  0.58456623074E+03  0.75466809216E+03  0.15294330000E+03 0.  0.
<mgrwt>
<rscale>  0 0.70236172E+03</rscale>
<asrwt>0</asrwt>
<pdfrwt beam="1">  1        1 0.14151510E+00 0.79888973E+03</pdfrwt>
<pdfrwt beam="2">  1       -1 0.11118255E+00 0.79888973E+03</pdfrwt>
<totfact> 0.13358692E+01</totfact>
</mgrwt>
</event>
<event>
 4    1  0.1280690E-007  0.7812408E+03  0.7818608E-02  0.9752930E-01
          1   -1    0    0  501    0  0.00000000000E+00  0.00000000000E+00  0.22470822772E+04  0.22470822772E+04  0.50400000000E-02 0. -1.
         -1   -1    0    0    0  501 -0.00000000000E+00 -0.00000000000E+00 -0.18878423527E+04  0.18878423527E+04  0.50400000000E-02 0.  1.
    8880023    1    1    2    0    0  0.27224004347E+02  0.41926820763E+03 -0.17829346276E+04  0.19465849760E+04  0.65864270000E+03 0.  1.
    8880022    1    1    2    0    0 -0.27224004347E+02 -0.41926820763E+03  0.21421745520E+04  0.21883396539E+04  0.15294330000E+03 0.  0.
<mgrwt>
<rscale>  0 0.67950920E+03</rscale>
<asrwt>0</asrwt>
<pdfrwt beam="1">  1        1 0.34570496E+00 0.78124080E+03</pdfrwt>
<pdfrwt beam="2">  1       -1 0.29043729E+00 0.78124080E+03</pdfrwt>
<totfact> 0.83205593E-02</totfact>
</mgrwt>
</event>
<event>
 4    1  0.1008211E-007  0.1049804E+04  0.7818608E-02  0.9319116E-01
         -1   -1    0    0    0  501 -0.00000000000E+00  0.00000000000E+00  0.48023998166E+03  0.48023998169E+03  0.50400000000E-02 0.  1.
          1   -1    0    0  501    0  0.00000000000E+00 -0.00000000000E+00 -0.21458464913E+04  0.21458464913E+04  0.50400000000E-02 0. -1.
    8880023    1    1    2    0    0  0.81102659935E+03 -0.10254281171E+03 -0.14063091038E+04  0.17549343791E+04  0.65864270000E+03 0.  0.
    8880022    1    1    2    0    0 -0.81102659935E+03  0.10254281171E+03 -0.25929740584E+03  0.87115209394E+03  0.15294330000E+03 0.  0.
<mgrwt>
<rscale>  0 0.99041849E+03</rscale>
<asrwt>0</asrwt>
<pdfrwt beam="1">  1        1 0.33013022E+00 0.10498044E+04</pdfrwt>
<pdfrwt beam="2">  1       -1 0.73883075E-01 0.10498044E+04</pdfrwt>
<totfact> 0.44058024E+00</totfact>
</mgrwt>
</event>
<event>
 4    1  0.1008211E-007  0.8877085E+03  0.7818608E-02  0.9546059E-01
          1   -1    0    0  501    0  0.00000000000E+00  0.00000000000E+00  0.25687306715E+04  0.25687306715E+04  0.50400000000E-02 0. -1.
         -1   -1    0    0    0  501 -0.00000000000E+00 -0.00000000000E+00 -0.92466081584E+03  0.92466081586E+03  0.50400000000E-02 0.  1.
    8880023    1    1    2    0    0  0.59008107903E+03  0.77592007168E+02 -0.66166882232E+03  0.11071729929E+04  0.65864270000E+03 0.  0.
    8880022    1    1    2    0    0 -0.59008107903E+03 -0.77592007168E+02  0.23057386780E+04  0.23862184945E+04  0.15294330000E+03 0.  0.
<mgrwt>
<rscale>  0 0.80971636E+03</rscale>
<asrwt>0</asrwt>
<pdfrwt beam="1">  1        1 0.39518932E+00 0.88770851E+03</pdfrwt>
<pdfrwt beam="2">  1       -1 0.14225551E+00 0.88770851E+03</pdfrwt>
<totfact> 0.50771650E-01</totfact>
</mgrwt>
</event>
<event>
 4    1  0.1008211E-007  0.6627378E+03  0.7818608E-02  0.1021512E+00
         -1   -1    0    0    0  501 -0.00000000000E+00  0.00000000000E+00  0.40494200165E+03  0.40494200168E+03  0.50400000000E-02 0.  1.
          1   -1    0    0  501    0  0.00000000000E+00 -0.00000000000E+00 -0.60698464735E+03  0.60698464737E+03  0.50400000000E-02 0. -1.
    8880023    1    1    2    0    0 -0.18959768008E+02  0.71075504891E+02  0.95304405445E+02  0.66955532718E+03  0.65864270000E+03 0.  1.
    8880022    1    1    2    0    0  0.18959768008E+02 -0.71075504891E+02 -0.29734705115E+03  0.34237132187E+03  0.15294330000E+03 0.  0.
<mgrwt>
<rscale>  0 0.47145012E+03</rscale>
<asrwt>0</asrwt>
<pdfrwt beam="1">  1        1 0.93382253E-01 0.66273781E+03</pdfrwt>
<pdfrwt beam="2">  1       -1 0.62298769E-01 0.66273781E+03</pdfrwt>
<totfact> 0.90266692E+01</totfact>
</mgrwt>
</event>
<event>
 4    1  0.1008211E-007  0.8792143E+03  0.7818608E-02  0.9560259E-01
         -1   -1    0    0    0  501 -0.00000000000E+00  0.00000000000E+00  0.90648712742E+03  0.90648712743E+03  0.50400000000E-02 0.  1.
          1   -1    0    0  501    0  0.00000000000E+00 -0.00000000000E+00 -0.88131955244E+03  0.88131955246E+03  0.50400000000E-02 0. -1.
    8880023    1    1    2    0    0 -0.51240666983E+03  0.27685203119E+03  0.50848969131E+03  0.10156670788E+04  0.65864270000E+03 0.  0.
    8880022    1    1    2    0    0  0.51240666983E+03 -0.27685203119E+03 -0.48332211634E+03  0.77213960112E+03  0.15294330000E+03 0.  0.
<mgrwt>
<rscale>  0 0.79983322E+03</rscale>
<asrwt>0</asrwt>
<pdfrwt beam="1">  1        1 0.13558762E+00 0.87921434E+03</pdfrwt>
<pdfrwt beam="2">  1       -1 0.13945956E+00 0.87921434E+03</pdfrwt>
<totfact> 0.81088942E+00</totfact>
</mgrwt>
</event>
<event>
 4    1  0.1008211E-007  0.7085210E+03  0.7818608E-02  0.9963535E-01
          1   -1    0    0  501    0  0.00000000000E+00  0.00000000000E+00  0.62000426682E+03  0.62000426684E+03  0.50400000000E-02 0. -1.
         -1   -1    0    0    0  501 -0.00000000000E+00 -0.00000000000E+00 -0.55212155366E+03  0.55212155368E+03  0.50400000000E-02 0.  1.
    8880023    1    1    2    0    0 -0.13764980449E+03  0.22191057986E+03 -0.23253651171E+03  0.74570450560E+03  0.65864270000E+03 0.  1.
    8880022    1    1    2    0    0  0.13764980449E+03 -0.22191057986E+03  0.30041922487E+03  0.42642131492E+03  0.15294330000E+03 0.  0.
<mgrwt>
<rscale>  0 0.57278502E+03</rscale>
<asrwt>0</asrwt>
<pdfrwt beam="1">  1        1 0.95385272E-01 0.70852098E+03</pdfrwt>
<pdfrwt beam="2">  1       -1 0.84941777E-01 0.70852098E+03</pdfrwt>
<totfact> 0.45947304E+01</totfact>
</mgrwt>
</event>
<event>
 4    1  0.1008211E-007  0.1098530E+04  0.7818608E-02  0.9262694E-01
         -1   -1    0    0    0  501 -0.00000000000E+00  0.00000000000E+00  0.47151352123E+03  0.47151352125E+03  0.50400000000E-02 0.  1.
          1   -1    0    0  501    0  0.00000000000E+00 -0.00000000000E+00 -0.30021425241E+04  0.30021425241E+04  0.50400000000E-02 0. -1.
    8880023    1    1    2    0    0  0.16523766086E+02  0.87902553855E+03 -0.40936224461E+03  0.11723252901E+04  0.65864270000E+03 0.  0.
    8880022    1    1    2    0    0 -0.16523766086E+02 -0.87902553855E+03 -0.21212667583E+04  0.23013307552E+04  0.15294330000E+03 0.  0.
<mgrwt>
<rscale>  0 0.10429107E+04</rscale>
<asrwt>0</asrwt>
<pdfrwt beam="1">  1        1 0.46186807E+00 0.10985304E+04</pdfrwt>
<pdfrwt beam="2">  1       -1 0.72540544E-01 0.10985304E+04</pdfrwt>
<totfact> 0.11562405E+00</totfact>
</mgrwt>
</event>
<event>
 4    1  0.1008211E-007  0.9574475E+03  0.7818608E-02  0.9439479E-01
          1   -1    0    0  501    0  0.00000000000E+00  0.00000000000E+00  0.12725747148E+04  0.12725747148E+04  0.50400000000E-02 0. -1.
         -1   -1    0    0    0  501 -0.00000000000E+00 -0.00000000000E+00 -0.10992687591E+04  0.10992687591E+04  0.50400000000E-02 0.  1.
    8880023    1    1    2    0    0  0.69253231634E+03 -0.57397488485E+02 -0.74285077557E+03  0.12118304180E+04  0.65864270000E+03 0.  1.
    8880022    1    1    2    0    0 -0.69253231634E+03  0.57397488485E+02  0.91615673126E+03  0.11600130560E+04  0.15294330000E+03 0.  0.
<mgrwt>
<rscale>  0 0.88896740E+03</rscale>
<asrwt>0</asrwt>
<pdfrwt beam="1">  1        1 0.19578072E+00 0.95744749E+03</pdfrwt>
<pdfrwt beam="2">  1       -1 0.16911827E+00 0.95744749E+03</pdfrwt>
<totfact> 0.23878788E+00</totfact>
</mgrwt>
</event>
<event>
 4    1  0.1008211E-007  0.9900057E+03  0.7818608E-02  0.9394752E-01
          1   -1    0    0  501    0  0.00000000000E+00  0.00000000000E+00  0.11389581072E+04  0.11389581072E+04  0.50400000000E-02 0. -1.
         -1   -1    0    0    0  501 -0.00000000000E+00 -0.00000000000E+00 -0.75889010809E+03  0.75889010811E+03  0.50400000000E-02 0.  1.
    8880023    1    1    2    0    0  0.25612885692E+03  0.69332467998E+03 -0.11278082816E+03  0.99640896457E+03  0.65864270000E+03 0.  0.
    8880022    1    1    2    0    0 -0.25612885692E+03 -0.69332467998E+03  0.49284882723E+03  0.90143925071E+03  0.15294330000E+03 0.  0.
<mgrwt>
<rscale>  0 0.92508867E+03</rscale>
<asrwt>0</asrwt>
<pdfrwt beam="1">  1        1 0.17522433E+00 0.99000571E+03</pdfrwt>
<pdfrwt beam="2">  1       -1 0.11675232E+00 0.99000571E+03</pdfrwt>
<totfact> 0.78782212E+00</totfact>
</mgrwt>
</event>
<event>
 4    1  0.1008211E-007  0.6883258E+03  0.7818608E-02  0.1004959E+00
         -1   -1    0    0    0  501 -0.00000000000E+00  0.00000000000E+00  0.74022887245E+03  0.74022887247E+03  0.50400000000E-02 0.  1.
          1   -1    0    0  501    0  0.00000000000E+00 -0.00000000000E+00 -0.63933284179E+03  0.63933284181E+03  0.50400000000E-02 0. -1.
    8880023    1    1    2    0    0  0.10943725032E+03 -0.16734899626E+03  0.53902053724E+03  0.87426285758E+03  0.65864270000E+03 0.  1.
    8880022    1    1    2    0    0 -0.10943725032E+03  0.16734899626E+03 -0.43812450658E+03  0.50529885670E+03  0.15294330000E+03 0.  0.
<mgrwt>
<rscale>  0 0.53528404E+03</rscale>
<asrwt>0</asrwt>
<pdfrwt beam="1">  1        1 0.98358900E-01 0.68832580E+03</pdfrwt>
<pdfrwt beam="2">  1       -1 0.11388136E+00 0.68832580E+03</pdfrwt>
<totfact> 0.22659464E+01</totfact>
</mgrwt>
</event>
<event>
 4    1  0.1008211E-007  0.9170314E+03  0.7818608E-02  0.9499226E-01
         -1   -1    0    0    0  501 -0.00000000000E+00  0.00000000000E+00  0.51853573796E+03  0.51853573799E+03  0.50400000000E-02 0.  1.
          1   -1    0    0  501    0  0.00000000000E+00 -0.00000000000E+00 -0.17391474612E+04  0.17391474612E+04  0.50400000000E-02 0. -1.
    8880023    1    1    2    0    0 -0.29743060555E+03  0.56450991548E+03 -0.53274693797E+02  0.91857760100E+03  0.65864270000E+03 0.  0.
    8880022    1    1    2    0    0  0.29743060555E+03 -0.56450991548E+03 -0.11673370294E+04  0.13391055982E+04  0.15294330000E+03 0.  0.
<mgrwt>
<rscale>  0 0.84340922E+03</rscale>
<asrwt>0</asrwt>
<pdfrwt beam="1">  1        1 0.26756115E+00 0.91703141E+03</pdfrwt>
<pdfrwt beam="2">  1       -1 0.79774730E-01 0.91703141E+03</pdfrwt>
<totfact> 0.71645911E+00</totfact>
</mgrwt>
</event>
<event>
 4    1  0.1008211E-007  0.1409160E+04  0.7818608E-02  0.8976597E-01
          1   -1    0    0  501    0  0.00000000000E+00  0.00000000000E+00  0.11773442753E+04  0.11773442753E+04  0.50400000000E-02 0. -1.
         -1   -1    0    0    0  501 -0.00000000000E+00 -0.00000000000E+00 -0.23344292350E+04  0.23344292350E+04  0.50400000000E-02 0.  1.
    8880023    1    1    2    0    0  0.11133666261E+04 -0.55887187983E+03 -0.16442067494E+04  0.21654443108E+04  0.65864270000E+03 0.  0.
    8880022    1    1    2    0    0 -0.11133666261E+04  0.55887187983E+03  0.48712178970E+03  0.13463291994E+04  0.15294330000E+03 0.  0.
<mgrwt>
<rscale>  0 0.13689616E+04</rscale>
<asrwt>0</asrwt>
<pdfrwt beam="1">  1        1 0.18112989E+00 0.14091605E+04</pdfrwt>
<pdfrwt beam="2">  1       -1 0.35914296E+00 0.14091605E+04</pdfrwt>
<totfact> 0.14408373E-01</totfact>
</mgrwt>
</event>
<event>
 4    1  0.1008211E-007  0.6804921E+03  0.7818608E-02  0.1009047E+00
          1   -1    0    0  501    0  0.00000000000E+00  0.00000000000E+00  0.58773976284E+03  0.58773976287E+03  0.50400000000E-02 0. -1.
         -1   -1    0    0    0  501 -0.00000000000E+00 -0.00000000000E+00 -0.14391733646E+04  0.14391733646E+04  0.50400000000E-02 0.  1.
    8880023    1    1    2    0    0 -0.10843034550E+03  0.13229577149E+03 -0.13312292299E+04  0.14950721654E+04  0.65864270000E+03 0.  1.
    8880022    1    1    2    0    0  0.10843034550E+03 -0.13229577149E+03  0.47979562822E+03  0.53184096199E+03  0.15294330000E+03 0.  0.
<mgrwt>
<rscale>  0 0.51855295E+03</rscale>
<asrwt>0</asrwt>
<pdfrwt beam="1">  1        1 0.90421502E-01 0.68049211E+03</pdfrwt>
<pdfrwt beam="2">  1       -1 0.22141129E+00 0.68049211E+03</pdfrwt>
<totfact> 0.39917065E+00</totfact>
</mgrwt>
</event>
<event>
 4    1  0.1008211E-007  0.6947059E+03  0.7818608E-02  0.1001991E+00
         -1   -1    0    0    0  501 -0.00000000000E+00  0.00000000000E+00  0.13252075570E+03  0.13252075579E+03  0.50400000000E-02 0.  1.
          1   -1    0    0  501    0  0.00000000000E+00 -0.00000000000E+00 -0.27473948752E+04  0.27473948752E+04  0.50400000000E-02 0. -1.
    8880023    1    1    2    0    0 -0.50124641154E+02  0.21515943634E+03 -0.86452382282E+03  0.11090616345E+04  0.65864270000E+03 0.  1.
    8880022    1    1    2    0    0  0.50124641154E+02 -0.21515943634E+03 -0.17503502967E+04  0.17708539965E+04  0.15294330000E+03 0.  0.
<mgrwt>
<rscale>  0 0.54785568E+03</rscale>
<asrwt>0</asrwt>
<pdfrwt beam="1">  1        1 0.42267609E+00 0.69470589E+03</pdfrwt>
<pdfrwt beam="2">  1       -1 0.20387811E-01 0.69470589E+03</pdfrwt>
<totfact> 0.19098631E+01</totfact>
</mgrwt>
</event>
<event>
 4    1  0.1008211E-007  0.6781665E+03  0.7818608E-02  0.1010380E+00
         -1   -1    0    0    0  501 -0.00000000000E+00  0.00000000000E+00  0.27874990053E+03  0.27874990058E+03  0.50400000000E-02 0.  1.
          1   -1    0    0  501    0  0.00000000000E+00 -0.00000000000E+00 -0.25990338452E+04  0.25990338452E+04  0.50400000000E-02 0. -1.
    8880023    1    1    2    0    0 -0.12216686432E+03 -0.10571126722E+03 -0.14798735301E+03  0.69412540486E+03  0.65864270000E+03 0.  1.
    8880022    1    1    2    0    0  0.12216686432E+03  0.10571126722E+03 -0.21722965917E+04  0.21836583409E+04  0.15294330000E+03 0.  0.
<mgrwt>
<rscale>  0 0.51323744E+03</rscale>
<asrwt>0</asrwt>
<pdfrwt beam="1">  1        1 0.39985134E+00 0.67816651E+03</pdfrwt>
<pdfrwt beam="2">  1       -1 0.42884602E-01 0.67816651E+03</pdfrwt>
<totfact> 0.66402142E+00</totfact>
</mgrwt>
</event>
<event>
 4    1  0.1008211E-007  0.1008652E+04  0.7818608E-02  0.9370324E-01
          1   -1    0    0  501    0  0.00000000000E+00  0.00000000000E+00  0.12862585443E+04  0.12862585443E+04  0.50400000000E-02 0. -1.
         -1   -1    0    0    0  501 -0.00000000000E+00 -0.00000000000E+00 -0.20124537361E+04  0.20124537361E+04  0.50400000000E-02 0.  1.
    8880023    1    1    2    0    0  0.63205790211E+03  0.42903634286E+03 -0.17453767622E+04  0.20158669657E+04  0.65864270000E+03 0.  0.
    8880022    1    1    2    0    0 -0.63205790211E+03 -0.42903634286E+03  0.10191815704E+04  0.12828453147E+04  0.15294330000E+03 0.  0.
<mgrwt>
<rscale>  0 0.94558643E+03</rscale>
<asrwt>0</asrwt>
<pdfrwt beam="1">  1        1 0.19788593E+00 0.10086524E+04</pdfrwt>
<pdfrwt beam="2">  1       -1 0.30960827E+00 0.10086524E+04</pdfrwt>
<totfact> 0.26868563E-01</totfact>
</mgrwt>
</event>
<event>
 4    1  0.1008211E-007  0.6994955E+03  0.7818608E-02  0.9999300E-01
         -1   -1    0    0    0  501 -0.00000000000E+00  0.00000000000E+00  0.31288421136E+03  0.31288421140E+03  0.50400000000E-02 0.  1.
          1   -1    0    0  501    0  0.00000000000E+00 -0.00000000000E+00 -0.10275256243E+04  0.10275256243E+04  0.50400000000E-02 0. -1.
    8880023    1    1    2    0    0 -0.11787545193E+03  0.20393415620E+03 -0.15827697407E+03  0.71717889610E+03  0.65864270000E+03 0.  1.
    8880022    1    1    2    0    0  0.11787545193E+03 -0.20393415620E+03 -0.55636443886E+03  0.62323093960E+03  0.15294330000E+03 0.  0.
<mgrwt>
<rscale>  0 0.55680920E+03</rscale>
<asrwt>0</asrwt>
<pdfrwt beam="1">  1        1 0.15808086E+00 0.69949551E+03</pdfrwt>
<pdfrwt beam="2">  1       -1 0.48136033E-01 0.69949551E+03</pdfrwt>
<totfact> 0.63853664E+01</totfact>
</mgrwt>
</event>
<event>
 4    1  0.1008211E-007  0.7536075E+03  0.7818608E-02  0.9821947E-01
         -1   -1    0    0    0  501 -0.00000000000E+00  0.00000000000E+00  0.36437277579E+03  0.36437277582E+03  0.50400000000E-02 0.  1.
          1   -1    0    0  501    0  0.00000000000E+00 -0.00000000000E+00 -0.16221387706E+04  0.16221387706E+04  0.50400000000E-02 0. -1.
    8880023    1    1    2    0    0  0.35051638343E+03 -0.10607689449E+03 -0.97060873690E+02  0.75983225916E+03  0.65864270000E+03 0.  0.
    8880022    1    1    2    0    0 -0.35051638343E+03  0.10607689449E+03 -0.11607051211E+04  0.12266792873E+04  0.15294330000E+03 0.  0.
<mgrwt>
<rscale>  0 0.64197917E+03</rscale>
<asrwt>0</asrwt>
<pdfrwt beam="1">  1        1 0.24955981E+00 0.75360749E+03</pdfrwt>
<pdfrwt beam="2">  1       -1 0.56057351E-01 0.75360749E+03</pdfrwt>
<totfact> 0.17976016E+01</totfact>
</mgrwt>
</event>
<event>
 4    1  0.1008211E-007  0.8592926E+03  0.7818608E-02  0.9594823E-01
          1   -1    0    0  501    0  0.00000000000E+00  0.00000000000E+00  0.19509789816E+04  0.19509789816E+04  0.50400000000E-02 0. -1.
         -1   -1    0    0    0  501 -0.00000000000E+00 -0.00000000000E+00 -0.62587906630E+03  0.62587906632E+03  0.50400000000E-02 0.  1.
    8880023    1    1    2    0    0  0.21501342648E+03  0.50827426771E+03 -0.25487640902E+03  0.89629553994E+03  0.65864270000E+03 0.  1.
    8880022    1    1    2    0    0 -0.21501342648E+03 -0.50827426771E+03  0.15799763243E+04  0.16805625080E+04  0.15294330000E+03 0.  0.
<mgrwt>
<rscale>  0 0.77639772E+03</rscale>
<asrwt>0</asrwt>
<pdfrwt beam="1">  1        1 0.30015061E+00 0.85929256E+03</pdfrwt>
<pdfrwt beam="2">  1       -1 0.96289089E-01 0.85929256E+03</pdfrwt>
<totfact> 0.34469253E+00</totfact>
</mgrwt>
</event>
<event>
 4    1  0.1008211E-007  0.9819598E+03  0.7818608E-02  0.9405550E-01
         -1   -1    0    0    0  501 -0.00000000000E+00  0.00000000000E+00  0.51914969186E+03  0.51914969188E+03  0.50400000000E-02 0.  1.
          1   -1    0    0  501    0  0.00000000000E+00 -0.00000000000E+00 -0.25846060012E+04  0.25846060012E+04  0.50400000000E-02 0. -1.
    8880023    1    1    2    0    0  0.29056855553E+03 -0.66783580308E+03 -0.82110528232E+02  0.98538677201E+03  0.65864270000E+03 0.  1.
    8880022    1    1    2    0    0 -0.29056855553E+03  0.66783580308E+03 -0.19833457811E+04  0.21183689211E+04  0.15294330000E+03 0.  0.
<mgrwt>
<rscale>  0 0.91620355E+03</rscale>
<asrwt>0</asrwt>
<pdfrwt beam="1">  1        1 0.39763168E+00 0.98195975E+03</pdfrwt>
<pdfrwt beam="2">  1       -1 0.79869185E-01 0.98195975E+03</pdfrwt>
<totfact> 0.18942918E+00</totfact>
</mgrwt>
</event>
<event>
 4    1  0.1126206E-007  0.7755696E+03  0.7818608E-02  0.9766349E-01
         -1   -1    0    0    0  501 -0.00000000000E+00  0.00000000000E+00  0.13135447188E+04  0.13135447188E+04  0.50400000000E-02 0.  1.
          1   -1    0    0  501    0  0.00000000000E+00 -0.00000000000E+00 -0.18779134939E+04  0.18779134939E+04  0.50400000000E-02 0. -1.
    8880023    1    1    2    0    0 -0.40913682450E+03 -0.17465727769E+02  0.11695209470E+04  0.14033130244E+04  0.65864270000E+03 0.  1.
    8880022    1    1    2    0    0  0.40913682450E+03  0.17465727769E+02 -0.17338897221E+04  0.17881451882E+04  0.15294330000E+03 0.  0.
<mgrwt>
<rscale>  0 0.67200147E+03</rscale>
<asrwt>0</asrwt>
<pdfrwt beam="1">  1        1 0.28890977E+00 0.77556960E+03</pdfrwt>
<pdfrwt beam="2">  1       -1 0.20208380E+00 0.77556960E+03</pdfrwt>
<totfact> 0.55450482E-01</totfact>
</mgrwt>
</event>
<event>
 4    1  0.1008211E-007  0.1577768E+04  0.7818608E-02  0.8856587E-01
          1   -1    0    0  501    0  0.00000000000E+00  0.00000000000E+00  0.25649138717E+04  0.25649138717E+04  0.50400000000E-02 0. -1.
         -1   -1    0    0    0  501 -0.00000000000E+00 -0.00000000000E+00 -0.16747174971E+04  0.16747174972E+04  0.50400000000E-02 0.  1.
    8880023    1    1    2    0    0  0.10818292535E+04 -0.94084406491E+03 -0.99571504541E+03  0.18656904207E+04  0.65864270000E+03 0.  1.
    8880022    1    1    2    0    0 -0.10818292535E+04  0.94084406491E+03  0.18859114199E+04  0.23739409481E+04  0.15294330000E+03 0.  0.
<mgrwt>
<rscale>  0 0.15426325E+04</rscale>
<asrwt>0</asrwt>
<pdfrwt beam="1">  1        1 0.39460214E+00 0.15777681E+04</pdfrwt>
<pdfrwt beam="2">  1       -1 0.25764885E+00 0.15777681E+04</pdfrwt>
<totfact> 0.70868430E-02</totfact>
</mgrwt>
</event>
<event>
 4    1  0.1008211E-007  0.9371384E+03  0.7818608E-02  0.9468866E-01
          1   -1    0    0  501    0  0.00000000000E+00  0.00000000000E+00  0.32913988461E+04  0.32913988461E+04  0.50400000000E-02 0. -1.
         -1   -1    0    0    0  501 -0.00000000000E+00 -0.00000000000E+00 -0.41899887815E+03  0.41899887818E+03  0.50400000000E-02 0.  1.
    8880023    1    1    2    0    0  0.17542752990E+03 -0.64315107104E+03  0.20844515503E+03  0.96004047172E+03  0.65864270000E+03 0.  0.
    8880022    1    1    2    0    0 -0.17542752990E+03  0.64315107104E+03  0.26639548129E+04  0.27503572525E+04  0.15294330000E+03 0.  0.
<mgrwt>
<rscale>  0 0.86618658E+03</rscale>
<asrwt>0</asrwt>
<pdfrwt beam="1">  1        1 0.50636906E+00 0.93713837E+03</pdfrwt>
<pdfrwt beam="2">  1       -1 0.64461365E-01 0.93713837E+03</pdfrwt>
<totfact> 0.92549592E-01</totfact>
</mgrwt>
</event>
<event>
 4    1  0.1008211E-007  0.1023106E+04  0.7818608E-02  0.9351933E-01
          1   -1    0    0  501    0  0.00000000000E+00  0.00000000000E+00  0.80087832604E+03  0.80087832605E+03  0.50400000000E-02 0. -1.
         -1   -1    0    0    0  501 -0.00000000000E+00 -0.00000000000E+00 -0.11222707398E+04  0.11222707398E+04  0.50400000000E-02 0.  1.
    8880023    1    1    2    0    0  0.35028885738E+03  0.70016714992E+03 -0.44542380714E+03  0.11158624000E+04  0.65864270000E+03 0.  0.
    8880022    1    1    2    0    0 -0.35028885738E+03 -0.70016714992E+03  0.12403139334E+03  0.80728666593E+03  0.15294330000E+03 0.  0.
<mgrwt>
<rscale>  0 0.96139243E+03</rscale>
<asrwt>0</asrwt>
<pdfrwt beam="1">  1        1 0.12321205E+00 0.10231063E+04</pdfrwt>
<pdfrwt beam="2">  1       -1 0.17265704E+00 0.10231063E+04</pdfrwt>
<totfact> 0.51941100E+00</totfact>
</mgrwt>
</event>
<event>
 4    1  0.1008211E-007  0.7867160E+03  0.7818608E-02  0.9740291E-01
         -1   -1    0    0    0  501 -0.00000000000E+00  0.00000000000E+00  0.80142953783E+03  0.80142953784E+03  0.50400000000E-02 0.  1.
          1   -1    0    0  501    0  0.00000000000E+00 -0.00000000000E+00 -0.10379287846E+04  0.10379287846E+04  0.50400000000E-02 0. -1.
    8880023    1    1    2    0    0 -0.25822905366E+03  0.34413607446E+03  0.52898870471E+03  0.94802486142E+03  0.65864270000E+03 0.  1.
    8880022    1    1    2    0    0  0.25822905366E+03 -0.34413607446E+03 -0.76548795148E+03  0.89133346105E+03  0.15294330000E+03 0.  0.
<mgrwt>
<rscale>  0 0.68667727E+03</rscale>
<asrwt>0</asrwt>
<pdfrwt beam="1">  1        1 0.15968135E+00 0.78671601E+03</pdfrwt>
<pdfrwt beam="2">  1       -1 0.12329685E+00 0.78671601E+03</pdfrwt>
<totfact> 0.84203768E+00</totfact>
</mgrwt>
</event>
<event>
 4    1  0.1008211E-007  0.7396416E+03  0.7818608E-02  0.9860992E-01
          1   -1    0    0  501    0  0.00000000000E+00  0.00000000000E+00  0.20561583357E+04  0.20561583357E+04  0.50400000000E-02 0. -1.
         -1   -1    0    0    0  501 -0.00000000000E+00 -0.00000000000E+00 -0.36700441190E+03  0.36700441193E+03  0.50400000000E-02 0.  1.
    8880023    1    1    2    0    0  0.33437990009E+03  0.38073920848E+02  0.48336339841E+02  0.74121936635E+03  0.65864270000E+03 0.  1.
    8880022    1    1    2    0    0 -0.33437990009E+03 -0.38073920848E+02  0.16408175840E+04  0.16819433813E+04  0.15294330000E+03 0.  0.
<mgrwt>
<rscale>  0 0.62189590E+03</rscale>
<asrwt>0</asrwt>
<pdfrwt beam="1">  1        1 0.31633205E+00 0.73964163E+03</pdfrwt>
<pdfrwt beam="2">  1       -1 0.56462218E-01 0.73964163E+03</pdfrwt>
<totfact> 0.90902481E+00</totfact>
</mgrwt>
</event>
<event>
 4    1  0.1008211E-007  0.8126256E+03  0.7818608E-02  0.9684134E-01
          1   -1    0    0  501    0  0.00000000000E+00  0.00000000000E+00  0.25940778700E+04  0.25940778700E+04  0.50400000000E-02 0. -1.
         -1   -1    0    0    0  501 -0.00000000000E+00 -0.00000000000E+00 -0.20949626775E+03  0.20949626781E+03  0.50400000000E-02 0.  1.
    8880023    1    1    2    0    0  0.22566951380E+03  0.41907446446E+03  0.79344663802E+03  0.11357455304E+04  0.65864270000E+03 0.  1.
    8880022    1    1    2    0    0 -0.22566951380E+03 -0.41907446446E+03  0.15911349642E+04  0.16678286074E+04  0.15294330000E+03 0.  0.
<mgrwt>
<rscale>  0 0.71969375E+03</rscale>
<asrwt>0</asrwt>
<pdfrwt beam="1">  1        1 0.39908892E+00 0.81262559E+03</pdfrwt>
<pdfrwt beam="2">  1       -1 0.32230194E-01 0.81262559E+03</pdfrwt>
<totfact> 0.10932782E+01</totfact>
</mgrwt>
</event>
<event>
 4    1  0.1008211E-007  0.1134419E+04  0.7818608E-02  0.9223669E-01
          1   -1    0    0  501    0  0.00000000000E+00  0.00000000000E+00  0.16198716445E+04  0.16198716445E+04  0.50400000000E-02 0. -1.
         -1   -1    0    0    0  501 -0.00000000000E+00 -0.00000000000E+00 -0.76261217339E+03  0.76261217340E+03  0.50400000000E-02 0.  1.
    8880023    1    1    2    0    0  0.34481299639E+03  0.85685481615E+03  0.32634204702E+02  0.11348882659E+04  0.65864270000E+03 0.  0.
    8880022    1    1    2    0    0 -0.34481299639E+03 -0.85685481615E+03  0.82462526641E+03  0.12475955520E+04  0.15294330000E+03 0.  0.
<mgrwt>
<rscale>  0 0.10812431E+04</rscale>
<asrwt>0</asrwt>
<pdfrwt beam="1">  1        1 0.24921102E+00 0.11344190E+04</pdfrwt>
<pdfrwt beam="2">  1       -1 0.11732495E+00 0.11344190E+04</pdfrwt>
<totfact> 0.35026533E+00</totfact>
</mgrwt>
</event>
<event>
 4    1  0.1008211E-007  0.1691881E+04  0.7818608E-02  0.8784826E-01
         -1   -1    0    0    0  501 -0.00000000000E+00  0.00000000000E+00  0.11105184098E+04  0.11105184098E+04  0.50400000000E-02 0.  1.
          1   -1    0    0  501    0  0.00000000000E+00 -0.00000000000E+00 -0.29110654589E+04  0.29110654589E+04  0.50400000000E-02 0. -1.
    8880023    1    1    2    0    0 -0.60757042274E+03  0.14350987189E+04 -0.78019591960E+02  0.16936786634E+04  0.65864270000E+03 0.  0.
    8880022    1    1    2    0    0  0.60757042274E+03 -0.14350987189E+04 -0.17225274571E+04  0.23279052054E+04  0.15294330000E+03 0.  0.
<mgrwt>
<rscale>  0 0.16594657E+04</rscale>
<asrwt>0</asrwt>
<pdfrwt beam="1">  1        1 0.44785622E+00 0.16918807E+04</pdfrwt>
<pdfrwt beam="2">  1       -1 0.17084899E+00 0.16918807E+04</pdfrwt>
<totfact> 0.15614624E-01</totfact>
</mgrwt>
</event>
<event>
 4    1  0.1008211E-007  0.8423868E+03  0.7818608E-02  0.9625696E-01
         -1   -1    0    0    0  501 -0.00000000000E+00  0.00000000000E+00  0.11867788137E+04  0.11867788138E+04  0.50400000000E-02 0.  1.
          1   -1    0    0  501    0  0.00000000000E+00 -0.00000000000E+00 -0.10633481832E+04  0.10633481832E+04  0.50400000000E-02 0. -1.
    8880023    1    1    2    0    0 -0.44878689849E+02 -0.52325055472E+03  0.94320724175E+03  0.12646166799E+04  0.65864270000E+03 0.  0.
    8880022    1    1    2    0    0  0.44878689849E+02  0.52325055472E+03 -0.81977661120E+03  0.98551031710E+03  0.15294330000E+03 0.  0.
<mgrwt>
<rscale>  0 0.75618539E+03</rscale>
<asrwt>0</asrwt>
<pdfrwt beam="1">  1        1 0.16359203E+00 0.84238676E+03</pdfrwt>
<pdfrwt beam="2">  1       -1 0.18258136E+00 0.84238676E+03</pdfrwt>
<totfact> 0.27653569E+00</totfact>
</mgrwt>
</event>
<event>
 4    1  0.1008211E-007  0.7009684E+03  0.7818608E-02  0.9993207E-01
         -1   -1    0    0    0  501 -0.00000000000E+00  0.00000000000E+00  0.77473485343E+03  0.77473485344E+03  0.50400000000E-02 0.  1.
          1   -1    0    0  501    0  0.00000000000E+00 -0.00000000000E+00 -0.13587240616E+04  0.13587240616E+04  0.50400000000E-02 0. -1.
    8880023    1    1    2    0    0 -0.18254925838E+03 -0.15563510299E+03  0.59573090531E+03  0.91991958063E+03  0.65864270000E+03 0.  0.
    8880022    1    1    2    0    0  0.18254925838E+03  0.15563510299E+03 -0.11797201135E+04  0.12135393344E+04  0.15294330000E+03 0.  0.
<mgrwt>
<rscale>  0 0.55949088E+03</rscale>
<asrwt>0</asrwt>
<pdfrwt beam="1">  1        1 0.20903447E+00 0.70096842E+03</pdfrwt>
<pdfrwt beam="2">  1       -1 0.11918998E+00 0.70096842E+03</pdfrwt>
<totfact> 0.54207527E+00</totfact>
</mgrwt>
</event>
<event>
 4    1  0.1008211E-007  0.7103792E+03  0.7818608E-02  0.9956595E-01
          1   -1    0    0  501    0  0.00000000000E+00  0.00000000000E+00  0.97356637576E+03  0.97356637577E+03  0.50400000000E-02 0. -1.
         -1   -1    0    0    0  501 -0.00000000000E+00 -0.00000000000E+00 -0.77339291595E+03  0.77339291597E+03  0.50400000000E-02 0.  1.
    8880023    1    1    2    0    0 -0.26120825978E+03 -0.50977040188E+02 -0.57454884149E+03  0.91364379882E+03  0.65864270000E+03 0.  1.
    8880022    1    1    2    0    0  0.26120825978E+03  0.50977040188E+02  0.77472230129E+03  0.83331549292E+03  0.15294330000E+03 0.  0.
<mgrwt>
<rscale>  0 0.57595109E+03</rscale>
<asrwt>0</asrwt>
<pdfrwt beam="1">  1        1 0.14977944E+00 0.71037921E+03</pdfrwt>
<pdfrwt beam="2">  1       -1 0.11898353E+00 0.71037921E+03</pdfrwt>
<totfact> 0.10414539E+01</totfact>
</mgrwt>
</event>
<event>
 4    1  0.1008211E-007  0.9242700E+03  0.7818608E-02  0.9488143E-01
         -1   -1    0    0    0  501 -0.00000000000E+00  0.00000000000E+00  0.42656671033E+03  0.42656671036E+03  0.50400000000E-02 0.  1.
          1   -1    0    0  501    0  0.00000000000E+00 -0.00000000000E+00 -0.18200515991E+04  0.18200515991E+04  0.50400000000E-02 0. -1.
    8880023    1    1    2    0    0  0.54582968443E+03  0.35004971996E+03 -0.31033655630E+03  0.97497888967E+03  0.65864270000E+03 0.  1.
    8880022    1    1    2    0    0 -0.54582968443E+03 -0.35004971996E+03 -0.10831483325E+04  0.12716394198E+04  0.15294330000E+03 0.  0.
<mgrwt>
<rscale>  0 0.85163690E+03</rscale>
<asrwt>0</asrwt>
<pdfrwt beam="1">  1        1 0.28000793E+00 0.92427001E+03</pdfrwt>
<pdfrwt beam="2">  1       -1 0.65625649E-01 0.92427001E+03</pdfrwt>
<totfact> 0.94629166E+00</totfact>
</mgrwt>
</event>
<event>
 4    1  0.1008211E-007  0.6897591E+03  0.7818608E-02  0.1004267E+00
          1   -1    0    0  501    0  0.00000000000E+00  0.00000000000E+00  0.16553254895E+04  0.16553254895E+04  0.50400000000E-02 0. -1.
         -1   -1    0    0    0  501 -0.00000000000E+00 -0.00000000000E+00 -0.59240712793E+03  0.59240712795E+03  0.50400000000E-02 0.  1.
    8880023    1    1    2    0    0  0.13822778869E+03  0.15116365538E+03 -0.37647702777E+03  0.78581329269E+03  0.65864270000E+03 0.  1.
    8880022    1    1    2    0    0 -0.13822778869E+03 -0.15116365538E+03  0.14393953893E+04  0.14619193248E+04  0.15294330000E+03 0.  0.
<mgrwt>
<rscale>  0 0.53818050E+03</rscale>
<asrwt>0</asrwt>
<pdfrwt beam="1">  1        1 0.25466546E+00 0.68975907E+03</pdfrwt>
<pdfrwt beam="2">  1       -1 0.91139558E-01 0.68975907E+03</pdfrwt>
<totfact> 0.63304833E+00</totfact>
</mgrwt>
</event>
<event>
 4    1  0.1008211E-007  0.9523362E+03  0.7818608E-02  0.9446761E-01
          1   -1    0    0  501    0  0.00000000000E+00  0.00000000000E+00  0.16853409892E+04  0.16853409893E+04  0.50400000000E-02 0. -1.
         -1   -1    0    0    0  501 -0.00000000000E+00 -0.00000000000E+00 -0.58782022135E+03  0.58782022137E+03  0.50400000000E-02 0.  1.
    8880023    1    1    2    0    0 -0.34697589042E+03 -0.59392066717E+03 -0.19408366600E+02  0.95253394605E+03  0.65864270000E+03 0.  0.
    8880022    1    1    2    0    0  0.34697589042E+03  0.59392066717E+03  0.11169291345E+04  0.13206272646E+04  0.15294330000E+03 0.  0.
<mgrwt>
<rscale>  0 0.88325363E+03</rscale>
<asrwt>0</asrwt>
<pdfrwt beam="1">  1        1 0.25928323E+00 0.95233620E+03</pdfrwt>
<pdfrwt beam="2">  1       -1 0.90433882E-01 0.95233620E+03</pdfrwt>
<totfact> 0.59079749E+00</totfact>
</mgrwt>
</event>
<event>
 4    1  0.1008211E-007  0.6948994E+03  0.7818608E-02  0.1001906E+00
          1   -1    0    0  501    0  0.00000000000E+00  0.00000000000E+00  0.27760625383E+03  0.27760625388E+03  0.50400000000E-02 0. -1.
         -1   -1    0    0    0  501 -0.00000000000E+00 -0.00000000000E+00 -0.84051911007E+03  0.84051911009E+03  0.50400000000E-02 0.  1.
    8880023    1    1    2    0    0 -0.20383719320E+03 -0.86749189683E+02 -0.43746649768E+03  0.82113468207E+03  0.65864270000E+03 0.  0.
    8880022    1    1    2    0    0  0.20383719320E+03  0.86749189683E+02 -0.12544635856E+03  0.29699068190E+03  0.15294330000E+03 0.  1.
<mgrwt>
<rscale>  0 0.54822491E+03</rscale>
<asrwt>0</asrwt>
<pdfrwt beam="1">  1        1 0.42708655E-01 0.69489944E+03</pdfrwt>
<pdfrwt beam="2">  1       -1 0.12931063E+00 0.69489944E+03</pdfrwt>
<totfact> 0.51076543E+01</totfact>
</mgrwt>
</event>
<event>
 4    1  0.1008211E-007  0.1132126E+04  0.7818608E-02  0.9226103E-01
          1   -1    0    0  501    0  0.00000000000E+00  0.00000000000E+00  0.22510117056E+04  0.22510117056E+04  0.50400000000E-02 0. -1.
         -1   -1    0    0    0  501 -0.00000000000E+00 -0.00000000000E+00 -0.76743385563E+03  0.76743385565E+03  0.50400000000E-02 0.  1.
    8880023    1    1    2    0    0  0.17646742303E+03  0.90374703968E+03 -0.14495731496E+03  0.11413686050E+04  0.65864270000E+03 0.  0.
    8880022    1    1    2    0    0 -0.17646742303E+03 -0.90374703968E+03  0.16285351649E+04  0.18770769562E+04  0.15294330000E+03 0.  0.
<mgrwt>
<rscale>  0 0.10788015E+04</rscale>
<asrwt>0</asrwt>
<pdfrwt beam="1">  1        1 0.34630949E+00 0.11321262E+04</pdfrwt>
<pdfrwt beam="2">  1       -1 0.11806675E+00 0.11321262E+04</pdfrwt>
<totfact> 0.12891136E+00</totfact>
</mgrwt>
</event>
<event>
 4    1  0.1008211E-007  0.1146068E+04  0.7818608E-02  0.9211419E-01
          1   -1    0    0  501    0  0.00000000000E+00  0.00000000000E+00  0.18964011294E+04  0.18964011294E+04  0.50400000000E-02 0. -1.
         -1   -1    0    0    0  501 -0.00000000000E+00 -0.00000000000E+00 -0.83206395619E+03  0.83206395621E+03  0.50400000000E-02 0.  1.
    8880023    1    1    2    0    0  0.51723577598E+03  0.78238686464E+03 -0.18277889706E+03  0.11605517590E+04  0.65864270000E+03 0.  1.
    8880022    1    1    2    0    0 -0.51723577598E+03 -0.78238686464E+03  0.12471160702E+04  0.15679133266E+04  0.15294330000E+03 0.  0.
<mgrwt>
<rscale>  0 0.10936341E+04</rscale>
<asrwt>0</asrwt>
<pdfrwt beam="1">  1        1 0.29175402E+00 0.11460682E+04</pdfrwt>
<pdfrwt beam="2">  1       -1 0.12800984E+00 0.11460682E+04</pdfrwt>
<totfact> 0.18289876E+00</totfact>
</mgrwt>
</event>
<event>
 4    1  0.1008211E-007  0.1349559E+04  0.7818608E-02  0.9023902E-01
          1   -1    0    0  501    0  0.00000000000E+00  0.00000000000E+00  0.85215712107E+03  0.85215712108E+03  0.50400000000E-02 0. -1.
         -1   -1    0    0    0  501 -0.00000000000E+00 -0.00000000000E+00 -0.22910471406E+04  0.22910471406E+04  0.50400000000E-02 0.  1.
    8880023    1    1    2    0    0 -0.46764697786E+03 -0.10811134061E+04 -0.14146705868E+04  0.19551478124E+04  0.65864270000E+03 0.  0.
    8880022    1    1    2    0    0  0.46764697786E+03  0.10811134061E+04 -0.24219432712E+02  0.11880564493E+04  0.15294330000E+03 0.  0.
<mgrwt>
<rscale>  0 0.13071658E+04</rscale>
<asrwt>0</asrwt>
<pdfrwt beam="1">  1        1 0.13110110E+00 0.13495592E+04</pdfrwt>
<pdfrwt beam="2">  1       -1 0.35246879E+00 0.13495592E+04</pdfrwt>
<totfact> 0.28995957E-01</totfact>
</mgrwt>
</event>
<event>
 4    1  0.1008211E-007  0.8696736E+03  0.7818608E-02  0.9576582E-01
         -1   -1    0    0    0  501 -0.00000000000E+00  0.00000000000E+00  0.63884048313E+03  0.63884048315E+03  0.50400000000E-02 0.  1.
          1   -1    0    0  501    0  0.00000000000E+00 -0.00000000000E+00 -0.13749396032E+04  0.13749396032E+04  0.50400000000E-02 0. -1.
    8880023    1    1    2    0    0  0.49298674429E+03 -0.28193265019E+03  0.21469326772E+03  0.89578197948E+03  0.65864270000E+03 0.  0.
    8880022    1    1    2    0    0 -0.49298674429E+03  0.28193265019E+03 -0.95079238778E+03  0.11179981069E+04  0.15294330000E+03 0.  0.
<mgrwt>
<rscale>  0 0.78865701E+03</rscale>
<asrwt>0</asrwt>
<pdfrwt beam="1">  1        1 0.21152917E+00 0.86967359E+03</pdfrwt>
<pdfrwt beam="2">  1       -1 0.98283152E-01 0.86967359E+03</pdfrwt>
<totfact> 0.80963338E+00</totfact>
</mgrwt>
</event>
<event>
 4    1  0.1008211E-007  0.9361496E+03  0.7818608E-02  0.9470328E-01
         -1   -1    0    0    0  501 -0.00000000000E+00  0.00000000000E+00  0.17994733979E+04  0.17994733979E+04  0.50400000000E-02 0.  1.
          1   -1    0    0  501    0  0.00000000000E+00 -0.00000000000E+00 -0.12742271849E+04  0.12742271849E+04  0.50400000000E-02 0. -1.
    8880023    1    1    2    0    0 -0.23970220304E+02 -0.66482425075E+03  0.15687022342E+04  0.18268012376E+04  0.65864270000E+03 0.  1.
    8880022    1    1    2    0    0  0.23970220304E+02  0.66482425075E+03 -0.10434560212E+04  0.12468993452E+04  0.15294330000E+03 0.  0.
<mgrwt>
<rscale>  0 0.86507195E+03</rscale>
<asrwt>0</asrwt>
<pdfrwt beam="1">  1        1 0.19603495E+00 0.93614959E+03</pdfrwt>
<pdfrwt beam="2">  1       -1 0.27684206E+00 0.93614959E+03</pdfrwt>
<totfact> 0.45077282E-01</totfact>
</mgrwt>
</event>
<event>
 4    1  0.1008211E-007  0.1717298E+04  0.7818608E-02  0.8769718E-01
         -1   -1    0    0    0  501 -0.00000000000E+00  0.00000000000E+00  0.15244135065E+04  0.15244135065E+04  0.50400000000E-02 0.  1.
          1   -1    0    0  501    0  0.00000000000E+00 -0.00000000000E+00 -0.27995816412E+04  0.27995816412E+04  0.50400000000E-02 0. -1.
    8880023    1    1    2    0    0  0.14831404658E+04  0.56178088051E+03 -0.19458419821E+04  0.25952677366E+04  0.65864270000E+03 0.  0.
    8880022    1    1    2    0    0 -0.14831404658E+04 -0.56178088051E+03  0.67067384742E+03  0.17287274111E+04  0.15294330000E+03 0.  0.
<mgrwt>
<rscale>  0 0.16854297E+04</rscale>
<asrwt>0</asrwt>
<pdfrwt beam="1">  1        1 0.43070487E+00 0.17172983E+04</pdfrwt>
<pdfrwt beam="2">  1       -1 0.23452515E+00 0.17172983E+04</pdfrwt>
<totfact> 0.67544311E-02</totfact>
</mgrwt>
</event>
<event>
 4    1  0.1008211E-007  0.2312687E+04  0.7818608E-02  0.8481985E-01
          1   -1    0    0  501    0  0.00000000000E+00  0.00000000000E+00  0.14160028943E+04  0.14160028943E+04  0.50400000000E-02 0. -1.
         -1   -1    0    0    0  501 -0.00000000000E+00 -0.00000000000E+00 -0.38029475126E+04  0.38029475126E+04  0.50400000000E-02 0.  1.
    8880023    1    1    2    0    0  0.11873255308E+04 -0.18721562962E+04 -0.17712524726E+04  0.29130493716E+04  0.65864270000E+03 0.  0.
    8880022    1    1    2    0    0 -0.11873255308E+04  0.18721562962E+04 -0.61569214575E+03  0.23059010353E+04  0.15294330000E+03 0.  0.
<mgrwt>
<rscale>  0 0.22897215E+04</rscale>
<asrwt>0</asrwt>
<pdfrwt beam="1">  1        1 0.21784660E+00 0.23126870E+04</pdfrwt>
<pdfrwt beam="2">  1       -1 0.58506884E+00 0.23126870E+04</pdfrwt>
<totfact> 0.32227228E-03</totfact>
</mgrwt>
</event>
<event>
 4    1  0.1008211E-007  0.1217425E+04  0.7818608E-02  0.9140368E-01
         -1   -1    0    0    0  501 -0.00000000000E+00  0.00000000000E+00  0.91893547284E+03  0.91893547286E+03  0.50400000000E-02 0.  1.
          1   -1    0    0  501    0  0.00000000000E+00 -0.00000000000E+00 -0.15992422792E+04  0.15992422792E+04  0.50400000000E-02 0. -1.
    8880023    1    1    2    0    0 -0.93316834910E+03  0.42131874327E+03  0.10040921167E+03  0.12215583765E+04  0.65864270000E+03 0.  0.
    8880022    1    1    2    0    0  0.93316834910E+03 -0.42131874327E+03 -0.78071601801E+03  0.12966193755E+04  0.15294330000E+03 0.  0.
<mgrwt>
<rscale>  0 0.11690712E+04</rscale>
<asrwt>0</asrwt>
<pdfrwt beam="1">  1        1 0.24603727E+00 0.12174247E+04</pdfrwt>
<pdfrwt beam="2">  1       -1 0.14137469E+00 0.12174247E+04</pdfrwt>
<totfact> 0.22361330E+00</totfact>
</mgrwt>
</event>
<event>
 4    1  0.1008211E-007  0.9164500E+03  0.7818608E-02  0.9500124E-01
          1   -1    0    0  501    0  0.00000000000E+00  0.00000000000E+00  0.32662177813E+04  0.32662177813E+04  0.50400000000E-02 0. -1.
         -1   -1    0    0    0  501 -0.00000000000E+00 -0.00000000000E+00 -0.56717140318E+03  0.56717140321E+03  0.50400000000E-02 0.  1.
    8880023    1    1    2    0    0  0.24969236117E+03 -0.58627986778E+03 -0.13341062427E+03  0.92610958289E+03  0.65864270000E+03 0. -1.
    8880022    1    1    2    0    0 -0.24969236117E+03  0.58627986778E+03  0.28324570024E+04  0.29072796016E+04  0.15294330000E+03 0.  0.
<mgrwt>
<rscale>  0 0.84274691E+03</rscale>
<asrwt>0</asrwt>
<pdfrwt beam="1">  1        1 0.50249504E+00 0.91644998E+03</pdfrwt>
<pdfrwt beam="2">  1       -1 0.87257139E-01 0.91644998E+03</pdfrwt>
<totfact> 0.51453212E-01</totfact>
</mgrwt>
</event>
<event>
 4    1  0.1008211E-007  0.8341991E+03  0.7818608E-02  0.9641217E-01
         -1   -1    0    0    0  501 -0.00000000000E+00  0.00000000000E+00  0.85518902927E+03  0.85518902929E+03  0.50400000000E-02 0.  1.
          1   -1    0    0  501    0  0.00000000000E+00 -0.00000000000E+00 -0.71777732614E+03  0.71777732616E+03  0.50400000000E-02 0. -1.
    8880023    1    1    2    0    0  0.23729864360E+03 -0.45361571231E+03  0.45620383118E+03  0.95079440604E+03  0.65864270000E+03 0.  0.
    8880022    1    1    2    0    0 -0.23729864360E+03  0.45361571231E+03 -0.31879212805E+03  0.62217194941E+03  0.15294330000E+03 0.  0.
<mgrwt>
<rscale>  0 0.74627216E+03</rscale>
<asrwt>0</asrwt>
<pdfrwt beam="1">  1        1 0.11042728E+00 0.83419906E+03</pdfrwt>
<pdfrwt beam="2">  1       -1 0.13156754E+00 0.83419906E+03</pdfrwt>
<totfact> 0.13144695E+01</totfact>
</mgrwt>
</event>
<event>
 4    1  0.1008211E-007  0.8576013E+03  0.7818608E-02  0.9597845E-01
          1   -1    0    0  501    0  0.00000000000E+00  0.00000000000E+00  0.15271299047E+04  0.15271299047E+04  0.50400000000E-02 0. -1.
         -1   -1    0    0    0  501 -0.00000000000E+00 -0.00000000000E+00 -0.17918287837E+04  0.17918287837E+04  0.50400000000E-02 0.  1.
    8880023    1    1    2    0    0  0.54657783039E+03  0.54060018615E+02 -0.16286465864E+04  0.18406438330E+04  0.65864270000E+03 0.  1.
    8880022    1    1    2    0    0 -0.54657783039E+03 -0.54060018615E+02  0.13639477073E+04  0.14783148554E+04  0.15294330000E+03 0.  0.
<mgrwt>
<rscale>  0 0.77439005E+03</rscale>
<asrwt>0</asrwt>
<pdfrwt beam="1">  1        1 0.23494306E+00 0.85760132E+03</pdfrwt>
<pdfrwt beam="2">  1       -1 0.27566597E+00 0.85760132E+03</pdfrwt>
<totfact> 0.30998468E-01</totfact>
</mgrwt>
</event>
<event>
 4    1  0.1008211E-007  0.1721833E+04  0.7818608E-02  0.8767054E-01
          1   -1    0    0  501    0  0.00000000000E+00  0.00000000000E+00  0.16390955459E+04  0.16390955459E+04  0.50400000000E-02 0. -1.
         -1   -1    0    0    0  501 -0.00000000000E+00 -0.00000000000E+00 -0.23636636378E+04  0.23636636378E+04  0.50400000000E-02 0.  1.
    8880023    1    1    2    0    0 -0.90872248168E+03  0.13058029055E+04 -0.14467491657E+04  0.22489533413E+04  0.65864270000E+03 0.  0.
    8880022    1    1    2    0    0  0.90872248168E+03 -0.13058029055E+04  0.72218107384E+03  0.17538058425E+04  0.15294330000E+03 0.  0.
<mgrwt>
<rscale>  0 0.16900595E+04</rscale>
<asrwt>0</asrwt>
<pdfrwt beam="1">  1        1 0.25216855E+00 0.17218327E+04</pdfrwt>
<pdfrwt beam="2">  1       -1 0.36364056E+00 0.17218327E+04</pdfrwt>
<totfact> 0.60858330E-02</totfact>
</mgrwt>
</event>
<event>
 4    1  0.1008211E-007  0.8032782E+03  0.7818608E-02  0.9703752E-01
         -1   -1    0    0    0  501 -0.00000000000E+00  0.00000000000E+00  0.16628683008E+04  0.16628683008E+04  0.50400000000E-02 0.  1.
          1   -1    0    0  501    0  0.00000000000E+00 -0.00000000000E+00 -0.45501255786E+03  0.45501255789E+03  0.50400000000E-02 0. -1.
    8880023    1    1    2    0    0  0.42461862775E+03  0.17647853790E+03  0.13856872336E+04  0.16016819188E+04  0.65864270000E+03 0.  1.
    8880022    1    1    2    0    0 -0.42461862775E+03 -0.17647853790E+03 -0.17783149073E+03  0.51619893984E+03  0.15294330000E+03 0.  0.
<mgrwt>
<rscale>  0 0.70793824E+03</rscale>
<asrwt>0</asrwt>
<pdfrwt beam="1">  1        1 0.70001932E-01 0.80327820E+03</pdfrwt>
<pdfrwt beam="2">  1       -1 0.25582589E+00 0.80327820E+03</pdfrwt>
<totfact> 0.33338679E+00</totfact>
</mgrwt>
</event>
<event>
 4    1  0.1036953E-007  0.1180097E+04  0.7818608E-02  0.9176717E-01
         -1   -1    0    0    0  501 -0.00000000000E+00  0.00000000000E+00  0.13668998291E+04  0.13668998291E+04  0.50400000000E-02 0.  1.
          1   -1    0    0  501    0  0.00000000000E+00 -0.00000000000E+00 -0.23591867567E+04  0.23591867567E+04  0.50400000000E-02 0. -1.
    8880023    1    1    2    0    0  0.15203303037E+03  0.96731780890E+03  0.97009118124E+03  0.15276468479E+04  0.65864270000E+03 0.  1.
    8880022    1    1    2    0    0 -0.15203303037E+03 -0.96731780890E+03 -0.19623781089E+04  0.21984397378E+04  0.15294330000E+03 0.  0.
<mgrwt>
<rscale>  0 0.11297014E+04</rscale>
<asrwt>0</asrwt>
<pdfrwt beam="1">  1        1 0.36295181E+00 0.11800966E+04</pdfrwt>
<pdfrwt beam="2">  1       -1 0.21029228E+00 0.11800966E+04</pdfrwt>
<totfact> 0.21419140E-01</totfact>
</mgrwt>
</event>
<event>
 4    1  0.1008211E-007  0.7470582E+03  0.7818608E-02  0.9839844E-01
          1   -1    0    0  501    0  0.00000000000E+00  0.00000000000E+00  0.35524013478E+04  0.35524013478E+04  0.50400000000E-02 0. -1.
         -1   -1    0    0    0  501 -0.00000000000E+00 -0.00000000000E+00 -0.11176129053E+03  0.11176129064E+03  0.50400000000E-02 0.  1.
    8880023    1    1    2    0    0 -0.33515760001E+03 -0.10933972006E+03  0.13920596801E+04  0.15798500405E+04  0.65864270000E+03 0.  0.
    8880022    1    1    2    0    0  0.33515760001E+03  0.10933972006E+03  0.20485803772E+04  0.20843125979E+04  0.15294330000E+03 0.  0.
<mgrwt>
<rscale>  0 0.63267418E+03</rscale>
<asrwt>0</asrwt>
<pdfrwt beam="1">  1        1 0.54652320E+00 0.74705823E+03</pdfrwt>
<pdfrwt beam="2">  1       -1 0.17194047E-01 0.74705823E+03</pdfrwt>
<totfact> 0.64448132E+00</totfact>
</mgrwt>
</event>
<event>
 4    1  0.1008211E-007  0.1255851E+04  0.7818608E-02  0.9104655E-01
          1   -1    0    0  501    0  0.00000000000E+00  0.00000000000E+00  0.75863071277E+03  0.75863071278E+03  0.50400000000E-02 0. -1.
         -1   -1    0    0    0  501 -0.00000000000E+00 -0.00000000000E+00 -0.18557854433E+04  0.18557854433E+04  0.50400000000E-02 0.  1.
    8880023    1    1    2    0    0 -0.98235609680E+03 -0.42228762740E+03 -0.35908958203E+03  0.13061798786E+04  0.65864270000E+03 0.  0.
    8880022    1    1    2    0    0  0.98235609680E+03  0.42228762740E+03 -0.73806514849E+03  0.13082362774E+04  0.15294330000E+03 0.  0.
<mgrwt>
<rscale>  0 0.12094149E+04</rscale>
<asrwt>0</asrwt>
<pdfrwt beam="1">  1        1 0.11671242E+00 0.12558505E+04</pdfrwt>
<pdfrwt beam="2">  1       -1 0.28550545E+00 0.12558505E+04</pdfrwt>
<totfact> 0.96662130E-01</totfact>
</mgrwt>
</event>
<event>
 4    1  0.1008211E-007  0.6923137E+03  0.7818608E-02  0.1003072E+00
          1   -1    0    0  501    0  0.00000000000E+00  0.00000000000E+00  0.10854462703E+04  0.10854462703E+04  0.50400000000E-02 0. -1.
         -1   -1    0    0    0  501 -0.00000000000E+00 -0.00000000000E+00 -0.55998491258E+03  0.55998491260E+03  0.50400000000E-02 0.  1.
    8880023    1    1    2    0    0  0.15845998937E+03 -0.14275307387E+03 -0.31816541606E+03  0.76192351753E+03  0.65864270000E+03 0.  1.
    8880022    1    1    2    0    0 -0.15845998937E+03  0.14275307387E+03  0.84362677378E+03  0.88350766537E+03  0.15294330000E+03 0.  0.
<mgrwt>
<rscale>  0 0.54323601E+03</rscale>
<asrwt>0</asrwt>
<pdfrwt beam="1">  1        1 0.16699173E+00 0.69231367E+03</pdfrwt>
<pdfrwt beam="2">  1       -1 0.86151525E-01 0.69231367E+03</pdfrwt>
<totfact> 0.17953069E+01</totfact>
</mgrwt>
</event>
<event>
 4    1  0.1008211E-007  0.7250991E+03  0.7818608E-02  0.9905695E-01
         -1   -1    0    0    0  501 -0.00000000000E+00  0.00000000000E+00  0.11271865544E+04  0.11271865544E+04  0.50400000000E-02 0.  1.
          1   -1    0    0  501    0  0.00000000000E+00 -0.00000000000E+00 -0.65109524914E+03  0.65109524916E+03  0.50400000000E-02 0. -1.
    8880023    1    1    2    0    0 -0.18294169555E+03 -0.24184883742E+03  0.95008484431E+03  0.11951694197E+04  0.65864270000E+03 0.  1.
    8880022    1    1    2    0    0  0.18294169555E+03  0.24184883742E+03 -0.47399353906E+03  0.58311238387E+03  0.15294330000E+03 0.  0.
<mgrwt>
<rscale>  0 0.59986057E+03</rscale>
<asrwt>0</asrwt>
<pdfrwt beam="1">  1        1 0.10016850E+00 0.72509912E+03</pdfrwt>
<pdfrwt beam="2">  1       -1 0.17341332E+00 0.72509912E+03</pdfrwt>
<totfact> 0.73145022E+00</totfact>
</mgrwt>
</event>
<event>
 4    1  0.1008211E-007  0.7013777E+03  0.7818608E-02  0.9991533E-01
          1   -1    0    0  501    0  0.00000000000E+00  0.00000000000E+00  0.11092787728E+04  0.11092787728E+04  0.50400000000E-02 0. -1.
         -1   -1    0    0    0  501 -0.00000000000E+00 -0.00000000000E+00 -0.57562545539E+03  0.57562545542E+03  0.50400000000E-02 0.  1.
    8880023    1    1    2    0    0  0.54146749624E+02  0.23492241241E+03 -0.33010999310E+03  0.77517947867E+03  0.65864270000E+03 0.  1.
    8880022    1    1    2    0    0 -0.54146749624E+02 -0.23492241241E+03  0.86376331047E+03  0.90972474951E+03  0.15294330000E+03 0.  0.
<mgrwt>
<rscale>  0 0.56023041E+03</rscale>
<asrwt>0</asrwt>
<pdfrwt beam="1">  1        1 0.17065827E+00 0.70137766E+03</pdfrwt>
<pdfrwt beam="2">  1       -1 0.88557763E-01 0.70137766E+03</pdfrwt>
<totfact> 0.16210438E+01</totfact>
</mgrwt>
</event>
<event>
 4    1  0.1008211E-007  0.1042026E+04  0.7818608E-02  0.9328529E-01
          1   -1    0    0  501    0  0.00000000000E+00  0.00000000000E+00  0.14920114451E+04  0.14920114451E+04  0.50400000000E-02 0. -1.
         -1   -1    0    0    0  501 -0.00000000000E+00 -0.00000000000E+00 -0.12849187389E+04  0.12849187390E+04  0.50400000000E-02 0.  1.
    8880023    1    1    2    0    0  0.80485318330E+03 -0.64960076240E+02 -0.91454410800E+03  0.13864377339E+04  0.65864270000E+03 0.  1.
    8880022    1    1    2    0    0 -0.80485318330E+03  0.64960076240E+02  0.11216368142E+04  0.13904924502E+04  0.15294330000E+03 0.  0.
<mgrwt>
<rscale>  0 0.98198336E+03</rscale>
<asrwt>0</asrwt>
<pdfrwt beam="1">  1        1 0.22954022E+00 0.10420262E+04</pdfrwt>
<pdfrwt beam="2">  1       -1 0.19767981E+00 0.10420262E+04</pdfrwt>
<totfact> 0.10355217E+00</totfact>
</mgrwt>
</event>
<event>
 4    1  0.1008211E-007  0.1046700E+04  0.7818608E-02  0.9322859E-01
          1   -1    0    0  501    0  0.00000000000E+00  0.00000000000E+00  0.28318397648E+04  0.28318397648E+04  0.50400000000E-02 0. -1.
         -1   -1    0    0    0  501 -0.00000000000E+00 -0.00000000000E+00 -0.54670280160E+03  0.54670280163E+03  0.50400000000E-02 0.  1.
    8880023    1    1    2    0    0  0.14982038986E+03 -0.79957713734E+03  0.11148719516E+03  0.10526202301E+04  0.65864270000E+03 0.  0.
    8880022    1    1    2    0    0 -0.14982038986E+03  0.79957713734E+03  0.21736497680E+04  0.23259223364E+04  0.15294330000E+03 0.  0.
<mgrwt>
<rscale>  0 0.98705338E+03</rscale>
<asrwt>0</asrwt>
<pdfrwt beam="1">  1        1 0.43566765E+00 0.10466996E+04</pdfrwt>
<pdfrwt beam="2">  1       -1 0.84108125E-01 0.10466996E+04</pdfrwt>
<totfact> 0.11268447E+00</totfact>
</mgrwt>
</event>
<event>
 4    1  0.1008211E-007  0.7815586E+03  0.7818608E-02  0.9752189E-01
          1   -1    0    0  501    0  0.00000000000E+00  0.00000000000E+00  0.19001014834E+04  0.19001014834E+04  0.50400000000E-02 0. -1.
         -1   -1    0    0    0  501 -0.00000000000E+00 -0.00000000000E+00 -0.69088725601E+03  0.69088725603E+03  0.50400000000E-02 0.  1.
    8880023    1    1    2    0    0 -0.36954026124E+03 -0.20115565677E+03 -0.42979479579E+03  0.89194023100E+03  0.65864270000E+03 0.  0.
    8880022    1    1    2    0    0  0.36954026124E+03  0.20115565677E+03  0.16390090232E+04  0.16990485085E+04  0.15294330000E+03 0.  0.
<mgrwt>
<rscale>  0 0.67992733E+03</rscale>
<asrwt>0</asrwt>
<pdfrwt beam="1">  1        1 0.29232330E+00 0.78155858E+03</pdfrwt>
<pdfrwt beam="2">  1       -1 0.10629035E+00 0.78155858E+03</pdfrwt>
<totfact> 0.30112253E+00</totfact>
</mgrwt>
</event>
<event>
 4    1  0.1008211E-007  0.1065967E+04  0.7818608E-02  0.9299929E-01
          1   -1    0    0  501    0  0.00000000000E+00  0.00000000000E+00  0.26261290701E+04  0.26261290701E+04  0.50400000000E-02 0. -1.
         -1   -1    0    0    0  501 -0.00000000000E+00 -0.00000000000E+00 -0.11812232568E+04  0.11812232568E+04  0.50400000000E-02 0.  1.
    8880023    1    1    2    0    0  0.70174683760E+03 -0.45828607297E+03 -0.84745543192E+03  0.13617876722E+04  0.65864270000E+03 0.  1.
    8880022    1    1    2    0    0 -0.70174683760E+03  0.45828607297E+03  0.22923612452E+04  0.24455646547E+04  0.15294330000E+03 0.  0.
<mgrwt>
<rscale>  0 0.10078939E+04</rscale>
<asrwt>0</asrwt>
<pdfrwt beam="1">  1        1 0.40401985E+00 0.10659667E+04</pdfrwt>
<pdfrwt beam="2">  1       -1 0.18172666E+00 0.10659667E+04</pdfrwt>
<totfact> 0.22580487E-01</totfact>
</mgrwt>
</event>
<event>
 4    1  0.1008211E-007  0.7137005E+03  0.7818608E-02  0.9944508E-01
         -1   -1    0    0    0  501 -0.00000000000E+00  0.00000000000E+00  0.17461652810E+03  0.17461652817E+03  0.50400000000E-02 0.  1.
          1   -1    0    0  501    0  0.00000000000E+00 -0.00000000000E+00 -0.15665293200E+04  0.15665293200E+04  0.50400000000E-02 0. -1.
    8880023    1    1    2    0    0  0.13148066524E+03  0.24139394142E+03 -0.80934657899E+03  0.10790784455E+04  0.65864270000E+03 0.  0.
    8880022    1    1    2    0    0 -0.13148066524E+03 -0.24139394142E+03 -0.58256621291E+03  0.66206740271E+03  0.15294330000E+03 0.  1.
<mgrwt>
<rscale>  0 0.58151898E+03</rscale>
<asrwt>0</asrwt>
<pdfrwt beam="1">  1        1 0.24100450E+00 0.71370050E+03</pdfrwt>
<pdfrwt beam="2">  1       -1 0.26864082E-01 0.71370050E+03</pdfrwt>
<totfact> 0.74917306E+01</totfact>
</mgrwt>
</event>
<event>
 4    1  0.1008211E-007  0.1029375E+04  0.7818608E-02  0.9344096E-01
          1   -1    0    0  501    0  0.00000000000E+00  0.00000000000E+00  0.30602593056E+04  0.30602593056E+04  0.50400000000E-02 0. -1.
         -1   -1    0    0    0  501 -0.00000000000E+00 -0.00000000000E+00 -0.10030050248E+04  0.10030050248E+04  0.50400000000E-02 0.  1.
    8880023    1    1    2    0    0  0.78778142329E+03  0.72135492782E+02 -0.66418695464E+03  0.12250541283E+04  0.65864270000E+03 0.  1.
    8880022    1    1    2    0    0 -0.78778142329E+03 -0.72135492782E+02  0.27214412355E+04  0.28382102021E+04  0.15294330000E+03 0.  0.
<mgrwt>
<rscale>  0 0.96822692E+03</rscale>
<asrwt>0</asrwt>
<pdfrwt beam="1">  1        1 0.47080912E+00 0.10293752E+04</pdfrwt>
<pdfrwt beam="2">  1       -1 0.15430847E+00 0.10293752E+04</pdfrwt>
<totfact> 0.17850025E-01</totfact>
</mgrwt>
</event>
<event>
 4    1  0.1008211E-007  0.7819328E+03  0.7818608E-02  0.9751316E-01
          1   -1    0    0  501    0  0.00000000000E+00  0.00000000000E+00  0.14824879959E+04  0.14824879959E+04  0.50400000000E-02 0. -1.
         -1   -1    0    0    0  501 -0.00000000000E+00 -0.00000000000E+00 -0.47540705945E+03  0.47540705947E+03  0.50400000000E-02 0.  1.
    8880023    1    1    2    0    0 -0.36813528107E+03  0.20514671021E+03 -0.76070944287E+02  0.78562443490E+03  0.65864270000E+03 0.  1.
    8880022    1    1    2    0    0  0.36813528107E+03 -0.20514671021E+03  0.10831518807E+04  0.11722706204E+04  0.15294330000E+03 0.  0.
<mgrwt>
<rscale>  0 0.68041943E+03</rscale>
<asrwt>0</asrwt>
<pdfrwt beam="1">  1        1 0.22807507E+00 0.78193284E+03</pdfrwt>
<pdfrwt beam="2">  1       -1 0.73139548E-01 0.78193284E+03</pdfrwt>
<totfact> 0.13084029E+01</totfact>
</mgrwt>
</event>
<event>
 4    1  0.1008211E-007  0.1391228E+04  0.7818608E-02  0.8990529E-01
         -1   -1    0    0    0  501 -0.00000000000E+00  0.00000000000E+00  0.10503771109E+04  0.10503771109E+04  0.50400000000E-02 0.  1.
          1   -1    0    0  501    0  0.00000000000E+00 -0.00000000000E+00 -0.21673943861E+04  0.21673943861E+04  0.50400000000E-02 0. -1.
    8880023    1    1    2    0    0 -0.88470954108E+03  0.84793496546E+03  0.20776337877E+03  0.14066557879E+04  0.65864270000E+03 0.  1.
    8880022    1    1    2    0    0  0.88470954108E+03 -0.84793496546E+03 -0.13247806540E+04  0.18111157091E+04  0.15294330000E+03 0.  0.
<mgrwt>
<rscale>  0 0.13503951E+04</rscale>
<asrwt>0</asrwt>
<pdfrwt beam="1">  1        1 0.33344529E+00 0.13912278E+04</pdfrwt>
<pdfrwt beam="2">  1       -1 0.16159648E+00 0.13912278E+04</pdfrwt>
<totfact> 0.62571137E-01</totfact>
</mgrwt>
</event>
<event>
 4    1  0.1083229E-007  0.1276755E+04  0.7818608E-02  0.9085898E-01
         -1   -1    0    0    0  501 -0.00000000000E+00  0.00000000000E+00  0.15177895888E+04  0.15177895888E+04  0.50400000000E-02 0.  1.
          1   -1    0    0  501    0  0.00000000000E+00 -0.00000000000E+00 -0.20454533256E+04  0.20454533256E+04  0.50400000000E-02 0. -1.
    8880023    1    1    2    0    0  0.10397068114E+04  0.33956161708E+03  0.10392418005E+04  0.16462460544E+04  0.65864270000E+03 0.  0.
    8880022    1    1    2    0    0 -0.10397068114E+04 -0.33956161708E+03 -0.15669055373E+04  0.19169968600E+04  0.15294330000E+03 0.  0.
<mgrwt>
<rscale>  0 0.12312933E+04</rscale>
<asrwt>0</asrwt>
<pdfrwt beam="1">  1        1 0.31468513E+00 0.12767547E+04</pdfrwt>
<pdfrwt beam="2">  1       -1 0.23350609E+00 0.12767547E+04</pdfrwt>
<totfact> 0.24125715E-01</totfact>
</mgrwt>
</event>
<event>
 4    1  0.1008211E-007  0.8726511E+03  0.7818608E-02  0.9571444E-01
         -1   -1    0    0    0  501 -0.00000000000E+00  0.00000000000E+00  0.55294992856E+03  0.55294992859E+03  0.50400000000E-02 0.  1.
          1   -1    0    0  501    0  0.00000000000E+00 -0.00000000000E+00 -0.17468092006E+04  0.17468092006E+04  0.50400000000E-02 0. -1.
    8880023    1    1    2    0    0  0.50357564421E+03 -0.27225244024E+03  0.98347541444E+02  0.87817553247E+03  0.65864270000E+03 0.  0.
    8880022    1    1    2    0    0 -0.50357564421E+03  0.27225244024E+03 -0.12922068135E+04  0.14215835967E+04  0.15294330000E+03 0.  0.
<mgrwt>
<rscale>  0 0.79215393E+03</rscale>
<asrwt>0</asrwt>
<pdfrwt beam="1">  1        1 0.26873988E+00 0.87265115E+03</pdfrwt>
<pdfrwt beam="2">  1       -1 0.85069220E-01 0.87265115E+03</pdfrwt>
<totfact> 0.62038818E+00</totfact>
</mgrwt>
</event>
<event>
 4    1  0.1008211E-007  0.1219793E+04  0.7818608E-02  0.9138118E-01
         -1   -1    0    0    0  501 -0.00000000000E+00  0.00000000000E+00  0.89593184221E+03  0.89593184222E+03  0.50400000000E-02 0.  1.
          1   -1    0    0  501    0  0.00000000000E+00 -0.00000000000E+00 -0.21799286866E+04  0.21799286866E+04  0.50400000000E-02 0. -1.
    8880023    1    1    2    0    0 -0.10151684720E+04 -0.15335479932E+03  0.22891910139E+03  0.12410877819E+04  0.65864270000E+03 0.  0.
    8880022    1    1    2    0    0  0.10151684720E+04  0.15335479932E+03 -0.15129159457E+04  0.18347727469E+04  0.15294330000E+03 0.  0.
<mgrwt>
<rscale>  0 0.11715628E+04</rscale>
<asrwt>0</asrwt>
<pdfrwt beam="1">  1        1 0.33537364E+00 0.12197930E+04</pdfrwt>
<pdfrwt beam="2">  1       -1 0.13783567E+00 0.12197930E+04</pdfrwt>
<totfact> 0.96401062E-01</totfact>
</mgrwt>
</event>
<event>
 4    1  0.1008211E-007  0.8654174E+03  0.7818608E-02  0.9583999E-01
         -1   -1    0    0    0  501 -0.00000000000E+00  0.00000000000E+00  0.65318665644E+03  0.65318665646E+03  0.50400000000E-02 0.  1.
          1   -1    0    0  501    0  0.00000000000E+00 -0.00000000000E+00 -0.36137983076E+04  0.36137983076E+04  0.50400000000E-02 0. -1.
    8880023    1    1    2    0    0 -0.43709402636E+03 -0.35225824304E+03  0.32935122186E+03  0.92596948722E+03  0.65864270000E+03 0.  1.
    8880022    1    1    2    0    0  0.43709402636E+03  0.35225824304E+03 -0.32899628730E+04  0.33410154769E+04  0.15294330000E+03 0.  0.
<mgrwt>
<rscale>  0 0.78364371E+03</rscale>
<asrwt>0</asrwt>
<pdfrwt beam="1">  1        1 0.55596896E+00 0.86541739E+03</pdfrwt>
<pdfrwt beam="2">  1       -1 0.10049026E+00 0.86541739E+03</pdfrwt>
<totfact> 0.20499326E-01</totfact>
</mgrwt>
</event>
<event>
 4    1  0.1008211E-007  0.1209852E+04  0.7818608E-02  0.9147605E-01
         -1   -1    0    0    0  501 -0.00000000000E+00  0.00000000000E+00  0.94716634484E+03  0.94716634485E+03  0.50400000000E-02 0.  1.
          1   -1    0    0  501    0  0.00000000000E+00 -0.00000000000E+00 -0.23851260006E+04  0.23851260006E+04  0.50400000000E-02 0. -1.
    8880023    1    1    2    0    0  0.41344901251E+03  0.92681780236E+03  0.35978736089E+03  0.12622157011E+04  0.65864270000E+03 0.  0.
    8880022    1    1    2    0    0 -0.41344901251E+03 -0.92681780236E+03 -0.17977470167E+04  0.20700766444E+04  0.15294330000E+03 0.  0.
<mgrwt>
<rscale>  0 0.11610992E+04</rscale>
<asrwt>0</asrwt>
<pdfrwt beam="1">  1        1 0.36694246E+00 0.12098519E+04</pdfrwt>
<pdfrwt beam="2">  1       -1 0.14571790E+00 0.12098519E+04</pdfrwt>
<totfact> 0.60396028E-01</totfact>
</mgrwt>
</event>
<event>
 4    1  0.1008211E-007  0.1059577E+04  0.7818608E-02  0.9307456E-01
          1   -1    0    0  501    0  0.00000000000E+00  0.00000000000E+00  0.20968058650E+04  0.20968058650E+04  0.50400000000E-02 0. -1.
         -1   -1    0    0    0  501 -0.00000000000E+00 -0.00000000000E+00 -0.12652616056E+04  0.12652616056E+04  0.50400000000E-02 0.  1.
    8880023    1    1    2    0    0  0.67203407683E+03  0.48709709208E+03 -0.92933279933E+03  0.14093839206E+04  0.65864270000E+03 0.  0.
    8880022    1    1    2    0    0 -0.67203407683E+03 -0.48709709208E+03  0.17608770587E+04  0.19526835500E+04  0.15294330000E+03 0.  0.
<mgrwt>
<rscale>  0 0.10009932E+04</rscale>
<asrwt>0</asrwt>
<pdfrwt beam="1">  1        1 0.32258552E+00 0.10595771E+04</pdfrwt>
<pdfrwt beam="2">  1       -1 0.19465563E+00 0.10595771E+04</pdfrwt>
<totfact> 0.42133967E-01</totfact>
</mgrwt>
</event>
<event>
 4    1  0.1008211E-007  0.1566090E+04  0.7818608E-02  0.8864324E-01
          1   -1    0    0  501    0  0.00000000000E+00  0.00000000000E+00  0.26657908815E+04  0.26657908815E+04  0.50400000000E-02 0. -1.
         -1   -1    0    0    0  501 -0.00000000000E+00 -0.00000000000E+00 -0.10675642311E+04  0.10675642311E+04  0.50400000000E-02 0.  1.
    8880023    1    1    2    0    0 -0.11750457061E+04 -0.79880908097E+03 -0.30733210489E+02  0.15663917441E+04  0.65864270000E+03 0.  0.
    8880022    1    1    2    0    0  0.11750457061E+04  0.79880908097E+03  0.16289598609E+04  0.21669633686E+04  0.15294330000E+03 0.  0.
<mgrwt>
<rscale>  0 0.15306482E+04</rscale>
<asrwt>0</asrwt>
<pdfrwt beam="1">  1        1 0.41012168E+00 0.15660902E+04</pdfrwt>
<pdfrwt beam="2">  1       -1 0.16424065E+00 0.15660902E+04</pdfrwt>
<totfact> 0.26523360E-01</totfact>
</mgrwt>
</event>
<event>
 4    1  0.1061251E-007  0.8136901E+03  0.7818608E-02  0.9681941E-01
         -1   -1    0    0    0  501 -0.00000000000E+00  0.00000000000E+00  0.14440402267E+04  0.14440402267E+04  0.50400000000E-02 0.  1.
          1   -1    0    0  501    0  0.00000000000E+00 -0.00000000000E+00 -0.17617281279E+04  0.17617281279E+04  0.50400000000E-02 0. -1.
    8880023    1    1    2    0    0 -0.47490471428E+03  0.52410921531E+02  0.12880228741E+04  0.15235138735E+04  0.65864270000E+03 0.  0.
    8880022    1    1    2    0    0  0.47490471428E+03 -0.52410921531E+02 -0.16057107753E+04  0.16822544811E+04  0.15294330000E+03 0.  0.
<mgrwt>
<rscale>  0 0.72102258E+03</rscale>
<asrwt>0</asrwt>
<pdfrwt beam="1">  1        1 0.27103510E+00 0.81369011E+03</pdfrwt>
<pdfrwt beam="2">  1       -1 0.22216003E+00 0.81369011E+03</pdfrwt>
<totfact> 0.48239998E-01</totfact>
</mgrwt>
</event>
<event>
 4    1  0.1008211E-007  0.6732646E+03  0.7818608E-02  0.1013423E+00
          1   -1    0    0  501    0  0.00000000000E+00  0.00000000000E+00  0.29912076240E+03  0.29912076244E+03  0.50400000000E-02 0. -1.
         -1   -1    0    0    0  501 -0.00000000000E+00 -0.00000000000E+00 -0.88550016926E+03  0.88550016927E+03  0.50400000000E-02 0.  1.
    8880023    1    1    2    0    0  0.13454582454E+03  0.37047169369E+02 -0.68042787456E+03  0.95721855937E+03  0.65864270000E+03 0.  0.
    8880022    1    1    2    0    0 -0.13454582454E+03 -0.37047169369E+02  0.94048467700E+02  0.22740237235E+03  0.15294330000E+03 0.  0.
<mgrwt>
<rscale>  0 0.50136544E+03</rscale>
<asrwt>0</asrwt>
<pdfrwt beam="1">  1        1 0.46018579E-01 0.67326464E+03</pdfrwt>
<pdfrwt beam="2">  1       -1 0.13623079E+00 0.67326464E+03</pdfrwt>
<totfact> 0.40718200E+01</totfact>
</mgrwt>
</event>
<event>
 4    1  0.1008211E-007  0.9519218E+03  0.7818608E-02  0.9447354E-01
         -1   -1    0    0    0  501 -0.00000000000E+00  0.00000000000E+00  0.76048846626E+03  0.76048846628E+03  0.50400000000E-02 0.  1.
          1   -1    0    0  501    0  0.00000000000E+00 -0.00000000000E+00 -0.23404389556E+04  0.23404389556E+04  0.50400000000E-02 0. -1.
    8880023    1    1    2    0    0 -0.58572930344E+03 -0.35953589222E+03  0.37494560444E+03  0.10231027745E+04  0.65864270000E+03 0.  1.
    8880022    1    1    2    0    0  0.58572930344E+03  0.35953589222E+03 -0.19548960938E+04  0.20778246474E+04  0.15294330000E+03 0.  0.
<mgrwt>
<rscale>  0 0.88278981E+03</rscale>
<asrwt>0</asrwt>
<pdfrwt beam="1">  1        1 0.36006753E+00 0.95192178E+03</pdfrwt>
<pdfrwt beam="2">  1       -1 0.11699823E+00 0.95192178E+03</pdfrwt>
<totfact> 0.11770759E+00</totfact>
</mgrwt>
</event>
<event>
 4    1  0.1008211E-007  0.9536929E+03  0.7818608E-02  0.9444821E-01
         -1   -1    0    0    0  501 -0.00000000000E+00  0.00000000000E+00  0.26663697306E+04  0.26663697306E+04  0.50400000000E-02 0.  1.
          1   -1    0    0  501    0  0.00000000000E+00 -0.00000000000E+00 -0.45911822708E+03  0.45911822711E+03  0.50400000000E-02 0. -1.
    8880023    1    1    2    0    0 -0.10916596146E+03  0.68103070384E+03  0.22228899927E+04  0.24188365288E+04  0.65864270000E+03 0.  0.
    8880022    1    1    2    0    0  0.10916596146E+03 -0.68103070384E+03 -0.15638489217E+02  0.70665142897E+03  0.15294330000E+03 0.  0.
<mgrwt>
<rscale>  0 0.88477154E+03</rscale>
<asrwt>0</asrwt>
<pdfrwt beam="1">  1        1 0.70633575E-01 0.95369294E+03</pdfrwt>
<pdfrwt beam="2">  1       -1 0.41021072E+00 0.95369294E+03</pdfrwt>
<totfact> 0.31382387E-01</totfact>
</mgrwt>
</event>
<event>
 4    1  0.1008211E-007  0.1294038E+04  0.7818608E-02  0.9070726E-01
          1   -1    0    0  501    0  0.00000000000E+00  0.00000000000E+00  0.12524813217E+04  0.12524813217E+04  0.50400000000E-02 0. -1.
         -1   -1    0    0    0  501 -0.00000000000E+00 -0.00000000000E+00 -0.12867774321E+04  0.12867774321E+04  0.50400000000E-02 0.  1.
    8880023    1    1    2    0    0  0.11108893650E+04  0.81542445884E+02 -0.40411380804E+03  0.13556705086E+04  0.65864270000E+03 0.  1.
    8880022    1    1    2    0    0 -0.11108893650E+04 -0.81542445884E+02  0.36981769767E+03  0.11835882452E+04  0.15294330000E+03 0. -1.
<mgrwt>
<rscale>  0 0.12493487E+04</rscale>
<asrwt>0</asrwt>
<pdfrwt beam="1">  1        1 0.19268943E+00 0.12940381E+04</pdfrwt>
<pdfrwt beam="2">  1       -1 0.19796576E+00 0.12940381E+04</pdfrwt>
<totfact> 0.14754546E+00</totfact>
</mgrwt>
</event>
<event>
 4    1  0.1008211E-007  0.1016111E+04  0.7818608E-02  0.9360776E-01
          1   -1    0    0  501    0  0.00000000000E+00  0.00000000000E+00  0.15885005414E+04  0.15885005414E+04  0.50400000000E-02 0. -1.
         -1   -1    0    0    0  501 -0.00000000000E+00 -0.00000000000E+00 -0.88629419310E+03  0.88629419311E+03  0.50400000000E-02 0.  1.
    8880023    1    1    2    0    0  0.77278683975E+03 -0.38374649107E+02 -0.42304370135E+03  0.11006581181E+04  0.65864270000E+03 0.  1.
    8880022    1    1    2    0    0 -0.77278683975E+03  0.38374649107E+02  0.11252500496E+04  0.13741366164E+04  0.15294330000E+03 0.  0.
<mgrwt>
<rscale>  0 0.95375175E+03</rscale>
<asrwt>0</asrwt>
<pdfrwt beam="1">  1        1 0.24438470E+00 0.10161114E+04</pdfrwt>
<pdfrwt beam="2">  1       -1 0.13635295E+00 0.10161114E+04</pdfrwt>
<totfact> 0.25616802E+00</totfact>
</mgrwt>
</event>
<event>
 4    1  0.1008211E-007  0.7019551E+03  0.7818608E-02  0.9989186E-01
         -1   -1    0    0    0  501 -0.00000000000E+00  0.00000000000E+00  0.55196728975E+03  0.55196728977E+03  0.50400000000E-02 0.  1.
          1   -1    0    0  501    0  0.00000000000E+00 -0.00000000000E+00 -0.71410313682E+03  0.71410313684E+03  0.50400000000E-02 0. -1.
    8880023    1    1    2    0    0 -0.94739651440E+02 -0.22350634516E+03  0.26601705100E+03  0.75067034413E+03  0.65864270000E+03 0.  1.
    8880022    1    1    2    0    0  0.94739651440E+02  0.22350634516E+03 -0.42815289807E+03  0.51540008248E+03  0.15294330000E+03 0.  0.
<mgrwt>
<rscale>  0 0.56126982E+03</rscale>
<asrwt>0</asrwt>
<pdfrwt beam="1">  1        1 0.10986202E+00 0.70195505E+03</pdfrwt>
<pdfrwt beam="2">  1       -1 0.84918044E-01 0.70195505E+03</pdfrwt>
<totfact> 0.37303202E+01</totfact>
</mgrwt>
</event>
<event>
 4    1  0.1008211E-007  0.7945187E+03  0.7818608E-02  0.9722775E-01
          1   -1    0    0  501    0  0.00000000000E+00  0.00000000000E+00  0.21596804661E+04  0.21596804661E+04  0.50400000000E-02 0. -1.
         -1   -1    0    0    0  501 -0.00000000000E+00 -0.00000000000E+00 -0.22847993984E+03  0.22847993990E+03  0.50400000000E-02 0.  1.
    8880023    1    1    2    0    0 -0.28963696789E+03 -0.33698691577E+03  0.66003944183E+03  0.10329143360E+04  0.65864270000E+03 0.  1.
    8880022    1    1    2    0    0  0.28963696789E+03  0.33698691577E+03  0.12711610844E+04  0.13552460700E+04  0.15294330000E+03 0. -1.
<mgrwt>
<rscale>  0 0.69676793E+03</rscale>
<asrwt>0</asrwt>
<pdfrwt beam="1">  1        1 0.33225853E+00 0.79451870E+03</pdfrwt>
<pdfrwt beam="2">  1       -1 0.35150760E-01 0.79451870E+03</pdfrwt>
<totfact> 0.18533212E+01</totfact>
</mgrwt>
</event>
<event>
 4    1  0.1008211E-007  0.1188325E+04  0.7818608E-02  0.9168556E-01
         -1   -1    0    0    0  501 -0.00000000000E+00  0.00000000000E+00  0.87646165261E+03  0.87646165263E+03  0.50400000000E-02 0.  1.
          1   -1    0    0  501    0  0.00000000000E+00 -0.00000000000E+00 -0.18343032020E+04  0.18343032020E+04  0.50400000000E-02 0. -1.
    8880023    1    1    2    0    0  0.93995734155E+03 -0.30787347870E+03  0.17275418349E+03  0.12008164293E+04  0.65864270000E+03 0.  0.
    8880022    1    1    2    0    0 -0.93995734155E+03  0.30787347870E+03 -0.11305957329E+04  0.15099484253E+04  0.15294330000E+03 0.  0.
<mgrwt>
<rscale>  0 0.11383963E+04</rscale>
<asrwt>0</asrwt>
<pdfrwt beam="1">  1        1 0.28220049E+00 0.11883249E+04</pdfrwt>
<pdfrwt beam="2">  1       -1 0.13484025E+00 0.11883249E+04</pdfrwt>
<totfact> 0.17557313E+00</totfact>
</mgrwt>
</event>
<event>
 4    1  0.1008211E-007  0.1024376E+04  0.7818608E-02  0.9350339E-01
         -1   -1    0    0    0  501 -0.00000000000E+00  0.00000000000E+00  0.28153414460E+04  0.28153414460E+04  0.50400000000E-02 0.  1.
          1   -1    0    0  501    0  0.00000000000E+00 -0.00000000000E+00 -0.15129996337E+04  0.15129996337E+04  0.50400000000E-02 0. -1.
    8880023    1    1    2    0    0 -0.73594855804E+03 -0.27187519157E+03  0.26054599478E+04  0.27996014262E+04  0.65864270000E+03 0.  1.
    8880022    1    1    2    0    0  0.73594855804E+03  0.27187519157E+03 -0.13031181356E+04  0.15287396535E+04  0.15294330000E+03 0.  0.
<mgrwt>
<rscale>  0 0.96277788E+03</rscale>
<asrwt>0</asrwt>
<pdfrwt beam="1">  1        1 0.23276918E+00 0.10243762E+04</pdfrwt>
<pdfrwt beam="2">  1       -1 0.43312945E+00 0.10243762E+04</pdfrwt>
<totfact> 0.27787448E-02</totfact>
</mgrwt>
</event>
<event>
 4    1  0.1008211E-007  0.9238319E+03  0.7818608E-02  0.9488808E-01
         -1   -1    0    0    0  501 -0.00000000000E+00  0.00000000000E+00  0.13978866968E+04  0.13978866968E+04  0.50400000000E-02 0.  1.
          1   -1    0    0  501    0  0.00000000000E+00 -0.00000000000E+00 -0.46308943052E+03  0.46308943055E+03  0.50400000000E-02 0. -1.
    8880023    1    1    2    0    0 -0.59598753171E+03 -0.25387811617E+03  0.68478029962E+03  0.11499519559E+04  0.65864270000E+03 0.  1.
    8880022    1    1    2    0    0  0.59598753171E+03  0.25387811617E+03  0.25001696668E+03  0.71102417150E+03  0.15294330000E+03 0.  0.
<mgrwt>
<rscale>  0 0.85113988E+03</rscale>
<asrwt>0</asrwt>
<pdfrwt beam="1">  1        1 0.71244528E-01 0.92383193E+03</pdfrwt>
<pdfrwt beam="2">  1       -1 0.21505949E+00 0.92383193E+03</pdfrwt>
<totfact> 0.59309547E+00</totfact>
</mgrwt>
</event>
<event>
 4    1  0.1008211E-007  0.7426173E+03  0.7818608E-02  0.9852388E-01
         -1   -1    0    0    0  501 -0.00000000000E+00  0.00000000000E+00  0.23471095748E+03  0.23471095753E+03  0.50400000000E-02 0.  1.
          1   -1    0    0  501    0  0.00000000000E+00 -0.00000000000E+00 -0.16900406178E+04  0.16900406178E+04  0.50400000000E-02 0. -1.
    8880023    1    1    2    0    0 -0.26820522166E+03 -0.21386032953E+03 -0.49204225122E+03  0.89083447661E+03  0.65864270000E+03 0.  1.
    8880022    1    1    2    0    0  0.26820522166E+03  0.21386032953E+03 -0.96328740906E+03  0.10339170987E+04  0.15294330000E+03 0.  0.
<mgrwt>
<rscale>  0 0.62625331E+03</rscale>
<asrwt>0</asrwt>
<pdfrwt beam="1">  1        1 0.26000624E+00 0.74261732E+03</pdfrwt>
<pdfrwt beam="2">  1       -1 0.36109379E-01 0.74261732E+03</pdfrwt>
<totfact> 0.36696543E+01</totfact>
</mgrwt>
</event>
<event>
 4    1  0.1008211E-007  0.1334727E+04  0.7818608E-02  0.9036136E-01
          1   -1    0    0  501    0  0.00000000000E+00  0.00000000000E+00  0.31828830506E+04  0.31828830506E+04  0.50400000000E-02 0. -1.
         -1   -1    0    0    0  501 -0.00000000000E+00 -0.00000000000E+00 -0.73710255218E+03  0.73710255220E+03  0.50400000000E-02 0.  1.
    8880023    1    1    2    0    0 -0.67355963251E+03  0.94551816699E+03  0.15037375209E+03  0.13431714910E+04  0.65864270000E+03 0.  1.
    8880022    1    1    2    0    0  0.67355963251E+03 -0.94551816699E+03  0.22954067463E+04  0.25768141118E+04  0.15294330000E+03 0.  0.
<mgrwt>
<rscale>  0 0.12917464E+04</rscale>
<asrwt>0</asrwt>
<pdfrwt beam="1">  1        1 0.48967431E+00 0.13347275E+04</pdfrwt>
<pdfrwt beam="2">  1       -1 0.11340039E+00 0.13347275E+04</pdfrwt>
<totfact> 0.30414088E-01</totfact>
</mgrwt>
</event>
<event>
 4    1  0.1008211E-007  0.8201320E+03  0.7818608E-02  0.9668847E-01
          1   -1    0    0  501    0  0.00000000000E+00  0.00000000000E+00  0.10783824997E+04  0.10783824997E+04  0.50400000000E-02 0. -1.
         -1   -1    0    0    0  501 -0.00000000000E+00 -0.00000000000E+00 -0.10290401266E+04  0.10290401266E+04  0.50400000000E-02 0.  1.
    8880023    1    1    2    0    0  0.32520579033E+03 -0.36475665152E+03 -0.78059718395E+03  0.11322315977E+04  0.65864270000E+03 0.  0.
    8880022    1    1    2    0    0 -0.32520579033E+03  0.36475665152E+03  0.82993955708E+03  0.97519102862E+03  0.15294330000E+03 0.  0.
<mgrwt>
<rscale>  0 0.72902336E+03</rscale>
<asrwt>0</asrwt>
<pdfrwt beam="1">  1        1 0.16590500E+00 0.82013196E+03</pdfrwt>
<pdfrwt beam="2">  1       -1 0.15831387E+00 0.82013196E+03</pdfrwt>
<totfact> 0.40707228E+00</totfact>
</mgrwt>
</event>
<event>
 4    1  0.1008211E-007  0.6709708E+03  0.7818608E-02  0.1014976E+00
         -1   -1    0    0    0  501 -0.00000000000E+00  0.00000000000E+00  0.68266417993E+03  0.68266417994E+03  0.50400000000E-02 0.  1.
          1   -1    0    0  501    0  0.00000000000E+00 -0.00000000000E+00 -0.53539860759E+03  0.53539860761E+03  0.50400000000E-02 0. -1.
    8880023    1    1    2    0    0 -0.12486422885E+03  0.28294151355E+02  0.48356364675E+03  0.82706447232E+03  0.65864270000E+03 0.  1.
    8880022    1    1    2    0    0  0.12486422885E+03 -0.28294151355E+02 -0.33629807441E+03  0.39099831524E+03  0.15294330000E+03 0. -1.
<mgrwt>
<rscale>  0 0.49543913E+03</rscale>
<asrwt>0</asrwt>
<pdfrwt beam="1">  1        1 0.82369017E-01 0.67097082E+03</pdfrwt>
<pdfrwt beam="2">  1       -1 0.10502526E+00 0.67097082E+03</pdfrwt>
<totfact> 0.35356763E+01</totfact>
</mgrwt>
</event>
<event>
 4    1  0.1008211E-007  0.8079399E+03  0.7818608E-02  0.9693884E-01
         -1   -1    0    0    0  501 -0.00000000000E+00  0.00000000000E+00  0.32876214996E+03  0.32876215000E+03  0.50400000000E-02 0.  1.
          1   -1    0    0  501    0  0.00000000000E+00 -0.00000000000E+00 -0.25580692902E+04  0.25580692902E+04  0.50400000000E-02 0. -1.
    8880023    1    1    2    0    0 -0.75942665057E+02  0.46172434941E+03 -0.24779917244E+03  0.84508656322E+03  0.65864270000E+03 0.  0.
    8880022    1    1    2    0    0  0.75942665057E+02 -0.46172434941E+03 -0.19815079678E+04  0.20417448770E+04  0.15294330000E+03 0.  0.
<mgrwt>
<rscale>  0 0.71382095E+03</rscale>
<asrwt>0</asrwt>
<pdfrwt beam="1">  1        1 0.39354911E+00 0.80793989E+03</pdfrwt>
<pdfrwt beam="2">  1       -1 0.50578794E-01 0.80793989E+03</pdfrwt>
<totfact> 0.50844426E+00</totfact>
</mgrwt>
</event>
<event>
 4    1  0.1008211E-007  0.1012503E+04  0.7818608E-02  0.9365379E-01
          1   -1    0    0  501    0  0.00000000000E+00  0.00000000000E+00  0.18761661167E+04  0.18761661167E+04  0.50400000000E-02 0. -1.
         -1   -1    0    0    0  501 -0.00000000000E+00 -0.00000000000E+00 -0.46459004249E+03  0.46459004252E+03  0.50400000000E-02 0.  1.
    8880023    1    1    2    0    0  0.72588497988E+03 -0.25385822528E+03  0.11054395999E+04  0.14990530070E+04  0.65864270000E+03 0.  0.
    8880022    1    1    2    0    0 -0.72588497988E+03  0.25385822528E+03  0.30613647437E+03  0.84170315225E+03  0.15294330000E+03 0.  0.
<mgrwt>
<rscale>  0 0.94980450E+03</rscale>
<asrwt>0</asrwt>
<pdfrwt beam="1">  1        1 0.28864094E+00 0.10125034E+04</pdfrwt>
<pdfrwt beam="2">  1       -1 0.71475391E-01 0.10125034E+04</pdfrwt>
<totfact> 0.72066383E+00</totfact>
</mgrwt>
</event>
<event>
 4    1  0.1008211E-007  0.7328345E+03  0.7818608E-02  0.9881334E-01
          1   -1    0    0  501    0  0.00000000000E+00  0.00000000000E+00  0.10841850858E+04  0.10841850858E+04  0.50400000000E-02 0. -1.
         -1   -1    0    0    0  501 -0.00000000000E+00 -0.00000000000E+00 -0.72188860740E+03  0.72188860742E+03  0.50400000000E-02 0.  1.
    8880023    1    1    2    0    0 -0.30224217368E+03 -0.10902214736E+03 -0.49061839765E+03  0.88190293034E+03  0.65864270000E+03 0.  1.
    8880022    1    1    2    0    0  0.30224217368E+03  0.10902214736E+03  0.85291487608E+03  0.92417076291E+03  0.15294330000E+03 0.  0.
<mgrwt>
<rscale>  0 0.61174518E+03</rscale>
<asrwt>0</asrwt>
<pdfrwt beam="1">  1        1 0.16679771E+00 0.73283447E+03</pdfrwt>
<pdfrwt beam="2">  1       -1 0.11105979E+00 0.73283447E+03</pdfrwt>
<totfact> 0.10071565E+01</totfact>
</mgrwt>
</event>
<event>
 4    1  0.1008211E-007  0.1007258E+04  0.7818608E-02  0.9372123E-01
         -1   -1    0    0    0  501 -0.00000000000E+00  0.00000000000E+00  0.66621265027E+03  0.66621265029E+03  0.50400000000E-02 0.  1.
          1   -1    0    0  501    0  0.00000000000E+00 -0.00000000000E+00 -0.28421664859E+04  0.28421664859E+04  0.50400000000E-02 0. -1.
    8880023    1    1    2    0    0  0.68330580109E+03 -0.33741893424E+03  0.18381736454E+03  0.10238932487E+04  0.65864270000E+03 0.  1.
    8880022    1    1    2    0    0 -0.68330580109E+03  0.33741893424E+03 -0.23597712001E+04  0.24844858874E+04  0.15294330000E+03 0.  0.
<mgrwt>
<rscale>  0 0.94405788E+03</rscale>
<asrwt>0</asrwt>
<pdfrwt beam="1">  1        1 0.43725638E+00 0.10072579E+04</pdfrwt>
<pdfrwt beam="2">  1       -1 0.10249426E+00 0.10072579E+04</pdfrwt>
<totfact> 0.71660098E-01</totfact>
</mgrwt>
</event>
<event>
 4    1  0.1008211E-007  0.1373358E+04  0.7818608E-02  0.9004666E-01
         -1   -1    0    0    0  501 -0.00000000000E+00  0.00000000000E+00  0.11607476807E+04  0.11607476807E+04  0.50400000000E-02 0.  1.
          1   -1    0    0  501    0  0.00000000000E+00 -0.00000000000E+00 -0.17509623742E+04  0.17509623742E+04  0.50400000000E-02 0. -1.
    8880023    1    1    2    0    0  0.24895776517E+03 -0.11791186796E+04  0.29990284890E+03  0.14057214356E+04  0.65864270000E+03 0.  0.
    8880022    1    1    2    0    0 -0.24895776517E+03  0.11791186796E+04 -0.89011754243E+03  0.15059886194E+04  0.15294330000E+03 0.  0.
<mgrwt>
<rscale>  0 0.13318711E+04</rscale>
<asrwt>0</asrwt>
<pdfrwt beam="1">  1        1 0.26937883E+00 0.13733576E+04</pdfrwt>
<pdfrwt beam="2">  1       -1 0.17857656E+00 0.13733576E+04</pdfrwt>
<totfact> 0.90058197E-01</totfact>
</mgrwt>
</event>
<event>
 4    1  0.1008211E-007  0.7307975E+03  0.7818608E-02  0.9887613E-01
         -1   -1    0    0    0  501 -0.00000000000E+00  0.00000000000E+00  0.74566095288E+03  0.74566095290E+03  0.50400000000E-02 0.  1.
          1   -1    0    0  501    0  0.00000000000E+00 -0.00000000000E+00 -0.52542922101E+03  0.52542922103E+03  0.50400000000E-02 0. -1.
    8880023    1    1    2    0    0 -0.31377685223E+03  0.42413559683E+02  0.44323371499E+03  0.85470530325E+03  0.65864270000E+03 0.  0.
    8880022    1    1    2    0    0  0.31377685223E+03 -0.42413559683E+02 -0.22300198312E+03  0.41638487068E+03  0.15294330000E+03 0. -1.
<mgrwt>
<rscale>  0 0.60865406E+03</rscale>
<asrwt>0</asrwt>
<pdfrwt beam="1">  1        1 0.80835265E-01 0.73079753E+03</pdfrwt>
<pdfrwt beam="2">  1       -1 0.11471707E+00 0.73079753E+03</pdfrwt>
<totfact> 0.29307102E+01</totfact>
</mgrwt>
</event>
<event>
 4    1  0.1008211E-007  0.1260780E+04  0.7818608E-02  0.9100191E-01
         -1   -1    0    0    0  501 -0.00000000000E+00  0.00000000000E+00  0.76456888484E+03  0.76456888486E+03  0.50400000000E-02 0.  1.
          1   -1    0    0  501    0  0.00000000000E+00 -0.00000000000E+00 -0.25652717851E+04  0.25652717851E+04  0.50400000000E-02 0. -1.
    8880023    1    1    2    0    0 -0.68568590918E+03  0.82800394033E+03 -0.40246099198E+02  0.12614220729E+04  0.65864270000E+03 0.  0.
    8880022    1    1    2    0    0  0.68568590918E+03 -0.82800394033E+03 -0.17604568011E+04  0.20684185971E+04  0.15294330000E+03 0.  0.
<mgrwt>
<rscale>  0 0.12145781E+04</rscale>
<asrwt>0</asrwt>
<pdfrwt beam="1">  1        1 0.39465719E+00 0.12607799E+04</pdfrwt>
<pdfrwt beam="2">  1       -1 0.11762598E+00 0.12607799E+04</pdfrwt>
<totfact> 0.77841667E-01</totfact>
</mgrwt>
</event>
<event>
 4    1  0.1008211E-007  0.9500675E+03  0.7818608E-02  0.9450017E-01
          1   -1    0    0  501    0  0.00000000000E+00  0.00000000000E+00  0.25267706852E+04  0.25267706852E+04  0.50400000000E-02 0. -1.
         -1   -1    0    0    0  501 -0.00000000000E+00 -0.00000000000E+00 -0.55658845265E+03  0.55658845268E+03  0.50400000000E-02 0.  1.
    8880023    1    1    2    0    0 -0.63592992063E+03  0.25379365288E+03 -0.43396166046E+02  0.95105810321E+03  0.65864270000E+03 0.  0.
    8880022    1    1    2    0    0  0.63592992063E+03 -0.25379365288E+03  0.20135783986E+04  0.21323010347E+04  0.15294330000E+03 0.  0.
<mgrwt>
<rscale>  0 0.88071345E+03</rscale>
<asrwt>0</asrwt>
<pdfrwt beam="1">  1        1 0.38873396E+00 0.95006752E+03</pdfrwt>
<pdfrwt beam="2">  1       -1 0.85628992E-01 0.95006752E+03</pdfrwt>
<totfact> 0.17962756E+00</totfact>
</mgrwt>
</event>
<event>
 4    1  0.1008211E-007  0.1909221E+04  0.7818608E-02  0.8664410E-01
          1   -1    0    0  501    0  0.00000000000E+00  0.00000000000E+00  0.38522575091E+04  0.38522575092E+04  0.50400000000E-02 0. -1.
         -1   -1    0    0    0  501 -0.00000000000E+00 -0.00000000000E+00 -0.18764526042E+04  0.18764526042E+04  0.50400000000E-02 0.  1.
    8880023    1    1    2    0    0 -0.61070260172E+03  0.16847429394E+04 -0.10721608766E+04  0.21896702014E+04  0.65864270000E+03 0.  0.
    8880022    1    1    2    0    0  0.61070260172E+03 -0.16847429394E+04  0.30479657815E+04  0.35390399119E+04  0.15294330000E+03 0.  0.
<mgrwt>
<rscale>  0 0.18809256E+04</rscale>
<asrwt>0</asrwt>
<pdfrwt beam="1">  1        1 0.59265499E+00 0.19092215E+04</pdfrwt>
<pdfrwt beam="2">  1       -1 0.28868502E+00 0.19092215E+04</pdfrwt>
<totfact> 0.45160679E-03</totfact>
</mgrwt>
</event>
<event>
 4    1  0.1008211E-007  0.6906497E+03  0.7818608E-02  0.1003845E+00
          1   -1    0    0  501    0  0.00000000000E+00  0.00000000000E+00  0.61568850044E+03  0.61568850046E+03  0.50400000000E-02 0. -1.
         -1   -1    0    0    0  501 -0.00000000000E+00 -0.00000000000E+00 -0.20708793135E+04  0.20708793135E+04  0.50400000000E-02 0.  1.
    8880023    1    1    2    0    0 -0.15444867045E+03 -0.13904119938E+03 -0.19825841555E+04  0.20994373024E+04  0.65864270000E+03 0.  1.
    8880022    1    1    2    0    0  0.15444867045E+03  0.13904119938E+03  0.52739334243E+03  0.58713051154E+03  0.15294330000E+03 0.  0.
<mgrwt>
<rscale>  0 0.53995819E+03</rscale>
<asrwt>0</asrwt>
<pdfrwt beam="1">  1        1 0.94721308E-01 0.69064973E+03</pdfrwt>
<pdfrwt beam="2">  1       -1 0.31859682E+00 0.69064973E+03</pdfrwt>
<totfact> 0.88430380E-01</totfact>
</mgrwt>
</event>
<event>
 4    1  0.1008211E-007  0.8636535E+03  0.7818608E-02  0.9587097E-01
         -1   -1    0    0    0  501 -0.00000000000E+00  0.00000000000E+00  0.12492063963E+04  0.12492063963E+04  0.50400000000E-02 0.  1.
          1   -1    0    0  501    0  0.00000000000E+00 -0.00000000000E+00 -0.10416475722E+04  0.10416475722E+04  0.50400000000E-02 0. -1.
    8880023    1    1    2    0    0 -0.54649410360E+03  0.11589392565E+03  0.99230183873E+03  0.13155076407E+04  0.65864270000E+03 0.  1.
    8880022    1    1    2    0    0  0.54649410360E+03 -0.11589392565E+03 -0.78474301464E+03  0.97534632788E+03  0.15294330000E+03 0.  0.
<mgrwt>
<rscale>  0 0.78156087E+03</rscale>
<asrwt>0</asrwt>
<pdfrwt beam="1">  1        1 0.16025347E+00 0.86365353E+03</pdfrwt>
<pdfrwt beam="2">  1       -1 0.19218560E+00 0.86365353E+03</pdfrwt>
<totfact> 0.24512134E+00</totfact>
</mgrwt>
</event>
<event>
 4    1  0.1008211E-007  0.1156857E+04  0.7818608E-02  0.9200245E-01
          1   -1    0    0  501    0  0.00000000000E+00  0.00000000000E+00  0.42983050073E+03  0.42983050076E+03  0.50400000000E-02 0. -1.
         -1   -1    0    0    0  501 -0.00000000000E+00 -0.00000000000E+00 -0.31520636789E+04  0.31520636789E+04  0.50400000000E-02 0.  1.
    8880023    1    1    2    0    0  0.91176350211E+03 -0.27054763138E+03 -0.22013204909E+04  0.24867912688E+04  0.65864270000E+03 0.  1.
    8880022    1    1    2    0    0 -0.91176350211E+03  0.27054763138E+03 -0.52091268728E+03  0.10951029109E+04  0.15294330000E+03 0. -1.
<mgrwt>
<rscale>  0 0.11050897E+04</rscale>
<asrwt>0</asrwt>
<pdfrwt beam="1">  1        1 0.66127771E-01 0.11568573E+04</pdfrwt>
<pdfrwt beam="2">  1       -1 0.48493286E+00 0.11568573E+04</pdfrwt>
<totfact> 0.10195350E-01</totfact>
</mgrwt>
</event>
<event>
 4    1  0.1008211E-007  0.7036271E+03  0.7818608E-02  0.9982475E-01
         -1   -1    0    0    0  501 -0.00000000000E+00  0.00000000000E+00  0.26412241169E+03  0.26412241174E+03  0.50400000000E-02 0.  1.
          1   -1    0    0  501    0  0.00000000000E+00 -0.00000000000E+00 -0.17376202528E+04  0.17376202528E+04  0.50400000000E-02 0. -1.
    8880023    1    1    2    0    0 -0.22714223443E+03 -0.98423982806E+02 -0.25409424586E+03  0.74810090703E+03  0.65864270000E+03 0.  1.
    8880022    1    1    2    0    0  0.22714223443E+03  0.98423982806E+02 -0.12194035952E+04  0.12536417575E+04  0.15294330000E+03 0.  0.
<mgrwt>
<rscale>  0 0.56425411E+03</rscale>
<asrwt>0</asrwt>
<pdfrwt beam="1">  1        1 0.26732619E+00 0.70362709E+03</pdfrwt>
<pdfrwt beam="2">  1       -1 0.40634218E-01 0.70362709E+03</pdfrwt>
<totfact> 0.27688033E+01</totfact>
</mgrwt>
</event>
<event>
 4    1  0.1008211E-007  0.1244090E+04  0.7818608E-02  0.9115412E-01
         -1   -1    0    0    0  501 -0.00000000000E+00  0.00000000000E+00  0.12517888949E+04  0.12517888949E+04  0.50400000000E-02 0.  1.
          1   -1    0    0  501    0  0.00000000000E+00 -0.00000000000E+00 -0.12415775316E+04  0.12415775316E+04  0.50400000000E-02 0. -1.
    8880023    1    1    2    0    0  0.76090682803E+03 -0.73141646092E+03  0.47279722621E+03  0.13309006964E+04  0.65864270000E+03 0.  1.
    8880022    1    1    2    0    0 -0.76090682803E+03  0.73141646092E+03 -0.46258586294E+03  0.11624657302E+04  0.15294330000E+03 0.  0.
<mgrwt>
<rscale>  0 0.11970854E+04</rscale>
<asrwt>0</asrwt>
<pdfrwt beam="1">  1        1 0.19101193E+00 0.12440898E+04</pdfrwt>
<pdfrwt beam="2">  1       -1 0.19258291E+00 0.12440898E+04</pdfrwt>
<totfact> 0.16471656E+00</totfact>
</mgrwt>
</event>
<event>
 4    1  0.1008211E-007  0.1121943E+04  0.7818608E-02  0.9237010E-01
         -1   -1    0    0    0  501 -0.00000000000E+00  0.00000000000E+00  0.12721827899E+04  0.12721827900E+04  0.50400000000E-02 0.  1.
          1   -1    0    0  501    0  0.00000000000E+00 -0.00000000000E+00 -0.11712634087E+04  0.11712634087E+04  0.50400000000E-02 0. -1.
    8880023    1    1    2    0    0 -0.35671510246E+03  0.83528427017E+03 -0.61265252579E+03  0.12783187396E+04  0.65864270000E+03 0.  0.
    8880022    1    1    2    0    0  0.35671510246E+03 -0.83528427017E+03  0.71357190706E+03  0.11651274591E+04  0.15294330000E+03 0.  0.
<mgrwt>
<rscale>  0 0.10679455E+04</rscale>
<asrwt>0</asrwt>
<pdfrwt beam="1">  1        1 0.18019437E+00 0.11219428E+04</pdfrwt>
<pdfrwt beam="2">  1       -1 0.19572043E+00 0.11219428E+04</pdfrwt>
<totfact> 0.17882318E+00</totfact>
</mgrwt>
</event>
<event>
 4    1  0.1008211E-007  0.9151024E+03  0.7818608E-02  0.9502210E-01
          1   -1    0    0  501    0  0.00000000000E+00  0.00000000000E+00  0.14234427672E+04  0.14234427672E+04  0.50400000000E-02 0. -1.
         -1   -1    0    0    0  501 -0.00000000000E+00 -0.00000000000E+00 -0.43446487669E+03  0.43446487672E+03  0.50400000000E-02 0.  1.
    8880023    1    1    2    0    0  0.63455999995E+03 -0.30589912557E+02  0.50912560238E+03  0.10471968399E+04  0.65864270000E+03 0. -1.
    8880022    1    1    2    0    0 -0.63455999995E+03  0.30589912557E+02  0.47985228813E+03  0.81071080400E+03  0.15294330000E+03 0.  1.
<mgrwt>
<rscale>  0 0.84121102E+03</rscale>
<asrwt>0</asrwt>
<pdfrwt beam="1">  1        1 0.21899120E+00 0.91510237E+03</pdfrwt>
<pdfrwt beam="2">  1       -1 0.66840750E-01 0.91510237E+03</pdfrwt>
<totfact> 0.17011057E+01</totfact>
</mgrwt>
</event>
<event>
 4    1  0.1008211E-007  0.9900110E+03  0.7818608E-02  0.9394745E-01
         -1   -1    0    0    0  501 -0.00000000000E+00  0.00000000000E+00  0.66608046291E+03  0.66608046293E+03  0.50400000000E-02 0.  1.
          1   -1    0    0  501    0  0.00000000000E+00 -0.00000000000E+00 -0.21052891235E+04  0.21052891235E+04  0.50400000000E-02 0. -1.
    8880023    1    1    2    0    0 -0.66358475892E+03 -0.32552540899E+03  0.16012383873E+03  0.10028765498E+04  0.65864270000E+03 0.  0.
    8880022    1    1    2    0    0  0.66358475892E+03  0.32552540899E+03 -0.15993324993E+04  0.17684930366E+04  0.15294330000E+03 0.  0.
<mgrwt>
<rscale>  0 0.92509447E+03</rscale>
<asrwt>0</asrwt>
<pdfrwt beam="1">  1        1 0.32389063E+00 0.99001097E+03</pdfrwt>
<pdfrwt beam="2">  1       -1 0.10247392E+00 0.99001097E+03</pdfrwt>
<totfact> 0.23089362E+00</totfact>
</mgrwt>
</event>
<event>
 4    1  0.1008211E-007  0.1549315E+04  0.7818608E-02  0.8875576E-01
         -1   -1    0    0    0  501 -0.00000000000E+00  0.00000000000E+00  0.10271414689E+04  0.10271414689E+04  0.50400000000E-02 0.  1.
          1   -1    0    0  501    0  0.00000000000E+00 -0.00000000000E+00 -0.22681202972E+04  0.22681202972E+04  0.50400000000E-02 0. -1.
    8880023    1    1    2    0    0 -0.18312572269E+03  0.13903348526E+04 -0.24531364145E+03  0.15686156385E+04  0.65864270000E+03 0.  0.
    8880022    1    1    2    0    0  0.18312572269E+03 -0.13903348526E+04 -0.99566518685E+03  0.17266461276E+04  0.15294330000E+03 0.  0.
<mgrwt>
<rscale>  0 0.15134226E+04</rscale>
<asrwt>0</asrwt>
<pdfrwt beam="1">  1        1 0.34894158E+00 0.15493148E+04</pdfrwt>
<pdfrwt beam="2">  1       -1 0.15802177E+00 0.15493148E+04</pdfrwt>
<totfact> 0.55880867E-01</totfact>
</mgrwt>
</event>
<event>
 4    1  0.1008211E-007  0.6822602E+03  0.7818608E-02  0.1008073E+00
          1   -1    0    0  501    0  0.00000000000E+00  0.00000000000E+00  0.23003507714E+03  0.23003507720E+03  0.50400000000E-02 0. -1.
         -1   -1    0    0    0  501 -0.00000000000E+00 -0.00000000000E+00 -0.15034825018E+04  0.15034825018E+04  0.50400000000E-02 0.  1.
    8880023    1    1    2    0    0 -0.92355202298E+02  0.15211617909E+03 -0.13276460963E+04  0.14926899137E+04  0.65864270000E+03 0.  1.
    8880022    1    1    2    0    0  0.92355202298E+02 -0.15211617909E+03  0.54198671633E+02  0.24082766526E+03  0.15294330000E+03 0.  0.
<mgrwt>
<rscale>  0 0.52247742E+03</rscale>
<asrwt>0</asrwt>
<pdfrwt beam="1">  1        1 0.35390013E-01 0.68226023E+03</pdfrwt>
<pdfrwt beam="2">  1       -1 0.23130499E+00 0.68226023E+03</pdfrwt>
<totfact> 0.11931246E+01</totfact>
</mgrwt>
</event>
<event>
 4    1  0.1008211E-007  0.7081212E+03  0.7818608E-02  0.9965045E-01
          1   -1    0    0  501    0  0.00000000000E+00  0.00000000000E+00  0.13169357160E+04  0.13169357161E+04  0.50400000000E-02 0. -1.
         -1   -1    0    0    0  501 -0.00000000000E+00 -0.00000000000E+00 -0.56222810006E+03  0.56222810008E+03  0.50400000000E-02 0.  1.
    8880023    1    1    2    0    0  0.46344656112E+02 -0.25588589957E+03 -0.30965832222E+03  0.77286732596E+03  0.65864270000E+03 0.  1.
    8880022    1    1    2    0    0 -0.46344656112E+02  0.25588589957E+03  0.10643659382E+04  0.11062964902E+04  0.15294330000E+03 0.  0.
<mgrwt>
<rscale>  0 0.57209882E+03</rscale>
<asrwt>0</asrwt>
<pdfrwt beam="1">  1        1 0.20260549E+00 0.70812120E+03</pdfrwt>
<pdfrwt beam="2">  1       -1 0.86496632E-01 0.70812120E+03</pdfrwt>
<totfact> 0.12074969E+01</totfact>
</mgrwt>
</event>
<event>
 4    1  0.1008211E-007  0.6695822E+03  0.7818608E-02  0.1015964E+00
         -1   -1    0    0    0  501 -0.00000000000E+00  0.00000000000E+00  0.75250494973E+03  0.75250494975E+03  0.50400000000E-02 0.  1.
          1   -1    0    0  501    0  0.00000000000E+00 -0.00000000000E+00 -0.88068908559E+03  0.88068908561E+03  0.50400000000E-02 0. -1.
    8880023    1    1    2    0    0 -0.25886698532E+02  0.11772821496E+03  0.58793418250E+03  0.89107062738E+03  0.65864270000E+03 0.  1.
    8880022    1    1    2    0    0  0.25886698532E+02 -0.11772821496E+03 -0.71611831836E+03  0.74212340798E+03  0.15294330000E+03 0.  0.
<mgrwt>
<rscale>  0 0.49171549E+03</rscale>
<asrwt>0</asrwt>
<pdfrwt beam="1">  1        1 0.13549063E+00 0.66958215E+03</pdfrwt>
<pdfrwt beam="2">  1       -1 0.11576999E+00 0.66958215E+03</pdfrwt>
<totfact> 0.13280679E+01</totfact>
</mgrwt>
</event>
<event>
 4    1  0.1008211E-007  0.1353663E+04  0.7818608E-02  0.9020551E-01
         -1   -1    0    0    0  501 -0.00000000000E+00  0.00000000000E+00  0.12378926473E+04  0.12378926474E+04  0.50400000000E-02 0.  1.
          1   -1    0    0  501    0  0.00000000000E+00 -0.00000000000E+00 -0.15594225817E+04  0.15594225817E+04  0.50400000000E-02 0. -1.
    8880023    1    1    2    0    0  0.81682080226E+03  0.85521756304E+03  0.38996605579E+03  0.14087146745E+04  0.65864270000E+03 0.  0.
    8880022    1    1    2    0    0 -0.81682080226E+03 -0.85521756304E+03 -0.71149599013E+03  0.13886005546E+04  0.15294330000E+03 0.  0.
<mgrwt>
<rscale>  0 0.13114290E+04</rscale>
<asrwt>0</asrwt>
<pdfrwt beam="1">  1        1 0.23991117E+00 0.13536630E+04</pdfrwt>
<pdfrwt beam="2">  1       -1 0.19044502E+00 0.13536630E+04</pdfrwt>
<totfact> 0.10048920E+00</totfact>
</mgrwt>
</event>
<event>
 4    1  0.1008211E-007  0.1047359E+04  0.7818608E-02  0.9322062E-01
          1   -1    0    0  501    0  0.00000000000E+00  0.00000000000E+00  0.12056551251E+04  0.12056551251E+04  0.50400000000E-02 0. -1.
         -1   -1    0    0    0  501 -0.00000000000E+00 -0.00000000000E+00 -0.77700187511E+03  0.77700187513E+03  0.50400000000E-02 0.  1.
    8880023    1    1    2    0    0  0.43432440571E+03 -0.68884959719E+03  0.48078616983E+03  0.11524395881E+04  0.65864270000E+03 0.  0.
    8880022    1    1    2    0    0 -0.43432440571E+03  0.68884959719E+03 -0.52132919871E+02  0.83021741206E+03  0.15294330000E+03 0.  0.
<mgrwt>
<rscale>  0 0.98776872E+03</rscale>
<asrwt>0</asrwt>
<pdfrwt beam="1">  1        1 0.18548540E+00 0.10473594E+04</pdfrwt>
<pdfrwt beam="2">  1       -1 0.11953875E+00 0.10473594E+04</pdfrwt>
<totfact> 0.66022570E+00</totfact>
</mgrwt>
</event>
<event>
 4    1  0.1008211E-007  0.7445678E+03  0.7818608E-02  0.9846836E-01
         -1   -1    0    0    0  501 -0.00000000000E+00  0.00000000000E+00  0.24804698985E+03  0.24804698990E+03  0.50400000000E-02 0.  1.
          1   -1    0    0  501    0  0.00000000000E+00 -0.00000000000E+00 -0.18724995722E+04  0.18724995722E+04  0.50400000000E-02 0. -1.
    8880023    1    1    2    0    0  0.11831063059E+03 -0.32645603222E+03 -0.41379701700E+03  0.85182693302E+03  0.65864270000E+03 0.  0.
    8880022    1    1    2    0    0 -0.11831063059E+03  0.32645603222E+03 -0.12106555654E+04  0.12687196291E+04  0.15294330000E+03 0.  0.
<mgrwt>
<rscale>  0 0.62908507E+03</rscale>
<asrwt>0</asrwt>
<pdfrwt beam="1">  1        1 0.28807685E+00 0.74456776E+03</pdfrwt>
<pdfrwt beam="2">  1       -1 0.38161076E-01 0.74456776E+03</pdfrwt>
<totfact> 0.25063729E+01</totfact>
</mgrwt>
</event>
<event>
 4    1  0.1008211E-007  0.6697838E+03  0.7818608E-02  0.1015818E+00
         -1   -1    0    0    0  501 -0.00000000000E+00  0.00000000000E+00  0.65407613673E+03  0.65407613674E+03  0.50400000000E-02 0.  1.
          1   -1    0    0  501    0  0.00000000000E+00 -0.00000000000E+00 -0.13871742851E+04  0.13871742851E+04  0.50400000000E-02 0. -1.
    8880023    1    1    2    0    0  0.12289175860E+02  0.12103360461E+03  0.47265407575E+03  0.81976352619E+03  0.65864270000E+03 0.  1.
    8880022    1    1    2    0    0 -0.12289175860E+02 -0.12103360461E+03 -0.12057522241E+04  0.12214868957E+04  0.15294330000E+03 0.  0.
<mgrwt>
<rscale>  0 0.49226308E+03</rscale>
<asrwt>0</asrwt>
<pdfrwt beam="1">  1        1 0.21341143E+00 0.66978382E+03</pdfrwt>
<pdfrwt beam="2">  1       -1 0.10062710E+00 0.66978382E+03</pdfrwt>
<totfact> 0.77527089E+00</totfact>
</mgrwt>
</event>
<event>
 4    1  0.1008211E-007  0.6909599E+03  0.7818608E-02  0.1003700E+00
          1   -1    0    0  501    0  0.00000000000E+00  0.00000000000E+00  0.83562093447E+03  0.83562093449E+03  0.50400000000E-02 0. -1.
         -1   -1    0    0    0  501 -0.00000000000E+00 -0.00000000000E+00 -0.11322746201E+04  0.11322746202E+04  0.50400000000E-02 0.  1.
    8880023    1    1    2    0    0 -0.64576549901E+02 -0.19860841076E+03 -0.10016650384E+04  0.12168642024E+04  0.65864270000E+03 0.  1.
    8880022    1    1    2    0    0  0.64576549901E+02  0.19860841076E+03  0.70501135271E+03  0.75103135227E+03  0.15294330000E+03 0.  0.
<mgrwt>
<rscale>  0 0.54057349E+03</rscale>
<asrwt>0</asrwt>
<pdfrwt beam="1">  1        1 0.12855707E+00 0.69095994E+03</pdfrwt>
<pdfrwt beam="2">  1       -1 0.17419610E+00 0.69095994E+03</pdfrwt>
<totfact> 0.49388815E+00</totfact>
</mgrwt>
</event>
<event>
 4    1  0.1008211E-007  0.7407971E+03  0.7818608E-02  0.9857631E-01
          1   -1    0    0  501    0  0.00000000000E+00  0.00000000000E+00  0.10764236218E+04  0.10764236218E+04  0.50400000000E-02 0. -1.
         -1   -1    0    0    0  501 -0.00000000000E+00 -0.00000000000E+00 -0.43919756163E+03  0.43919756166E+03  0.50400000000E-02 0.  1.
    8880023    1    1    2    0    0  0.19874069340E+03 -0.27472216505E+03 -0.41169457663E+02  0.74194020089E+03  0.65864270000E+03 0.  1.
    8880022    1    1    2    0    0 -0.19874069340E+03  0.27472216505E+03  0.67839551783E+03  0.77368098259E+03  0.15294330000E+03 0.  0.
<mgrwt>
<rscale>  0 0.62359335E+03</rscale>
<asrwt>0</asrwt>
<pdfrwt beam="1">  1        1 0.16560363E+00 0.74079710E+03</pdfrwt>
<pdfrwt beam="2">  1       -1 0.67568855E-01 0.74079710E+03</pdfrwt>
<totfact> 0.30146041E+01</totfact>
</mgrwt>
</event>
<event>
 4    1  0.1008211E-007  0.9420435E+03  0.7818608E-02  0.9461655E-01
          1   -1    0    0  501    0  0.00000000000E+00  0.00000000000E+00  0.88571432902E+03  0.88571432904E+03  0.50400000000E-02 0. -1.
         -1   -1    0    0    0  501 -0.00000000000E+00 -0.00000000000E+00 -0.17399016342E+04  0.17399016342E+04  0.50400000000E-02 0.  1.
    8880023    1    1    2    0    0 -0.13635008810E+03  0.65957895720E+03 -0.14394579299E+04  0.17203154029E+04  0.65864270000E+03 0.  1.
    8880022    1    1    2    0    0  0.13635008810E+03 -0.65957895720E+03  0.58527062473E+03  0.90530056031E+03  0.15294330000E+03 0.  0.
<mgrwt>
<rscale>  0 0.87170820E+03</rscale>
<asrwt>0</asrwt>
<pdfrwt beam="1">  1        1 0.13626374E+00 0.94204350E+03</pdfrwt>
<pdfrwt beam="2">  1       -1 0.26767717E+00 0.94204350E+03</pdfrwt>
<totfact> 0.10188412E+00</totfact>
</mgrwt>
</event>
<event>
 4    1  0.1008211E-007  0.6910551E+03  0.7818608E-02  0.1003655E+00
         -1   -1    0    0    0  501 -0.00000000000E+00  0.00000000000E+00  0.13153835096E+04  0.13153835096E+04  0.50400000000E-02 0.  1.
          1   -1    0    0  501    0  0.00000000000E+00 -0.00000000000E+00 -0.82878970595E+03  0.82878970596E+03  0.50400000000E-02 0. -1.
    8880023    1    1    2    0    0  0.14075835640E+01 -0.20915301429E+03  0.12002271555E+04  0.13849557378E+04  0.65864270000E+03 0.  1.
    8880022    1    1    2    0    0 -0.14075835640E+01  0.20915301429E+03 -0.71363335183E+03  0.75921747776E+03  0.15294330000E+03 0.  0.
<mgrwt>
<rscale>  0 0.54076187E+03</rscale>
<asrwt>0</asrwt>
<pdfrwt beam="1">  1        1 0.12750611E+00 0.69105511E+03</pdfrwt>
<pdfrwt beam="2">  1       -1 0.20236669E+00 0.69105511E+03</pdfrwt>
<totfact> 0.31790933E+00</totfact>
</mgrwt>
</event>
<event>
 4    1  0.1008211E-007  0.1367366E+04  0.7818608E-02  0.9009464E-01
         -1   -1    0    0    0  501 -0.00000000000E+00  0.00000000000E+00  0.11786418121E+04  0.11786418121E+04  0.50400000000E-02 0.  1.
          1   -1    0    0  501    0  0.00000000000E+00 -0.00000000000E+00 -0.35317777806E+04  0.35317777806E+04  0.50400000000E-02 0. -1.
    8880023    1    1    2    0    0 -0.11823981952E+04 -0.19446014034E+03 -0.30310485056E+04  0.33251985636E+04  0.65864270000E+03 0.  0.
    8880022    1    1    2    0    0  0.11823981952E+04  0.19446014034E+03  0.67791253712E+03  0.13852210290E+04  0.15294330000E+03 0.  0.
<mgrwt>
<rscale>  0 0.13256555E+04</rscale>
<asrwt>0</asrwt>
<pdfrwt beam="1">  1        1 0.54335042E+00 0.13673662E+04</pdfrwt>
<pdfrwt beam="2">  1       -1 0.18132951E+00 0.13673662E+04</pdfrwt>
<totfact> 0.46697431E-02</totfact>
</mgrwt>
</event>
<event>
 4    1  0.1008211E-007  0.8297347E+03  0.7818608E-02  0.9649849E-01
         -1   -1    0    0    0  501 -0.00000000000E+00  0.00000000000E+00  0.45087834780E+03  0.45087834783E+03  0.50400000000E-02 0.  1.
          1   -1    0    0  501    0  0.00000000000E+00 -0.00000000000E+00 -0.15140489111E+04  0.15140489111E+04  0.50400000000E-02 0. -1.
    8880023    1    1    2    0    0 -0.31040010781E+03  0.39787095439E+03 -0.60349860895E+02  0.83192658045E+03  0.65864270000E+03 0.  1.
    8880022    1    1    2    0    0  0.31040010781E+03 -0.39787095439E+03 -0.10028207024E+04  0.11330006785E+04  0.15294330000E+03 0.  0.
<mgrwt>
<rscale>  0 0.74082920E+03</rscale>
<asrwt>0</asrwt>
<pdfrwt beam="1">  1        1 0.23293060E+00 0.82973473E+03</pdfrwt>
<pdfrwt beam="2">  1       -1 0.69365900E-01 0.82973473E+03</pdfrwt>
<totfact> 0.13794622E+01</totfact>
</mgrwt>
</event>
<event>
 4    1  0.1008211E-007  0.7141714E+03  0.7818608E-02  0.9942825E-01
         -1   -1    0    0    0  501 -0.00000000000E+00  0.00000000000E+00  0.66876228734E+03  0.66876228736E+03  0.50400000000E-02 0.  1.
          1   -1    0    0  501    0  0.00000000000E+00 -0.00000000000E+00 -0.12167170209E+04  0.12167170210E+04  0.50400000000E-02 0. -1.
    8880023    1    1    2    0    0 -0.17007743183E+03 -0.21749525800E+03  0.44641689756E+03  0.84221658305E+03  0.65864270000E+03 0.  1.
    8880022    1    1    2    0    0  0.17007743183E+03  0.21749525800E+03 -0.99437163115E+03  0.10432627253E+04  0.15294330000E+03 0.  0.
<mgrwt>
<rscale>  0 0.58229937E+03</rscale>
<asrwt>0</asrwt>
<pdfrwt beam="1">  1        1 0.18718723E+00 0.71417136E+03</pdfrwt>
<pdfrwt beam="2">  1       -1 0.10288651E+00 0.71417136E+03</pdfrwt>
<totfact> 0.96489084E+00</totfact>
</mgrwt>
</event>
<event>
 4    1  0.1008211E-007  0.1376640E+04  0.7818608E-02  0.9002050E-01
         -1   -1    0    0    0  501 -0.00000000000E+00  0.00000000000E+00  0.10202806475E+04  0.10202806475E+04  0.50400000000E-02 0.  1.
          1   -1    0    0  501    0  0.00000000000E+00 -0.00000000000E+00 -0.16914179928E+04  0.16914179928E+04  0.50400000000E-02 0. -1.
    8880023    1    1    2    0    0  0.65626121251E+03 -0.10152092471E+04 -0.56676780499E+03  0.14887459640E+04  0.65864270000E+03 0. -1.
    8880022    1    1    2    0    0 -0.65626121251E+03  0.10152092471E+04 -0.10436954032E+03  0.12229526762E+04  0.15294330000E+03 0.  0.
<mgrwt>
<rscale>  0 0.13352758E+04</rscale>
<asrwt>0</asrwt>
<pdfrwt beam="1">  1        1 0.26021815E+00 0.13766404E+04</pdfrwt>
<pdfrwt beam="2">  1       -1 0.15696625E+00 0.13766404E+04</pdfrwt>
<totfact> 0.14323008E+00</totfact>
</mgrwt>
</event>
<event>
 4    1  0.1008211E-007  0.7622776E+03  0.7818608E-02  0.9799246E-01
         -1   -1    0    0    0  501 -0.00000000000E+00  0.00000000000E+00  0.87988043682E+03  0.87988043684E+03  0.50400000000E-02 0.  1.
          1   -1    0    0  501    0  0.00000000000E+00 -0.00000000000E+00 -0.78099245663E+03  0.78099245665E+03  0.50400000000E-02 0. -1.
    8880023    1    1    2    0    0 -0.13331911663E+03  0.35983740575E+03  0.62936859669E+03  0.98852009701E+03  0.65864270000E+03 0.  0.
    8880022    1    1    2    0    0  0.13331911663E+03 -0.35983740575E+03 -0.53048061650E+03  0.67235279648E+03  0.15294330000E+03 0.  0.
<mgrwt>
<rscale>  0 0.65403006E+03</rscale>
<asrwt>0</asrwt>
<pdfrwt beam="1">  1        1 0.12015269E+00 0.76227761E+03</pdfrwt>
<pdfrwt beam="2">  1       -1 0.13536622E+00 0.76227761E+03</pdfrwt>
<totfact> 0.10815217E+01</totfact>
</mgrwt>
</event>
<event>
 4    1  0.1008211E-007  0.9839582E+03  0.7818608E-02  0.9402853E-01
         -1   -1    0    0    0  501 -0.00000000000E+00  0.00000000000E+00  0.10598793802E+04  0.10598793802E+04  0.50400000000E-02 0.  1.
          1   -1    0    0  501    0  0.00000000000E+00 -0.00000000000E+00 -0.11715058955E+04  0.11715058956E+04  0.50400000000E-02 0. -1.
    8880023    1    1    2    0    0 -0.72988482589E+03  0.40393128416E+02  0.63842475869E+03  0.11729278932E+04  0.65864270000E+03 0.  1.
    8880022    1    1    2    0    0  0.72988482589E+03 -0.40393128416E+02 -0.75005127407E+03  0.10584573825E+04  0.15294330000E+03 0.  0.
<mgrwt>
<rscale>  0 0.91841278E+03</rscale>
<asrwt>0</asrwt>
<pdfrwt beam="1">  1        1 0.18023167E+00 0.98395816E+03</pdfrwt>
<pdfrwt beam="2">  1       -1 0.16305837E+00 0.98395816E+03</pdfrwt>
<totfact> 0.31247302E+00</totfact>
</mgrwt>
</event>
<event>
 4    1  0.1008211E-007  0.6906543E+03  0.7818608E-02  0.1003843E+00
         -1   -1    0    0    0  501 -0.00000000000E+00  0.00000000000E+00  0.74492785395E+03  0.74492785397E+03  0.50400000000E-02 0.  1.
          1   -1    0    0  501    0  0.00000000000E+00 -0.00000000000E+00 -0.39560928307E+03  0.39560928310E+03  0.50400000000E-02 0. -1.
    8880023    1    1    2    0    0 -0.87107225270E+02  0.18869428952E+03  0.48982914621E+03  0.84672073456E+03  0.65864270000E+03 0.  1.
    8880022    1    1    2    0    0  0.87107225270E+02 -0.18869428952E+03 -0.14051057533E+03  0.29381640251E+03  0.15294330000E+03 0.  0.
<mgrwt>
<rscale>  0 0.53996734E+03</rscale>
<asrwt>0</asrwt>
<pdfrwt beam="1">  1        1 0.60862967E-01 0.69065433E+03</pdfrwt>
<pdfrwt beam="2">  1       -1 0.11460428E+00 0.69065433E+03</pdfrwt>
<totfact> 0.43272136E+01</totfact>
</mgrwt>
</event>
<event>
 4    1  0.1008211E-007  0.8383376E+03  0.7818608E-02  0.9633323E-01
         -1   -1    0    0    0  501 -0.00000000000E+00  0.00000000000E+00  0.67314586142E+03  0.67314586144E+03  0.50400000000E-02 0.  1.
          1   -1    0    0  501    0  0.00000000000E+00 -0.00000000000E+00 -0.16987658228E+04  0.16987658228E+04  0.50400000000E-02 0. -1.
    8880023    1    1    2    0    0  0.51760333624E+03  0.32962794411E+02  0.33883016813E+03  0.90422112816E+03  0.65864270000E+03 0.  1.
    8880022    1    1    2    0    0 -0.51760333624E+03 -0.32962794411E+02 -0.13644501295E+04  0.14676905561E+04  0.15294330000E+03 0.  0.
<mgrwt>
<rscale>  0 0.75129378E+03</rscale>
<asrwt>0</asrwt>
<pdfrwt beam="1">  1        1 0.26134859E+00 0.83833762E+03</pdfrwt>
<pdfrwt beam="2">  1       -1 0.10356090E+00 0.83833762E+03</pdfrwt>
<totfact> 0.43265265E+00</totfact>
</mgrwt>
</event>
<event>
 4    1  0.1008211E-007  0.6939544E+03  0.7818608E-02  0.1002327E+00
         -1   -1    0    0    0  501 -0.00000000000E+00  0.00000000000E+00  0.11097298628E+04  0.11097298628E+04  0.50400000000E-02 0.  1.
          1   -1    0    0  501    0  0.00000000000E+00 -0.00000000000E+00 -0.10254533415E+04  0.10254533415E+04  0.50400000000E-02 0. -1.
    8880023    1    1    2    0    0 -0.17265616873E+03 -0.13398628086E+03  0.97986636239E+03  0.12007126094E+04  0.65864270000E+03 0.  1.
    8880022    1    1    2    0    0  0.17265616873E+03  0.13398628086E+03 -0.89558984117E+03  0.93447059487E+03  0.15294330000E+03 0.  0.
<mgrwt>
<rscale>  0 0.54641574E+03</rscale>
<asrwt>0</asrwt>
<pdfrwt beam="1">  1        1 0.15776205E+00 0.69395438E+03</pdfrwt>
<pdfrwt beam="2">  1       -1 0.17072767E+00 0.69395438E+03</pdfrwt>
<totfact> 0.36856343E+00</totfact>
</mgrwt>
</event>
<event>
 4    1  0.1008211E-007  0.9166571E+03  0.7818608E-02  0.9499804E-01
          1   -1    0    0  501    0  0.00000000000E+00  0.00000000000E+00  0.24757311196E+04  0.24757311196E+04  0.50400000000E-02 0. -1.
         -1   -1    0    0    0  501 -0.00000000000E+00 -0.00000000000E+00 -0.74118570318E+03  0.74118570320E+03  0.50400000000E-02 0.  1.
    8880023    1    1    2    0    0  0.63561203783E+03 -0.49470934273E+02 -0.38802242202E+03  0.99540024223E+03  0.65864270000E+03 0.  0.
    8880022    1    1    2    0    0 -0.63561203783E+03  0.49470934273E+02  0.21225678384E+04  0.22215165806E+04  0.15294330000E+03 0. -1.
<mgrwt>
<rscale>  0 0.84298287E+03</rscale>
<asrwt>0</asrwt>
<pdfrwt beam="1">  1        1 0.38088171E+00 0.91665710E+03</pdfrwt>
<pdfrwt beam="2">  1       -1 0.11402857E+00 0.91665710E+03</pdfrwt>
<totfact> 0.10185917E+00</totfact>
</mgrwt>
</event>
<event>
 4    1  0.1008211E-007  0.7185014E+03  0.7818608E-02  0.9927690E-01
          1   -1    0    0  501    0  0.00000000000E+00  0.00000000000E+00  0.11383587562E+04  0.11383587562E+04  0.50400000000E-02 0. -1.
         -1   -1    0    0    0  501 -0.00000000000E+00 -0.00000000000E+00 -0.24158376906E+03  0.24158376912E+03  0.50400000000E-02 0.  1.
    8880023    1    1    2    0    0  0.20265203568E+02  0.28639717040E+03  0.67816277714E+03  0.98800251834E+03  0.65864270000E+03 0.  0.
    8880022    1    1    2    0    0 -0.20265203568E+02 -0.28639717040E+03  0.21861220996E+03  0.39194000695E+03  0.15294330000E+03 0. -1.
<mgrwt>
<rscale>  0 0.58937890E+03</rscale>
<asrwt>0</asrwt>
<pdfrwt beam="1">  1        1 0.17513211E+00 0.71850137E+03</pdfrwt>
<pdfrwt beam="2">  1       -1 0.37166735E-01 0.71850137E+03</pdfrwt>
<totfact> 0.84614551E+01</totfact>
</mgrwt>
</event>
<event>
 4    1  0.1008211E-007  0.9520008E+03  0.7818608E-02  0.9447241E-01
          1   -1    0    0  501    0  0.00000000000E+00  0.00000000000E+00  0.80388100818E+03  0.80388100819E+03  0.50400000000E-02 0. -1.
         -1   -1    0    0    0  501 -0.00000000000E+00 -0.00000000000E+00 -0.17552889411E+04  0.17552889411E+04  0.50400000000E-02 0.  1.
    8880023    1    1    2    0    0 -0.17361799195E+03  0.66509551580E+03 -0.14226883311E+04  0.17118257931E+04  0.65864270000E+03 0.  0.
    8880022    1    1    2    0    0  0.17361799195E+03 -0.66509551580E+03  0.47128039818E+03  0.84734415617E+03  0.15294330000E+03 0.  0.
<mgrwt>
<rscale>  0 0.88287822E+03</rscale>
<asrwt>0</asrwt>
<pdfrwt beam="1">  1        1 0.12367400E+00 0.95200077E+03</pdfrwt>
<pdfrwt beam="2">  1       -1 0.27004445E+00 0.95200077E+03</pdfrwt>
<totfact> 0.11521982E+00</totfact>
</mgrwt>
</event>
<event>
 4    1  0.1008211E-007  0.1507444E+04  0.7818608E-02  0.8904397E-01
         -1   -1    0    0    0  501 -0.00000000000E+00  0.00000000000E+00  0.98513075683E+03  0.98513075684E+03  0.50400000000E-02 0.  1.
          1   -1    0    0  501    0  0.00000000000E+00 -0.00000000000E+00 -0.23542533437E+04  0.23542533437E+04  0.50400000000E-02 0. -1.
    8880023    1    1    2    0    0  0.13480639231E+04  0.14594645169E+03 -0.15945566604E+03  0.15158538924E+04  0.65864270000E+03 0.  0.
    8880022    1    1    2    0    0 -0.13480639231E+04 -0.14594645169E+03 -0.12096669208E+04  0.18235302081E+04  0.15294330000E+03 0.  0.
<mgrwt>
<rscale>  0 0.14703726E+04</rscale>
<asrwt>0</asrwt>
<pdfrwt beam="1">  1        1 0.36219282E+00 0.15074438E+04</pdfrwt>
<pdfrwt beam="2">  1       -1 0.15155858E+00 0.15074438E+04</pdfrwt>
<totfact> 0.54983888E-01</totfact>
</mgrwt>
</event>
<event>
 4    1  0.1008211E-007  0.6591219E+03  0.7818608E-02  0.1025075E+00
         -1   -1    0    0    0  501 -0.00000000000E+00  0.00000000000E+00  0.21189310787E+03  0.21189310793E+03  0.50400000000E-02 0.  1.
          1   -1    0    0  501    0  0.00000000000E+00 -0.00000000000E+00 -0.12681097607E+04  0.12681097607E+04  0.50400000000E-02 0. -1.
    8880023    1    1    2    0    0  0.91594835948E+01  0.23399710691E+02 -0.32940941008E+03  0.73685290820E+03  0.65864270000E+03 0.  1.
    8880022    1    1    2    0    0 -0.91594835948E+01 -0.23399710691E+02 -0.72680724276E+03  0.74314996047E+03  0.15294330000E+03 0.  0.
<mgrwt>
<rscale>  0 0.45898968E+03</rscale>
<asrwt>0</asrwt>
<pdfrwt beam="1">  1        1 0.19509381E+00 0.65912188E+03</pdfrwt>
<pdfrwt beam="2">  1       -1 0.32598940E-01 0.65912188E+03</pdfrwt>
<totfact> 0.86593500E+01</totfact>
</mgrwt>
</event>
<event>
 4    1  0.1008211E-007  0.7429733E+03  0.7818608E-02  0.9851369E-01
          1   -1    0    0  501    0  0.00000000000E+00  0.00000000000E+00  0.97141499554E+03  0.97141499556E+03  0.50400000000E-02 0. -1.
         -1   -1    0    0    0  501 -0.00000000000E+00 -0.00000000000E+00 -0.67062890468E+03  0.67062890470E+03  0.50400000000E-02 0.  1.
    8880023    1    1    2    0    0 -0.22473160314E+01  0.34379370391E+03 -0.40207773657E+03  0.84479339118E+03  0.65864270000E+03 0.  1.
    8880022    1    1    2    0    0  0.22473160314E+01 -0.34379370391E+03  0.70286382744E+03  0.79725050907E+03  0.15294330000E+03 0.  0.
<mgrwt>
<rscale>  0 0.62677159E+03</rscale>
<asrwt>0</asrwt>
<pdfrwt beam="1">  1        1 0.14944846E+00 0.74297333E+03</pdfrwt>
<pdfrwt beam="2">  1       -1 0.10317368E+00 0.74297333E+03</pdfrwt>
<totfact> 0.14576265E+01</totfact>
</mgrwt>
</event>
<event>
 4    1  0.1008211E-007  0.9439687E+03  0.7818608E-02  0.9458845E-01
         -1   -1    0    0    0  501 -0.00000000000E+00  0.00000000000E+00  0.15940384558E+04  0.15940384558E+04  0.50400000000E-02 0.  1.
          1   -1    0    0  501    0  0.00000000000E+00 -0.00000000000E+00 -0.98118597270E+03  0.98118597271E+03  0.50400000000E-02 0. -1.
    8880023    1    1    2    0    0  0.38829098288E+03 -0.55362148222E+03  0.12950515162E+04  0.16025714551E+04  0.65864270000E+03 0.  0.
    8880022    1    1    2    0    0 -0.38829098288E+03  0.55362148222E+03 -0.68219903306E+03  0.97265297341E+03  0.15294330000E+03 0.  0.
<mgrwt>
<rscale>  0 0.87387183E+03</rscale>
<asrwt>0</asrwt>
<pdfrwt beam="1">  1        1 0.15095169E+00 0.94396866E+03</pdfrwt>
<pdfrwt beam="2">  1       -1 0.24523668E+00 0.94396866E+03</pdfrwt>
<totfact> 0.11914932E+00</totfact>
</mgrwt>
</event>
<event>
 4    1  0.1008211E-007  0.1218378E+04  0.7818608E-02  0.9139462E-01
         -1   -1    0    0    0  501 -0.00000000000E+00  0.00000000000E+00  0.12625780873E+04  0.12625780873E+04  0.50400000000E-02 0.  1.
          1   -1    0    0  501    0  0.00000000000E+00 -0.00000000000E+00 -0.14428002058E+04  0.14428002058E+04  0.50400000000E-02 0. -1.
    8880023    1    1    2    0    0 -0.35122602807E+03 -0.96295070715E+03  0.64686193661E+03  0.13794471206E+04  0.65864270000E+03 0.  0.
    8880022    1    1    2    0    0  0.35122602807E+03  0.96295070715E+03 -0.82708405506E+03  0.13259311726E+04  0.15294330000E+03 0.  0.
<mgrwt>
<rscale>  0 0.11700738E+04</rscale>
<asrwt>0</asrwt>
<pdfrwt beam="1">  1        1 0.22196926E+00 0.12183776E+04</pdfrwt>
<pdfrwt beam="2">  1       -1 0.19424278E+00 0.12183776E+04</pdfrwt>
<totfact> 0.11567170E+00</totfact>
</mgrwt>
</event>
<event>
 4    1  0.1008211E-007  0.1443124E+04  0.7818608E-02  0.8950879E-01
          1   -1    0    0  501    0  0.00000000000E+00  0.00000000000E+00  0.80032358864E+03  0.80032358865E+03  0.50400000000E-02 0. -1.
         -1   -1    0    0    0  501 -0.00000000000E+00 -0.00000000000E+00 -0.27665190985E+04  0.27665190985E+04  0.50400000000E-02 0.  1.
    8880023    1    1    2    0    0 -0.31671496173E+03 -0.12443823735E+04 -0.17290291538E+04  0.22521429527E+04  0.65864270000E+03 0.  0.
    8880022    1    1    2    0    0  0.31671496173E+03  0.12443823735E+04 -0.23716635607E+03  0.13146997345E+04  0.15294330000E+03 0.  0.
<mgrwt>
<rscale>  0 0.14040685E+04</rscale>
<asrwt>0</asrwt>
<pdfrwt beam="1">  1        1 0.12312671E+00 0.14431237E+04</pdfrwt>
<pdfrwt beam="2">  1       -1 0.42561832E+00 0.14431237E+04</pdfrwt>
<totfact> 0.10141519E-01</totfact>
</mgrwt>
</event>
<event>
 4    1  0.1008211E-007  0.8489363E+03  0.7818608E-02  0.9613555E-01
         -1   -1    0    0    0  501 -0.00000000000E+00  0.00000000000E+00  0.59530983577E+03  0.59530983579E+03  0.50400000000E-02 0.  1.
          1   -1    0    0  501    0  0.00000000000E+00 -0.00000000000E+00 -0.18172299761E+04  0.18172299761E+04  0.50400000000E-02 0. -1.
    8880023    1    1    2    0    0  0.17857289886E+03  0.50496958709E+03  0.21133727774E+03  0.87484639527E+03  0.65864270000E+03 0.  1.
    8880022    1    1    2    0    0 -0.17857289886E+03 -0.50496958709E+03 -0.14332574181E+04  0.15376934166E+04  0.15294330000E+03 0.  0.
<mgrwt>
<rscale>  0 0.76405483E+03</rscale>
<asrwt>0</asrwt>
<pdfrwt beam="1">  1        1 0.27957384E+00 0.84893626E+03</pdfrwt>
<pdfrwt beam="2">  1       -1 0.91586129E-01 0.84893626E+03</pdfrwt>
<totfact> 0.47480127E+00</totfact>
</mgrwt>
</event>
<event>
 4    1  0.1008211E-007  0.8442556E+03  0.7818608E-02  0.9622207E-01
          1   -1    0    0  501    0  0.00000000000E+00  0.00000000000E+00  0.11103360298E+04  0.11103360298E+04  0.50400000000E-02 0. -1.
         -1   -1    0    0    0  501 -0.00000000000E+00 -0.00000000000E+00 -0.82506974750E+03  0.82506974752E+03  0.50400000000E-02 0.  1.
    8880023    1    1    2    0    0  0.49003159346E+03 -0.19704414608E+03 -0.49665214761E+03  0.97950544668E+03  0.65864270000E+03 0.  1.
    8880022    1    1    2    0    0 -0.49003159346E+03  0.19704414608E+03  0.78191842992E+03  0.95590033066E+03  0.15294330000E+03 0. -1.
<mgrwt>
<rscale>  0 0.75843618E+03</rscale>
<asrwt>0</asrwt>
<pdfrwt beam="1">  1        1 0.17082093E+00 0.84425563E+03</pdfrwt>
<pdfrwt beam="2">  1       -1 0.12693381E+00 0.84425563E+03</pdfrwt>
<totfact> 0.68539065E+00</totfact>
</mgrwt>
</event>
<event>
 4    1  0.1008211E-007  0.6853240E+03  0.7818608E-02  0.1006459E+00
          1   -1    0    0  501    0  0.00000000000E+00  0.00000000000E+00  0.53177988140E+03  0.53177988142E+03  0.50400000000E-02 0. -1.
         -1   -1    0    0    0  501 -0.00000000000E+00 -0.00000000000E+00 -0.79596150661E+03  0.79596150663E+03  0.50400000000E-02 0.  1.
    8880023    1    1    2    0    0 -0.14355226422E+03 -0.12349703981E+03 -0.60144373215E+03  0.91181332553E+03  0.65864270000E+03 0.  1.
    8880022    1    1    2    0    0  0.14355226422E+03  0.12349703981E+03  0.33726210693E+03  0.41592806252E+03  0.15294330000E+03 0.  0.
<mgrwt>
<rscale>  0 0.52906421E+03</rscale>
<asrwt>0</asrwt>
<pdfrwt beam="1">  1        1 0.81812290E-01 0.68532399E+03</pdfrwt>
<pdfrwt beam="2">  1       -1 0.12245562E+00 0.68532399E+03</pdfrwt>
<totfact> 0.24726951E+01</totfact>
</mgrwt>
</event>
<event>
 4    1  0.1008211E-007  0.7726521E+03  0.7818608E-02  0.9773389E-01
         -1   -1    0    0    0  501 -0.00000000000E+00  0.00000000000E+00  0.46314591335E+03  0.46314591337E+03  0.50400000000E-02 0.  1.
          1   -1    0    0  501    0  0.00000000000E+00 -0.00000000000E+00 -0.23505461221E+04  0.23505461221E+04  0.50400000000E-02 0. -1.
    8880023    1    1    2    0    0 -0.78129713012E+02 -0.39632920286E+03  0.10072157025E+03  0.77918940578E+03  0.65864270000E+03 0.  0.
    8880022    1    1    2    0    0  0.78129713012E+02  0.39632920286E+03 -0.19881217790E+04  0.20345026297E+04  0.15294330000E+03 0.  0.
<mgrwt>
<rscale>  0 0.66810393E+03</rscale>
<asrwt>0</asrwt>
<pdfrwt beam="1">  1        1 0.36162247E+00 0.77265212E+03</pdfrwt>
<pdfrwt beam="2">  1       -1 0.71253219E-01 0.77265212E+03</pdfrwt>
<totfact> 0.36008405E+00</totfact>
</mgrwt>
</event>
<event>
 4    1  0.1008211E-007  0.6684604E+03  0.7818608E-02  0.1016791E+00
         -1   -1    0    0    0  501 -0.00000000000E+00  0.00000000000E+00  0.24216486069E+03  0.24216486075E+03  0.50400000000E-02 0.  1.
          1   -1    0    0  501    0  0.00000000000E+00 -0.00000000000E+00 -0.16619587934E+04  0.16619587935E+04  0.50400000000E-02 0. -1.
    8880023    1    1    2    0    0 -0.38301798363E+02  0.10752704552E+03 -0.24192076696E+03  0.71089025667E+03  0.65864270000E+03 0.  1.
    8880022    1    1    2    0    0  0.38301798363E+02 -0.10752704552E+03 -0.11778731658E+04  0.11932333975E+04  0.15294330000E+03 0.  0.
<mgrwt>
<rscale>  0 0.48862464E+03</rscale>
<asrwt>0</asrwt>
<pdfrwt beam="1">  1        1 0.25568596E+00 0.66846039E+03</pdfrwt>
<pdfrwt beam="2">  1       -1 0.37256133E-01 0.66846039E+03</pdfrwt>
<totfact> 0.36587139E+01</totfact>
</mgrwt>
</event>
<event>
 4    1  0.1008211E-007  0.9372397E+03  0.7818608E-02  0.9468716E-01
          1   -1    0    0  501    0  0.00000000000E+00  0.00000000000E+00  0.18888619747E+04  0.18888619747E+04  0.50400000000E-02 0. -1.
         -1   -1    0    0    0  501 -0.00000000000E+00 -0.00000000000E+00 -0.67566248685E+03  0.67566248687E+03  0.50400000000E-02 0.  1.
    8880023    1    1    2    0    0 -0.57632440660E+03  0.33534794279E+03 -0.23205241905E+03  0.96553953613E+03  0.65864270000E+03 0.  1.
    8880022    1    1    2    0    0  0.57632440660E+03 -0.33534794279E+03  0.14452519069E+04  0.15989849254E+04  0.15294330000E+03 0.  0.
<mgrwt>
<rscale>  0 0.86630079E+03</rscale>
<asrwt>0</asrwt>
<pdfrwt beam="1">  1        1 0.29059415E+00 0.93723971E+03</pdfrwt>
<pdfrwt beam="2">  1       -1 0.10394808E+00 0.93723971E+03</pdfrwt>
<totfact> 0.31475234E+00</totfact>
</mgrwt>
</event>
<event>
 4    1  0.1008211E-007  0.7160410E+03  0.7818608E-02  0.9936217E-01
          1   -1    0    0  501    0  0.00000000000E+00  0.00000000000E+00  0.12417904507E+04  0.12417904507E+04  0.50400000000E-02 0. -1.
         -1   -1    0    0    0  501 -0.00000000000E+00 -0.00000000000E+00 -0.42967006954E+03  0.42967006957E+03  0.50400000000E-02 0.  1.
    8880023    1    1    2    0    0 -0.21929414409E+03  0.17554100337E+03 -0.83075286235E+02  0.72084414053E+03  0.65864270000E+03 0.  0.
    8880022    1    1    2    0    0  0.21929414409E+03 -0.17554100337E+03  0.89519566742E+03  0.95061637976E+03  0.15294330000E+03 0.  0.
<mgrwt>
<rscale>  0 0.58537731E+03</rscale>
<asrwt>0</asrwt>
<pdfrwt beam="1">  1        1 0.19104468E+00 0.71604104E+03</pdfrwt>
<pdfrwt beam="2">  1       -1 0.66103088E-01 0.71604104E+03</pdfrwt>
<totfact> 0.23914000E+01</totfact>
</mgrwt>
</event>
<event>
 4    1  0.1008211E-007  0.9411704E+03  0.7818608E-02  0.9462933E-01
          1   -1    0    0  501    0  0.00000000000E+00  0.00000000000E+00  0.85176559168E+03  0.85176559170E+03  0.50400000000E-02 0. -1.
         -1   -1    0    0    0  501 -0.00000000000E+00 -0.00000000000E+00 -0.90886419053E+03  0.90886419054E+03  0.50400000000E-02 0.  1.
    8880023    1    1    2    0    0 -0.16331038826E+03  0.65216662932E+03 -0.35983709189E+03  0.10076132861E+04  0.65864270000E+03 0.  0.
    8880022    1    1    2    0    0  0.16331038826E+03 -0.65216662932E+03  0.30273849304E+03  0.75301649617E+03  0.15294330000E+03 0.  0.
<mgrwt>
<rscale>  0 0.87072636E+03</rscale>
<asrwt>0</asrwt>
<pdfrwt beam="1">  1        1 0.13104086E+00 0.94117044E+03</pdfrwt>
<pdfrwt beam="2">  1       -1 0.13982526E+00 0.94117044E+03</pdfrwt>
<totfact> 0.84647272E+00</totfact>
</mgrwt>
</event>
<event>
 4    1  0.1008211E-007  0.1008395E+04  0.7818608E-02  0.9370656E-01
         -1   -1    0    0    0  501 -0.00000000000E+00  0.00000000000E+00  0.43140542151E+03  0.43140542154E+03  0.50400000000E-02 0.  1.
          1   -1    0    0  501    0  0.00000000000E+00 -0.00000000000E+00 -0.29430240917E+04  0.29430240917E+04  0.50400000000E-02 0. -1.
    8880023    1    1    2    0    0  0.73732463631E+03  0.19850011947E+03 -0.33482097093E+03  0.10625277434E+04  0.65864270000E+03 0.  0.
    8880022    1    1    2    0    0 -0.73732463631E+03 -0.19850011947E+03 -0.21767976993E+04  0.23119017698E+04  0.15294330000E+03 0.  0.
<mgrwt>
<rscale>  0 0.94530418E+03</rscale>
<asrwt>0</asrwt>
<pdfrwt beam="1">  1        1 0.45277293E+00 0.10083948E+04</pdfrwt>
<pdfrwt beam="2">  1       -1 0.66370067E-01 0.10083948E+04</pdfrwt>
<totfact> 0.15517173E+00</totfact>
</mgrwt>
</event>
<event>
 4    1  0.1008211E-007  0.8612690E+03  0.7818608E-02  0.9591310E-01
          1   -1    0    0  501    0  0.00000000000E+00  0.00000000000E+00  0.16897355585E+04  0.16897355585E+04  0.50400000000E-02 0. -1.
         -1   -1    0    0    0  501 -0.00000000000E+00 -0.00000000000E+00 -0.40234371654E+03  0.40234371657E+03  0.50400000000E-02 0.  1.
    8880023    1    1    2    0    0  0.40659262988E+03  0.37769902136E+03  0.23534817548E+03  0.89284550028E+03  0.65864270000E+03 0.  0.
    8880022    1    1    2    0    0 -0.40659262988E+03 -0.37769902136E+03  0.10520436665E+04  0.11992337748E+04  0.15294330000E+03 0.  0.
<mgrwt>
<rscale>  0 0.77874016E+03</rscale>
<asrwt>0</asrwt>
<pdfrwt beam="1">  1        1 0.25995932E+00 0.86126902E+03</pdfrwt>
<pdfrwt beam="2">  1       -1 0.61899034E-01 0.86126902E+03</pdfrwt>
<totfact> 0.13129414E+01</totfact>
</mgrwt>
</event>
<event>
 4    1  0.1008211E-007  0.7130123E+03  0.7818608E-02  0.9946981E-01
         -1   -1    0    0    0  501 -0.00000000000E+00  0.00000000000E+00  0.79587912701E+03  0.79587912703E+03  0.50400000000E-02 0.  1.
          1   -1    0    0  501    0  0.00000000000E+00 -0.00000000000E+00 -0.17557517069E+04  0.17557517069E+04  0.50400000000E-02 0. -1.
    8880023    1    1    2    0    0  0.24749919677E+03  0.11541457353E+03  0.61766421239E+03  0.94334281241E+03  0.65864270000E+03 0.  1.
    8880022    1    1    2    0    0 -0.24749919677E+03 -0.11541457353E+03 -0.15775367922E+04  0.16082880215E+04  0.15294330000E+03 0.  0.
<mgrwt>
<rscale>  0 0.58037451E+03</rscale>
<asrwt>0</asrwt>
<pdfrwt beam="1">  1        1 0.27011564E+00 0.71301233E+03</pdfrwt>
<pdfrwt beam="2">  1       -1 0.12244294E+00 0.71301233E+03</pdfrwt>
<totfact> 0.27172425E+00</totfact>
</mgrwt>
</event>
<event>
 4    1  0.1008211E-007  0.6834453E+03  0.7818608E-02  0.1007438E+00
         -1   -1    0    0    0  501 -0.00000000000E+00  0.00000000000E+00  0.20173343629E+03  0.20173343635E+03  0.50400000000E-02 0.  1.
          1   -1    0    0  501    0  0.00000000000E+00 -0.00000000000E+00 -0.24088159557E+04  0.24088159557E+04  0.50400000000E-02 0. -1.
    8880023    1    1    2    0    0 -0.16815381364E+03  0.70792748626E+02 -0.40838181170E+03  0.79616155942E+03  0.65864270000E+03 0.  1.
    8880022    1    1    2    0    0  0.16815381364E+03 -0.70792748626E+02 -0.17987007077E+04  0.18143878327E+04  0.15294330000E+03 0.  0.
<mgrwt>
<rscale>  0 0.52505595E+03</rscale>
<asrwt>0</asrwt>
<pdfrwt beam="1">  1        1 0.37058705E+00 0.68344533E+03</pdfrwt>
<pdfrwt beam="2">  1       -1 0.31035915E-01 0.68344533E+03</pdfrwt>
<totfact> 0.15952329E+01</totfact>
</mgrwt>
</event>
<event>
 4    1  0.1008211E-007  0.7066455E+03  0.7818608E-02  0.9970675E-01
         -1   -1    0    0    0  501 -0.00000000000E+00  0.00000000000E+00  0.59565688562E+03  0.59565688564E+03  0.50400000000E-02 0.  1.
          1   -1    0    0  501    0  0.00000000000E+00 -0.00000000000E+00 -0.81259119426E+03  0.81259119428E+03  0.50400000000E-02 0. -1.
    8880023    1    1    2    0    0 -0.18191567260E+03 -0.18012327158E+03  0.33413773239E+03  0.78166228985E+03  0.65864270000E+03 0.  0.
    8880022    1    1    2    0    0  0.18191567260E+03  0.18012327158E+03 -0.55107204103E+03  0.62658579007E+03  0.15294330000E+03 0.  0.
<mgrwt>
<rscale>  0 0.56955000E+03</rscale>
<asrwt>0</asrwt>
<pdfrwt beam="1">  1        1 0.12501403E+00 0.70664553E+03</pdfrwt>
<pdfrwt beam="2">  1       -1 0.91639520E-01 0.70664553E+03</pdfrwt>
<totfact> 0.25806565E+01</totfact>
</mgrwt>
</event>
<event>
 4    1  0.1008211E-007  0.1236626E+04  0.7818608E-02  0.9122317E-01
         -1   -1    0    0    0  501 -0.00000000000E+00  0.00000000000E+00  0.15977208511E+04  0.15977208511E+04  0.50400000000E-02 0.  1.
          1   -1    0    0  501    0  0.00000000000E+00 -0.00000000000E+00 -0.10543494232E+04  0.10543494232E+04  0.50400000000E-02 0. -1.
    8880023    1    1    2    0    0 -0.61873366492E+03 -0.84415711495E+03  0.90697702185E+03  0.15335742914E+04  0.65864270000E+03 0. -1.
    8880022    1    1    2    0    0  0.61873366492E+03  0.84415711495E+03 -0.36360559399E+03  0.11184959829E+04  0.15294330000E+03 0.  0.
<mgrwt>
<rscale>  0 0.11892520E+04</rscale>
<asrwt>0</asrwt>
<pdfrwt beam="1">  1        1 0.16220760E+00 0.12366256E+04</pdfrwt>
<pdfrwt beam="2">  1       -1 0.24580321E+00 0.12366256E+04</pdfrwt>
<totfact> 0.99700266E-01</totfact>
</mgrwt>
</event>
<event>
 4    1  0.1008211E-007  0.7622049E+03  0.7818608E-02  0.9799432E-01
         -1   -1    0    0    0  501 -0.00000000000E+00  0.00000000000E+00  0.11919179358E+04  0.11919179358E+04  0.50400000000E-02 0.  1.
          1   -1    0    0  501    0  0.00000000000E+00 -0.00000000000E+00 -0.11346154316E+04  0.11346154317E+04  0.50400000000E-02 0. -1.
    8880023    1    1    2    0    0  0.16179085089E+03 -0.34780725180E+03  0.10232984957E+04  0.12759687228E+04  0.65864270000E+03 0.  1.
    8880022    1    1    2    0    0 -0.16179085089E+03  0.34780725180E+03 -0.96599599160E+03  0.10505646447E+04  0.15294330000E+03 0.  0.
<mgrwt>
<rscale>  0 0.65393022E+03</rscale>
<asrwt>0</asrwt>
<pdfrwt beam="1">  1        1 0.17455622E+00 0.76220494E+03</pdfrwt>
<pdfrwt beam="2">  1       -1 0.18337199E+00 0.76220494E+03</pdfrwt>
<totfact> 0.24462703E+00</totfact>
</mgrwt>
</event>
<event>
 4    1  0.1008211E-007  0.7377200E+03  0.7818608E-02  0.9866639E-01
         -1   -1    0    0    0  501 -0.00000000000E+00  0.00000000000E+00  0.18353597131E+03  0.18353597138E+03  0.50400000000E-02 0.  1.
          1   -1    0    0  501    0  0.00000000000E+00 -0.00000000000E+00 -0.29385141494E+04  0.29385141494E+04  0.50400000000E-02 0. -1.
    8880023    1    1    2    0    0  0.21551122443E+03  0.25293382888E+03 -0.64295277466E+03  0.97858013793E+03  0.65864270000E+03 0.  1.
    8880022    1    1    2    0    0 -0.21551122443E+03 -0.25293382888E+03 -0.21120254034E+04  0.21434699828E+04  0.15294330000E+03 0.  0.
<mgrwt>
<rscale>  0 0.61905703E+03</rscale>
<asrwt>0</asrwt>
<pdfrwt beam="1">  1        1 0.45207907E+00 0.73772001E+03</pdfrwt>
<pdfrwt beam="2">  1       -1 0.28236305E-01 0.73772001E+03</pdfrwt>
<totfact> 0.80050486E+00</totfact>
</mgrwt>
</event>
<event>
 4    1  0.1008211E-007  0.6765850E+03  0.7818608E-02  0.1011325E+00
          1   -1    0    0  501    0  0.00000000000E+00  0.00000000000E+00  0.12444245046E+04  0.12444245046E+04  0.50400000000E-02 0. -1.
         -1   -1    0    0    0  501 -0.00000000000E+00 -0.00000000000E+00 -0.32468576023E+03  0.32468576027E+03  0.50400000000E-02 0.  1.
    8880023    1    1    2    0    0  0.54797581480E+02  0.14475589575E+03  0.56580282253E+02  0.67894666867E+03  0.65864270000E+03 0.  1.
    8880022    1    1    2    0    0 -0.54797581480E+02 -0.14475589575E+03  0.86315846210E+03  0.89016359620E+03  0.15294330000E+03 0.  0.
<mgrwt>
<rscale>  0 0.50951301E+03</rscale>
<asrwt>0</asrwt>
<pdfrwt beam="1">  1        1 0.19144992E+00 0.67658499E+03</pdfrwt>
<pdfrwt beam="2">  1       -1 0.49951656E-01 0.67658499E+03</pdfrwt>
<totfact> 0.41318937E+01</totfact>
</mgrwt>
</event>
<event>
 4    1  0.1008211E-007  0.1220557E+04  0.7818608E-02  0.9137394E-01
          1   -1    0    0  501    0  0.00000000000E+00  0.00000000000E+00  0.35815531298E+04  0.35815531298E+04  0.50400000000E-02 0. -1.
         -1   -1    0    0    0  501 -0.00000000000E+00 -0.00000000000E+00 -0.37867506149E+03  0.37867506152E+03  0.50400000000E-02 0.  1.
    8880023    1    1    2    0    0 -0.72766710012E+03  0.72556933563E+03  0.12433186032E+04  0.17422978003E+04  0.65864270000E+03 0.  1.
    8880022    1    1    2    0    0  0.72766710012E+03 -0.72556933563E+03  0.19595594651E+04  0.22179303911E+04  0.15294330000E+03 0.  0.
<mgrwt>
<rscale>  0 0.11723669E+04</rscale>
<asrwt>0</asrwt>
<pdfrwt beam="1">  1        1 0.55100815E+00 0.12205574E+04</pdfrwt>
<pdfrwt beam="2">  1       -1 0.58257704E-01 0.12205574E+04</pdfrwt>
<totfact> 0.64687402E-01</totfact>
</mgrwt>
</event>
<event>
 4    1  0.1008211E-007  0.6763122E+03  0.7818608E-02  0.1011492E+00
         -1   -1    0    0    0  501 -0.00000000000E+00  0.00000000000E+00  0.32839243026E+03  0.32839243030E+03  0.50400000000E-02 0.  1.
          1   -1    0    0  501    0  0.00000000000E+00 -0.00000000000E+00 -0.11840959248E+04  0.11840959248E+04  0.50400000000E-02 0. -1.
    8880023    1    1    2    0    0 -0.51413336904E+02  0.14472254966E+03 -0.50020448191E+02  0.67815942012E+03  0.65864270000E+03 0.  1.
    8880022    1    1    2    0    0  0.51413336904E+02 -0.14472254966E+03 -0.80568304636E+03  0.83432893501E+03  0.15294330000E+03 0.  0.
<mgrwt>
<rscale>  0 0.50886088E+03</rscale>
<asrwt>0</asrwt>
<pdfrwt beam="1">  1        1 0.18216860E+00 0.67631217E+03</pdfrwt>
<pdfrwt beam="2">  1       -1 0.50521913E-01 0.67631217E+03</pdfrwt>
<totfact> 0.44691717E+01</totfact>
</mgrwt>
</event>
<event>
 4    1  0.1008211E-007  0.7066581E+03  0.7818608E-02  0.9970626E-01
         -1   -1    0    0    0  501 -0.00000000000E+00  0.00000000000E+00  0.50409802139E+03  0.50409802141E+03  0.50400000000E-02 0.  1.
          1   -1    0    0  501    0  0.00000000000E+00 -0.00000000000E+00 -0.57870880693E+03  0.57870880695E+03  0.50400000000E-02 0. -1.
    8880023    1    1    2    0    0  0.16940729534E+02  0.25547705464E+03  0.13346976619E+03  0.71915220817E+03  0.65864270000E+03 0.  0.
    8880022    1    1    2    0    0 -0.16940729534E+02 -0.25547705464E+03 -0.20808055173E+03  0.36365462020E+03  0.15294330000E+03 0.  1.
<mgrwt>
<rscale>  0 0.56957188E+03</rscale>
<asrwt>0</asrwt>
<pdfrwt beam="1">  1        1 0.89032125E-01 0.70665814E+03</pdfrwt>
<pdfrwt beam="2">  1       -1 0.77553541E-01 0.70665814E+03</pdfrwt>
<totfact> 0.61582981E+01</totfact>
</mgrwt>
</event>
<event>
 4    1  0.1008211E-007  0.1198864E+04  0.7818608E-02  0.9158227E-01
         -1   -1    0    0    0  501 -0.00000000000E+00  0.00000000000E+00  0.14923398894E+04  0.14923398894E+04  0.50400000000E-02 0.  1.
          1   -1    0    0  501    0  0.00000000000E+00 -0.00000000000E+00 -0.16384846966E+04  0.16384846966E+04  0.50400000000E-02 0. -1.
    8880023    1    1    2    0    0  0.99989759280E+03  0.60585282754E+02  0.10284306383E+04  0.15795396661E+04  0.65864270000E+03 0.  0.
    8880022    1    1    2    0    0 -0.99989759280E+03 -0.60585282754E+02 -0.11745754456E+04  0.15512849200E+04  0.15294330000E+03 0.  0.
<mgrwt>
<rscale>  0 0.11495195E+04</rscale>
<asrwt>0</asrwt>
<pdfrwt beam="1">  1        1 0.25207457E+00 0.11988645E+04</pdfrwt>
<pdfrwt beam="2">  1       -1 0.22959075E+00 0.11988645E+04</pdfrwt>
<totfact> 0.48912101E-01</totfact>
</mgrwt>
</event>
<event>
 4    1  0.1076885E-007  0.1556254E+04  0.7818608E-02  0.8870902E-01
          1   -1    0    0  501    0  0.00000000000E+00  0.00000000000E+00  0.23488679476E+04  0.23488679476E+04  0.50400000000E-02 0. -1.
         -1   -1    0    0    0  501 -0.00000000000E+00 -0.00000000000E+00 -0.16557812362E+04  0.16557812362E+04  0.50400000000E-02 0.  1.
    8880023    1    1    2    0    0 -0.91279852006E+03  0.10746691421E+04 -0.95844126243E+03  0.18277129870E+04  0.65864270000E+03 0.  0.
    8880022    1    1    2    0    0  0.91279852006E+03 -0.10746691421E+04  0.16515279739E+04  0.21769361968E+04  0.15294330000E+03 0.  0.
<mgrwt>
<rscale>  0 0.15205491E+04</rscale>
<asrwt>0</asrwt>
<pdfrwt beam="1">  1        1 0.36136430E+00 0.15562535E+04</pdfrwt>
<pdfrwt beam="2">  1       -1 0.25473558E+00 0.15562535E+04</pdfrwt>
<totfact> 0.10475156E-01</totfact>
</mgrwt>
</event>
<event>
 4    1  0.1008211E-007  0.8535582E+03  0.7818608E-02  0.9605126E-01
         -1   -1    0    0    0  501 -0.00000000000E+00  0.00000000000E+00  0.11103718299E+04  0.11103718299E+04  0.50400000000E-02 0.  1.
          1   -1    0    0  501    0  0.00000000000E+00 -0.00000000000E+00 -0.58748273479E+03  0.58748273482E+03  0.50400000000E-02 0. -1.
    8880023    1    1    2    0    0  0.43527400331E+03  0.32448104825E+03  0.70296220631E+03  0.11057655621E+04  0.65864270000E+03 0.  0.
    8880022    1    1    2    0    0 -0.43527400331E+03 -0.32448104825E+03 -0.18007311119E+03  0.59208900261E+03  0.15294330000E+03 0.  0.
<mgrwt>
<rscale>  0 0.76957804E+03</rscale>
<asrwt>0</asrwt>
<pdfrwt beam="1">  1        1 0.90381960E-01 0.85355821E+03</pdfrwt>
<pdfrwt beam="2">  1       -1 0.17082643E+00 0.85355821E+03</pdfrwt>
<totfact> 0.87260507E+00</totfact>
</mgrwt>
</event>
<event>
 4    1  0.1008211E-007  0.1068727E+04  0.7818608E-02  0.9296700E-01
          1   -1    0    0  501    0  0.00000000000E+00  0.00000000000E+00  0.87120346232E+03  0.87120346234E+03  0.50400000000E-02 0. -1.
         -1   -1    0    0    0  501 -0.00000000000E+00 -0.00000000000E+00 -0.18638308319E+04  0.18638308319E+04  0.50400000000E-02 0.  1.
    8880023    1    1    2    0    0  0.67701315852E+03 -0.50002107172E+03 -0.14212427256E+04  0.17782319816E+04  0.65864270000E+03 0.  1.
    8880022    1    1    2    0    0 -0.67701315852E+03  0.50002107172E+03  0.42861535606E+03  0.95680231262E+03  0.15294330000E+03 0.  0.
<mgrwt>
<rscale>  0 0.10108722E+04</rscale>
<asrwt>0</asrwt>
<pdfrwt beam="1">  1        1 0.13403130E+00 0.10687273E+04</pdfrwt>
<pdfrwt beam="2">  1       -1 0.28674320E+00 0.10687273E+04</pdfrwt>
<totfact> 0.77545349E-01</totfact>
</mgrwt>
</event>
<event>
 4    1  0.1008211E-007  0.9964606E+03  0.7818608E-02  0.9386203E-01
          1   -1    0    0  501    0  0.00000000000E+00  0.00000000000E+00  0.16831049253E+04  0.16831049253E+04  0.50400000000E-02 0. -1.
         -1   -1    0    0    0  501 -0.00000000000E+00 -0.00000000000E+00 -0.16311921915E+04  0.16311921915E+04  0.50400000000E-02 0.  1.
    8880023    1    1    2    0    0 -0.32446465908E+03  0.67368110176E+03 -0.13738087771E+04  0.16971400367E+04  0.65864270000E+03 0.  0.
    8880022    1    1    2    0    0  0.32446465908E+03 -0.67368110176E+03  0.14257215110E+04  0.16171570801E+04  0.15294330000E+03 0.  0.
<mgrwt>
<rscale>  0 0.93219873E+03</rscale>
<asrwt>0</asrwt>
<pdfrwt beam="1">  1        1 0.25893922E+00 0.99646061E+03</pdfrwt>
<pdfrwt beam="2">  1       -1 0.25095264E+00 0.99646061E+03</pdfrwt>
<totfact> 0.34098461E-01</totfact>
</mgrwt>
</event>
<event>
 4    1  0.1029167E-007  0.1377960E+04  0.7818608E-02  0.9001000E-01
          1   -1    0    0  501    0  0.00000000000E+00  0.00000000000E+00  0.41959770980E+04  0.41959770980E+04  0.50400000000E-02 0. -1.
         -1   -1    0    0    0  501 -0.00000000000E+00 -0.00000000000E+00 -0.15249440483E+04  0.15249440483E+04  0.50400000000E-02 0.  1.
    8880023    1    1    2    0    0  0.68166245920E+03 -0.10001497979E+04 -0.10963712051E+04  0.17609098081E+04  0.65864270000E+03 0.  0.
    8880022    1    1    2    0    0 -0.68166245920E+03  0.10001497979E+04  0.37674042548E+04  0.39600113382E+04  0.15294330000E+03 0.  0.
<mgrwt>
<rscale>  0 0.13366440E+04</rscale>
<asrwt>0</asrwt>
<pdfrwt beam="1">  1        1 0.64553495E+00 0.13779599E+04</pdfrwt>
<pdfrwt beam="2">  1       -1 0.23460677E+00 0.13779599E+04</pdfrwt>
<totfact> 0.55040743E-03</totfact>
</mgrwt>
</event>
<event>
 4    1  0.1008211E-007  0.7633581E+03  0.7818608E-02  0.9796490E-01
         -1   -1    0    0    0  501 -0.00000000000E+00  0.00000000000E+00  0.34542499036E+03  0.34542499039E+03  0.50400000000E-02 0.  1.
          1   -1    0    0  501    0  0.00000000000E+00 -0.00000000000E+00 -0.31826358151E+04  0.31826358151E+04  0.50400000000E-02 0. -1.
    8880023    1    1    2    0    0  0.36737196789E+03  0.11808145209E+03 -0.11213179438E+03  0.77154982839E+03  0.65864270000E+03 0.  1.
    8880022    1    1    2    0    0 -0.36737196789E+03 -0.11808145209E+03 -0.27250790303E+04  0.27565109771E+04  0.15294330000E+03 0.  0.
<mgrwt>
<rscale>  0 0.65551249E+03</rscale>
<asrwt>0</asrwt>
<pdfrwt beam="1">  1        1 0.48963626E+00 0.76335811E+03</pdfrwt>
<pdfrwt beam="2">  1       -1 0.53142308E-01 0.76335811E+03</pdfrwt>
<totfact> 0.16844408E+00</totfact>
</mgrwt>
</event>
<event>
 4    1  0.1008211E-007  0.6885584E+03  0.7818608E-02  0.1004845E+00
         -1   -1    0    0    0  501 -0.00000000000E+00  0.00000000000E+00  0.55523049554E+03  0.55523049556E+03  0.50400000000E-02 0.  1.
          1   -1    0    0  501    0  0.00000000000E+00 -0.00000000000E+00 -0.21457440535E+04  0.21457440535E+04  0.50400000000E-02 0. -1.
    8880023    1    1    2    0    0  0.16197866662E+03 -0.11859744575E+03  0.33027865400E+03  0.76367312256E+03  0.65864270000E+03 0.  1.
    8880022    1    1    2    0    0 -0.16197866662E+03  0.11859744575E+03 -0.19207922120E+04  0.19373014265E+04  0.15294330000E+03 0.  0.
<mgrwt>
<rscale>  0 0.53575715E+03</rscale>
<asrwt>0</asrwt>
<pdfrwt beam="1">  1        1 0.33011446E+00 0.68855838E+03</pdfrwt>
<pdfrwt beam="2">  1       -1 0.85420078E-01 0.68855838E+03</pdfrwt>
<totfact> 0.34290650E+00</totfact>
</mgrwt>
</event>
<event>
 4    1  0.1008211E-007  0.8945732E+03  0.7818608E-02  0.9534800E-01
          1   -1    0    0  501    0  0.00000000000E+00  0.00000000000E+00  0.16820182024E+04  0.16820182024E+04  0.50400000000E-02 0. -1.
         -1   -1    0    0    0  501 -0.00000000000E+00 -0.00000000000E+00 -0.64576339232E+03  0.64576339234E+03  0.50400000000E-02 0.  1.
    8880023    1    1    2    0    0 -0.47389747886E+03  0.37665927631E+03 -0.22324990704E+03  0.92200963019E+03  0.65864270000E+03 0.  0.
    8880022    1    1    2    0    0  0.47389747886E+03 -0.37665927631E+03  0.12595047171E+04  0.14057719645E+04  0.15294330000E+03 0.  0.
<mgrwt>
<rscale>  0 0.81766064E+03</rscale>
<asrwt>0</asrwt>
<pdfrwt beam="1">  1        1 0.25877203E+00 0.89457322E+03</pdfrwt>
<pdfrwt beam="2">  1       -1 0.99348214E-01 0.89457322E+03</pdfrwt>
<totfact> 0.48456177E+00</totfact>
</mgrwt>
</event>
<event>
 4    1  0.1008211E-007  0.1197580E+04  0.7818608E-02  0.9159478E-01
          1   -1    0    0  501    0  0.00000000000E+00  0.00000000000E+00  0.11180951394E+04  0.11180951394E+04  0.50400000000E-02 0. -1.
         -1   -1    0    0    0  501 -0.00000000000E+00 -0.00000000000E+00 -0.14085158405E+04  0.14085158405E+04  0.50400000000E-02 0.  1.
    8880023    1    1    2    0    0  0.70289293104E+03  0.71156810900E+03 -0.75239290424E+03  0.14143171267E+04  0.65864270000E+03 0.  1.
    8880022    1    1    2    0    0 -0.70289293104E+03 -0.71156810900E+03  0.46197220317E+03  0.11122938532E+04  0.15294330000E+03 0.  0.
<mgrwt>
<rscale>  0 0.11481647E+04</rscale>
<asrwt>0</asrwt>
<pdfrwt beam="1">  1        1 0.17201464E+00 0.11975800E+04</pdfrwt>
<pdfrwt beam="2">  1       -1 0.21669474E+00 0.11975800E+04</pdfrwt>
<totfact> 0.13959990E+00</totfact>
</mgrwt>
</event>
<event>
 4    1  0.1008211E-007  0.7649752E+03  0.7818608E-02  0.9792393E-01
          1   -1    0    0  501    0  0.00000000000E+00  0.00000000000E+00  0.22583803945E+04  0.22583803945E+04  0.50400000000E-02 0. -1.
         -1   -1    0    0    0  501 -0.00000000000E+00 -0.00000000000E+00 -0.52242666723E+03  0.52242666725E+03  0.50400000000E-02 0.  1.
    8880023    1    1    2    0    0 -0.37751529573E+03 -0.94122338670E+02 -0.20772621938E+03  0.79267723673E+03  0.65864270000E+03 0.  1.
    8880022    1    1    2    0    0  0.37751529573E+03  0.94122338670E+02  0.19436799466E+04  0.19881298250E+04  0.15294330000E+03 0.  0.
<mgrwt>
<rscale>  0 0.65772355E+03</rscale>
<asrwt>0</asrwt>
<pdfrwt beam="1">  1        1 0.34744313E+00 0.76497518E+03</pdfrwt>
<pdfrwt beam="2">  1       -1 0.80373334E-01 0.76497518E+03</pdfrwt>
<totfact> 0.32348019E+00</totfact>
</mgrwt>
</event>
<event>
 4    1  0.1008211E-007  0.1064720E+04  0.7818608E-02  0.9301392E-01
          1   -1    0    0  501    0  0.00000000000E+00  0.00000000000E+00  0.23622903379E+04  0.23622903379E+04  0.50400000000E-02 0. -1.
         -1   -1    0    0    0  501 -0.00000000000E+00 -0.00000000000E+00 -0.78394065357E+03  0.78394065358E+03  0.50400000000E-02 0.  1.
    8880023    1    1    2    0    0 -0.58289650588E+03  0.60004127637E+03 -0.28139010085E+03  0.11012758351E+04  0.65864270000E+03 0.  0.
    8880022    1    1    2    0    0  0.58289650588E+03 -0.60004127637E+03  0.18597397852E+04  0.20449551564E+04  0.15294330000E+03 0.  0.
<mgrwt>
<rscale>  0 0.10065480E+04</rscale>
<asrwt>0</asrwt>
<pdfrwt beam="1">  1        1 0.36342928E+00 0.10647197E+04</pdfrwt>
<pdfrwt beam="2">  1       -1 0.12060626E+00 0.10647197E+04</pdfrwt>
<totfact> 0.10375441E+00</totfact>
</mgrwt>
</event>
<event>
 4    1  0.1008211E-007  0.1114851E+04  0.7818608E-02  0.9244698E-01
         -1   -1    0    0    0  501 -0.00000000000E+00  0.00000000000E+00  0.23576995722E+04  0.23576995722E+04  0.50400000000E-02 0.  1.
          1   -1    0    0  501    0  0.00000000000E+00 -0.00000000000E+00 -0.80724916722E+03  0.80724916724E+03  0.50400000000E-02 0. -1.
    8880023    1    1    2    0    0 -0.86045444760E+03 -0.26210958350E+03  0.18876053637E+04  0.21922471360E+04  0.65864270000E+03 0.  0.
    8880022    1    1    2    0    0  0.86045444760E+03  0.26210958350E+03 -0.33715495868E+03  0.97270160344E+03  0.15294330000E+03 0.  0.
<mgrwt>
<rscale>  0 0.10603741E+04</rscale>
<asrwt>0</asrwt>
<pdfrwt beam="1">  1        1 0.12419218E+00 0.11148513E+04</pdfrwt>
<pdfrwt beam="2">  1       -1 0.36272301E+00 0.11148513E+04</pdfrwt>
<totfact> 0.27959470E-01</totfact>
</mgrwt>
</event>
<event>
 4    1  0.1008211E-007  0.6707501E+03  0.7818608E-02  0.1015131E+00
          1   -1    0    0  501    0  0.00000000000E+00  0.00000000000E+00  0.18422810790E+04  0.18422810790E+04  0.50400000000E-02 0. -1.
         -1   -1    0    0    0  501 -0.00000000000E+00 -0.00000000000E+00 -0.56768850926E+03  0.56768850928E+03  0.50400000000E-02 0.  1.
    8880023    1    1    2    0    0 -0.11880188468E+03 -0.44514635370E+02 -0.36142537056E+03  0.76192778222E+03  0.65864270000E+03 0.  1.
    8880022    1    1    2    0    0  0.11880188468E+03  0.44514635370E+02  0.16360179403E+04  0.16480418060E+04  0.15294330000E+03 0.  0.
<mgrwt>
<rscale>  0 0.49485440E+03</rscale>
<asrwt>0</asrwt>
<pdfrwt beam="1">  1        1 0.28342786E+00 0.67075006E+03</pdfrwt>
<pdfrwt beam="2">  1       -1 0.87336692E-01 0.67075006E+03</pdfrwt>
<totfact> 0.52273164E+00</totfact>
</mgrwt>
</event>
<event>
 4    1  0.1008211E-007  0.7289798E+03  0.7818608E-02  0.9893296E-01
         -1   -1    0    0    0  501 -0.00000000000E+00  0.00000000000E+00  0.91244526777E+03  0.91244526779E+03  0.50400000000E-02 0.  1.
          1   -1    0    0  501    0  0.00000000000E+00 -0.00000000000E+00 -0.13389222429E+04  0.13389222430E+04  0.50400000000E-02 0. -1.
    8880023    1    1    2    0    0 -0.27379158676E+03  0.15046452424E+03  0.73723190768E+03  0.10367846922E+04  0.65864270000E+03 0.  1.
    8880022    1    1    2    0    0  0.27379158676E+03 -0.15046452424E+03 -0.11637088828E+04  0.12145828185E+04  0.15294330000E+03 0.  0.
<mgrwt>
<rscale>  0 0.60587314E+03</rscale>
<asrwt>0</asrwt>
<pdfrwt beam="1">  1        1 0.20598804E+00 0.72897984E+03</pdfrwt>
<pdfrwt beam="2">  1       -1 0.14037619E+00 0.72897984E+03</pdfrwt>
<totfact> 0.36919761E+00</totfact>
</mgrwt>
</event>
<event>
 4    1  0.1008211E-007  0.7502260E+03  0.7818608E-02  0.9831102E-01
          1   -1    0    0  501    0  0.00000000000E+00  0.00000000000E+00  0.31202082487E+04  0.31202082487E+04  0.50400000000E-02 0. -1.
         -1   -1    0    0    0  501 -0.00000000000E+00 -0.00000000000E+00 -0.57883061298E+03  0.57883061300E+03  0.50400000000E-02 0.  1.
    8880023    1    1    2    0    0  0.37550161307E+02 -0.35723777925E+03 -0.31676289775E+03  0.81435728350E+03  0.65864270000E+03 0.  0.
    8880022    1    1    2    0    0 -0.37550161307E+02  0.35723777925E+03  0.28581405335E+04  0.28846815782E+04  0.15294330000E+03 0.  0.
<mgrwt>
<rscale>  0 0.63719815E+03</rscale>
<asrwt>0</asrwt>
<pdfrwt beam="1">  1        1 0.48003205E+00 0.75022600E+03</pdfrwt>
<pdfrwt beam="2">  1       -1 0.89050861E-01 0.75022600E+03</pdfrwt>
<totfact> 0.65347681E-01</totfact>
</mgrwt>
</event>
<event>
 4    1  0.1008211E-007  0.8294169E+03  0.7818608E-02  0.9650468E-01
          1   -1    0    0  501    0  0.00000000000E+00  0.00000000000E+00  0.99534617705E+03  0.99534617706E+03  0.50400000000E-02 0. -1.
         -1   -1    0    0    0  501 -0.00000000000E+00 -0.00000000000E+00 -0.16102476719E+04  0.16102476719E+04  0.50400000000E-02 0.  1.
    8880023    1    1    2    0    0  0.39593694961E+03 -0.31201942695E+03 -0.14193980948E+04  0.16439657383E+04  0.65864270000E+03 0.  1.
    8880022    1    1    2    0    0 -0.39593694961E+03  0.31201942695E+03  0.80449659997E+03  0.96162811067E+03  0.15294330000E+03 0.  0.
<mgrwt>
<rscale>  0 0.74044063E+03</rscale>
<asrwt>0</asrwt>
<pdfrwt beam="1">  1        1 0.15313018E+00 0.82941690E+03</pdfrwt>
<pdfrwt beam="2">  1       -1 0.24773041E+00 0.82941690E+03</pdfrwt>
<totfact> 0.11399716E+00</totfact>
</mgrwt>
</event>
<event>
 4    1  0.1008211E-007  0.1156222E+04  0.7818608E-02  0.9200899E-01
         -1   -1    0    0    0  501 -0.00000000000E+00  0.00000000000E+00  0.45917459595E+03  0.45917459598E+03  0.50400000000E-02 0.  1.
          1   -1    0    0  501    0  0.00000000000E+00 -0.00000000000E+00 -0.40580008367E+04  0.40580008367E+04  0.50400000000E-02 0. -1.
    8880023    1    1    2    0    0 -0.41624033646E+03  0.85427317059E+03 -0.47772008880E+03  0.12510257220E+04  0.65864270000E+03 0.  0.
    8880022    1    1    2    0    0  0.41624033646E+03 -0.85427317059E+03 -0.31211061519E+04  0.32661497106E+04  0.15294330000E+03 0.  0.
<mgrwt>
<rscale>  0 0.11044154E+04</rscale>
<asrwt>0</asrwt>
<pdfrwt beam="1">  1        1 0.62430780E+00 0.11562218E+04</pdfrwt>
<pdfrwt beam="2">  1       -1 0.70642248E-01 0.11562218E+04</pdfrwt>
<totfact> 0.17717621E-01</totfact>
</mgrwt>
</event>
<event>
 4    1  0.1008211E-007  0.9029193E+03  0.7818608E-02  0.9521361E-01
          1   -1    0    0  501    0  0.00000000000E+00  0.00000000000E+00  0.17159831180E+04  0.17159831180E+04  0.50400000000E-02 0. -1.
         -1   -1    0    0    0  501 -0.00000000000E+00 -0.00000000000E+00 -0.67958232973E+03  0.67958232975E+03  0.50400000000E-02 0.  1.
    8880023    1    1    2    0    0 -0.56870377074E+03 -0.24089242933E+03 -0.27002661754E+03  0.94243181281E+03  0.65864270000E+03 0.  1.
    8880022    1    1    2    0    0  0.56870377074E+03  0.24089242933E+03  0.13064274058E+04  0.14531336350E+04  0.15294330000E+03 0.  0.
<mgrwt>
<rscale>  0 0.82727098E+03</rscale>
<asrwt>0</asrwt>
<pdfrwt beam="1">  1        1 0.26399740E+00 0.90291935E+03</pdfrwt>
<pdfrwt beam="2">  1       -1 0.10455113E+00 0.90291935E+03</pdfrwt>
<totfact> 0.40808494E+00</totfact>
</mgrwt>
</event>
<event>
 4    1  0.1008211E-007  0.1051518E+04  0.7818608E-02  0.9317059E-01
         -1   -1    0    0    0  501 -0.00000000000E+00  0.00000000000E+00  0.25146589143E+04  0.25146589143E+04  0.50400000000E-02 0.  1.
          1   -1    0    0  501    0  0.00000000000E+00 -0.00000000000E+00 -0.76205615032E+03  0.76205615033E+03  0.50400000000E-02 0. -1.
    8880023    1    1    2    0    0 -0.35734612673E+03  0.73768818188E+03  0.21192932609E+04  0.23658178797E+04  0.65864270000E+03 0.  1.
    8880022    1    1    2    0    0  0.35734612673E+03 -0.73768818188E+03 -0.36669049692E+03  0.91089718493E+03  0.15294330000E+03 0.  0.
<mgrwt>
<rscale>  0 0.99227463E+03</rscale>
<asrwt>0</asrwt>
<pdfrwt beam="1">  1        1 0.11723941E+00 0.10515181E+04</pdfrwt>
<pdfrwt beam="2">  1       -1 0.38687060E+00 0.10515181E+04</pdfrwt>
<totfact> 0.21325626E-01</totfact>
</mgrwt>
</event>
<event>
 4    1  0.1008211E-007  0.8284889E+03  0.7818608E-02  0.9652280E-01
         -1   -1    0    0    0  501 -0.00000000000E+00  0.00000000000E+00  0.31370465362E+03  0.31370465366E+03  0.50400000000E-02 0.  1.
          1   -1    0    0  501    0  0.00000000000E+00 -0.00000000000E+00 -0.21966051842E+04  0.21966051842E+04  0.50400000000E-02 0. -1.
    8880023    1    1    2    0    0 -0.69648917964E+02  0.49772755479E+03 -0.36732157704E+03  0.90626653795E+03  0.65864270000E+03 0.  1.
    8880022    1    1    2    0    0  0.69648917964E+02 -0.49772755479E+03 -0.15155789535E+04  0.16040432999E+04  0.15294330000E+03 0.  0.
<mgrwt>
<rscale>  0 0.73930529E+03</rscale>
<asrwt>0</asrwt>
<pdfrwt beam="1">  1        1 0.33793925E+00 0.82848892E+03</pdfrwt>
<pdfrwt beam="2">  1       -1 0.48262256E-01 0.82848892E+03</pdfrwt>
<totfact> 0.97460076E+00</totfact>
</mgrwt>
</event>
<event>
 4    1  0.1008211E-007  0.1808209E+04  0.7818608E-02  0.8718009E-01
         -1   -1    0    0    0  501 -0.00000000000E+00  0.00000000000E+00  0.15040078914E+04  0.15040078915E+04  0.50400000000E-02 0.  1.
          1   -1    0    0  501    0  0.00000000000E+00 -0.00000000000E+00 -0.28366618890E+04  0.28366618890E+04  0.50400000000E-02 0. -1.
    8880023    1    1    2    0    0 -0.15741635131E+04  0.59817905122E+03  0.47080073698E+03  0.18684947106E+04  0.65864270000E+03 0.  0.
    8880022    1    1    2    0    0  0.15741635131E+04 -0.59817905122E+03 -0.18034547345E+04  0.24721750698E+04  0.15294330000E+03 0.  0.
<mgrwt>
<rscale>  0 0.17781444E+04</rscale>
<asrwt>0</asrwt>
<pdfrwt beam="1">  1        1 0.43640952E+00 0.18082088E+04</pdfrwt>
<pdfrwt beam="2">  1       -1 0.23138583E+00 0.18082088E+04</pdfrwt>
<totfact> 0.65976063E-02</totfact>
</mgrwt>
</event>
<event>
 4    1  0.1008211E-007  0.9567025E+03  0.7818608E-02  0.9440536E-01
         -1   -1    0    0    0  501 -0.00000000000E+00  0.00000000000E+00  0.49776316514E+03  0.49776316517E+03  0.50400000000E-02 0.  1.
          1   -1    0    0  501    0  0.00000000000E+00 -0.00000000000E+00 -0.32186542386E+04  0.32186542386E+04  0.50400000000E-02 0. -1.
    8880023    1    1    2    0    0 -0.14070681642E+03  0.67946375696E+03 -0.55903089077E+02  0.95833437110E+03  0.65864270000E+03 0.  1.
    8880022    1    1    2    0    0  0.14070681642E+03 -0.67946375696E+03 -0.26649879844E+04  0.27580830326E+04  0.15294330000E+03 0.  0.
<mgrwt>
<rscale>  0 0.88813535E+03</rscale>
<asrwt>0</asrwt>
<pdfrwt beam="1">  1        1 0.49517756E+00 0.95670247E+03</pdfrwt>
<pdfrwt beam="2">  1       -1 0.76578951E-01 0.95670247E+03</pdfrwt>
<totfact> 0.73314876E-01</totfact>
</mgrwt>
</event>
<event>
 4    1  0.1008211E-007  0.8622446E+03  0.7818608E-02  0.9589583E-01
          1   -1    0    0  501    0  0.00000000000E+00  0.00000000000E+00  0.19711642552E+04  0.19711642552E+04  0.50400000000E-02 0. -1.
         -1   -1    0    0    0  501 -0.00000000000E+00 -0.00000000000E+00 -0.44717287376E+03  0.44717287379E+03  0.50400000000E-02 0.  1.
    8880023    1    1    2    0    0  0.17547576194E+03  0.52807564496E+03  0.83180980894E+02  0.86624760414E+03  0.65864270000E+03 0.  1.
    8880022    1    1    2    0    0 -0.17547576194E+03 -0.52807564496E+03  0.14408104005E+04  0.15520895248E+04  0.15294330000E+03 0.  0.
<mgrwt>
<rscale>  0 0.77989497E+03</rscale>
<asrwt>0</asrwt>
<pdfrwt beam="1">  1        1 0.30325605E+00 0.86224465E+03</pdfrwt>
<pdfrwt beam="2">  1       -1 0.68795825E-01 0.86224465E+03</pdfrwt>
<totfact> 0.68621693E+00</totfact>
</mgrwt>
</event>
<event>
 4    1  0.1008211E-007  0.1220005E+04  0.7818608E-02  0.9137917E-01
         -1   -1    0    0    0  501 -0.00000000000E+00  0.00000000000E+00  0.11061645724E+04  0.11061645724E+04  0.50400000000E-02 0.  1.
          1   -1    0    0  501    0  0.00000000000E+00 -0.00000000000E+00 -0.16784973438E+04  0.16784973438E+04  0.50400000000E-02 0. -1.
    8880023    1    1    2    0    0  0.10151670679E+04 -0.15503914027E+03  0.47564836579E+03  0.13094475495E+04  0.65864270000E+03 0.  0.
    8880022    1    1    2    0    0 -0.10151670679E+04  0.15503914027E+03 -0.10479811372E+04  0.14752143667E+04  0.15294330000E+03 0.  0.
<mgrwt>
<rscale>  0 0.11717855E+04</rscale>
<asrwt>0</asrwt>
<pdfrwt beam="1">  1        1 0.25823036E+00 0.12200047E+04</pdfrwt>
<pdfrwt beam="2">  1       -1 0.17017916E+00 0.12200047E+04</pdfrwt>
<totfact> 0.11830900E+00</totfact>
</mgrwt>
</event>
<event>
 4    1  0.1008211E-007  0.7114764E+03  0.7818608E-02  0.9952559E-01
         -1   -1    0    0    0  501 -0.00000000000E+00  0.00000000000E+00  0.52745204864E+03  0.52745204866E+03  0.50400000000E-02 0.  1.
          1   -1    0    0  501    0  0.00000000000E+00 -0.00000000000E+00 -0.15169818295E+04  0.15169818295E+04  0.50400000000E-02 0. -1.
    8880023    1    1    2    0    0  0.11118049180E+03 -0.24500468891E+03  0.25973596593E+03  0.75740436862E+03  0.65864270000E+03 0.  1.
    8880022    1    1    2    0    0 -0.11118049180E+03  0.24500468891E+03 -0.12492657468E+04  0.12870295096E+04  0.15294330000E+03 0.  0.
<mgrwt>
<rscale>  0 0.57780293E+03</rscale>
<asrwt>0</asrwt>
<pdfrwt beam="1">  1        1 0.23338182E+00 0.71147636E+03</pdfrwt>
<pdfrwt beam="2">  1       -1 0.81146470E-01 0.71147636E+03</pdfrwt>
<totfact> 0.10065726E+01</totfact>
</mgrwt>
</event>
<event>
 4    1  0.1008211E-007  0.1038742E+04  0.7818608E-02  0.9332539E-01
         -1   -1    0    0    0  501 -0.00000000000E+00  0.00000000000E+00  0.13344599556E+04  0.13344599556E+04  0.50400000000E-02 0.  1.
          1   -1    0    0  501    0  0.00000000000E+00 -0.00000000000E+00 -0.92884436057E+03  0.92884436059E+03  0.50400000000E-02 0. -1.
    8880023    1    1    2    0    0  0.87299626639E+02 -0.79846989906E+03  0.84140037186E+03  0.13367648247E+04  0.65864270000E+03 0.  1.
    8880022    1    1    2    0    0 -0.87299626639E+02  0.79846989906E+03 -0.43578477685E+03  0.92653949148E+03  0.15294330000E+03 0.  0.
<mgrwt>
<rscale>  0 0.97841700E+03</rscale>
<asrwt>0</asrwt>
<pdfrwt beam="1">  1        1 0.14289913E+00 0.10387423E+04</pdfrwt>
<pdfrwt beam="2">  1       -1 0.20530153E+00 0.10387423E+04</pdfrwt>
<totfact> 0.23845570E+00</totfact>
</mgrwt>
</event>
<event>
 4    1  0.1008211E-007  0.1385045E+04  0.7818608E-02  0.8995391E-01
         -1   -1    0    0    0  501 -0.00000000000E+00  0.00000000000E+00  0.19276862470E+04  0.19276862470E+04  0.50400000000E-02 0.  1.
          1   -1    0    0  501    0  0.00000000000E+00 -0.00000000000E+00 -0.12988067796E+04  0.12988067797E+04  0.50400000000E-02 0. -1.
    8880023    1    1    2    0    0 -0.11366642843E+04  0.43878636459E+03  0.12362495312E+04  0.18565188603E+04  0.65864270000E+03 0.  0.
    8880022    1    1    2    0    0  0.11366642843E+04 -0.43878636459E+03 -0.60737006387E+03  0.13699741664E+04  0.15294330000E+03 0.  0.
<mgrwt>
<rscale>  0 0.13439885E+04</rscale>
<asrwt>0</asrwt>
<pdfrwt beam="1">  1        1 0.19981643E+00 0.13850449E+04</pdfrwt>
<pdfrwt beam="2">  1       -1 0.29656711E+00 0.13850449E+04</pdfrwt>
<totfact> 0.30256201E-01</totfact>
</mgrwt>
</event>
<event>
 4    1  0.1008211E-007  0.7450104E+03  0.7818608E-02  0.9845585E-01
          1   -1    0    0  501    0  0.00000000000E+00  0.00000000000E+00  0.13687926549E+04  0.13687926549E+04  0.50400000000E-02 0. -1.
         -1   -1    0    0    0  501 -0.00000000000E+00 -0.00000000000E+00 -0.35933564531E+03  0.35933564534E+03  0.50400000000E-02 0.  1.
    8880023    1    1    2    0    0  0.14091817702E+03 -0.31839036701E+03  0.11194745577E+03  0.75337427454E+03  0.65864270000E+03 0.  0.
    8880022    1    1    2    0    0 -0.14091817702E+03  0.31839036701E+03  0.89750955385E+03  0.97475402573E+03  0.15294330000E+03 0.  0.
<mgrwt>
<rscale>  0 0.62972520E+03</rscale>
<asrwt>0</asrwt>
<pdfrwt beam="1">  1        1 0.21058348E+00 0.74501045E+03</pdfrwt>
<pdfrwt beam="2">  1       -1 0.55282407E-01 0.74501045E+03</pdfrwt>
<totfact> 0.27582661E+01</totfact>
</mgrwt>
</event>
<event>
 4    1  0.1008211E-007  0.7703765E+03  0.7818608E-02  0.9778948E-01
          1   -1    0    0  501    0  0.00000000000E+00  0.00000000000E+00  0.23450898162E+04  0.23450898162E+04  0.50400000000E-02 0. -1.
         -1   -1    0    0    0  501 -0.00000000000E+00 -0.00000000000E+00 -0.35312286966E+03  0.35312286970E+03  0.50400000000E-02 0.  1.
    8880023    1    1    2    0    0 -0.24665933696E+03 -0.31437069568E+03  0.12206665689E+03  0.77998733182E+03  0.65864270000E+03 0.  1.
    8880022    1    1    2    0    0  0.24665933696E+03  0.31437069568E+03  0.18699002897E+04  0.19182253541E+04  0.15294330000E+03 0.  0.
<mgrwt>
<rscale>  0 0.66504629E+03</rscale>
<asrwt>0</asrwt>
<pdfrwt beam="1">  1        1 0.36078303E+00 0.77037651E+03</pdfrwt>
<pdfrwt beam="2">  1       -1 0.54326599E-01 0.77037651E+03</pdfrwt>
<totfact> 0.62324758E+00</totfact>
</mgrwt>
</event>
<event>
 4    1  0.1008211E-007  0.7311746E+03  0.7818608E-02  0.9886443E-01
         -1   -1    0    0    0  501 -0.00000000000E+00  0.00000000000E+00  0.54923650457E+03  0.54923650459E+03  0.50400000000E-02 0.  1.
          1   -1    0    0  501    0  0.00000000000E+00 -0.00000000000E+00 -0.20574811524E+04  0.20574811524E+04  0.50400000000E-02 0. -1.
    8880023    1    1    2    0    0 -0.22444990168E+03 -0.22456267857E+03  0.28083929126E+03  0.78325415336E+03  0.65864270000E+03 0.  1.
    8880022    1    1    2    0    0  0.22444990168E+03  0.22456267857E+03 -0.17890839391E+04  0.18234635037E+04  0.15294330000E+03 0.  0.
<mgrwt>
<rscale>  0 0.60922832E+03</rscale>
<asrwt>0</asrwt>
<pdfrwt beam="1">  1        1 0.31653556E+00 0.73117464E+03</pdfrwt>
<pdfrwt beam="2">  1       -1 0.84497925E-01 0.73117464E+03</pdfrwt>
<totfact> 0.39877458E+00</totfact>
</mgrwt>
</event>
<event>
 4    1  0.1008211E-007  0.6730548E+03  0.7818608E-02  0.1013561E+00
          1   -1    0    0  501    0  0.00000000000E+00  0.00000000000E+00  0.22120653414E+04  0.22120653414E+04  0.50400000000E-02 0. -1.
         -1   -1    0    0    0  501 -0.00000000000E+00 -0.00000000000E+00 -0.80588671472E+03  0.80588671473E+03  0.50400000000E-02 0.  1.
    8880023    1    1    2    0    0  0.13747199828E+03  0.17145442830E+02 -0.65931367877E+03  0.94217686758E+03  0.65864270000E+03 0.  1.
    8880022    1    1    2    0    0 -0.13747199828E+03 -0.17145442830E+02  0.20654923054E+04  0.20757751885E+04  0.15294330000E+03 0.  0.
<mgrwt>
<rscale>  0 0.50083403E+03</rscale>
<asrwt>0</asrwt>
<pdfrwt beam="1">  1        1 0.34031774E+00 0.67305477E+03</pdfrwt>
<pdfrwt beam="2">  1       -1 0.12398257E+00 0.67305477E+03</pdfrwt>
<totfact> 0.13174516E+00</totfact>
</mgrwt>
</event>
<event>
 4    1  0.1008211E-007  0.1631674E+04  0.7818608E-02  0.8821850E-01
          1   -1    0    0  501    0  0.00000000000E+00  0.00000000000E+00  0.35436598098E+04  0.35436598098E+04  0.50400000000E-02 0. -1.
         -1   -1    0    0    0  501 -0.00000000000E+00 -0.00000000000E+00 -0.94281637603E+03  0.94281637605E+03  0.50400000000E-02 0.  1.
    8880023    1    1    2    0    0 -0.31000889558E+03  0.14602888233E+04  0.18450458843E+03  0.16420722006E+04  0.65864270000E+03 0.  0.
    8880022    1    1    2    0    0  0.31000889558E+03 -0.14602888233E+04  0.24163388454E+04  0.28444039853E+04  0.15294330000E+03 0.  0.
<mgrwt>
<rscale>  0 0.15978816E+04</rscale>
<asrwt>0</asrwt>
<pdfrwt beam="1">  1        1 0.54517844E+00 0.16316737E+04</pdfrwt>
<pdfrwt beam="2">  1       -1 0.14504867E+00 0.16316737E+04</pdfrwt>
<totfact> 0.82902194E-02</totfact>
</mgrwt>
</event>
<event>
 4    1  0.1008211E-007  0.1186961E+04  0.7818608E-02  0.9169903E-01
          1   -1    0    0  501    0  0.00000000000E+00  0.00000000000E+00  0.26943347623E+04  0.26943347623E+04  0.50400000000E-02 0. -1.
         -1   -1    0    0    0  501 -0.00000000000E+00 -0.00000000000E+00 -0.49897023971E+03  0.49897023974E+03  0.50400000000E-02 0.  1.
    8880023    1    1    2    0    0  0.34222823306E+02  0.98686076183E+03  0.65070240842E+03  0.13536207724E+04  0.65864270000E+03 0.  0.
    8880022    1    1    2    0    0 -0.34222823306E+02 -0.98686076183E+03  0.15446621141E+04  0.18396842296E+04  0.15294330000E+03 0.  0.
<mgrwt>
<rscale>  0 0.11369554E+04</rscale>
<asrwt>0</asrwt>
<pdfrwt beam="1">  1        1 0.41451304E+00 0.11869606E+04</pdfrwt>
<pdfrwt beam="2">  1       -1 0.76764653E-01 0.11869606E+04</pdfrwt>
<totfact> 0.16796840E+00</totfact>
</mgrwt>
</event>
<event>
 4    1  0.1008211E-007  0.6859953E+03  0.7818608E-02  0.1006117E+00
          1   -1    0    0  501    0  0.00000000000E+00  0.00000000000E+00  0.16670176798E+04  0.16670176798E+04  0.50400000000E-02 0. -1.
         -1   -1    0    0    0  501 -0.00000000000E+00 -0.00000000000E+00 -0.85788029480E+03  0.85788029482E+03  0.50400000000E-02 0.  1.
    8880023    1    1    2    0    0  0.18124480203E+03 -0.62686528740E+02 -0.70930845022E+03  0.98676641763E+03  0.65864270000E+03 0.  1.
    8880022    1    1    2    0    0 -0.18124480203E+03  0.62686528740E+02  0.15184458352E+04  0.15381315570E+04  0.15294330000E+03 0.  0.
<mgrwt>
<rscale>  0 0.53047409E+03</rscale>
<asrwt>0</asrwt>
<pdfrwt beam="1">  1        1 0.25646426E+00 0.68599525E+03</pdfrwt>
<pdfrwt beam="2">  1       -1 0.13198158E+00 0.68599525E+03</pdfrwt>
<totfact> 0.25995419E+00</totfact>
</mgrwt>
</event>
<event>
 4    1  0.1008211E-007  0.6687924E+03  0.7818608E-02  0.1016544E+00
          1   -1    0    0  501    0  0.00000000000E+00  0.00000000000E+00  0.34219580491E+03  0.34219580495E+03  0.50400000000E-02 0. -1.
         -1   -1    0    0    0  501 -0.00000000000E+00 -0.00000000000E+00 -0.10126101855E+04  0.10126101855E+04  0.50400000000E-02 0.  1.
    8880023    1    1    2    0    0  0.11600618600E+03  0.39519250683E+01 -0.85700117414E+03  0.10870760193E+04  0.65864270000E+03 0.  1.
    8880022    1    1    2    0    0 -0.11600618600E+03 -0.39519250683E+01  0.18658679360E+03  0.26772997117E+03  0.15294330000E+03 0.  0.
<mgrwt>
<rscale>  0 0.48954750E+03</rscale>
<asrwt>0</asrwt>
<pdfrwt beam="1">  1        1 0.52645509E-01 0.66879239E+03</pdfrwt>
<pdfrwt beam="2">  1       -1 0.15578618E+00 0.66879239E+03</pdfrwt>
<totfact> 0.23992029E+01</totfact>
</mgrwt>
</event>
<event>
 4    1  0.1008211E-007  0.7027179E+03  0.7818608E-02  0.9986108E-01
         -1   -1    0    0    0  501 -0.00000000000E+00  0.00000000000E+00  0.89564935124E+03  0.89564935125E+03  0.50400000000E-02 0.  1.
          1   -1    0    0  501    0  0.00000000000E+00 -0.00000000000E+00 -0.10599853505E+04  0.10599853505E+04  0.50400000000E-02 0. -1.
    8880023    1    1    2    0    0 -0.85700111532E+01  0.24480359386E+03  0.73153238416E+03  0.10143727520E+04  0.65864270000E+03 0.  1.
    8880022    1    1    2    0    0  0.85700111532E+01 -0.24480359386E+03 -0.89586838340E+03  0.94126194975E+03  0.15294330000E+03 0.  0.
<mgrwt>
<rscale>  0 0.56263604E+03</rscale>
<asrwt>0</asrwt>
<pdfrwt beam="1">  1        1 0.16307467E+00 0.70271790E+03</pdfrwt>
<pdfrwt beam="2">  1       -1 0.13779221E+00 0.70271790E+03</pdfrwt>
<totfact> 0.61991812E+00</totfact>
</mgrwt>
</event>
<event>
 4    1  0.1008211E-007  0.7411077E+03  0.7818608E-02  0.9856732E-01
         -1   -1    0    0    0  501 -0.00000000000E+00  0.00000000000E+00  0.24443557203E+03  0.24443557208E+03  0.50400000000E-02 0.  1.
          1   -1    0    0  501    0  0.00000000000E+00 -0.00000000000E+00 -0.27416522262E+04  0.27416522262E+04  0.50400000000E-02 0. -1.
    8880023    1    1    2    0    0  0.22387684847E+03 -0.25555745908E+03 -0.37344444775E+03  0.82988036487E+03  0.65864270000E+03 0.  0.
    8880022    1    1    2    0    0 -0.22387684847E+03  0.25555745908E+03 -0.21237722064E+04  0.21562074334E+04  0.15294330000E+03 0.  0.
<mgrwt>
<rscale>  0 0.62404849E+03</rscale>
<asrwt>0</asrwt>
<pdfrwt beam="1">  1        1 0.42179263E+00 0.74110773E+03</pdfrwt>
<pdfrwt beam="2">  1       -1 0.37605475E-01 0.74110773E+03</pdfrwt>
<totfact> 0.66409156E+00</totfact>
</mgrwt>
</event>
<event>
 4    1  0.1008211E-007  0.8237891E+03  0.7818608E-02  0.9661540E-01
          1   -1    0    0  501    0  0.00000000000E+00  0.00000000000E+00  0.21414638506E+04  0.21414638506E+04  0.50400000000E-02 0. -1.
         -1   -1    0    0    0  501 -0.00000000000E+00 -0.00000000000E+00 -0.35992269583E+03  0.35992269586E+03  0.50400000000E-02 0.  1.
    8880023    1    1    2    0    0 -0.25119575314E+03  0.42628509914E+03  0.21489146780E+03  0.85135588407E+03  0.65864270000E+03 0.  1.
    8880022    1    1    2    0    0  0.25119575314E+03 -0.42628509914E+03  0.15666496869E+04  0.16500306624E+04  0.15294330000E+03 0.  0.
<mgrwt>
<rscale>  0 0.73353594E+03</rscale>
<asrwt>0</asrwt>
<pdfrwt beam="1">  1        1 0.32945598E+00 0.82378911E+03</pdfrwt>
<pdfrwt beam="2">  1       -1 0.55372721E-01 0.82378911E+03</pdfrwt>
<totfact> 0.81687377E+00</totfact>
</mgrwt>
</event>
<event>
 4    1  0.1008211E-007  0.7762769E+03  0.7818608E-02  0.9764656E-01
         -1   -1    0    0    0  501 -0.00000000000E+00  0.00000000000E+00  0.85542170694E+03  0.85542170695E+03  0.50400000000E-02 0.  1.
          1   -1    0    0  501    0  0.00000000000E+00 -0.00000000000E+00 -0.12661259752E+04  0.12661259753E+04  0.50400000000E-02 0. -1.
    8880023    1    1    2    0    0 -0.16357212175E+03 -0.37688170705E+03  0.62517654968E+03  0.99672041449E+03  0.65864270000E+03 0.  1.
    8880022    1    1    2    0    0  0.16357212175E+03  0.37688170705E+03 -0.10358808180E+04  0.11248272677E+04  0.15294330000E+03 0.  0.
<mgrwt>
<rscale>  0 0.67294272E+03</rscale>
<asrwt>0</asrwt>
<pdfrwt beam="1">  1        1 0.19478861E+00 0.77627693E+03</pdfrwt>
<pdfrwt beam="2">  1       -1 0.13160334E+00 0.77627693E+03</pdfrwt>
<totfact> 0.48668575E+00</totfact>
</mgrwt>
</event>
<event>
 4    1  0.1008211E-007  0.7554806E+03  0.7818608E-02  0.9816951E-01
          1   -1    0    0  501    0  0.00000000000E+00  0.00000000000E+00  0.15412702309E+04  0.15412702310E+04  0.50400000000E-02 0. -1.
         -1   -1    0    0    0  501 -0.00000000000E+00 -0.00000000000E+00 -0.58620511938E+03  0.58620511941E+03  0.50400000000E-02 0.  1.
    8880023    1    1    2    0    0 -0.32399707387E+03  0.17879192381E+03 -0.29789322174E+03  0.81209065609E+03  0.65864270000E+03 0.  1.
    8880022    1    1    2    0    0  0.32399707387E+03 -0.17879192381E+03  0.12529583333E+04  0.13153846943E+04  0.15294330000E+03 0.  0.
<mgrwt>
<rscale>  0 0.64460712E+03</rscale>
<asrwt>0</asrwt>
<pdfrwt beam="1">  1        1 0.23711850E+00 0.75548055E+03</pdfrwt>
<pdfrwt beam="2">  1       -1 0.90185403E-01 0.75548055E+03</pdfrwt>
<totfact> 0.76560729E+00</totfact>
</mgrwt>
</event>
<event>
 4    1  0.1008211E-007  0.1429626E+04  0.7818608E-02  0.8960998E-01
         -1   -1    0    0    0  501 -0.00000000000E+00  0.00000000000E+00  0.37818123934E+04  0.37818123934E+04  0.50400000000E-02 0.  1.
          1   -1    0    0  501    0  0.00000000000E+00 -0.00000000000E+00 -0.53334995672E+03  0.53334995675E+03  0.50400000000E-02 0. -1.
    8880023    1    1    2    0    0 -0.11887836551E+04 -0.44363838645E+03  0.23578508596E+04  0.27574068396E+04  0.65864270000E+03 0.  0.
    8880022    1    1    2    0    0  0.11887836551E+04  0.44363838645E+03  0.89061157713E+03  0.15577555106E+04  0.15294330000E+03 0.  0.
<mgrwt>
<rscale>  0 0.13901253E+04</rscale>
<asrwt>0</asrwt>
<pdfrwt beam="1">  1        1 0.82053843E-01 0.14296265E+04</pdfrwt>
<pdfrwt beam="2">  1       -1 0.58181727E+00 0.14296265E+04</pdfrwt>
<totfact> 0.20004185E-02</totfact>
</mgrwt>
</event>
<event>
 4    1  0.1008211E-007  0.8296333E+03  0.7818608E-02  0.9650046E-01
          1   -1    0    0  501    0  0.00000000000E+00  0.00000000000E+00  0.70571856166E+03  0.70571856168E+03  0.50400000000E-02 0. -1.
         -1   -1    0    0    0  501 -0.00000000000E+00 -0.00000000000E+00 -0.94334024260E+03  0.94334024261E+03  0.50400000000E-02 0.  1.
    8880023    1    1    2    0    0  0.33002664691E+03 -0.38152807123E+03 -0.58731386357E+03  0.10164787442E+04  0.65864270000E+03 0.  1.
    8880022    1    1    2    0    0 -0.33002664691E+03  0.38152807123E+03  0.34969218264E+03  0.63258006009E+03  0.15294330000E+03 0.  0.
<mgrwt>
<rscale>  0 0.74070524E+03</rscale>
<asrwt>0</asrwt>
<pdfrwt beam="1">  1        1 0.10857209E+00 0.82963333E+03</pdfrwt>
<pdfrwt beam="2">  1       -1 0.14512927E+00 0.82963333E+03</pdfrwt>
<totfact> 0.10466506E+01</totfact>
</mgrwt>
</event>
<event>
 4    1  0.1008211E-007  0.1481216E+04  0.7818608E-02  0.8923015E-01
          1   -1    0    0  501    0  0.00000000000E+00  0.00000000000E+00  0.14629429073E+04  0.14629429074E+04  0.50400000000E-02 0. -1.
         -1   -1    0    0    0  501 -0.00000000000E+00 -0.00000000000E+00 -0.13898635910E+04  0.13898635910E+04  0.50400000000E-02 0.  1.
    8880023    1    1    2    0    0 -0.67258062435E+03 -0.11436017004E+04  0.26134294695E+03  0.15040943745E+04  0.65864270000E+03 0.  1.
    8880022    1    1    2    0    0  0.67258062435E+03  0.11436017004E+04 -0.18826363062E+03  0.13487121238E+04  0.15294330000E+03 0. -1.
<mgrwt>
<rscale>  0 0.14433622E+04</rscale>
<asrwt>0</asrwt>
<pdfrwt beam="1">  1        1 0.22506814E+00 0.14812156E+04</pdfrwt>
<pdfrwt beam="2">  1       -1 0.21382517E+00 0.14812156E+04</pdfrwt>
<totfact> 0.79791009E-01</totfact>
</mgrwt>
</event>
<event>
 4    1  0.1008211E-007  0.7268401E+03  0.7818608E-02  0.9900086E-01
         -1   -1    0    0    0  501 -0.00000000000E+00  0.00000000000E+00  0.18181748999E+04  0.18181748999E+04  0.50400000000E-02 0.  1.
          1   -1    0    0  501    0  0.00000000000E+00 -0.00000000000E+00 -0.29127764133E+03  0.29127764137E+03  0.50400000000E-02 0. -1.
    8880023    1    1    2    0    0 -0.28000063177E+03 -0.12683069180E+03  0.16009531414E+04  0.17582228373E+04  0.65864270000E+03 0. -1.
    8880022    1    1    2    0    0  0.28000063177E+03  0.12683069180E+03 -0.74055882867E+02  0.35122970401E+03  0.15294330000E+03 0.  0.
<mgrwt>
<rscale>  0 0.60257108E+03</rscale>
<asrwt>0</asrwt>
<pdfrwt beam="1">  1        1 0.44811945E-01 0.72684014E+03</pdfrwt>
<pdfrwt beam="2">  1       -1 0.27971922E+00 0.72684014E+03</pdfrwt>
<totfact> 0.42648141E+00</totfact>
</mgrwt>
</event>
<event>
 4    1  0.1008211E-007  0.1217234E+04  0.7818608E-02  0.9140549E-01
         -1   -1    0    0    0  501 -0.00000000000E+00  0.00000000000E+00  0.55497899525E+03  0.55497899527E+03  0.50400000000E-02 0.  1.
          1   -1    0    0  501    0  0.00000000000E+00 -0.00000000000E+00 -0.34331432693E+04  0.34331432693E+04  0.50400000000E-02 0. -1.
    8880023    1    1    2    0    0  0.50797272199E+03 -0.88871375316E+03 -0.36595004738E+03  0.12710539189E+04  0.65864270000E+03 0.  0.
    8880022    1    1    2    0    0 -0.50797272199E+03  0.88871375316E+03 -0.25122142267E+04  0.27170683457E+04  0.15294330000E+03 0.  0.
<mgrwt>
<rscale>  0 0.11688705E+04</rscale>
<asrwt>0</asrwt>
<pdfrwt beam="1">  1        1 0.52817587E+00 0.12172340E+04</pdfrwt>
<pdfrwt beam="2">  1       -1 0.85381386E-01 0.12172340E+04</pdfrwt>
<totfact> 0.38296368E-01</totfact>
</mgrwt>
</event>
<event>
 4    1  0.1008211E-007  0.1007800E+04  0.7818608E-02  0.9371424E-01
         -1   -1    0    0    0  501 -0.00000000000E+00  0.00000000000E+00  0.82118935179E+03  0.82118935180E+03  0.50400000000E-02 0.  1.
          1   -1    0    0  501    0  0.00000000000E+00 -0.00000000000E+00 -0.26634931285E+04  0.26634931285E+04  0.50400000000E-02 0. -1.
    8880023    1    1    2    0    0 -0.76216588570E+03 -0.30870755792E+02  0.42040127527E+03  0.10919694498E+04  0.65864270000E+03 0.  0.
    8880022    1    1    2    0    0  0.76216588570E+03  0.30870755792E+02 -0.22627050520E+04  0.23927130305E+04  0.15294330000E+03 0.  0.
<mgrwt>
<rscale>  0 0.94465173E+03</rscale>
<asrwt>0</asrwt>
<pdfrwt beam="1">  1        1 0.40976817E+00 0.10077996E+04</pdfrwt>
<pdfrwt beam="2">  1       -1 0.12633682E+00 0.10077996E+04</pdfrwt>
<totfact> 0.57875208E-01</totfact>
</mgrwt>
</event>
<event>
 4    1  0.1008211E-007  0.8386381E+03  0.7818608E-02  0.9632754E-01
         -1   -1    0    0    0  501 -0.00000000000E+00  0.00000000000E+00  0.20120835862E+04  0.20120835862E+04  0.50400000000E-02 0.  1.
          1   -1    0    0  501    0  0.00000000000E+00 -0.00000000000E+00 -0.92528939276E+03  0.92528939277E+03  0.50400000000E-02 0. -1.
    8880023    1    1    2    0    0 -0.41000762360E+03  0.31842953027E+03  0.18329025496E+04  0.20156501631E+04  0.65864270000E+03 0.  0.
    8880022    1    1    2    0    0  0.41000762360E+03 -0.31842953027E+03 -0.74610835620E+03  0.92172281590E+03  0.15294330000E+03 0.  0.
<mgrwt>
<rscale>  0 0.75165747E+03</rscale>
<asrwt>0</asrwt>
<pdfrwt beam="1">  1        1 0.14235222E+00 0.83863808E+03</pdfrwt>
<pdfrwt beam="2">  1       -1 0.30955132E+00 0.83863808E+03</pdfrwt>
<totfact> 0.51862296E-01</totfact>
</mgrwt>
</event>
<event>
 4    1  0.1008211E-007  0.7941854E+03  0.7818608E-02  0.9723512E-01
          1   -1    0    0  501    0  0.00000000000E+00  0.00000000000E+00  0.10690749493E+04  0.10690749493E+04  0.50400000000E-02 0. -1.
         -1   -1    0    0    0  501 -0.00000000000E+00 -0.00000000000E+00 -0.45707946312E+03  0.45707946315E+03  0.50400000000E-02 0.  1.
    8880023    1    1    2    0    0  0.16424611272E+02  0.44345295959E+03  0.52600846239E+02  0.79592546794E+03  0.65864270000E+03 0.  1.
    8880022    1    1    2    0    0 -0.16424611272E+02 -0.44345295959E+03  0.55939463994E+03  0.73022894453E+03  0.15294330000E+03 0.  0.
<mgrwt>
<rscale>  0 0.69633976E+03</rscale>
<asrwt>0</asrwt>
<pdfrwt beam="1">  1        1 0.16447307E+00 0.79418543E+03</pdfrwt>
<pdfrwt beam="2">  1       -1 0.70319918E-01 0.79418543E+03</pdfrwt>
<totfact> 0.27981341E+01</totfact>
</mgrwt>
</event>
<event>
 4    1  0.1008211E-007  0.6840312E+03  0.7818608E-02  0.1007129E+00
          1   -1    0    0  501    0  0.00000000000E+00  0.00000000000E+00  0.21164686691E+04  0.21164686692E+04  0.50400000000E-02 0. -1.
         -1   -1    0    0    0  501 -0.00000000000E+00 -0.00000000000E+00 -0.24730472875E+03  0.24730472880E+03  0.50400000000E-02 0.  1.
    8880023    1    1    2    0    0 -0.18105431428E+03  0.36163347648E+02  0.25206144399E+03  0.72899494528E+03  0.65864270000E+03 0.  1.
    8880022    1    1    2    0    0  0.18105431428E+03 -0.36163347648E+02  0.16171024964E+04  0.16347784527E+04  0.15294330000E+03 0.  0.
<mgrwt>
<rscale>  0 0.52631606E+03</rscale>
<asrwt>0</asrwt>
<pdfrwt beam="1">  1        1 0.32561056E+00 0.68403118E+03</pdfrwt>
<pdfrwt beam="2">  1       -1 0.38046881E-01 0.68403118E+03</pdfrwt>
<totfact> 0.17471069E+01</totfact>
</mgrwt>
</event>
<event>
 4    1  0.1008211E-007  0.7421287E+03  0.7818608E-02  0.9853789E-01
          1   -1    0    0  501    0  0.00000000000E+00  0.00000000000E+00  0.58237671790E+03  0.58237671792E+03  0.50400000000E-02 0. -1.
         -1   -1    0    0    0  501 -0.00000000000E+00 -0.00000000000E+00 -0.76393546833E+03  0.76393546835E+03  0.50400000000E-02 0.  1.
    8880023    1    1    2    0    0  0.33346550197E+03  0.75799524959E+02 -0.46568473556E+03  0.87613771075E+03  0.65864270000E+03 0.  1.
    8880022    1    1    2    0    0 -0.33346550197E+03 -0.75799524959E+02  0.28412598513E+03  0.47017447552E+03  0.15294330000E+03 0.  1.
<mgrwt>
<rscale>  0 0.62554094E+03</rscale>
<asrwt>0</asrwt>
<pdfrwt beam="1">  1        1 0.89596418E-01 0.74212871E+03</pdfrwt>
<pdfrwt beam="2">  1       -1 0.11752853E+00 0.74212871E+03</pdfrwt>
<totfact> 0.23898043E+01</totfact>
</mgrwt>
</event>
<event>
 4    1  0.1008211E-007  0.1405259E+04  0.7818608E-02  0.8979607E-01
          1   -1    0    0  501    0  0.00000000000E+00  0.00000000000E+00  0.13791835264E+04  0.13791835264E+04  0.50400000000E-02 0. -1.
         -1   -1    0    0    0  501 -0.00000000000E+00 -0.00000000000E+00 -0.27500753278E+04  0.27500753278E+04  0.50400000000E-02 0.  1.
    8880023    1    1    2    0    0 -0.12374367392E+04 -0.98450414011E+02 -0.22129852833E+04  0.26214607069E+04  0.65864270000E+03 0.  0.
    8880022    1    1    2    0    0  0.12374367392E+04  0.98450414011E+02  0.84209348194E+03  0.15077981473E+04  0.15294330000E+03 0.  0.
<mgrwt>
<rscale>  0 0.13649238E+04</rscale>
<asrwt>0</asrwt>
<pdfrwt beam="1">  1        1 0.21218208E+00 0.14052588E+04</pdfrwt>
<pdfrwt beam="2">  1       -1 0.42308851E+00 0.14052588E+04</pdfrwt>
<totfact> 0.37873293E-02</totfact>
</mgrwt>
</event>
<event>
 4    1  0.1008211E-007  0.1029038E+04  0.7818608E-02  0.9344515E-01
         -1   -1    0    0    0  501 -0.00000000000E+00  0.00000000000E+00  0.14991716880E+04  0.14991716880E+04  0.50400000000E-02 0.  1.
          1   -1    0    0  501    0  0.00000000000E+00 -0.00000000000E+00 -0.19600915010E+04  0.19600915010E+04  0.50400000000E-02 0. -1.
    8880023    1    1    2    0    0 -0.75795426896E+03  0.22497827459E+03 -0.16966330326E+04  0.19843093891E+04  0.65864270000E+03 0.  0.
    8880022    1    1    2    0    0  0.75795426896E+03 -0.22497827459E+03  0.12357132196E+04  0.14749537999E+04  0.15294330000E+03 0.  0.
<mgrwt>
<rscale>  0 0.96786007E+03</rscale>
<asrwt>0</asrwt>
<pdfrwt beam="1">  1        1 0.30155254E+00 0.10290384E+04</pdfrwt>
<pdfrwt beam="2">  1       -1 0.23064180E+00 0.10290384E+04</pdfrwt>
<totfact> 0.29918778E-01</totfact>
</mgrwt>
</event>
<event>
 4    1  0.1008211E-007  0.8813462E+03  0.7818608E-02  0.9556666E-01
         -1   -1    0    0    0  501 -0.00000000000E+00  0.00000000000E+00  0.78554986217E+03  0.78554986219E+03  0.50400000000E-02 0.  1.
          1   -1    0    0  501    0  0.00000000000E+00 -0.00000000000E+00 -0.12880016751E+04  0.12880016751E+04  0.50400000000E-02 0. -1.
    8880023    1    1    2    0    0  0.58477784327E+03  0.31556740617E+02  0.41520987852E+03  0.97425376743E+03  0.65864270000E+03 0.  1.
    8880022    1    1    2    0    0 -0.58477784327E+03 -0.31556740617E+02 -0.91766169145E+03  0.10992977699E+04  0.15294330000E+03 0.  0.
<mgrwt>
<rscale>  0 0.80231945E+03</rscale>
<asrwt>0</asrwt>
<pdfrwt beam="1">  1        1 0.19815410E+00 0.88134622E+03</pdfrwt>
<pdfrwt beam="2">  1       -1 0.12085383E+00 0.88134622E+03</pdfrwt>
<totfact> 0.57185952E+00</totfact>
</mgrwt>
</event>
<event>
 4    1  0.1008211E-007  0.8386366E+03  0.7818608E-02  0.9632756E-01
         -1   -1    0    0    0  501 -0.00000000000E+00  0.00000000000E+00  0.75660553859E+03  0.75660553861E+03  0.50400000000E-02 0.  1.
          1   -1    0    0  501    0  0.00000000000E+00 -0.00000000000E+00 -0.76564939675E+03  0.76564939677E+03  0.50400000000E-02 0. -1.
    8880023    1    1    2    0    0 -0.28596962155E+03 -0.43326951465E+03  0.30990624746E+03  0.89406553745E+03  0.65864270000E+03 0.  1.
    8880022    1    1    2    0    0  0.28596962155E+03  0.43326951465E+03 -0.31895010562E+03  0.62818939793E+03  0.15294330000E+03 0.  1.
<mgrwt>
<rscale>  0 0.75165565E+03</rscale>
<asrwt>0</asrwt>
<pdfrwt beam="1">  1        1 0.11779221E+00 0.83863657E+03</pdfrwt>
<pdfrwt beam="2">  1       -1 0.11640085E+00 0.83863657E+03</pdfrwt>
<totfact> 0.16093842E+01</totfact>
</mgrwt>
</event>
<event>
 4    1  0.1008211E-007  0.7391234E+03  0.7818608E-02  0.9862508E-01
          1   -1    0    0  501    0  0.00000000000E+00  0.00000000000E+00  0.26119038925E+04  0.26119038925E+04  0.50400000000E-02 0. -1.
         -1   -1    0    0    0  501 -0.00000000000E+00 -0.00000000000E+00 -0.34631033310E+03  0.34631033314E+03  0.50400000000E-02 0.  1.
    8880023    1    1    2    0    0  0.13030686423E+03 -0.30905222369E+03  0.81924411742E+02  0.74364976389E+03  0.65864270000E+03 0.  1.
    8880022    1    1    2    0    0 -0.13030686423E+03  0.30905222369E+03  0.21836691477E+04  0.22145644618E+04  0.15294330000E+03 0.  0.
<mgrwt>
<rscale>  0 0.62113223E+03</rscale>
<asrwt>0</asrwt>
<pdfrwt beam="1">  1        1 0.40183136E+00 0.73912337E+03</pdfrwt>
<pdfrwt beam="2">  1       -1 0.53278513E-01 0.73912337E+03</pdfrwt>
<totfact> 0.42793383E+00</totfact>
</mgrwt>
</event>
<event>
 4    1  0.1008211E-007  0.9282812E+03  0.7818608E-02  0.9482076E-01
         -1   -1    0    0    0  501 -0.00000000000E+00  0.00000000000E+00  0.45202160845E+03  0.45202160848E+03  0.50400000000E-02 0.  1.
          1   -1    0    0  501    0  0.00000000000E+00 -0.00000000000E+00 -0.17664907881E+04  0.17664907881E+04  0.50400000000E-02 0. -1.
    8880023    1    1    2    0    0  0.37222036402E+03  0.53791058765E+03 -0.25268199546E+03  0.96205727313E+03  0.65864270000E+03 0.  1.
    8880022    1    1    2    0    0 -0.37222036402E+03 -0.53791058765E+03 -0.10617871841E+04  0.12564551234E+04  0.15294330000E+03 0.  0.
<mgrwt>
<rscale>  0 0.85618246E+03</rscale>
<asrwt>0</asrwt>
<pdfrwt beam="1">  1        1 0.27176781E+00 0.92828121E+03</pdfrwt>
<pdfrwt beam="2">  1       -1 0.69541787E-01 0.92828121E+03</pdfrwt>
<totfact> 0.91338815E+00</totfact>
</mgrwt>
</event>
<event>
 4    1  0.1008211E-007  0.7299830E+03  0.7818608E-02  0.9890149E-01
          1   -1    0    0  501    0  0.00000000000E+00  0.00000000000E+00  0.21127360614E+04  0.21127360614E+04  0.50400000000E-02 0. -1.
         -1   -1    0    0    0  501 -0.00000000000E+00 -0.00000000000E+00 -0.18047922591E+03  0.18047922598E+03  0.50400000000E-02 0.  1.
    8880023    1    1    2    0    0  0.14394702594E+03 -0.27990051622E+03  0.69682053604E+03  0.10091749655E+04  0.65864270000E+03 0.  1.
    8880022    1    1    2    0    0 -0.14394702594E+03  0.27990051622E+03  0.12354362995E+04  0.12840403219E+04  0.15294330000E+03 0.  0.
<mgrwt>
<rscale>  0 0.60741065E+03</rscale>
<asrwt>0</asrwt>
<pdfrwt beam="1">  1        1 0.32503633E+00 0.72998305E+03</pdfrwt>
<pdfrwt beam="2">  1       -1 0.27766034E-01 0.72998305E+03</pdfrwt>
<totfact> 0.30397780E+01</totfact>
</mgrwt>
</event>
<event>
 4    1  0.1008211E-007  0.1591362E+04  0.7818608E-02  0.8847678E-01
         -1   -1    0    0    0  501 -0.00000000000E+00  0.00000000000E+00  0.92356214479E+03  0.92356214481E+03  0.50400000000E-02 0.  1.
          1   -1    0    0  501    0  0.00000000000E+00 -0.00000000000E+00 -0.37205581384E+04  0.37205581384E+04  0.50400000000E-02 0. -1.
    8880023    1    1    2    0    0  0.13303156029E+04  0.57348445793E+03 -0.27612179002E+04  0.31869669790E+04  0.65864270000E+03 0.  0.
    8880022    1    1    2    0    0 -0.13303156029E+04 -0.57348445793E+03 -0.35778093426E+02  0.14571533042E+04  0.15294330000E+03 0.  0.
<mgrwt>
<rscale>  0 0.15565762E+04</rscale>
<asrwt>0</asrwt>
<pdfrwt beam="1">  1        1 0.57239355E+00 0.15913624E+04</pdfrwt>
<pdfrwt beam="2">  1       -1 0.14208649E+00 0.15913624E+04</pdfrwt>
<totfact> 0.63416405E-02</totfact>
</mgrwt>
</event>
<event>
 4    1  0.1008211E-007  0.6807622E+03  0.7818608E-02  0.1008896E+00
          1   -1    0    0  501    0  0.00000000000E+00  0.00000000000E+00  0.20796791201E+04  0.20796791201E+04  0.50400000000E-02 0. -1.
         -1   -1    0    0    0  501 -0.00000000000E+00 -0.00000000000E+00 -0.10277000364E+03  0.10277000377E+03  0.50400000000E-02 0.  1.
    8880023    1    1    2    0    0 -0.17020939466E+03  0.25608328586E+02  0.16257977785E+04  0.17625707496E+04  0.65864270000E+03 0. -1.
    8880022    1    1    2    0    0  0.17020939466E+03 -0.25608328586E+02  0.35111133798E+03  0.41987837429E+03  0.15294330000E+03 0.  1.
<mgrwt>
<rscale>  0 0.51915878E+03</rscale>
<asrwt>0</asrwt>
<pdfrwt beam="1">  1        1 0.31995061E+00 0.68076224E+03</pdfrwt>
<pdfrwt beam="2">  1       -1 0.15810771E-01 0.68076224E+03</pdfrwt>
<totfact> 0.82613724E+01</totfact>
</mgrwt>
</event>
<event>
 4    1  0.1008211E-007  0.6893566E+03  0.7818608E-02  0.1004460E+00
         -1   -1    0    0    0  501 -0.00000000000E+00  0.00000000000E+00  0.24167016377E+03  0.24167016382E+03  0.50400000000E-02 0.  1.
          1   -1    0    0  501    0  0.00000000000E+00 -0.00000000000E+00 -0.18028090723E+04  0.18028090723E+04  0.50400000000E-02 0. -1.
    8880023    1    1    2    0    0  0.19110476909E+03  0.69865953296E+02 -0.28960827348E+03  0.74772016325E+03  0.65864270000E+03 0.  0.
    8880022    1    1    2    0    0 -0.19110476909E+03 -0.69865953296E+02 -0.12715306350E+04  0.12967590729E+04  0.15294330000E+03 0.  0.
<mgrwt>
<rscale>  0 0.53737164E+03</rscale>
<asrwt>0</asrwt>
<pdfrwt beam="1">  1        1 0.27735523E+00 0.68935658E+03</pdfrwt>
<pdfrwt beam="2">  1       -1 0.37180026E-01 0.68935658E+03</pdfrwt>
<totfact> 0.29462310E+01</totfact>
</mgrwt>
</event>
<event>
 4    1  0.1008211E-007  0.1373172E+04  0.7818608E-02  0.9004814E-01
          1   -1    0    0  501    0  0.00000000000E+00  0.00000000000E+00  0.26789833135E+04  0.26789833135E+04  0.50400000000E-02 0. -1.
         -1   -1    0    0    0  501 -0.00000000000E+00 -0.00000000000E+00 -0.84991536320E+03  0.84991536322E+03  0.50400000000E-02 0.  1.
    8880023    1    1    2    0    0  0.37906920844E+03  0.11437215019E+04  0.49128480852E+02  0.13740510007E+04  0.65864270000E+03 0.  0.
    8880022    1    1    2    0    0 -0.37906920844E+03 -0.11437215019E+04  0.17799394695E+04  0.21548476760E+04  0.15294330000E+03 0.  0.
<mgrwt>
<rscale>  0 0.13316791E+04</rscale>
<asrwt>0</asrwt>
<pdfrwt beam="1">  1        1 0.41215127E+00 0.13731724E+04</pdfrwt>
<pdfrwt beam="2">  1       -1 0.13075621E+00 0.13731724E+04</pdfrwt>
<totfact> 0.49088013E-01</totfact>
</mgrwt>
</event>
<event>
 4    1  0.1008211E-007  0.8082867E+03  0.7818608E-02  0.9693157E-01
          1   -1    0    0  501    0  0.00000000000E+00  0.00000000000E+00  0.76867789544E+03  0.76867789546E+03  0.50400000000E-02 0. -1.
         -1   -1    0    0    0  501 -0.00000000000E+00 -0.00000000000E+00 -0.86059641725E+03  0.86059641726E+03  0.50400000000E-02 0.  1.
    8880023    1    1    2    0    0 -0.29674386375E+03 -0.36257442358E+03 -0.53272299427E+03  0.96805016822E+03  0.65864270000E+03 0.  1.
    8880022    1    1    2    0    0  0.29674386375E+03  0.36257442358E+03  0.44080447247E+03  0.66122414450E+03  0.15294330000E+03 0.  0.
<mgrwt>
<rscale>  0 0.71425693E+03</rscale>
<asrwt>0</asrwt>
<pdfrwt beam="1">  1        1 0.11825814E+00 0.80828667E+03</pdfrwt>
<pdfrwt beam="2">  1       -1 0.13239945E+00 0.80828667E+03</pdfrwt>
<totfact> 0.11667451E+01</totfact>
</mgrwt>
</event>
<event>
 4    1  0.1008211E-007  0.9098545E+03  0.7818608E-02  0.9510394E-01
          1   -1    0    0  501    0  0.00000000000E+00  0.00000000000E+00  0.15385391464E+04  0.15385391464E+04  0.50400000000E-02 0. -1.
         -1   -1    0    0    0  501 -0.00000000000E+00 -0.00000000000E+00 -0.39465387548E+03  0.39465387551E+03  0.50400000000E-02 0.  1.
    8880023    1    1    2    0    0 -0.42630309255E+03  0.46075016612E+03  0.61447983542E+03  0.10979165345E+04  0.65864270000E+03 0.  0.
    8880022    1    1    2    0    0  0.42630309255E+03 -0.46075016612E+03  0.52940543549E+03  0.83527648742E+03  0.15294330000E+03 0. -1.
<mgrwt>
<rscale>  0 0.83521867E+03</rscale>
<asrwt>0</asrwt>
<pdfrwt beam="1">  1        1 0.23669833E+00 0.90985452E+03</pdfrwt>
<pdfrwt beam="2">  1       -1 0.60715981E-01 0.90985452E+03</pdfrwt>
<totfact> 0.17190125E+01</totfact>
</mgrwt>
</event>
<event>
 4    1  0.1008211E-007  0.6669436E+03  0.7818608E-02  0.1017956E+00
         -1   -1    0    0    0  501 -0.00000000000E+00  0.00000000000E+00  0.31684219680E+03  0.31684219684E+03  0.50400000000E-02 0.  1.
          1   -1    0    0  501    0  0.00000000000E+00 -0.00000000000E+00 -0.23181541870E+04  0.23181541871E+04  0.50400000000E-02 0. -1.
    8880023    1    1    2    0    0  0.60532674263E+02 -0.85669789757E+02 -0.43436307996E+02  0.66835651912E+03  0.65864270000E+03 0.  1.
    8880022    1    1    2    0    0 -0.60532674263E+02  0.85669789757E+02 -0.19578756823E+04  0.19666398648E+04  0.15294330000E+03 0.  0.
<mgrwt>
<rscale>  0 0.48431620E+03</rscale>
<asrwt>0</asrwt>
<pdfrwt beam="1">  1        1 0.35663909E+00 0.66694357E+03</pdfrwt>
<pdfrwt beam="2">  1       -1 0.48744955E-01 0.66694357E+03</pdfrwt>
<totfact> 0.81374000E+00</totfact>
</mgrwt>
</event>
<event>
 4    1  0.1008211E-007  0.6831195E+03  0.7818608E-02  0.1007611E+00
          1   -1    0    0  501    0  0.00000000000E+00  0.00000000000E+00  0.33865597750E+03  0.33865597754E+03  0.50400000000E-02 0. -1.
         -1   -1    0    0    0  501 -0.00000000000E+00 -0.00000000000E+00 -0.14769250671E+04  0.14769250671E+04  0.50400000000E-02 0.  1.
    8880023    1    1    2    0    0 -0.42136052670E+02 -0.17625704150E+03 -0.13401093520E+04  0.15041759449E+04  0.65864270000E+03 0.  0.
    8880022    1    1    2    0    0  0.42136052670E+02  0.17625704150E+03  0.20184026240E+03  0.31140509975E+03  0.15294330000E+03 0.  0.
<mgrwt>
<rscale>  0 0.52435091E+03</rscale>
<asrwt>0</asrwt>
<pdfrwt beam="1">  1        1 0.52100921E-01 0.68311946E+03</pdfrwt>
<pdfrwt beam="2">  1       -1 0.22721924E+00 0.68311946E+03</pdfrwt>
<totfact> 0.76921173E+00</totfact>
</mgrwt>
</event>
<event>
 4    1  0.1008211E-007  0.8305246E+03  0.7818608E-02  0.9648313E-01
          1   -1    0    0  501    0  0.00000000000E+00  0.00000000000E+00  0.56360314127E+03  0.56360314129E+03  0.50400000000E-02 0. -1.
         -1   -1    0    0    0  501 -0.00000000000E+00 -0.00000000000E+00 -0.92617176489E+03  0.92617176490E+03  0.50400000000E-02 0.  1.
    8880023    1    1    2    0    0 -0.33647863550E+03  0.37781347184E+03 -0.46435738558E+03  0.95152450282E+03  0.65864270000E+03 0.  0.
    8880022    1    1    2    0    0  0.33647863550E+03 -0.37781347184E+03  0.10178876196E+03  0.53825040337E+03  0.15294330000E+03 0.  0.
<mgrwt>
<rscale>  0 0.74179423E+03</rscale>
<asrwt>0</asrwt>
<pdfrwt beam="1">  1        1 0.86708175E-01 0.83052459E+03</pdfrwt>
<pdfrwt beam="2">  1       -1 0.14248796E+00 0.83052459E+03</pdfrwt>
<totfact> 0.15275309E+01</totfact>
</mgrwt>
</event>
<event>
 4    1  0.1008211E-007  0.6586930E+03  0.7818608E-02  0.1025537E+00
          1   -1    0    0  501    0  0.00000000000E+00  0.00000000000E+00  0.16951463547E+04  0.16951463547E+04  0.50400000000E-02 0. -1.
         -1   -1    0    0    0  501 -0.00000000000E+00 -0.00000000000E+00 -0.28180628171E+03  0.28180628176E+03  0.50400000000E-02 0.  1.
    8880023    1    1    2    0    0 -0.54049784823E+01  0.60836809616E+01  0.11383993837E+03  0.66845789905E+03  0.65864270000E+03 0.  1.
    8880022    1    1    2    0    0  0.54049784823E+01 -0.60836809616E+01  0.12995001346E+04  0.13084947374E+04  0.15294330000E+03 0.  0.
<mgrwt>
<rscale>  0 0.45740232E+03</rscale>
<asrwt>0</asrwt>
<pdfrwt beam="1">  1        1 0.26079175E+00 0.65869297E+03</pdfrwt>
<pdfrwt beam="2">  1       -1 0.43354812E-01 0.65869297E+03</pdfrwt>
<totfact> 0.26425718E+01</totfact>
</mgrwt>
</event>
<event>
 4    1  0.1008211E-007  0.1115418E+04  0.7818608E-02  0.9244081E-01
          1   -1    0    0  501    0  0.00000000000E+00  0.00000000000E+00  0.22173298799E+04  0.22173298799E+04  0.50400000000E-02 0. -1.
         -1   -1    0    0    0  501 -0.00000000000E+00 -0.00000000000E+00 -0.12256597341E+04  0.12256597341E+04  0.50400000000E-02 0.  1.
    8880023    1    1    2    0    0  0.76158367761E+03 -0.47993460332E+03 -0.84000533211E+03  0.13963402471E+04  0.65864270000E+03 0.  0.
    8880022    1    1    2    0    0 -0.76158367761E+03  0.47993460332E+03  0.18316754779E+04  0.20466493669E+04  0.15294330000E+03 0. -1.
<mgrwt>
<rscale>  0 0.10609794E+04</rscale>
<asrwt>0</asrwt>
<pdfrwt beam="1">  1        1 0.34112767E+00 0.11154179E+04</pdfrwt>
<pdfrwt beam="2">  1       -1 0.18856304E+00 0.11154179E+04</pdfrwt>
<totfact> 0.38185379E-01</totfact>
</mgrwt>
</event>
<event>
 4    1  0.1008211E-007  0.6928203E+03  0.7818608E-02  0.1002840E+00
          1   -1    0    0  501    0  0.00000000000E+00  0.00000000000E+00  0.31890881535E+04  0.31890881535E+04  0.50400000000E-02 0. -1.
         -1   -1    0    0    0  501 -0.00000000000E+00 -0.00000000000E+00 -0.85385925890E+02  0.85385926038E+02  0.50400000000E-02 0.  1.
    8880023    1    1    2    0    0  0.17767807257E+03 -0.12091431276E+03  0.15398532100E+04  0.16885342410E+04  0.65864270000E+03 0.  1.
    8880022    1    1    2    0    0 -0.17767807257E+03  0.12091431276E+03  0.15638490176E+04  0.15859398385E+04  0.15294330000E+03 0.  0.
<mgrwt>
<rscale>  0 0.54422328E+03</rscale>
<asrwt>0</asrwt>
<pdfrwt beam="1">  1        1 0.49062895E+00 0.69282030E+03</pdfrwt>
<pdfrwt beam="2">  1       -1 0.13136296E-01 0.69282030E+03</pdfrwt>
<totfact> 0.18977017E+01</totfact>
</mgrwt>
</event>
<event>
 4    1  0.1008211E-007  0.1042193E+04  0.7818608E-02  0.9328325E-01
          1   -1    0    0  501    0  0.00000000000E+00  0.00000000000E+00  0.15007111855E+04  0.15007111855E+04  0.50400000000E-02 0. -1.
         -1   -1    0    0    0  501 -0.00000000000E+00 -0.00000000000E+00 -0.13078438107E+04  0.13078438107E+04  0.50400000000E-02 0.  1.
    8880023    1    1    2    0    0 -0.79292350445E+03 -0.15371684390E+03 -0.94363412431E+03  0.14059203814E+04  0.65864270000E+03 0.  1.
    8880022    1    1    2    0    0  0.79292350445E+03  0.15371684390E+03  0.11365014992E+04  0.14026346148E+04  0.15294330000E+03 0.  0.
<mgrwt>
<rscale>  0 0.98216466E+03</rscale>
<asrwt>0</asrwt>
<pdfrwt beam="1">  1        1 0.23087864E+00 0.10421932E+04</pdfrwt>
<pdfrwt beam="2">  1       -1 0.20120674E+00 0.10421932E+04</pdfrwt>
<totfact> 0.96565524E-01</totfact>
</mgrwt>
</event>
<event>
 4    1  0.1008211E-007  0.6664960E+03  0.7818608E-02  0.1018310E+00
          1   -1    0    0  501    0  0.00000000000E+00  0.00000000000E+00  0.91556456947E+03  0.91556456948E+03  0.50400000000E-02 0. -1.
         -1   -1    0    0    0  501 -0.00000000000E+00 -0.00000000000E+00 -0.10756719983E+04  0.10756719983E+04  0.50400000000E-02 0.  1.
    8880023    1    1    2    0    0 -0.41906571357E+00 -0.10201221351E+03 -0.96100623230E+03  0.11695083805E+04  0.65864270000E+03 0.  1.
    8880022    1    1    2    0    0  0.41906571357E+00  0.10201221351E+03  0.80089880348E+03  0.82172818727E+03  0.15294330000E+03 0.  0.
<mgrwt>
<rscale>  0 0.48301435E+03</rscale>
<asrwt>0</asrwt>
<pdfrwt beam="1">  1        1 0.14085609E+00 0.66649597E+03</pdfrwt>
<pdfrwt beam="2">  1       -1 0.16548800E+00 0.66649597E+03</pdfrwt>
<totfact> 0.49339437E+00</totfact>
</mgrwt>
</event>
<event>
 4    1  0.1008211E-007  0.6996798E+03  0.7818608E-02  0.9998532E-01
         -1   -1    0    0    0  501 -0.00000000000E+00  0.00000000000E+00  0.58755659675E+03  0.58755659678E+03  0.50400000000E-02 0.  1.
          1   -1    0    0  501    0  0.00000000000E+00 -0.00000000000E+00 -0.12230511787E+04  0.12230511788E+04  0.50400000000E-02 0. -1.
    8880023    1    1    2    0    0  0.13459445744E+03  0.19397406336E+03  0.35241999672E+03  0.78342304382E+03  0.65864270000E+03 0.  1.
    8880022    1    1    2    0    0 -0.13459445744E+03 -0.19397406336E+03 -0.98791457871E+03  0.10271847317E+04  0.15294330000E+03 0.  0.
<mgrwt>
<rscale>  0 0.55714646E+03</rscale>
<asrwt>0</asrwt>
<pdfrwt beam="1">  1        1 0.18816172E+00 0.69967979E+03</pdfrwt>
<pdfrwt beam="2">  1       -1 0.90393322E-01 0.69967979E+03</pdfrwt>
<totfact> 0.12803675E+01</totfact>
</mgrwt>
</event>
<event>
 4    1  0.1008211E-007  0.1126163E+04  0.7818608E-02  0.9232471E-01
         -1   -1    0    0    0  501 -0.00000000000E+00  0.00000000000E+00  0.61011643787E+03  0.61011643789E+03  0.50400000000E-02 0.  1.
          1   -1    0    0  501    0  0.00000000000E+00 -0.00000000000E+00 -0.27005119135E+04  0.27005119135E+04  0.50400000000E-02 0. -1.
    8880023    1    1    2    0    0 -0.86350821457E+03 -0.29797157911E+03 -0.11891124891E+03  0.11324237678E+04  0.65864270000E+03 0.  0.
    8880022    1    1    2    0    0  0.86350821457E+03  0.29797157911E+03 -0.19714842267E+04  0.21782045835E+04  0.15294330000E+03 0.  0.
<mgrwt>
<rscale>  0 0.10724471E+04</rscale>
<asrwt>0</asrwt>
<pdfrwt beam="1">  1        1 0.41546337E+00 0.11261633E+04</pdfrwt>
<pdfrwt beam="2">  1       -1 0.93864068E-01 0.11261633E+04</pdfrwt>
<totfact> 0.10818937E+00</totfact>
</mgrwt>
</event>
<event>
 4    1  0.1008211E-007  0.6872863E+03  0.7818608E-02  0.1005470E+00
          1   -1    0    0  501    0  0.00000000000E+00  0.00000000000E+00  0.11828568673E+04  0.11828568673E+04  0.50400000000E-02 0. -1.
         -1   -1    0    0    0  501 -0.00000000000E+00 -0.00000000000E+00 -0.16640413237E+04  0.16640413237E+04  0.50400000000E-02 0.  1.
    8880023    1    1    2    0    0 -0.86049409030E+02 -0.17648723222E+03 -0.15785407464E+04  0.17216716697E+04  0.65864270000E+03 0.  1.
    8880022    1    1    2    0    0  0.86049409030E+02  0.17648723222E+03  0.10973562901E+04  0.11252265213E+04  0.15294330000E+03 0.  0.
<mgrwt>
<rscale>  0 0.53315450E+03</rscale>
<asrwt>0</asrwt>
<pdfrwt beam="1">  1        1 0.18197798E+00 0.68728629E+03</pdfrwt>
<pdfrwt beam="2">  1       -1 0.25600636E+00 0.68728629E+03</pdfrwt>
<totfact> 0.75035188E-01</totfact>
</mgrwt>
</event>
<event>
 4    1  0.1008211E-007  0.1805129E+04  0.7818608E-02  0.8719704E-01
          1   -1    0    0  501    0  0.00000000000E+00  0.00000000000E+00  0.40530785540E+04  0.40530785540E+04  0.50400000000E-02 0. -1.
         -1   -1    0    0    0  501 -0.00000000000E+00 -0.00000000000E+00 -0.92521588765E+03  0.92521588767E+03  0.50400000000E-02 0.  1.
    8880023    1    1    2    0    0 -0.16383234583E+04  0.37493667412E+03  0.53167008477E+03  0.18817982222E+04  0.65864270000E+03 0.  0.
    8880022    1    1    2    0    0  0.16383234583E+04 -0.37493667412E+03  0.25961925815E+04  0.30964962195E+04  0.15294330000E+03 0.  0.
<mgrwt>
<rscale>  0 0.17750072E+04</rscale>
<asrwt>0</asrwt>
<pdfrwt beam="1">  1        1 0.62355056E+00 0.18051292E+04</pdfrwt>
<pdfrwt beam="2">  1       -1 0.14234090E+00 0.18051292E+04</pdfrwt>
<totfact> 0.31985411E-02</totfact>
</mgrwt>
</event>
<event>
 4    1  0.1008211E-007  0.7106766E+03  0.7818608E-02  0.9955497E-01
          1   -1    0    0  501    0  0.00000000000E+00  0.00000000000E+00  0.41424249865E+03  0.41424249868E+03  0.50400000000E-02 0. -1.
         -1   -1    0    0    0  501 -0.00000000000E+00 -0.00000000000E+00 -0.17509664626E+04  0.17509664626E+04  0.50400000000E-02 0.  1.
    8880023    1    1    2    0    0 -0.24252556576E+03  0.11150081451E+03 -0.16060950630E+04  0.17563036865E+04  0.65864270000E+03 0.  1.
    8880022    1    1    2    0    0  0.24252556576E+03 -0.11150081451E+03  0.26937109906E+03  0.40890527473E+03  0.15294330000E+03 0.  0.
<mgrwt>
<rscale>  0 0.57645438E+03</rscale>
<asrwt>0</asrwt>
<pdfrwt beam="1">  1        1 0.63729616E-01 0.71067664E+03</pdfrwt>
<pdfrwt beam="2">  1       -1 0.26937945E+00 0.71067664E+03</pdfrwt>
<totfact> 0.31392054E+00</totfact>
</mgrwt>
</event>
<event>
 4    1  0.1008211E-007  0.9142599E+03  0.7818608E-02  0.9503517E-01
          1   -1    0    0  501    0  0.00000000000E+00  0.00000000000E+00  0.52107213342E+03  0.52107213345E+03  0.50400000000E-02 0. -1.
         -1   -1    0    0    0  501 -0.00000000000E+00 -0.00000000000E+00 -0.17075105410E+04  0.17075105410E+04  0.50400000000E-02 0.  1.
    8880023    1    1    2    0    0  0.58774588466E+03  0.23794067454E+03 -0.12764918489E+04  0.15701282228E+04  0.65864270000E+03 0.  0.
    8880022    1    1    2    0    0 -0.58774588466E+03 -0.23794067454E+03  0.90053441346E+02  0.65845445161E+03  0.15294330000E+03 0.  0.
<mgrwt>
<rscale>  0 0.84025027E+03</rscale>
<asrwt>0</asrwt>
<pdfrwt beam="1">  1        1 0.80164944E-01 0.91425992E+03</pdfrwt>
<pdfrwt beam="2">  1       -1 0.26269393E+00 0.91425992E+03</pdfrwt>
<totfact> 0.24620168E+00</totfact>
</mgrwt>
</event>
<event>
 4    1  0.1008211E-007  0.7956588E+03  0.7818608E-02  0.9720262E-01
          1   -1    0    0  501    0  0.00000000000E+00  0.00000000000E+00  0.11033317682E+04  0.11033317683E+04  0.50400000000E-02 0. -1.
         -1   -1    0    0    0  501 -0.00000000000E+00 -0.00000000000E+00 -0.37512253790E+03  0.37512253793E+03  0.50400000000E-02 0.  1.
    8880023    1    1    2    0    0  0.27909105921E+03 -0.34838327384E+03  0.33137573287E+03  0.86190649575E+03  0.65864270000E+03 0.  0.
    8880022    1    1    2    0    0 -0.27909105921E+03  0.34838327384E+03  0.39683349747E+03  0.61654781043E+03  0.15294330000E+03 0.  0.
<mgrwt>
<rscale>  0 0.69823089E+03</rscale>
<asrwt>0</asrwt>
<pdfrwt beam="1">  1        1 0.16974335E+00 0.79565880E+03</pdfrwt>
<pdfrwt beam="2">  1       -1 0.57711160E-01 0.79565880E+03</pdfrwt>
<totfact> 0.39162800E+01</totfact>
</mgrwt>
</event>
<event>
 4    1  0.1008211E-007  0.1017575E+04  0.7818608E-02  0.9358917E-01
          1   -1    0    0  501    0  0.00000000000E+00  0.00000000000E+00  0.21793599961E+04  0.21793599961E+04  0.50400000000E-02 0. -1.
         -1   -1    0    0    0  501 -0.00000000000E+00 -0.00000000000E+00 -0.42755415729E+03  0.42755415732E+03  0.50400000000E-02 0.  1.
    8880023    1    1    2    0    0  0.75879672715E+03  0.16086169598E+03  0.51875235445E+03  0.11421747545E+04  0.65864270000E+03 0.  0.
    8880022    1    1    2    0    0 -0.75879672715E+03 -0.16086169598E+03  0.12330534844E+04  0.14647393989E+04  0.15294330000E+03 0.  0.
<mgrwt>
<rscale>  0 0.95535195E+03</rscale>
<asrwt>0</asrwt>
<pdfrwt beam="1">  1        1 0.33528615E+00 0.10175751E+04</pdfrwt>
<pdfrwt beam="2">  1       -1 0.65777563E-01 0.10175751E+04</pdfrwt>
<totfact> 0.53327127E+00</totfact>
</mgrwt>
</event>
<event>
 4    1  0.1008211E-007  0.7053159E+03  0.7818608E-02  0.9975824E-01
         -1   -1    0    0    0  501 -0.00000000000E+00  0.00000000000E+00  0.27391363856E+03  0.27391363861E+03  0.50400000000E-02 0.  1.
          1   -1    0    0  501    0  0.00000000000E+00 -0.00000000000E+00 -0.22148821308E+04  0.22148821308E+04  0.50400000000E-02 0. -1.
    8880023    1    1    2    0    0 -0.93915138404E+02 -0.23417995994E+03 -0.21437587857E+03  0.73717537292E+03  0.65864270000E+03 0.  0.
    8880022    1    1    2    0    0  0.93915138404E+02  0.23417995994E+03 -0.17265926137E+04  0.17516203965E+04  0.15294330000E+03 0.  0.
<mgrwt>
<rscale>  0 0.56723115E+03</rscale>
<asrwt>0</asrwt>
<pdfrwt beam="1">  1        1 0.34075109E+00 0.70531590E+03</pdfrwt>
<pdfrwt beam="2">  1       -1 0.42140561E-01 0.70531590E+03</pdfrwt>
<totfact> 0.12424671E+01</totfact>
</mgrwt>
</event>
<event>
 4    1  0.1008211E-007  0.7038163E+03  0.7818608E-02  0.9981723E-01
          1   -1    0    0  501    0  0.00000000000E+00  0.00000000000E+00  0.18168370719E+04  0.18168370719E+04  0.50400000000E-02 0. -1.
         -1   -1    0    0    0  501 -0.00000000000E+00 -0.00000000000E+00 -0.66578704804E+03  0.66578704806E+03  0.50400000000E-02 0.  1.
    8880023    1    1    2    0    0  0.14408931164E+03  0.20195411936E+03 -0.46301316831E+03  0.84245984851E+03  0.65864270000E+03 0.  1.
    8880022    1    1    2    0    0 -0.14408931164E+03 -0.20195411936E+03  0.16140631922E+04  0.16401642715E+04  0.15294330000E+03 0.  0.
<mgrwt>
<rscale>  0 0.56458949E+03</rscale>
<asrwt>0</asrwt>
<pdfrwt beam="1">  1        1 0.27951340E+00 0.70381631E+03</pdfrwt>
<pdfrwt beam="2">  1       -1 0.10242878E+00 0.70381631E+03</pdfrwt>
<totfact> 0.37833234E+00</totfact>
</mgrwt>
</event>
<event>
 4    1  0.1008211E-007  0.1280869E+04  0.7818608E-02  0.9082259E-01
         -1   -1    0    0    0  501 -0.00000000000E+00  0.00000000000E+00  0.18975648293E+04  0.18975648293E+04  0.50400000000E-02 0.  1.
          1   -1    0    0  501    0  0.00000000000E+00 -0.00000000000E+00 -0.82840411555E+03  0.82840411556E+03  0.50400000000E-02 0. -1.
    8880023    1    1    2    0    0  0.32135501337E+03 -0.10504982236E+04  0.15804887879E+03  0.12905832855E+04  0.65864270000E+03 0.  0.
    8880022    1    1    2    0    0 -0.32135501337E+03  0.10504982236E+04  0.91111183497E+03  0.14353856594E+04  0.15294330000E+03 0.  0.
<mgrwt>
<rscale>  0 0.12355942E+04</rscale>
<asrwt>0</asrwt>
<pdfrwt beam="1">  1        1 0.12744679E+00 0.12808691E+04</pdfrwt>
<pdfrwt beam="2">  1       -1 0.29193305E+00 0.12808691E+04</pdfrwt>
<totfact> 0.76015574E-01</totfact>
</mgrwt>
</event>
<event>
 4    1  0.1008211E-007  0.8203360E+03  0.7818608E-02  0.9668436E-01
          1   -1    0    0  501    0  0.00000000000E+00  0.00000000000E+00  0.81568772929E+03  0.81568772931E+03  0.50400000000E-02 0. -1.
         -1   -1    0    0    0  501 -0.00000000000E+00 -0.00000000000E+00 -0.56252873296E+03  0.56252873298E+03  0.50400000000E-02 0.  1.
    8880023    1    1    2    0    0 -0.28486988339E+03  0.39747971919E+03  0.34301345648E+02  0.82105284008E+03  0.65864270000E+03 0. -1.
    8880022    1    1    2    0    0  0.28486988339E+03 -0.39747971919E+03  0.21885765069E+03  0.55716362221E+03  0.15294330000E+03 0.  0.
<mgrwt>
<rscale>  0 0.72927571E+03</rscale>
<asrwt>0</asrwt>
<pdfrwt beam="1">  1        1 0.12549042E+00 0.82033602E+03</pdfrwt>
<pdfrwt beam="2">  1       -1 0.86542882E-01 0.82033602E+03</pdfrwt>
<totfact> 0.28729739E+01</totfact>
</mgrwt>
</event>
<event>
 4    1  0.1008211E-007  0.6973950E+03  0.7818608E-02  0.1000818E+00
         -1   -1    0    0    0  501 -0.00000000000E+00  0.00000000000E+00  0.41162982020E+03  0.41162982023E+03  0.50400000000E-02 0.  1.
          1   -1    0    0  501    0  0.00000000000E+00 -0.00000000000E+00 -0.10310164603E+04  0.10310164603E+04  0.50400000000E-02 0. -1.
    8880023    1    1    2    0    0  0.22526649578E+03  0.42479865000E+02  0.69340288540E+02  0.70083365710E+03  0.65864270000E+03 0.  0.
    8880022    1    1    2    0    0 -0.22526649578E+03 -0.42479865000E+02 -0.68872692866E+03  0.74181262346E+03  0.15294330000E+03 0. -1.
<mgrwt>
<rscale>  0 0.55292825E+03</rscale>
<asrwt>0</asrwt>
<pdfrwt beam="1">  1        1 0.15861792E+00 0.69739497E+03</pdfrwt>
<pdfrwt beam="2">  1       -1 0.63327665E-01 0.69739497E+03</pdfrwt>
<totfact> 0.37358841E+01</totfact>
</mgrwt>
</event>
<event>
 4    1  0.1008211E-007  0.7084663E+03  0.7818608E-02  0.9963741E-01
         -1   -1    0    0    0  501 -0.00000000000E+00  0.00000000000E+00  0.29724708440E+03  0.29724708444E+03  0.50400000000E-02 0.  1.
          1   -1    0    0  501    0  0.00000000000E+00 -0.00000000000E+00 -0.18032489699E+04  0.18032489699E+04  0.50400000000E-02 0. -1.
    8880023    1    1    2    0    0 -0.16733179243E+03  0.20028561517E+03 -0.16717824459E+03  0.72792377907E+03  0.65864270000E+03 0.  1.
    8880022    1    1    2    0    0  0.16733179243E+03 -0.20028561517E+03 -0.13388236409E+04  0.13725722753E+04  0.15294330000E+03 0.  0.
<mgrwt>
<rscale>  0 0.57269122E+03</rscale>
<asrwt>0</asrwt>
<pdfrwt beam="1">  1        1 0.27742291E+00 0.70846627E+03</pdfrwt>
<pdfrwt beam="2">  1       -1 0.45730322E-01 0.70846627E+03</pdfrwt>
<totfact> 0.20117351E+01</totfact>
</mgrwt>
</event>
<event>
 4    1  0.1008211E-007  0.7668015E+03  0.7818608E-02  0.9787807E-01
         -1   -1    0    0    0  501 -0.00000000000E+00  0.00000000000E+00  0.92886671786E+03  0.92886671787E+03  0.50400000000E-02 0.  1.
          1   -1    0    0  501    0  0.00000000000E+00 -0.00000000000E+00 -0.28923098051E+04  0.28923098051E+04  0.50400000000E-02 0. -1.
    8880023    1    1    2    0    0  0.24917171338E+03 -0.30345966173E+03  0.75154185164E+03  0.10736850889E+04  0.65864270000E+03 0.  0.
    8880022    1    1    2    0    0 -0.24917171338E+03  0.30345966173E+03 -0.27149849389E+04  0.27474914341E+04  0.15294330000E+03 0.  0.
<mgrwt>
<rscale>  0 0.66021011E+03</rscale>
<asrwt>0</asrwt>
<pdfrwt beam="1">  1        1 0.44497074E+00 0.76680148E+03</pdfrwt>
<pdfrwt beam="2">  1       -1 0.14290257E+00 0.76680148E+03</pdfrwt>
<totfact> 0.30637265E-01</totfact>
</mgrwt>
</event>
<event>
 4    1  0.1008211E-007  0.6762897E+03  0.7818608E-02  0.1011505E+00
          1   -1    0    0  501    0  0.00000000000E+00  0.00000000000E+00  0.85590714709E+03  0.85590714711E+03  0.50400000000E-02 0. -1.
         -1   -1    0    0    0  501 -0.00000000000E+00 -0.00000000000E+00 -0.29434378286E+03  0.29434378290E+03  0.50400000000E-02 0.  1.
    8880023    1    1    2    0    0  0.12937540522E+03  0.82580433882E+02  0.16154193114E+03  0.69531541427E+03  0.65864270000E+03 0.  1.
    8880022    1    1    2    0    0 -0.12937540522E+03 -0.82580433882E+02  0.40002143309E+03  0.45493551574E+03  0.15294330000E+03 0.  0.
<mgrwt>
<rscale>  0 0.50880699E+03</rscale>
<asrwt>0</asrwt>
<pdfrwt beam="1">  1        1 0.13167802E+00 0.67628968E+03</pdfrwt>
<pdfrwt beam="2">  1       -1 0.45283660E-01 0.67628968E+03</pdfrwt>
<totfact> 0.98226772E+01</totfact>
</mgrwt>
</event>
<event>
 4    1  0.1008211E-007  0.6967345E+03  0.7818608E-02  0.1001103E+00
         -1   -1    0    0    0  501 -0.00000000000E+00  0.00000000000E+00  0.21830377936E+03  0.21830377942E+03  0.50400000000E-02 0.  1.
          1   -1    0    0  501    0  0.00000000000E+00 -0.00000000000E+00 -0.21701629082E+04  0.21701629082E+04  0.50400000000E-02 0. -1.
    8880023    1    1    2    0    0  0.22382465613E+03 -0.39132381516E+02 -0.38138749073E+03  0.79428926993E+03  0.65864270000E+03 0.  1.
    8880022    1    1    2    0    0 -0.22382465613E+03  0.39132381516E+02 -0.15704716381E+04  0.15941774177E+04  0.15294330000E+03 0.  0.
<mgrwt>
<rscale>  0 0.55169365E+03</rscale>
<asrwt>0</asrwt>
<pdfrwt beam="1">  1        1 0.33387120E+00 0.69673455E+03</pdfrwt>
<pdfrwt beam="2">  1       -1 0.33585198E-01 0.69673455E+03</pdfrwt>
<totfact> 0.20053114E+01</totfact>
</mgrwt>
</event>
<event>
 4    1  0.1008211E-007  0.9032649E+03  0.7818608E-02  0.9520811E-01
         -1   -1    0    0    0  501 -0.00000000000E+00  0.00000000000E+00  0.11095603884E+04  0.11095603884E+04  0.50400000000E-02 0.  1.
          1   -1    0    0  501    0  0.00000000000E+00 -0.00000000000E+00 -0.18518376116E+04  0.18518376116E+04  0.50400000000E-02 0. -1.
    8880023    1    1    2    0    0 -0.54704303044E+03 -0.28778662031E+03  0.85383944413E+03  0.12429518167E+04  0.65864270000E+03 0.  1.
    8880022    1    1    2    0    0  0.54704303044E+03  0.28778662031E+03 -0.15961166673E+04  0.17184461833E+04  0.15294330000E+03 0.  0.
<mgrwt>
<rscale>  0 0.82766774E+03</rscale>
<asrwt>0</asrwt>
<pdfrwt beam="1">  1        1 0.28489809E+00 0.90326487E+03</pdfrwt>
<pdfrwt beam="2">  1       -1 0.17070160E+00 0.90326487E+03</pdfrwt>
<totfact> 0.93716873E-01</totfact>
</mgrwt>
</event>
<event>
 4    1  0.1008211E-007  0.7203511E+03  0.7818608E-02  0.9921400E-01
          1   -1    0    0  501    0  0.00000000000E+00  0.00000000000E+00  0.35144143703E+04  0.35144143703E+04  0.50400000000E-02 0. -1.
         -1   -1    0    0    0  501 -0.00000000000E+00 -0.00000000000E+00 -0.11595343079E+03  0.11595343090E+03  0.50400000000E-02 0.  1.
    8880023    1    1    2    0    0  0.17897788404E+03 -0.23035290614E+03  0.11435093423E+04  0.13514878344E+04  0.65864270000E+03 0.  1.
    8880022    1    1    2    0    0 -0.17897788404E+03  0.23035290614E+03  0.22549515972E+04  0.22788799668E+04  0.15294330000E+03 0.  0.
<mgrwt>
<rscale>  0 0.59235286E+03</rscale>
<asrwt>0</asrwt>
<pdfrwt beam="1">  1        1 0.54067910E+00 0.72035113E+03</pdfrwt>
<pdfrwt beam="2">  1       -1 0.17838990E-01 0.72035113E+03</pdfrwt>
<totfact> 0.65245792E+00</totfact>
</mgrwt>
</event>
<event>
 4    1  0.1008211E-007  0.9292703E+03  0.7818608E-02  0.9480589E-01
         -1   -1    0    0    0  501 -0.00000000000E+00  0.00000000000E+00  0.12545256336E+04  0.12545256336E+04  0.50400000000E-02 0.  1.
          1   -1    0    0  501    0  0.00000000000E+00 -0.00000000000E+00 -0.82273912404E+03  0.82273912406E+03  0.50400000000E-02 0. -1.
    8880023    1    1    2    0    0 -0.58349311406E+03  0.29877887223E+03  0.87088043265E+03  0.12735682011E+04  0.65864270000E+03 0.  0.
    8880022    1    1    2    0    0  0.58349311406E+03 -0.29877887223E+03 -0.43909392312E+03  0.80369655653E+03  0.15294330000E+03 0.  0.
<mgrwt>
<rscale>  0 0.85730182E+03</rscale>
<asrwt>0</asrwt>
<pdfrwt beam="1">  1        1 0.12657525E+00 0.92927027E+03</pdfrwt>
<pdfrwt beam="2">  1       -1 0.19300394E+00 0.92927027E+03</pdfrwt>
<totfact> 0.36007052E+00</totfact>
</mgrwt>
</event>
<event>
 4    1  0.1008211E-007  0.8602963E+03  0.7818608E-02  0.9593037E-01
         -1   -1    0    0    0  501 -0.00000000000E+00  0.00000000000E+00  0.59980881808E+03  0.59980881810E+03  0.50400000000E-02 0.  1.
          1   -1    0    0  501    0  0.00000000000E+00 -0.00000000000E+00 -0.13673462084E+04  0.13673462084E+04  0.50400000000E-02 0. -1.
    8880023    1    1    2    0    0  0.29359083167E+03 -0.46915231933E+03  0.16118747628E+03  0.87526629316E+03  0.65864270000E+03 0.  1.
    8880022    1    1    2    0    0 -0.29359083167E+03  0.46915231933E+03 -0.92872486663E+03  0.10918887334E+04  0.15294330000E+03 0.  0.
<mgrwt>
<rscale>  0 0.77758780E+03</rscale>
<asrwt>0</asrwt>
<pdfrwt beam="1">  1        1 0.21036095E+00 0.86029628E+03</pdfrwt>
<pdfrwt beam="2">  1       -1 0.92278280E-01 0.86029628E+03</pdfrwt>
<totfact> 0.94546118E+00</totfact>
</mgrwt>
</event>
<event>
 4    1  0.1008211E-007  0.1026767E+04  0.7818608E-02  0.9347346E-01
         -1   -1    0    0    0  501 -0.00000000000E+00  0.00000000000E+00  0.88405157677E+03  0.88405157678E+03  0.50400000000E-02 0.  1.
          1   -1    0    0  501    0  0.00000000000E+00 -0.00000000000E+00 -0.14678736526E+04  0.14678736526E+04  0.50400000000E-02 0. -1.
    8880023    1    1    2    0    0 -0.35247683904E+03  0.70441532093E+03 -0.10126589053E+04  0.14421266002E+04  0.65864270000E+03 0. -1.
    8880022    1    1    2    0    0  0.35247683904E+03 -0.70441532093E+03  0.42883682940E+03  0.90979862919E+03  0.15294330000E+03 0.  0.
<mgrwt>
<rscale>  0 0.96538519E+03</rscale>
<asrwt>0</asrwt>
<pdfrwt beam="1">  1        1 0.22582671E+00 0.10267673E+04</pdfrwt>
<pdfrwt beam="2">  1       -1 0.13600794E+00 0.10267673E+04</pdfrwt>
<totfact> 0.31175072E+00</totfact>
</mgrwt>
</event>
<event>
 4    1  0.1008211E-007  0.1079666E+04  0.7818608E-02  0.9284041E-01
          1   -1    0    0  501    0  0.00000000000E+00  0.00000000000E+00  0.67529042429E+03  0.67529042431E+03  0.50400000000E-02 0. -1.
         -1   -1    0    0    0  501 -0.00000000000E+00 -0.00000000000E+00 -0.27076620462E+04  0.27076620463E+04  0.50400000000E-02 0.  1.
    8880023    1    1    2    0    0  0.53601780406E+03  0.66674774909E+03 -0.22424835360E+04  0.24888572202E+04  0.65864270000E+03 0.  0.
    8880022    1    1    2    0    0 -0.53601780406E+03 -0.66674774909E+03  0.21011191406E+03  0.89409525031E+03  0.15294330000E+03 0.  0.
<mgrwt>
<rscale>  0 0.10226546E+04</rscale>
<asrwt>0</asrwt>
<pdfrwt beam="1">  1        1 0.10389084E+00 0.10796656E+04</pdfrwt>
<pdfrwt beam="2">  1       -1 0.41656339E+00 0.10796656E+04</pdfrwt>
<totfact> 0.16049676E-01</totfact>
</mgrwt>
</event>
<event>
 4    1  0.1293487E-007  0.1444660E+04  0.7818608E-02  0.8949735E-01
         -1   -1    0    0    0  501 -0.00000000000E+00  0.00000000000E+00  0.13096764058E+04  0.13096764058E+04  0.50400000000E-02 0.  1.
          1   -1    0    0  501    0  0.00000000000E+00 -0.00000000000E+00 -0.39281316361E+04  0.39281316361E+04  0.50400000000E-02 0. -1.
    8880023    1    1    2    0    0  0.11082891407E+04  0.65186518830E+03  0.75094011056E+03  0.16281751438E+04  0.65864270000E+03 0.  0.
    8880022    1    1    2    0    0 -0.11082891407E+04 -0.65186518830E+03 -0.33693953408E+04  0.36096328981E+04  0.15294330000E+03 0.  0.
<mgrwt>
<rscale>  0 0.14056551E+04</rscale>
<asrwt>0</asrwt>
<pdfrwt beam="1">  1        1 0.60432794E+00 0.14446603E+04</pdfrwt>
<pdfrwt beam="2">  1       -1 0.20148868E+00 0.14446603E+04</pdfrwt>
<totfact> 0.15730271E-02</totfact>
</mgrwt>
</event>
<event>
 4    1  0.1008211E-007  0.1350226E+04  0.7818608E-02  0.9023356E-01
          1   -1    0    0  501    0  0.00000000000E+00  0.00000000000E+00  0.12671867670E+04  0.12671867671E+04  0.50400000000E-02 0. -1.
         -1   -1    0    0    0  501 -0.00000000000E+00 -0.00000000000E+00 -0.14034805822E+04  0.14034805822E+04  0.50400000000E-02 0.  1.
    8880023    1    1    2    0    0  0.11191099053E+04  0.36999201462E+03 -0.48064216983E+03  0.14332230017E+04  0.65864270000E+03 0.  1.
    8880022    1    1    2    0    0 -0.11191099053E+04 -0.36999201462E+03  0.34434835469E+03  0.12374443476E+04  0.15294330000E+03 0.  0.
<mgrwt>
<rscale>  0 0.13078589E+04</rscale>
<asrwt>0</asrwt>
<pdfrwt beam="1">  1        1 0.19495181E+00 0.13502264E+04</pdfrwt>
<pdfrwt beam="2">  1       -1 0.21592009E+00 0.13502264E+04</pdfrwt>
<totfact> 0.10787353E+00</totfact>
</mgrwt>
</event>
<event>
 4    1  0.1008211E-007  0.8226106E+03  0.7818608E-02  0.9663885E-01
         -1   -1    0    0    0  501 -0.00000000000E+00  0.00000000000E+00  0.11321546940E+04  0.11321546940E+04  0.50400000000E-02 0.  1.
          1   -1    0    0  501    0  0.00000000000E+00 -0.00000000000E+00 -0.14309787625E+04  0.14309787626E+04  0.50400000000E-02 0. -1.
    8880023    1    1    2    0    0 -0.43346683306E+02  0.49091656672E+03  0.92326456082E+03  0.12365701217E+04  0.65864270000E+03 0.  1.
    8880022    1    1    2    0    0  0.43346683306E+02 -0.49091656672E+03 -0.12220886293E+04  0.13265633349E+04  0.15294330000E+03 0.  0.
<mgrwt>
<rscale>  0 0.73208404E+03</rscale>
<asrwt>0</asrwt>
<pdfrwt beam="1">  1        1 0.22015058E+00 0.82261061E+03</pdfrwt>
<pdfrwt beam="2">  1       -1 0.17417765E+00 0.82261061E+03</pdfrwt>
<totfact> 0.17325113E+00</totfact>
</mgrwt>
</event>
<event>
 4    1  0.1008211E-007  0.6900290E+03  0.7818608E-02  0.1004139E+00
         -1   -1    0    0    0  501 -0.00000000000E+00  0.00000000000E+00  0.36145900061E+03  0.36145900064E+03  0.50400000000E-02 0.  1.
          1   -1    0    0  501    0  0.00000000000E+00 -0.00000000000E+00 -0.87190452657E+03  0.87190452659E+03  0.50400000000E-02 0. -1.
    8880023    1    1    2    0    0 -0.16479647231E+03 -0.12317445112E+03 -0.32247763544E+02  0.69078212717E+03  0.65864270000E+03 0.  0.
    8880022    1    1    2    0    0  0.16479647231E+03  0.12317445112E+03 -0.47819776242E+03  0.54258140006E+03  0.15294330000E+03 0.  0.
<mgrwt>
<rscale>  0 0.53872102E+03</rscale>
<asrwt>0</asrwt>
<pdfrwt beam="1">  1        1 0.13413916E+00 0.69002901E+03</pdfrwt>
<pdfrwt beam="2">  1       -1 0.55609077E-01 0.69002901E+03</pdfrwt>
<totfact> 0.64502001E+01</totfact>
</mgrwt>
</event>
<event>
 4    1  0.1652664E-007  0.1227776E+04  0.7818608E-02  0.9130584E-01
          1   -1    0    0  501    0  0.00000000000E+00  0.00000000000E+00  0.21820418426E+04  0.21820418427E+04  0.50400000000E-02 0. -1.
         -1   -1    0    0    0  501 -0.00000000000E+00 -0.00000000000E+00 -0.17292698870E+04  0.17292698870E+04  0.50400000000E-02 0.  1.
    8880023    1    1    2    0    0 -0.95296539250E+03  0.40679376557E+03 -0.13509686141E+04  0.18255274880E+04  0.65864270000E+03 0.  1.
    8880022    1    1    2    0    0  0.95296539250E+03 -0.40679376557E+03  0.18037405697E+04  0.20857842417E+04  0.15294330000E+03 0.  0.
<mgrwt>
<rscale>  0 0.11799566E+04</rscale>
<asrwt>0</asrwt>
<pdfrwt beam="1">  1        1 0.33569875E+00 0.12277762E+04</pdfrwt>
<pdfrwt beam="2">  1       -1 0.26604152E+00 0.12277762E+04</pdfrwt>
<totfact> 0.12043770E-01</totfact>
</mgrwt>
</event>
<event>
 4    1  0.1008211E-007  0.7770522E+03  0.7818608E-02  0.9762808E-01
          1   -1    0    0  501    0  0.00000000000E+00  0.00000000000E+00  0.21108914556E+04  0.21108914556E+04  0.50400000000E-02 0. -1.
         -1   -1    0    0    0  501 -0.00000000000E+00 -0.00000000000E+00 -0.27128192719E+03  0.27128192724E+03  0.50400000000E-02 0.  1.
    8880023    1    1    2    0    0 -0.33071499004E+03  0.24622654726E+03  0.39415497191E+03  0.87130262559E+03  0.65864270000E+03 0.  1.
    8880022    1    1    2    0    0  0.33071499004E+03 -0.24622654726E+03  0.14454545565E+04  0.15108707573E+04  0.15294330000E+03 0.  0.
<mgrwt>
<rscale>  0 0.67397275E+03</rscale>
<asrwt>0</asrwt>
<pdfrwt beam="1">  1        1 0.32475254E+00 0.77705220E+03</pdfrwt>
<pdfrwt beam="2">  1       -1 0.41735680E-01 0.77705220E+03</pdfrwt>
<totfact> 0.14685892E+01</totfact>
</mgrwt>
</event>
<event>
 4    1  0.1008211E-007  0.8402218E+03  0.7818608E-02  0.9629762E-01
         -1   -1    0    0    0  501 -0.00000000000E+00  0.00000000000E+00  0.31052491312E+03  0.31052491316E+03  0.50400000000E-02 0.  1.
          1   -1    0    0  501    0  0.00000000000E+00 -0.00000000000E+00 -0.24329299885E+04  0.24329299885E+04  0.50400000000E-02 0. -1.
    8880023    1    1    2    0    0 -0.50926292763E+03  0.11319759687E+03 -0.38732634226E+03  0.92519961471E+03  0.65864270000E+03 0.  0.
    8880022    1    1    2    0    0  0.50926292763E+03 -0.11319759687E+03 -0.17350787331E+04  0.18182552869E+04  0.15294330000E+03 0.  0.
<mgrwt>
<rscale>  0 0.75357255E+03</rscale>
<asrwt>0</asrwt>
<pdfrwt beam="1">  1        1 0.37429691E+00 0.84022178E+03</pdfrwt>
<pdfrwt beam="2">  1       -1 0.47773065E-01 0.84022178E+03</pdfrwt>
<totfact> 0.68622297E+00</totfact>
</mgrwt>
</event>
<event>
 4    1  0.1008211E-007  0.1512282E+04  0.7818608E-02  0.8901012E-01
         -1   -1    0    0    0  501 -0.00000000000E+00  0.00000000000E+00  0.13481750046E+04  0.13481750046E+04  0.50400000000E-02 0.  1.
          1   -1    0    0  501    0  0.00000000000E+00 -0.00000000000E+00 -0.17340975317E+04  0.17340975317E+04  0.50400000000E-02 0. -1.
    8880023    1    1    2    0    0 -0.13116471860E+04 -0.36437306693E+03  0.31309237652E+03  0.15443520049E+04  0.65864270000E+03 0.  0.
    8880022    1    1    2    0    0  0.13116471860E+04  0.36437306693E+03 -0.69901490362E+03  0.15379205314E+04  0.15294330000E+03 0.  0.
<mgrwt>
<rscale>  0 0.14753510E+04</rscale>
<asrwt>0</asrwt>
<pdfrwt beam="1">  1        1 0.26678424E+00 0.15122818E+04</pdfrwt>
<pdfrwt beam="2">  1       -1 0.20741154E+00 0.15122818E+04</pdfrwt>
<totfact> 0.57131338E-01</totfact>
</mgrwt>
</event>
<event>
 4    1  0.1008211E-007  0.7994797E+03  0.7818608E-02  0.9711922E-01
         -1   -1    0    0    0  501 -0.00000000000E+00  0.00000000000E+00  0.15323970933E+04  0.15323970933E+04  0.50400000000E-02 0.  1.
          1   -1    0    0  501    0  0.00000000000E+00 -0.00000000000E+00 -0.84513658022E+03  0.84513658023E+03  0.50400000000E-02 0. -1.
    8880023    1    1    2    0    0  0.41079021385E+03  0.19133473049E+03  0.13447702022E+04  0.15644726530E+04  0.65864270000E+03 0.  0.
    8880022    1    1    2    0    0 -0.41079021385E+03 -0.19133473049E+03 -0.65750968912E+03  0.81306102058E+03  0.15294330000E+03 0.  0.
<mgrwt>
<rscale>  0 0.70311366E+03</rscale>
<asrwt>0</asrwt>
<pdfrwt beam="1">  1        1 0.13002101E+00 0.79947970E+03</pdfrwt>
<pdfrwt beam="2">  1       -1 0.23575340E+00 0.79947970E+03</pdfrwt>
<totfact> 0.18129757E+00</totfact>
</mgrwt>
</event>
<event>
 4    1  0.1008211E-007  0.7142927E+03  0.7818608E-02  0.9942393E-01
         -1   -1    0    0    0  501 -0.00000000000E+00  0.00000000000E+00  0.41145757015E+03  0.41145757018E+03  0.50400000000E-02 0.  1.
          1   -1    0    0  501    0  0.00000000000E+00 -0.00000000000E+00 -0.99431867696E+03  0.99431867697E+03  0.50400000000E-02 0. -1.
    8880023    1    1    2    0    0 -0.11734252831E+03  0.25026893220E+03  0.31465022373E+02  0.71498535738E+03  0.65864270000E+03 0.  0.
    8880022    1    1    2    0    0  0.11734252831E+03 -0.25026893220E+03 -0.61432612918E+03  0.69079088977E+03  0.15294330000E+03 0. -1.
<mgrwt>
<rscale>  0 0.58250008E+03</rscale>
<asrwt>0</asrwt>
<pdfrwt beam="1">  1        1 0.15297210E+00 0.71429267E+03</pdfrwt>
<pdfrwt beam="2">  1       -1 0.63301165E-01 0.71429267E+03</pdfrwt>
<totfact> 0.39827788E+01</totfact>
</mgrwt>
</event>
<event>
 4    1  0.1008211E-007  0.9765081E+03  0.7818608E-02  0.9412959E-01
          1   -1    0    0  501    0  0.00000000000E+00  0.00000000000E+00  0.33897542310E+04  0.33897542310E+04  0.50400000000E-02 0. -1.
         -1   -1    0    0    0  501 -0.00000000000E+00 -0.00000000000E+00 -0.31457138932E+03  0.31457138936E+03  0.50400000000E-02 0.  1.
    8880023    1    1    2    0    0  0.59339074272E+03  0.40944498141E+03  0.65856232298E+03  0.11778252442E+04  0.65864270000E+03 0.  1.
    8880022    1    1    2    0    0 -0.59339074272E+03 -0.40944498141E+03  0.24166205187E+04  0.25265003762E+04  0.15294330000E+03 0.  0.
<mgrwt>
<rscale>  0 0.91016847E+03</rscale>
<asrwt>0</asrwt>
<pdfrwt beam="1">  1        1 0.52150063E+00 0.97650805E+03</pdfrwt>
<pdfrwt beam="2">  1       -1 0.48395601E-01 0.97650805E+03</pdfrwt>
<totfact> 0.13541280E+00</totfact>
</mgrwt>
</event>
<event>
 4    1  0.1015192E-007  0.1344760E+04  0.7818608E-02  0.9027839E-01
          1   -1    0    0  501    0  0.00000000000E+00  0.00000000000E+00  0.28609884006E+04  0.28609884006E+04  0.50400000000E-02 0. -1.
         -1   -1    0    0    0  501 -0.00000000000E+00 -0.00000000000E+00 -0.14396909679E+04  0.14396909679E+04  0.50400000000E-02 0.  1.
    8880023    1    1    2    0    0  0.78861989995E+03  0.86755345817E+03 -0.95304531066E+03  0.16482341823E+04  0.65864270000E+03 0.  0.
    8880022    1    1    2    0    0 -0.78861989995E+03 -0.86755345817E+03  0.23743427433E+04  0.26524451861E+04  0.15294330000E+03 0.  0.
<mgrwt>
<rscale>  0 0.13021788E+04</rscale>
<asrwt>0</asrwt>
<pdfrwt beam="1">  1        1 0.44015206E+00 0.13447604E+04</pdfrwt>
<pdfrwt beam="2">  1       -1 0.22149092E+00 0.13447604E+04</pdfrwt>
<totfact> 0.78388043E-02</totfact>
</mgrwt>
</event>
<event>
 4    1  0.1008211E-007  0.7788517E+03  0.7818608E-02  0.9758541E-01
          1   -1    0    0  501    0  0.00000000000E+00  0.00000000000E+00  0.88851057952E+03  0.88851057954E+03  0.50400000000E-02 0. -1.
         -1   -1    0    0    0  501 -0.00000000000E+00 -0.00000000000E+00 -0.68081513255E+03  0.68081513257E+03  0.50400000000E-02 0.  1.
    8880023    1    1    2    0    0  0.31932115880E+03  0.26614617558E+03 -0.35272428035E+03  0.85499965699E+03  0.65864270000E+03 0.  1.
    8880022    1    1    2    0    0 -0.31932115880E+03 -0.26614617558E+03  0.56041972732E+03  0.71432605512E+03  0.15294330000E+03 0.  0.
<mgrwt>
<rscale>  0 0.67635716E+03</rscale>
<asrwt>0</asrwt>
<pdfrwt beam="1">  1        1 0.13669393E+00 0.77885172E+03</pdfrwt>
<pdfrwt beam="2">  1       -1 0.10474079E+00 0.77885172E+03</pdfrwt>
<totfact> 0.16332873E+01</totfact>
</mgrwt>
</event>
<event>
 4    1  0.1008211E-007  0.1472434E+04  0.7818608E-02  0.8929351E-01
          1   -1    0    0  501    0  0.00000000000E+00  0.00000000000E+00  0.27255998370E+04  0.27255998370E+04  0.50400000000E-02 0. -1.
         -1   -1    0    0    0  501 -0.00000000000E+00 -0.00000000000E+00 -0.94335041733E+03  0.94335041735E+03  0.50400000000E-02 0.  1.
    8880023    1    1    2    0    0 -0.12226827545E+04  0.48918039776E+03  0.31371000065E+02  0.14727677772E+04  0.65864270000E+03 0.  1.
    8880022    1    1    2    0    0  0.12226827545E+04 -0.48918039776E+03  0.17508784196E+04  0.21961824772E+04  0.15294330000E+03 0.  0.
<mgrwt>
<rscale>  0 0.14343103E+04</rscale>
<asrwt>0</asrwt>
<pdfrwt beam="1">  1        1 0.41932304E+00 0.14724336E+04</pdfrwt>
<pdfrwt beam="2">  1       -1 0.14513084E+00 0.14724336E+04</pdfrwt>
<totfact> 0.34240935E-01</totfact>
</mgrwt>
</event>
<event>
 4    1  0.1008211E-007  0.1460393E+04  0.7818608E-02  0.8938122E-01
         -1   -1    0    0    0  501 -0.00000000000E+00  0.00000000000E+00  0.11094655119E+04  0.11094655119E+04  0.50400000000E-02 0.  1.
          1   -1    0    0  501    0  0.00000000000E+00 -0.00000000000E+00 -0.21056397001E+04  0.21056397001E+04  0.50400000000E-02 0. -1.
    8880023    1    1    2    0    0 -0.12280300764E+04  0.43689767284E+03  0.15603438582E+03  0.14687050013E+04  0.65864270000E+03 0.  1.
    8880022    1    1    2    0    0  0.12280300764E+04 -0.43689767284E+03 -0.11522085740E+04  0.17464002108E+04  0.15294330000E+03 0.  0.
<mgrwt>
<rscale>  0 0.14218927E+04</rscale>
<asrwt>0</asrwt>
<pdfrwt beam="1">  1        1 0.32394457E+00 0.14603930E+04</pdfrwt>
<pdfrwt beam="2">  1       -1 0.17068700E+00 0.14603930E+04</pdfrwt>
<totfact> 0.58472187E-01</totfact>
</mgrwt>
</event>
<event>
 4    1  0.1008211E-007  0.7710527E+03  0.7818608E-02  0.9777290E-01
          1   -1    0    0  501    0  0.00000000000E+00  0.00000000000E+00  0.10265141647E+04  0.10265141647E+04  0.50400000000E-02 0. -1.
         -1   -1    0    0    0  501 -0.00000000000E+00 -0.00000000000E+00 -0.63401907443E+03  0.63401907445E+03  0.50400000000E-02 0.  1.
    8880023    1    1    2    0    0 -0.96726729004E+02 -0.38904488893E+03 -0.31514658399E+03  0.83297032442E+03  0.65864270000E+03 0.  1.
    8880022    1    1    2    0    0  0.96726729004E+02  0.38904488893E+03  0.70764167424E+03  0.82756291473E+03  0.15294330000E+03 0.  0.
<mgrwt>
<rscale>  0 0.66595644E+03</rscale>
<asrwt>0</asrwt>
<pdfrwt beam="1">  1        1 0.15792526E+00 0.77105265E+03</pdfrwt>
<pdfrwt beam="2">  1       -1 0.97541396E-01 0.77105265E+03</pdfrwt>
<totfact> 0.14963502E+01</totfact>
</mgrwt>
</event>
<event>
 4    1  0.1008211E-007  0.1103041E+04  0.7818608E-02  0.9257678E-01
          1   -1    0    0  501    0  0.00000000000E+00  0.00000000000E+00  0.25848882577E+04  0.25848882577E+04  0.50400000000E-02 0. -1.
         -1   -1    0    0    0  501 -0.00000000000E+00 -0.00000000000E+00 -0.10556195819E+04  0.10556195819E+04  0.50400000000E-02 0.  1.
    8880023    1    1    2    0    0 -0.11686487328E+03  0.87705906257E+03 -0.65222320553E+03  0.12814426690E+04  0.65864270000E+03 0.  0.
    8880022    1    1    2    0    0  0.11686487328E+03 -0.87705906257E+03  0.21814918813E+04  0.23590651706E+04  0.15294330000E+03 0.  0.
<mgrwt>
<rscale>  0 0.10477428E+04</rscale>
<asrwt>0</asrwt>
<pdfrwt beam="1">  1        1 0.39767511E+00 0.11030413E+04</pdfrwt>
<pdfrwt beam="2">  1       -1 0.16240301E+00 0.11030413E+04</pdfrwt>
<totfact> 0.33211484E-01</totfact>
</mgrwt>
</event>
<event>
 4    1  0.1008211E-007  0.1799111E+04  0.7818608E-02  0.8723028E-01
         -1   -1    0    0    0  501 -0.00000000000E+00  0.00000000000E+00  0.20142814579E+04  0.20142814579E+04  0.50400000000E-02 0.  1.
          1   -1    0    0  501    0  0.00000000000E+00 -0.00000000000E+00 -0.21053599680E+04  0.21053599680E+04  0.50400000000E-02 0. -1.
    8880023    1    1    2    0    0  0.14585783796E+04  0.82191143997E+03  0.10543913308E+04  0.20853154652E+04  0.65864270000E+03 0.  1.
    8880022    1    1    2    0    0 -0.14585783796E+04 -0.82191143997E+03 -0.11454698410E+04  0.20343259607E+04  0.15294330000E+03 0.  0.
<mgrwt>
<rscale>  0 0.17688755E+04</rscale>
<asrwt>0</asrwt>
<pdfrwt beam="1">  1        1 0.32390154E+00 0.17991108E+04</pdfrwt>
<pdfrwt beam="2">  1       -1 0.30988945E+00 0.17991108E+04</pdfrwt>
<totfact> 0.65466876E-02</totfact>
</mgrwt>
</event>
<event>
 4    1  0.1008211E-007  0.7934093E+03  0.7818608E-02  0.9725232E-01
          1   -1    0    0  501    0  0.00000000000E+00  0.00000000000E+00  0.66803800883E+03  0.66803800885E+03  0.50400000000E-02 0. -1.
         -1   -1    0    0    0  501 -0.00000000000E+00 -0.00000000000E+00 -0.79804506351E+03  0.79804506353E+03  0.50400000000E-02 0.  1.
    8880023    1    1    2    0    0  0.30564439385E+03 -0.31979630047E+03 -0.43751634507E+03  0.90604576471E+03  0.65864270000E+03 0.  1.
    8880022    1    1    2    0    0 -0.30564439385E+03  0.31979630047E+03  0.30750929039E+03  0.56003730767E+03  0.15294330000E+03 0.  0.
<mgrwt>
<rscale>  0 0.69534170E+03</rscale>
<asrwt>0</asrwt>
<pdfrwt beam="1">  1        1 0.10277508E+00 0.79340934E+03</pdfrwt>
<pdfrwt beam="2">  1       -1 0.12277616E+00 0.79340934E+03</pdfrwt>
<totfact> 0.17492261E+01</totfact>
</mgrwt>
</event>
<event>
 4    1  0.1008211E-007  0.8435330E+03  0.7818608E-02  0.9623554E-01
         -1   -1    0    0    0  501 -0.00000000000E+00  0.00000000000E+00  0.10541902262E+04  0.10541902262E+04  0.50400000000E-02 0.  1.
          1   -1    0    0  501    0  0.00000000000E+00 -0.00000000000E+00 -0.62585544035E+03  0.62585544037E+03  0.50400000000E-02 0. -1.
    8880023    1    1    2    0    0 -0.18741902538E+03  0.49255640028E+03  0.67310822072E+03  0.10791768074E+04  0.65864270000E+03 0.  1.
    8880022    1    1    2    0    0  0.18741902538E+03 -0.49255640028E+03 -0.24477343487E+03  0.60086885920E+03  0.15294330000E+03 0.  0.
<mgrwt>
<rscale>  0 0.75756638E+03</rscale>
<asrwt>0</asrwt>
<pdfrwt beam="1">  1        1 0.96285453E-01 0.84353299E+03</pdfrwt>
<pdfrwt beam="2">  1       -1 0.16218311E+00 0.84353299E+03</pdfrwt>
<totfact> 0.92364269E+00</totfact>
</mgrwt>
</event>
<event>
 4    1  0.1008211E-007  0.6672221E+03  0.7818608E-02  0.1017738E+00
          1   -1    0    0  501    0  0.00000000000E+00  0.00000000000E+00  0.10608311721E+04  0.10608311721E+04  0.50400000000E-02 0. -1.
         -1   -1    0    0    0  501 -0.00000000000E+00 -0.00000000000E+00 -0.13671482061E+04  0.13671482061E+04  0.50400000000E-02 0.  1.
    8880023    1    1    2    0    0  0.70949911490E+02  0.79631891969E+02 -0.12763292576E+04  0.14402089113E+04  0.65864270000E+03 0.  1.
    8880022    1    1    2    0    0 -0.70949911490E+02 -0.79631891969E+02  0.97001222364E+03  0.98777046685E+03  0.15294330000E+03 0.  0.
<mgrwt>
<rscale>  0 0.48511911E+03</rscale>
<asrwt>0</asrwt>
<pdfrwt beam="1">  1        1 0.16320479E+00 0.66722210E+03</pdfrwt>
<pdfrwt beam="2">  1       -1 0.21033049E+00 0.66722210E+03</pdfrwt>
<totfact> 0.18448670E+00</totfact>
</mgrwt>
</event>
<event>
 4    1  0.1008211E-007  0.8580830E+03  0.7818608E-02  0.9596982E-01
         -1   -1    0    0    0  501 -0.00000000000E+00  0.00000000000E+00  0.17206337829E+04  0.17206337829E+04  0.50400000000E-02 0.  1.
          1   -1    0    0  501    0  0.00000000000E+00 -0.00000000000E+00 -0.45782830567E+03  0.45782830570E+03  0.50400000000E-02 0. -1.
    8880023    1    1    2    0    0  0.19803721362E+03 -0.51310579417E+03  0.13513535896E+04  0.16007695101E+04  0.65864270000E+03 0.  1.
    8880022    1    1    2    0    0 -0.19803721362E+03  0.51310579417E+03 -0.88548112442E+02  0.57769257847E+03  0.15294330000E+03 0.  0.
<mgrwt>
<rscale>  0 0.77496221E+03</rscale>
<asrwt>0</asrwt>
<pdfrwt beam="1">  1        1 0.70435123E-01 0.85808304E+03</pdfrwt>
<pdfrwt beam="2">  1       -1 0.26471289E+00 0.85808304E+03</pdfrwt>
<totfact> 0.28762300E+00</totfact>
</mgrwt>
</event>
<event>
 4    1  0.1008211E-007  0.1802700E+04  0.7818608E-02  0.8721045E-01
         -1   -1    0    0    0  501 -0.00000000000E+00  0.00000000000E+00  0.33161834541E+04  0.33161834541E+04  0.50400000000E-02 0.  1.
          1   -1    0    0  501    0  0.00000000000E+00 -0.00000000000E+00 -0.97875069387E+03  0.97875069388E+03  0.50400000000E-02 0. -1.
    8880023    1    1    2    0    0 -0.16106687804E+04  0.47080926943E+03  0.17446247859E+04  0.25086731828E+04  0.65864270000E+03 0.  0.
    8880022    1    1    2    0    0  0.16106687804E+04 -0.47080926943E+03  0.59280797433E+03  0.17862609652E+04  0.15294330000E+03 0.  0.
<mgrwt>
<rscale>  0 0.17725318E+04</rscale>
<asrwt>0</asrwt>
<pdfrwt beam="1">  1        1 0.15057703E+00 0.18026995E+04</pdfrwt>
<pdfrwt beam="2">  1       -1 0.51018208E+00 0.18026995E+04</pdfrwt>
<totfact> 0.18391973E-02</totfact>
</mgrwt>
</event>
<event>
 4    1  0.1008211E-007  0.1456902E+04  0.7818608E-02  0.8940684E-01
          1   -1    0    0  501    0  0.00000000000E+00  0.00000000000E+00  0.31866825045E+04  0.31866825045E+04  0.50400000000E-02 0. -1.
         -1   -1    0    0    0  501 -0.00000000000E+00 -0.00000000000E+00 -0.81814875296E+03  0.81814875297E+03  0.50400000000E-02 0.  1.
    8880023    1    1    2    0    0  0.12993096035E+04 -0.23386267078E+02  0.19785933479E+03  0.14702757856E+04  0.65864270000E+03 0.  1.
    8880022    1    1    2    0    0 -0.12993096035E+04  0.23386267078E+02  0.21706744168E+04  0.25345554718E+04  0.15294330000E+03 0.  0.
<mgrwt>
<rscale>  0 0.14182906E+04</rscale>
<asrwt>0</asrwt>
<pdfrwt beam="1">  1        1 0.49025883E+00 0.14569017E+04</pdfrwt>
<pdfrwt beam="2">  1       -1 0.12586904E+00 0.14569017E+04</pdfrwt>
<totfact> 0.23005124E-01</totfact>
</mgrwt>
</event>
<event>
 4    1  0.1008211E-007  0.9862744E+03  0.7818608E-02  0.9399739E-01
          1   -1    0    0  501    0  0.00000000000E+00  0.00000000000E+00  0.50356117312E+03  0.50356117315E+03  0.50400000000E-02 0. -1.
         -1   -1    0    0    0  501 -0.00000000000E+00 -0.00000000000E+00 -0.17828075319E+04  0.17828075319E+04  0.50400000000E-02 0.  1.
    8880023    1    1    2    0    0  0.54902699695E+03  0.48733595836E+03 -0.25814860842E+03  0.10194988426E+04  0.65864270000E+03 0. -1.
    8880022    1    1    2    0    0 -0.54902699695E+03 -0.48733595836E+03 -0.10210977504E+04  0.12668698625E+04  0.15294330000E+03 0.  0.
<mgrwt>
<rscale>  0 0.92097137E+03</rscale>
<asrwt>0</asrwt>
<pdfrwt beam="1">  1        1 0.77470951E-01 0.98627440E+03</pdfrwt>
<pdfrwt beam="2">  1       -1 0.27427808E+00 0.98627440E+03</pdfrwt>
<totfact> 0.21548162E+00</totfact>
</mgrwt>
</event>
<event>
 4    1  0.1008211E-007  0.8885390E+03  0.7818608E-02  0.9544686E-01
          1   -1    0    0  501    0  0.00000000000E+00  0.00000000000E+00  0.14501054710E+04  0.14501054710E+04  0.50400000000E-02 0. -1.
         -1   -1    0    0    0  501 -0.00000000000E+00 -0.00000000000E+00 -0.42033949018E+03  0.42033949021E+03  0.50400000000E-02 0.  1.
    8880023    1    1    2    0    0  0.55865089583E+03 -0.20880744837E+03  0.35455775398E+03  0.95666753947E+03  0.65864270000E+03 0.  1.
    8880022    1    1    2    0    0 -0.55865089583E+03  0.20880744837E+03  0.67520822686E+03  0.91377742177E+03  0.15294330000E+03 0. -1.
<mgrwt>
<rscale>  0 0.81067946E+03</rscale>
<asrwt>0</asrwt>
<pdfrwt beam="1">  1        1 0.22309314E+00 0.88853901E+03</pdfrwt>
<pdfrwt beam="2">  1       -1 0.64667616E-01 0.88853901E+03</pdfrwt>
<totfact> 0.17478552E+01</totfact>
</mgrwt>
</event>
<event>
 4    1  0.1008211E-007  0.7354961E+03  0.7818608E-02  0.9873266E-01
          1   -1    0    0  501    0  0.00000000000E+00  0.00000000000E+00  0.48035341646E+03  0.48035341649E+03  0.50400000000E-02 0. -1.
         -1   -1    0    0    0  501 -0.00000000000E+00 -0.00000000000E+00 -0.76736040074E+03  0.76736040076E+03  0.50400000000E-02 0.  1.
    8880023    1    1    2    0    0  0.16262701029E+03 -0.28407168813E+03 -0.43810856974E+03  0.85609204740E+03  0.65864270000E+03 0.  0.
    8880022    1    1    2    0    0 -0.16262701029E+03  0.28407168813E+03  0.15110158547E+03  0.39162176985E+03  0.15294330000E+03 0.  0.
<mgrwt>
<rscale>  0 0.61574589E+03</rscale>
<asrwt>0</asrwt>
<pdfrwt beam="1">  1        1 0.73900526E-01 0.73549607E+03</pdfrwt>
<pdfrwt beam="2">  1       -1 0.11805545E+00 0.73549607E+03</pdfrwt>
<totfact> 0.30934798E+01</totfact>
</mgrwt>
</event>
<event>
 4    1  0.1008211E-007  0.1290171E+04  0.7818608E-02  0.9074095E-01
          1   -1    0    0  501    0  0.00000000000E+00  0.00000000000E+00  0.19925904803E+04  0.19925904803E+04  0.50400000000E-02 0. -1.
         -1   -1    0    0    0  501 -0.00000000000E+00 -0.00000000000E+00 -0.11877844831E+04  0.11877844831E+04  0.50400000000E-02 0.  1.
    8880023    1    1    2    0    0  0.63556894136E+03 -0.90927545486E+03  0.14069014474E+04  0.19089032508E+04  0.65864270000E+03 0. -1.
    8880022    1    1    2    0    0 -0.63556894136E+03  0.90927545486E+03 -0.60209545014E+03  0.12714717127E+04  0.15294330000E+03 0.  0.
<mgrwt>
<rscale>  0 0.12453109E+04</rscale>
<asrwt>0</asrwt>
<pdfrwt beam="1">  1        1 0.30655238E+00 0.12901705E+04</pdfrwt>
<pdfrwt beam="2">  1       -1 0.18273608E+00 0.12901705E+04</pdfrwt>
<totfact> 0.58180556E-01</totfact>
</mgrwt>
</event>
<event>
 4    1  0.1008211E-007  0.7503048E+03  0.7818608E-02  0.9830886E-01
         -1   -1    0    0    0  501 -0.00000000000E+00  0.00000000000E+00  0.66509925529E+03  0.66509925531E+03  0.50400000000E-02 0.  1.
          1   -1    0    0  501    0  0.00000000000E+00 -0.00000000000E+00 -0.71332208491E+03  0.71332208493E+03  0.50400000000E-02 0. -1.
    8880023    1    1    2    0    0 -0.33572756168E+03 -0.12819578093E+03  0.34355780024E+03  0.82522077185E+03  0.65864270000E+03 0.  1.
    8880022    1    1    2    0    0  0.33572756168E+03  0.12819578093E+03 -0.39178062986E+03  0.55320056839E+03  0.15294330000E+03 0. -1.
<mgrwt>
<rscale>  0 0.63731018E+03</rscale>
<asrwt>0</asrwt>
<pdfrwt beam="1">  1        1 0.10974186E+00 0.75030484E+03</pdfrwt>
<pdfrwt beam="2">  1       -1 0.10232296E+00 0.75030484E+03</pdfrwt>
<totfact> 0.24549795E+01</totfact>
</mgrwt>
</event>
<event>
 4    1  0.1008211E-007  0.1750118E+04  0.7818608E-02  0.8750643E-01
          1   -1    0    0  501    0  0.00000000000E+00  0.00000000000E+00  0.13816661110E+04  0.13816661110E+04  0.50400000000E-02 0. -1.
         -1   -1    0    0    0  501 -0.00000000000E+00 -0.00000000000E+00 -0.27957293562E+04  0.27957293562E+04  0.50400000000E-02 0.  1.
    8880023    1    1    2    0    0  0.16626159283E+03 -0.16129041362E+04 -0.17926802024E+04  0.25053173819E+04  0.65864270000E+03 0.  0.
    8880022    1    1    2    0    0 -0.16626159283E+03  0.16129041362E+04  0.37861695724E+03  0.16720780852E+04  0.15294330000E+03 0.  0.
<mgrwt>
<rscale>  0 0.17189265E+04</rscale>
<asrwt>0</asrwt>
<pdfrwt beam="1">  1        1 0.21256402E+00 0.17501180E+04</pdfrwt>
<pdfrwt beam="2">  1       -1 0.43011221E+00 0.17501180E+04</pdfrwt>
<totfact> 0.32280028E-02</totfact>
</mgrwt>
</event>
<event>
 4    1  0.1008211E-007  0.6869638E+03  0.7818608E-02  0.1005630E+00
          1   -1    0    0  501    0  0.00000000000E+00  0.00000000000E+00  0.44902092080E+03  0.44902092083E+03  0.50400000000E-02 0. -1.
         -1   -1    0    0    0  501 -0.00000000000E+00 -0.00000000000E+00 -0.66156657247E+03  0.66156657249E+03  0.50400000000E-02 0.  1.
    8880023    1    1    2    0    0 -0.12465915904E+03 -0.15023047902E+03 -0.40430032798E+03  0.79710605582E+03  0.65864270000E+03 0.  0.
    8880022    1    1    2    0    0  0.12465915904E+03  0.15023047902E+03  0.19175467630E+03  0.31348143750E+03  0.15294330000E+03 0.  0.
<mgrwt>
<rscale>  0 0.53248878E+03</rscale>
<asrwt>0</asrwt>
<pdfrwt beam="1">  1        1 0.69080141E-01 0.68696383E+03</pdfrwt>
<pdfrwt beam="2">  1       -1 0.10177947E+00 0.68696383E+03</pdfrwt>
<totfact> 0.48265225E+01</totfact>
</mgrwt>
</event>
<event>
 4    1  0.1008211E-007  0.8365391E+03  0.7818608E-02  0.9636741E-01
          1   -1    0    0  501    0  0.00000000000E+00  0.00000000000E+00  0.66435550886E+03  0.66435550888E+03  0.50400000000E-02 0. -1.
         -1   -1    0    0    0  501 -0.00000000000E+00 -0.00000000000E+00 -0.12055661604E+04  0.12055661604E+04  0.50400000000E-02 0.  1.
    8880023    1    1    2    0    0 -0.44885189257E+03  0.25400687536E+03 -0.89577185239E+03  0.12256447006E+04  0.65864270000E+03 0.  1.
    8880022    1    1    2    0    0  0.44885189257E+03 -0.25400687536E+03  0.35456120089E+03  0.64427696869E+03  0.15294330000E+03 0.  0.
<mgrwt>
<rscale>  0 0.74911433E+03</rscale>
<asrwt>0</asrwt>
<pdfrwt beam="1">  1        1 0.10220854E+00 0.83653913E+03</pdfrwt>
<pdfrwt beam="2">  1       -1 0.18547172E+00 0.83653913E+03</pdfrwt>
<totfact> 0.57343733E+00</totfact>
</mgrwt>
</event>
<event>
 4    1  0.1008211E-007  0.8336615E+03  0.7818608E-02  0.9642250E-01
         -1   -1    0    0    0  501 -0.00000000000E+00  0.00000000000E+00  0.55623331884E+03  0.55623331886E+03  0.50400000000E-02 0.  1.
          1   -1    0    0  501    0  0.00000000000E+00 -0.00000000000E+00 -0.10193557036E+04  0.10193557036E+04  0.50400000000E-02 0. -1.
    8880023    1    1    2    0    0 -0.14950235553E+03 -0.48870275112E+03  0.50330049441E+02  0.83517941390E+03  0.65864270000E+03 0.  1.
    8880022    1    1    2    0    0  0.14950235553E+03  0.48870275112E+03 -0.51345243421E+03  0.74040960858E+03  0.15294330000E+03 0.  0.
<mgrwt>
<rscale>  0 0.74561825E+03</rscale>
<asrwt>0</asrwt>
<pdfrwt beam="1">  1        1 0.15682395E+00 0.83366153E+03</pdfrwt>
<pdfrwt beam="2">  1       -1 0.85574357E-01 0.83366153E+03</pdfrwt>
<totfact> 0.20100731E+01</totfact>
</mgrwt>
</event>
<event>
 4    1  0.1008211E-007  0.2438678E+04  0.7818608E-02  0.8433175E-01
          1   -1    0    0  501    0  0.00000000000E+00  0.00000000000E+00  0.34620084985E+04  0.34620084985E+04  0.50400000000E-02 0. -1.
         -1   -1    0    0    0  501 -0.00000000000E+00 -0.00000000000E+00 -0.22957080038E+04  0.22957080038E+04  0.50400000000E-02 0.  1.
    8880023    1    1    2    0    0  0.41823924951E+03  0.23105014841E+04 -0.92641762399E+03  0.26087163506E+04  0.65864270000E+03 0.  0.
    8880022    1    1    2    0    0 -0.41823924951E+03 -0.23105014841E+04  0.20927181187E+04  0.31490001517E+04  0.15294330000E+03 0.  0.
<mgrwt>
<rscale>  0 0.24169773E+04</rscale>
<asrwt>0</asrwt>
<pdfrwt beam="1">  1        1 0.53261669E+00 0.24386782E+04</pdfrwt>
<pdfrwt beam="2">  1       -1 0.35318585E+00 0.24386782E+04</pdfrwt>
<totfact> 0.33264529E-03</totfact>
</mgrwt>
</event>
<event>
 4    1  0.1008211E-007  0.1150433E+04  0.7818608E-02  0.9206879E-01
         -1   -1    0    0    0  501 -0.00000000000E+00  0.00000000000E+00  0.11787926518E+04  0.11787926519E+04  0.50400000000E-02 0.  1.
          1   -1    0    0  501    0  0.00000000000E+00 -0.00000000000E+00 -0.17594384147E+04  0.17594384147E+04  0.50400000000E-02 0. -1.
    8880023    1    1    2    0    0 -0.86530910282E+03  0.37539979122E+03  0.69523945135E+03  0.13441923031E+04  0.65864270000E+03 0.  0.
    8880022    1    1    2    0    0  0.86530910282E+03 -0.37539979122E+03 -0.12758852142E+04  0.15940387635E+04  0.15294330000E+03 0.  0.
<mgrwt>
<rscale>  0 0.10982704E+04</rscale>
<asrwt>0</asrwt>
<pdfrwt beam="1">  1        1 0.27068283E+00 0.11504326E+04</pdfrwt>
<pdfrwt beam="2">  1       -1 0.18135272E+00 0.11504326E+04</pdfrwt>
<totfact> 0.87213617E-01</totfact>
</mgrwt>
</event>
<event>
 4    1  0.1008211E-007  0.1156021E+04  0.7818608E-02  0.9201106E-01
         -1   -1    0    0    0  501 -0.00000000000E+00  0.00000000000E+00  0.19900090574E+04  0.19900090574E+04  0.50400000000E-02 0.  1.
          1   -1    0    0  501    0  0.00000000000E+00 -0.00000000000E+00 -0.15472257618E+04  0.15472257618E+04  0.50400000000E-02 0. -1.
    8880023    1    1    2    0    0 -0.94128663146E+03 -0.12866249292E+03 -0.11791719375E+04  0.16513119706E+04  0.65864270000E+03 0.  0.
    8880022    1    1    2    0    0  0.94128663146E+03  0.12866249292E+03  0.16219552331E+04  0.18859228486E+04  0.15294330000E+03 0.  0.
<mgrwt>
<rscale>  0 0.11042025E+04</rscale>
<asrwt>0</asrwt>
<pdfrwt beam="1">  1        1 0.23803473E+00 0.11560211E+04</pdfrwt>
<pdfrwt beam="2">  1       -1 0.30615524E+00 0.11560211E+04</pdfrwt>
<totfact> 0.18118718E-01</totfact>
</mgrwt>
</event>
<event>
 4    1  0.1008211E-007  0.9575810E+03  0.7818608E-02  0.9439290E-01
         -1   -1    0    0    0  501 -0.00000000000E+00  0.00000000000E+00  0.10586220720E+04  0.10586220720E+04  0.50400000000E-02 0.  1.
          1   -1    0    0  501    0  0.00000000000E+00 -0.00000000000E+00 -0.91715814194E+03  0.91715814196E+03  0.50400000000E-02 0. -1.
    8880023    1    1    2    0    0  0.34925037854E+03 -0.60097864922E+03  0.59917322112E+03  0.11295883847E+04  0.65864270000E+03 0.  0.
    8880022    1    1    2    0    0 -0.34925037854E+03  0.60097864922E+03 -0.45770929107E+03  0.84619182924E+03  0.15294330000E+03 0.  0.
<mgrwt>
<rscale>  0 0.88911648E+03</rscale>
<asrwt>0</asrwt>
<pdfrwt beam="1">  1        1 0.14110125E+00 0.95758100E+03</pdfrwt>
<pdfrwt beam="2">  1       -1 0.16286493E+00 0.95758100E+03</pdfrwt>
<totfact> 0.49358368E+00</totfact>
</mgrwt>
</event>
<event>
 4    1  0.1008211E-007  0.9924915E+03  0.7818608E-02  0.9391448E-01
         -1   -1    0    0    0  501 -0.00000000000E+00  0.00000000000E+00  0.62026973632E+03  0.62026973634E+03  0.50400000000E-02 0.  1.
          1   -1    0    0  501    0  0.00000000000E+00 -0.00000000000E+00 -0.27715219912E+04  0.27715219912E+04  0.50400000000E-02 0. -1.
    8880023    1    1    2    0    0 -0.58876144873E+03  0.45231540329E+03  0.11780814571E+03  0.99945897016E+03  0.65864270000E+03 0.  0.
    8880022    1    1    2    0    0  0.58876144873E+03 -0.45231540329E+03 -0.22690604006E+04  0.23923327574E+04  0.15294330000E+03 0.  0.
<mgrwt>
<rscale>  0 0.92782868E+03</rscale>
<asrwt>0</asrwt>
<pdfrwt beam="1">  1        1 0.42638799E+00 0.99249155E+03</pdfrwt>
<pdfrwt beam="2">  1       -1 0.95426115E-01 0.99249155E+03</pdfrwt>
<totfact> 0.94861045E-01</totfact>
</mgrwt>
</event>
<event>
 4    1  0.1008211E-007  0.1278591E+04  0.7818608E-02  0.9084272E-01
         -1   -1    0    0    0  501 -0.00000000000E+00  0.00000000000E+00  0.12024609408E+04  0.12024609408E+04  0.50400000000E-02 0.  1.
          1   -1    0    0  501    0  0.00000000000E+00 -0.00000000000E+00 -0.18338034959E+04  0.18338034959E+04  0.50400000000E-02 0. -1.
    8880023    1    1    2    0    0  0.41028825923E+03 -0.10161929264E+04  0.57270524018E+03  0.14009946530E+04  0.65864270000E+03 0.  0.
    8880022    1    1    2    0    0 -0.41028825923E+03  0.10161929264E+04 -0.12040477952E+04  0.16352697837E+04  0.15294330000E+03 0.  0.
<mgrwt>
<rscale>  0 0.12332129E+04</rscale>
<asrwt>0</asrwt>
<pdfrwt beam="1">  1        1 0.28212362E+00 0.12785909E+04</pdfrwt>
<pdfrwt beam="2">  1       -1 0.18499399E+00 0.12785909E+04</pdfrwt>
<totfact> 0.71926300E-01</totfact>
</mgrwt>
</event>
<event>
 4    1  0.1008211E-007  0.9225395E+03  0.7818608E-02  0.9490776E-01
         -1   -1    0    0    0  501 -0.00000000000E+00  0.00000000000E+00  0.80566578718E+03  0.80566578720E+03  0.50400000000E-02 0.  1.
          1   -1    0    0  501    0  0.00000000000E+00 -0.00000000000E+00 -0.10024538418E+04  0.10024538418E+04  0.50400000000E-02 0. -1.
    8880023    1    1    2    0    0  0.51984409870E+03 -0.38344636832E+03  0.30970464547E+03  0.97313728632E+03  0.65864270000E+03 0.  1.
    8880022    1    1    2    0    0 -0.51984409870E+03  0.38344636832E+03 -0.50649270005E+03  0.83498234265E+03  0.15294330000E+03 0.  0.
<mgrwt>
<rscale>  0 0.84967292E+03</rscale>
<asrwt>0</asrwt>
<pdfrwt beam="1">  1        1 0.15422367E+00 0.92253954E+03</pdfrwt>
<pdfrwt beam="2">  1       -1 0.12394858E+00 0.92253954E+03</pdfrwt>
<totfact> 0.87040192E+00</totfact>
</mgrwt>
</event>
<event>
 4    1  0.1008211E-007  0.7020346E+03  0.7818608E-02  0.9988863E-01
          1   -1    0    0  501    0  0.00000000000E+00  0.00000000000E+00  0.64071674242E+03  0.64071674244E+03  0.50400000000E-02 0. -1.
         -1   -1    0    0    0  501 -0.00000000000E+00 -0.00000000000E+00 -0.60614243250E+03  0.60614243252E+03  0.50400000000E-02 0.  1.
    8880023    1    1    2    0    0 -0.24046408287E+03  0.34920198040E+02 -0.33581641720E+03  0.77821929281E+03  0.65864270000E+03 0.  0.
    8880022    1    1    2    0    0  0.24046408287E+03 -0.34920198040E+02  0.37039072712E+03  0.46863988214E+03  0.15294330000E+03 0.  0.
<mgrwt>
<rscale>  0 0.56141269E+03</rscale>
<asrwt>0</asrwt>
<pdfrwt beam="1">  1        1 0.98571807E-01 0.70203462E+03</pdfrwt>
<pdfrwt beam="2">  1       -1 0.93252682E-01 0.70203462E+03</pdfrwt>
<totfact> 0.35724761E+01</totfact>
</mgrwt>
</event>
<event>
 4    1  0.1008211E-007  0.8226956E+03  0.7818608E-02  0.9663715E-01
          1   -1    0    0  501    0  0.00000000000E+00  0.00000000000E+00  0.45906942417E+03  0.45906942420E+03  0.50400000000E-02 0. -1.
         -1   -1    0    0    0  501 -0.00000000000E+00 -0.00000000000E+00 -0.12060284446E+04  0.12060284446E+04  0.50400000000E-02 0.  1.
    8880023    1    1    2    0    0  0.48069123845E+03  0.10933344112E+03 -0.79836939092E+03  0.11463951146E+04  0.65864270000E+03 0.  0.
    8880022    1    1    2    0    0 -0.48069123845E+03 -0.10933344112E+03  0.51410370477E+02  0.51870275427E+03  0.15294330000E+03 0.  0.
<mgrwt>
<rscale>  0 0.73218884E+03</rscale>
<asrwt>0</asrwt>
<pdfrwt beam="1">  1        1 0.70626066E-01 0.82269561E+03</pdfrwt>
<pdfrwt beam="2">  1       -1 0.18554284E+00 0.82269561E+03</pdfrwt>
<totfact> 0.96779418E+00</totfact>
</mgrwt>
</event>
<event>
 4    1  0.1008211E-007  0.7581731E+03  0.7818608E-02  0.9809860E-01
         -1   -1    0    0    0  501 -0.00000000000E+00  0.00000000000E+00  0.59979159242E+03  0.59979159244E+03  0.50400000000E-02 0.  1.
          1   -1    0    0  501    0  0.00000000000E+00 -0.00000000000E+00 -0.70449439164E+03  0.70449439166E+03  0.50400000000E-02 0. -1.
    8880023    1    1    2    0    0  0.33153997081E+03  0.17634480969E+03  0.21485127604E+03  0.78802761451E+03  0.65864270000E+03 0.  1.
    8880022    1    1    2    0    0 -0.33153997081E+03 -0.17634480969E+03 -0.31955407526E+03  0.51625836959E+03  0.15294330000E+03 0.  0.
<mgrwt>
<rscale>  0 0.64836060E+03</rscale>
<asrwt>0</asrwt>
<pdfrwt beam="1">  1        1 0.10838375E+00 0.75817310E+03</pdfrwt>
<pdfrwt beam="2">  1       -1 0.92275630E-01 0.75817310E+03</pdfrwt>
<totfact> 0.31567740E+01</totfact>
</mgrwt>
</event>
<event>
 4    1  0.1008211E-007  0.1033634E+04  0.7818608E-02  0.9338819E-01
          1   -1    0    0  501    0  0.00000000000E+00  0.00000000000E+00  0.14707927371E+04  0.14707927371E+04  0.50400000000E-02 0. -1.
         -1   -1    0    0    0  501 -0.00000000000E+00 -0.00000000000E+00 -0.86808443593E+03  0.86808443595E+03  0.50400000000E-02 0.  1.
    8880023    1    1    2    0    0  0.79480709277E+03  0.53588766847E+02 -0.34661170696E+03  0.10902017943E+04  0.65864270000E+03 0.  0.
    8880022    1    1    2    0    0 -0.79480709277E+03 -0.53588766847E+02  0.94932000816E+03  0.12486753788E+04  0.15294330000E+03 0.  0.
<mgrwt>
<rscale>  0 0.97286365E+03</rscale>
<asrwt>0</asrwt>
<pdfrwt beam="1">  1        1 0.22627581E+00 0.10336345E+04</pdfrwt>
<pdfrwt beam="2">  1       -1 0.13355145E+00 0.10336345E+04</pdfrwt>
<totfact> 0.32488220E+00</totfact>
</mgrwt>
</event>
<event>
 4    1  0.1008211E-007  0.1007171E+04  0.7818608E-02  0.9372235E-01
         -1   -1    0    0    0  501 -0.00000000000E+00  0.00000000000E+00  0.43465730107E+03  0.43465730110E+03  0.50400000000E-02 0.  1.
          1   -1    0    0  501    0  0.00000000000E+00 -0.00000000000E+00 -0.23015353698E+04  0.23015353698E+04  0.50400000000E-02 0. -1.
    8880023    1    1    2    0    0  0.46464277928E+03 -0.60389607354E+03 -0.16435157934E+04  0.19275730205E+04  0.65864270000E+03 0.  0.
    8880022    1    1    2    0    0 -0.46464277928E+03  0.60389607354E+03 -0.22336227536E+03  0.80861965042E+03  0.15294330000E+03 0.  0.
<mgrwt>
<rscale>  0 0.94396265E+03</rscale>
<asrwt>0</asrwt>
<pdfrwt beam="1">  1        1 0.35408236E+00 0.10071711E+04</pdfrwt>
<pdfrwt beam="2">  1       -1 0.66870356E-01 0.10071711E+04</pdfrwt>
<totfact> 0.42682918E+00</totfact>
</mgrwt>
</event>
<event>
 4    1  0.1008211E-007  0.7834116E+03  0.7818608E-02  0.9747883E-01
         -1   -1    0    0    0  501 -0.00000000000E+00  0.00000000000E+00  0.36139539766E+03  0.36139539769E+03  0.50400000000E-02 0.  1.
          1   -1    0    0  501    0  0.00000000000E+00 -0.00000000000E+00 -0.23480996885E+04  0.23480996885E+04  0.50400000000E-02 0. -1.
    8880023    1    1    2    0    0  0.33076338645E+03  0.26555431526E+03 -0.12421085359E+03  0.79319736168E+03  0.65864270000E+03 0.  1.
    8880022    1    1    2    0    0 -0.33076338645E+03 -0.26555431526E+03 -0.18624934373E+04  0.19162977245E+04  0.15294330000E+03 0.  0.
<mgrwt>
<rscale>  0 0.68236024E+03</rscale>
<asrwt>0</asrwt>
<pdfrwt beam="1">  1        1 0.36124610E+00 0.78341159E+03</pdfrwt>
<pdfrwt beam="2">  1       -1 0.55599293E-01 0.78341159E+03</pdfrwt>
<totfact> 0.59189210E+00</totfact>
</mgrwt>
</event>
<event>
 4    1  0.1008211E-007  0.8896981E+03  0.7818608E-02  0.9542776E-01
          1   -1    0    0  501    0  0.00000000000E+00  0.00000000000E+00  0.14330486780E+04  0.14330486780E+04  0.50400000000E-02 0. -1.
         -1   -1    0    0    0  501 -0.00000000000E+00 -0.00000000000E+00 -0.81450740070E+03  0.81450740072E+03  0.50400000000E-02 0.  1.
    8880023    1    1    2    0    0 -0.30056450755E+03 -0.51712038355E+03 -0.46243827501E+03  0.10027022882E+04  0.65864270000E+03 0.  1.
    8880022    1    1    2    0    0  0.30056450755E+03  0.51712038355E+03  0.10809795523E+04  0.12448537905E+04  0.15294330000E+03 0.  0.
<mgrwt>
<rscale>  0 0.81202268E+03</rscale>
<asrwt>0</asrwt>
<pdfrwt beam="1">  1        1 0.22046903E+00 0.88969811E+03</pdfrwt>
<pdfrwt beam="2">  1       -1 0.12530883E+00 0.88969811E+03</pdfrwt>
<totfact> 0.41306711E+00</totfact>
</mgrwt>
</event>
<event>
 4    1  0.1008211E-007  0.1025264E+04  0.7818608E-02  0.9349226E-01
          1   -1    0    0  501    0  0.00000000000E+00  0.00000000000E+00  0.30257998429E+04  0.30257998429E+04  0.50400000000E-02 0. -1.
         -1   -1    0    0    0  501 -0.00000000000E+00 -0.00000000000E+00 -0.68590477624E+03  0.68590477626E+03  0.50400000000E-02 0.  1.
    8880023    1    1    2    0    0  0.78564075090E+03 -0.11190099048E+02 -0.20354785965E+03  0.10452743875E+04  0.65864270000E+03 0.  0.
    8880022    1    1    2    0    0 -0.78564075090E+03  0.11190099048E+02  0.25434429263E+04  0.26664302317E+04  0.15294330000E+03 0.  0.
<mgrwt>
<rscale>  0 0.96374646E+03</rscale>
<asrwt>0</asrwt>
<pdfrwt beam="1">  1        1 0.46550767E+00 0.10252643E+04</pdfrwt>
<pdfrwt beam="2">  1       -1 0.10552381E+00 0.10252643E+04</pdfrwt>
<totfact> 0.49313327E-01</totfact>
</mgrwt>
</event>
<event>
 4    1  0.1008211E-007  0.7174039E+03  0.7818608E-02  0.9931470E-01
         -1   -1    0    0    0  501 -0.00000000000E+00  0.00000000000E+00  0.79288049184E+03  0.79288049185E+03  0.50400000000E-02 0.  1.
          1   -1    0    0  501    0  0.00000000000E+00 -0.00000000000E+00 -0.21566829594E+04  0.21566829594E+04  0.50400000000E-02 0. -1.
    8880023    1    1    2    0    0  0.17802310316E+03 -0.22173381328E+03  0.61479365534E+03  0.94479603837E+03  0.65864270000E+03 0.  0.
    8880022    1    1    2    0    0 -0.17802310316E+03  0.22173381328E+03 -0.19785961229E+04  0.20047674129E+04  0.15294330000E+03 0. -1.
<mgrwt>
<rscale>  0 0.58760052E+03</rscale>
<asrwt>0</asrwt>
<pdfrwt beam="1">  1        1 0.33179738E+00 0.71740387E+03</pdfrwt>
<pdfrwt beam="2">  1       -1 0.12198162E+00 0.71740387E+03</pdfrwt>
<totfact> 0.14784150E+00</totfact>
</mgrwt>
</event>
<event>
 4    1  0.1008211E-007  0.1028569E+04  0.7818608E-02  0.9345099E-01
         -1   -1    0    0    0  501 -0.00000000000E+00  0.00000000000E+00  0.43323672625E+03  0.43323672628E+03  0.50400000000E-02 0.  1.
          1   -1    0    0  501    0  0.00000000000E+00 -0.00000000000E+00 -0.29466567463E+04  0.29466567463E+04  0.50400000000E-02 0. -1.
    8880023    1    1    2    0    0 -0.11119242854E+03 -0.78216384330E+03 -0.37452350675E+03  0.10946333164E+04  0.65864270000E+03 0.  0.
    8880022    1    1    2    0    0  0.11119242854E+03  0.78216384330E+03 -0.21388965133E+04  0.22852601562E+04  0.15294330000E+03 0.  0.
<mgrwt>
<rscale>  0 0.96734868E+03</rscale>
<asrwt>0</asrwt>
<pdfrwt beam="1">  1        1 0.45333180E+00 0.10285690E+04</pdfrwt>
<pdfrwt beam="2">  1       -1 0.66651806E-01 0.10285690E+04</pdfrwt>
<totfact> 0.15244475E+00</totfact>
</mgrwt>
</event>
<event>
 4    1  0.1008211E-007  0.8001391E+03  0.7818608E-02  0.9710495E-01
          1   -1    0    0  501    0  0.00000000000E+00  0.00000000000E+00  0.93263490013E+03  0.93263490014E+03  0.50400000000E-02 0. -1.
         -1   -1    0    0    0  501 -0.00000000000E+00 -0.00000000000E+00 -0.59825582514E+03  0.59825582516E+03  0.50400000000E-02 0.  1.
    8880023    1    1    2    0    0  0.29690391195E+03 -0.34389022249E+03 -0.18795860164E+03  0.82191913243E+03  0.65864270000E+03 0.  0.
    8880022    1    1    2    0    0 -0.29690391195E+03  0.34389022249E+03  0.52233767663E+03  0.70897159287E+03  0.15294330000E+03 0. -1.
<mgrwt>
<rscale>  0 0.70395330E+03</rscale>
<asrwt>0</asrwt>
<pdfrwt beam="1">  1        1 0.14348229E+00 0.80013913E+03</pdfrwt>
<pdfrwt beam="2">  1       -1 0.92039358E-01 0.80013913E+03</pdfrwt>
<totfact> 0.20117659E+01</totfact>
</mgrwt>
</event>
<event>
 4    1  0.1008211E-007  0.7610929E+03  0.7818608E-02  0.9802286E-01
         -1   -1    0    0    0  501 -0.00000000000E+00  0.00000000000E+00  0.30849128976E+03  0.30849128980E+03  0.50400000000E-02 0.  1.
          1   -1    0    0  501    0  0.00000000000E+00 -0.00000000000E+00 -0.23593488697E+04  0.23593488697E+04  0.50400000000E-02 0. -1.
    8880023    1    1    2    0    0  0.31707631394E+03  0.21193120658E+03 -0.22116590837E+03  0.79257604712E+03  0.65864270000E+03 0.  0.
    8880022    1    1    2    0    0 -0.31707631394E+03 -0.21193120658E+03 -0.18296916715E+04  0.18752641123E+04  0.15294330000E+03 0.  0.
<mgrwt>
<rscale>  0 0.65239996E+03</rscale>
<asrwt>0</asrwt>
<pdfrwt beam="1">  1        1 0.36297674E+00 0.76109292E+03</pdfrwt>
<pdfrwt beam="2">  1       -1 0.47460200E-01 0.76109292E+03</pdfrwt>
<totfact> 0.78930484E+00</totfact>
</mgrwt>
</event>
<event>
 4    1  0.1008211E-007  0.1572432E+04  0.7818608E-02  0.8860113E-01
          1   -1    0    0  501    0  0.00000000000E+00  0.00000000000E+00  0.43955990113E+04  0.43955990113E+04  0.50400000000E-02 0. -1.
         -1   -1    0    0    0  501 -0.00000000000E+00 -0.00000000000E+00 -0.63364212935E+03  0.63364212937E+03  0.50400000000E-02 0.  1.
    8880023    1    1    2    0    0  0.30787238361E+03  0.13942552623E+04  0.86198160443E+03  0.17931970427E+04  0.65864270000E+03 0.  0.
    8880022    1    1    2    0    0 -0.30787238361E+03 -0.13942552623E+04  0.28999752775E+04  0.32360440980E+04  0.15294330000E+03 0.  0.
<mgrwt>
<rscale>  0 0.15371574E+04</rscale>
<asrwt>0</asrwt>
<pdfrwt beam="1">  1        1 0.67624602E+00 0.15724323E+04</pdfrwt>
<pdfrwt beam="2">  1       -1 0.97483401E-01 0.15724323E+04</pdfrwt>
<totfact> 0.40092672E-02</totfact>
</mgrwt>
</event>
<event>
 4    1  0.1008211E-007  0.1279069E+04  0.7818608E-02  0.9083849E-01
         -1   -1    0    0    0  501 -0.00000000000E+00  0.00000000000E+00  0.14729510541E+04  0.14729510541E+04  0.50400000000E-02 0.  1.
          1   -1    0    0  501    0  0.00000000000E+00 -0.00000000000E+00 -0.18555721182E+04  0.18555721182E+04  0.50400000000E-02 0. -1.
    8880023    1    1    2    0    0 -0.10937887693E+04 -0.76384194296E+02  0.95202952631E+03  0.15944838796E+04  0.65864270000E+03 0.  0.
    8880022    1    1    2    0    0  0.10937887693E+04  0.76384194296E+02 -0.13346505904E+04  0.17340392927E+04  0.15294330000E+03 0.  0.
<mgrwt>
<rscale>  0 0.12337131E+04</rscale>
<asrwt>0</asrwt>
<pdfrwt beam="1">  1        1 0.28547263E+00 0.12790694E+04</pdfrwt>
<pdfrwt beam="2">  1       -1 0.22660786E+00 0.12790694E+04</pdfrwt>
<totfact> 0.36034170E-01</totfact>
</mgrwt>
</event>
<event>
 4    1  0.1008211E-007  0.8819041E+03  0.7818608E-02  0.9555729E-01
         -1   -1    0    0    0  501 -0.00000000000E+00  0.00000000000E+00  0.49939434849E+03  0.49939434852E+03  0.50400000000E-02 0.  1.
          1   -1    0    0  501    0  0.00000000000E+00 -0.00000000000E+00 -0.17227733296E+04  0.17227733296E+04  0.50400000000E-02 0. -1.
    8880023    1    1    2    0    0 -0.42366072403E+02  0.58493571384E+03 -0.28499816945E+02  0.88236450475E+03  0.65864270000E+03 0.  1.
    8880022    1    1    2    0    0  0.42366072403E+02 -0.58493571384E+03 -0.11948791642E+04  0.13398031734E+04  0.15294330000E+03 0.  0.
<mgrwt>
<rscale>  0 0.80296943E+03</rscale>
<asrwt>0</asrwt>
<pdfrwt beam="1">  1        1 0.26504205E+00 0.88190412E+03</pdfrwt>
<pdfrwt beam="2">  1       -1 0.76829900E-01 0.88190412E+03</pdfrwt>
<totfact> 0.79949349E+00</totfact>
</mgrwt>
</event>
<event>
 4    1  0.1008211E-007  0.1788979E+04  0.7818608E-02  0.8728657E-01
         -1   -1    0    0    0  501 -0.00000000000E+00  0.00000000000E+00  0.18098436734E+04  0.18098436734E+04  0.50400000000E-02 0.  1.
          1   -1    0    0  501    0  0.00000000000E+00 -0.00000000000E+00 -0.27435647483E+04  0.27435647483E+04  0.50400000000E-02 0. -1.
    8880023    1    1    2    0    0 -0.13436279656E+04  0.98045959223E+03  0.95837226375E+03  0.20295134206E+04  0.65864270000E+03 0.  0.
    8880022    1    1    2    0    0  0.13436279656E+04 -0.98045959223E+03 -0.18920933387E+04  0.25238950012E+04  0.15294330000E+03 0.  0.
<mgrwt>
<rscale>  0 0.17585515E+04</rscale>
<asrwt>0</asrwt>
<pdfrwt beam="1">  1        1 0.42208689E+00 0.17889794E+04</pdfrwt>
<pdfrwt beam="2">  1       -1 0.27843749E+00 0.17889794E+04</pdfrwt>
<totfact> 0.37859916E-02</totfact>
</mgrwt>
</event>
<event>
 4    1  0.1008211E-007  0.9726800E+03  0.7818608E-02  0.9418207E-01
         -1   -1    0    0    0  501 -0.00000000000E+00  0.00000000000E+00  0.22804121466E+04  0.22804121466E+04  0.50400000000E-02 0.  1.
          1   -1    0    0  501    0  0.00000000000E+00 -0.00000000000E+00 -0.44781802673E+03  0.44781802676E+03  0.50400000000E-02 0. -1.
    8880023    1    1    2    0    0  0.70059845145E+03  0.14648515195E+03  0.17360694679E+04  0.19899858023E+04  0.65864270000E+03 0.  1.
    8880022    1    1    2    0    0 -0.70059845145E+03 -0.14648515195E+03  0.96524652000E+02  0.73824437104E+03  0.15294330000E+03 0.  0.
<mgrwt>
<rscale>  0 0.90592332E+03</rscale>
<asrwt>0</asrwt>
<pdfrwt beam="1">  1        1 0.68895081E-01 0.97267996E+03</pdfrwt>
<pdfrwt beam="2">  1       -1 0.35083264E+00 0.97267996E+03</pdfrwt>
<totfact> 0.81062166E-01</totfact>
</mgrwt>
</event>
<event>
 4    1  0.1008211E-007  0.7258024E+03  0.7818608E-02  0.9903420E-01
          1   -1    0    0  501    0  0.00000000000E+00  0.00000000000E+00  0.20729185375E+04  0.20729185375E+04  0.50400000000E-02 0. -1.
         -1   -1    0    0    0  501 -0.00000000000E+00 -0.00000000000E+00 -0.17171752843E+03  0.17171752850E+03  0.50400000000E-02 0.  1.
    8880023    1    1    2    0    0 -0.13539193111E+03 -0.27321768989E+03  0.74889731707E+03  0.10428980194E+04  0.65864270000E+03 0.  1.
    8880022    1    1    2    0    0  0.13539193111E+03  0.27321768989E+03  0.11523036920E+04  0.12017380466E+04  0.15294330000E+03 0.  0.
<mgrwt>
<rscale>  0 0.60095806E+03</rscale>
<asrwt>0</asrwt>
<pdfrwt beam="1">  1        1 0.31891053E+00 0.72580237E+03</pdfrwt>
<pdfrwt beam="2">  1       -1 0.26418082E-01 0.72580237E+03</pdfrwt>
<totfact> 0.35228225E+01</totfact>
</mgrwt>
</event>
<event>
 4    1  0.1008211E-007  0.7653142E+03  0.7818608E-02  0.9791539E-01
          1   -1    0    0  501    0  0.00000000000E+00  0.00000000000E+00  0.24346124578E+04  0.24346124578E+04  0.50400000000E-02 0. -1.
         -1   -1    0    0    0  501 -0.00000000000E+00 -0.00000000000E+00 -0.66468540971E+03  0.66468540972E+03  0.50400000000E-02 0.  1.
    8880023    1    1    2    0    0  0.13637079952E+02 -0.38949929132E+03 -0.41775831630E+03  0.87191047992E+03  0.65864270000E+03 0.  1.
    8880022    1    1    2    0    0 -0.13637079952E+02  0.38949929132E+03  0.21876853644E+04  0.22273873876E+04  0.15294330000E+03 0.  0.
<mgrwt>
<rscale>  0 0.65818602E+03</rscale>
<asrwt>0</asrwt>
<pdfrwt beam="1">  1        1 0.37455576E+00 0.76531423E+03</pdfrwt>
<pdfrwt beam="2">  1       -1 0.10225929E+00 0.76531423E+03</pdfrwt>
<totfact> 0.14443206E+00</totfact>
</mgrwt>
</event>
<event>
 4    1  0.1008211E-007  0.1041343E+04  0.7818608E-02  0.9329361E-01
         -1   -1    0    0    0  501 -0.00000000000E+00  0.00000000000E+00  0.34767511494E+03  0.34767511498E+03  0.50400000000E-02 0.  1.
          1   -1    0    0  501    0  0.00000000000E+00 -0.00000000000E+00 -0.27797539036E+04  0.27797539036E+04  0.50400000000E-02 0. -1.
    8880023    1    1    2    0    0 -0.56944433611E+03 -0.57124262056E+03 -0.84679534452E+03  0.13421838716E+04  0.65864270000E+03 0.  0.
    8880022    1    1    2    0    0  0.56944433611E+03  0.57124262056E+03 -0.15852834441E+04  0.17852451469E+04  0.15294330000E+03 0.  0.
<mgrwt>
<rscale>  0 0.98124159E+03</rscale>
<asrwt>0</asrwt>
<pdfrwt beam="1">  1        1 0.42765443E+00 0.10413430E+04</pdfrwt>
<pdfrwt beam="2">  1       -1 0.53488481E-01 0.10413430E+04</pdfrwt>
<totfact> 0.30918013E+00</totfact>
</mgrwt>
</event>
<event>
 4    1  0.1008211E-007  0.7007330E+03  0.7818608E-02  0.9994174E-01
          1   -1    0    0  501    0  0.00000000000E+00  0.00000000000E+00  0.41788870149E+03  0.41788870152E+03  0.50400000000E-02 0. -1.
         -1   -1    0    0    0  501 -0.00000000000E+00 -0.00000000000E+00 -0.13496092037E+04  0.13496092037E+04  0.50400000000E-02 0.  1.
    8880023    1    1    2    0    0 -0.23724370294E+03  0.30527069724E+02 -0.11917526369E+04  0.13824981122E+04  0.65864270000E+03 0.  1.
    8880022    1    1    2    0    0  0.23724370294E+03 -0.30527069724E+02  0.26003213464E+03  0.38499979303E+03  0.15294330000E+03 0.  0.
<mgrwt>
<rscale>  0 0.55906431E+03</rscale>
<asrwt>0</asrwt>
<pdfrwt beam="1">  1        1 0.64290570E-01 0.70073296E+03</pdfrwt>
<pdfrwt beam="2">  1       -1 0.20763218E+00 0.70073296E+03</pdfrwt>
<totfact> 0.78534491E+00</totfact>
</mgrwt>
</event>
<event>
 4    1  0.1008211E-007  0.7098374E+03  0.7818608E-02  0.9958605E-01
          1   -1    0    0  501    0  0.00000000000E+00  0.00000000000E+00  0.76431871812E+03  0.76431871813E+03  0.50400000000E-02 0. -1.
         -1   -1    0    0    0  501 -0.00000000000E+00 -0.00000000000E+00 -0.39664600475E+03  0.39664600479E+03  0.50400000000E-02 0.  1.
    8880023    1    1    2    0    0 -0.60109727883E+02  0.25777068339E+03  0.37240445515E+02  0.71081359135E+03  0.65864270000E+03 0.  1.
    8880022    1    1    2    0    0  0.60109727883E+02 -0.25777068339E+03  0.33043226785E+03  0.45015113157E+03  0.15294330000E+03 0.  1.
<mgrwt>
<rscale>  0 0.57503183E+03</rscale>
<asrwt>0</asrwt>
<pdfrwt beam="1">  1        1 0.11758749E+00 0.70983738E+03</pdfrwt>
<pdfrwt beam="2">  1       -1 0.61022463E-01 0.70983738E+03</pdfrwt>
<totfact> 0.66351692E+01</totfact>
</mgrwt>
</event>
<event>
 4    1  0.1008211E-007  0.1097258E+04  0.7818608E-02  0.9264115E-01
          1   -1    0    0  501    0  0.00000000000E+00  0.00000000000E+00  0.10705176658E+04  0.10705176659E+04  0.50400000000E-02 0. -1.
         -1   -1    0    0    0  501 -0.00000000000E+00 -0.00000000000E+00 -0.97001726617E+03  0.97001726618E+03  0.50400000000E-02 0.  1.
    8880023    1    1    2    0    0 -0.69178571245E+03  0.53999732286E+03  0.27863061577E+03  0.11320820672E+04  0.65864270000E+03 0. -1.
    8880022    1    1    2    0    0  0.69178571245E+03 -0.53999732286E+03 -0.17813021610E+03  0.90845286479E+03  0.15294330000E+03 0.  0.
<mgrwt>
<rscale>  0 0.10415467E+04</rscale>
<asrwt>0</asrwt>
<pdfrwt beam="1">  1        1 0.16469503E+00 0.10972578E+04</pdfrwt>
<pdfrwt beam="2">  1       -1 0.14923342E+00 0.10972578E+04</pdfrwt>
<totfact> 0.46846120E+00</totfact>
</mgrwt>
</event>
<event>
 4    1  0.1057600E-007  0.8187616E+03  0.7818608E-02  0.9671608E-01
         -1   -1    0    0    0  501 -0.00000000000E+00  0.00000000000E+00  0.17108628908E+04  0.17108628908E+04  0.50400000000E-02 0.  1.
          1   -1    0    0  501    0  0.00000000000E+00 -0.00000000000E+00 -0.15156975171E+04  0.15156975171E+04  0.50400000000E-02 0. -1.
    8880023    1    1    2    0    0  0.45672845316E+03  0.16721078624E+03  0.15642761000E+04  0.17655962875E+04  0.65864270000E+03 0.  1.
    8880022    1    1    2    0    0 -0.45672845316E+03 -0.16721078624E+03 -0.13691107263E+04  0.14609641204E+04  0.15294330000E+03 0.  0.
<mgrwt>
<rscale>  0 0.72732704E+03</rscale>
<asrwt>0</asrwt>
<pdfrwt beam="1">  1        1 0.23318423E+00 0.81876159E+03</pdfrwt>
<pdfrwt beam="2">  1       -1 0.26320967E+00 0.81876159E+03</pdfrwt>
<totfact> 0.38253007E-01</totfact>
</mgrwt>
</event>
<event>
 4    1  0.1008211E-007  0.8859959E+03  0.7818608E-02  0.9548897E-01
          1   -1    0    0  501    0  0.00000000000E+00  0.00000000000E+00  0.22137203087E+04  0.22137203087E+04  0.50400000000E-02 0. -1.
         -1   -1    0    0    0  501 -0.00000000000E+00 -0.00000000000E+00 -0.56413846108E+03  0.56413846110E+03  0.50400000000E-02 0.  1.
    8880023    1    1    2    0    0 -0.30607988873E+03 -0.50743832119E+03 -0.13045263073E+03  0.89554823612E+03  0.65864270000E+03 0.  0.
    8880022    1    1    2    0    0  0.30607988873E+03  0.50743832119E+03  0.17800344784E+04  0.18823105337E+04  0.15294330000E+03 0.  0.
<mgrwt>
<rscale>  0 0.80772856E+03</rscale>
<asrwt>0</asrwt>
<pdfrwt beam="1">  1        1 0.34057235E+00 0.88599591E+03</pdfrwt>
<pdfrwt beam="2">  1       -1 0.86790533E-01 0.88599591E+03</pdfrwt>
<totfact> 0.28777452E+00</totfact>
</mgrwt>
</event>
<event>
 4    1  0.1008211E-007  0.1053123E+04  0.7818608E-02  0.9315136E-01
          1   -1    0    0  501    0  0.00000000000E+00  0.00000000000E+00  0.23534200519E+04  0.23534200520E+04  0.50400000000E-02 0. -1.
         -1   -1    0    0    0  501 -0.00000000000E+00 -0.00000000000E+00 -0.76642814721E+03  0.76642814723E+03  0.50400000000E-02 0.  1.
    8880023    1    1    2    0    0  0.72566148431E+03  0.38558302195E+03 -0.26674522239E+03  0.10863802633E+04  0.65864270000E+03 0.  1.
    8880022    1    1    2    0    0 -0.72566148431E+03 -0.38558302195E+03  0.18537371271E+04  0.20334679358E+04  0.15294330000E+03 0.  0.
<mgrwt>
<rscale>  0 0.99401278E+03</rscale>
<asrwt>0</asrwt>
<pdfrwt beam="1">  1        1 0.36206463E+00 0.10531235E+04</pdfrwt>
<pdfrwt beam="2">  1       -1 0.11791202E+00 0.10531235E+04</pdfrwt>
<totfact> 0.11138485E+00</totfact>
</mgrwt>
</event>
<event>
 4    1  0.1008211E-007  0.9517379E+03  0.7818608E-02  0.9447618E-01
         -1   -1    0    0    0  501 -0.00000000000E+00  0.00000000000E+00  0.66605486038E+03  0.66605486040E+03  0.50400000000E-02 0.  1.
          1   -1    0    0  501    0  0.00000000000E+00 -0.00000000000E+00 -0.21350014544E+04  0.21350014544E+04  0.50400000000E-02 0. -1.
    8880023    1    1    2    0    0  0.68671732174E+03 -0.20350880595E+02  0.21518909324E+03  0.97576195377E+03  0.65864270000E+03 0.  0.
    8880022    1    1    2    0    0 -0.68671732174E+03  0.20350880595E+02 -0.16841356872E+04  0.18252943610E+04  0.15294330000E+03 0.  0.
<mgrwt>
<rscale>  0 0.88258399E+03</rscale>
<asrwt>0</asrwt>
<pdfrwt beam="1">  1        1 0.32846176E+00 0.95173791E+03</pdfrwt>
<pdfrwt beam="2">  1       -1 0.10246998E+00 0.95173791E+03</pdfrwt>
<totfact> 0.22176568E+00</totfact>
</mgrwt>
</event>
<event>
 4    1  0.1008211E-007  0.9380417E+03  0.7818608E-02  0.9467532E-01
         -1   -1    0    0    0  501 -0.00000000000E+00  0.00000000000E+00  0.91724378236E+03  0.91724378238E+03  0.50400000000E-02 0.  1.
          1   -1    0    0  501    0  0.00000000000E+00 -0.00000000000E+00 -0.21659968544E+04  0.21659968544E+04  0.50400000000E-02 0. -1.
    8880023    1    1    2    0    0 -0.49264520360E+03 -0.45101294942E+03  0.59869637718E+03  0.11128160385E+04  0.65864270000E+03 0.  1.
    8880022    1    1    2    0    0  0.49264520360E+03  0.45101294942E+03 -0.18474494493E+04  0.19704245983E+04  0.15294330000E+03 0.  0.
<mgrwt>
<rscale>  0 0.86720439E+03</rscale>
<asrwt>0</asrwt>
<pdfrwt beam="1">  1        1 0.33323028E+00 0.93804167E+03</pdfrwt>
<pdfrwt beam="2">  1       -1 0.14111443E+00 0.93804167E+03</pdfrwt>
<totfact> 0.96574719E-01</totfact>
</mgrwt>
</event>
<event>
 4    1  0.1008211E-007  0.9840988E+03  0.7818608E-02  0.9402663E-01
          1   -1    0    0  501    0  0.00000000000E+00  0.00000000000E+00  0.19186552135E+04  0.19186552135E+04  0.50400000000E-02 0. -1.
         -1   -1    0    0    0  501 -0.00000000000E+00 -0.00000000000E+00 -0.46538460315E+03  0.46538460317E+03  0.50400000000E-02 0.  1.
    8880023    1    1    2    0    0 -0.36202055156E+03  0.63528057994E+03  0.12845917305E+04  0.16182170483E+04  0.65864270000E+03 0. -1.
    8880022    1    1    2    0    0  0.36202055156E+03 -0.63528057994E+03  0.16867887978E+03  0.76582276834E+03  0.15294330000E+03 0.  0.
<mgrwt>
<rscale>  0 0.91856823E+03</rscale>
<asrwt>0</asrwt>
<pdfrwt beam="1">  1        1 0.29517772E+00 0.98409883E+03</pdfrwt>
<pdfrwt beam="2">  1       -1 0.71597632E-01 0.98409883E+03</pdfrwt>
<totfact> 0.67465944E+00</totfact>
</mgrwt>
</event>
<event>
 4    1  0.1008211E-007  0.9562132E+03  0.7818608E-02  0.9441230E-01
          1   -1    0    0  501    0  0.00000000000E+00  0.00000000000E+00  0.10985171070E+04  0.10985171070E+04  0.50400000000E-02 0. -1.
         -1   -1    0    0    0  501 -0.00000000000E+00 -0.00000000000E+00 -0.73772429862E+03  0.73772429863E+03  0.50400000000E-02 0.  1.
    8880023    1    1    2    0    0  0.68735334218E+03  0.89882082521E+02 -0.14150619069E+03  0.96662692598E+03  0.65864270000E+03 0.  0.
    8880022    1    1    2    0    0 -0.68735334218E+03 -0.89882082521E+02  0.50229899908E+03  0.86961447968E+03  0.15294330000E+03 0.  0.
<mgrwt>
<rscale>  0 0.88758874E+03</rscale>
<asrwt>0</asrwt>
<pdfrwt beam="1">  1        1 0.16900263E+00 0.95621316E+03</pdfrwt>
<pdfrwt beam="2">  1       -1 0.11349605E+00 0.95621316E+03</pdfrwt>
<totfact> 0.90737986E+00</totfact>
</mgrwt>
</event>
<event>
 4    1  0.1008211E-007  0.8143811E+03  0.7818608E-02  0.9680522E-01
          1   -1    0    0  501    0  0.00000000000E+00  0.00000000000E+00  0.57586006408E+03  0.57586006410E+03  0.50400000000E-02 0. -1.
         -1   -1    0    0    0  501 -0.00000000000E+00 -0.00000000000E+00 -0.12701855755E+04  0.12701855755E+04  0.50400000000E-02 0.  1.
    8880023    1    1    2    0    0  0.47041240859E+03 -0.90103218216E+02 -0.97487918366E+03  0.12702779432E+04  0.65864270000E+03 0.  1.
    8880022    1    1    2    0    0 -0.47041240859E+03  0.90103218216E+02  0.28055367228E+03  0.57576769632E+03  0.15294330000E+03 0.  0.
<mgrwt>
<rscale>  0 0.72188414E+03</rscale>
<asrwt>0</asrwt>
<pdfrwt beam="1">  1        1 0.88593856E-01 0.81438113E+03</pdfrwt>
<pdfrwt beam="2">  1       -1 0.19541317E+00 0.81438113E+03</pdfrwt>
<totfact> 0.60356735E+00</totfact>
</mgrwt>
</event>
<event>
 4    1  0.1008211E-007  0.9547132E+03  0.7818608E-02  0.9443365E-01
         -1   -1    0    0    0  501 -0.00000000000E+00  0.00000000000E+00  0.10894756698E+04  0.10894756699E+04  0.50400000000E-02 0.  1.
          1   -1    0    0  501    0  0.00000000000E+00 -0.00000000000E+00 -0.67797105200E+03  0.67797105202E+03  0.50400000000E-02 0. -1.
    8880023    1    1    2    0    0  0.61928845715E+03  0.30683684903E+03  0.45634678750E+03  0.10581727845E+04  0.65864270000E+03 0.  0.
    8880022    1    1    2    0    0 -0.61928845715E+03 -0.30683684903E+03 -0.44842169654E+02  0.70927393740E+03  0.15294330000E+03 0.  0.
<mgrwt>
<rscale>  0 0.88591237E+03</rscale>
<asrwt>0</asrwt>
<pdfrwt beam="1">  1        1 0.10430324E+00 0.95471318E+03</pdfrwt>
<pdfrwt beam="2">  1       -1 0.16761164E+00 0.95471318E+03</pdfrwt>
<totfact> 0.73833862E+00</totfact>
</mgrwt>
</event>
<event>
 4    1  0.1008211E-007  0.1348924E+04  0.7818608E-02  0.9024422E-01
          1   -1    0    0  501    0  0.00000000000E+00  0.00000000000E+00  0.20661646323E+04  0.20661646323E+04  0.50400000000E-02 0. -1.
         -1   -1    0    0    0  501 -0.00000000000E+00 -0.00000000000E+00 -0.91469534155E+03  0.91469534157E+03  0.50400000000E-02 0.  1.
    8880023    1    1    2    0    0 -0.53065243900E+03  0.10508067596E+04  0.32191955401E+02  0.13493084841E+04  0.65864270000E+03 0.  0.
    8880022    1    1    2    0    0  0.53065243900E+03 -0.10508067596E+04  0.11192773353E+04  0.16315514897E+04  0.15294330000E+03 0.  0.
<mgrwt>
<rscale>  0 0.13065062E+04</rscale>
<asrwt>0</asrwt>
<pdfrwt beam="1">  1        1 0.31787148E+00 0.13489244E+04</pdfrwt>
<pdfrwt beam="2">  1       -1 0.14072236E+00 0.13489244E+04</pdfrwt>
<totfact> 0.10737875E+00</totfact>
</mgrwt>
</event>
<event>
 4    1  0.1008211E-007  0.6822994E+03  0.7818608E-02  0.1008052E+00
         -1   -1    0    0    0  501 -0.00000000000E+00  0.00000000000E+00  0.56546857500E+03  0.56546857503E+03  0.50400000000E-02 0.  1.
          1   -1    0    0  501    0  0.00000000000E+00 -0.00000000000E+00 -0.10809984729E+04  0.10809984729E+04  0.50400000000E-02 0. -1.
    8880023    1    1    2    0    0  0.19639008939E+02 -0.17702149989E+03  0.33786452931E+03  0.76137044106E+03  0.65864270000E+03 0.  0.
    8880022    1    1    2    0    0 -0.19639008939E+02  0.17702149989E+03 -0.85339442717E+03  0.88509660684E+03  0.15294330000E+03 0.  0.
<mgrwt>
<rscale>  0 0.52256336E+03</rscale>
<asrwt>0</asrwt>
<pdfrwt beam="1">  1        1 0.16630746E+00 0.68229943E+03</pdfrwt>
<pdfrwt beam="2">  1       -1 0.86995166E-01 0.68229943E+03</pdfrwt>
<totfact> 0.17737322E+01</totfact>
</mgrwt>
</event>
<event>
 4    1  0.1008211E-007  0.6653195E+03  0.7818608E-02  0.1019267E+00
         -1   -1    0    0    0  501 -0.00000000000E+00  0.00000000000E+00  0.46904096550E+03  0.46904096552E+03  0.50400000000E-02 0.  1.
          1   -1    0    0  501    0  0.00000000000E+00 -0.00000000000E+00 -0.68109972371E+03  0.68109972373E+03  0.50400000000E-02 0. -1.
    8880023    1    1    2    0    0  0.26517942952E+02  0.90202931235E+02  0.20491411272E+03  0.69616073572E+03  0.65864270000E+03 0.  1.
    8880022    1    1    2    0    0 -0.26517942952E+02 -0.90202931235E+02 -0.41697287094E+03  0.45397995354E+03  0.15294330000E+03 0.  0.
<mgrwt>
<rscale>  0 0.47952097E+03</rscale>
<asrwt>0</asrwt>
<pdfrwt beam="1">  1        1 0.10478457E+00 0.66531945E+03</pdfrwt>
<pdfrwt beam="2">  1       -1 0.72160149E-01 0.66531945E+03</pdfrwt>
<totfact> 0.56655512E+01</totfact>
</mgrwt>
</event>
<event>
 4    1  0.1008211E-007  0.9246544E+03  0.7818608E-02  0.9487559E-01
         -1   -1    0    0    0  501 -0.00000000000E+00  0.00000000000E+00  0.89968393713E+03  0.89968393714E+03  0.50400000000E-02 0.  1.
          1   -1    0    0  501    0  0.00000000000E+00 -0.00000000000E+00 -0.21669688939E+04  0.21669688939E+04  0.50400000000E-02 0. -1.
    8880023    1    1    2    0    0 -0.18167042516E+03 -0.62303410237E+03  0.58760468112E+03  0.10955661110E+04  0.65864270000E+03 0.  1.
    8880022    1    1    2    0    0  0.18167042516E+03  0.62303410237E+03 -0.18548896379E+04  0.19710867200E+04  0.15294330000E+03 0.  0.
<mgrwt>
<rscale>  0 0.85207296E+03</rscale>
<asrwt>0</asrwt>
<pdfrwt beam="1">  1        1 0.33337983E+00 0.92465444E+03</pdfrwt>
<pdfrwt beam="2">  1       -1 0.13841291E+00 0.92465444E+03</pdfrwt>
<totfact> 0.10165675E+00</totfact>
</mgrwt>
</event>
<event>
 4    1  0.1008211E-007  0.7129744E+03  0.7818608E-02  0.9947117E-01
         -1   -1    0    0    0  501 -0.00000000000E+00  0.00000000000E+00  0.48433905054E+03  0.48433905057E+03  0.50400000000E-02 0.  1.
          1   -1    0    0  501    0  0.00000000000E+00 -0.00000000000E+00 -0.14992759170E+04  0.14992759170E+04  0.50400000000E-02 0. -1.
    8880023    1    1    2    0    0 -0.27294554131E+03  0.48012685999E+01  0.19069658413E+03  0.73803639081E+03  0.65864270000E+03 0.  1.
    8880022    1    1    2    0    0  0.27294554131E+03 -0.48012685999E+01 -0.12056334506E+04  0.12455785768E+04  0.15294330000E+03 0.  0.
<mgrwt>
<rscale>  0 0.58031133E+03</rscale>
<asrwt>0</asrwt>
<pdfrwt beam="1">  1        1 0.23065783E+00 0.71297442E+03</pdfrwt>
<pdfrwt beam="2">  1       -1 0.74513701E-01 0.71297442E+03</pdfrwt>
<totfact> 0.12380549E+01</totfact>
</mgrwt>
</event>
<event>
 4    1  0.1008211E-007  0.1105892E+04  0.7818608E-02  0.9254524E-01
         -1   -1    0    0    0  501 -0.00000000000E+00  0.00000000000E+00  0.11515201339E+04  0.11515201339E+04  0.50400000000E-02 0.  1.
          1   -1    0    0  501    0  0.00000000000E+00 -0.00000000000E+00 -0.10192015672E+04  0.10192015672E+04  0.50400000000E-02 0. -1.
    8880023    1    1    2    0    0  0.35972134386E+03  0.81227323248E+03  0.47867144547E+03  0.12050409986E+04  0.65864270000E+03 0.  0.
    8880022    1    1    2    0    0 -0.35972134386E+03 -0.81227323248E+03 -0.34635287874E+03  0.96568070244E+03  0.15294330000E+03 0.  0.
<mgrwt>
<rscale>  0 0.10507945E+04</rscale>
<asrwt>0</asrwt>
<pdfrwt beam="1">  1        1 0.15680024E+00 0.11058922E+04</pdfrwt>
<pdfrwt beam="2">  1       -1 0.17715694E+00 0.11058922E+04</pdfrwt>
<totfact> 0.31607165E+00</totfact>
</mgrwt>
</event>
<event>
 4    1  0.1008211E-007  0.8681923E+03  0.7818608E-02  0.9579154E-01
          1   -1    0    0  501    0  0.00000000000E+00  0.00000000000E+00  0.54305582036E+03  0.54305582039E+03  0.50400000000E-02 0. -1.
         -1   -1    0    0    0  501 -0.00000000000E+00 -0.00000000000E+00 -0.21470879232E+04  0.21470879232E+04  0.50400000000E-02 0.  1.
    8880023    1    1    2    0    0  0.54548268596E+03 -0.14965367842E+03 -0.18585265614E+04  0.20513114756E+04  0.65864270000E+03 0.  1.
    8880022    1    1    2    0    0 -0.54548268596E+03  0.14965367842E+03  0.25449445859E+03  0.63883226799E+03  0.15294330000E+03 0.  0.
<mgrwt>
<rscale>  0 0.78691416E+03</rscale>
<asrwt>0</asrwt>
<pdfrwt beam="1">  1        1 0.83547050E-01 0.86819225E+03</pdfrwt>
<pdfrwt beam="2">  1       -1 0.33032121E+00 0.86819225E+03</pdfrwt>
<totfact> 0.85949731E-01</totfact>
</mgrwt>
</event>
<event>
 4    1  0.1008211E-007  0.1285710E+04  0.7818608E-02  0.9078000E-01
         -1   -1    0    0    0  501 -0.00000000000E+00  0.00000000000E+00  0.14187340092E+04  0.14187340092E+04  0.50400000000E-02 0.  1.
          1   -1    0    0  501    0  0.00000000000E+00 -0.00000000000E+00 -0.14402860110E+04  0.14402860111E+04  0.50400000000E-02 0. -1.
    8880023    1    1    2    0    0 -0.48099127544E+03 -0.99392510494E+03  0.76374956540E+03  0.14954475337E+04  0.65864270000E+03 0.  1.
    8880022    1    1    2    0    0  0.48099127544E+03  0.99392510494E+03 -0.78530156729E+03  0.13635724865E+04  0.15294330000E+03 0.  0.
<mgrwt>
<rscale>  0 0.12406521E+04</rscale>
<asrwt>0</asrwt>
<pdfrwt beam="1">  1        1 0.22158246E+00 0.12857099E+04</pdfrwt>
<pdfrwt beam="2">  1       -1 0.21826677E+00 0.12857099E+04</pdfrwt>
<totfact> 0.78909858E-01</totfact>
</mgrwt>
</event>
<event>
 4    1  0.1008211E-007  0.9343733E+03  0.7818608E-02  0.9472963E-01
         -1   -1    0    0    0  501 -0.00000000000E+00  0.00000000000E+00  0.32913115772E+04  0.32913115772E+04  0.50400000000E-02 0.  1.
          1   -1    0    0  501    0  0.00000000000E+00 -0.00000000000E+00 -0.28264195819E+03  0.28264195823E+03  0.50400000000E-02 0. -1.
    8880023    1    1    2    0    0  0.50107022375E+03 -0.43378779464E+03  0.26396098901E+04  0.28001060334E+04  0.65864270000E+03 0.  0.
    8880022    1    1    2    0    0 -0.50107022375E+03  0.43378779464E+03  0.36905972887E+03  0.77384750203E+03  0.15294330000E+03 0.  0.
<mgrwt>
<rscale>  0 0.86306818E+03</rscale>
<asrwt>0</asrwt>
<pdfrwt beam="1">  1        1 0.43483377E-01 0.93437328E+03</pdfrwt>
<pdfrwt beam="2">  1       -1 0.50635564E+00 0.93437328E+03</pdfrwt>
<totfact> 0.13211979E-01</totfact>
</mgrwt>
</event>
<event>
 4    1  0.1008211E-007  0.1060086E+04  0.7818608E-02  0.9306854E-01
         -1   -1    0    0    0  501 -0.00000000000E+00  0.00000000000E+00  0.64097280008E+03  0.64097280010E+03  0.50400000000E-02 0.  1.
          1   -1    0    0  501    0  0.00000000000E+00 -0.00000000000E+00 -0.14407269304E+04  0.14407269304E+04  0.50400000000E-02 0. -1.
    8880023    1    1    2    0    0 -0.22320895697E+03 -0.80009378148E+03 -0.58256393227E+03  0.12096128468E+04  0.65864270000E+03 0.  1.
    8880022    1    1    2    0    0  0.22320895697E+03  0.80009378148E+03 -0.21719019803E+03  0.87208688372E+03  0.15294330000E+03 0. -1.
<mgrwt>
<rscale>  0 0.10015433E+04</rscale>
<asrwt>0</asrwt>
<pdfrwt beam="1">  1        1 0.22165030E+00 0.10600861E+04</pdfrwt>
<pdfrwt beam="2">  1       -1 0.98611200E-01 0.10600861E+04</pdfrwt>
<totfact> 0.70680393E+00</totfact>
</mgrwt>
</event>
<event>
 4    1  0.1008211E-007  0.7857787E+03  0.7818608E-02  0.9742434E-01
          1   -1    0    0  501    0  0.00000000000E+00  0.00000000000E+00  0.18671142832E+04  0.18671142832E+04  0.50400000000E-02 0. -1.
         -1   -1    0    0    0  501 -0.00000000000E+00 -0.00000000000E+00 -0.36268177829E+03  0.36268177832E+03  0.50400000000E-02 0.  1.
    8880023    1    1    2    0    0 -0.40847830908E+03 -0.12955090409E+03  0.14867092331E+03  0.79971946046E+03  0.65864270000E+03 0.  1.
    8880022    1    1    2    0    0  0.40847830908E+03  0.12955090409E+03  0.13557615816E+04  0.14300766011E+04  0.15294330000E+03 0.  0.
<mgrwt>
<rscale>  0 0.68545548E+03</rscale>
<asrwt>0</asrwt>
<pdfrwt beam="1">  1        1 0.28724835E+00 0.78577870E+03</pdfrwt>
<pdfrwt beam="2">  1       -1 0.55797196E-01 0.78577870E+03</pdfrwt>
<totfact> 0.12357966E+01</totfact>
</mgrwt>
</event>
<event>
 4    1  0.1008211E-007  0.1333764E+04  0.7818608E-02  0.9036938E-01
         -1   -1    0    0    0  501 -0.00000000000E+00  0.00000000000E+00  0.90277260715E+03  0.90277260717E+03  0.50400000000E-02 0.  1.
          1   -1    0    0  501    0  0.00000000000E+00 -0.00000000000E+00 -0.22540564958E+04  0.22540564958E+04  0.50400000000E-02 0. -1.
    8880023    1    1    2    0    0 -0.11569459148E+04 -0.81185591167E+02  0.45920694594E+02  0.13345538080E+04  0.65864270000E+03 0.  0.
    8880022    1    1    2    0    0  0.11569459148E+04  0.81185591167E+02 -0.13972045832E+04  0.18222752949E+04  0.15294330000E+03 0.  0.
<mgrwt>
<rscale>  0 0.12907436E+04</rscale>
<asrwt>0</asrwt>
<pdfrwt beam="1">  1        1 0.34677792E+00 0.13337635E+04</pdfrwt>
<pdfrwt beam="2">  1       -1 0.13888809E+00 0.13337635E+04</pdfrwt>
<totfact> 0.82966816E-01</totfact>
</mgrwt>
</event>
<event>
 4    1  0.1008211E-007  0.9285503E+03  0.7818608E-02  0.9481671E-01
          1   -1    0    0  501    0  0.00000000000E+00  0.00000000000E+00  0.19498866571E+04  0.19498866571E+04  0.50400000000E-02 0. -1.
         -1   -1    0    0    0  501 -0.00000000000E+00 -0.00000000000E+00 -0.33350140227E+03  0.33350140231E+03  0.50400000000E-02 0.  1.
    8880023    1    1    2    0    0  0.34643582839E+02 -0.65360174350E+03  0.79784294727E+03  0.12242381270E+04  0.65864270000E+03 0.  0.
    8880022    1    1    2    0    0 -0.34643582839E+02  0.65360174350E+03  0.81854230754E+03  0.10591499323E+04  0.15294330000E+03 0.  0.
<mgrwt>
<rscale>  0 0.85648704E+03</rscale>
<asrwt>0</asrwt>
<pdfrwt beam="1">  1        1 0.29998256E+00 0.92855028E+03</pdfrwt>
<pdfrwt beam="2">  1       -1 0.51307909E-01 0.92855028E+03</pdfrwt>
<totfact> 0.12543988E+01</totfact>
</mgrwt>
</event>
<event>
 4    1  0.1008211E-007  0.7983112E+03  0.7818608E-02  0.9714459E-01
         -1   -1    0    0    0  501 -0.00000000000E+00  0.00000000000E+00  0.51902738462E+03  0.51902738465E+03  0.50400000000E-02 0.  1.
          1   -1    0    0  501    0  0.00000000000E+00 -0.00000000000E+00 -0.29449099623E+04  0.29449099623E+04  0.50400000000E-02 0. -1.
    8880023    1    1    2    0    0 -0.42485338265E+03 -0.15162524500E+03  0.17711073264E+03  0.81772185341E+03  0.65864270000E+03 0.  0.
    8880022    1    1    2    0    0  0.42485338265E+03  0.15162524500E+03 -0.26029933103E+04  0.26462154935E+04  0.15294330000E+03 0.  0.
<mgrwt>
<rscale>  0 0.70162369E+03</rscale>
<asrwt>0</asrwt>
<pdfrwt beam="1">  1        1 0.45306306E+00 0.79831123E+03</pdfrwt>
<pdfrwt beam="2">  1       -1 0.79850369E-01 0.79831123E+03</pdfrwt>
<totfact> 0.10943032E+00</totfact>
</mgrwt>
</event>
<event>
 4    1  0.1008211E-007  0.2016798E+04  0.7818608E-02  0.8611235E-01
         -1   -1    0    0    0  501 -0.00000000000E+00  0.00000000000E+00  0.17664380451E+04  0.17664380451E+04  0.50400000000E-02 0.  1.
          1   -1    0    0  501    0  0.00000000000E+00 -0.00000000000E+00 -0.29893461149E+04  0.29893461150E+04  0.50400000000E-02 0. -1.
    8880023    1    1    2    0    0  0.46227659731E+03 -0.18493140707E+04  0.60986470605E+03  0.21069901164E+04  0.65864270000E+03 0.  0.
    8880022    1    1    2    0    0 -0.46227659731E+03  0.18493140707E+04 -0.18327727759E+04  0.26487940437E+04  0.15294330000E+03 0.  0.
<mgrwt>
<rscale>  0 0.19901607E+04</rscale>
<asrwt>0</asrwt>
<pdfrwt beam="1">  1        1 0.45989940E+00 0.20167976E+04</pdfrwt>
<pdfrwt beam="2">  1       -1 0.27175970E+00 0.20167976E+04</pdfrwt>
<totfact> 0.27136162E-02</totfact>
</mgrwt>
</event>
<event>
 4    1  0.1008211E-007  0.1019304E+04  0.7818608E-02  0.9356727E-01
         -1   -1    0    0    0  501 -0.00000000000E+00  0.00000000000E+00  0.49741724619E+03  0.49741724621E+03  0.50400000000E-02 0.  1.
          1   -1    0    0  501    0  0.00000000000E+00 -0.00000000000E+00 -0.26439200489E+04  0.26439200490E+04  0.50400000000E-02 0. -1.
    8880023    1    1    2    0    0  0.49072072292E+03  0.60362463447E+03 -0.19887152346E+03  0.10385228049E+04  0.65864270000E+03 0.  1.
    8880022    1    1    2    0    0 -0.49072072292E+03 -0.60362463447E+03 -0.19476312793E+04  0.21028144902E+04  0.15294330000E+03 0.  0.
<mgrwt>
<rscale>  0 0.95724057E+03</rscale>
<asrwt>0</asrwt>
<pdfrwt beam="1">  1        1 0.40675692E+00 0.10193036E+04</pdfrwt>
<pdfrwt beam="2">  1       -1 0.76525732E-01 0.10193036E+04</pdfrwt>
<totfact> 0.18759809E+00</totfact>
</mgrwt>
</event>
<event>
 4    1  0.1008211E-007  0.7300395E+03  0.7818608E-02  0.9889973E-01
          1   -1    0    0  501    0  0.00000000000E+00  0.00000000000E+00  0.35877904869E+04  0.35877904869E+04  0.50400000000E-02 0. -1.
         -1   -1    0    0    0  501 -0.00000000000E+00 -0.00000000000E+00 -0.55071012577E+03  0.55071012579E+03  0.50400000000E-02 0.  1.
    8880023    1    1    2    0    0 -0.14604878298E+03 -0.27895726541E+03 -0.29550618123E+03  0.78757952763E+03  0.65864270000E+03 0.  1.
    8880022    1    1    2    0    0  0.14604878298E+03  0.27895726541E+03  0.33325865424E+04  0.33509210851E+04  0.15294330000E+03 0.  0.
<mgrwt>
<rscale>  0 0.60749690E+03</rscale>
<asrwt>0</asrwt>
<pdfrwt beam="1">  1        1 0.55196776E+00 0.73003946E+03</pdfrwt>
<pdfrwt beam="2">  1       -1 0.84724636E-01 0.73003946E+03</pdfrwt>
<totfact> 0.32458952E-01</totfact>
</mgrwt>
</event>
<event>
 4    1  0.1008211E-007  0.8920908E+03  0.7818608E-02  0.9538849E-01
         -1   -1    0    0    0  501 -0.00000000000E+00  0.00000000000E+00  0.22612640055E+04  0.22612640055E+04  0.50400000000E-02 0.  1.
          1   -1    0    0  501    0  0.00000000000E+00 -0.00000000000E+00 -0.41782099249E+03  0.41782099252E+03  0.50400000000E-02 0. -1.
    8880023    1    1    2    0    0  0.53322635264E+03 -0.27872121116E+03  0.18885182354E+03  0.91186132401E+03  0.65864270000E+03 0.  0.
    8880022    1    1    2    0    0 -0.53322635264E+03  0.27872121116E+03  0.16545911895E+04  0.17672236740E+04  0.15294330000E+03 0.  0.
<mgrwt>
<rscale>  0 0.81479214E+03</rscale>
<asrwt>0</asrwt>
<pdfrwt beam="1">  1        1 0.64280151E-01 0.89209084E+03</pdfrwt>
<pdfrwt beam="2">  1       -1 0.34788678E+00 0.89209084E+03</pdfrwt>
<totfact> 0.94179063E-01</totfact>
</mgrwt>
</event>
<event>
 4    1  0.1008211E-007  0.9938425E+03  0.7818608E-02  0.9389658E-01
         -1   -1    0    0    0  501 -0.00000000000E+00  0.00000000000E+00  0.84850101106E+03  0.84850101107E+03  0.50400000000E-02 0.  1.
          1   -1    0    0  501    0  0.00000000000E+00 -0.00000000000E+00 -0.13083913288E+04  0.13083913288E+04  0.50400000000E-02 0. -1.
    8880023    1    1    2    0    0 -0.27032963066E+03  0.69342244683E+03  0.34310722883E+03  0.10514017195E+04  0.65864270000E+03 0.  1.
    8880022    1    1    2    0    0  0.27032963066E+03 -0.69342244683E+03 -0.80299754660E+03  0.11054906204E+04  0.15294330000E+03 0.  0.
<mgrwt>
<rscale>  0 0.92931683E+03</rscale>
<asrwt>0</asrwt>
<pdfrwt beam="1">  1        1 0.20129097E+00 0.99384255E+03</pdfrwt>
<pdfrwt beam="2">  1       -1 0.13053862E+00 0.99384255E+03</pdfrwt>
<totfact> 0.44984253E+00</totfact>
</mgrwt>
</event>
<event>
 4    1  0.1008211E-007  0.1421243E+04  0.7818608E-02  0.8967350E-01
          1   -1    0    0  501    0  0.00000000000E+00  0.00000000000E+00  0.37937592846E+04  0.37937592846E+04  0.50400000000E-02 0. -1.
         -1   -1    0    0    0  501 -0.00000000000E+00 -0.00000000000E+00 -0.77645106218E+03  0.77645106220E+03  0.50400000000E-02 0.  1.
    8880023    1    1    2    0    0 -0.40333136512E+03  0.11930818215E+04  0.14305944174E+03  0.14284245283E+04  0.65864270000E+03 0.  0.
    8880022    1    1    2    0    0  0.40333136512E+03 -0.11930818215E+04  0.28742487807E+04  0.31417858185E+04  0.15294330000E+03 0.  0.
<mgrwt>
<rscale>  0 0.13814588E+04</rscale>
<asrwt>0</asrwt>
<pdfrwt beam="1">  1        1 0.58365527E+00 0.14212426E+04</pdfrwt>
<pdfrwt beam="2">  1       -1 0.11945401E+00 0.14212426E+04</pdfrwt>
<totfact> 0.87981219E-02</totfact>
</mgrwt>
</event>
<event>
 4    1  0.1008211E-007  0.1092700E+04  0.7818608E-02  0.9269228E-01
          1   -1    0    0  501    0  0.00000000000E+00  0.00000000000E+00  0.82712704316E+03  0.82712704318E+03  0.50400000000E-02 0. -1.
         -1   -1    0    0    0  501 -0.00000000000E+00 -0.00000000000E+00 -0.15148847904E+04  0.15148847904E+04  0.50400000000E-02 0.  1.
    8880023    1    1    2    0    0  0.65409555897E+03 -0.57649083066E+03 -0.91825165849E+03  0.14272977940E+04  0.65864270000E+03 0.  0.
    8880022    1    1    2    0    0 -0.65409555897E+03  0.57649083066E+03  0.23049391127E+03  0.91471403960E+03  0.15294330000E+03 0.  0.
<mgrwt>
<rscale>  0 0.10366584E+04</rscale>
<asrwt>0</asrwt>
<pdfrwt beam="1">  1        1 0.12725031E+00 0.10926998E+04</pdfrwt>
<pdfrwt beam="2">  1       -1 0.23305920E+00 0.10926998E+04</pdfrwt>
<totfact> 0.18773476E+00</totfact>
</mgrwt>
</event>
<event>
 4    1  0.1008211E-007  0.1138585E+04  0.7818608E-02  0.9219266E-01
         -1   -1    0    0    0  501 -0.00000000000E+00  0.00000000000E+00  0.14659108039E+04  0.14659108040E+04  0.50400000000E-02 0.  1.
          1   -1    0    0  501    0  0.00000000000E+00 -0.00000000000E+00 -0.16572435882E+04  0.16572435882E+04  0.50400000000E-02 0. -1.
    8880023    1    1    2    0    0 -0.77407114037E+03  0.51320460298E+03  0.10611533536E+04  0.15564131010E+04  0.65864270000E+03 0.  0.
    8880022    1    1    2    0    0  0.77407114037E+03 -0.51320460298E+03 -0.12524861379E+04  0.15667412912E+04  0.15294330000E+03 0.  0.
<mgrwt>
<rscale>  0 0.10856769E+04</rscale>
<asrwt>0</asrwt>
<pdfrwt beam="1">  1        1 0.25496055E+00 0.11385848E+04</pdfrwt>
<pdfrwt beam="2">  1       -1 0.22552474E+00 0.11385848E+04</pdfrwt>
<totfact> 0.50963952E-01</totfact>
</mgrwt>
</event>
<event>
 4    1  0.1008211E-007  0.8340247E+03  0.7818608E-02  0.9641552E-01
         -1   -1    0    0    0  501 -0.00000000000E+00  0.00000000000E+00  0.29336847546E+03  0.29336847550E+03  0.50400000000E-02 0.  1.
          1   -1    0    0  501    0  0.00000000000E+00 -0.00000000000E+00 -0.24749437910E+04  0.24749437910E+04  0.50400000000E-02 0. -1.
    8880023    1    1    2    0    0  0.17892133438E+03  0.47934763017E+03 -0.43243142238E+03  0.93946481349E+03  0.65864270000E+03 0.  1.
    8880022    1    1    2    0    0 -0.17892133438E+03 -0.47934763017E+03 -0.17491438932E+04  0.18288474531E+04  0.15294330000E+03 0.  0.
<mgrwt>
<rscale>  0 0.74606009E+03</rscale>
<asrwt>0</asrwt>
<pdfrwt beam="1">  1        1 0.38076057E+00 0.83402470E+03</pdfrwt>
<pdfrwt beam="2">  1       -1 0.45133613E-01 0.83402470E+03</pdfrwt>
<totfact> 0.71517854E+00</totfact>
</mgrwt>
</event>
<event>
 4    1  0.1008211E-007  0.6927118E+03  0.7818608E-02  0.1002889E+00
         -1   -1    0    0    0  501 -0.00000000000E+00  0.00000000000E+00  0.90857453043E+03  0.90857453044E+03  0.50400000000E-02 0.  1.
          1   -1    0    0  501    0  0.00000000000E+00 -0.00000000000E+00 -0.56456190351E+03  0.56456190353E+03  0.50400000000E-02 0. -1.
    8880023    1    1    2    0    0  0.21193410545E+03  0.33517209340E+02  0.72963273526E+03  0.10060882680E+04  0.65864270000E+03 0.  0.
    8880022    1    1    2    0    0 -0.21193410545E+03 -0.33517209340E+02 -0.38562010834E+03  0.46704816598E+03  0.15294330000E+03 0.  0.
<mgrwt>
<rscale>  0 0.54401231E+03</rscale>
<asrwt>0</asrwt>
<pdfrwt beam="1">  1        1 0.86855679E-01 0.69271183E+03</pdfrwt>
<pdfrwt beam="2">  1       -1 0.13978070E+00 0.69271183E+03</pdfrwt>
<totfact> 0.16273929E+01</totfact>
</mgrwt>
</event>
<event>
 4    1  0.1008211E-007  0.1077435E+04  0.7818608E-02  0.9286605E-01
         -1   -1    0    0    0  501 -0.00000000000E+00  0.00000000000E+00  0.66162260257E+03  0.66162260259E+03  0.50400000000E-02 0.  1.
          1   -1    0    0  501    0  0.00000000000E+00 -0.00000000000E+00 -0.17762309090E+04  0.17762309090E+04  0.50400000000E-02 0. -1.
    8880023    1    1    2    0    0 -0.63772536898E+03  0.56600634098E+03 -0.68483099165E+02  0.10796096357E+04  0.65864270000E+03 0.  1.
    8880022    1    1    2    0    0  0.63772536898E+03 -0.56600634098E+03 -0.10461252073E+04  0.13582438760E+04  0.15294330000E+03 0.  0.
<mgrwt>
<rscale>  0 0.10202545E+04</rscale>
<asrwt>0</asrwt>
<pdfrwt beam="1">  1        1 0.27326629E+00 0.10774354E+04</pdfrwt>
<pdfrwt beam="2">  1       -1 0.10178809E+00 0.10774354E+04</pdfrwt>
<totfact> 0.38640728E+00</totfact>
</mgrwt>
</event>
<event>
 4    1  0.1008211E-007  0.7269833E+03  0.7818608E-02  0.9899628E-01
          1   -1    0    0  501    0  0.00000000000E+00  0.00000000000E+00  0.21927775505E+04  0.21927775506E+04  0.50400000000E-02 0. -1.
         -1   -1    0    0    0  501 -0.00000000000E+00 -0.00000000000E+00 -0.22401088228E+03  0.22401088234E+03  0.50400000000E-02 0.  1.
    8880023    1    1    2    0    0  0.19329436965E+03  0.23944061616E+03  0.43976238194E+03  0.84964444378E+03  0.65864270000E+03 0.  1.
    8880022    1    1    2    0    0 -0.19329436965E+03 -0.23944061616E+03  0.15290042863E+04  0.15671439891E+04  0.15294330000E+03 0.  0.
<mgrwt>
<rscale>  0 0.60279301E+03</rscale>
<asrwt>0</asrwt>
<pdfrwt beam="1">  1        1 0.33735039E+00 0.72698331E+03</pdfrwt>
<pdfrwt beam="2">  1       -1 0.34463213E-01 0.72698331E+03</pdfrwt>
<totfact> 0.18414542E+01</totfact>
</mgrwt>
</event>
<event>
 4    1  0.1008211E-007  0.6650017E+03  0.7818608E-02  0.1019532E+00
          1   -1    0    0  501    0  0.00000000000E+00  0.00000000000E+00  0.11507871776E+04  0.11507871776E+04  0.50400000000E-02 0. -1.
         -1   -1    0    0    0  501 -0.00000000000E+00 -0.00000000000E+00 -0.85150333956E+03  0.85150333958E+03  0.50400000000E-02 0.  1.
    8880023    1    1    2    0    0 -0.82674430311E+02 -0.39774620746E+02 -0.71266789899E+03  0.97474243901E+03  0.65864270000E+03 0.  1.
    8880022    1    1    2    0    0  0.82674430311E+02  0.39774620746E+02  0.10119517370E+04  0.10275480781E+04  0.15294330000E+03 0.  0.
<mgrwt>
<rscale>  0 0.47855888E+03</rscale>
<asrwt>0</asrwt>
<pdfrwt beam="1">  1        1 0.17704418E+00 0.66500172E+03</pdfrwt>
<pdfrwt beam="2">  1       -1 0.13100051E+00 0.66500172E+03</pdfrwt>
<totfact> 0.60748568E+00</totfact>
</mgrwt>
</event>
<event>
 4    1  0.1008211E-007  0.1128807E+04  0.7818608E-02  0.9229641E-01
          1   -1    0    0  501    0  0.00000000000E+00  0.00000000000E+00  0.16609662594E+04  0.16609662594E+04  0.50400000000E-02 0. -1.
         -1   -1    0    0    0  501 -0.00000000000E+00 -0.00000000000E+00 -0.11958711139E+04  0.11958711139E+04  0.50400000000E-02 0.  1.
    8880023    1    1    2    0    0 -0.41989921972E+03 -0.81491069583E+03 -0.72895138010E+03  0.13437169039E+04  0.65864270000E+03 0.  0.
    8880022    1    1    2    0    0  0.41989921972E+03  0.81491069583E+03  0.11940465256E+04  0.15131204695E+04  0.15294330000E+03 0.  0.
<mgrwt>
<rscale>  0 0.10752651E+04</rscale>
<asrwt>0</asrwt>
<pdfrwt beam="1">  1        1 0.25553327E+00 0.11288069E+04</pdfrwt>
<pdfrwt beam="2">  1       -1 0.18398017E+00 0.11288069E+04</pdfrwt>
<totfact> 0.97736262E-01</totfact>
</mgrwt>
</event>
<event>
 4    1  0.1008211E-007  0.7267751E+03  0.7818608E-02  0.9900294E-01
          1   -1    0    0  501    0  0.00000000000E+00  0.00000000000E+00  0.72166484725E+03  0.72166484726E+03  0.50400000000E-02 0. -1.
         -1   -1    0    0    0  501 -0.00000000000E+00 -0.00000000000E+00 -0.67346305737E+03  0.67346305738E+03  0.50400000000E-02 0.  1.
    8880023    1    1    2    0    0  0.26268381731E+03 -0.15933954842E+03 -0.40081551897E+03  0.82997299117E+03  0.65864270000E+03 0.  1.
    8880022    1    1    2    0    0 -0.26268381731E+03  0.15933954842E+03  0.44901730885E+03  0.56515491348E+03  0.15294330000E+03 0.  0.
<mgrwt>
<rscale>  0 0.60247026E+03</rscale>
<asrwt>0</asrwt>
<pdfrwt beam="1">  1        1 0.11102536E+00 0.72677513E+03</pdfrwt>
<pdfrwt beam="2">  1       -1 0.10360970E+00 0.72677513E+03</pdfrwt>
<totfact> 0.23493810E+01</totfact>
</mgrwt>
</event>
<event>
 4    1  0.1008211E-007  0.7621920E+03  0.7818608E-02  0.9799465E-01
          1   -1    0    0  501    0  0.00000000000E+00  0.00000000000E+00  0.28556860323E+03  0.28556860327E+03  0.50400000000E-02 0. -1.
         -1   -1    0    0    0  501 -0.00000000000E+00 -0.00000000000E+00 -0.15138071096E+04  0.15138071096E+04  0.50400000000E-02 0.  1.
    8880023    1    1    2    0    0  0.17426089645E+03  0.34170093383E+03 -0.11491335674E+04  0.13789287690E+04  0.65864270000E+03 0.  1.
    8880022    1    1    2    0    0 -0.17426089645E+03 -0.34170093383E+03 -0.79104939045E+02  0.42044694387E+03  0.15294330000E+03 0.  0.
<mgrwt>
<rscale>  0 0.65391239E+03</rscale>
<asrwt>0</asrwt>
<pdfrwt beam="1">  1        1 0.43933632E-01 0.76219197E+03</pdfrwt>
<pdfrwt beam="2">  1       -1 0.23289340E+00 0.76219197E+03</pdfrwt>
<totfact> 0.87205230E+00</totfact>
</mgrwt>
</event>
<event>
 4    1  0.1008211E-007  0.6871293E+03  0.7818608E-02  0.1005548E+00
          1   -1    0    0  501    0  0.00000000000E+00  0.00000000000E+00  0.19516797261E+04  0.19516797261E+04  0.50400000000E-02 0. -1.
         -1   -1    0    0    0  501 -0.00000000000E+00 -0.00000000000E+00 -0.61912700983E+03  0.61912700985E+03  0.50400000000E-02 0.  1.
    8880023    1    1    2    0    0  0.12298876433E+03 -0.15234899897E+03 -0.41695859612E+03  0.80374195535E+03  0.65864270000E+03 0.  0.
    8880022    1    1    2    0    0 -0.12298876433E+03  0.15234899897E+03  0.17495113123E+04  0.17670647806E+04  0.15294330000E+03 0. -1.
<mgrwt>
<rscale>  0 0.53283067E+03</rscale>
<asrwt>0</asrwt>
<pdfrwt beam="1">  1        1 0.30025842E+00 0.68712929E+03</pdfrwt>
<pdfrwt beam="2">  1       -1 0.95250308E-01 0.68712929E+03</pdfrwt>
<totfact> 0.36378090E+00</totfact>
</mgrwt>
</event>
<event>
 4    1  0.1008211E-007  0.7179780E+03  0.7818608E-02  0.9929488E-01
          1   -1    0    0  501    0  0.00000000000E+00  0.00000000000E+00  0.10418133613E+04  0.10418133613E+04  0.50400000000E-02 0. -1.
         -1   -1    0    0    0  501 -0.00000000000E+00 -0.00000000000E+00 -0.37824655287E+03  0.37824655290E+03  0.50400000000E-02 0.  1.
    8880023    1    1    2    0    0  0.24645244249E+03  0.14471837236E+03  0.42191339614E+02  0.71921660792E+03  0.65864270000E+03 0.  1.
    8880022    1    1    2    0    0 -0.24645244249E+03 -0.14471837236E+03  0.62137546879E+03  0.70084330627E+03  0.15294330000E+03 0.  0.
<mgrwt>
<rscale>  0 0.58853215E+03</rscale>
<asrwt>0</asrwt>
<pdfrwt beam="1">  1        1 0.16027898E+00 0.71797801E+03</pdfrwt>
<pdfrwt beam="2">  1       -1 0.58191778E-01 0.71797801E+03</pdfrwt>
<totfact> 0.43219961E+01</totfact>
</mgrwt>
</event>
<event>
 4    1  0.1008211E-007  0.2168652E+04  0.7818608E-02  0.8542088E-01
          1   -1    0    0  501    0  0.00000000000E+00  0.00000000000E+00  0.27959597986E+04  0.27959597986E+04  0.50400000000E-02 0. -1.
         -1   -1    0    0    0  501 -0.00000000000E+00 -0.00000000000E+00 -0.19851916253E+04  0.19851916253E+04  0.50400000000E-02 0.  1.
    8880023    1    1    2    0    0 -0.20264189806E+04  0.40356938723E+03 -0.62913590003E+03  0.22580665009E+04  0.65864270000E+03 0.  0.
    8880022    1    1    2    0    0  0.20264189806E+04 -0.40356938723E+03  0.14399040733E+04  0.25230849230E+04  0.15294330000E+03 0.  0.
<mgrwt>
<rscale>  0 0.21440401E+04</rscale>
<asrwt>0</asrwt>
<pdfrwt beam="1">  1        1 0.43014766E+00 0.21686522E+04</pdfrwt>
<pdfrwt beam="2">  1       -1 0.30541410E+00 0.21686522E+04</pdfrwt>
<totfact> 0.22242132E-02</totfact>
</mgrwt>
</event>
<event>
 4    1  0.1008211E-007  0.9034036E+03  0.7818608E-02  0.9520590E-01
         -1   -1    0    0    0  501 -0.00000000000E+00  0.00000000000E+00  0.68518332927E+03  0.68518332929E+03  0.50400000000E-02 0.  1.
          1   -1    0    0  501    0  0.00000000000E+00 -0.00000000000E+00 -0.18233919977E+04  0.18233919977E+04  0.50400000000E-02 0. -1.
    8880023    1    1    2    0    0  0.61053707380E+02  0.61530507418E+03  0.28667856038E+03  0.94779886724E+03  0.65864270000E+03 0.  1.
    8880022    1    1    2    0    0 -0.61053707380E+02 -0.61530507418E+03 -0.14248872288E+04  0.15607764597E+04  0.15294330000E+03 0.  0.
<mgrwt>
<rscale>  0 0.82782704E+03</rscale>
<asrwt>0</asrwt>
<pdfrwt beam="1">  1        1 0.28052184E+00 0.90340362E+03</pdfrwt>
<pdfrwt beam="2">  1       -1 0.10541282E+00 0.90340362E+03</pdfrwt>
<totfact> 0.33884795E+00</totfact>
</mgrwt>
</event>
<event>
 4    1  0.1008211E-007  0.1086565E+04  0.7818608E-02  0.9276164E-01
         -1   -1    0    0    0  501 -0.00000000000E+00  0.00000000000E+00  0.45600947781E+03  0.45600947783E+03  0.50400000000E-02 0.  1.
          1   -1    0    0  501    0  0.00000000000E+00 -0.00000000000E+00 -0.34899433426E+04  0.34899433426E+04  0.50400000000E-02 0. -1.
    8880023    1    1    2    0    0  0.35935029903E+03  0.78592607330E+03 -0.28488613583E+04  0.30490381557E+04  0.65864270000E+03 0.  0.
    8880022    1    1    2    0    0 -0.35935029903E+03 -0.78592607330E+03 -0.18507250652E+03  0.89691466472E+03  0.15294330000E+03 0.  0.
<mgrwt>
<rscale>  0 0.10300715E+04</rscale>
<asrwt>0</asrwt>
<pdfrwt beam="1">  1        1 0.53691434E+00 0.10865646E+04</pdfrwt>
<pdfrwt beam="2">  1       -1 0.70155307E-01 0.10865646E+04</pdfrwt>
<totfact> 0.53550631E-01</totfact>
</mgrwt>
</event>
<event>
 4    1  0.1008211E-007  0.1156216E+04  0.7818608E-02  0.9200904E-01
         -1   -1    0    0    0  501 -0.00000000000E+00  0.00000000000E+00  0.44639227131E+03  0.44639227133E+03  0.50400000000E-02 0.  1.
          1   -1    0    0  501    0  0.00000000000E+00 -0.00000000000E+00 -0.39012807906E+04  0.39012807906E+04  0.50400000000E-02 0. -1.
    8880023    1    1    2    0    0 -0.93730280406E+03 -0.15649205133E+03 -0.53643379029E+03  0.12745970839E+04  0.65864270000E+03 0.  0.
    8880022    1    1    2    0    0  0.93730280406E+03  0.15649205133E+03 -0.29184547290E+04  0.30730759780E+04  0.15294330000E+03 0.  0.
<mgrwt>
<rscale>  0 0.11044098E+04</rscale>
<asrwt>0</asrwt>
<pdfrwt beam="1">  1        1 0.60019702E+00 0.11562165E+04</pdfrwt>
<pdfrwt beam="2">  1       -1 0.68675737E-01 0.11562165E+04</pdfrwt>
<totfact> 0.25660698E-01</totfact>
</mgrwt>
</event>
<event>
 4    1  0.1008211E-007  0.8394475E+03  0.7818608E-02  0.9631223E-01
         -1   -1    0    0    0  501 -0.00000000000E+00  0.00000000000E+00  0.47052031983E+03  0.47052031986E+03  0.50400000000E-02 0.  1.
          1   -1    0    0  501    0  0.00000000000E+00 -0.00000000000E+00 -0.22371471878E+04  0.22371471878E+04  0.50400000000E-02 0. -1.
    8880023    1    1    2    0    0 -0.50214710244E+03  0.13678498488E+03  0.20836856228E+02  0.83970603512E+03  0.65864270000E+03 0.  0.
    8880022    1    1    2    0    0  0.50214710244E+03 -0.13678498488E+03 -0.17874637242E+04  0.18679614726E+04  0.15294330000E+03 0.  0.
<mgrwt>
<rscale>  0 0.75263662E+03</rscale>
<asrwt>0</asrwt>
<pdfrwt beam="1">  1        1 0.34417648E+00 0.83944747E+03</pdfrwt>
<pdfrwt beam="2">  1       -1 0.72387743E-01 0.83944747E+03</pdfrwt>
<totfact> 0.41100573E+00</totfact>
</mgrwt>
</event>
<event>
 4    1  0.1008211E-007  0.6835764E+03  0.7818608E-02  0.1007369E+00
         -1   -1    0    0    0  501 -0.00000000000E+00  0.00000000000E+00  0.14540901273E+04  0.14540901273E+04  0.50400000000E-02 0.  1.
          1   -1    0    0  501    0  0.00000000000E+00 -0.00000000000E+00 -0.31070980474E+03  0.31070980479E+03  0.50400000000E-02 0. -1.
    8880023    1    1    2    0    0  0.18142868353E+03 -0.23455318704E+02  0.13074446275E+04  0.14753603558E+04  0.65864270000E+03 0.  1.
    8880022    1    1    2    0    0 -0.18142868353E+03  0.23455318704E+02 -0.16406430492E+03  0.28943957633E+03  0.15294330000E+03 0.  0.
<mgrwt>
<rscale>  0 0.52533873E+03</rscale>
<asrwt>0</asrwt>
<pdfrwt beam="1">  1        1 0.47801507E-01 0.68357642E+03</pdfrwt>
<pdfrwt beam="2">  1       -1 0.22370618E+00 0.68357642E+03</pdfrwt>
<totfact> 0.90726066E+00</totfact>
</mgrwt>
</event>
<event>
 4    1  0.1008211E-007  0.6865180E+03  0.7818608E-02  0.1005853E+00
         -1   -1    0    0    0  501 -0.00000000000E+00  0.00000000000E+00  0.13778369012E+04  0.13778369012E+04  0.50400000000E-02 0.  1.
          1   -1    0    0  501    0  0.00000000000E+00 -0.00000000000E+00 -0.11597654506E+04  0.11597654506E+04  0.50400000000E-02 0. -1.
    8880023    1    1    2    0    0 -0.19309799214E+03  0.14489850459E+02  0.12772500763E+04  0.14500602587E+04  0.65864270000E+03 0.  1.
    8880022    1    1    2    0    0  0.19309799214E+03 -0.14489850459E+02 -0.10591786256E+04  0.10875420931E+04  0.15294330000E+03 0.  0.
<mgrwt>
<rscale>  0 0.53156431E+03</rscale>
<asrwt>0</asrwt>
<pdfrwt beam="1">  1        1 0.17842545E+00 0.68651802E+03</pdfrwt>
<pdfrwt beam="2">  1       -1 0.21197491E+00 0.68651802E+03</pdfrwt>
<totfact> 0.15128621E+00</totfact>
</mgrwt>
</event>
<event>
 4    1  0.1008211E-007  0.1112752E+04  0.7818608E-02  0.9246990E-01
          1   -1    0    0  501    0  0.00000000000E+00  0.00000000000E+00  0.11817814259E+04  0.11817814260E+04  0.50400000000E-02 0. -1.
         -1   -1    0    0    0  501 -0.00000000000E+00 -0.00000000000E+00 -0.19083822350E+04  0.19083822350E+04  0.50400000000E-02 0.  1.
    8880023    1    1    2    0    0 -0.76539717303E+03  0.46751800163E+03 -0.15194590705E+04  0.18833406456E+04  0.65864270000E+03 0.  1.
    8880022    1    1    2    0    0  0.76539717303E+03 -0.46751800163E+03  0.79285826151E+03  0.12068230153E+04  0.15294330000E+03 0.  0.
<mgrwt>
<rscale>  0 0.10581304E+04</rscale>
<asrwt>0</asrwt>
<pdfrwt beam="1">  1        1 0.18181253E+00 0.11127516E+04</pdfrwt>
<pdfrwt beam="2">  1       -1 0.29359727E+00 0.11127516E+04</pdfrwt>
<totfact> 0.39892836E-01</totfact>
</mgrwt>
</event>
<event>
 4    1  0.1008211E-007  0.9092355E+03  0.7818608E-02  0.9511365E-01
          1   -1    0    0  501    0  0.00000000000E+00  0.00000000000E+00  0.95593190656E+03  0.95593190657E+03  0.50400000000E-02 0. -1.
         -1   -1    0    0    0  501 -0.00000000000E+00 -0.00000000000E+00 -0.81338776095E+03  0.81338776097E+03  0.50400000000E-02 0.  1.
    8880023    1    1    2    0    0 -0.61836171468E+03 -0.10260508306E+03 -0.33247050121E+03  0.96811458707E+03  0.65864270000E+03 0.  1.
    8880022    1    1    2    0    0  0.61836171468E+03  0.10260508306E+03  0.47501464683E+03  0.80120508047E+03  0.15294330000E+03 0.  0.
<mgrwt>
<rscale>  0 0.83451064E+03</rscale>
<asrwt>0</asrwt>
<pdfrwt beam="1">  1        1 0.14706645E+00 0.90923551E+03</pdfrwt>
<pdfrwt beam="2">  1       -1 0.12513658E+00 0.90923551E+03</pdfrwt>
<totfact> 0.92617303E+00</totfact>
</mgrwt>
</event>
<event>
 4    1  0.1008211E-007  0.1251870E+04  0.7818608E-02  0.9108279E-01
          1   -1    0    0  501    0  0.00000000000E+00  0.00000000000E+00  0.40940913420E+04  0.40940913420E+04  0.50400000000E-02 0. -1.
         -1   -1    0    0    0  501 -0.00000000000E+00 -0.00000000000E+00 -0.58727949752E+03  0.58727949754E+03  0.50400000000E-02 0.  1.
    8880023    1    1    2    0    0 -0.77820811521E+03 -0.72647111287E+03  0.28379222447E+03  0.12836340527E+04  0.65864270000E+03 0.  1.
    8880022    1    1    2    0    0  0.77820811521E+03  0.72647111287E+03  0.32230196200E+04  0.33977367868E+04  0.15294330000E+03 0.  1.
<mgrwt>
<rscale>  0 0.12052435E+04</rscale>
<asrwt>0</asrwt>
<pdfrwt beam="1">  1        1 0.62986021E+00 0.12518699E+04</pdfrwt>
<pdfrwt beam="2">  1       -1 0.90350691E-01 0.12518699E+04</pdfrwt>
<totfact> 0.95600842E-02</totfact>
</mgrwt>
</event>
<event>
 4    1  0.1133575E-007  0.1278607E+04  0.7818608E-02  0.9084258E-01
         -1   -1    0    0    0  501 -0.00000000000E+00  0.00000000000E+00  0.17831148238E+04  0.17831148238E+04  0.50400000000E-02 0.  1.
          1   -1    0    0  501    0  0.00000000000E+00 -0.00000000000E+00 -0.16311260018E+04  0.16311260018E+04  0.50400000000E-02 0. -1.
    8880023    1    1    2    0    0 -0.54857248014E+03  0.94873247832E+03  0.12974543135E+04  0.18215990182E+04  0.65864270000E+03 0.  1.
    8880022    1    1    2    0    0  0.54857248014E+03 -0.94873247832E+03 -0.11454654915E+04  0.15926418074E+04  0.15294330000E+03 0.  0.
<mgrwt>
<rscale>  0 0.12332295E+04</rscale>
<asrwt>0</asrwt>
<pdfrwt beam="1">  1        1 0.25094246E+00 0.12786068E+04</pdfrwt>
<pdfrwt beam="2">  1       -1 0.27432536E+00 0.12786068E+04</pdfrwt>
<totfact> 0.24997889E-01</totfact>
</mgrwt>
</event>
<event>
 4    1  0.1008211E-007  0.1075637E+04  0.7818608E-02  0.9288679E-01
         -1   -1    0    0    0  501 -0.00000000000E+00  0.00000000000E+00  0.11371513617E+04  0.11371513617E+04  0.50400000000E-02 0.  1.
          1   -1    0    0  501    0  0.00000000000E+00 -0.00000000000E+00 -0.14826742133E+04  0.14826742133E+04  0.50400000000E-02 0. -1.
    8880023    1    1    2    0    0  0.51837202579E+03 -0.67414753204E+03  0.68482177302E+03  0.12751374511E+04  0.65864270000E+03 0.  1.
    8880022    1    1    2    0    0 -0.51837202579E+03  0.67414753204E+03 -0.10303446246E+04  0.13446881239E+04  0.15294330000E+03 0.  0.
<mgrwt>
<rscale>  0 0.10183182E+04</rscale>
<asrwt>0</asrwt>
<pdfrwt beam="1">  1        1 0.22810372E+00 0.10756369E+04</pdfrwt>
<pdfrwt beam="2">  1       -1 0.17494636E+00 0.10756369E+04</pdfrwt>
<totfact> 0.15157333E+00</totfact>
</mgrwt>
</event>
<event>
 4    1  0.1008211E-007  0.1445352E+04  0.7818608E-02  0.8949221E-01
          1   -1    0    0  501    0  0.00000000000E+00  0.00000000000E+00  0.17490020551E+04  0.17490020551E+04  0.50400000000E-02 0. -1.
         -1   -1    0    0    0  501 -0.00000000000E+00 -0.00000000000E+00 -0.16430826573E+04  0.16430826573E+04  0.50400000000E-02 0.  1.
    8880023    1    1    2    0    0 -0.12103126771E+04 -0.43632087355E+03  0.10521240832E+04  0.17877382285E+04  0.65864270000E+03 0. -1.
    8880022    1    1    2    0    0  0.12103126771E+04  0.43632087355E+03 -0.94620468534E+03  0.16043464839E+04  0.15294330000E+03 0.  0.
<mgrwt>
<rscale>  0 0.14063695E+04</rscale>
<asrwt>0</asrwt>
<pdfrwt beam="1">  1        1 0.26907724E+00 0.14453522E+04</pdfrwt>
<pdfrwt beam="2">  1       -1 0.25278195E+00 0.14453522E+04</pdfrwt>
<totfact> 0.28041450E-01</totfact>
</mgrwt>
</event>
<event>
 4    1  0.1008211E-007  0.8430934E+03  0.7818608E-02  0.9624375E-01
         -1   -1    0    0    0  501 -0.00000000000E+00  0.00000000000E+00  0.70767179291E+03  0.70767179292E+03  0.50400000000E-02 0.  1.
          1   -1    0    0  501    0  0.00000000000E+00 -0.00000000000E+00 -0.78728779050E+03  0.78728779051E+03  0.50400000000E-02 0. -1.
    8880023    1    1    2    0    0 -0.24688363181E+03 -0.46480617668E+03  0.21864350846E+03  0.87098306504E+03  0.65864270000E+03 0.  0.
    8880022    1    1    2    0    0  0.24688363181E+03  0.46480617668E+03 -0.29825950605E+03  0.62397651839E+03  0.15294330000E+03 0.  0.
<mgrwt>
<rscale>  0 0.75703697E+03</rscale>
<asrwt>0</asrwt>
<pdfrwt beam="1">  1        1 0.12112120E+00 0.84309342E+03</pdfrwt>
<pdfrwt beam="2">  1       -1 0.10887258E+00 0.84309342E+03</pdfrwt>
<totfact> 0.18048006E+01</totfact>
</mgrwt>
</event>
<event>
 4    1  0.1008211E-007  0.6927291E+03  0.7818608E-02  0.1002882E+00
          1   -1    0    0  501    0  0.00000000000E+00  0.00000000000E+00  0.16241829395E+04  0.16241829396E+04  0.50400000000E-02 0. -1.
         -1   -1    0    0    0  501 -0.00000000000E+00 -0.00000000000E+00 -0.37606517271E+03  0.37606517274E+03  0.50400000000E-02 0.  1.
    8880023    1    1    2    0    0 -0.19118772693E+03 -0.97522495576E+02 -0.31820263749E+02  0.69345952984E+03  0.65864270000E+03 0.  0.
    8880022    1    1    2    0    0  0.19118772693E+03  0.97522495576E+02  0.12799380306E+04  0.13067885825E+04  0.15294330000E+03 0.  0.
<mgrwt>
<rscale>  0 0.54404589E+03</rscale>
<asrwt>0</asrwt>
<pdfrwt beam="1">  1        1 0.24987430E+00 0.69272909E+03</pdfrwt>
<pdfrwt beam="2">  1       -1 0.57856180E-01 0.69272909E+03</pdfrwt>
<totfact> 0.16998369E+01</totfact>
</mgrwt>
</event>
<event>
 4    1  0.1008211E-007  0.1120259E+04  0.7818608E-02  0.9238829E-01
         -1   -1    0    0    0  501 -0.00000000000E+00  0.00000000000E+00  0.60254829035E+03  0.60254829037E+03  0.50400000000E-02 0.  1.
          1   -1    0    0  501    0  0.00000000000E+00 -0.00000000000E+00 -0.23352087380E+04  0.23352087380E+04  0.50400000000E-02 0. -1.
    8880023    1    1    2    0    0  0.43564780892E+03 -0.79459491920E+03 -0.18159786748E+03  0.11348824127E+04  0.65864270000E+03 0.  0.
    8880022    1    1    2    0    0 -0.43564780892E+03  0.79459491920E+03 -0.15510625802E+04  0.18028746156E+04  0.15294330000E+03 0.  1.
<mgrwt>
<rscale>  0 0.10661487E+04</rscale>
<asrwt>0</asrwt>
<pdfrwt beam="1">  1        1 0.35926288E+00 0.11202590E+04</pdfrwt>
<pdfrwt beam="2">  1       -1 0.92699738E-01 0.11202590E+04</pdfrwt>
<totfact> 0.19899850E+00</totfact>
</mgrwt>
</event>
<event>
 4    1  0.1008211E-007  0.1003059E+04  0.7818608E-02  0.9377567E-01
          1   -1    0    0  501    0  0.00000000000E+00  0.00000000000E+00  0.35772033967E+04  0.35772033967E+04  0.50400000000E-02 0. -1.
         -1   -1    0    0    0  501 -0.00000000000E+00 -0.00000000000E+00 -0.52955305249E+03  0.52955305252E+03  0.50400000000E-02 0.  1.
    8880023    1    1    2    0    0  0.61682905884E+03 -0.43799409805E+03  0.42375476498E+02  0.10039535871E+04  0.65864270000E+03 0.  1.
    8880022    1    1    2    0    0 -0.61682905884E+03  0.43799409805E+03  0.30052748677E+04  0.31028028621E+04  0.15294330000E+03 0.  0.
<mgrwt>
<rscale>  0 0.93945083E+03</rscale>
<asrwt>0</asrwt>
<pdfrwt beam="1">  1        1 0.55033899E+00 0.10030589E+04</pdfrwt>
<pdfrwt beam="2">  1       -1 0.81469700E-01 0.10030589E+04</pdfrwt>
<totfact> 0.33898008E-01</totfact>
</mgrwt>
</event>
<event>
 4    1  0.1008211E-007  0.9210427E+03  0.7818608E-02  0.9493062E-01
         -1   -1    0    0    0  501 -0.00000000000E+00  0.00000000000E+00  0.75493319621E+03  0.75493319623E+03  0.50400000000E-02 0.  1.
          1   -1    0    0  501    0  0.00000000000E+00 -0.00000000000E+00 -0.11260615057E+04  0.11260615057E+04  0.50400000000E-02 0. -1.
    8880023    1    1    2    0    0  0.47517157547E+03  0.43442077994E+03  0.26980536153E+03  0.95974714355E+03  0.65864270000E+03 0.  1.
    8880022    1    1    2    0    0 -0.47517157547E+03 -0.43442077994E+03 -0.64093367097E+03  0.92124755835E+03  0.15294330000E+03 0.  0.
<mgrwt>
<rscale>  0 0.84797261E+03</rscale>
<asrwt>0</asrwt>
<pdfrwt beam="1">  1        1 0.17324023E+00 0.92104270E+03</pdfrwt>
<pdfrwt beam="2">  1       -1 0.11614357E+00 0.92104270E+03</pdfrwt>
<totfact> 0.82202055E+00</totfact>
</mgrwt>
</event>
<event>
 4    1  0.1008211E-007  0.6745441E+03  0.7818608E-02  0.1012595E+00
         -1   -1    0    0    0  501 -0.00000000000E+00  0.00000000000E+00  0.11940279273E+04  0.11940279273E+04  0.50400000000E-02 0.  1.
          1   -1    0    0  501    0  0.00000000000E+00 -0.00000000000E+00 -0.59231323384E+03  0.59231323386E+03  0.50400000000E-02 0. -1.
    8880023    1    1    2    0    0 -0.13113029037E+02  0.14500908172E+03  0.10744184392E+04  0.12686152979E+04  0.65864270000E+03 0.  1.
    8880022    1    1    2    0    0  0.13113029037E+02 -0.14500908172E+03 -0.47270374570E+03  0.51772586330E+03  0.15294330000E+03 0.  0.
<mgrwt>
<rscale>  0 0.50456134E+03</rscale>
<asrwt>0</asrwt>
<pdfrwt beam="1">  1        1 0.91125112E-01 0.67454414E+03</pdfrwt>
<pdfrwt beam="2">  1       -1 0.18369661E+00 0.67454414E+03</pdfrwt>
<totfact> 0.71367148E+00</totfact>
</mgrwt>
</event>
<event>
 4    1  0.1008211E-007  0.8479488E+03  0.7818608E-02  0.9615371E-01
          1   -1    0    0  501    0  0.00000000000E+00  0.00000000000E+00  0.59788519807E+03  0.59788519809E+03  0.50400000000E-02 0. -1.
         -1   -1    0    0    0  501 -0.00000000000E+00 -0.00000000000E+00 -0.82465416998E+03  0.82465416999E+03  0.50400000000E-02 0.  1.
    8880023    1    1    2    0    0  0.53403833671E+03 -0.31531662714E+01 -0.16164686229E+03  0.86321886094E+03  0.65864270000E+03 0.  1.
    8880022    1    1    2    0    0 -0.53403833671E+03  0.31531662714E+01 -0.65122109613E+02  0.55932050714E+03  0.15294330000E+03 0. -1.
<mgrwt>
<rscale>  0 0.76287159E+03</rscale>
<asrwt>0</asrwt>
<pdfrwt beam="1">  1        1 0.91982338E-01 0.84794876E+03</pdfrwt>
<pdfrwt beam="2">  1       -1 0.12686987E+00 0.84794876E+03</pdfrwt>
<totfact> 0.18864318E+01</totfact>
</mgrwt>
</event>
<event>
 4    1  0.1451576E-007  0.6677558E+03  0.7818608E-02  0.1017325E+00
          1   -1    0    0  501    0  0.00000000000E+00  0.00000000000E+00  0.19872388233E+04  0.19872388233E+04  0.50400000000E-02 0. -1.
         -1   -1    0    0    0  501 -0.00000000000E+00 -0.00000000000E+00 -0.24786718084E+04  0.24786718084E+04  0.50400000000E-02 0.  1.
    8880023    1    1    2    0    0  0.10426067797E+03 -0.34889092662E+02 -0.24290484137E+04  0.25191613565E+04  0.65864270000E+03 0.  1.
    8880022    1    1    2    0    0 -0.10426067797E+03  0.34889092662E+02  0.19376154287E+04  0.19467492752E+04  0.15294330000E+03 0.  0.
<mgrwt>
<rscale>  0 0.48664240E+03</rscale>
<asrwt>0</asrwt>
<pdfrwt beam="1">  1        1 0.30572905E+00 0.66775575E+03</pdfrwt>
<pdfrwt beam="2">  1       -1 0.38133412E+00 0.66775575E+03</pdfrwt>
<totfact> 0.32980329E-02</totfact>
</mgrwt>
</event>
<event>
 4    1  0.1008211E-007  0.1237094E+04  0.7818608E-02  0.9121881E-01
          1   -1    0    0  501    0  0.00000000000E+00  0.00000000000E+00  0.18175851777E+04  0.18175851777E+04  0.50400000000E-02 0. -1.
         -1   -1    0    0    0  501 -0.00000000000E+00 -0.00000000000E+00 -0.12928497023E+04  0.12928497023E+04  0.50400000000E-02 0.  1.
    8880023    1    1    2    0    0  0.73888133038E+03 -0.74205589879E+03 -0.75539873855E+03  0.14494930278E+04  0.65864270000E+03 0.  0.
    8880022    1    1    2    0    0 -0.73888133038E+03  0.74205589879E+03  0.12801342140E+04  0.16609418521E+04  0.15294330000E+03 0.  0.
<mgrwt>
<rscale>  0 0.11897443E+04</rscale>
<asrwt>0</asrwt>
<pdfrwt beam="1">  1        1 0.27962849E+00 0.12370945E+04</pdfrwt>
<pdfrwt beam="2">  1       -1 0.19889995E+00 0.12370945E+04</pdfrwt>
<totfact> 0.59239357E-01</totfact>
</mgrwt>
</event>
<event>
 4    1  0.1008211E-007  0.1950592E+04  0.7818608E-02  0.8643512E-01
         -1   -1    0    0    0  501 -0.00000000000E+00  0.00000000000E+00  0.42385308522E+04  0.42385308522E+04  0.50400000000E-02 0.  1.
          1   -1    0    0  501    0  0.00000000000E+00 -0.00000000000E+00 -0.16058995214E+04  0.16058995214E+04  0.50400000000E-02 0. -1.
    8880023    1    1    2    0    0 -0.16722263742E+04 -0.75806128495E+03  0.33424922925E+04  0.38700210451E+04  0.65864270000E+03 0.  0.
    8880022    1    1    2    0    0  0.16722263742E+04  0.75806128495E+03 -0.70986096171E+03  0.19744093284E+04  0.15294330000E+03 0.  0.
<mgrwt>
<rscale>  0 0.19229589E+04</rscale>
<asrwt>0</asrwt>
<pdfrwt beam="1">  1        1 0.24706147E+00 0.19505917E+04</pdfrwt>
<pdfrwt beam="2">  1       -1 0.65208167E+00 0.19505917E+04</pdfrwt>
<totfact> 0.13835977E-03</totfact>
</mgrwt>
</event>
<event>
 4    1  0.1008211E-007  0.6931353E+03  0.7818608E-02  0.1002697E+00
          1   -1    0    0  501    0  0.00000000000E+00  0.00000000000E+00  0.38192548856E+03  0.38192548859E+03  0.50400000000E-02 0. -1.
         -1   -1    0    0    0  501 -0.00000000000E+00 -0.00000000000E+00 -0.10289602141E+04  0.10289602141E+04  0.50400000000E-02 0.  1.
    8880023    1    1    2    0    0 -0.18996503948E+03 -0.10266255742E+03 -0.83582218812E+03  0.10858338977E+04  0.65864270000E+03 0.  1.
    8880022    1    1    2    0    0  0.18996503948E+03  0.10266255742E+03  0.18878746257E+03  0.32505180504E+03  0.15294330000E+03 0.  0.
<mgrwt>
<rscale>  0 0.54483462E+03</rscale>
<asrwt>0</asrwt>
<pdfrwt beam="1">  1        1 0.58757768E-01 0.69313528E+03</pdfrwt>
<pdfrwt beam="2">  1       -1 0.15830157E+00 0.69313528E+03</pdfrwt>
<totfact> 0.19829155E+01</totfact>
</mgrwt>
</event>
<event>
 4    1  0.1008211E-007  0.7024415E+03  0.7818608E-02  0.9987220E-01
          1   -1    0    0  501    0  0.00000000000E+00  0.00000000000E+00  0.97111355477E+03  0.97111355478E+03  0.50400000000E-02 0. -1.
         -1   -1    0    0    0  501 -0.00000000000E+00 -0.00000000000E+00 -0.31793372562E+03  0.31793372566E+03  0.50400000000E-02 0.  1.
    8880023    1    1    2    0    0 -0.50551145446E+02 -0.23886907880E+03  0.16400268919E+03  0.72133275500E+03  0.65864270000E+03 0.  0.
    8880022    1    1    2    0    0  0.50551145446E+02  0.23886907880E+03  0.48917713997E+03  0.56771452544E+03  0.15294330000E+03 0.  0.
<mgrwt>
<rscale>  0 0.56214194E+03</rscale>
<asrwt>0</asrwt>
<pdfrwt beam="1">  1        1 0.14940209E+00 0.70244150E+03</pdfrwt>
<pdfrwt beam="2">  1       -1 0.48912881E-01 0.70244150E+03</pdfrwt>
<totfact> 0.68494335E+01</totfact>
</mgrwt>
</event>
<event>
 4    1  0.1008211E-007  0.9518132E+03  0.7818608E-02  0.9447510E-01
         -1   -1    0    0    0  501 -0.00000000000E+00  0.00000000000E+00  0.95456845970E+03  0.95456845971E+03  0.50400000000E-02 0.  1.
          1   -1    0    0  501    0  0.00000000000E+00 -0.00000000000E+00 -0.13589958805E+04  0.13589958805E+04  0.50400000000E-02 0. -1.
    8880023    1    1    2    0    0  0.11588928948E+03 -0.67727967402E+03  0.57153252542E+03  0.11102241747E+04  0.65864270000E+03 0.  1.
    8880022    1    1    2    0    0 -0.11588928948E+03  0.67727967402E+03 -0.97595994620E+03  0.12033401655E+04  0.15294330000E+03 0.  0.
<mgrwt>
<rscale>  0 0.88266823E+03</rscale>
<asrwt>0</asrwt>
<pdfrwt beam="1">  1        1 0.20907629E+00 0.95181316E+03</pdfrwt>
<pdfrwt beam="2">  1       -1 0.14685669E+00 0.95181316E+03</pdfrwt>
<totfact> 0.30658137E+00</totfact>
</mgrwt>
</event>
<event>
 4    1  0.1008211E-007  0.1004287E+04  0.7818608E-02  0.9375970E-01
         -1   -1    0    0    0  501 -0.00000000000E+00  0.00000000000E+00  0.11761251244E+04  0.11761251244E+04  0.50400000000E-02 0.  1.
          1   -1    0    0  501    0  0.00000000000E+00 -0.00000000000E+00 -0.15175334204E+04  0.15175334204E+04  0.50400000000E-02 0. -1.
    8880023    1    1    2    0    0 -0.67859874751E+03 -0.33806198972E+03  0.82120311110E+03  0.12972921510E+04  0.65864270000E+03 0.  0.
    8880022    1    1    2    0    0  0.67859874751E+03  0.33806198972E+03 -0.11626114071E+04  0.13963663938E+04  0.15294330000E+03 0.  0.
<mgrwt>
<rscale>  0 0.94079891E+03</rscale>
<asrwt>0</asrwt>
<pdfrwt beam="1">  1        1 0.23346668E+00 0.10042870E+04</pdfrwt>
<pdfrwt beam="2">  1       -1 0.18094233E+00 0.10042870E+04</pdfrwt>
<totfact> 0.13109679E+00</totfact>
</mgrwt>
</event>
<event>
 4    1  0.1008211E-007  0.7531041E+03  0.7818608E-02  0.9823299E-01
          1   -1    0    0  501    0  0.00000000000E+00  0.00000000000E+00  0.19565807076E+04  0.19565807076E+04  0.50400000000E-02 0. -1.
         -1   -1    0    0    0  501 -0.00000000000E+00 -0.00000000000E+00 -0.24092004351E+03  0.24092004356E+03  0.50400000000E-02 0.  1.
    8880023    1    1    2    0    0  0.31401545596E+03  0.18641320141E+03  0.46365478811E+03  0.88438767350E+03  0.65864270000E+03 0.  0.
    8880022    1    1    2    0    0 -0.31401545596E+03 -0.18641320141E+03  0.12520058760E+04  0.13131130777E+04  0.15294330000E+03 0.  0.
<mgrwt>
<rscale>  0 0.64127048E+03</rscale>
<asrwt>0</asrwt>
<pdfrwt beam="1">  1        1 0.30101240E+00 0.75310411E+03</pdfrwt>
<pdfrwt beam="2">  1       -1 0.37064624E-01 0.75310411E+03</pdfrwt>
<totfact> 0.23181397E+01</totfact>
</mgrwt>
</event>
<event>
 4    1  0.1008211E-007  0.7313166E+03  0.7818608E-02  0.9886004E-01
         -1   -1    0    0    0  501 -0.00000000000E+00  0.00000000000E+00  0.50036394474E+03  0.50036394477E+03  0.50400000000E-02 0.  1.
          1   -1    0    0  501    0  0.00000000000E+00 -0.00000000000E+00 -0.10932067936E+04  0.10932067937E+04  0.50400000000E-02 0. -1.
    8880023    1    1    2    0    0 -0.20828073804E+03  0.24006854975E+03  0.17204123809E+03  0.75128035265E+03  0.65864270000E+03 0.  1.
    8880022    1    1    2    0    0  0.20828073804E+03 -0.24006854975E+03 -0.76488408698E+03  0.84229038577E+03  0.15294330000E+03 0.  0.
<mgrwt>
<rscale>  0 0.60944426E+03</rscale>
<asrwt>0</asrwt>
<pdfrwt beam="1">  1        1 0.16818566E+00 0.73131661E+03</pdfrwt>
<pdfrwt beam="2">  1       -1 0.76979069E-01 0.73131661E+03</pdfrwt>
<totfact> 0.22405575E+01</totfact>
</mgrwt>
</event>
<event>
 4    1  0.1008211E-007  0.9767211E+03  0.7818608E-02  0.9412668E-01
          1   -1    0    0  501    0  0.00000000000E+00  0.00000000000E+00  0.15016243631E+04  0.15016243631E+04  0.50400000000E-02 0. -1.
         -1   -1    0    0    0  501 -0.00000000000E+00 -0.00000000000E+00 -0.12512192328E+04  0.12512192329E+04  0.50400000000E-02 0.  1.
    8880023    1    1    2    0    0  0.41216893911E+03 -0.59185361115E+03 -0.93808391272E+03  0.13542472318E+04  0.65864270000E+03 0.  0.
    8880022    1    1    2    0    0 -0.41216893911E+03  0.59185361115E+03  0.11884890429E+04  0.13985963641E+04  0.15294330000E+03 0.  0.
<mgrwt>
<rscale>  0 0.91040456E+03</rscale>
<asrwt>0</asrwt>
<pdfrwt beam="1">  1        1 0.23101913E+00 0.97672112E+03</pdfrwt>
<pdfrwt beam="2">  1       -1 0.19249527E+00 0.97672112E+03</pdfrwt>
<totfact> 0.11189286E+00</totfact>
</mgrwt>
</event>
<event>
 4    1  0.1008211E-007  0.7686244E+03  0.7818608E-02  0.9783271E-01
         -1   -1    0    0    0  501 -0.00000000000E+00  0.00000000000E+00  0.26127780587E+03  0.26127780592E+03  0.50400000000E-02 0.  1.
          1   -1    0    0  501    0  0.00000000000E+00 -0.00000000000E+00 -0.14216311494E+04  0.14216311494E+04  0.50400000000E-02 0. -1.
    8880023    1    1    2    0    0  0.28992230509E+03  0.27003390400E+03 -0.90502011173E+03  0.11873688817E+04  0.65864270000E+03 0.  0.
    8880022    1    1    2    0    0 -0.28992230509E+03 -0.27003390400E+03 -0.25533323179E+03  0.49554007363E+03  0.15294330000E+03 0. -1.
<mgrwt>
<rscale>  0 0.66268117E+03</rscale>
<asrwt>0</asrwt>
<pdfrwt beam="1">  1        1 0.21871248E+00 0.76862439E+03</pdfrwt>
<pdfrwt beam="2">  1       -1 0.40196587E-01 0.76862439E+03</pdfrwt>
<totfact> 0.45941823E+01</totfact>
</mgrwt>
</event>
<event>
 4    1  0.1008211E-007  0.6713256E+03  0.7818608E-02  0.1014730E+00
          1   -1    0    0  501    0  0.00000000000E+00  0.00000000000E+00  0.14530205110E+04  0.14530205110E+04  0.50400000000E-02 0. -1.
         -1   -1    0    0    0  501 -0.00000000000E+00 -0.00000000000E+00 -0.48189662763E+03  0.48189662765E+03  0.50400000000E-02 0.  1.
    8880023    1    1    2    0    0 -0.66115113513E+02 -0.11178815172E+03 -0.23572038781E+03  0.71150692659E+03  0.65864270000E+03 0.  1.
    8880022    1    1    2    0    0  0.66115113513E+02  0.11178815172E+03  0.12068442712E+04  0.12234102120E+04  0.15294330000E+03 0.  0.
<mgrwt>
<rscale>  0 0.49637325E+03</rscale>
<asrwt>0</asrwt>
<pdfrwt beam="1">  1        1 0.22354162E+00 0.67132556E+03</pdfrwt>
<pdfrwt beam="2">  1       -1 0.74137943E-01 0.67132556E+03</pdfrwt>
<totfact> 0.13546254E+01</totfact>
</mgrwt>
</event>
<event>
 4    1  0.1008211E-007  0.6612818E+03  0.7818608E-02  0.1022880E+00
         -1   -1    0    0    0  501 -0.00000000000E+00  0.00000000000E+00  0.37138632356E+03  0.37138632360E+03  0.50400000000E-02 0.  1.
          1   -1    0    0  501    0  0.00000000000E+00 -0.00000000000E+00 -0.10800805249E+04  0.10800805250E+04  0.50400000000E-02 0. -1.
    8880023    1    1    2    0    0 -0.58020861593E+02 -0.10814026625E+02  0.61391277366E+02  0.66412533362E+03  0.65864270000E+03 0.  1.
    8880022    1    1    2    0    0  0.58020861593E+02  0.10814026625E+02 -0.77008547875E+03  0.78734151494E+03  0.15294330000E+03 0.  0.
<mgrwt>
<rscale>  0 0.46661479E+03</rscale>
<asrwt>0</asrwt>
<pdfrwt beam="1">  1        1 0.16616623E+00 0.66128176E+03</pdfrwt>
<pdfrwt beam="2">  1       -1 0.57136358E-01 0.66128176E+03</pdfrwt>
<totfact> 0.42178349E+01</totfact>
</mgrwt>
</event>
<event>
 4    1  0.1008211E-007  0.9951126E+03  0.7818608E-02  0.9387980E-01
          1   -1    0    0  501    0  0.00000000000E+00  0.00000000000E+00  0.30106028591E+04  0.30106028591E+04  0.50400000000E-02 0. -1.
         -1   -1    0    0    0  501 -0.00000000000E+00 -0.00000000000E+00 -0.45589008338E+03  0.45589008341E+03  0.50400000000E-02 0.  1.
    8880023    1    1    2    0    0 -0.74148463052E+03  0.81482558177E+02  0.23151832199E+03  0.10216896810E+04  0.65864270000E+03 0.  1.
    8880022    1    1    2    0    0  0.74148463052E+03 -0.81482558177E+02  0.23231944537E+04  0.24448032615E+04  0.15294330000E+03 0.  0.
<mgrwt>
<rscale>  0 0.93071519E+03</rscale>
<asrwt>0</asrwt>
<pdfrwt beam="1">  1        1 0.46316967E+00 0.99511259E+03</pdfrwt>
<pdfrwt beam="2">  1       -1 0.70136937E-01 0.99511259E+03</pdfrwt>
<totfact> 0.12419394E+00</totfact>
</mgrwt>
</event>
<event>
 4    1  0.1008211E-007  0.8001906E+03  0.7818608E-02  0.9710384E-01
          1   -1    0    0  501    0  0.00000000000E+00  0.00000000000E+00  0.96340074655E+03  0.96340074656E+03  0.50400000000E-02 0. -1.
         -1   -1    0    0    0  501 -0.00000000000E+00 -0.00000000000E+00 -0.85440582713E+03  0.85440582714E+03  0.50400000000E-02 0.  1.
    8880023    1    1    2    0    0  0.44617798545E+03  0.86139372027E+02 -0.57296130571E+03  0.98416952311E+03  0.65864270000E+03 0.  1.
    8880022    1    1    2    0    0 -0.44617798545E+03 -0.86139372027E+02  0.68195622513E+03  0.83363705059E+03  0.15294330000E+03 0.  0.
<mgrwt>
<rscale>  0 0.70401879E+03</rscale>
<asrwt>0</asrwt>
<pdfrwt beam="1">  1        1 0.14821550E+00 0.80019060E+03</pdfrwt>
<pdfrwt beam="2">  1       -1 0.13144705E+00 0.80019060E+03</pdfrwt>
<totfact> 0.81836946E+00</totfact>
</mgrwt>
</event>
<event>
 4    1  0.1008211E-007  0.8647589E+03  0.7818608E-02  0.9585154E-01
         -1   -1    0    0    0  501 -0.00000000000E+00  0.00000000000E+00  0.12479769410E+04  0.12479769410E+04  0.50400000000E-02 0.  1.
          1   -1    0    0  501    0  0.00000000000E+00 -0.00000000000E+00 -0.73329307490E+03  0.73329307492E+03  0.50400000000E-02 0. -1.
    8880023    1    1    2    0    0 -0.48417308552E+03  0.28208891448E+03  0.92793466432E+03  0.12684126615E+04  0.65864270000E+03 0.  1.
    8880022    1    1    2    0    0  0.48417308552E+03 -0.28208891448E+03 -0.41325079824E+03  0.71285735437E+03  0.15294330000E+03 0.  0.
<mgrwt>
<rscale>  0 0.78286649E+03</rscale>
<asrwt>0</asrwt>
<pdfrwt beam="1">  1        1 0.11281432E+00 0.86475889E+03</pdfrwt>
<pdfrwt beam="2">  1       -1 0.19199645E+00 0.86475889E+03</pdfrwt>
<totfact> 0.44275297E+00</totfact>
</mgrwt>
</event>
<event>
 4    1  0.1008211E-007  0.1789185E+04  0.7818608E-02  0.8728543E-01
         -1   -1    0    0    0  501 -0.00000000000E+00  0.00000000000E+00  0.14915507405E+04  0.14915507405E+04  0.50400000000E-02 0.  1.
          1   -1    0    0  501    0  0.00000000000E+00 -0.00000000000E+00 -0.24386867171E+04  0.24386867171E+04  0.50400000000E-02 0. -1.
    8880023    1    1    2    0    0 -0.11094559711E+04 -0.12395484233E+04  0.34016052969E+03  0.18212337131E+04  0.65864270000E+03 0.  1.
    8880022    1    1    2    0    0  0.11094559711E+04  0.12395484233E+04 -0.12872965063E+04  0.21090037444E+04  0.15294330000E+03 0. -1.
<mgrwt>
<rscale>  0 0.17587611E+04</rscale>
<asrwt>0</asrwt>
<pdfrwt beam="1">  1        1 0.37518257E+00 0.17891850E+04</pdfrwt>
<pdfrwt beam="2">  1       -1 0.22946935E+00 0.17891850E+04</pdfrwt>
<totfact> 0.12978549E-01</totfact>
</mgrwt>
</event>
<event>
 4    1  0.1008211E-007  0.7942277E+03  0.7818608E-02  0.9723419E-01
         -1   -1    0    0    0  501 -0.00000000000E+00  0.00000000000E+00  0.30589392022E+03  0.30589392026E+03  0.50400000000E-02 0.  1.
          1   -1    0    0  501    0  0.00000000000E+00 -0.00000000000E+00 -0.13397985565E+04  0.13397985566E+04  0.50400000000E-02 0. -1.
    8880023    1    1    2    0    0  0.28350792440E+03  0.34148310498E+03 -0.77449121559E+03  0.11093395799E+04  0.65864270000E+03 0.  0.
    8880022    1    1    2    0    0 -0.28350792440E+03 -0.34148310498E+03 -0.25941342073E+03  0.53635289694E+03  0.15294330000E+03 0.  0.
<mgrwt>
<rscale>  0 0.69639410E+03</rscale>
<asrwt>0</asrwt>
<pdfrwt beam="1">  1        1 0.20612285E+00 0.79422771E+03</pdfrwt>
<pdfrwt beam="2">  1       -1 0.47060604E-01 0.79422771E+03</pdfrwt>
<totfact> 0.39048331E+01</totfact>
</mgrwt>
</event>
<event>
 4    1  0.1008211E-007  0.7939386E+03  0.7818608E-02  0.9724059E-01
          1   -1    0    0  501    0  0.00000000000E+00  0.00000000000E+00  0.14267316738E+04  0.14267316738E+04  0.50400000000E-02 0. -1.
         -1   -1    0    0    0  501 -0.00000000000E+00 -0.00000000000E+00 -0.32073063948E+03  0.32073063952E+03  0.50400000000E-02 0.  1.
    8880023    1    1    2    0    0 -0.13093773805E+03 -0.42353702535E+03  0.37278209196E+03  0.87710033487E+03  0.65864270000E+03 0.  1.
    8880022    1    1    2    0    0  0.13093773805E+03  0.42353702535E+03  0.73321894233E+03  0.87036197843E+03  0.15294330000E+03 0.  0.
<mgrwt>
<rscale>  0 0.69602249E+03</rscale>
<asrwt>0</asrwt>
<pdfrwt beam="1">  1        1 0.21949718E+00 0.79393861E+03</pdfrwt>
<pdfrwt beam="2">  1       -1 0.49343175E-01 0.79393861E+03</pdfrwt>
<totfact> 0.31063832E+01</totfact>
</mgrwt>
</event>
<event>
 4    1  0.1008211E-007  0.1385086E+04  0.7818608E-02  0.8995359E-01
         -1   -1    0    0    0  501 -0.00000000000E+00  0.00000000000E+00  0.11856685502E+04  0.11856685502E+04  0.50400000000E-02 0.  1.
          1   -1    0    0  501    0  0.00000000000E+00 -0.00000000000E+00 -0.21885358381E+04  0.21885358381E+04  0.50400000000E-02 0. -1.
    8880023    1    1    2    0    0 -0.62699773043E+03 -0.10447617323E+04 -0.15069083590E+04  0.20467623799E+04  0.65864270000E+03 0. -1.
    8880022    1    1    2    0    0  0.62699773043E+03  0.10447617323E+04  0.50404107114E+03  0.13274420084E+04  0.15294330000E+03 0.  0.
<mgrwt>
<rscale>  0 0.13440312E+04</rscale>
<asrwt>0</asrwt>
<pdfrwt beam="1">  1        1 0.33669782E+00 0.13850861E+04</pdfrwt>
<pdfrwt beam="2">  1       -1 0.18241055E+00 0.13850861E+04</pdfrwt>
<totfact> 0.42559810E-01</totfact>
</mgrwt>
</event>
<event>
 4    1  0.1008211E-007  0.8335989E+03  0.7818608E-02  0.9642370E-01
         -1   -1    0    0    0  501 -0.00000000000E+00  0.00000000000E+00  0.90148350470E+03  0.90148350472E+03  0.50400000000E-02 0.  1.
          1   -1    0    0  501    0  0.00000000000E+00 -0.00000000000E+00 -0.12433523067E+04  0.12433523067E+04  0.50400000000E-02 0. -1.
    8880023    1    1    2    0    0 -0.35253708823E+03  0.36985732503E+03  0.62414301315E+03  0.10413652321E+04  0.65864270000E+03 0.  1.
    8880022    1    1    2    0    0  0.35253708823E+03 -0.36985732503E+03 -0.96601181518E+03  0.11034705794E+04  0.15294330000E+03 0.  0.
<mgrwt>
<rscale>  0 0.74554198E+03</rscale>
<asrwt>0</asrwt>
<pdfrwt beam="1">  1        1 0.19128497E+00 0.83359885E+03</pdfrwt>
<pdfrwt beam="2">  1       -1 0.13868977E+00 0.83359885E+03</pdfrwt>
<totfact> 0.43795674E+00</totfact>
</mgrwt>
</event>
<event>
 4    1  0.1008211E-007  0.1336135E+04  0.7818608E-02  0.9034967E-01
         -1   -1    0    0    0  501 -0.00000000000E+00  0.00000000000E+00  0.14059119601E+04  0.14059119601E+04  0.50400000000E-02 0.  1.
          1   -1    0    0  501    0  0.00000000000E+00 -0.00000000000E+00 -0.16363074616E+04  0.16363074616E+04  0.50400000000E-02 0. -1.
    8880023    1    1    2    0    0  0.10822419261E+04  0.42449863699E+03  0.73360533652E+03  0.15242813636E+04  0.65864270000E+03 0.  0.
    8880022    1    1    2    0    0 -0.10822419261E+04 -0.42449863699E+03 -0.96400083808E+03  0.15179380581E+04  0.15294330000E+03 0.  0.
<mgrwt>
<rscale>  0 0.12932105E+04</rscale>
<asrwt>0</asrwt>
<pdfrwt beam="1">  1        1 0.25173961E+00 0.13361351E+04</pdfrwt>
<pdfrwt beam="2">  1       -1 0.21629415E+00 0.13361351E+04</pdfrwt>
<totfact> 0.59168858E-01</totfact>
</mgrwt>
</event>
<event>
 4    1  0.1008211E-007  0.1282385E+04  0.7818608E-02  0.9080923E-01
          1   -1    0    0  501    0  0.00000000000E+00  0.00000000000E+00  0.30673380585E+04  0.30673380585E+04  0.50400000000E-02 0. -1.
         -1   -1    0    0    0  501 -0.00000000000E+00 -0.00000000000E+00 -0.11577100774E+04  0.11577100774E+04  0.50400000000E-02 0.  1.
    8880023    1    1    2    0    0 -0.12915169909E+03 -0.10927126783E+04 -0.64783393806E+03  0.14367324651E+04  0.65864270000E+03 0.  0.
    8880022    1    1    2    0    0  0.12915169909E+03  0.10927126783E+04  0.25574619192E+04  0.27883156707E+04  0.15294330000E+03 0.  0.
<mgrwt>
<rscale>  0 0.12371783E+04</rscale>
<asrwt>0</asrwt>
<pdfrwt beam="1">  1        1 0.47189817E+00 0.12823850E+04</pdfrwt>
<pdfrwt beam="2">  1       -1 0.17810924E+00 0.12823850E+04</pdfrwt>
<totfact> 0.11222477E-01</totfact>
</mgrwt>
</event>
<event>
 4    1  0.1020242E-007  0.7345187E+03  0.7818608E-02  0.9876211E-01
         -1   -1    0    0    0  501 -0.00000000000E+00  0.00000000000E+00  0.13647135993E+04  0.13647135993E+04  0.50400000000E-02 0.  1.
          1   -1    0    0  501    0  0.00000000000E+00 -0.00000000000E+00 -0.39667576870E+04  0.39667576870E+04  0.50400000000E-02 0. -1.
    8880023    1    1    2    0    0  0.18194407997E+03 -0.26945102899E+03  0.12569264604E+04  0.14558096848E+04  0.65864270000E+03 0.  1.
    8880022    1    1    2    0    0 -0.18194407997E+03  0.26945102899E+03 -0.38589705481E+04  0.38756616015E+04  0.15294330000E+03 0.  0.
<mgrwt>
<rscale>  0 0.61428168E+03</rscale>
<asrwt>0</asrwt>
<pdfrwt beam="1">  1        1 0.61027041E+00 0.73451869E+03</pdfrwt>
<pdfrwt beam="2">  1       -1 0.20995594E+00 0.73451869E+03</pdfrwt>
<totfact> 0.15049051E-02</totfact>
</mgrwt>
</event>
<event>
 4    1  0.1008211E-007  0.1431988E+04  0.7818608E-02  0.8959218E-01
          1   -1    0    0  501    0  0.00000000000E+00  0.00000000000E+00  0.15930394067E+04  0.15930394067E+04  0.50400000000E-02 0. -1.
         -1   -1    0    0    0  501 -0.00000000000E+00 -0.00000000000E+00 -0.14432609951E+04  0.14432609951E+04  0.50400000000E-02 0.  1.
    8880023    1    1    2    0    0  0.56538061339E+03  0.11389132561E+04 -0.59962497616E+03  0.15524622254E+04  0.65864270000E+03 0. -1.
    8880022    1    1    2    0    0 -0.56538061339E+03 -0.11389132561E+04  0.74940338777E+03  0.14838381764E+04  0.15294330000E+03 0.  0.
<mgrwt>
<rscale>  0 0.13925654E+04</rscale>
<asrwt>0</asrwt>
<pdfrwt beam="1">  1        1 0.24508299E+00 0.14319877E+04</pdfrwt>
<pdfrwt beam="2">  1       -1 0.22204015E+00 0.14319877E+04</pdfrwt>
<totfact> 0.57339349E-01</totfact>
</mgrwt>
</event>
<event>
 4    1  0.1008211E-007  0.7505108E+03  0.7818608E-02  0.9830324E-01
          1   -1    0    0  501    0  0.00000000000E+00  0.00000000000E+00  0.17221483582E+04  0.17221483583E+04  0.50400000000E-02 0. -1.
         -1   -1    0    0    0  501 -0.00000000000E+00 -0.00000000000E+00 -0.19143282625E+03  0.19143282632E+03  0.50400000000E-02 0.  1.
    8880023    1    1    2    0    0  0.29078894036E+03  0.21189150563E+03  0.90424378798E+03  0.11751269090E+04  0.65864270000E+03 0.  1.
    8880022    1    1    2    0    0 -0.29078894036E+03 -0.21189150563E+03  0.62647174402E+03  0.73845427554E+03  0.15294330000E+03 0.  1.
<mgrwt>
<rscale>  0 0.63760266E+03</rscale>
<asrwt>0</asrwt>
<pdfrwt beam="1">  1        1 0.26494590E+00 0.75051078E+03</pdfrwt>
<pdfrwt beam="2">  1       -1 0.29451204E-01 0.75051078E+03</pdfrwt>
<totfact> 0.49972463E+01</totfact>
</mgrwt>
</event>
<event>
 4    1  0.1008211E-007  0.9651454E+03  0.7818608E-02  0.9428650E-01
          1   -1    0    0  501    0  0.00000000000E+00  0.00000000000E+00  0.14497808388E+04  0.14497808388E+04  0.50400000000E-02 0. -1.
         -1   -1    0    0    0  501 -0.00000000000E+00 -0.00000000000E+00 -0.12366192386E+04  0.12366192386E+04  0.50400000000E-02 0.  1.
    8880023    1    1    2    0    0  0.67127797192E+03 -0.21698230976E+03 -0.92616379829E+03  0.13376415910E+04  0.65864270000E+03 0.  0.
    8880022    1    1    2    0    0 -0.67127797192E+03  0.21698230976E+03  0.11393253984E+04  0.13487584865E+04  0.15294330000E+03 0.  0.
<mgrwt>
<rscale>  0 0.89754937E+03</rscale>
<asrwt>0</asrwt>
<pdfrwt beam="1">  1        1 0.22304321E+00 0.96514540E+03</pdfrwt>
<pdfrwt beam="2">  1       -1 0.19024911E+00 0.96514540E+03</pdfrwt>
<totfact> 0.12622023E+00</totfact>
</mgrwt>
</event>
<event>
 4    1  0.1008211E-007  0.7224413E+03  0.7818608E-02  0.9914410E-01
          1   -1    0    0  501    0  0.00000000000E+00  0.00000000000E+00  0.14192941621E+04  0.14192941621E+04  0.50400000000E-02 0. -1.
         -1   -1    0    0    0  501 -0.00000000000E+00 -0.00000000000E+00 -0.14070121327E+04  0.14070121327E+04  0.50400000000E-02 0.  1.
    8880023    1    1    2    0    0 -0.24462437733E+02 -0.29582562289E+03 -0.12918329694E+04  0.14801195347E+04  0.65864270000E+03 0.  1.
    8880022    1    1    2    0    0  0.24462437733E+02  0.29582562289E+03  0.13041149988E+04  0.13461867601E+04  0.15294330000E+03 0.  0.
<mgrwt>
<rscale>  0 0.59567952E+03</rscale>
<asrwt>0</asrwt>
<pdfrwt beam="1">  1        1 0.21835295E+00 0.72244129E+03</pdfrwt>
<pdfrwt beam="2">  1       -1 0.21646340E+00 0.72244129E+03</pdfrwt>
<totfact> 0.91736606E-01</totfact>
</mgrwt>
</event>
<event>
 4    1  0.1008211E-007  0.1998845E+04  0.7818608E-02  0.8619850E-01
          1   -1    0    0  501    0  0.00000000000E+00  0.00000000000E+00  0.18070921351E+04  0.18070921351E+04  0.50400000000E-02 0. -1.
         -1   -1    0    0    0  501 -0.00000000000E+00 -0.00000000000E+00 -0.30527370364E+04  0.30527370364E+04  0.50400000000E-02 0.  1.
    8880023    1    1    2    0    0 -0.91904534383E+03  0.16483104522E+04  0.72568250973E+03  0.21264987660E+04  0.65864270000E+03 0.  0.
    8880022    1    1    2    0    0  0.91904534383E+03 -0.16483104522E+04 -0.19713274110E+04  0.27333304054E+04  0.15294330000E+03 0.  0.
<mgrwt>
<rscale>  0 0.19719457E+04</rscale>
<asrwt>0</asrwt>
<pdfrwt beam="1">  1        1 0.27801418E+00 0.19988451E+04</pdfrwt>
<pdfrwt beam="2">  1       -1 0.46965185E+00 0.19988451E+04</pdfrwt>
<totfact> 0.84570167E-03</totfact>
</mgrwt>
</event>
<event>
 4    1  0.1008211E-007  0.1002426E+04  0.7818608E-02  0.9378390E-01
          1   -1    0    0  501    0  0.00000000000E+00  0.00000000000E+00  0.31642972682E+04  0.31642972683E+04  0.50400000000E-02 0. -1.
         -1   -1    0    0    0  501 -0.00000000000E+00 -0.00000000000E+00 -0.65854270622E+03  0.65854270624E+03  0.50400000000E-02 0.  1.
    8880023    1    1    2    0    0  0.22328395185E+03  0.72193677272E+03 -0.18888737943E+03  0.10200671916E+04  0.65864270000E+03 0.  1.
    8880022    1    1    2    0    0 -0.22328395185E+03 -0.72193677272E+03  0.26946419415E+04  0.28027727829E+04  0.15294330000E+03 0.  0.
<mgrwt>
<rscale>  0 0.93875632E+03</rscale>
<asrwt>0</asrwt>
<pdfrwt beam="1">  1        1 0.48681497E+00 0.10024264E+04</pdfrwt>
<pdfrwt beam="2">  1       -1 0.10131426E+00 0.10024264E+04</pdfrwt>
<totfact> 0.43111679E-01</totfact>
</mgrwt>
</event>
<event>
 4    1  0.1008211E-007  0.1093435E+04  0.7818608E-02  0.9268400E-01
         -1   -1    0    0    0  501 -0.00000000000E+00  0.00000000000E+00  0.89763543610E+03  0.89763543611E+03  0.50400000000E-02 0.  1.
          1   -1    0    0  501    0  0.00000000000E+00 -0.00000000000E+00 -0.24461914368E+04  0.24461914369E+04  0.50400000000E-02 0. -1.
    8880023    1    1    2    0    0  0.80107125670E+03 -0.34651934180E+03  0.43075228805E+03  0.11752227672E+04  0.65864270000E+03 0.  1.
    8880022    1    1    2    0    0 -0.80107125670E+03  0.34651934180E+03 -0.19793082888E+04  0.21686041058E+04  0.15294330000E+03 0.  0.
<mgrwt>
<rscale>  0 0.10374476E+04</rscale>
<asrwt>0</asrwt>
<pdfrwt beam="1">  1        1 0.37633714E+00 0.10934354E+04</pdfrwt>
<pdfrwt beam="2">  1       -1 0.13809776E+00 0.10934354E+04</pdfrwt>
<totfact> 0.64278412E-01</totfact>
</mgrwt>
</event>
<event>
 4    1  0.1008211E-007  0.1365818E+04  0.7818608E-02  0.9010709E-01
         -1   -1    0    0    0  501 -0.00000000000E+00  0.00000000000E+00  0.30140393182E+04  0.30140393182E+04  0.50400000000E-02 0.  1.
          1   -1    0    0  501    0  0.00000000000E+00 -0.00000000000E+00 -0.11535966132E+04  0.11535966132E+04  0.50400000000E-02 0. -1.
    8880023    1    1    2    0    0 -0.11944042059E+04 -0.71037992443E+02  0.24652018037E+04  0.28182757038E+04  0.65864270000E+03 0.  1.
    8880022    1    1    2    0    0  0.11944042059E+04  0.71037992443E+02 -0.60475909863E+03  0.13493602276E+04  0.15294330000E+03 0.  0.
<mgrwt>
<rscale>  0 0.13240485E+04</rscale>
<asrwt>0</asrwt>
<pdfrwt beam="1">  1        1 0.17747640E+00 0.13658177E+04</pdfrwt>
<pdfrwt beam="2">  1       -1 0.46369835E+00 0.13658177E+04</pdfrwt>
<totfact> 0.29065811E-02</totfact>
</mgrwt>
</event>
<event>
 4    1  0.1008211E-007  0.1109040E+04  0.7818608E-02  0.9251058E-01
          1   -1    0    0  501    0  0.00000000000E+00  0.00000000000E+00  0.37146434043E+04  0.37146434043E+04  0.50400000000E-02 0. -1.
         -1   -1    0    0    0  501 -0.00000000000E+00 -0.00000000000E+00 -0.49517156009E+03  0.49517156012E+03  0.50400000000E-02 0.  1.
    8880023    1    1    2    0    0 -0.49262911862E+03  0.74395951334E+03  0.29381949653E+03  0.11473008798E+04  0.65864270000E+03 0.  1.
    8880022    1    1    2    0    0  0.49262911862E+03 -0.74395951334E+03  0.29256523477E+04  0.30625140846E+04  0.15294330000E+03 0.  0.
<mgrwt>
<rscale>  0 0.10541620E+04</rscale>
<asrwt>0</asrwt>
<pdfrwt beam="1">  1        1 0.57148362E+00 0.11090399E+04</pdfrwt>
<pdfrwt beam="2">  1       -1 0.76180238E-01 0.11090399E+04</pdfrwt>
<totfact> 0.29781579E-01</totfact>
</mgrwt>
</event>
<event>
 4    1  0.1008211E-007  0.1177734E+04  0.7818608E-02  0.9179076E-01
          1   -1    0    0  501    0  0.00000000000E+00  0.00000000000E+00  0.28925984094E+04  0.28925984094E+04  0.50400000000E-02 0. -1.
         -1   -1    0    0    0  501 -0.00000000000E+00 -0.00000000000E+00 -0.52366121551E+03  0.52366121553E+03  0.50400000000E-02 0.  1.
    8880023    1    1    2    0    0 -0.64754350881E+03 -0.73070856035E+03  0.45562242843E+03  0.12627943615E+04  0.65864270000E+03 0.  1.
    8880022    1    1    2    0    0  0.64754350881E+03  0.73070856035E+03  0.19133147655E+04  0.21534652634E+04  0.15294330000E+03 0.  0.
<mgrwt>
<rscale>  0 0.11272032E+04</rscale>
<asrwt>0</asrwt>
<pdfrwt beam="1">  1        1 0.44501513E+00 0.11777342E+04</pdfrwt>
<pdfrwt beam="2">  1       -1 0.80563265E-01 0.11777342E+04</pdfrwt>
<totfact> 0.10984772E+00</totfact>
</mgrwt>
</event>
<event>
 4    1  0.1008211E-007  0.9343874E+03  0.7818608E-02  0.9472942E-01
         -1   -1    0    0    0  501 -0.00000000000E+00  0.00000000000E+00  0.64877252919E+03  0.64877252921E+03  0.50400000000E-02 0.  1.
          1   -1    0    0  501    0  0.00000000000E+00 -0.00000000000E+00 -0.10655377647E+04  0.10655377647E+04  0.50400000000E-02 0. -1.
    8880023    1    1    2    0    0 -0.16534877741E+03  0.64181721020E+03 -0.36634628173E+02  0.93510526239E+03  0.65864270000E+03 0.  1.
    8880022    1    1    2    0    0  0.16534877741E+03 -0.64181721020E+03 -0.38013060734E+03  0.77920503153E+03  0.15294330000E+03 0.  0.
<mgrwt>
<rscale>  0 0.86308408E+03</rscale>
<asrwt>0</asrwt>
<pdfrwt beam="1">  1        1 0.16392889E+00 0.93438737E+03</pdfrwt>
<pdfrwt beam="2">  1       -1 0.99811159E-01 0.93438737E+03</pdfrwt>
<totfact> 0.13013815E+01</totfact>
</mgrwt>
</event>
<event>
 4    1  0.1544091E-007  0.9857588E+03  0.7818608E-02  0.9400431E-01
         -1   -1    0    0    0  501 -0.00000000000E+00  0.00000000000E+00  0.19972031720E+04  0.19972031720E+04  0.50400000000E-02 0.  1.
          1   -1    0    0  501    0  0.00000000000E+00 -0.00000000000E+00 -0.19142360698E+04  0.19142360698E+04  0.50400000000E-02 0. -1.
    8880023    1    1    2    0    0 -0.18425221497E+03  0.70990232698E+03  0.17920933902E+04  0.20453163858E+04  0.65864270000E+03 0.  0.
    8880022    1    1    2    0    0  0.18425221497E+03 -0.70990232698E+03 -0.17091262879E+04  0.18661228560E+04  0.15294330000E+03 0.  0.
<mgrwt>
<rscale>  0 0.92040200E+03</rscale>
<asrwt>0</asrwt>
<pdfrwt beam="1">  1        1 0.29449786E+00 0.98575879E+03</pdfrwt>
<pdfrwt beam="2">  1       -1 0.30726203E+00 0.98575879E+03</pdfrwt>
<totfact> 0.10352417E-01</totfact>
</mgrwt>
</event>
<event>
 4    1  0.1008211E-007  0.7372099E+03  0.7818608E-02  0.9868150E-01
         -1   -1    0    0    0  501 -0.00000000000E+00  0.00000000000E+00  0.62028474974E+03  0.62028474976E+03  0.50400000000E-02 0.  1.
          1   -1    0    0  501    0  0.00000000000E+00 -0.00000000000E+00 -0.28559095542E+04  0.28559095542E+04  0.50400000000E-02 0. -1.
    8880023    1    1    2    0    0  0.12595697128E+03  0.30627285916E+03  0.38404821500E+03  0.83124693117E+03  0.65864270000E+03 0.  0.
    8880022    1    1    2    0    0 -0.12595697128E+03 -0.30627285916E+03 -0.26196730194E+04  0.26449473728E+04  0.15294330000E+03 0.  0.
<mgrwt>
<rscale>  0 0.61830001E+03</rscale>
<asrwt>0</asrwt>
<pdfrwt beam="1">  1        1 0.43937069E+00 0.73720989E+03</pdfrwt>
<pdfrwt beam="2">  1       -1 0.95428425E-01 0.73720989E+03</pdfrwt>
<totfact> 0.86944989E-01</totfact>
</mgrwt>
</event>
<event>
 4    1  0.1008211E-007  0.8147844E+03  0.7818608E-02  0.9679696E-01
          1   -1    0    0  501    0  0.00000000000E+00  0.00000000000E+00  0.16511515474E+04  0.16511515475E+04  0.50400000000E-02 0. -1.
         -1   -1    0    0    0  501 -0.00000000000E+00 -0.00000000000E+00 -0.49858984968E+03  0.49858984971E+03  0.50400000000E-02 0.  1.
    8880023    1    1    2    0    0 -0.46860048528E+03 -0.10235693727E+03 -0.79633503190E+02  0.81866663454E+03  0.65864270000E+03 0.  1.
    8880022    1    1    2    0    0  0.46860048528E+03  0.10235693727E+03  0.12321952010E+04  0.13310747626E+04  0.15294330000E+03 0.  0.
<mgrwt>
<rscale>  0 0.72238651E+03</rscale>
<asrwt>0</asrwt>
<pdfrwt beam="1">  1        1 0.25402331E+00 0.81478437E+03</pdfrwt>
<pdfrwt beam="2">  1       -1 0.76706131E-01 0.81478437E+03</pdfrwt>
<totfact> 0.90512942E+00</totfact>
</mgrwt>
</event>
<event>
 4    1  0.1008211E-007  0.8433945E+03  0.7818608E-02  0.9623812E-01
         -1   -1    0    0    0  501 -0.00000000000E+00  0.00000000000E+00  0.21818549102E+04  0.21818549102E+04  0.50400000000E-02 0.  1.
          1   -1    0    0  501    0  0.00000000000E+00 -0.00000000000E+00 -0.73884439397E+03  0.73884439399E+03  0.50400000000E-02 0. -1.
    8880023    1    1    2    0    0 -0.40477907021E+03  0.33713204783E+03  0.19805735594E+04  0.21526694925E+04  0.65864270000E+03 0.  1.
    8880022    1    1    2    0    0  0.40477907021E+03 -0.33713204783E+03 -0.53756304315E+03  0.76802981175E+03  0.15294330000E+03 0.  0.
<mgrwt>
<rscale>  0 0.75739964E+03</rscale>
<asrwt>0</asrwt>
<pdfrwt beam="1">  1        1 0.11366837E+00 0.84339452E+03</pdfrwt>
<pdfrwt beam="2">  1       -1 0.33566999E+00 0.84339452E+03</pdfrwt>
<totfact> 0.50670590E-01</totfact>
</mgrwt>
</event>
<event>
 4    1  0.1008211E-007  0.8722971E+03  0.7818608E-02  0.9572053E-01
          1   -1    0    0  501    0  0.00000000000E+00  0.00000000000E+00  0.14075592883E+04  0.14075592883E+04  0.50400000000E-02 0. -1.
         -1   -1    0    0    0  501 -0.00000000000E+00 -0.00000000000E+00 -0.80292030241E+03  0.80292030242E+03  0.50400000000E-02 0.  1.
    8880023    1    1    2    0    0  0.21854264508E+03 -0.52851788551E+03 -0.46458307095E+03  0.98830141106E+03  0.65864270000E+03 0.  1.
    8880022    1    1    2    0    0 -0.21854264508E+03  0.52851788551E+03  0.10692220569E+04  0.12221781797E+04  0.15294330000E+03 0.  0.
<mgrwt>
<rscale>  0 0.79173857E+03</rscale>
<asrwt>0</asrwt>
<pdfrwt beam="1">  1        1 0.21654758E+00 0.87229711E+03</pdfrwt>
<pdfrwt beam="2">  1       -1 0.12352620E+00 0.87229711E+03</pdfrwt>
<totfact> 0.44694122E+00</totfact>
</mgrwt>
</event>
<event>
 4    1  0.1008211E-007  0.6871929E+03  0.7818608E-02  0.1005516E+00
         -1   -1    0    0    0  501 -0.00000000000E+00  0.00000000000E+00  0.48284654238E+03  0.48284654241E+03  0.50400000000E-02 0.  1.
          1   -1    0    0  501    0  0.00000000000E+00 -0.00000000000E+00 -0.12903627944E+04  0.12903627945E+04  0.50400000000E-02 0. -1.
    8880023    1    1    2    0    0 -0.12435829419E+03  0.15152196272E+03  0.21567592752E+03  0.72024315512E+03  0.65864270000E+03 0.  1.
    8880022    1    1    2    0    0  0.12435829419E+03 -0.15152196272E+03 -0.10231921796E+04  0.10529661817E+04  0.15294330000E+03 0.  0.
<mgrwt>
<rscale>  0 0.53296196E+03</rscale>
<asrwt>0</asrwt>
<pdfrwt beam="1">  1        1 0.19851735E+00 0.68719291E+03</pdfrwt>
<pdfrwt beam="2">  1       -1 0.74284084E-01 0.68719291E+03</pdfrwt>
<totfact> 0.17466661E+01</totfact>
</mgrwt>
</event>
<event>
 4    1  0.1008211E-007  0.1125626E+04  0.7818608E-02  0.9233047E-01
          1   -1    0    0  501    0  0.00000000000E+00  0.00000000000E+00  0.14077881678E+04  0.14077881679E+04  0.50400000000E-02 0. -1.
         -1   -1    0    0    0  501 -0.00000000000E+00 -0.00000000000E+00 -0.77021110779E+03  0.77021110780E+03  0.50400000000E-02 0.  1.
    8880023    1    1    2    0    0 -0.80502603911E+03  0.43029879953E+03  0.16135317193E+03  0.11371319329E+04  0.65864270000E+03 0.  0.
    8880022    1    1    2    0    0  0.80502603911E+03 -0.43029879953E+03  0.47622388812E+03  0.10408673427E+04  0.15294330000E+03 0.  0.
<mgrwt>
<rscale>  0 0.10718743E+04</rscale>
<asrwt>0</asrwt>
<pdfrwt beam="1">  1        1 0.21658279E+00 0.11256261E+04</pdfrwt>
<pdfrwt beam="2">  1       -1 0.11849402E+00 0.11256261E+04</pdfrwt>
<totfact> 0.47980070E+00</totfact>
</mgrwt>
</event>
<event>
 4    1  0.1008211E-007  0.1250106E+04  0.7818608E-02  0.9109890E-01
         -1   -1    0    0    0  501 -0.00000000000E+00  0.00000000000E+00  0.14302530028E+04  0.14302530029E+04  0.50400000000E-02 0.  1.
          1   -1    0    0  501    0  0.00000000000E+00 -0.00000000000E+00 -0.23463525668E+04  0.23463525668E+04  0.50400000000E-02 0. -1.
    8880023    1    1    2    0    0 -0.71524313684E+03 -0.78573683556E+03 -0.19303377556E+04  0.22997758970E+04  0.65864270000E+03 0.  0.
    8880022    1    1    2    0    0  0.71524313684E+03  0.78573683556E+03  0.10142381916E+04  0.14768296726E+04  0.15294330000E+03 0.  0.
<mgrwt>
<rscale>  0 0.12033946E+04</rscale>
<asrwt>0</asrwt>
<pdfrwt beam="1">  1        1 0.36097732E+00 0.12501061E+04</pdfrwt>
<pdfrwt beam="2">  1       -1 0.22003892E+00 0.12501061E+04</pdfrwt>
<totfact> 0.18582952E-01</totfact>
</mgrwt>
</event>
<event>
 4    1  0.1008211E-007  0.9692920E+03  0.7818608E-02  0.9422884E-01
          1   -1    0    0  501    0  0.00000000000E+00  0.00000000000E+00  0.56325844402E+04  0.56325844402E+04  0.50400000000E-02 0. -1.
         -1   -1    0    0    0  501 -0.00000000000E+00 -0.00000000000E+00 -0.44798507253E+03  0.44798507256E+03  0.50400000000E-02 0.  1.
    8880023    1    1    2    0    0 -0.81504167782E+02  0.70645159679E+03  0.13476527732E+03  0.97861569280E+03  0.65864270000E+03 0.  0.
    8880022    1    1    2    0    0  0.81504167782E+02 -0.70645159679E+03  0.50498340903E+04  0.51019538199E+04  0.15294330000E+03 0.  0.
<mgrwt>
<rscale>  0 0.90216102E+03</rscale>
<asrwt>0</asrwt>
<pdfrwt beam="1">  1        1 0.86655145E+00 0.96929201E+03</pdfrwt>
<pdfrwt beam="2">  1       -1 0.68920781E-01 0.96929201E+03</pdfrwt>
<totfact> 0.20816035E-03</totfact>
</mgrwt>
</event>
<event>
 4    1  0.1008211E-007  0.7269794E+03  0.7818608E-02  0.9899641E-01
          1   -1    0    0  501    0  0.00000000000E+00  0.00000000000E+00  0.41047463883E+03  0.41047463886E+03  0.50400000000E-02 0. -1.
         -1   -1    0    0    0  501 -0.00000000000E+00 -0.00000000000E+00 -0.16308736031E+04  0.16308736031E+04  0.50400000000E-02 0.  1.
    8880023    1    1    2    0    0  0.29366398613E+03 -0.91925826076E+02 -0.14541539685E+04  0.16257499392E+04  0.65864270000E+03 0.  0.
    8880022    1    1    2    0    0 -0.29366398613E+03  0.91925826076E+02  0.23375500427E+03  0.41559830279E+03  0.15294330000E+03 0.  0.
<mgrwt>
<rscale>  0 0.60278702E+03</rscale>
<asrwt>0</asrwt>
<pdfrwt beam="1">  1        1 0.63149945E-01 0.72697944E+03</pdfrwt>
<pdfrwt beam="2">  1       -1 0.25090363E+00 0.72697944E+03</pdfrwt>
<totfact> 0.41638712E+00</totfact>
</mgrwt>
</event>
<event>
 4    1  0.1008211E-007  0.1159153E+04  0.7818608E-02  0.9197889E-01
         -1   -1    0    0    0  501 -0.00000000000E+00  0.00000000000E+00  0.15196560798E+04  0.15196560798E+04  0.50400000000E-02 0.  1.
          1   -1    0    0  501    0  0.00000000000E+00 -0.00000000000E+00 -0.14344617195E+04  0.14344617195E+04  0.50400000000E-02 0. -1.
    8880023    1    1    2    0    0  0.17599022199E+03 -0.93747106681E+03  0.10679121888E+04  0.15760936548E+04  0.65864270000E+03 0.  0.
    8880022    1    1    2    0    0 -0.17599022199E+03  0.93747106681E+03 -0.98271782851E+03  0.13780241445E+04  0.15294330000E+03 0.  0.
<mgrwt>
<rscale>  0 0.11075243E+04</rscale>
<asrwt>0</asrwt>
<pdfrwt beam="1">  1        1 0.22068642E+00 0.11591526E+04</pdfrwt>
<pdfrwt beam="2">  1       -1 0.23379324E+00 0.11591526E+04</pdfrwt>
<totfact> 0.63816103E-01</totfact>
</mgrwt>
</event>
<event>
 4    1  0.1008211E-007  0.8228276E+03  0.7818608E-02  0.9663452E-01
         -1   -1    0    0    0  501 -0.00000000000E+00  0.00000000000E+00  0.50567837162E+03  0.50567837165E+03  0.50400000000E-02 0.  1.
          1   -1    0    0  501    0  0.00000000000E+00 -0.00000000000E+00 -0.10226318638E+04  0.10226318638E+04  0.50400000000E-02 0. -1.
    8880023    1    1    2    0    0 -0.25514360349E+03 -0.42206245225E+03 -0.37500899860E+02  0.82368167137E+03  0.65864270000E+03 0.  1.
    8880022    1    1    2    0    0  0.25514360349E+03  0.42206245225E+03 -0.47945259227E+03  0.70462856403E+03  0.15294330000E+03 0.  0.
<mgrwt>
<rscale>  0 0.73235147E+03</rscale>
<asrwt>0</asrwt>
<pdfrwt beam="1">  1        1 0.15732798E+00 0.82282755E+03</pdfrwt>
<pdfrwt beam="2">  1       -1 0.77796673E-01 0.82282755E+03</pdfrwt>
<totfact> 0.24530590E+01</totfact>
</mgrwt>
</event>
<event>
 4    1  0.1008211E-007  0.6602918E+03  0.7818608E-02  0.1023859E+00
          1   -1    0    0  501    0  0.00000000000E+00  0.00000000000E+00  0.15463930293E+04  0.15463930293E+04  0.50400000000E-02 0. -1.
         -1   -1    0    0    0  501 -0.00000000000E+00 -0.00000000000E+00 -0.32610939031E+03  0.32610939035E+03  0.50400000000E-02 0.  1.
    8880023    1    1    2    0    0  0.46634701604E+02 -0.49366488539E+00  0.18938704255E+02  0.66056333525E+03  0.65864270000E+03 0.  1.
    8880022    1    1    2    0    0 -0.46634701604E+02  0.49366488539E+00  0.12013449347E+04  0.12119390844E+04  0.15294330000E+03 0.  0.
<mgrwt>
<rscale>  0 0.46319220E+03</rscale>
<asrwt>0</asrwt>
<pdfrwt beam="1">  1        1 0.23790662E+00 0.66029179E+03</pdfrwt>
<pdfrwt beam="2">  1       -1 0.50170676E-01 0.66029179E+03</pdfrwt>
<totfact> 0.25350788E+01</totfact>
</mgrwt>
</event>
<event>
 4    1  0.1008211E-007  0.7793749E+03  0.7818608E-02  0.9757307E-01
          1   -1    0    0  501    0  0.00000000000E+00  0.00000000000E+00  0.18230313905E+04  0.18230313905E+04  0.50400000000E-02 0. -1.
         -1   -1    0    0    0  501 -0.00000000000E+00 -0.00000000000E+00 -0.38466130465E+03  0.38466130469E+03  0.50400000000E-02 0.  1.
    8880023    1    1    2    0    0  0.32255371168E+03  0.26376917719E+03  0.85712024258E+02  0.78407386968E+03  0.65864270000E+03 0.  1.
    8880022    1    1    2    0    0 -0.32255371168E+03 -0.26376917719E+03  0.13526580616E+04  0.14236188255E+04  0.15294330000E+03 0.  0.
<mgrwt>
<rscale>  0 0.67704877E+03</rscale>
<asrwt>0</asrwt>
<pdfrwt beam="1">  1        1 0.28046638E+00 0.77937493E+03</pdfrwt>
<pdfrwt beam="2">  1       -1 0.59178660E-01 0.77937493E+03</pdfrwt>
<totfact> 0.11802776E+01</totfact>
</mgrwt>
</event>
<event>
 4    1  0.1008211E-007  0.7201610E+03  0.7818608E-02  0.9922042E-01
          1   -1    0    0  501    0  0.00000000000E+00  0.00000000000E+00  0.36100021257E+04  0.36100021257E+04  0.50400000000E-02 0. -1.
         -1   -1    0    0    0  501 -0.00000000000E+00 -0.00000000000E+00 -0.36817010409E+03  0.36817010412E+03  0.50400000000E-02 0.  1.
    8880023    1    1    2    0    0  0.80167396025E+02 -0.27999081092E+03  0.47076039873E+00  0.72016115798E+03  0.65864270000E+03 0.  1.
    8880022    1    1    2    0    0 -0.80167396025E+02  0.27999081092E+03  0.32413612612E+04  0.32580110718E+04  0.15294330000E+03 0.  0.
<mgrwt>
<rscale>  0 0.59204851E+03</rscale>
<asrwt>0</asrwt>
<pdfrwt beam="1">  1        1 0.55538496E+00 0.72016100E+03</pdfrwt>
<pdfrwt beam="2">  1       -1 0.56641553E-01 0.72016100E+03</pdfrwt>
<totfact> 0.71164393E-01</totfact>
</mgrwt>
</event>
<event>
 4    1  0.1008211E-007  0.8511456E+03  0.7818608E-02  0.9609512E-01
          1   -1    0    0  501    0  0.00000000000E+00  0.00000000000E+00  0.11152982934E+04  0.11152982934E+04  0.50400000000E-02 0. -1.
         -1   -1    0    0    0  501 -0.00000000000E+00 -0.00000000000E+00 -0.82842449888E+03  0.82842449889E+03  0.50400000000E-02 0.  1.
    8880023    1    1    2    0    0  0.57042691695E+02  0.53608277782E+03 -0.49283116300E+03  0.98353005792E+03  0.65864270000E+03 0.  1.
    8880022    1    1    2    0    0 -0.57042691695E+02 -0.53608277782E+03  0.77970495752E+03  0.96019273438E+03  0.15294330000E+03 0.  0.
<mgrwt>
<rscale>  0 0.76669800E+03</rscale>
<asrwt>0</asrwt>
<pdfrwt beam="1">  1        1 0.17158435E+00 0.85114559E+03</pdfrwt>
<pdfrwt beam="2">  1       -1 0.12744992E+00 0.85114559E+03</pdfrwt>
<totfact> 0.67209727E+00</totfact>
</mgrwt>
</event>
<event>
 4    1  0.1008211E-007  0.1029947E+04  0.7818608E-02  0.9343385E-01
          1   -1    0    0  501    0  0.00000000000E+00  0.00000000000E+00  0.15724398960E+04  0.15724398961E+04  0.50400000000E-02 0. -1.
         -1   -1    0    0    0  501 -0.00000000000E+00 -0.00000000000E+00 -0.73642147854E+03  0.73642147855E+03  0.50400000000E-02 0.  1.
    8880023    1    1    2    0    0 -0.37035242589E+03  0.69987177480E+03 -0.14369201452E+03  0.10399226038E+04  0.65864270000E+03 0.  0.
    8880022    1    1    2    0    0  0.37035242589E+03 -0.69987177480E+03  0.97971043203E+03  0.12689387708E+04  0.15294330000E+03 0.  0.
<mgrwt>
<rscale>  0 0.96885013E+03</rscale>
<asrwt>0</asrwt>
<pdfrwt beam="1">  1        1 0.24191383E+00 0.10299474E+04</pdfrwt>
<pdfrwt beam="2">  1       -1 0.11329561E+00 0.10299474E+04</pdfrwt>
<totfact> 0.41568978E+00</totfact>
</mgrwt>
</event>
<event>
 4    1  0.1008211E-007  0.7022617E+03  0.7818608E-02  0.9987945E-01
          1   -1    0    0  501    0  0.00000000000E+00  0.00000000000E+00  0.11003051096E+04  0.11003051096E+04  0.50400000000E-02 0. -1.
         -1   -1    0    0    0  501 -0.00000000000E+00 -0.00000000000E+00 -0.65773753679E+03  0.65773753681E+03  0.50400000000E-02 0.  1.
    8880023    1    1    2    0    0 -0.12946917724E+03 -0.20639520080E+03 -0.44071491386E+03  0.82909654947E+03  0.65864270000E+03 0.  1.
    8880022    1    1    2    0    0  0.12946917724E+03  0.20639520080E+03  0.88328248669E+03  0.92894609697E+03  0.15294330000E+03 0.  0.
<mgrwt>
<rscale>  0 0.56181991E+03</rscale>
<asrwt>0</asrwt>
<pdfrwt beam="1">  1        1 0.16927771E+00 0.70226167E+03</pdfrwt>
<pdfrwt beam="2">  1       -1 0.10119039E+00 0.70226167E+03</pdfrwt>
<totfact> 0.12218323E+01</totfact>
</mgrwt>
</event>
<event>
 4    1  0.1008211E-007  0.6736795E+03  0.7818608E-02  0.1013152E+00
          1   -1    0    0  501    0  0.00000000000E+00  0.00000000000E+00  0.37596451476E+03  0.37596451479E+03  0.50400000000E-02 0. -1.
         -1   -1    0    0    0  501 -0.00000000000E+00 -0.00000000000E+00 -0.80564635716E+03  0.80564635718E+03  0.50400000000E-02 0.  1.
    8880023    1    1    2    0    0  0.73392081485E+02  0.12102659301E+03 -0.60790120349E+03  0.90740724777E+03  0.65864270000E+03 0.  1.
    8880022    1    1    2    0    0 -0.73392081485E+02 -0.12102659301E+03  0.17821936109E+03  0.27420362420E+03  0.15294330000E+03 0.  0.
<mgrwt>
<rscale>  0 0.50240977E+03</rscale>
<asrwt>0</asrwt>
<pdfrwt beam="1">  1        1 0.57840695E-01 0.67367948E+03</pdfrwt>
<pdfrwt beam="2">  1       -1 0.12394559E+00 0.67367948E+03</pdfrwt>
<totfact> 0.38325393E+01</totfact>
</mgrwt>
</event>
<event>
 4    1  0.1008211E-007  0.1176348E+04  0.7818608E-02  0.9180464E-01
          1   -1    0    0  501    0  0.00000000000E+00  0.00000000000E+00  0.76179145652E+03  0.76179145653E+03  0.50400000000E-02 0. -1.
         -1   -1    0    0    0  501 -0.00000000000E+00 -0.00000000000E+00 -0.20533998840E+04  0.20533998840E+04  0.50400000000E-02 0.  1.
    8880023    1    1    2    0    0  0.77727419233E+03  0.58807155784E+03 -0.13931695081E+04  0.18233800514E+04  0.65864270000E+03 0.  0.
    8880022    1    1    2    0    0 -0.77727419233E+03 -0.58807155784E+03  0.10156108062E+03  0.99181128916E+03  0.15294330000E+03 0.  0.
<mgrwt>
<rscale>  0 0.11257365E+04</rscale>
<asrwt>0</asrwt>
<pdfrwt beam="1">  1        1 0.11719869E+00 0.11763475E+04</pdfrwt>
<pdfrwt beam="2">  1       -1 0.31590767E+00 0.11763475E+04</pdfrwt>
<totfact> 0.61675564E-01</totfact>
</mgrwt>
</event>
<event>
 4    1  0.1008211E-007  0.8831575E+03  0.7818608E-02  0.9553629E-01
          1   -1    0    0  501    0  0.00000000000E+00  0.00000000000E+00  0.17043335073E+04  0.17043335073E+04  0.50400000000E-02 0. -1.
         -1   -1    0    0    0  501 -0.00000000000E+00 -0.00000000000E+00 -0.82342716597E+03  0.82342716599E+03  0.50400000000E-02 0.  1.
    8880023    1    1    2    0    0  0.55993724708E+03  0.18063034328E+03 -0.50290700317E+03  0.10163083694E+04  0.65864270000E+03 0.  0.
    8880022    1    1    2    0    0 -0.55993724708E+03 -0.18063034328E+03  0.13838133445E+04  0.15114523039E+04  0.15294330000E+03 0. -1.
<mgrwt>
<rscale>  0 0.80442877E+03</rscale>
<asrwt>0</asrwt>
<pdfrwt beam="1">  1        1 0.26220515E+00 0.88315754E+03</pdfrwt>
<pdfrwt beam="2">  1       -1 0.12668110E+00 0.88315754E+03</pdfrwt>
<totfact> 0.26253744E+00</totfact>
</mgrwt>
</event>
<event>
 4    1  0.1008211E-007  0.6951096E+03  0.7818608E-02  0.1001813E+00
         -1   -1    0    0    0  501 -0.00000000000E+00  0.00000000000E+00  0.21628491838E+03  0.21628491844E+03  0.50400000000E-02 0.  1.
          1   -1    0    0  501    0  0.00000000000E+00 -0.00000000000E+00 -0.16724631506E+04  0.16724631506E+04  0.50400000000E-02 0. -1.
    8880023    1    1    2    0    0  0.17261552887E+03 -0.13989636390E+03 -0.40710170940E+03  0.80554895661E+03  0.65864270000E+03 0.  1.
    8880022    1    1    2    0    0 -0.17261552887E+03  0.13989636390E+03 -0.10490765228E+04  0.10831991124E+04  0.15294330000E+03 0.  0.
<mgrwt>
<rscale>  0 0.54862503E+03</rscale>
<asrwt>0</asrwt>
<pdfrwt beam="1">  1        1 0.25730202E+00 0.69510957E+03</pdfrwt>
<pdfrwt beam="2">  1       -1 0.33274604E-01 0.69510957E+03</pdfrwt>
<totfact> 0.43863349E+01</totfact>
</mgrwt>
</event>
<event>
 4    1  0.1008211E-007  0.9340248E+03  0.7818608E-02  0.9473481E-01
          1   -1    0    0  501    0  0.00000000000E+00  0.00000000000E+00  0.28380615436E+04  0.28380615436E+04  0.50400000000E-02 0. -1.
         -1   -1    0    0    0  501 -0.00000000000E+00 -0.00000000000E+00 -0.43253118259E+03  0.43253118262E+03  0.50400000000E-02 0.  1.
    8880023    1    1    2    0    0  0.14074182000E+03 -0.64713509066E+03  0.19001016413E+03  0.95315589186E+03  0.65864270000E+03 0.  1.
    8880022    1    1    2    0    0 -0.14074182000E+03  0.64713509066E+03  0.22155201969E+04  0.23174368344E+04  0.15294330000E+03 0.  0.
<mgrwt>
<rscale>  0 0.86267485E+03</rscale>
<asrwt>0</asrwt>
<pdfrwt beam="1">  1        1 0.43662484E+00 0.93402478E+03</pdfrwt>
<pdfrwt beam="2">  1       -1 0.66543260E-01 0.93402478E+03</pdfrwt>
<totfact> 0.18552328E+00</totfact>
</mgrwt>
</event>
<event>
 4    1  0.1008211E-007  0.8194442E+03  0.7818608E-02  0.9670231E-01
         -1   -1    0    0    0  501 -0.00000000000E+00  0.00000000000E+00  0.59722520440E+03  0.59722520442E+03  0.50400000000E-02 0.  1.
          1   -1    0    0  501    0  0.00000000000E+00 -0.00000000000E+00 -0.91800937647E+03  0.91800937649E+03  0.50400000000E-02 0. -1.
    8880023    1    1    2    0    0 -0.81672394978E+02 -0.48063320799E+03  0.13505768270E+03  0.83049951514E+03  0.65864270000E+03 0.  0.
    8880022    1    1    2    0    0  0.81672394978E+02  0.48063320799E+03 -0.45584185477E+03  0.68473506577E+03  0.15294330000E+03 0.  0.
<mgrwt>
<rscale>  0 0.72817245E+03</rscale>
<asrwt>0</asrwt>
<pdfrwt beam="1">  1        1 0.14123221E+00 0.81944424E+03</pdfrwt>
<pdfrwt beam="2">  1       -1 0.91880801E-01 0.81944424E+03</pdfrwt>
<totfact> 0.20705981E+01</totfact>
</mgrwt>
</event>
<event>
 4    1  0.1008211E-007  0.1017491E+04  0.7818608E-02  0.9359023E-01
          1   -1    0    0  501    0  0.00000000000E+00  0.00000000000E+00  0.10520013534E+04  0.10520013535E+04  0.50400000000E-02 0. -1.
         -1   -1    0    0    0  501 -0.00000000000E+00 -0.00000000000E+00 -0.12896164431E+04  0.12896164431E+04  0.50400000000E-02 0.  1.
    8880023    1    1    2    0    0  0.66190169644E+03 -0.40418407168E+03 -0.86258415257E+03  0.13339191303E+04  0.65864270000E+03 0.  0.
    8880022    1    1    2    0    0 -0.66190169644E+03  0.40418407168E+03  0.62496906289E+03  0.10076986663E+04  0.15294330000E+03 0.  0.
<mgrwt>
<rscale>  0 0.95526047E+03</rscale>
<asrwt>0</asrwt>
<pdfrwt beam="1">  1        1 0.16184636E+00 0.10174914E+04</pdfrwt>
<pdfrwt beam="2">  1       -1 0.19840253E+00 0.10174914E+04</pdfrwt>
<totfact> 0.21333772E+00</totfact>
</mgrwt>
</event>
<event>
 4    1  0.1008211E-007  0.8280130E+03  0.7818608E-02  0.9653211E-01
         -1   -1    0    0    0  501 -0.00000000000E+00  0.00000000000E+00  0.42326169989E+03  0.42326169992E+03  0.50400000000E-02 0.  1.
          1   -1    0    0  501    0  0.00000000000E+00 -0.00000000000E+00 -0.21526978565E+04  0.21526978565E+04  0.50400000000E-02 0. -1.
    8880023    1    1    2    0    0 -0.40694930198E+03 -0.29357711134E+03 -0.64710841389E+02  0.83053774986E+03  0.65864270000E+03 0.  1.
    8880022    1    1    2    0    0  0.40694930198E+03  0.29357711134E+03 -0.16647253152E+04  0.17454218065E+04  0.15294330000E+03 0.  0.
<mgrwt>
<rscale>  0 0.73872249E+03</rscale>
<asrwt>0</asrwt>
<pdfrwt beam="1">  1        1 0.33118428E+00 0.82801296E+03</pdfrwt>
<pdfrwt beam="2">  1       -1 0.65117186E-01 0.82801296E+03</pdfrwt>
<totfact> 0.58248495E+00</totfact>
</mgrwt>
</event>
<event>
 4    1  0.1008211E-007  0.1083986E+04  0.7818608E-02  0.9279098E-01
          1   -1    0    0  501    0  0.00000000000E+00  0.00000000000E+00  0.16678216746E+04  0.16678216746E+04  0.50400000000E-02 0. -1.
         -1   -1    0    0    0  501 -0.00000000000E+00 -0.00000000000E+00 -0.96600130736E+03  0.96600130737E+03  0.50400000000E-02 0.  1.
    8880023    1    1    2    0    0 -0.33344920229E+03 -0.79374283166E+03 -0.46181651444E+03  0.11782617505E+04  0.65864270000E+03 0.  1.
    8880022    1    1    2    0    0  0.33344920229E+03  0.79374283166E+03  0.11636368817E+04  0.14555612315E+04  0.15294330000E+03 0.  0.
<mgrwt>
<rscale>  0 0.10273009E+04</rscale>
<asrwt>0</asrwt>
<pdfrwt beam="1">  1        1 0.25658795E+00 0.10839863E+04</pdfrwt>
<pdfrwt beam="2">  1       -1 0.14861559E+00 0.10839863E+04</pdfrwt>
<totfact> 0.17856388E+00</totfact>
</mgrwt>
</event>
<event>
 4    1  0.1008211E-007  0.7339526E+03  0.7818608E-02  0.9877926E-01
         -1   -1    0    0    0  501 -0.00000000000E+00  0.00000000000E+00  0.45717122318E+03  0.45717122321E+03  0.50400000000E-02 0.  1.
          1   -1    0    0  501    0  0.00000000000E+00 -0.00000000000E+00 -0.25449068322E+04  0.25449068322E+04  0.50400000000E-02 0. -1.
    8880023    1    1    2    0    0 -0.28302730595E+03  0.15739054061E+03  0.13876612294E+03  0.74695547479E+03  0.65864270000E+03 0.  1.
    8880022    1    1    2    0    0  0.28302730595E+03 -0.15739054061E+03 -0.22265017319E+04  0.22551225806E+04  0.15294330000E+03 0.  0.
<mgrwt>
<rscale>  0 0.61343106E+03</rscale>
<asrwt>0</asrwt>
<pdfrwt beam="1">  1        1 0.39152412E+00 0.73395262E+03</pdfrwt>
<pdfrwt beam="2">  1       -1 0.70334036E-01 0.73395262E+03</pdfrwt>
<totfact> 0.27474059E+00</totfact>
</mgrwt>
</event>
<event>
 4    1  0.1008211E-007  0.9532251E+03  0.7818608E-02  0.9445489E-01
          1   -1    0    0  501    0  0.00000000000E+00  0.00000000000E+00  0.11783542402E+04  0.11783542402E+04  0.50400000000E-02 0. -1.
         -1   -1    0    0    0  501 -0.00000000000E+00 -0.00000000000E+00 -0.98413672777E+03  0.98413672779E+03  0.50400000000E-02 0.  1.
    8880023    1    1    2    0    0  0.54849780526E+03 -0.41710670142E+03  0.79060584207E+03  0.12384246632E+04  0.65864270000E+03 0.  0.
    8880022    1    1    2    0    0 -0.54849780526E+03  0.41710670142E+03 -0.59638832967E+03  0.92406630473E+03  0.15294330000E+03 0.  0.
<mgrwt>
<rscale>  0 0.88424820E+03</rscale>
<asrwt>0</asrwt>
<pdfrwt beam="1">  1        1 0.18128527E+00 0.95322508E+03</pdfrwt>
<pdfrwt beam="2">  1       -1 0.15140565E+00 0.95322508E+03</pdfrwt>
<totfact> 0.38057088E+00</totfact>
</mgrwt>
</event>
<event>
 4    1  0.1008211E-007  0.7672504E+03  0.7818608E-02  0.9786686E-01
          1   -1    0    0  501    0  0.00000000000E+00  0.00000000000E+00  0.22116799657E+04  0.22116799657E+04  0.50400000000E-02 0. -1.
         -1   -1    0    0    0  501 -0.00000000000E+00 -0.00000000000E+00 -0.29705876966E+03  0.29705876970E+03  0.50400000000E-02 0.  1.
    8880023    1    1    2    0    0  0.17319872156E+03 -0.35336257075E+03  0.27407111593E+03  0.81473191076E+03  0.65864270000E+03 0.  1.
    8880022    1    1    2    0    0 -0.17319872156E+03  0.35336257075E+03  0.16405500801E+04  0.16940068246E+04  0.15294330000E+03 0.  0.
<mgrwt>
<rscale>  0 0.66081958E+03</rscale>
<asrwt>0</asrwt>
<pdfrwt beam="1">  1        1 0.34025846E+00 0.76725036E+03</pdfrwt>
<pdfrwt beam="2">  1       -1 0.45701349E-01 0.76725036E+03</pdfrwt>
<totfact> 0.10642412E+01</totfact>
</mgrwt>
</event>
<event>
 4    1  0.1008211E-007  0.6814552E+03  0.7818608E-02  0.1008512E+00
          1   -1    0    0  501    0  0.00000000000E+00  0.00000000000E+00  0.61685564875E+03  0.61685564877E+03  0.50400000000E-02 0. -1.
         -1   -1    0    0    0  501 -0.00000000000E+00 -0.00000000000E+00 -0.13564804749E+04  0.13564804749E+04  0.50400000000E-02 0.  1.
    8880023    1    1    2    0    0 -0.89508137807E+02 -0.15019748085E+03 -0.12437851717E+04  0.14182322622E+04  0.65864270000E+03 0.  1.
    8880022    1    1    2    0    0  0.89508137807E+02  0.15019748085E+03  0.50416034554E+03  0.55510386147E+03  0.15294330000E+03 0.  0.
<mgrwt>
<rscale>  0 0.52070247E+03</rscale>
<asrwt>0</asrwt>
<pdfrwt beam="1">  1        1 0.94900869E-01 0.68145520E+03</pdfrwt>
<pdfrwt beam="2">  1       -1 0.20868930E+00 0.68145520E+03</pdfrwt>
<totfact> 0.45263949E+00</totfact>
</mgrwt>
</event>
<event>
 4    1  0.1008211E-007  0.8023262E+03  0.7818608E-02  0.9705789E-01
          1   -1    0    0  501    0  0.00000000000E+00  0.00000000000E+00  0.20417219739E+04  0.20417219739E+04  0.50400000000E-02 0. -1.
         -1   -1    0    0    0  501 -0.00000000000E+00 -0.00000000000E+00 -0.31577284764E+03  0.31577284768E+03  0.50400000000E-02 0.  1.
    8880023    1    1    2    0    0  0.20497687457E+03  0.40975795928E+03  0.30779598096E+03  0.85934025651E+03  0.65864270000E+03 0.  1.
    8880022    1    1    2    0    0 -0.20497687457E+03 -0.40975795928E+03  0.14181531453E+04  0.14981545651E+04  0.15294330000E+03 0.  0.
<mgrwt>
<rscale>  0 0.70673176E+03</rscale>
<asrwt>0</asrwt>
<pdfrwt beam="1">  1        1 0.31411107E+00 0.80232619E+03</pdfrwt>
<pdfrwt beam="2">  1       -1 0.48580438E-01 0.80232619E+03</pdfrwt>
<totfact> 0.12275430E+01</totfact>
</mgrwt>
</event>
<event>
 4    1  0.1008211E-007  0.8884069E+03  0.7818608E-02  0.9544905E-01
         -1   -1    0    0    0  501 -0.00000000000E+00  0.00000000000E+00  0.53793801859E+03  0.53793801861E+03  0.50400000000E-02 0.  1.
          1   -1    0    0  501    0  0.00000000000E+00 -0.00000000000E+00 -0.24574779054E+04  0.24574779054E+04  0.50400000000E-02 0. -1.
    8880023    1    1    2    0    0  0.58391711884E+03  0.12040509307E+03  0.90730536636E+02  0.89302789691E+03  0.65864270000E+03 0.  1.
    8880022    1    1    2    0    0 -0.58391711884E+03 -0.12040509307E+03 -0.20102704234E+04  0.21023880271E+04  0.15294330000E+03 0.  0.
<mgrwt>
<rscale>  0 0.81052627E+03</rscale>
<asrwt>0</asrwt>
<pdfrwt beam="1">  1        1 0.37807352E+00 0.88840689E+03</pdfrwt>
<pdfrwt beam="2">  1       -1 0.82759697E-01 0.88840689E+03</pdfrwt>
<totfact> 0.21788876E+00</totfact>
</mgrwt>
</event>
<event>
 4    1  0.1008211E-007  0.1504707E+04  0.7818608E-02  0.8906319E-01
          1   -1    0    0  501    0  0.00000000000E+00  0.00000000000E+00  0.30537387885E+04  0.30537387885E+04  0.50400000000E-02 0. -1.
         -1   -1    0    0    0  501 -0.00000000000E+00 -0.00000000000E+00 -0.81076759420E+03  0.81076759421E+03  0.50400000000E-02 0.  1.
    8880023    1    1    2    0    0  0.13394398899E+04  0.19035042951E+03  0.37099650819E+03  0.15497680858E+04  0.65864270000E+03 0.  1.
    8880022    1    1    2    0    0 -0.13394398899E+04 -0.19035042951E+03  0.18719746862E+04  0.23147382969E+04  0.15294330000E+03 0.  0.
<mgrwt>
<rscale>  0 0.14675556E+04</rscale>
<asrwt>0</asrwt>
<pdfrwt beam="1">  1        1 0.46980598E+00 0.15047069E+04</pdfrwt>
<pdfrwt beam="2">  1       -1 0.12473347E+00 0.15047069E+04</pdfrwt>
<totfact> 0.29332492E-01</totfact>
</mgrwt>
</event>
<event>
 4    1  0.1008211E-007  0.8014437E+03  0.7818608E-02  0.9707683E-01
         -1   -1    0    0    0  501 -0.00000000000E+00  0.00000000000E+00  0.77808062973E+03  0.77808062975E+03  0.50400000000E-02 0.  1.
          1   -1    0    0  501    0  0.00000000000E+00 -0.00000000000E+00 -0.79799626060E+03  0.79799626062E+03  0.50400000000E-02 0. -1.
    8880023    1    1    2    0    0 -0.35925695967E+03  0.28184444732E+03  0.43649276971E+03  0.91259958352E+03  0.65864270000E+03 0.  0.
    8880022    1    1    2    0    0  0.35925695967E+03 -0.28184444732E+03 -0.45640840059E+03  0.66347730685E+03  0.15294330000E+03 0.  0.
<mgrwt>
<rscale>  0 0.70561183E+03</rscale>
<asrwt>0</asrwt>
<pdfrwt beam="1">  1        1 0.12276866E+00 0.80144374E+03</pdfrwt>
<pdfrwt beam="2">  1       -1 0.11970471E+00 0.80144374E+03</pdfrwt>
<totfact> 0.14143033E+01</totfact>
</mgrwt>
</event>
<event>
 4    1  0.1008211E-007  0.1239224E+04  0.7818608E-02  0.9119906E-01
          1   -1    0    0  501    0  0.00000000000E+00  0.00000000000E+00  0.27445501473E+04  0.27445501473E+04  0.50400000000E-02 0. -1.
         -1   -1    0    0    0  501 -0.00000000000E+00 -0.00000000000E+00 -0.10002722995E+04  0.10002722995E+04  0.50400000000E-02 0.  1.
    8880023    1    1    2    0    0  0.25891660346E+03  0.10172650388E+04 -0.44126967737E+03  0.13154448302E+04  0.65864270000E+03 0.  1.
    8880022    1    1    2    0    0 -0.25891660346E+03 -0.10172650388E+04  0.21855475252E+04  0.24293776167E+04  0.15294330000E+03 0.  0.
<mgrwt>
<rscale>  0 0.11919797E+04</rscale>
<asrwt>0</asrwt>
<pdfrwt beam="1">  1        1 0.42223847E+00 0.12392240E+04</pdfrwt>
<pdfrwt beam="2">  1       -1 0.15388805E+00 0.12392240E+04</pdfrwt>
<totfact> 0.29214730E-01</totfact>
</mgrwt>
</event>
<event>
 4    1  0.1008211E-007  0.1009042E+04  0.7818608E-02  0.9369823E-01
         -1   -1    0    0    0  501 -0.00000000000E+00  0.00000000000E+00  0.14095545234E+04  0.14095545234E+04  0.50400000000E-02 0.  1.
          1   -1    0    0  501    0  0.00000000000E+00 -0.00000000000E+00 -0.14399228595E+04  0.14399228595E+04  0.50400000000E-02 0. -1.
    8880023    1    1    2    0    0  0.46553972792E+03  0.60632342855E+03  0.10894980338E+04  0.14849819898E+04  0.65864270000E+03 0.  1.
    8880022    1    1    2    0    0 -0.46553972792E+03 -0.60632342855E+03 -0.11198663699E+04  0.13644953930E+04  0.15294330000E+03 0.  0.
<mgrwt>
<rscale>  0 0.94601332E+03</rscale>
<asrwt>0</asrwt>
<pdfrwt beam="1">  1        1 0.22152659E+00 0.10090419E+04</pdfrwt>
<pdfrwt beam="2">  1       -1 0.21685454E+00 0.10090419E+04</pdfrwt>
<totfact> 0.83758049E-01</totfact>
</mgrwt>
</event>
<event>
 4    1  0.1008211E-007  0.7497871E+03  0.7818608E-02  0.9832303E-01
         -1   -1    0    0    0  501 -0.00000000000E+00  0.00000000000E+00  0.14462538216E+04  0.14462538216E+04  0.50400000000E-02 0.  1.
          1   -1    0    0  501    0  0.00000000000E+00 -0.00000000000E+00 -0.24688658379E+03  0.24688658384E+03  0.50400000000E-02 0. -1.
    8880023    1    1    2    0    0  0.26257941517E+03 -0.24376751792E+03  0.10156454837E+04  0.12624248520E+04  0.65864270000E+03 0.  1.
    8880022    1    1    2    0    0 -0.26257941517E+03  0.24376751792E+03  0.18372175414E+03  0.43071555350E+03  0.15294330000E+03 0.  0.
<mgrwt>
<rscale>  0 0.63657407E+03</rscale>
<asrwt>0</asrwt>
<pdfrwt beam="1">  1        1 0.37982551E-01 0.74978714E+03</pdfrwt>
<pdfrwt beam="2">  1       -1 0.22250059E+00 0.74978714E+03</pdfrwt>
<totfact> 0.12340614E+01</totfact>
</mgrwt>
</event>
<event>
 4    1  0.1008211E-007  0.7178368E+03  0.7818608E-02  0.9929975E-01
          1   -1    0    0  501    0  0.00000000000E+00  0.00000000000E+00  0.10842461305E+04  0.10842461305E+04  0.50400000000E-02 0. -1.
         -1   -1    0    0    0  501 -0.00000000000E+00 -0.00000000000E+00 -0.37507310699E+03  0.37507310703E+03  0.50400000000E-02 0.  1.
    8880023    1    1    2    0    0  0.15297741989E+03 -0.24099247381E+03  0.43618028046E+02  0.71916076232E+03  0.65864270000E+03 0.  1.
    8880022    1    1    2    0    0 -0.15297741989E+03  0.24099247381E+03  0.66555499545E+03  0.74015847520E+03  0.15294330000E+03 0.  0.
<mgrwt>
<rscale>  0 0.58830329E+03</rscale>
<asrwt>0</asrwt>
<pdfrwt beam="1">  1        1 0.16680709E+00 0.71783680E+03</pdfrwt>
<pdfrwt beam="2">  1       -1 0.57703556E-01 0.71783680E+03</pdfrwt>
<totfact> 0.40812656E+01</totfact>
</mgrwt>
</event>
<event>
 4    1  0.1008211E-007  0.1035095E+04  0.7818608E-02  0.9337018E-01
         -1   -1    0    0    0  501 -0.00000000000E+00  0.00000000000E+00  0.52814798510E+03  0.52814798512E+03  0.50400000000E-02 0.  1.
          1   -1    0    0  501    0  0.00000000000E+00 -0.00000000000E+00 -0.33657566091E+04  0.33657566091E+04  0.50400000000E-02 0. -1.
    8880023    1    1    2    0    0 -0.72974152077E+03 -0.32417355243E+03 -0.10208234021E+03  0.10401164308E+04  0.65864270000E+03 0.  0.
    8880022    1    1    2    0    0  0.72974152077E+03  0.32417355243E+03 -0.27355262838E+04  0.28537881634E+04  0.15294330000E+03 0.  0.
<mgrwt>
<rscale>  0 0.97445218E+03</rscale>
<asrwt>0</asrwt>
<pdfrwt beam="1">  1        1 0.51780870E+00 0.10350949E+04</pdfrwt>
<pdfrwt beam="2">  1       -1 0.81253538E-01 0.10350949E+04</pdfrwt>
<totfact> 0.49424094E-01</totfact>
</mgrwt>
</event>
<event>
 4    1  0.1008211E-007  0.9410154E+03  0.7818608E-02  0.9463161E-01
         -1   -1    0    0    0  501 -0.00000000000E+00  0.00000000000E+00  0.14967275710E+04  0.14967275710E+04  0.50400000000E-02 0.  1.
          1   -1    0    0  501    0  0.00000000000E+00 -0.00000000000E+00 -0.10011995111E+04  0.10011995111E+04  0.50400000000E-02 0. -1.
    8880023    1    1    2    0    0 -0.38772601953E+03  0.54897024017E+03  0.11915801483E+04  0.15183455624E+04  0.65864270000E+03 0.  0.
    8880022    1    1    2    0    0  0.38772601953E+03 -0.54897024017E+03 -0.69605208842E+03  0.97958151964E+03  0.15294330000E+03 0.  0.
<mgrwt>
<rscale>  0 0.87055197E+03</rscale>
<asrwt>0</asrwt>
<pdfrwt beam="1">  1        1 0.15403070E+00 0.94101541E+03</pdfrwt>
<pdfrwt beam="2">  1       -1 0.23026578E+00 0.94101541E+03</pdfrwt>
<totfact> 0.14406217E+00</totfact>
</mgrwt>
</event>
<event>
 4    1  0.1008211E-007  0.1313363E+04  0.7818608E-02  0.9054105E-01
          1   -1    0    0  501    0  0.00000000000E+00  0.00000000000E+00  0.80210696650E+03  0.80210696651E+03  0.50400000000E-02 0. -1.
         -1   -1    0    0    0  501 -0.00000000000E+00 -0.00000000000E+00 -0.25406188884E+04  0.25406188884E+04  0.50400000000E-02 0.  1.
    8880023    1    1    2    0    0 -0.91597204266E+03  0.67238912091E+03 -0.17599784529E+04  0.21960068929E+04  0.65864270000E+03 0.  1.
    8880022    1    1    2    0    0  0.91597204266E+03 -0.67238912091E+03  0.21466530981E+02  0.11467189620E+04  0.15294330000E+03 0.  0.
<mgrwt>
<rscale>  0 0.12695031E+04</rscale>
<asrwt>0</asrwt>
<pdfrwt beam="1">  1        1 0.12340107E+00 0.13133629E+04</pdfrwt>
<pdfrwt beam="2">  1       -1 0.39086444E+00 0.13133629E+04</pdfrwt>
<totfact> 0.17782623E-01</totfact>
</mgrwt>
</event>
<event>
 4    1  0.1008211E-007  0.7742091E+03  0.7818608E-02  0.9769620E-01
          1   -1    0    0  501    0  0.00000000000E+00  0.00000000000E+00  0.14665873289E+04  0.14665873289E+04  0.50400000000E-02 0. -1.
         -1   -1    0    0    0  501 -0.00000000000E+00 -0.00000000000E+00 -0.38810103223E+03  0.38810103227E+03  0.50400000000E-02 0.  1.
    8880023    1    1    2    0    0 -0.19724115513E+03 -0.35592899992E+03  0.95766393430E+02  0.78010956579E+03  0.65864270000E+03 0.  1.
    8880022    1    1    2    0    0  0.19724115513E+03  0.35592899992E+03  0.98271990322E+03  0.10745787954E+04  0.15294330000E+03 0.  0.
<mgrwt>
<rscale>  0 0.67018704E+03</rscale>
<asrwt>0</asrwt>
<pdfrwt beam="1">  1        1 0.22562881E+00 0.77420910E+03</pdfrwt>
<pdfrwt beam="2">  1       -1 0.59707852E-01 0.77420910E+03</pdfrwt>
<totfact> 0.20232342E+01</totfact>
</mgrwt>
</event>
<event>
 4    1  0.1008211E-007  0.1450158E+04  0.7818608E-02  0.8945657E-01
          1   -1    0    0  501    0  0.00000000000E+00  0.00000000000E+00  0.21444987511E+04  0.21444987511E+04  0.50400000000E-02 0. -1.
         -1   -1    0    0    0  501 -0.00000000000E+00 -0.00000000000E+00 -0.12975285012E+04  0.12975285012E+04  0.50400000000E-02 0.  1.
    8880023    1    1    2    0    0 -0.44575623550E+02  0.12911864342E+04 -0.53344830882E+03  0.15451623535E+04  0.65864270000E+03 0.  0.
    8880022    1    1    2    0    0  0.44575623550E+02 -0.12911864342E+04  0.13804185587E+04  0.18968648988E+04  0.15294330000E+03 0.  0.
<mgrwt>
<rscale>  0 0.14113314E+04</rscale>
<asrwt>0</asrwt>
<pdfrwt beam="1">  1        1 0.32992288E+00 0.14501585E+04</pdfrwt>
<pdfrwt beam="2">  1       -1 0.19961977E+00 0.14501585E+04</pdfrwt>
<totfact> 0.34220101E-01</totfact>
</mgrwt>
</event>
<event>
 4    1  0.1008211E-007  0.1137361E+04  0.7818608E-02  0.9220557E-01
          1   -1    0    0  501    0  0.00000000000E+00  0.00000000000E+00  0.85018488390E+03  0.85018488391E+03  0.50400000000E-02 0. -1.
         -1   -1    0    0    0  501 -0.00000000000E+00 -0.00000000000E+00 -0.21825252442E+04  0.21825252442E+04  0.50400000000E-02 0.  1.
    8880023    1    1    2    0    0  0.74548707550E+02  0.92424129892E+03 -0.16816181782E+04  0.20301303879E+04  0.65864270000E+03 0.  0.
    8880022    1    1    2    0    0 -0.74548707550E+02 -0.92424129892E+03  0.34927781787E+03  0.10025797402E+04  0.15294330000E+03 0.  0.
<mgrwt>
<rscale>  0 0.10843745E+04</rscale>
<asrwt>0</asrwt>
<pdfrwt beam="1">  1        1 0.13079768E+00 0.11373608E+04</pdfrwt>
<pdfrwt beam="2">  1       -1 0.33577311E+00 0.11373608E+04</pdfrwt>
<totfact> 0.38535443E-01</totfact>
</mgrwt>
</event>
<event>
 4    1  0.1049779E-007  0.1041359E+04  0.7818608E-02  0.9329342E-01
          1   -1    0    0  501    0  0.00000000000E+00  0.00000000000E+00  0.22180374586E+04  0.22180374586E+04  0.50400000000E-02 0. -1.
         -1   -1    0    0    0  501 -0.00000000000E+00 -0.00000000000E+00 -0.16219101788E+04  0.16219101788E+04  0.50400000000E-02 0.  1.
    8880023    1    1    2    0    0  0.26768837919E+03  0.76089491715E+03 -0.13632753045E+04  0.17155022313E+04  0.65864270000E+03 0.  0.
    8880022    1    1    2    0    0 -0.26768837919E+03 -0.76089491715E+03  0.19594025843E+04  0.21244454062E+04  0.15294330000E+03 0.  0.
<mgrwt>
<rscale>  0 0.98125888E+03</rscale>
<asrwt>0</asrwt>
<pdfrwt beam="1">  1        1 0.34123653E+00 0.10413589E+04</pdfrwt>
<pdfrwt beam="2">  1       -1 0.24952464E+00 0.10413589E+04</pdfrwt>
<totfact> 0.15043099E-01</totfact>
</mgrwt>
</event>
<event>
 4    1  0.1008211E-007  0.8271384E+03  0.7818608E-02  0.9654926E-01
          1   -1    0    0  501    0  0.00000000000E+00  0.00000000000E+00  0.96702611683E+03  0.96702611685E+03  0.50400000000E-02 0. -1.
         -1   -1    0    0    0  501 -0.00000000000E+00 -0.00000000000E+00 -0.94118627450E+03  0.94118627452E+03  0.50400000000E-02 0.  1.
    8880023    1    1    2    0    0  0.27682329734E+02  0.49958117518E+03 -0.65109431157E+03  0.10526545828E+04  0.65864270000E+03 0. -1.
    8880022    1    1    2    0    0 -0.27682329734E+02 -0.49958117518E+03  0.67693415390E+03  0.85555780851E+03  0.15294330000E+03 0.  0.
<mgrwt>
<rscale>  0 0.73765072E+03</rscale>
<asrwt>0</asrwt>
<pdfrwt beam="1">  1        1 0.14877325E+00 0.82713836E+03</pdfrwt>
<pdfrwt beam="2">  1       -1 0.14479789E+00 0.82713836E+03</pdfrwt>
<totfact> 0.63065152E+00</totfact>
</mgrwt>
</event>
<event>
 4    1  0.1008211E-007  0.7499369E+03  0.7818608E-02  0.9831893E-01
          1   -1    0    0  501    0  0.00000000000E+00  0.00000000000E+00  0.70962869164E+03  0.70962869166E+03  0.50400000000E-02 0. -1.
         -1   -1    0    0    0  501 -0.00000000000E+00 -0.00000000000E+00 -0.10127178036E+04  0.10127178036E+04  0.50400000000E-02 0.  1.
    8880023    1    1    2    0    0 -0.27825864113E+03  0.22620180334E+03 -0.79617858453E+03  0.10937575929E+04  0.65864270000E+03 0.  1.
    8880022    1    1    2    0    0  0.27825864113E+03 -0.22620180334E+03  0.49308947260E+03  0.62858890239E+03  0.15294330000E+03 0.  0.
<mgrwt>
<rscale>  0 0.63678711E+03</rscale>
<asrwt>0</asrwt>
<pdfrwt beam="1">  1        1 0.10917365E+00 0.74993689E+03</pdfrwt>
<pdfrwt beam="2">  1       -1 0.15580274E+00 0.74993689E+03</pdfrwt>
<totfact> 0.86607496E+00</totfact>
</mgrwt>
</event>
<event>
 4    1  0.1008211E-007  0.7506595E+03  0.7818608E-02  0.9829918E-01
          1   -1    0    0  501    0  0.00000000000E+00  0.00000000000E+00  0.10212034977E+04  0.10212034977E+04  0.50400000000E-02 0. -1.
         -1   -1    0    0    0  501 -0.00000000000E+00 -0.00000000000E+00 -0.56177342173E+03  0.56177342175E+03  0.50400000000E-02 0.  1.
    8880023    1    1    2    0    0 -0.10684698764E+03 -0.34389409885E+03 -0.23442973898E+03  0.78641397417E+03  0.65864270000E+03 0.  1.
    8880022    1    1    2    0    0  0.10684698764E+03  0.34389409885E+03  0.69385981492E+03  0.79656294527E+03  0.15294330000E+03 0.  0.
<mgrwt>
<rscale>  0 0.63781374E+03</rscale>
<asrwt>0</asrwt>
<pdfrwt beam="1">  1        1 0.15710823E+00 0.75065947E+03</pdfrwt>
<pdfrwt beam="2">  1       -1 0.86426681E-01 0.75065947E+03</pdfrwt>
<totfact> 0.19795886E+01</totfact>
</mgrwt>
</event>
<event>
 4    1  0.1008211E-007  0.7248944E+03  0.7818608E-02  0.9906360E-01
         -1   -1    0    0    0  501 -0.00000000000E+00  0.00000000000E+00  0.35932188828E+03  0.35932188832E+03  0.50400000000E-02 0.  1.
          1   -1    0    0  501    0  0.00000000000E+00 -0.00000000000E+00 -0.19941559850E+04  0.19941559850E+04  0.50400000000E-02 0. -1.
    8880023    1    1    2    0    0 -0.29516686719E+03  0.67366589508E+02 -0.43285600128E+02  0.72618564177E+03  0.65864270000E+03 0.  1.
    8880022    1    1    2    0    0  0.29516686719E+03 -0.67366589508E+02 -0.15915484966E+04  0.16272922316E+04  0.15294330000E+03 0.  0.
<mgrwt>
<rscale>  0 0.59954047E+03</rscale>
<asrwt>0</asrwt>
<pdfrwt beam="1">  1        1 0.30679322E+00 0.72489444E+03</pdfrwt>
<pdfrwt beam="2">  1       -1 0.55280292E-01 0.72489444E+03</pdfrwt>
<totfact> 0.10443152E+01</totfact>
</mgrwt>
</event>
<event>
 4    1  0.1008211E-007  0.1058557E+04  0.7818608E-02  0.9308664E-01
         -1   -1    0    0    0  501 -0.00000000000E+00  0.00000000000E+00  0.15279268710E+04  0.15279268710E+04  0.50400000000E-02 0.  1.
          1   -1    0    0  501    0  0.00000000000E+00 -0.00000000000E+00 -0.72044986830E+03  0.72044986832E+03  0.50400000000E-02 0. -1.
    8880023    1    1    2    0    0  0.82572818796E+03  0.70046380151E+02  0.91455467895E+03  0.13989117209E+04  0.65864270000E+03 0.  0.
    8880022    1    1    2    0    0 -0.82572818796E+03 -0.70046380151E+02 -0.10707767627E+03  0.84946501843E+03  0.15294330000E+03 0.  0.
<mgrwt>
<rscale>  0 0.99989102E+03</rscale>
<asrwt>0</asrwt>
<pdfrwt beam="1">  1        1 0.11083844E+00 0.10585574E+04</pdfrwt>
<pdfrwt beam="2">  1       -1 0.23506567E+00 0.10585574E+04</pdfrwt>
<totfact> 0.22766562E+00</totfact>
</mgrwt>
</event>
<event>
 4    1  0.1008211E-007  0.1038077E+04  0.7818608E-02  0.9333353E-01
         -1   -1    0    0    0  501 -0.00000000000E+00  0.00000000000E+00  0.25783735163E+04  0.25783735163E+04  0.50400000000E-02 0.  1.
          1   -1    0    0  501    0  0.00000000000E+00 -0.00000000000E+00 -0.10231103449E+04  0.10231103449E+04  0.50400000000E-02 0. -1.
    8880023    1    1    2    0    0 -0.71671864029E+03  0.36070601351E+03  0.22827334747E+04  0.25076835446E+04  0.65864270000E+03 0.  0.
    8880022    1    1    2    0    0  0.71671864029E+03 -0.36070601351E+03 -0.72747030319E+03  0.10938003166E+04  0.15294330000E+03 0.  0.
<mgrwt>
<rscale>  0 0.97769449E+03</rscale>
<asrwt>0</asrwt>
<pdfrwt beam="1">  1        1 0.15740159E+00 0.10380774E+04</pdfrwt>
<pdfrwt beam="2">  1       -1 0.39667284E+00 0.10380774E+04</pdfrwt>
<totfact> 0.11144191E-01</totfact>
</mgrwt>
</event>
<event>
 4    1  0.1008211E-007  0.9344831E+03  0.7818608E-02  0.9472800E-01
         -1   -1    0    0    0  501 -0.00000000000E+00  0.00000000000E+00  0.47591733670E+03  0.47591733673E+03  0.50400000000E-02 0.  1.
          1   -1    0    0  501    0  0.00000000000E+00 -0.00000000000E+00 -0.13909660672E+04  0.13909660672E+04  0.50400000000E-02 0. -1.
    8880023    1    1    2    0    0  0.34275074020E+03  0.56742442325E+03 -0.64223554042E+03  0.11338982501E+04  0.65864270000E+03 0.  1.
    8880022    1    1    2    0    0 -0.34275074020E+03 -0.56742442325E+03 -0.27281319008E+03  0.73298515381E+03  0.15294330000E+03 0.  0.
<mgrwt>
<rscale>  0 0.86319216E+03</rscale>
<asrwt>0</asrwt>
<pdfrwt beam="1">  1        1 0.21399478E+00 0.93448315E+03</pdfrwt>
<pdfrwt beam="2">  1       -1 0.73218052E-01 0.93448315E+03</pdfrwt>
<totfact> 0.14831166E+01</totfact>
</mgrwt>
</event>
<event>
 4    1  0.1008211E-007  0.6606485E+03  0.7818608E-02  0.1023502E+00
          1   -1    0    0  501    0  0.00000000000E+00  0.00000000000E+00  0.23310025592E+03  0.23310025598E+03  0.50400000000E-02 0. -1.
         -1   -1    0    0    0  501 -0.00000000000E+00 -0.00000000000E+00 -0.82679920739E+03  0.82679920741E+03  0.50400000000E-02 0.  1.
    8880023    1    1    2    0    0 -0.42724395081E+02  0.28650819486E+02 -0.60808128654E+03  0.89789715486E+03  0.65864270000E+03 0.  1.
    8880022    1    1    2    0    0  0.42724395081E+02 -0.28650819486E+02  0.14382335072E+02  0.16200230853E+03  0.15294330000E+03 0.  0.
<mgrwt>
<rscale>  0 0.46443889E+03</rscale>
<asrwt>0</asrwt>
<pdfrwt beam="1">  1        1 0.35861578E-01 0.66064851E+03</pdfrwt>
<pdfrwt beam="2">  1       -1 0.12719988E+00 0.66064851E+03</pdfrwt>
<totfact> 0.66875187E+01</totfact>
</mgrwt>
</event>
<event>
 4    1  0.1008211E-007  0.1093975E+04  0.7818608E-02  0.9267794E-01
         -1   -1    0    0    0  501 -0.00000000000E+00  0.00000000000E+00  0.95236320976E+03  0.95236320977E+03  0.50400000000E-02 0.  1.
          1   -1    0    0  501    0  0.00000000000E+00 -0.00000000000E+00 -0.12037126485E+04  0.12037126485E+04  0.50400000000E-02 0. -1.
    8880023    1    1    2    0    0  0.20586245585E+03 -0.84887652012E+03  0.27080575054E+03  0.11269945244E+04  0.65864270000E+03 0.  0.
    8880022    1    1    2    0    0 -0.20586245585E+03  0.84887652012E+03 -0.52215518929E+03  0.10290813339E+04  0.15294330000E+03 0.  0.
<mgrwt>
<rscale>  0 0.10380262E+04</rscale>
<asrwt>0</asrwt>
<pdfrwt beam="1">  1        1 0.18518656E+00 0.10939748E+04</pdfrwt>
<pdfrwt beam="2">  1       -1 0.14651742E+00 0.10939748E+04</pdfrwt>
<totfact> 0.39167127E+00</totfact>
</mgrwt>
</event>
<event>
 4    1  0.1008211E-007  0.6788237E+03  0.7818608E-02  0.1009997E+00
          1   -1    0    0  501    0  0.00000000000E+00  0.00000000000E+00  0.12634293145E+04  0.12634293145E+04  0.50400000000E-02 0. -1.
         -1   -1    0    0    0  501 -0.00000000000E+00 -0.00000000000E+00 -0.48005953567E+03  0.48005953569E+03  0.50400000000E-02 0.  1.
    8880023    1    1    2    0    0 -0.15553800148E+03  0.52908256910E+02 -0.22135017337E+03  0.71400102176E+03  0.65864270000E+03 0.  1.
    8880022    1    1    2    0    0  0.15553800148E+03 -0.52908256910E+02  0.10047199522E+04  0.10294878284E+04  0.15294330000E+03 0.  0.
<mgrwt>
<rscale>  0 0.51475816E+03</rscale>
<asrwt>0</asrwt>
<pdfrwt beam="1">  1        1 0.19437374E+00 0.67882366E+03</pdfrwt>
<pdfrwt beam="2">  1       -1 0.73855314E-01 0.67882366E+03</pdfrwt>
<totfact> 0.18494225E+01</totfact>
</mgrwt>
</event>
<event>
 4    1  0.1008211E-007  0.2404601E+04  0.7818608E-02  0.8446057E-01
         -1   -1    0    0    0  501 -0.00000000000E+00  0.00000000000E+00  0.20548962207E+04  0.20548962207E+04  0.50400000000E-02 0.  1.
          1   -1    0    0  501    0  0.00000000000E+00 -0.00000000000E+00 -0.29104183239E+04  0.29104183240E+04  0.50400000000E-02 0. -1.
    8880023    1    1    2    0    0  0.22115498640E+04  0.67627258880E+03  0.21133278785E+03  0.24138701640E+04  0.65864270000E+03 0.  0.
    8880022    1    1    2    0    0 -0.22115498640E+04 -0.67627258880E+03 -0.10668548911E+04  0.25514443806E+04  0.15294330000E+03 0.  0.
<mgrwt>
<rscale>  0 0.23825728E+04</rscale>
<asrwt>0</asrwt>
<pdfrwt beam="1">  1        1 0.44775667E+00 0.24046013E+04</pdfrwt>
<pdfrwt beam="2">  1       -1 0.31613788E+00 0.24046013E+04</pdfrwt>
<totfact> 0.15294327E-02</totfact>
</mgrwt>
</event>
<event>
 4    1  0.1008211E-007  0.8891345E+03  0.7818608E-02  0.9543704E-01
         -1   -1    0    0    0  501 -0.00000000000E+00  0.00000000000E+00  0.14343225411E+04  0.14343225411E+04  0.50400000000E-02 0.  1.
          1   -1    0    0  501    0  0.00000000000E+00 -0.00000000000E+00 -0.12227670413E+04  0.12227670413E+04  0.50400000000E-02 0. -1.
    8880023    1    1    2    0    0 -0.49678065138E+01 -0.59726482785E+03  0.11991582900E+04  0.14928297842E+04  0.65864270000E+03 0.  0.
    8880022    1    1    2    0    0  0.49678065138E+01  0.59726482785E+03 -0.98760279017E+03  0.11642597983E+04  0.15294330000E+03 0.  0.
<mgrwt>
<rscale>  0 0.81136968E+03</rscale>
<asrwt>0</asrwt>
<pdfrwt beam="1">  1        1 0.18811801E+00 0.88913450E+03</pdfrwt>
<pdfrwt beam="2">  1       -1 0.22066501E+00 0.88913450E+03</pdfrwt>
<totfact> 0.11471974E+00</totfact>
</mgrwt>
</event>
<event>
 4    1  0.1008211E-007  0.7124568E+03  0.7818608E-02  0.9948989E-01
          1   -1    0    0  501    0  0.00000000000E+00  0.00000000000E+00  0.53267557572E+03  0.53267557574E+03  0.50400000000E-02 0. -1.
         -1   -1    0    0    0  501 -0.00000000000E+00 -0.00000000000E+00 -0.76906558425E+03  0.76906558427E+03  0.50400000000E-02 0.  1.
    8880023    1    1    2    0    0  0.26142603425E+03 -0.73762145281E+02 -0.51862204262E+03  0.88122837835E+03  0.65864270000E+03 0.  0.
    8880022    1    1    2    0    0 -0.26142603425E+03  0.73762145281E+02  0.28223203408E+03  0.42051278166E+03  0.15294330000E+03 0.  0.
<mgrwt>
<rscale>  0 0.57944711E+03</rscale>
<asrwt>0</asrwt>
<pdfrwt beam="1">  1        1 0.81950089E-01 0.71245676E+03</pdfrwt>
<pdfrwt beam="2">  1       -1 0.11831778E+00 0.71245676E+03</pdfrwt>
<totfact> 0.26748648E+01</totfact>
</mgrwt>
</event>
<event>
 4    1  0.1008211E-007  0.1123103E+04  0.7818608E-02  0.9235760E-01
         -1   -1    0    0    0  501 -0.00000000000E+00  0.00000000000E+00  0.40992999204E+03  0.40992999207E+03  0.50400000000E-02 0.  1.
          1   -1    0    0  501    0  0.00000000000E+00 -0.00000000000E+00 -0.33109608126E+04  0.33109608126E+04  0.50400000000E-02 0. -1.
    8880023    1    1    2    0    0  0.62335760046E+03 -0.66255188766E+03 -0.67266311476E+03  0.13091354300E+04  0.65864270000E+03 0.  1.
    8880022    1    1    2    0    0 -0.62335760046E+03  0.66255188766E+03 -0.22283677058E+04  0.24117553747E+04  0.15294330000E+03 0.  0.
<mgrwt>
<rscale>  0 0.10691831E+04</rscale>
<asrwt>0</asrwt>
<pdfrwt beam="1">  1        1 0.50937857E+00 0.11231028E+04</pdfrwt>
<pdfrwt beam="2">  1       -1 0.63066155E-01 0.11231028E+04</pdfrwt>
<totfact> 0.90707321E-01</totfact>
</mgrwt>
</event>
<event>
 4    1  0.1008211E-007  0.7230564E+03  0.7818608E-02  0.9912377E-01
          1   -1    0    0  501    0  0.00000000000E+00  0.00000000000E+00  0.25387992609E+04  0.25387992609E+04  0.50400000000E-02 0. -1.
         -1   -1    0    0    0  501 -0.00000000000E+00 -0.00000000000E+00 -0.20216093676E+03  0.20216093683E+03  0.50400000000E-02 0.  1.
    8880023    1    1    2    0    0 -0.42667179698E+02 -0.29526235272E+03  0.51248719891E+03  0.88625824705E+03  0.65864270000E+03 0.  1.
    8880022    1    1    2    0    0  0.42667179698E+02  0.29526235272E+03  0.18241511252E+04  0.18547019506E+04  0.15294330000E+03 0.  0.
<mgrwt>
<rscale>  0 0.59665193E+03</rscale>
<asrwt>0</asrwt>
<pdfrwt beam="1">  1        1 0.39058453E+00 0.72305640E+03</pdfrwt>
<pdfrwt beam="2">  1       -1 0.31101680E-01 0.72305640E+03</pdfrwt>
<totfact> 0.12879659E+01</totfact>
</mgrwt>
</event>
<event>
 4    1  0.1008211E-007  0.9177833E+03  0.7818608E-02  0.9498066E-01
         -1   -1    0    0    0  501 -0.00000000000E+00  0.00000000000E+00  0.76407778369E+03  0.76407778371E+03  0.50400000000E-02 0.  1.
          1   -1    0    0  501    0  0.00000000000E+00 -0.00000000000E+00 -0.16226301410E+04  0.16226301410E+04  0.50400000000E-02 0. -1.
    8880023    1    1    2    0    0 -0.49608329803E+03  0.40301035227E+03  0.37307209852E+03  0.99071135028E+03  0.65864270000E+03 0.  0.
    8880022    1    1    2    0    0  0.49608329803E+03 -0.40301035227E+03 -0.12316244558E+04  0.13959965744E+04  0.15294330000E+03 0.  0.
<mgrwt>
<rscale>  0 0.84426537E+03</rscale>
<asrwt>0</asrwt>
<pdfrwt beam="1">  1        1 0.24963541E+00 0.91778330E+03</pdfrwt>
<pdfrwt beam="2">  1       -1 0.11755043E+00 0.91778330E+03</pdfrwt>
<totfact> 0.35679504E+00</totfact>
</mgrwt>
</event>
<event>
 4    1  0.1008211E-007  0.9098590E+03  0.7818608E-02  0.9510386E-01
          1   -1    0    0  501    0  0.00000000000E+00  0.00000000000E+00  0.75068819912E+03  0.75068819914E+03  0.50400000000E-02 0. -1.
         -1   -1    0    0    0  501 -0.00000000000E+00 -0.00000000000E+00 -0.94279232351E+03  0.94279232352E+03  0.50400000000E-02 0.  1.
    8880023    1    1    2    0    0  0.52858177447E+03 -0.33857724144E+03 -0.42823384204E+03  0.10055981655E+04  0.65864270000E+03 0.  0.
    8880022    1    1    2    0    0 -0.52858177447E+03  0.33857724144E+03  0.23612971766E+03  0.68788235716E+03  0.15294330000E+03 0.  0.
<mgrwt>
<rscale>  0 0.83522382E+03</rscale>
<asrwt>0</asrwt>
<pdfrwt beam="1">  1        1 0.11549049E+00 0.90985903E+03</pdfrwt>
<pdfrwt beam="2">  1       -1 0.14504497E+00 0.90985903E+03</pdfrwt>
<totfact> 0.94458333E+00</totfact>
</mgrwt>
</event>
<event>
 4    1  0.1008211E-007  0.6891217E+03  0.7818608E-02  0.1004573E+00
          1   -1    0    0  501    0  0.00000000000E+00  0.00000000000E+00  0.17240539750E+04  0.17240539750E+04  0.50400000000E-02 0. -1.
         -1   -1    0    0    0  501 -0.00000000000E+00 -0.00000000000E+00 -0.42491173131E+03  0.42491173134E+03  0.50400000000E-02 0.  1.
    8880023    1    1    2    0    0 -0.16969285409E+03 -0.11082778036E+03 -0.12671712573E+03  0.70067531557E+03  0.65864270000E+03 0.  1.
    8880022    1    1    2    0    0  0.16969285409E+03  0.11082778036E+03  0.14258593694E+04  0.14482903908E+04  0.15294330000E+03 0.  0.
<mgrwt>
<rscale>  0 0.53689793E+03</rscale>
<asrwt>0</asrwt>
<pdfrwt beam="1">  1        1 0.26523907E+00 0.68912166E+03</pdfrwt>
<pdfrwt beam="2">  1       -1 0.65371036E-01 0.68912166E+03</pdfrwt>
<totfact> 0.11441579E+01</totfact>
</mgrwt>
</event>
<event>
 4    1  0.1008211E-007  0.6617554E+03  0.7818608E-02  0.1022426E+00
          1   -1    0    0  501    0  0.00000000000E+00  0.00000000000E+00  0.28633210695E+04  0.28633210695E+04  0.50400000000E-02 0. -1.
         -1   -1    0    0    0  501 -0.00000000000E+00 -0.00000000000E+00 -0.16911994575E+03  0.16911994582E+03  0.50400000000E-02 0.  1.
    8880023    1    1    2    0    0 -0.32632673760E+02  0.55182469147E+02  0.49351762258E+03  0.82551792613E+03  0.65864270000E+03 0.  1.
    8880022    1    1    2    0    0  0.32632673760E+02 -0.55182469147E+02  0.22006835012E+04  0.22069230892E+04  0.15294330000E+03 0.  0.
<mgrwt>
<rscale>  0 0.46821245E+03</rscale>
<asrwt>0</asrwt>
<pdfrwt beam="1">  1        1 0.44051094E+00 0.66175539E+03</pdfrwt>
<pdfrwt beam="2">  1       -1 0.26018453E-01 0.66175539E+03</pdfrwt>
<totfact> 0.10560474E+01</totfact>
</mgrwt>
</event>
<event>
 4    1  0.1008211E-007  0.7885836E+03  0.7818608E-02  0.9736047E-01
          1   -1    0    0  501    0  0.00000000000E+00  0.00000000000E+00  0.11107063059E+04  0.11107063059E+04  0.50400000000E-02 0. -1.
         -1   -1    0    0    0  501 -0.00000000000E+00 -0.00000000000E+00 -0.68906661686E+03  0.68906661688E+03  0.50400000000E-02 0.  1.
    8880023    1    1    2    0    0  0.40913208062E+03  0.14375263571E+03 -0.38019037255E+03  0.87544777418E+03  0.65864270000E+03 0.  1.
    8880022    1    1    2    0    0 -0.40913208062E+03 -0.14375263571E+03  0.80183006158E+03  0.92432514860E+03  0.15294330000E+03 0.  0.
<mgrwt>
<rscale>  0 0.68910534E+03</rscale>
<asrwt>0</asrwt>
<pdfrwt beam="1">  1        1 0.17087789E+00 0.78858359E+03</pdfrwt>
<pdfrwt beam="2">  1       -1 0.10601025E+00 0.78858359E+03</pdfrwt>
<totfact> 0.10651060E+01</totfact>
</mgrwt>
</event>
<event>
 4    1  0.1008211E-007  0.1201293E+04  0.7818608E-02  0.9155867E-01
         -1   -1    0    0    0  501 -0.00000000000E+00  0.00000000000E+00  0.13772642083E+04  0.13772642083E+04  0.50400000000E-02 0.  1.
          1   -1    0    0  501    0  0.00000000000E+00 -0.00000000000E+00 -0.20047606082E+04  0.20047606082E+04  0.50400000000E-02 0. -1.
    8880023    1    1    2    0    0  0.54405864949E+03  0.84456781003E+03  0.93214695340E+03  0.15205271286E+04  0.65864270000E+03 0.  0.
    8880022    1    1    2    0    0 -0.54405864949E+03 -0.84456781003E+03 -0.15596433533E+04  0.18614976880E+04  0.15294330000E+03 0.  0.
<mgrwt>
<rscale>  0 0.11520803E+04</rscale>
<asrwt>0</asrwt>
<pdfrwt beam="1">  1        1 0.30842471E+00 0.12012930E+04</pdfrwt>
<pdfrwt beam="2">  1       -1 0.21188680E+00 0.12012930E+04</pdfrwt>
<totfact> 0.36242304E-01</totfact>
</mgrwt>
</event>
<event>
 4    1  0.1008211E-007  0.1587183E+04  0.7818608E-02  0.8850406E-01
          1   -1    0    0  501    0  0.00000000000E+00  0.00000000000E+00  0.11309820909E+04  0.11309820909E+04  0.50400000000E-02 0. -1.
         -1   -1    0    0    0  501 -0.00000000000E+00 -0.00000000000E+00 -0.32759792192E+04  0.32759792192E+04  0.50400000000E-02 0.  1.
    8880023    1    1    2    0    0  0.14257591562E+04 -0.22923861217E+03 -0.24537684331E+04  0.29223499520E+04  0.65864270000E+03 0.  0.
    8880022    1    1    2    0    0 -0.14257591562E+04  0.22923861217E+03  0.30877130476E+03  0.14846113580E+04  0.15294330000E+03 0.  0.
<mgrwt>
<rscale>  0 0.15522901E+04</rscale>
<asrwt>0</asrwt>
<pdfrwt beam="1">  1        1 0.17399725E+00 0.15871830E+04</pdfrwt>
<pdfrwt beam="2">  1       -1 0.50399680E+00 0.15871830E+04</pdfrwt>
<totfact> 0.15721906E-02</totfact>
</mgrwt>
</event>
<event>
 4    1  0.1008211E-007  0.6897621E+03  0.7818608E-02  0.1004266E+00
          1   -1    0    0  501    0  0.00000000000E+00  0.00000000000E+00  0.12258110295E+04  0.12258110295E+04  0.50400000000E-02 0. -1.
         -1   -1    0    0    0  501 -0.00000000000E+00 -0.00000000000E+00 -0.39494578604E+03  0.39494578607E+03  0.50400000000E-02 0.  1.
    8880023    1    1    2    0    0  0.85473879322E+02  0.18616050504E+03 -0.61497367746E+02  0.69249812288E+03  0.65864270000E+03 0.  1.
    8880022    1    1    2    0    0 -0.85473879322E+02 -0.18616050504E+03  0.89236261125E+03  0.92825869274E+03  0.15294330000E+03 0.  0.
<mgrwt>
<rscale>  0 0.53818652E+03</rscale>
<asrwt>0</asrwt>
<pdfrwt beam="1">  1        1 0.18858631E+00 0.68976208E+03</pdfrwt>
<pdfrwt beam="2">  1       -1 0.60760891E-01 0.68976208E+03</pdfrwt>
<totfact> 0.29144318E+01</totfact>
</mgrwt>
</event>
<event>
 4    1  0.1008211E-007  0.6763624E+03  0.7818608E-02  0.1011461E+00
          1   -1    0    0  501    0  0.00000000000E+00  0.00000000000E+00  0.91571222361E+03  0.91571222362E+03  0.50400000000E-02 0. -1.
         -1   -1    0    0    0  501 -0.00000000000E+00 -0.00000000000E+00 -0.63196390375E+03  0.63196390377E+03  0.50400000000E-02 0.  1.
    8880023    1    1    2    0    0 -0.14659571447E+02 -0.15310467687E+03 -0.43014726311E+03  0.80155649791E+03  0.65864270000E+03 0.  1.
    8880022    1    1    2    0    0  0.14659571447E+02  0.15310467687E+03  0.71389558296E+03  0.74611962948E+03  0.15294330000E+03 0.  0.
<mgrwt>
<rscale>  0 0.50898126E+03</rscale>
<asrwt>0</asrwt>
<pdfrwt beam="1">  1        1 0.14087880E+00 0.67636244E+03</pdfrwt>
<pdfrwt beam="2">  1       -1 0.97225216E-01 0.67636244E+03</pdfrwt>
<totfact> 0.18643326E+01</totfact>
</mgrwt>
</event>
<event>
 4    1  0.1008211E-007  0.8478268E+03  0.7818608E-02  0.9615595E-01
          1   -1    0    0  501    0  0.00000000000E+00  0.00000000000E+00  0.29413720262E+04  0.29413720262E+04  0.50400000000E-02 0. -1.
         -1   -1    0    0    0  501 -0.00000000000E+00 -0.00000000000E+00 -0.37656549528E+03  0.37656549531E+03  0.50400000000E-02 0.  1.
    8880023    1    1    2    0    0 -0.51978635005E+03 -0.12174648369E+03  0.17661137189E+03  0.86602646549E+03  0.65864270000E+03 0.  1.
    8880022    1    1    2    0    0  0.51978635005E+03  0.12174648369E+03  0.23881951591E+04  0.24519110560E+04  0.15294330000E+03 0.  0.
<mgrwt>
<rscale>  0 0.76272536E+03</rscale>
<asrwt>0</asrwt>
<pdfrwt beam="1">  1        1 0.45251877E+00 0.84782679E+03</pdfrwt>
<pdfrwt beam="2">  1       -1 0.57933154E-01 0.84782679E+03</pdfrwt>
<totfact> 0.20958581E+00</totfact>
</mgrwt>
</event>
<event>
 4    1  0.1008211E-007  0.7526079E+03  0.7818608E-02  0.9824635E-01
          1   -1    0    0  501    0  0.00000000000E+00  0.00000000000E+00  0.22624777300E+04  0.22624777300E+04  0.50400000000E-02 0. -1.
         -1   -1    0    0    0  501 -0.00000000000E+00 -0.00000000000E+00 -0.27429649893E+03  0.27429649897E+03  0.50400000000E-02 0.  1.
    8880023    1    1    2    0    0 -0.24540457099E+03  0.26904468235E+03  0.31204923504E+03  0.81473515692E+03  0.65864270000E+03 0.  1.
    8880022    1    1    2    0    0  0.24540457099E+03 -0.26904468235E+03  0.16761319960E+04  0.17220390720E+04  0.15294330000E+03 0.  0.
<mgrwt>
<rscale>  0 0.64057087E+03</rscale>
<asrwt>0</asrwt>
<pdfrwt beam="1">  1        1 0.34807350E+00 0.75260790E+03</pdfrwt>
<pdfrwt beam="2">  1       -1 0.42199461E-01 0.75260790E+03</pdfrwt>
<totfact> 0.11425986E+01</totfact>
</mgrwt>
</event>
<event>
 4    1  0.1008211E-007  0.1111728E+04  0.7818608E-02  0.9248110E-01
         -1   -1    0    0    0  501 -0.00000000000E+00  0.00000000000E+00  0.77072513413E+03  0.77072513415E+03  0.50400000000E-02 0.  1.
          1   -1    0    0  501    0  0.00000000000E+00 -0.00000000000E+00 -0.15309875090E+04  0.15309875091E+04  0.50400000000E-02 0. -1.
    8880023    1    1    2    0    0  0.15730395106E+03 -0.88169365009E+03 -0.83453125925E+03  0.13901010231E+04  0.65864270000E+03 0.  0.
    8880022    1    1    2    0    0 -0.15730395106E+03  0.88169365009E+03  0.74268884334E+02  0.91161162006E+03  0.15294330000E+03 0.  0.
<mgrwt>
<rscale>  0 0.10570359E+04</rscale>
<asrwt>0</asrwt>
<pdfrwt beam="1">  1        1 0.23553654E+00 0.11117277E+04</pdfrwt>
<pdfrwt beam="2">  1       -1 0.11857310E+00 0.11117277E+04</pdfrwt>
<totfact> 0.39389043E+00</totfact>
</mgrwt>
</event>
<event>
 4    1  0.1008211E-007  0.9856343E+03  0.7818608E-02  0.9400598E-01
         -1   -1    0    0    0  501 -0.00000000000E+00  0.00000000000E+00  0.10874558559E+04  0.10874558559E+04  0.50400000000E-02 0.  1.
          1   -1    0    0  501    0  0.00000000000E+00 -0.00000000000E+00 -0.85702675758E+03  0.85702675759E+03  0.50400000000E-02 0. -1.
    8880023    1    1    2    0    0  0.57111421169E+03 -0.45988405727E+03  0.55160908059E+03  0.11294899614E+04  0.65864270000E+03 0.  0.
    8880022    1    1    2    0    0 -0.57111421169E+03  0.45988405727E+03 -0.32117998226E+03  0.81499265208E+03  0.15294330000E+03 0.  0.
<mgrwt>
<rscale>  0 0.92026452E+03</rscale>
<asrwt>0</asrwt>
<pdfrwt beam="1">  1        1 0.13185027E+00 0.98563431E+03</pdfrwt>
<pdfrwt beam="2">  1       -1 0.16730090E+00 0.98563431E+03</pdfrwt>
<totfact> 0.51117887E+00</totfact>
</mgrwt>
</event>
<event>
 4    1  0.1008211E-007  0.8857269E+03  0.7818608E-02  0.9549344E-01
          1   -1    0    0  501    0  0.00000000000E+00  0.00000000000E+00  0.32756027191E+04  0.32756027191E+04  0.50400000000E-02 0. -1.
         -1   -1    0    0    0  501 -0.00000000000E+00 -0.00000000000E+00 -0.66745539255E+03  0.66745539257E+03  0.50400000000E-02 0.  1.
    8880023    1    1    2    0    0  0.68402077756E+01  0.59216138738E+03 -0.32752795538E+03  0.94434456898E+03  0.65864270000E+03 0.  0.
    8880022    1    1    2    0    0 -0.68402077756E+01 -0.59216138738E+03  0.29356752819E+04  0.29987135427E+04  0.15294330000E+03 0.  0.
<mgrwt>
<rscale>  0 0.80741608E+03</rscale>
<asrwt>0</asrwt>
<pdfrwt beam="1">  1        1 0.50393889E+00 0.88572688E+03</pdfrwt>
<pdfrwt beam="2">  1       -1 0.10268544E+00 0.88572688E+03</pdfrwt>
<totfact> 0.35342616E-01</totfact>
</mgrwt>
</event>
<event>
 4    1  0.1008211E-007  0.7443064E+03  0.7818608E-02  0.9847576E-01
         -1   -1    0    0    0  501 -0.00000000000E+00  0.00000000000E+00  0.19412823114E+03  0.19412823120E+03  0.50400000000E-02 0.  1.
          1   -1    0    0  501    0  0.00000000000E+00 -0.00000000000E+00 -0.22286003712E+04  0.22286003712E+04  0.50400000000E-02 0. -1.
    8880023    1    1    2    0    0  0.10831496169E+03 -0.32931702714E+03 -0.65272890321E+03  0.98997326360E+03  0.65864270000E+03 0.  0.
    8880022    1    1    2    0    0 -0.10831496169E+03  0.32931702714E+03 -0.13817432369E+04  0.14327553388E+04  0.15294330000E+03 0.  0.
<mgrwt>
<rscale>  0 0.62870672E+03</rscale>
<asrwt>0</asrwt>
<pdfrwt beam="1">  1        1 0.34286158E+00 0.74430642E+03</pdfrwt>
<pdfrwt beam="2">  1       -1 0.29865883E-01 0.74430642E+03</pdfrwt>
<totfact> 0.22356335E+01</totfact>
</mgrwt>
</event>
<event>
 4    1  0.1008211E-007  0.9500321E+03  0.7818608E-02  0.9450068E-01
          1   -1    0    0  501    0  0.00000000000E+00  0.00000000000E+00  0.14186329626E+04  0.14186329626E+04  0.50400000000E-02 0. -1.
         -1   -1    0    0    0  501 -0.00000000000E+00 -0.00000000000E+00 -0.17466887714E+04  0.17466887714E+04  0.50400000000E-02 0.  1.
    8880023    1    1    2    0    0  0.65623861261E+03  0.19519651733E+03 -0.15140200630E+04  0.17874053134E+04  0.65864270000E+03 0.  0.
    8880022    1    1    2    0    0 -0.65623861261E+03 -0.19519651733E+03  0.11859642542E+04  0.13779164206E+04  0.15294330000E+03 0.  0.
<mgrwt>
<rscale>  0 0.88067378E+03</rscale>
<asrwt>0</asrwt>
<pdfrwt beam="1">  1        1 0.21825123E+00 0.95003211E+03</pdfrwt>
<pdfrwt beam="2">  1       -1 0.26872135E+00 0.95003211E+03</pdfrwt>
<totfact> 0.40102559E-01</totfact>
</mgrwt>
</event>
<event>
 4    1  0.1008211E-007  0.6992456E+03  0.7818608E-02  0.1000034E+00
         -1   -1    0    0    0  501 -0.00000000000E+00  0.00000000000E+00  0.35552306110E+03  0.35552306114E+03  0.50400000000E-02 0.  1.
          1   -1    0    0  501    0  0.00000000000E+00 -0.00000000000E+00 -0.26106896897E+04  0.26106896897E+04  0.50400000000E-02 0. -1.
    8880023    1    1    2    0    0 -0.23377140107E+03  0.22027118000E+02 -0.56084537602E+01  0.69926813377E+03  0.65864270000E+03 0.  1.
    8880022    1    1    2    0    0  0.23377140107E+03 -0.22027118000E+02 -0.22495581748E+04  0.22669446170E+04  0.15294330000E+03 0.  0.
<mgrwt>
<rscale>  0 0.55635110E+03</rscale>
<asrwt>0</asrwt>
<pdfrwt beam="1">  1        1 0.40164456E+00 0.69924564E+03</pdfrwt>
<pdfrwt beam="2">  1       -1 0.54695857E-01 0.69924564E+03</pdfrwt>
<totfact> 0.41083729E+00</totfact>
</mgrwt>
</event>
<event>
 4    1  0.1008211E-007  0.7332887E+03  0.7818608E-02  0.9879946E-01
          1   -1    0    0  501    0  0.00000000000E+00  0.00000000000E+00  0.77185003797E+03  0.77185003798E+03  0.50400000000E-02 0. -1.
         -1   -1    0    0    0  501 -0.00000000000E+00 -0.00000000000E+00 -0.87729218930E+03  0.87729218931E+03  0.50400000000E-02 0.  1.
    8880023    1    1    2    0    0 -0.14027105675E+03  0.29021746819E+03 -0.66209212119E+03  0.98796676635E+03  0.65864270000E+03 0.  0.
    8880022    1    1    2    0    0  0.14027105675E+03 -0.29021746819E+03  0.55664996985E+03  0.66117546095E+03  0.15294330000E+03 0.  0.
<mgrwt>
<rscale>  0 0.61243100E+03</rscale>
<asrwt>0</asrwt>
<pdfrwt beam="1">  1        1 0.11874616E+00 0.73328873E+03</pdfrwt>
<pdfrwt beam="2">  1       -1 0.13496803E+00 0.73328873E+03</pdfrwt>
<totfact> 0.11142720E+01</totfact>
</mgrwt>
</event>
<event>
 4    1  0.1008211E-007  0.8817107E+03  0.7818608E-02  0.9556054E-01
         -1   -1    0    0    0  501 -0.00000000000E+00  0.00000000000E+00  0.33566715507E+03  0.33566715510E+03  0.50400000000E-02 0.  1.
          1   -1    0    0  501    0  0.00000000000E+00 -0.00000000000E+00 -0.16641431234E+04  0.16641431235E+04  0.50400000000E-02 0. -1.
    8880023    1    1    2    0    0 -0.37076039141E+03 -0.45402668999E+03 -0.88309509306E+03  0.12479065080E+04  0.65864270000E+03 0.  1.
    8880022    1    1    2    0    0  0.37076039141E+03  0.45402668999E+03 -0.44538087532E+03  0.75190377056E+03  0.15294330000E+03 0.  0.
<mgrwt>
<rscale>  0 0.80274409E+03</rscale>
<asrwt>0</asrwt>
<pdfrwt beam="1">  1        1 0.25602201E+00 0.88171067E+03</pdfrwt>
<pdfrwt beam="2">  1       -1 0.51641102E-01 0.88171067E+03</pdfrwt>
<totfact> 0.19406291E+01</totfact>
</mgrwt>
</event>
<event>
 4    1  0.1008211E-007  0.6947727E+03  0.7818608E-02  0.1001962E+00
         -1   -1    0    0    0  501 -0.00000000000E+00  0.00000000000E+00  0.14145043137E+04  0.14145043137E+04  0.50400000000E-02 0.  1.
          1   -1    0    0  501    0  0.00000000000E+00 -0.00000000000E+00 -0.48057000864E+03  0.48057000867E+03  0.50400000000E-02 0. -1.
    8880023    1    1    2    0    0 -0.19929456068E+03 -0.95815521689E+02  0.12802601284E+04  0.14566314355E+04  0.65864270000E+03 0.  1.
    8880022    1    1    2    0    0  0.19929456068E+03  0.95815521689E+02 -0.34632582338E+03  0.43844288689E+03  0.15294330000E+03 0.  0.
<mgrwt>
<rscale>  0 0.54798326E+03</rscale>
<asrwt>0</asrwt>
<pdfrwt beam="1">  1        1 0.73933849E-01 0.69477273E+03</pdfrwt>
<pdfrwt beam="2">  1       -1 0.21761604E+00 0.69477273E+03</pdfrwt>
<totfact> 0.55842430E+00</totfact>
</mgrwt>
</event>
<event>
 4    1  0.1008211E-007  0.9526325E+03  0.7818608E-02  0.9446337E-01
         -1   -1    0    0    0  501 -0.00000000000E+00  0.00000000000E+00  0.17252175699E+04  0.17252175699E+04  0.50400000000E-02 0.  1.
          1   -1    0    0  501    0  0.00000000000E+00 -0.00000000000E+00 -0.59758184104E+03  0.59758184106E+03  0.50400000000E-02 0. -1.
    8880023    1    1    2    0    0  0.21970992282E+03  0.65224694283E+03  0.12857836970E+04  0.16002338724E+04  0.65864270000E+03 0.  1.
    8880022    1    1    2    0    0 -0.21970992282E+03 -0.65224694283E+03 -0.15814796818E+03  0.72256553853E+03  0.15294330000E+03 0.  0.
<mgrwt>
<rscale>  0 0.88358524E+03</rscale>
<asrwt>0</asrwt>
<pdfrwt beam="1">  1        1 0.91935669E-01 0.95263253E+03</pdfrwt>
<pdfrwt beam="2">  1       -1 0.26541808E+00 0.95263253E+03</pdfrwt>
<totfact> 0.19368875E+00</totfact>
</mgrwt>
</event>
<event>
 4    1  0.1008211E-007  0.7042787E+03  0.7818608E-02  0.9979894E-01
         -1   -1    0    0    0  501 -0.00000000000E+00  0.00000000000E+00  0.45241013074E+03  0.45241013077E+03  0.50400000000E-02 0.  1.
          1   -1    0    0  501    0  0.00000000000E+00 -0.00000000000E+00 -0.22172409137E+04  0.22172409137E+04  0.50400000000E-02 0. -1.
    8880023    1    1    2    0    0 -0.19657700431E+03 -0.15347874827E+03  0.16040435498E+03  0.72231434165E+03  0.65864270000E+03 0.  1.
    8880022    1    1    2    0    0  0.19657700431E+03  0.15347874827E+03 -0.19252351379E+04  0.19473367028E+04  0.15294330000E+03 0.  0.
<mgrwt>
<rscale>  0 0.56540705E+03</rscale>
<asrwt>0</asrwt>
<pdfrwt beam="1">  1        1 0.34111398E+00 0.70427867E+03</pdfrwt>
<pdfrwt beam="2">  1       -1 0.69601560E-01 0.70427867E+03</pdfrwt>
<totfact> 0.47052526E+00</totfact>
</mgrwt>
</event>
<event>
 4    1  0.1008211E-007  0.1666304E+04  0.7818608E-02  0.8800336E-01
          1   -1    0    0  501    0  0.00000000000E+00  0.00000000000E+00  0.23232706990E+04  0.23232706990E+04  0.50400000000E-02 0. -1.
         -1   -1    0    0    0  501 -0.00000000000E+00 -0.00000000000E+00 -0.15741613681E+04  0.15741613681E+04  0.50400000000E-02 0.  1.
    8880023    1    1    2    0    0 -0.42769103398E+03  0.14696396171E+04 -0.67817924524E+03  0.17990268257E+04  0.65864270000E+03 0.  0.
    8880022    1    1    2    0    0  0.42769103398E+03 -0.14696396171E+04  0.14272885761E+04  0.20984052414E+04  0.15294330000E+03 0.  0.
<mgrwt>
<rscale>  0 0.16333193E+04</rscale>
<asrwt>0</asrwt>
<pdfrwt beam="1">  1        1 0.35742626E+00 0.16663044E+04</pdfrwt>
<pdfrwt beam="2">  1       -1 0.24217867E+00 0.16663044E+04</pdfrwt>
<totfact> 0.13015503E-01</totfact>
</mgrwt>
</event>
<event>
 4    1  0.1041020E-007  0.9848269E+03  0.7818608E-02  0.9401683E-01
         -1   -1    0    0    0  501 -0.00000000000E+00  0.00000000000E+00  0.11155269847E+04  0.11155269847E+04  0.50400000000E-02 0.  1.
          1   -1    0    0  501    0  0.00000000000E+00 -0.00000000000E+00 -0.25212771900E+04  0.25212771900E+04  0.50400000000E-02 0. -1.
    8880023    1    1    2    0    0  0.70883495877E+03  0.18337637870E+03  0.82454305173E+03  0.12844280227E+04  0.65864270000E+03 0.  0.
    8880022    1    1    2    0    0 -0.70883495877E+03 -0.18337637870E+03 -0.22302932570E+04  0.23523761520E+04  0.15294330000E+03 0.  0.
<mgrwt>
<rscale>  0 0.91937271E+03</rscale>
<asrwt>0</asrwt>
<pdfrwt beam="1">  1        1 0.38788880E+00 0.98482694E+03</pdfrwt>
<pdfrwt beam="2">  1       -1 0.17161954E+00 0.98482694E+03</pdfrwt>
<totfact> 0.32045997E-01</totfact>
</mgrwt>
</event>
<event>
 4    1  0.1008211E-007  0.7362162E+03  0.7818608E-02  0.9871109E-01
         -1   -1    0    0    0  501 -0.00000000000E+00  0.00000000000E+00  0.88697675619E+03  0.88697675621E+03  0.50400000000E-02 0.  1.
          1   -1    0    0  501    0  0.00000000000E+00 -0.00000000000E+00 -0.75272731801E+03  0.75272731802E+03  0.50400000000E-02 0. -1.
    8880023    1    1    2    0    0  0.16173297527E+03  0.28643756917E+03  0.66816382019E+03  0.99421181506E+03  0.65864270000E+03 0.  1.
    8880022    1    1    2    0    0 -0.16173297527E+03 -0.28643756917E+03 -0.53391438201E+03  0.64549225917E+03  0.15294330000E+03 0.  0.
<mgrwt>
<rscale>  0 0.61682110E+03</rscale>
<asrwt>0</asrwt>
<pdfrwt beam="1">  1        1 0.11580420E+00 0.73621617E+03</pdfrwt>
<pdfrwt beam="2">  1       -1 0.13645796E+00 0.73621617E+03</pdfrwt>
<totfact> 0.11262536E+01</totfact>
</mgrwt>
</event>
<event>
 4    1  0.1008211E-007  0.8112485E+03  0.7818608E-02  0.9686982E-01
          1   -1    0    0  501    0  0.00000000000E+00  0.00000000000E+00  0.61197956795E+03  0.61197956797E+03  0.50400000000E-02 0. -1.
         -1   -1    0    0    0  501 -0.00000000000E+00 -0.00000000000E+00 -0.33794197215E+04  0.33794197215E+04  0.50400000000E-02 0.  1.
    8880023    1    1    2    0    0  0.30176905973E+03 -0.36503341655E+03 -0.32188337930E+04  0.33194901949E+04  0.65864270000E+03 0.  0.
    8880022    1    1    2    0    0 -0.30176905973E+03  0.36503341655E+03  0.45139363948E+03  0.67190909459E+03  0.15294330000E+03 0.  0.
<mgrwt>
<rscale>  0 0.71797186E+03</rscale>
<asrwt>0</asrwt>
<pdfrwt beam="1">  1        1 0.94150704E-01 0.81124852E+03</pdfrwt>
<pdfrwt beam="2">  1       -1 0.51991072E+00 0.81124852E+03</pdfrwt>
<totfact> 0.38994923E-02</totfact>
</mgrwt>
</event>
<event>
 4    1  0.1008211E-007  0.1093574E+04  0.7818608E-02  0.9268244E-01
          1   -1    0    0  501    0  0.00000000000E+00  0.00000000000E+00  0.10577064447E+04  0.10577064447E+04  0.50400000000E-02 0. -1.
         -1   -1    0    0    0  501 -0.00000000000E+00 -0.00000000000E+00 -0.23170300225E+04  0.23170300225E+04  0.50400000000E-02 0.  1.
    8880023    1    1    2    0    0  0.71455340475E+03 -0.50150613476E+03 -0.19603373994E+04  0.22447333688E+04  0.65864270000E+03 0.  0.
    8880022    1    1    2    0    0 -0.71455340475E+03  0.50150613476E+03  0.70101382151E+03  0.11300030984E+04  0.15294330000E+03 0.  0.
<mgrwt>
<rscale>  0 0.10375968E+04</rscale>
<asrwt>0</asrwt>
<pdfrwt beam="1">  1        1 0.16272407E+00 0.10935745E+04</pdfrwt>
<pdfrwt beam="2">  1       -1 0.35646616E+00 0.10935745E+04</pdfrwt>
<totfact> 0.19321070E-01</totfact>
</mgrwt>
</event>
<event>
 4    1  0.1008211E-007  0.6645926E+03  0.7818608E-02  0.1019878E+00
          1   -1    0    0  501    0  0.00000000000E+00  0.00000000000E+00  0.39264637550E+04  0.39264637550E+04  0.50400000000E-02 0. -1.
         -1   -1    0    0    0  501 -0.00000000000E+00 -0.00000000000E+00 -0.62411346614E+02  0.62411346817E+02  0.50400000000E-02 0.  1.
    8880023    1    1    2    0    0 -0.70407363924E+02  0.53999737067E+02  0.18262827652E+04  0.19434485106E+04  0.65864270000E+03 0.  0.
    8880022    1    1    2    0    0  0.70407363924E+02 -0.53999737067E+02  0.20377696432E+04  0.20454265913E+04  0.15294330000E+03 0.  0.
<mgrwt>
<rscale>  0 0.47730792E+03</rscale>
<asrwt>0</asrwt>
<pdfrwt beam="1">  1        1 0.60407146E+00 0.66459264E+03</pdfrwt>
<pdfrwt beam="2">  1       -1 0.96017438E-02 0.66459264E+03</pdfrwt>
<totfact> 0.83132397E+00</totfact>
</mgrwt>
</event>
<event>
 4    1  0.1008211E-007  0.7089324E+03  0.7818608E-02  0.9961987E-01
         -1   -1    0    0    0  501 -0.00000000000E+00  0.00000000000E+00  0.63928761277E+03  0.63928761279E+03  0.50400000000E-02 0.  1.
          1   -1    0    0  501    0  0.00000000000E+00 -0.00000000000E+00 -0.15300741563E+04  0.15300741563E+04  0.50400000000E-02 0. -1.
    8880023    1    1    2    0    0  0.25939585633E+03 -0.38583472496E+02  0.41991372640E+03  0.82396155160E+03  0.65864270000E+03 0.  0.
    8880022    1    1    2    0    0 -0.25939585633E+03  0.38583472496E+02 -0.13107002699E+04  0.13454002175E+04  0.15294330000E+03 0.  0.
<mgrwt>
<rscale>  0 0.57348923E+03</rscale>
<asrwt>0</asrwt>
<pdfrwt beam="1">  1        1 0.23539602E+00 0.70893237E+03</pdfrwt>
<pdfrwt beam="2">  1       -1 0.98351941E-01 0.70893237E+03</pdfrwt>
<totfact> 0.64700472E+00</totfact>
</mgrwt>
</event>
<event>
 4    1  0.1008211E-007  0.7050224E+03  0.7818608E-02  0.9976971E-01
          1   -1    0    0  501    0  0.00000000000E+00  0.00000000000E+00  0.37332725260E+03  0.37332725264E+03  0.50400000000E-02 0. -1.
         -1   -1    0    0    0  501 -0.00000000000E+00 -0.00000000000E+00 -0.87946219035E+03  0.87946219036E+03  0.50400000000E-02 0.  1.
    8880023    1    1    2    0    0  0.22407261598E+03 -0.11418320369E+03 -0.61836062841E+03  0.93777737991E+03  0.65864270000E+03 0.  1.
    8880022    1    1    2    0    0 -0.22407261598E+03  0.11418320369E+03  0.11222569066E+03  0.31501206309E+03  0.15294330000E+03 0.  0.
<mgrwt>
<rscale>  0 0.56671633E+03</rscale>
<asrwt>0</asrwt>
<pdfrwt beam="1">  1        1 0.57434962E-01 0.70502237E+03</pdfrwt>
<pdfrwt beam="2">  1       -1 0.13530188E+00 0.70502237E+03</pdfrwt>
<totfact> 0.30948805E+01</totfact>
</mgrwt>
</event>
<event>
 4    1  0.1008211E-007  0.6651191E+03  0.7818608E-02  0.1019434E+00
         -1   -1    0    0    0  501 -0.00000000000E+00  0.00000000000E+00  0.31767137169E+03  0.31767137173E+03  0.50400000000E-02 0.  1.
          1   -1    0    0  501    0  0.00000000000E+00 -0.00000000000E+00 -0.17774678780E+04  0.17774678781E+04  0.50400000000E-02 0. -1.
    8880023    1    1    2    0    0  0.42337961458E+02 -0.82345274115E+02 -0.42354652350E+02  0.66646633072E+03  0.65864270000E+03 0.  1.
    8880022    1    1    2    0    0 -0.42337961458E+02  0.82345274115E+02 -0.14174418540E+04  0.14286729191E+04  0.15294330000E+03 0.  0.
<mgrwt>
<rscale>  0 0.47891534E+03</rscale>
<asrwt>0</asrwt>
<pdfrwt beam="1">  1        1 0.27345659E+00 0.66511913E+03</pdfrwt>
<pdfrwt beam="2">  1       -1 0.48872520E-01 0.66511913E+03</pdfrwt>
<totfact> 0.18607339E+01</totfact>
</mgrwt>
</event>
<event>
 4    1  0.1008211E-007  0.1799358E+04  0.7818608E-02  0.8722892E-01
         -1   -1    0    0    0  501 -0.00000000000E+00  0.00000000000E+00  0.12222173006E+04  0.12222173006E+04  0.50400000000E-02 0.  1.
          1   -1    0    0  501    0  0.00000000000E+00 -0.00000000000E+00 -0.33331912839E+04  0.33331912839E+04  0.50400000000E-02 0. -1.
    8880023    1    1    2    0    0  0.15258377332E+04  0.68970777290E+03  0.70960925168E+02  0.18007563020E+04  0.65864270000E+03 0.  0.
    8880022    1    1    2    0    0 -0.15258377332E+04 -0.68970777290E+03 -0.21819349084E+04  0.27546522825E+04  0.15294330000E+03 0.  0.
<mgrwt>
<rscale>  0 0.17691270E+04</rscale>
<asrwt>0</asrwt>
<pdfrwt beam="1">  1        1 0.51279866E+00 0.17993576E+04</pdfrwt>
<pdfrwt beam="2">  1       -1 0.18803343E+00 0.17993576E+04</pdfrwt>
<totfact> 0.56271775E-02</totfact>
</mgrwt>
</event>
<event>
 4    1  0.1008211E-007  0.1081024E+04  0.7818608E-02  0.9282484E-01
         -1   -1    0    0    0  501 -0.00000000000E+00  0.00000000000E+00  0.81751134690E+03  0.81751134692E+03  0.50400000000E-02 0.  1.
          1   -1    0    0  501    0  0.00000000000E+00 -0.00000000000E+00 -0.18105873509E+04  0.18105873509E+04  0.50400000000E-02 0. -1.
    8880023    1    1    2    0    0  0.66816164452E+03 -0.53699341888E+03 -0.13127171197E+04  0.17005406075E+04  0.65864270000E+03 0.  0.
    8880022    1    1    2    0    0 -0.66816164452E+03  0.53699341888E+03  0.31964111568E+03  0.92755809035E+03  0.15294330000E+03 0.  0.
<mgrwt>
<rscale>  0 0.10241154E+04</rscale>
<asrwt>0</asrwt>
<pdfrwt beam="1">  1        1 0.27855190E+00 0.10810236E+04</pdfrwt>
<pdfrwt beam="2">  1       -1 0.12577098E+00 0.10810236E+04</pdfrwt>
<totfact> 0.22030937E+00</totfact>
</mgrwt>
</event>
<event>
 4    1  0.1008211E-007  0.1030684E+04  0.7818608E-02  0.9342471E-01
         -1   -1    0    0    0  501 -0.00000000000E+00  0.00000000000E+00  0.48224082262E+03  0.48224082264E+03  0.50400000000E-02 0.  1.
          1   -1    0    0  501    0  0.00000000000E+00 -0.00000000000E+00 -0.33534532490E+04  0.33534532490E+04  0.50400000000E-02 0. -1.
    8880023    1    1    2    0    0 -0.54638686174E+03 -0.57442134262E+03 -0.20626121683E+03  0.10511195828E+04  0.65864270000E+03 0.  0.
    8880022    1    1    2    0    0  0.54638686174E+03  0.57442134262E+03 -0.26649512095E+04  0.27845744888E+04  0.15294330000E+03 0.  0.
<mgrwt>
<rscale>  0 0.96965184E+03</rscale>
<asrwt>0</asrwt>
<pdfrwt beam="1">  1        1 0.51591587E+00 0.10306836E+04</pdfrwt>
<pdfrwt beam="2">  1       -1 0.74190898E-01 0.10306836E+04</pdfrwt>
<totfact> 0.61267101E-01</totfact>
</mgrwt>
</event>
<event>
 4    1  0.1008211E-007  0.8854563E+03  0.7818608E-02  0.9549794E-01
          1   -1    0    0  501    0  0.00000000000E+00  0.00000000000E+00  0.10112195050E+04  0.10112195050E+04  0.50400000000E-02 0. -1.
         -1   -1    0    0    0  501 -0.00000000000E+00 -0.00000000000E+00 -0.65788320528E+03  0.65788320530E+03  0.50400000000E-02 0.  1.
    8880023    1    1    2    0    0 -0.47726650816E+03  0.34991328383E+03  0.53112157346E+03  0.10325323036E+04  0.65864270000E+03 0.  0.
    8880022    1    1    2    0    0  0.47726650816E+03 -0.34991328383E+03 -0.17778527377E+03  0.63657040663E+03  0.15294330000E+03 0.  0.
<mgrwt>
<rscale>  0 0.80710173E+03</rscale>
<asrwt>0</asrwt>
<pdfrwt beam="1">  1        1 0.15557223E+00 0.88545628E+03</pdfrwt>
<pdfrwt beam="2">  1       -1 0.10121280E+00 0.88545628E+03</pdfrwt>
<totfact> 0.13946446E+01</totfact>
</mgrwt>
</event>
<event>
 4    1  0.1008211E-007  0.1339186E+04  0.7818608E-02  0.9032438E-01
          1   -1    0    0  501    0  0.00000000000E+00  0.00000000000E+00  0.19468041614E+04  0.19468041614E+04  0.50400000000E-02 0. -1.
         -1   -1    0    0    0  501 -0.00000000000E+00 -0.00000000000E+00 -0.13037615071E+04  0.13037615071E+04  0.50400000000E-02 0.  1.
    8880023    1    1    2    0    0 -0.88947032268E+03 -0.75395764678E+03 -0.66195753015E+03  0.14938566083E+04  0.65864270000E+03 0.  0.
    8880022    1    1    2    0    0  0.88947032268E+03  0.75395764678E+03  0.13050001844E+04  0.17567090602E+04  0.15294330000E+03 0.  0.
<mgrwt>
<rscale>  0 0.12963837E+04</rscale>
<asrwt>0</asrwt>
<pdfrwt beam="1">  1        1 0.29950833E+00 0.13391862E+04</pdfrwt>
<pdfrwt beam="2">  1       -1 0.20057869E+00 0.13391862E+04</pdfrwt>
<totfact> 0.46531665E-01</totfact>
</mgrwt>
</event>
<event>
 4    1  0.1008211E-007  0.1375342E+04  0.7818608E-02  0.9003083E-01
         -1   -1    0    0    0  501 -0.00000000000E+00  0.00000000000E+00  0.91914966359E+03  0.91914966360E+03  0.50400000000E-02 0.  1.
          1   -1    0    0  501    0  0.00000000000E+00 -0.00000000000E+00 -0.24289504869E+04  0.24289504869E+04  0.50400000000E-02 0. -1.
    8880023    1    1    2    0    0 -0.99241307762E+03  0.68765719194E+03  0.42003371979E+02  0.13759835100E+04  0.65864270000E+03 0.  1.
    8880022    1    1    2    0    0  0.99241307762E+03 -0.68765719194E+03 -0.15518041953E+04  0.19721166405E+04  0.15294330000E+03 0.  0.
<mgrwt>
<rscale>  0 0.13339295E+04</rscale>
<asrwt>0</asrwt>
<pdfrwt beam="1">  1        1 0.37368469E+00 0.13753423E+04</pdfrwt>
<pdfrwt beam="2">  1       -1 0.14140764E+00 0.13753423E+04</pdfrwt>
<totfact> 0.59753076E-01</totfact>
</mgrwt>
</event>
<event>
 4    1  0.1008211E-007  0.8394831E+03  0.7818608E-02  0.9631156E-01
         -1   -1    0    0    0  501 -0.00000000000E+00  0.00000000000E+00  0.22735147662E+03  0.22735147668E+03  0.50400000000E-02 0.  1.
          1   -1    0    0  501    0  0.00000000000E+00 -0.00000000000E+00 -0.27891385839E+04  0.27891385839E+04  0.50400000000E-02 0. -1.
    8880023    1    1    2    0    0  0.42739165971E+03 -0.29708257318E+03 -0.75168072970E+03  0.11268344207E+04  0.65864270000E+03 0.  0.
    8880022    1    1    2    0    0 -0.42739165971E+03  0.29708257318E+03 -0.18101063776E+04  0.18896556399E+04  0.15294330000E+03 0.  0.
<mgrwt>
<rscale>  0 0.75267972E+03</rscale>
<asrwt>0</asrwt>
<pdfrwt beam="1">  1        1 0.42909822E+00 0.83948311E+03</pdfrwt>
<pdfrwt beam="2">  1       -1 0.34977152E-01 0.83948311E+03</pdfrwt>
<totfact> 0.68917182E+00</totfact>
</mgrwt>
</event>
<event>
 4    1  0.1008211E-007  0.1491790E+04  0.7818608E-02  0.8915455E-01
         -1   -1    0    0    0  501 -0.00000000000E+00  0.00000000000E+00  0.88810106740E+03  0.88810106742E+03  0.50400000000E-02 0.  1.
          1   -1    0    0  501    0  0.00000000000E+00 -0.00000000000E+00 -0.36143934166E+04  0.36143934166E+04  0.50400000000E-02 0. -1.
    8880023    1    1    2    0    0  0.12695761061E+04  0.42403371192E+03 -0.34276500040E+02  0.14921840244E+04  0.65864270000E+03 0.  0.
    8880022    1    1    2    0    0 -0.12695761061E+04 -0.42403371192E+03 -0.26920158492E+04  0.30103104596E+04  0.15294330000E+03 0.  0.
<mgrwt>
<rscale>  0 0.14542565E+04</rscale>
<asrwt>0</asrwt>
<pdfrwt beam="1">  1        1 0.55606051E+00 0.14917903E+04</pdfrwt>
<pdfrwt beam="2">  1       -1 0.13663094E+00 0.14917903E+04</pdfrwt>
<totfact> 0.86843538E-02</totfact>
</mgrwt>
</event>
<event>
 4    1  0.1008211E-007  0.1000764E+04  0.7818608E-02  0.9380558E-01
         -1   -1    0    0    0  501 -0.00000000000E+00  0.00000000000E+00  0.74872453079E+03  0.74872453081E+03  0.50400000000E-02 0.  1.
          1   -1    0    0  501    0  0.00000000000E+00 -0.00000000000E+00 -0.14834777874E+04  0.14834777874E+04  0.50400000000E-02 0. -1.
    8880023    1    1    2    0    0 -0.25385302589E+03 -0.70942074445E+03  0.20137116038E+03  0.10208230512E+04  0.65864270000E+03 0.  0.
    8880022    1    1    2    0    0  0.25385302589E+03  0.70942074445E+03 -0.93612441703E+03  0.12113792670E+04  0.15294330000E+03 0.  0.
<mgrwt>
<rscale>  0 0.93693075E+03</rscale>
<asrwt>0</asrwt>
<pdfrwt beam="1">  1        1 0.22822735E+00 0.10007644E+04</pdfrwt>
<pdfrwt beam="2">  1       -1 0.11518839E+00 0.10007644E+04</pdfrwt>
<totfact> 0.46164424E+00</totfact>
</mgrwt>
</event>
<event>
 4    1  0.1008211E-007  0.7244922E+03  0.7818608E-02  0.9907669E-01
          1   -1    0    0  501    0  0.00000000000E+00  0.00000000000E+00  0.19664612727E+03  0.19664612734E+03  0.50400000000E-02 0. -1.
         -1   -1    0    0    0  501 -0.00000000000E+00 -0.00000000000E+00 -0.32723075387E+04  0.32723075387E+04  0.50400000000E-02 0.  1.
    8880023    1    1    2    0    0  0.21716835685E+03 -0.20956293955E+03 -0.30441265665E+04  0.31291525178E+04  0.65864270000E+03 0.  1.
    8880022    1    1    2    0    0 -0.21716835685E+03  0.20956293955E+03 -0.31534844926E+02  0.33980114818E+03  0.15294330000E+03 0.  0.
<mgrwt>
<rscale>  0 0.59891049E+03</rscale>
<asrwt>0</asrwt>
<pdfrwt beam="1">  1        1 0.30253253E-01 0.72449219E+03</pdfrwt>
<pdfrwt beam="2">  1       -1 0.50343189E+00 0.72449219E+03</pdfrwt>
<totfact> 0.22908186E-01</totfact>
</mgrwt>
</event>
<event>
 4    1  0.1008211E-007  0.7222048E+03  0.7818608E-02  0.9915195E-01
         -1   -1    0    0    0  501 -0.00000000000E+00  0.00000000000E+00  0.40002962603E+03  0.40002962607E+03  0.50400000000E-02 0.  1.
          1   -1    0    0  501    0  0.00000000000E+00 -0.00000000000E+00 -0.74277216508E+03  0.74277216510E+03  0.50400000000E-02 0. -1.
    8880023    1    1    2    0    0  0.28972592968E+03 -0.61874368304E+02 -0.97162266616E+02  0.72871137229E+03  0.65864270000E+03 0.  1.
    8880022    1    1    2    0    0 -0.28972592968E+03  0.61874368304E+02 -0.24558027243E+03  0.41409041888E+03  0.15294330000E+03 0.  0.
<mgrwt>
<rscale>  0 0.59530486E+03</rscale>
<asrwt>0</asrwt>
<pdfrwt beam="1">  1        1 0.11427264E+00 0.72220479E+03</pdfrwt>
<pdfrwt beam="2">  1       -1 0.61543019E-01 0.72220479E+03</pdfrwt>
<totfact> 0.68133313E+01</totfact>
</mgrwt>
</event>
<event>
 4    1  0.1008211E-007  0.7399550E+03  0.7818608E-02  0.9860078E-01
          1   -1    0    0  501    0  0.00000000000E+00  0.00000000000E+00  0.44975966523E+03  0.44975966526E+03  0.50400000000E-02 0. -1.
         -1   -1    0    0    0  501 -0.00000000000E+00 -0.00000000000E+00 -0.19922750296E+04  0.19922750296E+04  0.50400000000E-02 0.  1.
    8880023    1    1    2    0    0  0.10360224222E+03  0.32092029671E+03 -0.18295506390E+04  0.19735219807E+04  0.65864270000E+03 0.  1.
    8880022    1    1    2    0    0 -0.10360224222E+03 -0.32092029671E+03  0.28703527462E+03  0.46851271416E+03  0.15294330000E+03 0.  0.
<mgrwt>
<rscale>  0 0.62235701E+03</rscale>
<asrwt>0</asrwt>
<pdfrwt beam="1">  1        1 0.69193796E-01 0.73995504E+03</pdfrwt>
<pdfrwt beam="2">  1       -1 0.30650384E+00 0.73995504E+03</pdfrwt>
<totfact> 0.16208265E+00</totfact>
</mgrwt>
</event>
<event>
 4    1  0.1008211E-007  0.2192043E+04  0.7818608E-02  0.8531987E-01
          1   -1    0    0  501    0  0.00000000000E+00  0.00000000000E+00  0.27796505334E+04  0.27796505334E+04  0.50400000000E-02 0. -1.
         -1   -1    0    0    0  501 -0.00000000000E+00 -0.00000000000E+00 -0.20538466973E+04  0.20538466973E+04  0.50400000000E-02 0.  1.
    8880023    1    1    2    0    0  0.12727382131E+03 -0.20868743986E+04  0.14355406912E+04  0.26202730131E+04  0.65864270000E+03 0. -1.
    8880022    1    1    2    0    0 -0.12727382131E+03  0.20868743986E+04 -0.70973685503E+03  0.22132242176E+04  0.15294330000E+03 0.  0.
<mgrwt>
<rscale>  0 0.21677150E+04</rscale>
<asrwt>0</asrwt>
<pdfrwt beam="1">  1        1 0.42763854E+00 0.21920432E+04</pdfrwt>
<pdfrwt beam="2">  1       -1 0.31597642E+00 0.21920432E+04</pdfrwt>
<totfact> 0.19440228E-02</totfact>
</mgrwt>
</event>
<event>
 4    1  0.1008211E-007  0.1428418E+04  0.7818608E-02  0.8961910E-01
         -1   -1    0    0    0  501 -0.00000000000E+00  0.00000000000E+00  0.88656326294E+03  0.88656326295E+03  0.50400000000E-02 0.  1.
          1   -1    0    0  501    0  0.00000000000E+00 -0.00000000000E+00 -0.30001583909E+04  0.30001583909E+04  0.50400000000E-02 0. -1.
    8880023    1    1    2    0    0  0.10642436728E+04  0.68844174298E+03 -0.21822510486E+04  0.26081787657E+04  0.65864270000E+03 0.  0.
    8880022    1    1    2    0    0 -0.10642436728E+04 -0.68844174298E+03  0.68655920618E+02  0.12785428882E+04  0.15294330000E+03 0.  0.
<mgrwt>
<rscale>  0 0.13888759E+04</rscale>
<asrwt>0</asrwt>
<pdfrwt beam="1">  1        1 0.46156282E+00 0.14284176E+04</pdfrwt>
<pdfrwt beam="2">  1       -1 0.13639435E+00 0.14284176E+04</pdfrwt>
<totfact> 0.25796978E-01</totfact>
</mgrwt>
</event>
<event>
 4    1  0.1008211E-007  0.1279666E+04  0.7818608E-02  0.9083321E-01
          1   -1    0    0  501    0  0.00000000000E+00  0.00000000000E+00  0.14984775447E+04  0.14984775447E+04  0.50400000000E-02 0. -1.
         -1   -1    0    0    0  501 -0.00000000000E+00 -0.00000000000E+00 -0.15592252274E+04  0.15592252275E+04  0.50400000000E-02 0.  1.
    8880023    1    1    2    0    0 -0.38647588203E+03 -0.10268262895E+04 -0.98511832686E+03  0.16149316271E+04  0.65864270000E+03 0.  0.
    8880022    1    1    2    0    0  0.38647588203E+03  0.10268262895E+04  0.92437064407E+03  0.14427711450E+04  0.15294330000E+03 0.  0.
<mgrwt>
<rscale>  0 0.12343371E+04</rscale>
<asrwt>0</asrwt>
<pdfrwt beam="1">  1        1 0.23053501E+00 0.12796664E+04</pdfrwt>
<pdfrwt beam="2">  1       -1 0.23988081E+00 0.12796664E+04</pdfrwt>
<totfact> 0.51685797E-01</totfact>
</mgrwt>
</event>
<event>
 4    1  0.1008211E-007  0.7480079E+03  0.7818608E-02  0.9837206E-01
          1   -1    0    0  501    0  0.00000000000E+00  0.00000000000E+00  0.17893113181E+04  0.17893113181E+04  0.50400000000E-02 0. -1.
         -1   -1    0    0    0  501 -0.00000000000E+00 -0.00000000000E+00 -0.56357713924E+03  0.56357713926E+03  0.50400000000E-02 0.  1.
    8880023    1    1    2    0    0  0.13583364956E+03 -0.32749779128E+03 -0.27980017569E+03  0.79862627569E+03  0.65864270000E+03 0.  1.
    8880022    1    1    2    0    0 -0.13583364956E+03  0.32749779128E+03  0.15055343546E+04  0.15542621817E+04  0.15294330000E+03 0.  0.
<mgrwt>
<rscale>  0 0.63403514E+03</rscale>
<asrwt>0</asrwt>
<pdfrwt beam="1">  1        1 0.27527866E+00 0.74800788E+03</pdfrwt>
<pdfrwt beam="2">  1       -1 0.86704176E-01 0.74800788E+03</pdfrwt>
<totfact> 0.56819127E+00</totfact>
</mgrwt>
</event>
<event>
 4    1  0.1008211E-007  0.7076479E+03  0.7818608E-02  0.9966841E-01
          1   -1    0    0  501    0  0.00000000000E+00  0.00000000000E+00  0.80660487087E+03  0.80660487089E+03  0.50400000000E-02 0. -1.
         -1   -1    0    0    0  501 -0.00000000000E+00 -0.00000000000E+00 -0.94230172265E+03  0.94230172267E+03  0.50400000000E-02 0.  1.
    8880023    1    1    2    0    0  0.24846397670E+03 -0.72256105129E+02 -0.77073465394E+03  0.10463256689E+04  0.65864270000E+03 0.  0.
    8880022    1    1    2    0    0 -0.24846397670E+03  0.72256105129E+02  0.63503780216E+03  0.70258092461E+03  0.15294330000E+03 0. -1.
<mgrwt>
<rscale>  0 0.57128403E+03</rscale>
<asrwt>0</asrwt>
<pdfrwt beam="1">  1        1 0.12409306E+00 0.70764786E+03</pdfrwt>
<pdfrwt beam="2">  1       -1 0.14496950E+00 0.70764786E+03</pdfrwt>
<totfact> 0.86601181E+00</totfact>
</mgrwt>
</event>
<event>
 4    1  0.1008211E-007  0.7400946E+03  0.7818608E-02  0.9859672E-01
         -1   -1    0    0    0  501 -0.00000000000E+00  0.00000000000E+00  0.47828375568E+03  0.47828375571E+03  0.50400000000E-02 0.  1.
          1   -1    0    0  501    0  0.00000000000E+00 -0.00000000000E+00 -0.13603061786E+04  0.13603061786E+04  0.50400000000E-02 0. -1.
    8880023    1    1    2    0    0 -0.80785008006E+01  0.33743818222E+03  0.13843571631E+03  0.75293056971E+03  0.65864270000E+03 0.  1.
    8880022    1    1    2    0    0  0.80785008006E+01 -0.33743818222E+03 -0.10204581392E+04  0.10856593646E+04  0.15294330000E+03 0.  0.
<mgrwt>
<rscale>  0 0.62256215E+03</rscale>
<asrwt>0</asrwt>
<pdfrwt beam="1">  1        1 0.20927787E+00 0.74009459E+03</pdfrwt>
<pdfrwt beam="2">  1       -1 0.73582117E-01 0.74009459E+03</pdfrwt>
<totfact> 0.15790351E+01</totfact>
</mgrwt>
</event>
<event>
 4    1  0.1008211E-007  0.1372065E+04  0.7818608E-02  0.9005699E-01
         -1   -1    0    0    0  501 -0.00000000000E+00  0.00000000000E+00  0.15565087044E+04  0.15565087044E+04  0.50400000000E-02 0.  1.
          1   -1    0    0  501    0  0.00000000000E+00 -0.00000000000E+00 -0.18020047061E+04  0.18020047061E+04  0.50400000000E-02 0. -1.
    8880023    1    1    2    0    0 -0.11244022616E+04 -0.42950062767E+03  0.93921099149E+03  0.16627323079E+04  0.65864270000E+03 0.  1.
    8880022    1    1    2    0    0  0.11244022616E+04  0.42950062767E+03 -0.11847069931E+04  0.16957811025E+04  0.15294330000E+03 0.  0.
<mgrwt>
<rscale>  0 0.13305300E+04</rscale>
<asrwt>0</asrwt>
<pdfrwt beam="1">  1        1 0.27723149E+00 0.13720647E+04</pdfrwt>
<pdfrwt beam="2">  1       -1 0.23946288E+00 0.13720647E+04</pdfrwt>
<totfact> 0.31831371E-01</totfact>
</mgrwt>
</event>
<event>
 4    1  0.1008211E-007  0.6601457E+03  0.7818608E-02  0.1024008E+00
          1   -1    0    0  501    0  0.00000000000E+00  0.00000000000E+00  0.98392825744E+03  0.98392825745E+03  0.50400000000E-02 0. -1.
         -1   -1    0    0    0  501 -0.00000000000E+00 -0.00000000000E+00 -0.17459594174E+03  0.17459594181E+03  0.50400000000E-02 0.  1.
    8880023    1    1    2    0    0  0.11082460899E+02  0.43119427273E+02  0.57663065122E+03  0.87652451200E+03  0.65864270000E+03 0.  1.
    8880022    1    1    2    0    0 -0.11082460899E+02 -0.43119427273E+02  0.23270166448E+03  0.28199968726E+03  0.15294330000E+03 0.  0.
<mgrwt>
<rscale>  0 0.46267703E+03</rscale>
<asrwt>0</asrwt>
<pdfrwt beam="1">  1        1 0.15137358E+00 0.66014567E+03</pdfrwt>
<pdfrwt beam="2">  1       -1 0.26860914E-01 0.66014567E+03</pdfrwt>
<totfact> 0.19658807E+02</totfact>
</mgrwt>
</event>
<event>
 4    1  0.1008211E-007  0.9675508E+03  0.7818608E-02  0.9425300E-01
          1   -1    0    0  501    0  0.00000000000E+00  0.00000000000E+00  0.18800402607E+04  0.18800402607E+04  0.50400000000E-02 0. -1.
         -1   -1    0    0    0  501 -0.00000000000E+00 -0.00000000000E+00 -0.95491385050E+03  0.95491385051E+03  0.50400000000E-02 0.  1.
    8880023    1    1    2    0    0 -0.61797272924E+02 -0.70606338898E+03 -0.60541472598E+03  0.11413507826E+04  0.65864270000E+03 0.  0.
    8880022    1    1    2    0    0  0.61797272924E+02  0.70606338898E+03  0.15305411362E+04  0.16936033286E+04  0.15294330000E+03 0.  0.
<mgrwt>
<rscale>  0 0.90022551E+03</rscale>
<asrwt>0</asrwt>
<pdfrwt beam="1">  1        1 0.28923696E+00 0.96755084E+03</pdfrwt>
<pdfrwt beam="2">  1       -1 0.14690982E+00 0.96755084E+03</pdfrwt>
<totfact> 0.13456080E+00</totfact>
</mgrwt>
</event>
<event>
 4    1  0.1008211E-007  0.7541523E+03  0.7818608E-02  0.9820489E-01
         -1   -1    0    0    0  501 -0.00000000000E+00  0.00000000000E+00  0.15023255158E+03  0.15023255167E+03  0.50400000000E-02 0.  1.
          1   -1    0    0  501    0  0.00000000000E+00 -0.00000000000E+00 -0.27468704915E+04  0.27468704915E+04  0.50400000000E-02 0. -1.
    8880023    1    1    2    0    0  0.36727332084E+03 -0.67713680244E+01 -0.10050574679E+04  0.12565374104E+04  0.65864270000E+03 0.  0.
    8880022    1    1    2    0    0 -0.36727332084E+03  0.67713680244E+01 -0.15915804720E+04  0.16405656328E+04  0.15294330000E+03 0.  0.
<mgrwt>
<rscale>  0 0.64274507E+03</rscale>
<asrwt>0</asrwt>
<pdfrwt beam="1">  1        1 0.42259542E+00 0.75415234E+03</pdfrwt>
<pdfrwt beam="2">  1       -1 0.23112702E-01 0.75415234E+03</pdfrwt>
<totfact> 0.15339916E+01</totfact>
</mgrwt>
</event>
<event>
 4    1  0.1008211E-007  0.1121866E+04  0.7818608E-02  0.9237093E-01
         -1   -1    0    0    0  501 -0.00000000000E+00  0.00000000000E+00  0.17806440571E+04  0.17806440571E+04  0.50400000000E-02 0.  1.
          1   -1    0    0  501    0  0.00000000000E+00 -0.00000000000E+00 -0.65458344644E+03  0.65458344646E+03  0.50400000000E-02 0. -1.
    8880023    1    1    2    0    0 -0.90712917605E+03  0.43465249733E+02  0.21989466901E+03  0.11432132092E+04  0.65864270000E+03 0.  0.
    8880022    1    1    2    0    0  0.90712917605E+03 -0.43465249733E+02  0.90616594160E+03  0.12920142943E+04  0.15294330000E+03 0.  0.
<mgrwt>
<rscale>  0 0.10678633E+04</rscale>
<asrwt>0</asrwt>
<pdfrwt beam="1">  1        1 0.10070515E+00 0.11218658E+04</pdfrwt>
<pdfrwt beam="2">  1       -1 0.27394523E+00 0.11218658E+04</pdfrwt>
<totfact> 0.14617208E+00</totfact>
</mgrwt>
</event>
<event>
 4    1  0.1008211E-007  0.7188482E+03  0.7818608E-02  0.9926503E-01
         -1   -1    0    0    0  501 -0.00000000000E+00  0.00000000000E+00  0.32012140338E+03  0.32012140342E+03  0.50400000000E-02 0.  1.
          1   -1    0    0  501    0  0.00000000000E+00 -0.00000000000E+00 -0.38526778126E+04  0.38526778126E+04  0.50400000000E-02 0. -1.
    8880023    1    1    2    0    0 -0.74375377619E+02 -0.27821014275E+03 -0.10114416693E+03  0.72592901105E+03  0.65864270000E+03 0.  1.
    8880022    1    1    2    0    0  0.74375377619E+02  0.27821014275E+03 -0.34314122423E+04  0.34468702050E+04  0.15294330000E+03 0.  0.
<mgrwt>
<rscale>  0 0.58993877E+03</rscale>
<asrwt>0</asrwt>
<pdfrwt beam="1">  1        1 0.59271963E+00 0.71884824E+03</pdfrwt>
<pdfrwt beam="2">  1       -1 0.49249449E-01 0.71884824E+03</pdfrwt>
<totfact> 0.59194618E-01</totfact>
</mgrwt>
</event>
<event>
 4    1  0.1008211E-007  0.7923766E+03  0.7818608E-02  0.9727528E-01
          1   -1    0    0  501    0  0.00000000000E+00  0.00000000000E+00  0.11638253918E+04  0.11638253919E+04  0.50400000000E-02 0. -1.
         -1   -1    0    0    0  501 -0.00000000000E+00 -0.00000000000E+00 -0.83921806913E+03  0.83921806915E+03  0.50400000000E-02 0.  1.
    8880023    1    1    2    0    0 -0.21870030514E+03 -0.38238816041E+03 -0.58226573707E+03  0.98330774609E+03  0.65864270000E+03 0.  1.
    8880022    1    1    2    0    0  0.21870030514E+03  0.38238816041E+03  0.90687305979E+03  0.10197357149E+04  0.15294330000E+03 0.  0.
<mgrwt>
<rscale>  0 0.69401159E+03</rscale>
<asrwt>0</asrwt>
<pdfrwt beam="1">  1        1 0.17905006E+00 0.79237664E+03</pdfrwt>
<pdfrwt beam="2">  1       -1 0.12911047E+00 0.79237664E+03</pdfrwt>
<totfact> 0.60399392E+00</totfact>
</mgrwt>
</event>
<event>
 4    1  0.1008211E-007  0.7555807E+03  0.7818608E-02  0.9816686E-01
         -1   -1    0    0    0  501 -0.00000000000E+00  0.00000000000E+00  0.64325373547E+03  0.64325373549E+03  0.50400000000E-02 0.  1.
          1   -1    0    0  501    0  0.00000000000E+00 -0.00000000000E+00 -0.81700122231E+03  0.81700122233E+03  0.50400000000E-02 0. -1.
    8880023    1    1    2    0    0 -0.27647897544E+03 -0.24627511504E+03  0.32332038763E+03  0.82185055543E+03  0.65864270000E+03 0.  0.
    8880022    1    1    2    0    0  0.27647897544E+03  0.24627511504E+03 -0.49706787446E+03  0.63840440239E+03  0.15294330000E+03 0.  0.
<mgrwt>
<rscale>  0 0.64474730E+03</rscale>
<asrwt>0</asrwt>
<pdfrwt beam="1">  1        1 0.12569250E+00 0.75558075E+03</pdfrwt>
<pdfrwt beam="2">  1       -1 0.98962113E-01 0.75558075E+03</pdfrwt>
<totfact> 0.21416340E+01</totfact>
</mgrwt>
</event>
<event>
 4    1  0.1008211E-007  0.8503986E+03  0.7818608E-02  0.9610876E-01
          1   -1    0    0  501    0  0.00000000000E+00  0.00000000000E+00  0.26976338984E+04  0.26976338984E+04  0.50400000000E-02 0. -1.
         -1   -1    0    0    0  501 -0.00000000000E+00 -0.00000000000E+00 -0.32516203563E+03  0.32516203567E+03  0.50400000000E-02 0.  1.
    8880023    1    1    2    0    0 -0.29748519201E+03 -0.44818529283E+03  0.34179194258E+03  0.91651483046E+03  0.65864270000E+03 0.  1.
    8880022    1    1    2    0    0  0.29748519201E+03  0.44818529283E+03  0.20306799201E+04  0.21062811036E+04  0.15294330000E+03 0.  0.
<mgrwt>
<rscale>  0 0.76580490E+03</rscale>
<asrwt>0</asrwt>
<pdfrwt beam="1">  1        1 0.41502061E+00 0.85039856E+03</pdfrwt>
<pdfrwt beam="2">  1       -1 0.50024927E-01 0.85039856E+03</pdfrwt>
<totfact> 0.41283875E+00</totfact>
</mgrwt>
</event>
<event>
 4    1  0.1008211E-007  0.7094233E+03  0.7818608E-02  0.9960149E-01
         -1   -1    0    0    0  501 -0.00000000000E+00  0.00000000000E+00  0.36033234304E+03  0.36033234307E+03  0.50400000000E-02 0.  1.
          1   -1    0    0  501    0  0.00000000000E+00 -0.00000000000E+00 -0.32975890516E+04  0.32975890516E+04  0.50400000000E-02 0. -1.
    8880023    1    1    2    0    0 -0.23798035018E+03 -0.11329831737E+03 -0.45630828153E+01  0.70943793511E+03  0.65864270000E+03 0.  1.
    8880022    1    1    2    0    0  0.23798035018E+03  0.11329831737E+03 -0.29326936258E+04  0.29484834596E+04  0.15294330000E+03 0.  0.
<mgrwt>
<rscale>  0 0.57432708E+03</rscale>
<asrwt>0</asrwt>
<pdfrwt beam="1">  1        1 0.50732137E+00 0.70942326E+03</pdfrwt>
<pdfrwt beam="2">  1       -1 0.55435747E-01 0.70942326E+03</pdfrwt>
<totfact> 0.12915559E+00</totfact>
</mgrwt>
</event>
<event>
 4    1  0.1122350E-007  0.1189006E+04  0.7818608E-02  0.9167884E-01
          1   -1    0    0  501    0  0.00000000000E+00  0.00000000000E+00  0.20434132378E+04  0.20434132378E+04  0.50400000000E-02 0. -1.
         -1   -1    0    0    0  501 -0.00000000000E+00 -0.00000000000E+00 -0.19650710420E+04  0.19650710420E+04  0.50400000000E-02 0.  1.
    8880023    1    1    2    0    0  0.91101540929E+03  0.38726672537E+03 -0.16363189735E+04  0.20226899372E+04  0.65864270000E+03 0.  0.
    8880022    1    1    2    0    0 -0.91101540929E+03 -0.38726672537E+03  0.17146611694E+04  0.19857943426E+04  0.15294330000E+03 0.  0.
<mgrwt>
<rscale>  0 0.11391154E+04</rscale>
<asrwt>0</asrwt>
<pdfrwt beam="1">  1        1 0.31437127E+00 0.11890058E+04</pdfrwt>
<pdfrwt beam="2">  1       -1 0.30231862E+00 0.11890058E+04</pdfrwt>
<totfact> 0.87777467E-02</totfact>
</mgrwt>
</event>
<event>
 4    1  0.1008211E-007  0.8889547E+03  0.7818608E-02  0.9544001E-01
         -1   -1    0    0    0  501 -0.00000000000E+00  0.00000000000E+00  0.58043536268E+03  0.58043536271E+03  0.50400000000E-02 0.  1.
          1   -1    0    0  501    0  0.00000000000E+00 -0.00000000000E+00 -0.21159840224E+04  0.21159840224E+04  0.50400000000E-02 0. -1.
    8880023    1    1    2    0    0 -0.23046953833E+02  0.59657275278E+03  0.15019235794E+03  0.90155319427E+03  0.65864270000E+03 0.  1.
    8880022    1    1    2    0    0  0.23046953833E+02 -0.59657275278E+03 -0.16857410177E+04  0.17948661909E+04  0.15294330000E+03 0.  0.
<mgrwt>
<rscale>  0 0.81116128E+03</rscale>
<asrwt>0</asrwt>
<pdfrwt beam="1">  1        1 0.32553600E+00 0.88895468E+03</pdfrwt>
<pdfrwt beam="2">  1       -1 0.89297750E-01 0.88895468E+03</pdfrwt>
<totfact> 0.31445771E+00</totfact>
</mgrwt>
</event>
<event>
 4    1  0.1008211E-007  0.7224162E+03  0.7818608E-02  0.9914493E-01
          1   -1    0    0  501    0  0.00000000000E+00  0.00000000000E+00  0.21747671472E+04  0.21747671472E+04  0.50400000000E-02 0. -1.
         -1   -1    0    0    0  501 -0.00000000000E+00 -0.00000000000E+00 -0.72077403527E+03  0.72077403529E+03  0.50400000000E-02 0.  1.
    8880023    1    1    2    0    0 -0.28376802237E+03 -0.86894853120E+02 -0.52217012460E+03  0.89137357562E+03  0.65864270000E+03 0.  1.
    8880022    1    1    2    0    0  0.28376802237E+03  0.86894853120E+02  0.19761632366E+04  0.20041676069E+04  0.15294330000E+03 0.  0.
<mgrwt>
<rscale>  0 0.59563985E+03</rscale>
<asrwt>0</asrwt>
<pdfrwt beam="1">  1        1 0.33457955E+00 0.72241623E+03</pdfrwt>
<pdfrwt beam="2">  1       -1 0.11088832E+00 0.72241623E+03</pdfrwt>
<totfact> 0.18061858E+00</totfact>
</mgrwt>
</event>
<event>
 4    1  0.1402449E-007  0.2448966E+04  0.7818608E-02  0.8429330E-01
         -1   -1    0    0    0  501 -0.00000000000E+00  0.00000000000E+00  0.25886895256E+04  0.25886895256E+04  0.50400000000E-02 0.  1.
          1   -1    0    0  501    0  0.00000000000E+00 -0.00000000000E+00 -0.38205879337E+04  0.38205879337E+04  0.50400000000E-02 0. -1.
    8880023    1    1    2    0    0  0.88048557839E+03  0.21882344963E+04  0.14407648414E+04  0.28413445055E+04  0.65864270000E+03 0.  0.
    8880022    1    1    2    0    0 -0.88048557839E+03 -0.21882344963E+04 -0.26726632494E+04  0.35679329538E+04  0.15294330000E+03 0.  0.
<mgrwt>
<rscale>  0 0.24273622E+04</rscale>
<asrwt>0</asrwt>
<pdfrwt beam="1">  1        1 0.58778276E+00 0.24489662E+04</pdfrwt>
<pdfrwt beam="2">  1       -1 0.39825992E+00 0.24489662E+04</pdfrwt>
<totfact> 0.83949054E-04</totfact>
</mgrwt>
</event>
<event>
 4    1  0.1008211E-007  0.8560341E+03  0.7818608E-02  0.9600657E-01
         -1   -1    0    0    0  501 -0.00000000000E+00  0.00000000000E+00  0.15760964578E+04  0.15760964579E+04  0.50400000000E-02 0.  1.
          1   -1    0    0  501    0  0.00000000000E+00 -0.00000000000E+00 -0.64355653275E+03  0.64355653277E+03  0.50400000000E-02 0. -1.
    8880023    1    1    2    0    0 -0.90296749946E+02  0.53928713198E+03  0.12903861330E+04  0.15485124127E+04  0.65864270000E+03 0.  1.
    8880022    1    1    2    0    0  0.90296749946E+02 -0.53928713198E+03 -0.35784620792E+03  0.67114057790E+03  0.15294330000E+03 0.  0.
<mgrwt>
<rscale>  0 0.77252685E+03</rscale>
<asrwt>0</asrwt>
<pdfrwt beam="1">  1        1 0.99008698E-01 0.85603406E+03</pdfrwt>
<pdfrwt beam="2">  1       -1 0.24247638E+00 0.85603406E+03</pdfrwt>
<totfact> 0.24785076E+00</totfact>
</mgrwt>
</event>
<event>
 4    1  0.1008211E-007  0.1665428E+04  0.7818608E-02  0.8800873E-01
         -1   -1    0    0    0  501 -0.00000000000E+00  0.00000000000E+00  0.20070640072E+04  0.20070640072E+04  0.50400000000E-02 0.  1.
          1   -1    0    0  501    0  0.00000000000E+00 -0.00000000000E+00 -0.13290891060E+04  0.13290891060E+04  0.50400000000E-02 0. -1.
    8880023    1    1    2    0    0  0.14146535013E+04  0.58189043802E+03  0.67991580351E+03  0.17988709561E+04  0.65864270000E+03 0.  0.
    8880022    1    1    2    0    0 -0.14146535013E+04 -0.58189043802E+03 -0.19409023774E+01  0.15372821571E+04  0.15294330000E+03 0.  0.
<mgrwt>
<rscale>  0 0.16324232E+04</rscale>
<asrwt>0</asrwt>
<pdfrwt beam="1">  1        1 0.20447525E+00 0.16654282E+04</pdfrwt>
<pdfrwt beam="2">  1       -1 0.30877908E+00 0.16654282E+04</pdfrwt>
<totfact> 0.23240857E-01</totfact>
</mgrwt>
</event>
<event>
 4    1  0.1008211E-007  0.1000578E+04  0.7818608E-02  0.9380802E-01
          1   -1    0    0  501    0  0.00000000000E+00  0.00000000000E+00  0.73239219403E+03  0.73239219405E+03  0.50400000000E-02 0. -1.
         -1   -1    0    0    0  501 -0.00000000000E+00 -0.00000000000E+00 -0.13943392874E+04  0.13943392874E+04  0.50400000000E-02 0.  1.
    8880023    1    1    2    0    0  0.73534112069E+03  0.16315266027E+03 -0.87494794491E+03  0.13291687127E+04  0.65864270000E+03 0. -1.
    8880022    1    1    2    0    0 -0.73534112069E+03 -0.16315266027E+03  0.21300085151E+03  0.79756276875E+03  0.15294330000E+03 0.  0.
<mgrwt>
<rscale>  0 0.93672553E+03</rscale>
<asrwt>0</asrwt>
<pdfrwt beam="1">  1        1 0.11267572E+00 0.10005776E+04</pdfrwt>
<pdfrwt beam="2">  1       -1 0.21451374E+00 0.10005776E+04</pdfrwt>
<totfact> 0.30601018E+00</totfact>
</mgrwt>
</event>
<event>
 4    1  0.1008211E-007  0.9602431E+03  0.7818608E-02  0.9435527E-01
          1   -1    0    0  501    0  0.00000000000E+00  0.00000000000E+00  0.14649102681E+04  0.14649102681E+04  0.50400000000E-02 0. -1.
         -1   -1    0    0    0  501 -0.00000000000E+00 -0.00000000000E+00 -0.60042777724E+03  0.60042777726E+03  0.50400000000E-02 0.  1.
    8880023    1    1    2    0    0  0.25975309732E+03 -0.64867940306E+03  0.22457407858E+02  0.96050569023E+03  0.65864270000E+03 0.  0.
    8880022    1    1    2    0    0 -0.25975309732E+03  0.64867940306E+03  0.84202508295E+03  0.11048323551E+04  0.15294330000E+03 0.  0.
<mgrwt>
<rscale>  0 0.89208727E+03</rscale>
<asrwt>0</asrwt>
<pdfrwt beam="1">  1        1 0.22537081E+00 0.96024312E+03</pdfrwt>
<pdfrwt beam="2">  1       -1 0.92373505E-01 0.96024312E+03</pdfrwt>
<totfact> 0.79687903E+00</totfact>
</mgrwt>
</event>
<event>
 4    1  0.1008211E-007  0.9976043E+03  0.7818608E-02  0.9384699E-01
          1   -1    0    0  501    0  0.00000000000E+00  0.00000000000E+00  0.10602644996E+04  0.10602644996E+04  0.50400000000E-02 0. -1.
         -1   -1    0    0    0  501 -0.00000000000E+00 -0.00000000000E+00 -0.11074577175E+04  0.11074577175E+04  0.50400000000E-02 0.  1.
    8880023    1    1    2    0    0  0.74753907096E+03  0.50887043838E+02 -0.65283103116E+03  0.11922259498E+04  0.65864270000E+03 0.  0.
    8880022    1    1    2    0    0 -0.74753907096E+03 -0.50887043838E+02  0.60563781327E+03  0.97549626740E+03  0.15294330000E+03 0.  0.
<mgrwt>
<rscale>  0 0.93345690E+03</rscale>
<asrwt>0</asrwt>
<pdfrwt beam="1">  1        1 0.16311762E+00 0.99760431E+03</pdfrwt>
<pdfrwt beam="2">  1       -1 0.17037811E+00 0.99760431E+03</pdfrwt>
<totfact> 0.33345745E+00</totfact>
</mgrwt>
</event>
<event>
 4    1  0.1008211E-007  0.7156454E+03  0.7818608E-02  0.9937605E-01
          1   -1    0    0  501    0  0.00000000000E+00  0.00000000000E+00  0.93848262877E+03  0.93848262879E+03  0.50400000000E-02 0. -1.
         -1   -1    0    0    0  501 -0.00000000000E+00 -0.00000000000E+00 -0.93385881473E+03  0.93385881474E+03  0.50400000000E-02 0.  1.
    8880023    1    1    2    0    0 -0.15999828843E+03 -0.22964918156E+03 -0.75997038029E+03  0.10438885880E+04  0.65864270000E+03 0.  1.
    8880022    1    1    2    0    0  0.15999828843E+03  0.22964918156E+03  0.76459419433E+03  0.82845285558E+03  0.15294330000E+03 0.  0.
<mgrwt>
<rscale>  0 0.58472880E+03</rscale>
<asrwt>0</asrwt>
<pdfrwt beam="1">  1        1 0.14438194E+00 0.71564545E+03</pdfrwt>
<pdfrwt beam="2">  1       -1 0.14367059E+00 0.71564545E+03</pdfrwt>
<totfact> 0.68912398E+00</totfact>
</mgrwt>
</event>
<event>
 4    1  0.1008211E-007  0.1016297E+04  0.7818608E-02  0.9360540E-01
          1   -1    0    0  501    0  0.00000000000E+00  0.00000000000E+00  0.13004648973E+04  0.13004648973E+04  0.50400000000E-02 0. -1.
         -1   -1    0    0    0  501 -0.00000000000E+00 -0.00000000000E+00 -0.20855974366E+04  0.20855974366E+04  0.50400000000E-02 0.  1.
    8880023    1    1    2    0    0  0.45587372508E+03  0.62548233183E+03 -0.18201379195E+04  0.20846489520E+04  0.65864270000E+03 0.  0.
    8880022    1    1    2    0    0 -0.45587372508E+03 -0.62548233183E+03  0.10350053802E+04  0.13014133820E+04  0.15294330000E+03 0.  0.
<mgrwt>
<rscale>  0 0.95395451E+03</rscale>
<asrwt>0</asrwt>
<pdfrwt beam="1">  1        1 0.20007152E+00 0.10162968E+04</pdfrwt>
<pdfrwt beam="2">  1       -1 0.32086114E+00 0.10162968E+04</pdfrwt>
<totfact> 0.22172168E-01</totfact>
</mgrwt>
</event>
<event>
 4    1  0.1008211E-007  0.7777545E+03  0.7818608E-02  0.9761138E-01
         -1   -1    0    0    0  501 -0.00000000000E+00  0.00000000000E+00  0.16761168518E+04  0.16761168518E+04  0.50400000000E-02 0.  1.
          1   -1    0    0  501    0  0.00000000000E+00 -0.00000000000E+00 -0.86408687794E+03  0.86408687795E+03  0.50400000000E-02 0. -1.
    8880023    1    1    2    0    0  0.27691575992E+03 -0.30726143997E+03  0.15192459006E+04  0.17067543008E+04  0.65864270000E+03 0.  1.
    8880022    1    1    2    0    0 -0.27691575992E+03  0.30726143997E+03 -0.70721592673E+03  0.83344942895E+03  0.15294330000E+03 0.  0.
<mgrwt>
<rscale>  0 0.67490444E+03</rscale>
<asrwt>0</asrwt>
<pdfrwt beam="1">  1        1 0.13293644E+00 0.77775455E+03</pdfrwt>
<pdfrwt beam="2">  1       -1 0.25786413E+00 0.77775455E+03</pdfrwt>
<totfact> 0.12618843E+00</totfact>
</mgrwt>
</event>
<event>
 4    1  0.1008211E-007  0.1211108E+04  0.7818608E-02  0.9146400E-01
         -1   -1    0    0    0  501 -0.00000000000E+00  0.00000000000E+00  0.72269958003E+03  0.72269958005E+03  0.50400000000E-02 0.  1.
          1   -1    0    0  501    0  0.00000000000E+00 -0.00000000000E+00 -0.21471804368E+04  0.21471804368E+04  0.50400000000E-02 0. -1.
    8880023    1    1    2    0    0 -0.97191050044E+03 -0.29725795007E+03 -0.13159093483E+03  0.12182358926E+04  0.65864270000E+03 0. -1.
    8880022    1    1    2    0    0  0.97191050044E+03  0.29725795007E+03 -0.12928899219E+04  0.16516441242E+04  0.15294330000E+03 0.  0.
<mgrwt>
<rscale>  0 0.11624221E+04</rscale>
<asrwt>0</asrwt>
<pdfrwt beam="1">  1        1 0.33033545E+00 0.12111080E+04</pdfrwt>
<pdfrwt beam="2">  1       -1 0.11118455E+00 0.12111080E+04</pdfrwt>
<totfact> 0.17344853E+00</totfact>
</mgrwt>
</event>
<event>
 4    1  0.1008211E-007  0.6952642E+03  0.7818608E-02  0.1001744E+00
          1   -1    0    0  501    0  0.00000000000E+00  0.00000000000E+00  0.11996195300E+04  0.11996195300E+04  0.50400000000E-02 0. -1.
         -1   -1    0    0    0  501 -0.00000000000E+00 -0.00000000000E+00 -0.19776749334E+03  0.19776749340E+03  0.50400000000E-02 0.  1.
    8880023    1    1    2    0    0  0.15720270851E+03 -0.15770048043E+03  0.63346653479E+03  0.94057014096E+03  0.65864270000E+03 0.  1.
    8880022    1    1    2    0    0 -0.15720270851E+03  0.15770048043E+03  0.36838550182E+03  0.45681688241E+03  0.15294330000E+03 0. -1.
<mgrwt>
<rscale>  0 0.54891901E+03</rscale>
<asrwt>0</asrwt>
<pdfrwt beam="1">  1        1 0.18455685E+00 0.69526422E+03</pdfrwt>
<pdfrwt beam="2">  1       -1 0.30425768E-01 0.69526422E+03</pdfrwt>
<totfact> 0.10901214E+02</totfact>
</mgrwt>
</event>
<event>
 4    1  0.1008211E-007  0.1040935E+04  0.7818608E-02  0.9329858E-01
          1   -1    0    0  501    0  0.00000000000E+00  0.00000000000E+00  0.16320190489E+04  0.16320190489E+04  0.50400000000E-02 0. -1.
         -1   -1    0    0    0  501 -0.00000000000E+00 -0.00000000000E+00 -0.19012797781E+04  0.19012797781E+04  0.50400000000E-02 0.  1.
    8880023    1    1    2    0    0  0.37720785820E+03 -0.71235556425E+03 -0.16360775082E+04  0.19391482762E+04  0.65864270000E+03 0.  1.
    8880022    1    1    2    0    0 -0.37720785820E+03  0.71235556425E+03  0.13668167790E+04  0.15941505508E+04  0.15294330000E+03 0.  0.
<mgrwt>
<rscale>  0 0.98079901E+03</rscale>
<asrwt>0</asrwt>
<pdfrwt beam="1">  1        1 0.25107985E+00 0.10409354E+04</pdfrwt>
<pdfrwt beam="2">  1       -1 0.29250458E+00 0.10409354E+04</pdfrwt>
<totfact> 0.19783637E-01</totfact>
</mgrwt>
</event>
<event>
 4    1  0.1008211E-007  0.1241961E+04  0.7818608E-02  0.9117375E-01
          1   -1    0    0  501    0  0.00000000000E+00  0.00000000000E+00  0.15069855599E+04  0.15069855599E+04  0.50400000000E-02 0. -1.
         -1   -1    0    0    0  501 -0.00000000000E+00 -0.00000000000E+00 -0.10255012814E+04  0.10255012814E+04  0.50400000000E-02 0.  1.
    8880023    1    1    2    0    0  0.10487073607E+04  0.94173428048E+02 -0.21553807453E+03  0.12605247442E+04  0.65864270000E+03 0.  0.
    8880022    1    1    2    0    0 -0.10487073607E+04 -0.94173428048E+02  0.69702235305E+03  0.12719620971E+04  0.15294330000E+03 0.  0.
<mgrwt>
<rscale>  0 0.11948515E+04</rscale>
<asrwt>0</asrwt>
<pdfrwt beam="1">  1        1 0.23184393E+00 0.12419605E+04</pdfrwt>
<pdfrwt beam="2">  1       -1 0.15776943E+00 0.12419605E+04</pdfrwt>
<totfact> 0.19188498E+00</totfact>
</mgrwt>
</event>
<event>
 4    1  0.1008211E-007  0.9216890E+03  0.7818608E-02  0.9492074E-01
          1   -1    0    0  501    0  0.00000000000E+00  0.00000000000E+00  0.12330427520E+04  0.12330427520E+04  0.50400000000E-02 0. -1.
         -1   -1    0    0    0  501 -0.00000000000E+00 -0.00000000000E+00 -0.10911539643E+04  0.10911539643E+04  0.50400000000E-02 0.  1.
    8880023    1    1    2    0    0  0.39187252278E+03  0.51199248474E+03 -0.76721810124E+03  0.11992223312E+04  0.65864270000E+03 0.  1.
    8880022    1    1    2    0    0 -0.39187252278E+03 -0.51199248474E+03  0.90910688896E+03  0.11249743851E+04  0.15294330000E+03 0.  0.
<mgrwt>
<rscale>  0 0.84870692E+03</rscale>
<asrwt>0</asrwt>
<pdfrwt beam="1">  1        1 0.18969889E+00 0.92168898E+03</pdfrwt>
<pdfrwt beam="2">  1       -1 0.16786984E+00 0.92168898E+03</pdfrwt>
<totfact> 0.26170864E+00</totfact>
</mgrwt>
</event>
<event>
 4    1  0.1008211E-007  0.7051807E+03  0.7818608E-02  0.9976352E-01
         -1   -1    0    0    0  501 -0.00000000000E+00  0.00000000000E+00  0.90048402452E+03  0.90048402454E+03  0.50400000000E-02 0.  1.
          1   -1    0    0  501    0  0.00000000000E+00 -0.00000000000E+00 -0.25499833864E+04  0.25499833864E+04  0.50400000000E-02 0. -1.
    8880023    1    1    2    0    0 -0.16982044140E+03 -0.18609296855E+03  0.75202136658E+03  0.10309296374E+04  0.65864270000E+03 0.  1.
    8880022    1    1    2    0    0  0.16982044140E+03  0.18609296855E+03 -0.24015207285E+04  0.24195377735E+04  0.15294330000E+03 0.  0.
<mgrwt>
<rscale>  0 0.56699411E+03</rscale>
<asrwt>0</asrwt>
<pdfrwt beam="1">  1        1 0.39230513E+00 0.70518067E+03</pdfrwt>
<pdfrwt beam="2">  1       -1 0.13853600E+00 0.70518067E+03</pdfrwt>
<totfact> 0.58368166E-01</totfact>
</mgrwt>
</event>
<event>
 4    1  0.1008211E-007  0.9786273E+03  0.7818608E-02  0.9410070E-01
         -1   -1    0    0    0  501 -0.00000000000E+00  0.00000000000E+00  0.11786307696E+04  0.11786307696E+04  0.50400000000E-02 0.  1.
          1   -1    0    0  501    0  0.00000000000E+00 -0.00000000000E+00 -0.14789390801E+04  0.14789390801E+04  0.50400000000E-02 0. -1.
    8880023    1    1    2    0    0 -0.10149568490E+03 -0.71665878390E+03  0.84577192862E+03  0.12934610733E+04  0.65864270000E+03 0.  0.
    8880022    1    1    2    0    0  0.10149568490E+03  0.71665878390E+03 -0.11460802391E+04  0.13641087765E+04  0.15294330000E+03 0.  0.
<mgrwt>
<rscale>  0 0.91251595E+03</rscale>
<asrwt>0</asrwt>
<pdfrwt beam="1">  1        1 0.22752909E+00 0.97862730E+03</pdfrwt>
<pdfrwt beam="2">  1       -1 0.18132781E+00 0.97862730E+03</pdfrwt>
<totfact> 0.13903500E+00</totfact>
</mgrwt>
</event>
<event>
 4    1  0.1008211E-007  0.7335709E+03  0.7818608E-02  0.9879086E-01
         -1   -1    0    0    0  501 -0.00000000000E+00  0.00000000000E+00  0.10880132766E+04  0.10880132766E+04  0.50400000000E-02 0.  1.
          1   -1    0    0  501    0  0.00000000000E+00 -0.00000000000E+00 -0.75810350408E+03  0.75810350410E+03  0.50400000000E-02 0. -1.
    8880023    1    1    2    0    0  0.32006627026E+03 -0.43285922840E+02  0.90750069869E+03  0.11669120845E+04  0.65864270000E+03 0.  1.
    8880022    1    1    2    0    0 -0.32006627026E+03  0.43285922840E+02 -0.57759092614E+03  0.67920469628E+03  0.15294330000E+03 0.  0.
<mgrwt>
<rscale>  0 0.61285641E+03</rscale>
<asrwt>0</asrwt>
<pdfrwt beam="1">  1        1 0.11663131E+00 0.73357092E+03</pdfrwt>
<pdfrwt beam="2">  1       -1 0.16738666E+00 0.73357092E+03</pdfrwt>
<totfact> 0.64206714E+00</totfact>
</mgrwt>
</event>
<event>
 4    1  0.1008211E-007  0.7528135E+03  0.7818608E-02  0.9824081E-01
          1   -1    0    0  501    0  0.00000000000E+00  0.00000000000E+00  0.16185776225E+04  0.16185776225E+04  0.50400000000E-02 0. -1.
         -1   -1    0    0    0  501 -0.00000000000E+00 -0.00000000000E+00 -0.27815097393E+03  0.27815097397E+03  0.50400000000E-02 0.  1.
    8880023    1    1    2    0    0  0.36407816216E+03 -0.19104648704E+02  0.12961319909E+04  0.14988950063E+04  0.65864270000E+03 0.  0.
    8880022    1    1    2    0    0 -0.36407816216E+03  0.19104648704E+02  0.44294657653E+02  0.39783359018E+03  0.15294330000E+03 0.  0.
<mgrwt>
<rscale>  0 0.64086082E+03</rscale>
<asrwt>0</asrwt>
<pdfrwt beam="1">  1        1 0.24901194E+00 0.75281346E+03</pdfrwt>
<pdfrwt beam="2">  1       -1 0.42792458E-01 0.75281346E+03</pdfrwt>
<totfact> 0.30097984E+01</totfact>
</mgrwt>
</event>
<event>
 4    1  0.1008211E-007  0.6807961E+03  0.7818608E-02  0.1008877E+00
          1   -1    0    0  501    0  0.00000000000E+00  0.00000000000E+00  0.24538828607E+03  0.24538828613E+03  0.50400000000E-02 0. -1.
         -1   -1    0    0    0  501 -0.00000000000E+00 -0.00000000000E+00 -0.15887846292E+04  0.15887846292E+04  0.50400000000E-02 0.  1.
    8880023    1    1    2    0    0 -0.16106171139E+03  0.61091597506E+02 -0.14333987525E+04  0.15868570346E+04  0.65864270000E+03 0.  1.
    8880022    1    1    2    0    0  0.16106171139E+03 -0.61091597506E+02  0.90002409406E+02  0.24731588076E+03  0.15294330000E+03 0.  0.
<mgrwt>
<rscale>  0 0.51923445E+03</rscale>
<asrwt>0</asrwt>
<pdfrwt beam="1">  1        1 0.37752045E-01 0.68079605E+03</pdfrwt>
<pdfrwt beam="2">  1       -1 0.24442840E+00 0.68079605E+03</pdfrwt>
<totfact> 0.90209446E+00</totfact>
</mgrwt>
</event>
<event>
 4    1  0.1008211E-007  0.1129655E+04  0.7818608E-02  0.9228736E-01
         -1   -1    0    0    0  501 -0.00000000000E+00  0.00000000000E+00  0.88688865612E+03  0.88688865614E+03  0.50400000000E-02 0.  1.
          1   -1    0    0  501    0  0.00000000000E+00 -0.00000000000E+00 -0.20865766062E+04  0.20865766062E+04  0.50400000000E-02 0. -1.
    8880023    1    1    2    0    0 -0.88938415121E+03 -0.22650737886E+03  0.33542036369E+03  0.11784000966E+04  0.65864270000E+03 0.  0.
    8880022    1    1    2    0    0  0.88938415121E+03  0.22650737886E+03 -0.15351083138E+04  0.17950651657E+04  0.15294330000E+03 0.  0.
<mgrwt>
<rscale>  0 0.10761686E+04</rscale>
<asrwt>0</asrwt>
<pdfrwt beam="1">  1        1 0.32101178E+00 0.11296548E+04</pdfrwt>
<pdfrwt beam="2">  1       -1 0.13644441E+00 0.11296548E+04</pdfrwt>
<totfact> 0.11586343E+00</totfact>
</mgrwt>
</event>
<event>
 4    1  0.1008211E-007  0.7518604E+03  0.7818608E-02  0.9826655E-01
          1   -1    0    0  501    0  0.00000000000E+00  0.00000000000E+00  0.54452348054E+03  0.54452348056E+03  0.50400000000E-02 0. -1.
         -1   -1    0    0    0  501 -0.00000000000E+00 -0.00000000000E+00 -0.88861457361E+03  0.88861457363E+03  0.50400000000E-02 0.  1.
    8880023    1    1    2    0    0  0.32906286698E+03  0.15232010239E+03 -0.60152557954E+03  0.96287434960E+03  0.65864270000E+03 0.  0.
    8880022    1    1    2    0    0 -0.32906286698E+03 -0.15232010239E+03  0.25743448646E+03  0.47026370459E+03  0.15294330000E+03 0.  0.
<mgrwt>
<rscale>  0 0.63951496E+03</rscale>
<asrwt>0</asrwt>
<pdfrwt beam="1">  1        1 0.83772843E-01 0.75186035E+03</pdfrwt>
<pdfrwt beam="2">  1       -1 0.13670993E+00 0.75186035E+03</pdfrwt>
<totfact> 0.18011069E+01</totfact>
</mgrwt>
</event>
<event>
 4    1  0.1008211E-007  0.7131933E+03  0.7818608E-02  0.9946329E-01
          1   -1    0    0  501    0  0.00000000000E+00  0.00000000000E+00  0.20774573462E+04  0.20774573462E+04  0.50400000000E-02 0. -1.
         -1   -1    0    0    0  501 -0.00000000000E+00 -0.00000000000E+00 -0.32642995070E+03  0.32642995074E+03  0.50400000000E-02 0.  1.
    8880023    1    1    2    0    0  0.27101478399E+03  0.37221044357E+02  0.96210980349E+02  0.71965351266E+03  0.65864270000E+03 0.  1.
    8880022    1    1    2    0    0 -0.27101478399E+03 -0.37221044357E+02  0.16548164152E+04  0.16842337843E+04  0.15294330000E+03 0.  0.
<mgrwt>
<rscale>  0 0.58067586E+03</rscale>
<asrwt>0</asrwt>
<pdfrwt beam="1">  1        1 0.31960882E+00 0.71319326E+03</pdfrwt>
<pdfrwt beam="2">  1       -1 0.50219992E-01 0.71319326E+03</pdfrwt>
<totfact> 0.11060614E+01</totfact>
</mgrwt>
</event>
<event>
 4    1  0.1008211E-007  0.7206068E+03  0.7818608E-02  0.9920538E-01
         -1   -1    0    0    0  501 -0.00000000000E+00  0.00000000000E+00  0.49133599836E+03  0.49133599839E+03  0.50400000000E-02 0.  1.
          1   -1    0    0  501    0  0.00000000000E+00 -0.00000000000E+00 -0.97771249756E+03  0.97771249757E+03  0.50400000000E-02 0. -1.
    8880023    1    1    2    0    0  0.29229849950E+03  0.50589218829E+01  0.16466232621E+03  0.73918055537E+03  0.65864270000E+03 0.  1.
    8880022    1    1    2    0    0 -0.29229849950E+03 -0.50589218829E+01 -0.65103882540E+03  0.72986794059E+03  0.15294330000E+03 0.  0.
<mgrwt>
<rscale>  0 0.59276173E+03</rscale>
<asrwt>0</asrwt>
<pdfrwt beam="1">  1        1 0.15041731E+00 0.72060684E+03</pdfrwt>
<pdfrwt beam="2">  1       -1 0.75590154E-01 0.72060684E+03</pdfrwt>
<totfact> 0.28554834E+01</totfact>
</mgrwt>
</event>
<event>
 4    1  0.1008211E-007  0.7542727E+03  0.7818608E-02  0.9820167E-01
         -1   -1    0    0    0  501 -0.00000000000E+00  0.00000000000E+00  0.29469359922E+03  0.29469359926E+03  0.50400000000E-02 0.  1.
          1   -1    0    0  501    0  0.00000000000E+00 -0.00000000000E+00 -0.18970369618E+04  0.18970369618E+04  0.50400000000E-02 0. -1.
    8880023    1    1    2    0    0  0.12065510908E+03 -0.34721660823E+03 -0.26994718824E+03  0.80112341064E+03  0.65864270000E+03 0.  0.
    8880022    1    1    2    0    0 -0.12065510908E+03  0.34721660823E+03 -0.13323961743E+04  0.13906071504E+04  0.15294330000E+03 0.  0.
<mgrwt>
<rscale>  0 0.64291403E+03</rscale>
<asrwt>0</asrwt>
<pdfrwt beam="1">  1        1 0.29185183E+00 0.75427265E+03</pdfrwt>
<pdfrwt beam="2">  1       -1 0.45337478E-01 0.75427265E+03</pdfrwt>
<totfact> 0.17578468E+01</totfact>
</mgrwt>
</event>
<event>
 4    1  0.1008211E-007  0.1084546E+04  0.7818608E-02  0.9278461E-01
          1   -1    0    0  501    0  0.00000000000E+00  0.00000000000E+00  0.21392245539E+04  0.21392245539E+04  0.50400000000E-02 0. -1.
         -1   -1    0    0    0  501 -0.00000000000E+00 -0.00000000000E+00 -0.64735981771E+03  0.64735981773E+03  0.50400000000E-02 0.  1.
    8880023    1    1    2    0    0 -0.49722054923E+03 -0.70370524419E+03  0.32602285898E+02  0.10850356955E+04  0.65864270000E+03 0.  0.
    8880022    1    1    2    0    0  0.49722054923E+03  0.70370524419E+03  0.14592624503E+04  0.17015486761E+04  0.15294330000E+03 0.  0.
<mgrwt>
<rscale>  0 0.10279023E+04</rscale>
<asrwt>0</asrwt>
<pdfrwt beam="1">  1        1 0.32911147E+00 0.10845458E+04</pdfrwt>
<pdfrwt beam="2">  1       -1 0.99593818E-01 0.10845458E+04</pdfrwt>
<totfact> 0.23087634E+00</totfact>
</mgrwt>
</event>
<event>
 4    1  0.1008211E-007  0.6635347E+03  0.7818608E-02  0.1020796E+00
          1   -1    0    0  501    0  0.00000000000E+00  0.00000000000E+00  0.49182453106E+03  0.49182453108E+03  0.50400000000E-02 0. -1.
         -1   -1    0    0    0  501 -0.00000000000E+00 -0.00000000000E+00 -0.80840683736E+03  0.80840683738E+03  0.50400000000E-02 0.  1.
    8880023    1    1    2    0    0 -0.80270597344E+02 -0.49761164464E+01 -0.64737538870E+03  0.92702385659E+03  0.65864270000E+03 0.  1.
    8880022    1    1    2    0    0  0.80270597344E+02  0.49761164464E+01  0.33079308240E+03  0.37320751186E+03  0.15294330000E+03 0.  0.
<mgrwt>
<rscale>  0 0.47400571E+03</rscale>
<asrwt>0</asrwt>
<pdfrwt beam="1">  1        1 0.75665313E-01 0.66353473E+03</pdfrwt>
<pdfrwt beam="2">  1       -1 0.12437028E+00 0.66353473E+03</pdfrwt>
<totfact> 0.26569017E+01</totfact>
</mgrwt>
</event>
<event>
 4    1  0.1008211E-007  0.7235486E+03  0.7818608E-02  0.9910757E-01
          1   -1    0    0  501    0  0.00000000000E+00  0.00000000000E+00  0.47282106897E+03  0.47282106899E+03  0.50400000000E-02 0. -1.
         -1   -1    0    0    0  501 -0.00000000000E+00 -0.00000000000E+00 -0.16772364388E+04  0.16772364388E+04  0.50400000000E-02 0.  1.
    8880023    1    1    2    0    0 -0.14428329711E+03 -0.26247789503E+03 -0.15234228714E+04  0.16865170519E+04  0.65864270000E+03 0.  1.
    8880022    1    1    2    0    0  0.14428329711E+03  0.26247789503E+03  0.31900750151E+03  0.46354045588E+03  0.15294330000E+03 0.  0.
<mgrwt>
<rscale>  0 0.59742789E+03</rscale>
<asrwt>0</asrwt>
<pdfrwt beam="1">  1        1 0.72741703E-01 0.72354856E+03</pdfrwt>
<pdfrwt beam="2">  1       -1 0.25803637E+00 0.72354856E+03</pdfrwt>
<totfact> 0.31000594E+00</totfact>
</mgrwt>
</event>
<event>
 4    1  0.1008211E-007  0.7962678E+03  0.7818608E-02  0.9718925E-01
          1   -1    0    0  501    0  0.00000000000E+00  0.00000000000E+00  0.24726740120E+04  0.24726740120E+04  0.50400000000E-02 0. -1.
         -1   -1    0    0    0  501 -0.00000000000E+00 -0.00000000000E+00 -0.44291670561E+03  0.44291670564E+03  0.50400000000E-02 0.  1.
    8880023    1    1    2    0    0 -0.19265817532E+03 -0.40387504031E+03 -0.35330040934E+02  0.79705121464E+03  0.65864270000E+03 0.  0.
    8880022    1    1    2    0    0  0.19265817532E+03  0.40387504031E+03  0.20650873473E+04  0.21185395030E+04  0.15294330000E+03 0.  0.
<mgrwt>
<rscale>  0 0.69901121E+03</rscale>
<asrwt>0</asrwt>
<pdfrwt beam="1">  1        1 0.38041139E+00 0.79626781E+03</pdfrwt>
<pdfrwt beam="2">  1       -1 0.68141032E-01 0.79626781E+03</pdfrwt>
<totfact> 0.32454124E+00</totfact>
</mgrwt>
</event>
<event>
 4    1  0.1008211E-007  0.8346162E+03  0.7818608E-02  0.9640417E-01
          1   -1    0    0  501    0  0.00000000000E+00  0.00000000000E+00  0.12972461610E+04  0.12972461610E+04  0.50400000000E-02 0. -1.
         -1   -1    0    0    0  501 -0.00000000000E+00 -0.00000000000E+00 -0.60590458620E+03  0.60590458622E+03  0.50400000000E-02 0.  1.
    8880023    1    1    2    0    0  0.13265004754E+03  0.49515445661E+03 -0.20490054479E+03  0.85940002940E+03  0.65864270000E+03 0.  0.
    8880022    1    1    2    0    0 -0.13265004754E+03 -0.49515445661E+03  0.89624211954E+03  0.10437507178E+04  0.15294330000E+03 0.  0.
<mgrwt>
<rscale>  0 0.74677932E+03</rscale>
<asrwt>0</asrwt>
<pdfrwt beam="1">  1        1 0.19957633E+00 0.83461619E+03</pdfrwt>
<pdfrwt beam="2">  1       -1 0.93216090E-01 0.83461619E+03</pdfrwt>
<totfact> 0.10392905E+01</totfact>
</mgrwt>
</event>
<event>
 4    1  0.1008211E-007  0.7480472E+03  0.7818608E-02  0.9837097E-01
          1   -1    0    0  501    0  0.00000000000E+00  0.00000000000E+00  0.19830948623E+04  0.19830948623E+04  0.50400000000E-02 0. -1.
         -1   -1    0    0    0  501 -0.00000000000E+00 -0.00000000000E+00 -0.30043633759E+03  0.30043633763E+03  0.50400000000E-02 0.  1.
    8880023    1    1    2    0    0 -0.26341603564E+03  0.23743699509E+03  0.23327688895E+03  0.78357682945E+03  0.65864270000E+03 0.  0.
    8880022    1    1    2    0    0  0.26341603564E+03 -0.23743699509E+03  0.14493816357E+04  0.14999543705E+04  0.15294330000E+03 0.  0.
<mgrwt>
<rscale>  0 0.63409133E+03</rscale>
<asrwt>0</asrwt>
<pdfrwt beam="1">  1        1 0.30509151E+00 0.74804715E+03</pdfrwt>
<pdfrwt beam="2">  1       -1 0.46220975E-01 0.74804715E+03</pdfrwt>
<totfact> 0.14867236E+01</totfact>
</mgrwt>
</event>
<event>
 4    1  0.1008211E-007  0.1146188E+04  0.7818608E-02  0.9211294E-01
          1   -1    0    0  501    0  0.00000000000E+00  0.00000000000E+00  0.86060473072E+03  0.86060473074E+03  0.50400000000E-02 0. -1.
         -1   -1    0    0    0  501 -0.00000000000E+00 -0.00000000000E+00 -0.15999869203E+04  0.15999869203E+04  0.50400000000E-02 0.  1.
    8880023    1    1    2    0    0  0.93796099856E+03 -0.12893632091E+02 -0.94811540913E+03  0.14875046608E+04  0.65864270000E+03 0.  1.
    8880022    1    1    2    0    0 -0.93796099856E+03  0.12893632091E+02  0.20873321958E+03  0.97308699023E+03  0.15294330000E+03 0.  0.
<mgrwt>
<rscale>  0 0.10937616E+04</rscale>
<asrwt>0</asrwt>
<pdfrwt beam="1">  1        1 0.13240073E+00 0.11461882E+04</pdfrwt>
<pdfrwt beam="2">  1       -1 0.24615183E+00 0.11461882E+04</pdfrwt>
<totfact> 0.14339307E+00</totfact>
</mgrwt>
</event>
<event>
 4    1  0.1008211E-007  0.8116935E+03  0.7818608E-02  0.9686060E-01
          1   -1    0    0  501    0  0.00000000000E+00  0.00000000000E+00  0.52633982147E+03  0.52633982149E+03  0.50400000000E-02 0. -1.
         -1   -1    0    0    0  501 -0.00000000000E+00 -0.00000000000E+00 -0.16432874777E+04  0.16432874777E+04  0.50400000000E-02 0.  1.
    8880023    1    1    2    0    0 -0.30678446007E+02 -0.47338663596E+03 -0.13837784921E+04  0.16042721700E+04  0.65864270000E+03 0.  0.
    8880022    1    1    2    0    0  0.30678446007E+02  0.47338663596E+03  0.26683083581E+03  0.56535512920E+03  0.15294330000E+03 0.  0.
<mgrwt>
<rscale>  0 0.71852858E+03</rscale>
<asrwt>0</asrwt>
<pdfrwt beam="1">  1        1 0.80975358E-01 0.81169346E+03</pdfrwt>
<pdfrwt beam="2">  1       -1 0.25281346E+00 0.81169346E+03</pdfrwt>
<totfact> 0.28514808E+00</totfact>
</mgrwt>
</event>
<event>
 4    1  0.1008211E-007  0.7651879E+03  0.7818608E-02  0.9791857E-01
          1   -1    0    0  501    0  0.00000000000E+00  0.00000000000E+00  0.38694528788E+03  0.38694528792E+03  0.50400000000E-02 0. -1.
         -1   -1    0    0    0  501 -0.00000000000E+00 -0.00000000000E+00 -0.13535676127E+04  0.13535676127E+04  0.50400000000E-02 0.  1.
    8880023    1    1    2    0    0 -0.90487289269E+02  0.37883298160E+03 -0.10643018870E+04  0.13108207697E+04  0.65864270000E+03 0.  1.
    8880022    1    1    2    0    0  0.90487289269E+02 -0.37883298160E+03  0.97679562175E+02  0.42969213089E+03  0.15294330000E+03 0.  0.
<mgrwt>
<rscale>  0 0.65801380E+03</rscale>
<asrwt>0</asrwt>
<pdfrwt beam="1">  1        1 0.59530045E-01 0.76518794E+03</pdfrwt>
<pdfrwt beam="2">  1       -1 0.20824117E+00 0.76518794E+03</pdfrwt>
<totfact> 0.85429582E+00</totfact>
</mgrwt>
</event>
<event>
 4    1  0.1008211E-007  0.1451418E+04  0.7818608E-02  0.8944726E-01
          1   -1    0    0  501    0  0.00000000000E+00  0.00000000000E+00  0.21020403565E+04  0.21020403565E+04  0.50400000000E-02 0. -1.
         -1   -1    0    0    0  501 -0.00000000000E+00 -0.00000000000E+00 -0.91843478483E+03  0.91843478484E+03  0.50400000000E-02 0.  1.
    8880023    1    1    2    0    0  0.11440685120E+04 -0.60324958302E+03  0.42096887252E+03  0.15112338725E+04  0.65864270000E+03 0. -1.
    8880022    1    1    2    0    0 -0.11440685120E+04  0.60324958302E+03  0.76263669918E+03  0.15092412688E+04  0.15294330000E+03 0.  1.
<mgrwt>
<rscale>  0 0.14126310E+04</rscale>
<asrwt>0</asrwt>
<pdfrwt beam="1">  1        1 0.32339082E+00 0.14514176E+04</pdfrwt>
<pdfrwt beam="2">  1       -1 0.14129766E+00 0.14514176E+04</pdfrwt>
<totfact> 0.99313574E-01</totfact>
</mgrwt>
</event>
<event>
 4    1  0.1008211E-007  0.1106892E+04  0.7818608E-02  0.9253421E-01
          1   -1    0    0  501    0  0.00000000000E+00  0.00000000000E+00  0.15891940996E+04  0.15891940996E+04  0.50400000000E-02 0. -1.
         -1   -1    0    0    0  501 -0.00000000000E+00 -0.00000000000E+00 -0.12196823098E+04  0.12196823098E+04  0.50400000000E-02 0.  1.
    8880023    1    1    2    0    0  0.63812853510E+02  0.88731477062E+03 -0.77500538743E+03  0.13512376324E+04  0.65864270000E+03 0.  0.
    8880022    1    1    2    0    0 -0.63812853510E+02 -0.88731477062E+03  0.11445171772E+04  0.14576387771E+04  0.15294330000E+03 0.  0.
<mgrwt>
<rscale>  0 0.10518643E+04</rscale>
<asrwt>0</asrwt>
<pdfrwt beam="1">  1        1 0.24449140E+00 0.11068919E+04</pdfrwt>
<pdfrwt beam="2">  1       -1 0.18764343E+00 0.11068919E+04</pdfrwt>
<totfact> 0.10338240E+00</totfact>
</mgrwt>
</event>
<event>
 4    1  0.1008211E-007  0.7488217E+03  0.7818608E-02  0.9834957E-01
         -1   -1    0    0    0  501 -0.00000000000E+00  0.00000000000E+00  0.47217038725E+03  0.47217038728E+03  0.50400000000E-02 0.  1.
          1   -1    0    0  501    0  0.00000000000E+00 -0.00000000000E+00 -0.84607487250E+03  0.84607487251E+03  0.50400000000E-02 0. -1.
    8880023    1    1    2    0    0  0.15622140999E+03 -0.32018526625E+03  0.41566676811E+02  0.74997448526E+03  0.65864270000E+03 0.  0.
    8880022    1    1    2    0    0 -0.15622140999E+03  0.32018526625E+03 -0.41547116206E+03  0.56827077453E+03  0.15294330000E+03 0.  0.
<mgrwt>
<rscale>  0 0.63519818E+03</rscale>
<asrwt>0</asrwt>
<pdfrwt beam="1">  1        1 0.13016536E+00 0.74882170E+03</pdfrwt>
<pdfrwt beam="2">  1       -1 0.72641598E-01 0.74882170E+03</pdfrwt>
<totfact> 0.39516282E+01</totfact>
</mgrwt>
</event>
<event>
 4    1  0.1008211E-007  0.7800203E+03  0.7818608E-02  0.9755789E-01
         -1   -1    0    0    0  501 -0.00000000000E+00  0.00000000000E+00  0.23753534876E+03  0.23753534881E+03  0.50400000000E-02 0.  1.
          1   -1    0    0  501    0  0.00000000000E+00 -0.00000000000E+00 -0.24073706987E+04  0.24073706987E+04  0.50400000000E-02 0. -1.
    8880023    1    1    2    0    0  0.18845823823E+03  0.37296777667E+03 -0.52328691144E+03  0.93928742563E+03  0.65864270000E+03 0.  1.
    8880022    1    1    2    0    0 -0.18845823823E+03 -0.37296777667E+03 -0.16465484385E+04  0.17056186219E+04  0.15294330000E+03 0.  0.
<mgrwt>
<rscale>  0 0.67790085E+03</rscale>
<asrwt>0</asrwt>
<pdfrwt beam="1">  1        1 0.37036471E+00 0.78002031E+03</pdfrwt>
<pdfrwt beam="2">  1       -1 0.36543902E-01 0.78002031E+03</pdfrwt>
<totfact> 0.11790147E+01</totfact>
</mgrwt>
</event>
<event>
 4    1  0.1008211E-007  0.8521676E+03  0.7818608E-02  0.9607651E-01
          1   -1    0    0  501    0  0.00000000000E+00  0.00000000000E+00  0.66850858723E+03  0.66850858725E+03  0.50400000000E-02 0. -1.
         -1   -1    0    0    0  501 -0.00000000000E+00 -0.00000000000E+00 -0.10778245342E+04  0.10778245342E+04  0.50400000000E-02 0.  1.
    8880023    1    1    2    0    0 -0.13135591742E+03  0.52452360366E+03 -0.70984247782E+03  0.11090833771E+04  0.65864270000E+03 0. -1.
    8880022    1    1    2    0    0  0.13135591742E+03 -0.52452360366E+03  0.30052653089E+03  0.63724974430E+03  0.15294330000E+03 0.  0.
<mgrwt>
<rscale>  0 0.76791879E+03</rscale>
<asrwt>0</asrwt>
<pdfrwt beam="1">  1        1 0.10284748E+00 0.85216759E+03</pdfrwt>
<pdfrwt beam="2">  1       -1 0.16581916E+00 0.85216759E+03</pdfrwt>
<totfact> 0.78641933E+00</totfact>
</mgrwt>
</event>
<event>
 4    1  0.1008211E-007  0.6678440E+03  0.7818608E-02  0.1017258E+00
         -1   -1    0    0    0  501 -0.00000000000E+00  0.00000000000E+00  0.51441803757E+03  0.51441803759E+03  0.50400000000E-02 0.  1.
          1   -1    0    0  501    0  0.00000000000E+00 -0.00000000000E+00 -0.43189241294E+03  0.43189241296E+03  0.50400000000E-02 0. -1.
    8880023    1    1    2    0    0  0.83018855113E+02 -0.72892268382E+02  0.23053169712E+03  0.70651290344E+03  0.65864270000E+03 0.  1.
    8880022    1    1    2    0    0 -0.83018855113E+02  0.72892268382E+02 -0.14800607248E+03  0.23979754711E+03  0.15294330000E+03 0.  0.
<mgrwt>
<rscale>  0 0.48689246E+03</rscale>
<asrwt>0</asrwt>
<pdfrwt beam="1">  1        1 0.66444986E-01 0.66784401E+03</pdfrwt>
<pdfrwt beam="2">  1       -1 0.79141237E-01 0.66784401E+03</pdfrwt>
<totfact> 0.88491419E+01</totfact>
</mgrwt>
</event>
<event>
 4    1  0.1008211E-007  0.1510025E+04  0.7818608E-02  0.8902589E-01
         -1   -1    0    0    0  501 -0.00000000000E+00  0.00000000000E+00  0.29949558707E+04  0.29949558707E+04  0.50400000000E-02 0.  1.
          1   -1    0    0  501    0  0.00000000000E+00 -0.00000000000E+00 -0.13307444159E+04  0.13307444159E+04  0.50400000000E-02 0. -1.
    8880023    1    1    2    0    0 -0.56473574237E+03  0.12358965267E+04  0.23520509496E+04  0.27950528723E+04  0.65864270000E+03 0.  0.
    8880022    1    1    2    0    0  0.56473574237E+03 -0.12358965267E+04 -0.68783949470E+03  0.15306474143E+04  0.15294330000E+03 0.  0.
<mgrwt>
<rscale>  0 0.14730293E+04</rscale>
<asrwt>0</asrwt>
<pdfrwt beam="1">  1        1 0.20472991E+00 0.15100255E+04</pdfrwt>
<pdfrwt beam="2">  1       -1 0.46076243E+00 0.15100255E+04</pdfrwt>
<totfact> 0.22163312E-02</totfact>
</mgrwt>
</event>
<event>
 4    1  0.1008211E-007  0.1140171E+04  0.7818608E-02  0.9217596E-01
          1   -1    0    0  501    0  0.00000000000E+00  0.00000000000E+00  0.32512557891E+04  0.32512557891E+04  0.50400000000E-02 0. -1.
         -1   -1    0    0    0  501 -0.00000000000E+00 -0.00000000000E+00 -0.42759671511E+03  0.42759671514E+03  0.50400000000E-02 0.  1.
    8880023    1    1    2    0    0  0.43704375786E+03 -0.82168814794E+03  0.65726262016E+03  0.13160482578E+04  0.65864270000E+03 0.  0.
    8880022    1    1    2    0    0 -0.43704375786E+03  0.82168814794E+03  0.21663964538E+04  0.23628042464E+04  0.15294330000E+03 0.  0.
<mgrwt>
<rscale>  0 0.10873639E+04</rscale>
<asrwt>0</asrwt>
<pdfrwt beam="1">  1        1 0.50019321E+00 0.11401705E+04</pdfrwt>
<pdfrwt beam="2">  1       -1 0.65784108E-01 0.11401705E+04</pdfrwt>
<totfact> 0.92142844E-01</totfact>
</mgrwt>
</event>
<event>
 4    1  0.1008211E-007  0.1027621E+04  0.7818608E-02  0.9346280E-01
         -1   -1    0    0    0  501 -0.00000000000E+00  0.00000000000E+00  0.95884225637E+03  0.95884225638E+03  0.50400000000E-02 0.  1.
          1   -1    0    0  501    0  0.00000000000E+00 -0.00000000000E+00 -0.30616022374E+04  0.30616022374E+04  0.50400000000E-02 0. -1.
    8880023    1    1    2    0    0  0.40795018675E+03 -0.67510900106E+03  0.60738564500E+03  0.11937014058E+04  0.65864270000E+03 0.  0.
    8880022    1    1    2    0    0 -0.40795018675E+03  0.67510900106E+03 -0.27101456261E+04  0.28267430880E+04  0.15294330000E+03 0.  0.
<mgrwt>
<rscale>  0 0.96631610E+03</rscale>
<asrwt>0</asrwt>
<pdfrwt beam="1">  1        1 0.47101572E+00 0.10276214E+04</pdfrwt>
<pdfrwt beam="2">  1       -1 0.14751419E+00 0.10276214E+04</pdfrwt>
<totfact> 0.20125223E-01</totfact>
</mgrwt>
</event>
<event>
 4    1  0.1008211E-007  0.1363275E+04  0.7818608E-02  0.9012757E-01
          1   -1    0    0  501    0  0.00000000000E+00  0.00000000000E+00  0.15390855071E+04  0.15390855071E+04  0.50400000000E-02 0. -1.
         -1   -1    0    0    0  501 -0.00000000000E+00 -0.00000000000E+00 -0.12496521935E+04  0.12496521935E+04  0.50400000000E-02 0.  1.
    8880023    1    1    2    0    0 -0.51404868186E+03  0.10772476916E+04 -0.37528028063E+03  0.14139851950E+04  0.65864270000E+03 0.  0.
    8880022    1    1    2    0    0  0.51404868186E+03 -0.10772476916E+04  0.66471359427E+03  0.13747525056E+04  0.15294330000E+03 0.  0.
<mgrwt>
<rscale>  0 0.13214096E+04</rscale>
<asrwt>0</asrwt>
<pdfrwt beam="1">  1        1 0.23678239E+00 0.13632750E+04</pdfrwt>
<pdfrwt beam="2">  1       -1 0.19225418E+00 0.13632750E+04</pdfrwt>
<totfact> 0.10069742E+00</totfact>
</mgrwt>
</event>
<event>
 4    1  0.1008211E-007  0.8702406E+03  0.7818608E-02  0.9575601E-01
          1   -1    0    0  501    0  0.00000000000E+00  0.00000000000E+00  0.19690527291E+04  0.19690527291E+04  0.50400000000E-02 0. -1.
         -1   -1    0    0    0  501 -0.00000000000E+00 -0.00000000000E+00 -0.83423315302E+03  0.83423315304E+03  0.50400000000E-02 0.  1.
    8880023    1    1    2    0    0  0.42473613836E+03 -0.37829588420E+03 -0.54255065327E+03  0.10255144957E+04  0.65864270000E+03 0.  0.
    8880022    1    1    2    0    0 -0.42473613836E+03  0.37829588420E+03  0.16773702294E+04  0.17777713865E+04  0.15294330000E+03 0.  0.
<mgrwt>
<rscale>  0 0.78932361E+03</rscale>
<asrwt>0</asrwt>
<pdfrwt beam="1">  1        1 0.30293118E+00 0.87024064E+03</pdfrwt>
<pdfrwt beam="2">  1       -1 0.12834356E+00 0.87024064E+03</pdfrwt>
<totfact> 0.16899859E+00</totfact>
</mgrwt>
</event>
<event>
 4    1  0.1008211E-007  0.1097899E+04  0.7818608E-02  0.9263399E-01
          1   -1    0    0  501    0  0.00000000000E+00  0.00000000000E+00  0.32031270540E+04  0.32031270540E+04  0.50400000000E-02 0. -1.
         -1   -1    0    0    0  501 -0.00000000000E+00 -0.00000000000E+00 -0.10377568529E+04  0.10377568529E+04  0.50400000000E-02 0.  1.
    8880023    1    1    2    0    0  0.79926055399E+03 -0.36435379779E+03 -0.65806649381E+03  0.12800128279E+04  0.65864270000E+03 0.  0.
    8880022    1    1    2    0    0 -0.79926055399E+03  0.36435379779E+03  0.28234366949E+04  0.29608710790E+04  0.15294330000E+03 0.  0.
<mgrwt>
<rscale>  0 0.10422335E+04</rscale>
<asrwt>0</asrwt>
<pdfrwt beam="1">  1        1 0.49278877E+00 0.10978986E+04</pdfrwt>
<pdfrwt beam="2">  1       -1 0.15965490E+00 0.10978986E+04</pdfrwt>
<totfact> 0.12594704E-01</totfact>
</mgrwt>
</event>
<event>
 4    1  0.1008211E-007  0.7259029E+03  0.7818608E-02  0.9903096E-01
         -1   -1    0    0    0  501 -0.00000000000E+00  0.00000000000E+00  0.42336663500E+03  0.42336663503E+03  0.50400000000E-02 0.  1.
          1   -1    0    0  501    0  0.00000000000E+00 -0.00000000000E+00 -0.23212399042E+04  0.23212399042E+04  0.50400000000E-02 0. -1.
    8880023    1    1    2    0    0  0.15841305828E+03 -0.26082576548E+03  0.86545597283E+02  0.73104385891E+03  0.65864270000E+03 0.  1.
    8880022    1    1    2    0    0 -0.15841305828E+03  0.26082576548E+03 -0.19844188665E+04  0.20135626803E+04  0.15294330000E+03 0.  0.
<mgrwt>
<rscale>  0 0.60111461E+03</rscale>
<asrwt>0</asrwt>
<pdfrwt beam="1">  1        1 0.35711382E+00 0.72590287E+03</pdfrwt>
<pdfrwt beam="2">  1       -1 0.65133330E-01 0.72590287E+03</pdfrwt>
<totfact> 0.45622948E+00</totfact>
</mgrwt>
</event>
<event>
 4    1  0.1008211E-007  0.1209086E+04  0.7818608E-02  0.9148340E-01
         -1   -1    0    0    0  501 -0.00000000000E+00  0.00000000000E+00  0.19694302887E+04  0.19694302887E+04  0.50400000000E-02 0.  1.
          1   -1    0    0  501    0  0.00000000000E+00 -0.00000000000E+00 -0.81384046647E+03  0.81384046648E+03  0.50400000000E-02 0. -1.
    8880023    1    1    2    0    0  0.10134284609E+04  0.32266654448E+02 -0.38020999987E+02  0.12096835062E+04  0.65864270000E+03 0.  0.
    8880022    1    1    2    0    0 -0.10134284609E+04 -0.32266654448E+02  0.11936108222E+04  0.15735872490E+04  0.15294330000E+03 0.  0.
<mgrwt>
<rscale>  0 0.11602924E+04</rscale>
<asrwt>0</asrwt>
<pdfrwt beam="1">  1        1 0.12520623E+00 0.12090858E+04</pdfrwt>
<pdfrwt beam="2">  1       -1 0.30298927E+00 0.12090858E+04</pdfrwt>
<totfact> 0.66962493E-01</totfact>
</mgrwt>
</event>
<event>
 4    1  0.1008211E-007  0.7028027E+03  0.7818608E-02  0.9985767E-01
         -1   -1    0    0    0  501 -0.00000000000E+00  0.00000000000E+00  0.89941614318E+03  0.89941614320E+03  0.50400000000E-02 0.  1.
          1   -1    0    0  501    0  0.00000000000E+00 -0.00000000000E+00 -0.32241519167E+04  0.32241519167E+04  0.50400000000E-02 0. -1.
    8880023    1    1    2    0    0 -0.23307247114E+03  0.76149000029E+02  0.75431735008E+03  0.10309831802E+04  0.65864270000E+03 0.  1.
    8880022    1    1    2    0    0  0.23307247114E+03 -0.76149000029E+02 -0.30790531236E+04  0.30925848797E+04  0.15294330000E+03 0.  0.
<mgrwt>
<rscale>  0 0.56278744E+03</rscale>
<asrwt>0</asrwt>
<pdfrwt beam="1">  1        1 0.49602337E+00 0.70280271E+03</pdfrwt>
<pdfrwt beam="2">  1       -1 0.13837172E+00 0.70280271E+03</pdfrwt>
<totfact> 0.19514525E-01</totfact>
</mgrwt>
</event>
<event>
 4    1  0.1008211E-007  0.1069905E+04  0.7818608E-02  0.9295327E-01
          1   -1    0    0  501    0  0.00000000000E+00  0.00000000000E+00  0.27102956110E+04  0.27102956110E+04  0.50400000000E-02 0. -1.
         -1   -1    0    0    0  501 -0.00000000000E+00 -0.00000000000E+00 -0.38799884024E+03  0.38799884027E+03  0.50400000000E-02 0.  1.
    8880023    1    1    2    0    0  0.47694870845E+03 -0.69527383354E+03  0.74653784107E+03  0.13046128654E+04  0.65864270000E+03 0. -1.
    8880022    1    1    2    0    0 -0.47694870845E+03  0.69527383354E+03  0.15757589297E+04  0.17936815859E+04  0.15294330000E+03 0.  1.
<mgrwt>
<rscale>  0 0.10121417E+04</rscale>
<asrwt>0</asrwt>
<pdfrwt beam="1">  1        1 0.41696857E+00 0.10699047E+04</pdfrwt>
<pdfrwt beam="2">  1       -1 0.59692128E-01 0.10699047E+04</pdfrwt>
<totfact> 0.27804741E+00</totfact>
</mgrwt>
</event>
<event>
 4    1  0.1008211E-007  0.9232406E+03  0.7818608E-02  0.9489708E-01
          1   -1    0    0  501    0  0.00000000000E+00  0.00000000000E+00  0.28925113630E+04  0.28925113630E+04  0.50400000000E-02 0. -1.
         -1   -1    0    0    0  501 -0.00000000000E+00 -0.00000000000E+00 -0.77921056243E+03  0.77921056245E+03  0.50400000000E-02 0.  1.
    8880023    1    1    2    0    0 -0.58536792739E+03 -0.27551305932E+03 -0.44754158109E+03  0.10259954821E+04  0.65864270000E+03 0.  1.
    8880022    1    1    2    0    0  0.58536792739E+03  0.27551305932E+03  0.25608423817E+04  0.26457264433E+04  0.15294330000E+03 0.  0.
<mgrwt>
<rscale>  0 0.85046883E+03</rscale>
<asrwt>0</asrwt>
<pdfrwt beam="1">  1        1 0.44500174E+00 0.92324063E+03</pdfrwt>
<pdfrwt beam="2">  1       -1 0.11987855E+00 0.92324063E+03</pdfrwt>
<totfact> 0.46185474E-01</totfact>
</mgrwt>
</event>
<event>
 4    1  0.1008211E-007  0.1030885E+04  0.7818608E-02  0.9342221E-01
          1   -1    0    0  501    0  0.00000000000E+00  0.00000000000E+00  0.78174162386E+03  0.78174162387E+03  0.50400000000E-02 0. -1.
         -1   -1    0    0    0  501 -0.00000000000E+00 -0.00000000000E+00 -0.11468516889E+04  0.11468516889E+04  0.50400000000E-02 0.  1.
    8880023    1    1    2    0    0  0.63060999767E+03 -0.48087915975E+03 -0.43291828601E+03  0.11180975736E+04  0.65864270000E+03 0.  0.
    8880022    1    1    2    0    0 -0.63060999767E+03  0.48087915975E+03  0.67808220944E+02  0.81049573921E+03  0.15294330000E+03 0.  0.
<mgrwt>
<rscale>  0 0.96987116E+03</rscale>
<asrwt>0</asrwt>
<pdfrwt beam="1">  1        1 0.12026794E+00 0.10308850E+04</pdfrwt>
<pdfrwt beam="2">  1       -1 0.17643872E+00 0.10308850E+04</pdfrwt>
<totfact> 0.50637132E+00</totfact>
</mgrwt>
</event>
<event>
 4    1  0.1008211E-007  0.1001283E+04  0.7818608E-02  0.9379881E-01
          1   -1    0    0  501    0  0.00000000000E+00  0.00000000000E+00  0.12893526915E+04  0.12893526915E+04  0.50400000000E-02 0. -1.
         -1   -1    0    0    0  501 -0.00000000000E+00 -0.00000000000E+00 -0.94219041787E+03  0.94219041789E+03  0.50400000000E-02 0.  1.
    8880023    1    1    2    0    0  0.58514510362E+03 -0.47577560941E+03 -0.47258523066E+03  0.11072055949E+04  0.65864270000E+03 0.  0.
    8880022    1    1    2    0    0 -0.58514510362E+03  0.47577560941E+03  0.81974750432E+03  0.11243375146E+04  0.15294330000E+03 0.  0.
<mgrwt>
<rscale>  0 0.93750040E+03</rscale>
<asrwt>0</asrwt>
<pdfrwt beam="1">  1        1 0.19836195E+00 0.10012829E+04</pdfrwt>
<pdfrwt beam="2">  1       -1 0.14495237E+00 0.10012829E+04</pdfrwt>
<totfact> 0.35335986E+00</totfact>
</mgrwt>
</event>
<event>
 4    1  0.1008211E-007  0.1334295E+04  0.7818608E-02  0.9036496E-01
         -1   -1    0    0    0  501 -0.00000000000E+00  0.00000000000E+00  0.20768231999E+04  0.20768231999E+04  0.50400000000E-02 0.  1.
          1   -1    0    0  501    0  0.00000000000E+00 -0.00000000000E+00 -0.17180412833E+04  0.17180412833E+04  0.50400000000E-02 0. -1.
    8880023    1    1    2    0    0  0.11365114220E+04 -0.23425123741E+03  0.16036644672E+04  0.20861643713E+04  0.65864270000E+03 0.  1.
    8880022    1    1    2    0    0 -0.11365114220E+04  0.23425123741E+03 -0.12448825506E+04  0.17087001119E+04  0.15294330000E+03 0.  0.
<mgrwt>
<rscale>  0 0.12912961E+04</rscale>
<asrwt>0</asrwt>
<pdfrwt beam="1">  1        1 0.26431404E+00 0.13342946E+04</pdfrwt>
<pdfrwt beam="2">  1       -1 0.31951126E+00 0.13342946E+04</pdfrwt>
<totfact> 0.11034684E-01</totfact>
</mgrwt>
</event>
<event>
 4    1  0.1008211E-007  0.8382323E+03  0.7818608E-02  0.9633522E-01
         -1   -1    0    0    0  501 -0.00000000000E+00  0.00000000000E+00  0.99798071272E+03  0.99798071274E+03  0.50400000000E-02 0.  1.
          1   -1    0    0  501    0  0.00000000000E+00 -0.00000000000E+00 -0.17899757466E+04  0.17899757466E+04  0.50400000000E-02 0. -1.
    8880023    1    1    2    0    0 -0.41648605673E+03  0.30880829544E+03  0.76805800287E+03  0.11369021509E+04  0.65864270000E+03 0.  0.
    8880022    1    1    2    0    0  0.41648605673E+03 -0.30880829544E+03 -0.15600530367E+04  0.16510543084E+04  0.15294330000E+03 0.  0.
<mgrwt>
<rscale>  0 0.75116628E+03</rscale>
<asrwt>0</asrwt>
<pdfrwt beam="1">  1        1 0.27538088E+00 0.83823231E+03</pdfrwt>
<pdfrwt beam="2">  1       -1 0.15353549E+00 0.83823231E+03</pdfrwt>
<totfact> 0.14036844E+00</totfact>
</mgrwt>
</event>
<event>
 4    1  0.1008211E-007  0.1215116E+04  0.7818608E-02  0.9142567E-01
         -1   -1    0    0    0  501 -0.00000000000E+00  0.00000000000E+00  0.67900689766E+03  0.67900689768E+03  0.50400000000E-02 0.  1.
          1   -1    0    0  501    0  0.00000000000E+00 -0.00000000000E+00 -0.29605270188E+04  0.29605270188E+04  0.50400000000E-02 0. -1.
    8880023    1    1    2    0    0  0.55345711910E+03  0.85812637331E+03 -0.91783928278E+02  0.12185771010E+04  0.65864270000E+03 0.  0.
    8880022    1    1    2    0    0 -0.55345711910E+03 -0.85812637331E+03 -0.21897361929E+04  0.24209568155E+04  0.15294330000E+03 0.  0.
<mgrwt>
<rscale>  0 0.11666411E+04</rscale>
<asrwt>0</asrwt>
<pdfrwt beam="1">  1        1 0.45546569E+00 0.12151156E+04</pdfrwt>
<pdfrwt beam="2">  1       -1 0.10446260E+00 0.12151156E+04</pdfrwt>
<totfact> 0.54646822E-01</totfact>
</mgrwt>
</event>
<event>
 4    1  0.1008211E-007  0.6618159E+03  0.7818608E-02  0.1022369E+00
         -1   -1    0    0    0  501 -0.00000000000E+00  0.00000000000E+00  0.86525867540E+02  0.86525867687E+02  0.50400000000E-02 0.  1.
          1   -1    0    0  501    0  0.00000000000E+00 -0.00000000000E+00 -0.30687509560E+04  0.30687509560E+04  0.50400000000E-02 0. -1.
    8880023    1    1    2    0    0 -0.62663880429E+02  0.16227872907E+02 -0.12435981168E+04  0.14087358121E+04  0.65864270000E+03 0.  1.
    8880022    1    1    2    0    0  0.62663880429E+02 -0.16227872907E+02 -0.17386269716E+04  0.17465410116E+04  0.15294330000E+03 0.  0.
<mgrwt>
<rscale>  0 0.46841485E+03</rscale>
<asrwt>0</asrwt>
<pdfrwt beam="1">  1        1 0.47211545E+00 0.66181592E+03</pdfrwt>
<pdfrwt beam="2">  1       -1 0.13311674E-01 0.66181592E+03</pdfrwt>
<totfact> 0.22845510E+01</totfact>
</mgrwt>
</event>
<event>
 4    1  0.1008211E-007  0.7508232E+03  0.7818608E-02  0.9829472E-01
          1   -1    0    0  501    0  0.00000000000E+00  0.00000000000E+00  0.77088063464E+03  0.77088063465E+03  0.50400000000E-02 0. -1.
         -1   -1    0    0    0  501 -0.00000000000E+00 -0.00000000000E+00 -0.60584079743E+03  0.60584079745E+03  0.50400000000E-02 0.  1.
    8880023    1    1    2    0    0  0.24892046761E+03  0.26069891368E+03 -0.26398377654E+03  0.79587873657E+03  0.65864270000E+03 0.  1.
    8880022    1    1    2    0    0 -0.24892046761E+03 -0.26069891368E+03  0.42902361374E+03  0.58084269553E+03  0.15294330000E+03 0.  0.
<mgrwt>
<rscale>  0 0.63804610E+03</rscale>
<asrwt>0</asrwt>
<pdfrwt beam="1">  1        1 0.11859702E+00 0.75082323E+03</pdfrwt>
<pdfrwt beam="2">  1       -1 0.93206277E-01 0.75082323E+03</pdfrwt>
<totfact> 0.26889913E+01</totfact>
</mgrwt>
</event>
<event>
 4    1  0.1008211E-007  0.7429872E+03  0.7818608E-02  0.9851330E-01
          1   -1    0    0  501    0  0.00000000000E+00  0.00000000000E+00  0.18718220023E+04  0.18718220023E+04  0.50400000000E-02 0. -1.
         -1   -1    0    0    0  501 -0.00000000000E+00 -0.00000000000E+00 -0.71080474800E+03  0.71080474802E+03  0.50400000000E-02 0.  1.
    8880023    1    1    2    0    0  0.13066190294E+03 -0.31803646461E+03 -0.48950802106E+03  0.88974605065E+03  0.65864270000E+03 0.  1.
    8880022    1    1    2    0    0 -0.13066190294E+03  0.31803646461E+03  0.16505252753E+04  0.16928806996E+04  0.15294330000E+03 0.  0.
<mgrwt>
<rscale>  0 0.62679172E+03</rscale>
<asrwt>0</asrwt>
<pdfrwt beam="1">  1        1 0.28797262E+00 0.74298717E+03</pdfrwt>
<pdfrwt beam="2">  1       -1 0.10935458E+00 0.74298717E+03</pdfrwt>
<totfact> 0.29634501E+00</totfact>
</mgrwt>
</event>
<event>
 4    1  0.1008211E-007  0.8373760E+03  0.7818608E-02  0.9635148E-01
         -1   -1    0    0    0  501 -0.00000000000E+00  0.00000000000E+00  0.10816447673E+04  0.10816447673E+04  0.50400000000E-02 0.  1.
          1   -1    0    0  501    0  0.00000000000E+00 -0.00000000000E+00 -0.12366006806E+04  0.12366006806E+04  0.50400000000E-02 0. -1.
    8880023    1    1    2    0    0 -0.70738317189E+02  0.51223482671E+03  0.84029744656E+03  0.11862960980E+04  0.65864270000E+03 0.  1.
    8880022    1    1    2    0    0  0.70738317189E+02 -0.51223482671E+03 -0.99525335992E+03  0.11319493499E+04  0.15294330000E+03 0.  0.
<mgrwt>
<rscale>  0 0.75012904E+03</rscale>
<asrwt>0</asrwt>
<pdfrwt beam="1">  1        1 0.19024626E+00 0.83737604E+03</pdfrwt>
<pdfrwt beam="2">  1       -1 0.16640689E+00 0.83737604E+03</pdfrwt>
<totfact> 0.27009660E+00</totfact>
</mgrwt>
</event>
<event>
 4    1  0.1230962E-007  0.1391690E+04  0.7818608E-02  0.8990167E-01
         -1   -1    0    0    0  501 -0.00000000000E+00  0.00000000000E+00  0.19033698104E+04  0.19033698104E+04  0.50400000000E-02 0.  1.
          1   -1    0    0  501    0  0.00000000000E+00 -0.00000000000E+00 -0.25903157346E+04  0.25903157347E+04  0.50400000000E-02 0. -1.
    8880023    1    1    2    0    0 -0.66176259073E+03 -0.10320177348E+04  0.14597557500E+04  0.20168508589E+04  0.65864270000E+03 0.  0.
    8880022    1    1    2    0    0  0.66176259073E+03  0.10320177348E+04 -0.21467016742E+04  0.24768346861E+04  0.15294330000E+03 0.  0.
<mgrwt>
<rscale>  0 0.13508737E+04</rscale>
<asrwt>0</asrwt>
<pdfrwt beam="1">  1        1 0.39851011E+00 0.13916898E+04</pdfrwt>
<pdfrwt beam="2">  1       -1 0.29282613E+00 0.13916898E+04</pdfrwt>
<totfact> 0.41313420E-02</totfact>
</mgrwt>
</event>
<event>
 4    1  0.1008211E-007  0.9464774E+03  0.7818608E-02  0.9455201E-01
         -1   -1    0    0    0  501 -0.00000000000E+00  0.00000000000E+00  0.63546384090E+03  0.63546384092E+03  0.50400000000E-02 0.  1.
          1   -1    0    0  501    0  0.00000000000E+00 -0.00000000000E+00 -0.18126009680E+04  0.18126009681E+04  0.50400000000E-02 0. -1.
    8880023    1    1    2    0    0  0.30901769718E+03 -0.60540669462E+03  0.14120136835E+03  0.95695205509E+03  0.65864270000E+03 0.  0.
    8880022    1    1    2    0    0 -0.30901769718E+03  0.60540669462E+03 -0.13183384955E+04  0.14911127539E+04  0.15294330000E+03 0.  0.
<mgrwt>
<rscale>  0 0.87668836E+03</rscale>
<asrwt>0</asrwt>
<pdfrwt beam="1">  1        1 0.27886169E+00 0.94647737E+03</pdfrwt>
<pdfrwt beam="2">  1       -1 0.97763669E-01 0.94647737E+03</pdfrwt>
<totfact> 0.40732593E+00</totfact>
</mgrwt>
</event>
<event>
 4    1  0.1008211E-007  0.8048325E+03  0.7818608E-02  0.9700443E-01
         -1   -1    0    0    0  501 -0.00000000000E+00  0.00000000000E+00  0.76474324732E+03  0.76474324734E+03  0.50400000000E-02 0.  1.
          1   -1    0    0  501    0  0.00000000000E+00 -0.00000000000E+00 -0.20920537176E+04  0.20920537176E+04  0.50400000000E-02 0. -1.
    8880023    1    1    2    0    0 -0.45976892161E+03  0.50573599368E+02  0.51211685869E+03  0.95394917760E+03  0.65864270000E+03 0.  1.
    8880022    1    1    2    0    0  0.45976892161E+03 -0.50573599368E+02 -0.18394273289E+04  0.19028477873E+04  0.15294330000E+03 0.  0.
<mgrwt>
<rscale>  0 0.70990423E+03</rscale>
<asrwt>0</asrwt>
<pdfrwt beam="1">  1        1 0.32185442E+00 0.80483250E+03</pdfrwt>
<pdfrwt beam="2">  1       -1 0.11765281E+00 0.80483250E+03</pdfrwt>
<totfact> 0.17528550E+00</totfact>
</mgrwt>
</event>
<event>
 4    1  0.1008211E-007  0.8671924E+03  0.7818608E-02  0.9580895E-01
         -1   -1    0    0    0  501 -0.00000000000E+00  0.00000000000E+00  0.14458848770E+04  0.14458848770E+04  0.50400000000E-02 0.  1.
          1   -1    0    0  501    0  0.00000000000E+00 -0.00000000000E+00 -0.10452760387E+04  0.10452760387E+04  0.50400000000E-02 0. -1.
    8880023    1    1    2    0    0  0.46089223479E+03 -0.32525503630E+03  0.12125478895E+04  0.14907364225E+04  0.65864270000E+03 0.  0.
    8880022    1    1    2    0    0 -0.46089223479E+03  0.32525503630E+03 -0.81193905120E+03  0.10004244932E+04  0.15294330000E+03 0.  0.
<mgrwt>
<rscale>  0 0.78573662E+03</rscale>
<asrwt>0</asrwt>
<pdfrwt beam="1">  1        1 0.16081170E+00 0.86719242E+03</pdfrwt>
<pdfrwt beam="2">  1       -1 0.22244383E+00 0.86719242E+03</pdfrwt>
<totfact> 0.15174050E+00</totfact>
</mgrwt>
</event>
<event>
 4    1  0.1008211E-007  0.7606109E+03  0.7818608E-02  0.9803529E-01
         -1   -1    0    0    0  501 -0.00000000000E+00  0.00000000000E+00  0.80243329394E+03  0.80243329396E+03  0.50400000000E-02 0.  1.
          1   -1    0    0  501    0  0.00000000000E+00 -0.00000000000E+00 -0.89000984179E+03  0.89000984180E+03  0.50400000000E-02 0. -1.
    8880023    1    1    2    0    0 -0.36335105760E+03 -0.11267062057E+03  0.54703857782E+03  0.93689917904E+03  0.65864270000E+03 0.  1.
    8880022    1    1    2    0    0  0.36335105760E+03  0.11267062057E+03 -0.63461512567E+03  0.75554395672E+03  0.15294330000E+03 0.  0.
<mgrwt>
<rscale>  0 0.65173521E+03</rscale>
<asrwt>0</asrwt>
<pdfrwt beam="1">  1        1 0.13692459E+00 0.76061085E+03</pdfrwt>
<pdfrwt beam="2">  1       -1 0.12345128E+00 0.76061085E+03</pdfrwt>
<totfact> 0.11023408E+01</totfact>
</mgrwt>
</event>
<event>
 4    1  0.1008211E-007  0.9774802E+03  0.7818608E-02  0.9411632E-01
         -1   -1    0    0    0  501 -0.00000000000E+00  0.00000000000E+00  0.67820976939E+03  0.67820976941E+03  0.50400000000E-02 0.  1.
          1   -1    0    0  501    0  0.00000000000E+00 -0.00000000000E+00 -0.15573500993E+04  0.15573500994E+04  0.50400000000E-02 0. -1.
    8880023    1    1    2    0    0 -0.57874990087E+03 -0.43209465790E+03  0.12904907724E+03  0.98596202348E+03  0.65864270000E+03 0.  0.
    8880022    1    1    2    0    0  0.57874990087E+03  0.43209465790E+03 -0.10081894072E+04  0.12495978453E+04  0.15294330000E+03 0.  0.
<mgrwt>
<rscale>  0 0.91124549E+03</rscale>
<asrwt>0</asrwt>
<pdfrwt beam="1">  1        1 0.23959232E+00 0.97748015E+03</pdfrwt>
<pdfrwt beam="2">  1       -1 0.10433997E+00 0.97748015E+03</pdfrwt>
<totfact> 0.52043303E+00</totfact>
</mgrwt>
</event>
<event>
 4    1  0.1008211E-007  0.7690068E+03  0.7818608E-02  0.9782324E-01
         -1   -1    0    0    0  501 -0.00000000000E+00  0.00000000000E+00  0.21731828328E+04  0.21731828328E+04  0.50400000000E-02 0.  1.
          1   -1    0    0  501    0  0.00000000000E+00 -0.00000000000E+00 -0.93942689104E+03  0.93942689105E+03  0.50400000000E-02 0. -1.
    8880023    1    1    2    0    0  0.50708538960E+02  0.39368755720E+03  0.20514698379E+04  0.21908673968E+04  0.65864270000E+03 0.  1.
    8880022    1    1    2    0    0 -0.50708538960E+02 -0.39368755720E+03 -0.81771389607E+03  0.92174232704E+03  0.15294330000E+03 0.  0.
<mgrwt>
<rscale>  0 0.66319818E+03</rscale>
<asrwt>0</asrwt>
<pdfrwt beam="1">  1        1 0.14452722E+00 0.76900680E+03</pdfrwt>
<pdfrwt beam="2">  1       -1 0.33433582E+00 0.76900680E+03</pdfrwt>
<totfact> 0.35466507E-01</totfact>
</mgrwt>
</event>
<event>
 4    1  0.1008211E-007  0.1107386E+04  0.7818608E-02  0.9252877E-01
          1   -1    0    0  501    0  0.00000000000E+00  0.00000000000E+00  0.24115472267E+04  0.24115472267E+04  0.50400000000E-02 0. -1.
         -1   -1    0    0    0  501 -0.00000000000E+00 -0.00000000000E+00 -0.50709144474E+03  0.50709144476E+03  0.50400000000E-02 0.  1.
    8880023    1    1    2    0    0  0.27225550154E+02 -0.88980426441E+03  0.42682215623E+03  0.11867940929E+04  0.65864270000E+03 0.  0.
    8880022    1    1    2    0    0 -0.27225550154E+02  0.88980426441E+03  0.14776336258E+04  0.17318445786E+04  0.15294330000E+03 0.  0.
<mgrwt>
<rscale>  0 0.10523926E+04</rscale>
<asrwt>0</asrwt>
<pdfrwt beam="1">  1        1 0.37100726E+00 0.11073857E+04</pdfrwt>
<pdfrwt beam="2">  1       -1 0.78014070E-01 0.11073857E+04</pdfrwt>
<totfact> 0.25736219E+00</totfact>
</mgrwt>
</event>
<event>
 4    1  0.1008211E-007  0.9637480E+03  0.7818608E-02  0.9430604E-01
         -1   -1    0    0    0  501 -0.00000000000E+00  0.00000000000E+00  0.72981763423E+03  0.72981763425E+03  0.50400000000E-02 0.  1.
          1   -1    0    0  501    0  0.00000000000E+00 -0.00000000000E+00 -0.19056070813E+04  0.19056070813E+04  0.50400000000E-02 0. -1.
    8880023    1    1    2    0    0 -0.40139172184E+03  0.57782763296E+03  0.28655076899E+03  0.10054459892E+04  0.65864270000E+03 0.  1.
    8880022    1    1    2    0    0  0.40139172184E+03 -0.57782763296E+03 -0.14623402160E+04  0.16299787263E+04  0.15294330000E+03 0.  0.
<mgrwt>
<rscale>  0 0.89599357E+03</rscale>
<asrwt>0</asrwt>
<pdfrwt beam="1">  1        1 0.29317032E+00 0.96374804E+03</pdfrwt>
<pdfrwt beam="2">  1       -1 0.11227964E+00 0.96374804E+03</pdfrwt>
<totfact> 0.25482397E+00</totfact>
</mgrwt>
</event>
<event>
 4    1  0.1008211E-007  0.1026993E+04  0.7818608E-02  0.9347065E-01
          1   -1    0    0  501    0  0.00000000000E+00  0.00000000000E+00  0.96419242898E+03  0.96419242899E+03  0.50400000000E-02 0. -1.
         -1   -1    0    0    0  501 -0.00000000000E+00 -0.00000000000E+00 -0.15720137532E+04  0.15720137532E+04  0.50400000000E-02 0.  1.
    8880023    1    1    2    0    0 -0.71687460733E+03  0.32709975033E+03 -0.11695780063E+04  0.15564788364E+04  0.65864270000E+03 0.  0.
    8880022    1    1    2    0    0  0.71687460733E+03 -0.32709975033E+03  0.56175668200E+03  0.97972734579E+03  0.15294330000E+03 0.  0.
<mgrwt>
<rscale>  0 0.96563071E+03</rscale>
<asrwt>0</asrwt>
<pdfrwt beam="1">  1        1 0.14833730E+00 0.10269925E+04</pdfrwt>
<pdfrwt beam="2">  1       -1 0.24184827E+00 0.10269925E+04</pdfrwt>
<totfact> 0.12776653E+00</totfact>
</mgrwt>
</event>
<event>
 4    1  0.1008211E-007  0.8355981E+03  0.7818608E-02  0.9638537E-01
          1   -1    0    0  501    0  0.00000000000E+00  0.00000000000E+00  0.36185123071E+04  0.36185123071E+04  0.50400000000E-02 0. -1.
         -1   -1    0    0    0  501 -0.00000000000E+00 -0.00000000000E+00 -0.23324887054E+03  0.23324887059E+03  0.50400000000E-02 0.  1.
    8880023    1    1    2    0    0  0.27088252535E+02  0.51349793520E+03  0.63456587544E+03  0.10492368462E+04  0.65864270000E+03 0.  1.
    8880022    1    1    2    0    0 -0.27088252535E+02 -0.51349793520E+03  0.27506975611E+04  0.28025243315E+04  0.15294330000E+03 0.  0.
<mgrwt>
<rscale>  0 0.74797221E+03</rscale>
<asrwt>0</asrwt>
<pdfrwt beam="1">  1        1 0.55669420E+00 0.83559805E+03</pdfrwt>
<pdfrwt beam="2">  1       -1 0.35884442E-01 0.83559805E+03</pdfrwt>
<totfact> 0.15981676E+00</totfact>
</mgrwt>
</event>
<event>
 4    1  0.1008211E-007  0.7414303E+03  0.7818608E-02  0.9855800E-01
          1   -1    0    0  501    0  0.00000000000E+00  0.00000000000E+00  0.79573817226E+03  0.79573817227E+03  0.50400000000E-02 0. -1.
         -1   -1    0    0    0  501 -0.00000000000E+00 -0.00000000000E+00 -0.50452673822E+03  0.50452673824E+03  0.50400000000E-02 0.  1.
    8880023    1    1    2    0    0 -0.55392551316E+02 -0.33591709284E+03 -0.11311620377E+03  0.75000940649E+03  0.65864270000E+03 0.  1.
    8880022    1    1    2    0    0  0.55392551316E+02  0.33591709284E+03  0.40432763780E+03  0.55025550403E+03  0.15294330000E+03 0.  0.
<mgrwt>
<rscale>  0 0.62452055E+03</rscale>
<asrwt>0</asrwt>
<pdfrwt beam="1">  1        1 0.12242126E+00 0.74143026E+03</pdfrwt>
<pdfrwt beam="2">  1       -1 0.77619499E-01 0.74143026E+03</pdfrwt>
<totfact> 0.38024788E+01</totfact>
</mgrwt>
</event>
<event>
 4    1  0.1008211E-007  0.6829210E+03  0.7818608E-02  0.1007717E+00
          1   -1    0    0  501    0  0.00000000000E+00  0.00000000000E+00  0.32350127988E+03  0.32350127992E+03  0.50400000000E-02 0. -1.
         -1   -1    0    0    0  501 -0.00000000000E+00 -0.00000000000E+00 -0.27648952926E+04  0.27648952926E+04  0.50400000000E-02 0.  1.
    8880023    1    1    2    0    0  0.13403313863E+03 -0.12085555515E+03 -0.26720834443E+04  0.27579722781E+04  0.65864270000E+03 0.  1.
    8880022    1    1    2    0    0 -0.13403313863E+03  0.12085555515E+03  0.23068943158E+03  0.33042429438E+03  0.15294330000E+03 0.  0.
<mgrwt>
<rscale>  0 0.52392016E+03</rscale>
<asrwt>0</asrwt>
<pdfrwt beam="1">  1        1 0.49769429E-01 0.68292105E+03</pdfrwt>
<pdfrwt beam="2">  1       -1 0.42536849E+00 0.68292105E+03</pdfrwt>
<totfact> 0.41341558E-01</totfact>
</mgrwt>
</event>
<event>
 4    1  0.1008211E-007  0.1084327E+04  0.7818608E-02  0.9278710E-01
         -1   -1    0    0    0  501 -0.00000000000E+00  0.00000000000E+00  0.10458138521E+04  0.10458138521E+04  0.50400000000E-02 0.  1.
          1   -1    0    0  501    0  0.00000000000E+00 -0.00000000000E+00 -0.18046555924E+04  0.18046555924E+04  0.50400000000E-02 0. -1.
    8880023    1    1    2    0    0 -0.27867355529E+03  0.81504365803E+03  0.59630050793E+03  0.12374730773E+04  0.65864270000E+03 0.  0.
    8880022    1    1    2    0    0  0.27867355529E+03 -0.81504365803E+03 -0.13551422483E+04  0.16129963673E+04  0.15294330000E+03 0. -1.
<mgrwt>
<rscale>  0 0.10276673E+04</rscale>
<asrwt>0</asrwt>
<pdfrwt beam="1">  1        1 0.27763932E+00 0.10843271E+04</pdfrwt>
<pdfrwt beam="2">  1       -1 0.16089444E+00 0.10843271E+04</pdfrwt>
<totfact> 0.11595859E+00</totfact>
</mgrwt>
</event>
<event>
 4    1  0.1008211E-007  0.6615268E+03  0.7818608E-02  0.1022644E+00
          1   -1    0    0  501    0  0.00000000000E+00  0.00000000000E+00  0.17870204653E+04  0.17870204653E+04  0.50400000000E-02 0. -1.
         -1   -1    0    0    0  501 -0.00000000000E+00 -0.00000000000E+00 -0.12188201465E+03  0.12188201475E+03  0.50400000000E-02 0.  1.
    8880023    1    1    2    0    0  0.60801369058E+02  0.10523797140E+02  0.84916328284E+03  0.10764274448E+04  0.65864270000E+03 0.  1.
    8880022    1    1    2    0    0 -0.60801369058E+02 -0.10523797140E+02  0.81597516784E+03  0.83247503526E+03  0.15294330000E+03 0.  0.
<mgrwt>
<rscale>  0 0.46744459E+03</rscale>
<asrwt>0</asrwt>
<pdfrwt beam="1">  1        1 0.27492623E+00 0.66152684E+03</pdfrwt>
<pdfrwt beam="2">  1       -1 0.18751079E-01 0.66152684E+03</pdfrwt>
<totfact> 0.98086156E+01</totfact>
</mgrwt>
</event>
<event>
 4    1  0.1008211E-007  0.7515630E+03  0.7818608E-02  0.9827461E-01
         -1   -1    0    0    0  501 -0.00000000000E+00  0.00000000000E+00  0.50541739015E+03  0.50541739018E+03  0.50400000000E-02 0.  1.
          1   -1    0    0  501    0  0.00000000000E+00 -0.00000000000E+00 -0.14937704895E+04  0.14937704895E+04  0.50400000000E-02 0. -1.
    8880023    1    1    2    0    0  0.35738955088E+03  0.57527435300E+02  0.17464810694E+03  0.77158853310E+03  0.65864270000E+03 0.  0.
    8880022    1    1    2    0    0 -0.35738955088E+03 -0.57527435300E+02 -0.11630012063E+04  0.12275993466E+04  0.15294330000E+03 0.  0.
<mgrwt>
<rscale>  0 0.63909425E+03</rscale>
<asrwt>0</asrwt>
<pdfrwt beam="1">  1        1 0.22981084E+00 0.75156297E+03</pdfrwt>
<pdfrwt beam="2">  1       -1 0.77756522E-01 0.75156297E+03</pdfrwt>
<totfact> 0.11358673E+01</totfact>
</mgrwt>
</event>
<event>
 4    1  0.1008211E-007  0.1019949E+04  0.7818608E-02  0.9355911E-01
         -1   -1    0    0    0  501 -0.00000000000E+00  0.00000000000E+00  0.16648479667E+04  0.16648479667E+04  0.50400000000E-02 0.  1.
          1   -1    0    0  501    0  0.00000000000E+00 -0.00000000000E+00 -0.99978710138E+03  0.99978710140E+03  0.50400000000E-02 0. -1.
    8880023    1    1    2    0    0 -0.73858352413E+03 -0.24694258611E+03  0.12970895302E+04  0.16500720344E+04  0.65864270000E+03 0.  0.
    8880022    1    1    2    0    0  0.73858352413E+03  0.24694258611E+03 -0.63202866496E+03  0.10145630337E+04  0.15294330000E+03 0.  0.
<mgrwt>
<rscale>  0 0.95794587E+03</rscale>
<asrwt>0</asrwt>
<pdfrwt beam="1">  1        1 0.15381340E+00 0.10199492E+04</pdfrwt>
<pdfrwt beam="2">  1       -1 0.25613045E+00 0.10199492E+04</pdfrwt>
<totfact> 0.96819135E-01</totfact>
</mgrwt>
</event>
<event>
 4    1  0.1008211E-007  0.7069802E+03  0.7818608E-02  0.9969390E-01
          1   -1    0    0  501    0  0.00000000000E+00  0.00000000000E+00  0.84860750058E+03  0.84860750060E+03  0.50400000000E-02 0. -1.
         -1   -1    0    0    0  501 -0.00000000000E+00 -0.00000000000E+00 -0.50196119640E+03  0.50196119643E+03  0.50400000000E-02 0.  1.
    8880023    1    1    2    0    0 -0.17288119008E+03  0.19006035869E+03 -0.19367930137E+03  0.73302982468E+03  0.65864270000E+03 0.  0.
    8880022    1    1    2    0    0  0.17288119008E+03 -0.19006035869E+03  0.54032560555E+03  0.61753887234E+03  0.15294330000E+03 0.  0.
<mgrwt>
<rscale>  0 0.57013035E+03</rscale>
<asrwt>0</asrwt>
<pdfrwt beam="1">  1        1 0.13055500E+00 0.70698023E+03</pdfrwt>
<pdfrwt beam="2">  1       -1 0.77224800E-01 0.70698023E+03</pdfrwt>
<totfact> 0.34770817E+01</totfact>
</mgrwt>
</event>
<event>
 4    1  0.1259493E-007  0.7127816E+03  0.7818608E-02  0.9947813E-01
          1   -1    0    0  501    0  0.00000000000E+00  0.00000000000E+00  0.26489199529E+04  0.26489199529E+04  0.50400000000E-02 0. -1.
         -1   -1    0    0    0  501 -0.00000000000E+00 -0.00000000000E+00 -0.12253056941E+04  0.12253056941E+04  0.50400000000E-02 0.  1.
    8880023    1    1    2    0    0 -0.19258139225E+03  0.19276890843E+03 -0.11112349673E+04  0.13201896846E+04  0.65864270000E+03 0.  1.
    8880022    1    1    2    0    0  0.19258139225E+03 -0.19276890843E+03  0.25348492261E+04  0.25540359623E+04  0.15294330000E+03 0.  0.
<mgrwt>
<rscale>  0 0.57998978E+03</rscale>
<asrwt>0</asrwt>
<pdfrwt beam="1">  1        1 0.40752614E+00 0.71278163E+03</pdfrwt>
<pdfrwt beam="2">  1       -1 0.18850857E+00 0.71278163E+03</pdfrwt>
<totfact> 0.21072464E-01</totfact>
</mgrwt>
</event>
<event>
 4    1  0.1008211E-007  0.8243639E+03  0.7818608E-02  0.9660400E-01
         -1   -1    0    0    0  501 -0.00000000000E+00  0.00000000000E+00  0.26941883334E+04  0.26941883334E+04  0.50400000000E-02 0.  1.
          1   -1    0    0  501    0  0.00000000000E+00 -0.00000000000E+00 -0.40566987087E+03  0.40566987091E+03  0.50400000000E-02 0. -1.
    8880023    1    1    2    0    0 -0.40086627052E+03  0.29167069256E+03  0.24267575213E+04  0.25629529518E+04  0.65864270000E+03 0.  1.
    8880022    1    1    2    0    0  0.40086627052E+03 -0.29167069256E+03 -0.13823905881E+03  0.53690525247E+03  0.15294330000E+03 0.  0.
<mgrwt>
<rscale>  0 0.73424324E+03</rscale>
<asrwt>0</asrwt>
<pdfrwt beam="1">  1        1 0.62410748E-01 0.82436386E+03</pdfrwt>
<pdfrwt beam="2">  1       -1 0.41449052E+00 0.82436386E+03</pdfrwt>
<totfact> 0.35437656E-01</totfact>
</mgrwt>
</event>
<event>
 4    1  0.1008211E-007  0.1300018E+04  0.7818608E-02  0.9065545E-01
         -1   -1    0    0    0  501 -0.00000000000E+00  0.00000000000E+00  0.12462982345E+04  0.12462982345E+04  0.50400000000E-02 0.  1.
          1   -1    0    0  501    0  0.00000000000E+00 -0.00000000000E+00 -0.22111672265E+04  0.22111672265E+04  0.50400000000E-02 0. -1.
    8880023    1    1    2    0    0  0.10866823489E+04  0.27451289036E+03  0.67536628911E+03  0.14649797559E+04  0.65864270000E+03 0.  0.
    8880022    1    1    2    0    0 -0.10866823489E+04 -0.27451289036E+03 -0.16402352812E+04  0.19924857051E+04  0.15294330000E+03 0.  0.
<mgrwt>
<rscale>  0 0.12555887E+04</rscale>
<asrwt>0</asrwt>
<pdfrwt beam="1">  1        1 0.34017957E+00 0.13000177E+04</pdfrwt>
<pdfrwt beam="2">  1       -1 0.19173819E+00 0.13000177E+04</pdfrwt>
<totfact> 0.35656067E-01</totfact>
</mgrwt>
</event>
<event>
 4    1  0.1008211E-007  0.1095179E+04  0.7818608E-02  0.9266443E-01
          1   -1    0    0  501    0  0.00000000000E+00  0.00000000000E+00  0.16778174355E+04  0.16778174355E+04  0.50400000000E-02 0. -1.
         -1   -1    0    0    0  501 -0.00000000000E+00 -0.00000000000E+00 -0.60763883922E+03  0.60763883924E+03  0.50400000000E-02 0.  1.
    8880023    1    1    2    0    0 -0.67171973259E+03  0.56071287704E+03  0.37532647711E+03  0.11577074330E+04  0.65864270000E+03 0.  0.
    8880022    1    1    2    0    0  0.67171973259E+03 -0.56071287704E+03  0.69485211919E+03  0.11277488418E+04  0.15294330000E+03 0.  0.
<mgrwt>
<rscale>  0 0.10393175E+04</rscale>
<asrwt>0</asrwt>
<pdfrwt beam="1">  1        1 0.25812576E+00 0.10951788E+04</pdfrwt>
<pdfrwt beam="2">  1       -1 0.93482897E-01 0.10951788E+04</pdfrwt>
<totfact> 0.54584181E+00</totfact>
</mgrwt>
</event>
<event>
 4    1  0.1008211E-007  0.9241305E+03  0.7818608E-02  0.9488355E-01
          1   -1    0    0  501    0  0.00000000000E+00  0.00000000000E+00  0.70401378237E+03  0.70401378239E+03  0.50400000000E-02 0. -1.
         -1   -1    0    0    0  501 -0.00000000000E+00 -0.00000000000E+00 -0.16456557034E+04  0.16456557034E+04  0.50400000000E-02 0.  1.
    8880023    1    1    2    0    0 -0.64790051802E+03  0.20782804056E+02  0.27368540602E+03  0.96380543364E+03  0.65864270000E+03 0. -1.
    8880022    1    1    2    0    0  0.64790051802E+03 -0.20782804056E+02 -0.12153273271E+04  0.13858640522E+04  0.15294330000E+03 0.  0.
<mgrwt>
<rscale>  0 0.85147865E+03</rscale>
<asrwt>0</asrwt>
<pdfrwt beam="1">  1        1 0.10830981E+00 0.92413052E+03</pdfrwt>
<pdfrwt beam="2">  1       -1 0.25317780E+00 0.92413052E+03</pdfrwt>
<totfact> 0.18287266E+00</totfact>
</mgrwt>
</event>
<event>
 4    1  0.1008211E-007  0.8063414E+03  0.7818608E-02  0.9697249E-01
          1   -1    0    0  501    0  0.00000000000E+00  0.00000000000E+00  0.20327606476E+04  0.20327606476E+04  0.50400000000E-02 0. -1.
         -1   -1    0    0    0  501 -0.00000000000E+00 -0.00000000000E+00 -0.56871104721E+03  0.56871104723E+03  0.50400000000E-02 0.  1.
    8880023    1    1    2    0    0 -0.46511675924E+03 -0.65261649732E+01 -0.22965288863E+03  0.83840732706E+03  0.65864270000E+03 0.  1.
    8880022    1    1    2    0    0  0.46511675924E+03  0.65261649732E+01  0.16937024890E+04  0.17630643677E+04  0.15294330000E+03 0.  0.
<mgrwt>
<rscale>  0 0.71180834E+03</rscale>
<asrwt>0</asrwt>
<pdfrwt beam="1">  1        1 0.31273241E+00 0.80634136E+03</pdfrwt>
<pdfrwt beam="2">  1       -1 0.87494007E-01 0.80634136E+03</pdfrwt>
<totfact> 0.37903581E+00</totfact>
</mgrwt>
</event>
<event>
 4    1  0.1008211E-007  0.6656119E+03  0.7818608E-02  0.1019025E+00
         -1   -1    0    0    0  501 -0.00000000000E+00  0.00000000000E+00  0.73507786253E+03  0.73507786254E+03  0.50400000000E-02 0.  1.
          1   -1    0    0  501    0  0.00000000000E+00 -0.00000000000E+00 -0.31149201987E+03  0.31149201991E+03  0.50400000000E-02 0. -1.
    8880023    1    1    2    0    0  0.74172801697E+02 -0.61052629786E+02  0.51739192327E+03  0.84305019817E+03  0.65864270000E+03 0.  1.
    8880022    1    1    2    0    0 -0.74172801697E+02  0.61052629786E+02 -0.93806080606E+02  0.20351968428E+03  0.15294330000E+03 0.  0.
<mgrwt>
<rscale>  0 0.48039939E+03</rscale>
<asrwt>0</asrwt>
<pdfrwt beam="1">  1        1 0.47921849E-01 0.66561192E+03</pdfrwt>
<pdfrwt beam="2">  1       -1 0.11308890E+00 0.66561192E+03</pdfrwt>
<totfact> 0.61182419E+01</totfact>
</mgrwt>
</event>
<event>
 4    1  0.1008211E-007  0.9204814E+03  0.7818608E-02  0.9493921E-01
          1   -1    0    0  501    0  0.00000000000E+00  0.00000000000E+00  0.98035278925E+03  0.98035278927E+03  0.50400000000E-02 0. -1.
         -1   -1    0    0    0  501 -0.00000000000E+00 -0.00000000000E+00 -0.12655786435E+04  0.12655786436E+04  0.50400000000E-02 0.  1.
    8880023    1    1    2    0    0  0.62811881609E+03 -0.13763210270E+03 -0.93994748711E+03  0.13155939068E+04  0.65864270000E+03 0.  1.
    8880022    1    1    2    0    0 -0.62811881609E+03  0.13763210270E+03  0.65472163282E+03  0.93033752602E+03  0.15294330000E+03 0.  0.
<mgrwt>
<rscale>  0 0.84733469E+03</rscale>
<asrwt>0</asrwt>
<pdfrwt beam="1">  1        1 0.15082351E+00 0.92048142E+03</pdfrwt>
<pdfrwt beam="2">  1       -1 0.19470441E+00 0.92048142E+03</pdfrwt>
<totfact> 0.26054616E+00</totfact>
</mgrwt>
</event>
<event>
 4    1  0.1008211E-007  0.1317954E+04  0.7818608E-02  0.9050208E-01
          1   -1    0    0  501    0  0.00000000000E+00  0.00000000000E+00  0.20704177684E+04  0.20704177684E+04  0.50400000000E-02 0. -1.
         -1   -1    0    0    0  501 -0.00000000000E+00 -0.00000000000E+00 -0.89632829344E+03  0.89632829345E+03  0.50400000000E-02 0.  1.
    8880023    1    1    2    0    0 -0.63403099866E+03 -0.94931459003E+03  0.12446978888E+04  0.18128090188E+04  0.65864270000E+03 0. -1.
    8880022    1    1    2    0    0  0.63403099866E+03  0.94931459003E+03 -0.70608413862E+02  0.11539370430E+04  0.15294330000E+03 0.  0.
<mgrwt>
<rscale>  0 0.12742868E+04</rscale>
<asrwt>0</asrwt>
<pdfrwt beam="1">  1        1 0.31852580E+00 0.13179544E+04</pdfrwt>
<pdfrwt beam="2">  1       -1 0.13789666E+00 0.13179544E+04</pdfrwt>
<totfact> 0.11289948E+00</totfact>
</mgrwt>
</event>
<event>
 4    1  0.1008211E-007  0.6803532E+03  0.7818608E-02  0.1009125E+00
         -1   -1    0    0    0  501 -0.00000000000E+00  0.00000000000E+00  0.11172501895E+04  0.11172501895E+04  0.50400000000E-02 0.  1.
          1   -1    0    0  501    0  0.00000000000E+00 -0.00000000000E+00 -0.13729058017E+04  0.13729058018E+04  0.50400000000E-02 0. -1.
    8880023    1    1    2    0    0  0.13416713031E+02 -0.16997136937E+03  0.10023662901E+04  0.12114531194E+04  0.65864270000E+03 0.  1.
    8880022    1    1    2    0    0 -0.13416713031E+02  0.16997136937E+03 -0.12580219024E+04  0.12787028719E+04  0.15294330000E+03 0.  0.
<mgrwt>
<rscale>  0 0.51824051E+03</rscale>
<asrwt>0</asrwt>
<pdfrwt beam="1">  1        1 0.21121628E+00 0.68035320E+03</pdfrwt>
<pdfrwt beam="2">  1       -1 0.17188464E+00 0.68035320E+03</pdfrwt>
<totfact> 0.20292249E+00</totfact>
</mgrwt>
</event>
<event>
 4    1  0.1008211E-007  0.7782217E+03  0.7818608E-02  0.9760031E-01
          1   -1    0    0  501    0  0.00000000000E+00  0.00000000000E+00  0.25682686043E+04  0.25682686043E+04  0.50400000000E-02 0. -1.
         -1   -1    0    0    0  501 -0.00000000000E+00 -0.00000000000E+00 -0.61723764937E+03  0.61723764939E+03  0.50400000000E-02 0.  1.
    8880023    1    1    2    0    0 -0.90763885488E+02 -0.40445116885E+03 -0.34217513481E+03  0.85012520257E+03  0.65864270000E+03 0.  1.
    8880022    1    1    2    0    0  0.90763885488E+02  0.40445116885E+03  0.22932060898E+04  0.23353810511E+04  0.15294330000E+03 0.  0.
<mgrwt>
<rscale>  0 0.67552341E+03</rscale>
<asrwt>0</asrwt>
<pdfrwt beam="1">  1        1 0.39511824E+00 0.77822171E+03</pdfrwt>
<pdfrwt beam="2">  1       -1 0.94959639E-01 0.77822171E+03</pdfrwt>
<totfact> 0.13809973E+00</totfact>
</mgrwt>
</event>
<event>
 4    1  0.1008211E-007  0.8030209E+03  0.7818608E-02  0.9704302E-01
          1   -1    0    0  501    0  0.00000000000E+00  0.00000000000E+00  0.51931180056E+03  0.51931180059E+03  0.50400000000E-02 0. -1.
         -1   -1    0    0    0  501 -0.00000000000E+00 -0.00000000000E+00 -0.81338375997E+03  0.81338375998E+03  0.50400000000E-02 0.  1.
    8880023    1    1    2    0    0  0.43644414259E+03  0.14334904318E+03 -0.92843557515E+02  0.80837031750E+03  0.65864270000E+03 0.  0.
    8880022    1    1    2    0    0 -0.43644414259E+03 -0.14334904318E+03 -0.20122840189E+03  0.52432524307E+03  0.15294330000E+03 0. -1.
<mgrwt>
<rscale>  0 0.70761240E+03</rscale>
<asrwt>0</asrwt>
<pdfrwt beam="1">  1        1 0.79894122E-01 0.80302095E+03</pdfrwt>
<pdfrwt beam="2">  1       -1 0.12513596E+00 0.80302095E+03</pdfrwt>
<totfact> 0.23931057E+01</totfact>
</mgrwt>
</event>
<event>
 4    1  0.1008211E-007  0.8966825E+03  0.7818608E-02  0.9531378E-01
         -1   -1    0    0    0  501 -0.00000000000E+00  0.00000000000E+00  0.50532628280E+03  0.50532628282E+03  0.50400000000E-02 0.  1.
          1   -1    0    0  501    0  0.00000000000E+00 -0.00000000000E+00 -0.19703160723E+04  0.19703160723E+04  0.50400000000E-02 0. -1.
    8880023    1    1    2    0    0 -0.45750919312E+03  0.40114177823E+03 -0.16186233763E+02  0.89682862825E+03  0.65864270000E+03 0.  1.
    8880022    1    1    2    0    0  0.45750919312E+03 -0.40114177823E+03 -0.14488035557E+04  0.15788137269E+04  0.15294330000E+03 0.  0.
<mgrwt>
<rscale>  0 0.82009436E+03</rscale>
<asrwt>0</asrwt>
<pdfrwt beam="1">  1        1 0.30312555E+00 0.89668255E+03</pdfrwt>
<pdfrwt beam="2">  1       -1 0.77742506E-01 0.89668255E+03</pdfrwt>
<totfact> 0.53044941E+00</totfact>
</mgrwt>
</event>
<event>
 4    1  0.1008211E-007  0.8247233E+03  0.7818608E-02  0.9659688E-01
          1   -1    0    0  501    0  0.00000000000E+00  0.00000000000E+00  0.23992128569E+04  0.23992128569E+04  0.50400000000E-02 0. -1.
         -1   -1    0    0    0  501 -0.00000000000E+00 -0.00000000000E+00 -0.24898040802E+03  0.24898040807E+03  0.50400000000E-02 0.  1.
    8880023    1    1    2    0    0  0.27927369800E+03 -0.41032236280E+03  0.19008452502E+04  0.20720475649E+04  0.65864270000E+03 0.  1.
    8880022    1    1    2    0    0 -0.27927369800E+03  0.41032236280E+03  0.24938719868E+03  0.57614570005E+03  0.15294330000E+03 0.  0.
<mgrwt>
<rscale>  0 0.73468528E+03</rscale>
<asrwt>0</asrwt>
<pdfrwt beam="1">  1        1 0.36910968E+00 0.82472325E+03</pdfrwt>
<pdfrwt beam="2">  1       -1 0.38304677E-01 0.82472325E+03</pdfrwt>
<totfact> 0.10898443E+01</totfact>
</mgrwt>
</event>
<event>
 4    1  0.1008211E-007  0.7956069E+03  0.7818608E-02  0.9720377E-01
         -1   -1    0    0    0  501 -0.00000000000E+00  0.00000000000E+00  0.76880263206E+03  0.76880263208E+03  0.50400000000E-02 0.  1.
          1   -1    0    0  501    0  0.00000000000E+00 -0.00000000000E+00 -0.54013502166E+03  0.54013502169E+03  0.50400000000E-02 0. -1.
    8880023    1    1    2    0    0 -0.27624533565E+03  0.35052623130E+03  0.25761582414E+03  0.83627521989E+03  0.65864270000E+03 0.  1.
    8880022    1    1    2    0    0  0.27624533565E+03 -0.35052623130E+03 -0.28948213739E+02  0.47266243387E+03  0.15294330000E+03 0. -1.
<mgrwt>
<rscale>  0 0.69816434E+03</rscale>
<asrwt>0</asrwt>
<pdfrwt beam="1">  1        1 0.83097696E-01 0.79560689E+03</pdfrwt>
<pdfrwt beam="2">  1       -1 0.11827733E+00 0.79560689E+03</pdfrwt>
<totfact> 0.26037923E+01</totfact>
</mgrwt>
</event>
<event>
 4    1  0.1537062E-007  0.8427572E+03  0.7818608E-02  0.9625003E-01
         -1   -1    0    0    0  501 -0.00000000000E+00  0.00000000000E+00  0.15738014832E+04  0.15738014832E+04  0.50400000000E-02 0.  1.
          1   -1    0    0  501    0  0.00000000000E+00 -0.00000000000E+00 -0.21423860173E+04  0.21423860173E+04  0.50400000000E-02 0. -1.
    8880023    1    1    2    0    0 -0.31608597872E+03  0.42014174116E+03  0.14212831021E+04  0.16523574950E+04  0.65864270000E+03 0.  1.
    8880022    1    1    2    0    0  0.31608597872E+03 -0.42014174116E+03 -0.19898676363E+04  0.20638300055E+04  0.15294330000E+03 0.  0.
<mgrwt>
<rscale>  0 0.75663183E+03</rscale>
<asrwt>0</asrwt>
<pdfrwt beam="1">  1        1 0.32959785E+00 0.84275716E+03</pdfrwt>
<pdfrwt beam="2">  1       -1 0.24212330E+00 0.84275716E+03</pdfrwt>
<totfact> 0.19693012E-01</totfact>
</mgrwt>
</event>
<event>
 4    1  0.1008211E-007  0.1075981E+04  0.7818608E-02  0.9288282E-01
         -1   -1    0    0    0  501 -0.00000000000E+00  0.00000000000E+00  0.22393144084E+04  0.22393144084E+04  0.50400000000E-02 0.  1.
          1   -1    0    0  501    0  0.00000000000E+00 -0.00000000000E+00 -0.67365132346E+03  0.67365132347E+03  0.50400000000E-02 0. -1.
    8880023    1    1    2    0    0 -0.71702332858E+03 -0.45804144305E+03 -0.53683195129E+02  0.10773191305E+04  0.65864270000E+03 0. -1.
    8880022    1    1    2    0    0  0.71702332858E+03  0.45804144305E+03  0.16193462801E+04  0.18356466014E+04  0.15294330000E+03 0.  0.
<mgrwt>
<rscale>  0 0.10186885E+04</rscale>
<asrwt>0</asrwt>
<pdfrwt beam="1">  1        1 0.10363867E+00 0.10759808E+04</pdfrwt>
<pdfrwt beam="2">  1       -1 0.34450990E+00 0.10759808E+04</pdfrwt>
<totfact> 0.49187912E-01</totfact>
</mgrwt>
</event>
<event>
 4    1  0.1008211E-007  0.7485880E+03  0.7818608E-02  0.9835602E-01
         -1   -1    0    0    0  501 -0.00000000000E+00  0.00000000000E+00  0.20318443550E+03  0.20318443557E+03  0.50400000000E-02 0.  1.
          1   -1    0    0  501    0  0.00000000000E+00 -0.00000000000E+00 -0.23118584249E+04  0.23118584249E+04  0.50400000000E-02 0. -1.
    8880023    1    1    2    0    0  0.49756427997E+02  0.35227566839E+03 -0.60558422431E+03  0.96286879047E+03  0.65864270000E+03 0.  0.
    8880022    1    1    2    0    0 -0.49756427997E+02 -0.35227566839E+03 -0.15030897651E+04  0.15521740700E+04  0.15294330000E+03 0.  0.
<mgrwt>
<rscale>  0 0.63486456E+03</rscale>
<asrwt>0</asrwt>
<pdfrwt beam="1">  1        1 0.35567051E+00 0.74858804E+03</pdfrwt>
<pdfrwt beam="2">  1       -1 0.31259146E-01 0.74858804E+03</pdfrwt>
<totfact> 0.18132914E+01</totfact>
</mgrwt>
</event>
<event>
 4    1  0.1008211E-007  0.7668729E+03  0.7818608E-02  0.9787629E-01
          1   -1    0    0  501    0  0.00000000000E+00  0.00000000000E+00  0.23995361385E+04  0.23995361385E+04  0.50400000000E-02 0. -1.
         -1   -1    0    0    0  501 -0.00000000000E+00 -0.00000000000E+00 -0.56119283895E+03  0.56119283897E+03  0.50400000000E-02 0.  1.
    8880023    1    1    2    0    0 -0.99716010155E+02 -0.37992173045E+03 -0.26820603629E+03  0.81242137350E+03  0.65864270000E+03 0.  1.
    8880022    1    1    2    0    0  0.99716010155E+02  0.37992173045E+03  0.21065493359E+04  0.21483076040E+04  0.15294330000E+03 0.  0.
<mgrwt>
<rscale>  0 0.66030709E+03</rscale>
<asrwt>0</asrwt>
<pdfrwt beam="1">  1        1 0.36915940E+00 0.76687288E+03</pdfrwt>
<pdfrwt beam="2">  1       -1 0.86337362E-01 0.76687288E+03</pdfrwt>
<totfact> 0.22258861E+00</totfact>
</mgrwt>
</event>
<event>
 4    1  0.1008211E-007  0.9686420E+03  0.7818608E-02  0.9423785E-01
         -1   -1    0    0    0  501 -0.00000000000E+00  0.00000000000E+00  0.49254043255E+03  0.49254043257E+03  0.50400000000E-02 0.  1.
          1   -1    0    0  501    0  0.00000000000E+00 -0.00000000000E+00 -0.24051552230E+04  0.24051552230E+04  0.50400000000E-02 0. -1.
    8880023    1    1    2    0    0  0.63368906555E+03 -0.32077298941E+03 -0.13584296391E+03  0.97812098416E+03  0.65864270000E+03 0.  1.
    8880022    1    1    2    0    0 -0.63368906555E+03  0.32077298941E+03 -0.17767718265E+04  0.19195746714E+04  0.15294330000E+03 0.  0.
<mgrwt>
<rscale>  0 0.90143864E+03</rscale>
<asrwt>0</asrwt>
<pdfrwt beam="1">  1        1 0.37002387E+00 0.96864201E+03</pdfrwt>
<pdfrwt beam="2">  1       -1 0.75775453E-01 0.96864201E+03</pdfrwt>
<totfact> 0.28176558E+00</totfact>
</mgrwt>
</event>
<event>
 4    1  0.1008211E-007  0.7002617E+03  0.7818608E-02  0.9996117E-01
          1   -1    0    0  501    0  0.00000000000E+00  0.00000000000E+00  0.11166200767E+04  0.11166200767E+04  0.50400000000E-02 0. -1.
         -1   -1    0    0    0  501 -0.00000000000E+00 -0.00000000000E+00 -0.66347769693E+03  0.66347769695E+03  0.50400000000E-02 0.  1.
    8880023    1    1    2    0    0 -0.23755576899E+03  0.11114237716E+02 -0.45089802141E+03  0.83287183986E+03  0.65864270000E+03 0.  1.
    8880022    1    1    2    0    0  0.23755576899E+03 -0.11114237716E+02  0.90404040117E+03  0.94722593378E+03  0.15294330000E+03 0.  0.
<mgrwt>
<rscale>  0 0.55820817E+03</rscale>
<asrwt>0</asrwt>
<pdfrwt beam="1">  1        1 0.17178770E+00 0.70026172E+03</pdfrwt>
<pdfrwt beam="2">  1       -1 0.10207349E+00 0.70026172E+03</pdfrwt>
<totfact> 0.11651112E+01</totfact>
</mgrwt>
</event>
<event>
 4    1  0.1008211E-007  0.1086662E+04  0.7818608E-02  0.9276053E-01
          1   -1    0    0  501    0  0.00000000000E+00  0.00000000000E+00  0.17787323448E+04  0.17787323448E+04  0.50400000000E-02 0. -1.
         -1   -1    0    0    0  501 -0.00000000000E+00 -0.00000000000E+00 -0.62509963446E+03  0.62509963448E+03  0.50400000000E-02 0.  1.
    8880023    1    1    2    0    0 -0.79734302035E+03 -0.33357044339E+03  0.19491941690E+03  0.11040058506E+04  0.65864270000E+03 0.  0.
    8880022    1    1    2    0    0  0.79734302035E+03  0.33357044339E+03  0.95871329348E+03  0.12998261287E+04  0.15294330000E+03 0.  0.
<mgrwt>
<rscale>  0 0.10301767E+04</rscale>
<asrwt>0</asrwt>
<pdfrwt beam="1">  1        1 0.27365113E+00 0.10866625E+04</pdfrwt>
<pdfrwt beam="2">  1       -1 0.96169176E-01 0.10866625E+04</pdfrwt>
<totfact> 0.43779963E+00</totfact>
</mgrwt>
</event>
<event>
 4    1  0.1008211E-007  0.8157095E+03  0.7818608E-02  0.9677805E-01
         -1   -1    0    0    0  501 -0.00000000000E+00  0.00000000000E+00  0.61371015702E+03  0.61371015704E+03  0.50400000000E-02 0.  1.
          1   -1    0    0  501    0  0.00000000000E+00 -0.00000000000E+00 -0.16902345391E+04  0.16902345391E+04  0.50400000000E-02 0. -1.
    8880023    1    1    2    0    0  0.42017650658E+03  0.23457095153E+03  0.27528518552E+03  0.86090880331E+03  0.65864270000E+03 0.  1.
    8880022    1    1    2    0    0 -0.42017650658E+03 -0.23457095153E+03 -0.13518095676E+04  0.14430358928E+04  0.15294330000E+03 0.  0.
<mgrwt>
<rscale>  0 0.72353809E+03</rscale>
<asrwt>0</asrwt>
<pdfrwt beam="1">  1        1 0.26003608E+00 0.81570953E+03</pdfrwt>
<pdfrwt beam="2">  1       -1 0.94416948E-01 0.81570953E+03</pdfrwt>
<totfact> 0.54297169E+00</totfact>
</mgrwt>
</event>
<event>
 4    1  0.1008211E-007  0.6736513E+03  0.7818608E-02  0.1013170E+00
         -1   -1    0    0    0  501 -0.00000000000E+00  0.00000000000E+00  0.78848651055E+03  0.78848651057E+03  0.50400000000E-02 0.  1.
          1   -1    0    0  501    0  0.00000000000E+00 -0.00000000000E+00 -0.53205456092E+03  0.53205456094E+03  0.50400000000E-02 0. -1.
    8880023    1    1    2    0    0 -0.27927799841E+02 -0.13862151610E+03  0.61090269965E+03  0.90939991282E+03  0.65864270000E+03 0.  1.
    8880022    1    1    2    0    0  0.27927799841E+02  0.13862151610E+03 -0.35447075002E+03  0.41114115869E+03  0.15294330000E+03 0.  0.
<mgrwt>
<rscale>  0 0.50233912E+03</rscale>
<asrwt>0</asrwt>
<pdfrwt beam="1">  1        1 0.81854549E-01 0.67365131E+03</pdfrwt>
<pdfrwt beam="2">  1       -1 0.12130562E+00 0.67365131E+03</pdfrwt>
<totfact> 0.25320897E+01</totfact>
</mgrwt>
</event>
<event>
 4    1  0.1008211E-007  0.8189646E+03  0.7818608E-02  0.9671198E-01
         -1   -1    0    0    0  501 -0.00000000000E+00  0.00000000000E+00  0.29099183547E+03  0.29099183551E+03  0.50400000000E-02 0.  1.
          1   -1    0    0  501    0  0.00000000000E+00 -0.00000000000E+00 -0.15398623828E+04  0.15398623828E+04  0.50400000000E-02 0. -1.
    8880023    1    1    2    0    0  0.67586588178E+02 -0.48200091386E+03 -0.66071342920E+03  0.10522572260E+04  0.65864270000E+03 0. -1.
    8880022    1    1    2    0    0 -0.67586588178E+02  0.48200091386E+03 -0.58815711817E+03  0.77859699237E+03  0.15294330000E+03 0.  0.
<mgrwt>
<rscale>  0 0.72757855E+03</rscale>
<asrwt>0</asrwt>
<pdfrwt beam="1">  1        1 0.23690190E+00 0.81896461E+03</pdfrwt>
<pdfrwt beam="2">  1       -1 0.44767975E-01 0.81896461E+03</pdfrwt>
<totfact> 0.31078515E+01</totfact>
</mgrwt>
</event>
<event>
 4    1  0.1008211E-007  0.7777911E+03  0.7818608E-02  0.9761052E-01
         -1   -1    0    0    0  501 -0.00000000000E+00  0.00000000000E+00  0.15502664046E+04  0.15502664046E+04  0.50400000000E-02 0.  1.
          1   -1    0    0  501    0  0.00000000000E+00 -0.00000000000E+00 -0.12608229374E+04  0.12608229374E+04  0.50400000000E-02 0. -1.
    8880023    1    1    2    0    0 -0.18240826739E+03 -0.37131660319E+03  0.14080919437E+04  0.16086273415E+04  0.65864270000E+03 0.  1.
    8880022    1    1    2    0    0  0.18240826739E+03  0.37131660319E+03 -0.11186484764E+04  0.12024620005E+04  0.15294330000E+03 0.  0.
<mgrwt>
<rscale>  0 0.67495290E+03</rscale>
<asrwt>0</asrwt>
<pdfrwt beam="1">  1        1 0.19397276E+00 0.77779110E+03</pdfrwt>
<pdfrwt beam="2">  1       -1 0.23850252E+00 0.77779110E+03</pdfrwt>
<totfact> 0.83909095E-01</totfact>
</mgrwt>
</event>
<event>
 4    1  0.1008211E-007  0.1214336E+04  0.7818608E-02  0.9143312E-01
         -1   -1    0    0    0  501 -0.00000000000E+00  0.00000000000E+00  0.11846540470E+04  0.11846540470E+04  0.50400000000E-02 0.  1.
          1   -1    0    0  501    0  0.00000000000E+00 -0.00000000000E+00 -0.15558021421E+04  0.15558021421E+04  0.50400000000E-02 0. -1.
    8880023    1    1    2    0    0  0.71249751783E+03 -0.73016977224E+03 -0.96416512742E+03  0.15505564190E+04  0.65864270000E+03 0.  1.
    8880022    1    1    2    0    0 -0.71249751783E+03  0.73016977224E+03  0.59301703239E+03  0.11898997701E+04  0.15294330000E+03 0.  0.
<mgrwt>
<rscale>  0 0.11658201E+04</rscale>
<asrwt>0</asrwt>
<pdfrwt beam="1">  1        1 0.23935418E+00 0.12143355E+04</pdfrwt>
<pdfrwt beam="2">  1       -1 0.18225447E+00 0.12143355E+04</pdfrwt>
<totfact> 0.11741232E+00</totfact>
</mgrwt>
</event>
<event>
 4    1  0.1008211E-007  0.7213232E+03  0.7818608E-02  0.9918134E-01
         -1   -1    0    0    0  501 -0.00000000000E+00  0.00000000000E+00  0.72929638207E+03  0.72929638209E+03  0.50400000000E-02 0.  1.
          1   -1    0    0  501    0  0.00000000000E+00 -0.00000000000E+00 -0.68496481730E+03  0.68496481732E+03  0.50400000000E-02 0. -1.
    8880023    1    1    2    0    0  0.24616463017E+03 -0.16093436593E+03  0.48028377088E+03  0.86659079277E+03  0.65864270000E+03 0.  1.
    8880022    1    1    2    0    0 -0.24616463017E+03  0.16093436593E+03 -0.43595220611E+03  0.54767040664E+03  0.15294330000E+03 0.  0.
<mgrwt>
<rscale>  0 0.59390429E+03</rscale>
<asrwt>0</asrwt>
<pdfrwt beam="1">  1        1 0.10537920E+00 0.72132316E+03</pdfrwt>
<pdfrwt beam="2">  1       -1 0.11219944E+00 0.72132316E+03</pdfrwt>
<totfact> 0.21114505E+01</totfact>
</mgrwt>
</event>
<event>
 4    1  0.1008211E-007  0.6821625E+03  0.7818608E-02  0.1008126E+00
          1   -1    0    0  501    0  0.00000000000E+00  0.00000000000E+00  0.12924871530E+04  0.12924871530E+04  0.50400000000E-02 0. -1.
         -1   -1    0    0    0  501 -0.00000000000E+00 -0.00000000000E+00 -0.19072339753E+03  0.19072339760E+03  0.50400000000E-02 0.  1.
    8880023    1    1    2    0    0  0.83356793761E+02  0.15680291680E+03  0.52546829731E+03  0.86108225363E+03  0.65864270000E+03 0.  0.
    8880022    1    1    2    0    0 -0.83356793761E+02 -0.15680291680E+03  0.57629545819E+03  0.62212829700E+03  0.15294330000E+03 0.  0.
<mgrwt>
<rscale>  0 0.52226304E+03</rscale>
<asrwt>0</asrwt>
<pdfrwt beam="1">  1        1 0.19884417E+00 0.68216253E+03</pdfrwt>
<pdfrwt beam="2">  1       -1 0.29342063E-01 0.68216253E+03</pdfrwt>
<totfact> 0.99792226E+01</totfact>
</mgrwt>
</event>
<event>
 4    1  0.1008211E-007  0.7219208E+03  0.7818608E-02  0.9916139E-01
          1   -1    0    0  501    0  0.00000000000E+00  0.00000000000E+00  0.76572157983E+03  0.76572157985E+03  0.50400000000E-02 0. -1.
         -1   -1    0    0    0  501 -0.00000000000E+00 -0.00000000000E+00 -0.91282645082E+03  0.91282645083E+03  0.50400000000E-02 0.  1.
    8880023    1    1    2    0    0  0.10558957996E+03  0.27606214063E+03 -0.71771610942E+03  0.10179813775E+04  0.65864270000E+03 0.  1.
    8880022    1    1    2    0    0 -0.10558957996E+03 -0.27606214063E+03  0.57061123844E+03  0.66056665321E+03  0.15294330000E+03 0.  0.
<mgrwt>
<rscale>  0 0.59485442E+03</rscale>
<asrwt>0</asrwt>
<pdfrwt beam="1">  1        1 0.11780332E+00 0.72192082E+03</pdfrwt>
<pdfrwt beam="2">  1       -1 0.14043484E+00 0.72192082E+03</pdfrwt>
<totfact> 0.10199372E+01</totfact>
</mgrwt>
</event>
<event>
 4    1  0.1008211E-007  0.1390550E+04  0.7818608E-02  0.8991061E-01
         -1   -1    0    0    0  501 -0.00000000000E+00  0.00000000000E+00  0.10484694740E+04  0.10484694740E+04  0.50400000000E-02 0.  1.
          1   -1    0    0  501    0  0.00000000000E+00 -0.00000000000E+00 -0.20137019275E+04  0.20137019275E+04  0.50400000000E-02 0. -1.
    8880023    1    1    2    0    0 -0.51916986807E+03  0.11091801910E+04  0.15017839038E+03  0.13986356935E+04  0.65864270000E+03 0.  0.
    8880022    1    1    2    0    0  0.51916986807E+03 -0.11091801910E+04 -0.11154108439E+04  0.16635357080E+04  0.15294330000E+03 0.  0.
<mgrwt>
<rscale>  0 0.13496925E+04</rscale>
<asrwt>0</asrwt>
<pdfrwt beam="1">  1        1 0.30980030E+00 0.13905496E+04</pdfrwt>
<pdfrwt beam="2">  1       -1 0.16130300E+00 0.13905496E+04</pdfrwt>
<totfact> 0.79992567E-01</totfact>
</mgrwt>
</event>
<event>
 4    1  0.1008211E-007  0.6816682E+03  0.7818608E-02  0.1008395E+00
          1   -1    0    0  501    0  0.00000000000E+00  0.00000000000E+00  0.14645047336E+04  0.14645047336E+04  0.50400000000E-02 0. -1.
         -1   -1    0    0    0  501 -0.00000000000E+00 -0.00000000000E+00 -0.47264790911E+03  0.47264790914E+03  0.50400000000E-02 0.  1.
    8880023    1    1    2    0    0 -0.32447257735E+02 -0.17265132839E+03 -0.20972662063E+03  0.71320177187E+03  0.65864270000E+03 0.  1.
    8880022    1    1    2    0    0  0.32447257735E+02  0.17265132839E+03  0.12015834451E+04  0.12239508708E+04  0.15294330000E+03 0.  0.
<mgrwt>
<rscale>  0 0.52117395E+03</rscale>
<asrwt>0</asrwt>
<pdfrwt beam="1">  1        1 0.22530842E+00 0.68166818E+03</pdfrwt>
<pdfrwt beam="2">  1       -1 0.72715063E-01 0.68166818E+03</pdfrwt>
<totfact> 0.13824101E+01</totfact>
</mgrwt>
</event>
<event>
 4    1  0.1008211E-007  0.1683306E+04  0.7818608E-02  0.8789991E-01
         -1   -1    0    0    0  501 -0.00000000000E+00  0.00000000000E+00  0.17090006645E+04  0.17090006645E+04  0.50400000000E-02 0.  1.
          1   -1    0    0  501    0  0.00000000000E+00 -0.00000000000E+00 -0.20082665321E+04  0.20082665321E+04  0.50400000000E-02 0. -1.
    8880023    1    1    2    0    0  0.15483802205E+04 -0.47189668721E+02 -0.10553004609E+04  0.19867504728E+04  0.65864270000E+03 0.  0.
    8880022    1    1    2    0    0 -0.15483802205E+04  0.47189668721E+02  0.75603459325E+03  0.17305167238E+04  0.15294330000E+03 0.  0.
<mgrwt>
<rscale>  0 0.16507020E+04</rscale>
<asrwt>0</asrwt>
<pdfrwt beam="1">  1        1 0.30896408E+00 0.16833058E+04</pdfrwt>
<pdfrwt beam="2">  1       -1 0.26292318E+00 0.16833058E+04</pdfrwt>
<totfact> 0.15602002E-01</totfact>
</mgrwt>
</event>
<event>
 4    1  0.1008211E-007  0.6823880E+03  0.7818608E-02  0.1008004E+00
         -1   -1    0    0    0  501 -0.00000000000E+00  0.00000000000E+00  0.45442524758E+03  0.45442524761E+03  0.50400000000E-02 0.  1.
          1   -1    0    0  501    0  0.00000000000E+00 -0.00000000000E+00 -0.12936514525E+04  0.12936514525E+04  0.50400000000E-02 0. -1.
    8880023    1    1    2    0    0 -0.55214046889E+02 -0.16968987182E+03  0.17704747503E+03  0.70498174320E+03  0.65864270000E+03 0.  1.
    8880022    1    1    2    0    0  0.55214046889E+02  0.16968987182E+03 -0.10162736800E+04  0.10430949569E+04  0.15294330000E+03 0.  0.
<mgrwt>
<rscale>  0 0.52275748E+03</rscale>
<asrwt>0</asrwt>
<pdfrwt beam="1">  1        1 0.19902330E+00 0.68238805E+03</pdfrwt>
<pdfrwt beam="2">  1       -1 0.69911577E-01 0.68238805E+03</pdfrwt>
<totfact> 0.19698119E+01</totfact>
</mgrwt>
</event>
<event>
 4    1  0.1008211E-007  0.1139455E+04  0.7818608E-02  0.9218349E-01
          1   -1    0    0  501    0  0.00000000000E+00  0.00000000000E+00  0.33090039376E+04  0.33090039376E+04  0.50400000000E-02 0. -1.
         -1   -1    0    0    0  501 -0.00000000000E+00 -0.00000000000E+00 -0.56794540624E+03  0.56794540627E+03  0.50400000000E-02 0.  1.
    8880023    1    1    2    0    0  0.24633039586E+03 -0.89658693964E+03  0.18711775080E+03  0.11547164428E+04  0.65864270000E+03 0.  1.
    8880022    1    1    2    0    0 -0.24633039586E+03  0.89658693964E+03  0.25539407806E+04  0.27222329011E+04  0.15294330000E+03 0.  0.
<mgrwt>
<rscale>  0 0.10866024E+04</rscale>
<asrwt>0</asrwt>
<pdfrwt beam="1">  1        1 0.50907753E+00 0.11394547E+04</pdfrwt>
<pdfrwt beam="2">  1       -1 0.87376216E-01 0.11394547E+04</pdfrwt>
<totfact> 0.45828125E-01</totfact>
</mgrwt>
</event>
<event>
 4    1  0.1008211E-007  0.1552046E+04  0.7818608E-02  0.8873733E-01
          1   -1    0    0  501    0  0.00000000000E+00  0.00000000000E+00  0.27636309494E+04  0.27636309494E+04  0.50400000000E-02 0. -1.
         -1   -1    0    0    0  501 -0.00000000000E+00 -0.00000000000E+00 -0.88136580009E+03  0.88136580010E+03  0.50400000000E-02 0.  1.
    8880023    1    1    2    0    0  0.11040912075E+04 -0.86949296136E+03  0.15486141329E+04  0.21924988810E+04  0.65864270000E+03 0.  0.
    8880022    1    1    2    0    0 -0.11040912075E+04  0.86949296136E+03  0.33365101638E+03  0.14524978685E+04  0.15294330000E+03 0.  0.
<mgrwt>
<rscale>  0 0.15162276E+04</rscale>
<asrwt>0</asrwt>
<pdfrwt beam="1">  1        1 0.42517399E+00 0.15520456E+04</pdfrwt>
<pdfrwt beam="2">  1       -1 0.13559474E+00 0.15520456E+04</pdfrwt>
<totfact> 0.38152116E-01</totfact>
</mgrwt>
</event>
<event>
 4    1  0.1008211E-007  0.9446701E+03  0.7818608E-02  0.9457825E-01
         -1   -1    0    0    0  501 -0.00000000000E+00  0.00000000000E+00  0.99796641313E+03  0.99796641314E+03  0.50400000000E-02 0.  1.
          1   -1    0    0  501    0  0.00000000000E+00 -0.00000000000E+00 -0.25265449563E+04  0.25265449563E+04  0.50400000000E-02 0. -1.
    8880023    1    1    2    0    0 -0.67556258800E+03  0.46973316368E+02  0.70936587389E+03  0.11813557686E+04  0.65864270000E+03 0.  0.
    8880022    1    1    2    0    0  0.67556258800E+03 -0.46973316368E+02 -0.22379444170E+04  0.23431556008E+04  0.15294330000E+03 0.  0.
<mgrwt>
<rscale>  0 0.87465961E+03</rscale>
<asrwt>0</asrwt>
<pdfrwt beam="1">  1        1 0.38869922E+00 0.94467005E+03</pdfrwt>
<pdfrwt beam="2">  1       -1 0.15353330E+00 0.94467005E+03</pdfrwt>
<totfact> 0.43776342E-01</totfact>
</mgrwt>
</event>
<event>
 4    1  0.1008211E-007  0.1064193E+04  0.7818608E-02  0.9302010E-01
          1   -1    0    0  501    0  0.00000000000E+00  0.00000000000E+00  0.19200149659E+04  0.19200149659E+04  0.50400000000E-02 0. -1.
         -1   -1    0    0    0  501 -0.00000000000E+00 -0.00000000000E+00 -0.55953383032E+03  0.55953383035E+03  0.50400000000E-02 0.  1.
    8880023    1    1    2    0    0  0.58123725832E+03  0.60071680724E+03  0.27154460519E+03  0.10982914512E+04  0.65864270000E+03 0.  1.
    8880022    1    1    2    0    0 -0.58123725832E+03 -0.60071680724E+03  0.10889365304E+04  0.13812573450E+04  0.15294330000E+03 0.  0.
<mgrwt>
<rscale>  0 0.10059798E+04</rscale>
<asrwt>0</asrwt>
<pdfrwt beam="1">  1        1 0.29538692E+00 0.10641934E+04</pdfrwt>
<pdfrwt beam="2">  1       -1 0.86082129E-01 0.10641934E+04</pdfrwt>
<totfact> 0.45074977E+00</totfact>
</mgrwt>
</event>
<event>
 4    1  0.1008211E-007  0.7248619E+03  0.7818608E-02  0.9906466E-01
         -1   -1    0    0    0  501 -0.00000000000E+00  0.00000000000E+00  0.23529232740E+03  0.23529232745E+03  0.50400000000E-02 0.  1.
          1   -1    0    0  501    0  0.00000000000E+00 -0.00000000000E+00 -0.14108924024E+04  0.14108924024E+04  0.50400000000E-02 0. -1.
    8880023    1    1    2    0    0  0.28275170732E+03  0.10800942156E+03 -0.47163080132E+03  0.86478921256E+03  0.65864270000E+03 0.  0.
    8880022    1    1    2    0    0 -0.28275170732E+03 -0.10800942156E+03 -0.70396927365E+03  0.78139551726E+03  0.15294330000E+03 0.  0.
<mgrwt>
<rscale>  0 0.59948955E+03</rscale>
<asrwt>0</asrwt>
<pdfrwt beam="1">  1        1 0.21706037E+00 0.72486190E+03</pdfrwt>
<pdfrwt beam="2">  1       -1 0.36198820E-01 0.72486190E+03</pdfrwt>
<totfact> 0.56725415E+01</totfact>
</mgrwt>
</event>
<event>
 4    1  0.1085348E-007  0.9439773E+03  0.7818608E-02  0.9458833E-01
          1   -1    0    0  501    0  0.00000000000E+00  0.00000000000E+00  0.14800376333E+04  0.14800376333E+04  0.50400000000E-02 0. -1.
         -1   -1    0    0    0  501 -0.00000000000E+00 -0.00000000000E+00 -0.31890693006E+04  0.31890693006E+04  0.50400000000E-02 0.  1.
    8880023    1    1    2    0    0 -0.54306161389E+03  0.40294793685E+03 -0.30319623131E+04  0.31755139160E+04  0.65864270000E+03 0.  1.
    8880022    1    1    2    0    0  0.54306161389E+03 -0.40294793685E+03  0.13229306458E+04  0.14935930178E+04  0.15294330000E+03 0.  0.
<mgrwt>
<rscale>  0 0.87388154E+03</rscale>
<asrwt>0</asrwt>
<pdfrwt beam="1">  1        1 0.22769810E+00 0.94397731E+03</pdfrwt>
<pdfrwt beam="2">  1       -1 0.49062604E+00 0.94397731E+03</pdfrwt>
<totfact> 0.12015954E-02</totfact>
</mgrwt>
</event>
<event>
 4    1  0.1008211E-007  0.7073866E+03  0.7818608E-02  0.9967837E-01
         -1   -1    0    0    0  501 -0.00000000000E+00  0.00000000000E+00  0.17603088676E+04  0.17603088676E+04  0.50400000000E-02 0.  1.
          1   -1    0    0  501    0  0.00000000000E+00 -0.00000000000E+00 -0.39257264011E+03  0.39257264015E+03  0.50400000000E-02 0. -1.
    8880023    1    1    2    0    0 -0.15884474940E+03  0.20335670947E+03  0.16156544876E+04  0.17637276533E+04  0.65864270000E+03 0.  1.
    8880022    1    1    2    0    0  0.15884474940E+03 -0.20335670947E+03 -0.24791826009E+03  0.38915385440E+03  0.15294330000E+03 0.  0.
<mgrwt>
<rscale>  0 0.57083319E+03</rscale>
<asrwt>0</asrwt>
<pdfrwt beam="1">  1        1 0.60395791E-01 0.70738661E+03</pdfrwt>
<pdfrwt beam="2">  1       -1 0.27081675E+00 0.70738661E+03</pdfrwt>
<totfact> 0.33021567E+00</totfact>
</mgrwt>
</event>
<event>
 4    1  0.1008211E-007  0.7277460E+03  0.7818608E-02  0.9897198E-01
          1   -1    0    0  501    0  0.00000000000E+00  0.00000000000E+00  0.12089230787E+04  0.12089230788E+04  0.50400000000E-02 0. -1.
         -1   -1    0    0    0  501 -0.00000000000E+00 -0.00000000000E+00 -0.33605861148E+03  0.33605861152E+03  0.50400000000E-02 0.  1.
    8880023    1    1    2    0    0  0.24002641857E+03  0.19542598037E+03  0.14877660832E+03  0.74279787349E+03  0.65864270000E+03 0.  1.
    8880022    1    1    2    0    0 -0.24002641857E+03 -0.19542598037E+03  0.72408785895E+03  0.80218381678E+03  0.15294330000E+03 0.  0.
<mgrwt>
<rscale>  0 0.60397284E+03</rscale>
<asrwt>0</asrwt>
<pdfrwt beam="1">  1        1 0.18598817E+00 0.72774597E+03</pdfrwt>
<pdfrwt beam="2">  1       -1 0.51701324E-01 0.72774597E+03</pdfrwt>
<totfact> 0.40800486E+01</totfact>
</mgrwt>
</event>
<event>
 4    1  0.1008211E-007  0.9840619E+03  0.7818608E-02  0.9402713E-01
          1   -1    0    0  501    0  0.00000000000E+00  0.00000000000E+00  0.23663647665E+04  0.23663647665E+04  0.50400000000E-02 0. -1.
         -1   -1    0    0    0  501 -0.00000000000E+00 -0.00000000000E+00 -0.49991818211E+03  0.49991818214E+03  0.50400000000E-02 0.  1.
    8880023    1    1    2    0    0 -0.47351358248E+03  0.55709285774E+03  0.15141409193E+03  0.99564250534E+03  0.65864270000E+03 0.  1.
    8880022    1    1    2    0    0  0.47351358248E+03 -0.55709285774E+03  0.17150324924E+04  0.18706404433E+04  0.15294330000E+03 0.  0.
<mgrwt>
<rscale>  0 0.91852739E+03</rscale>
<asrwt>0</asrwt>
<pdfrwt beam="1">  1        1 0.36405612E+00 0.98406187E+03</pdfrwt>
<pdfrwt beam="2">  1       -1 0.76910488E-01 0.98406187E+03</pdfrwt>
<totfact> 0.28957763E+00</totfact>
</mgrwt>
</event>
<event>
 4    1  0.1008211E-007  0.9723735E+03  0.7818608E-02  0.9418629E-01
          1   -1    0    0  501    0  0.00000000000E+00  0.00000000000E+00  0.76677086664E+03  0.76677086665E+03  0.50400000000E-02 0. -1.
         -1   -1    0    0    0  501 -0.00000000000E+00 -0.00000000000E+00 -0.13120045207E+04  0.13120045207E+04  0.50400000000E-02 0.  1.
    8880023    1    1    2    0    0 -0.68598217387E+03 -0.20280151455E+03 -0.84500691226E+03  0.12882340180E+04  0.65864270000E+03 0.  0.
    8880022    1    1    2    0    0  0.68598217387E+03  0.20280151455E+03  0.29977325824E+03  0.79054136929E+03  0.15294330000E+03 0.  0.
<mgrwt>
<rscale>  0 0.90558319E+03</rscale>
<asrwt>0</asrwt>
<pdfrwt beam="1">  1        1 0.11796475E+00 0.97237349E+03</pdfrwt>
<pdfrwt beam="2">  1       -1 0.20184685E+00 0.97237349E+03</pdfrwt>
<totfact> 0.34833114E+00</totfact>
</mgrwt>
</event>
<event>
 4    1  0.1008211E-007  0.7808050E+03  0.7818608E-02  0.9753949E-01
          1   -1    0    0  501    0  0.00000000000E+00  0.00000000000E+00  0.97368444104E+03  0.97368444106E+03  0.50400000000E-02 0. -1.
         -1   -1    0    0    0  501 -0.00000000000E+00 -0.00000000000E+00 -0.46953991082E+03  0.46953991085E+03  0.50400000000E-02 0.  1.
    8880023    1    1    2    0    0  0.41930143665E+03  0.57116960662E+01  0.14886530383E+02  0.78094694653E+03  0.65864270000E+03 0. -1.
    8880022    1    1    2    0    0 -0.41930143665E+03 -0.57116960662E+01  0.48925799984E+03  0.66227740537E+03  0.15294330000E+03 0.  0.
<mgrwt>
<rscale>  0 0.67893543E+03</rscale>
<asrwt>0</asrwt>
<pdfrwt beam="1">  1        1 0.14979760E+00 0.78080505E+03</pdfrwt>
<pdfrwt beam="2">  1       -1 0.72236910E-01 0.78080505E+03</pdfrwt>
<totfact> 0.31396598E+01</totfact>
</mgrwt>
</event>
<event>
 4    1  0.1008211E-007  0.7189584E+03  0.7818608E-02  0.9926126E-01
          1   -1    0    0  501    0  0.00000000000E+00  0.00000000000E+00  0.89526667656E+03  0.89526667658E+03  0.50400000000E-02 0. -1.
         -1   -1    0    0    0  501 -0.00000000000E+00 -0.00000000000E+00 -0.54859129333E+03  0.54859129335E+03  0.50400000000E-02 0.  1.
    8880023    1    1    2    0    0 -0.23087749473E+03  0.17258800885E+03 -0.25215106579E+03  0.76189330264E+03  0.65864270000E+03 0.  1.
    8880022    1    1    2    0    0  0.23087749473E+03 -0.17258800885E+03  0.59882644902E+03  0.68196466729E+03  0.15294330000E+03 0.  0.
<mgrwt>
<rscale>  0 0.59011645E+03</rscale>
<asrwt>0</asrwt>
<pdfrwt beam="1">  1        1 0.13773333E+00 0.71895844E+03</pdfrwt>
<pdfrwt beam="2">  1       -1 0.84398662E-01 0.71895844E+03</pdfrwt>
<totfact> 0.26306171E+01</totfact>
</mgrwt>
</event>
<event>
 4    1  0.1008211E-007  0.9578156E+03  0.7818608E-02  0.9438957E-01
         -1   -1    0    0    0  501 -0.00000000000E+00  0.00000000000E+00  0.41136966330E+03  0.41136966333E+03  0.50400000000E-02 0.  1.
          1   -1    0    0  501    0  0.00000000000E+00 -0.00000000000E+00 -0.38873077513E+04  0.38873077514E+04  0.50400000000E-02 0. -1.
    8880023    1    1    2    0    0  0.32421113068E+03  0.61521347051E+03 -0.34560989049E+04  0.35863672872E+04  0.65864270000E+03 0.  0.
    8880022    1    1    2    0    0 -0.32421113068E+03 -0.61521347051E+03 -0.19839183113E+02  0.71231012751E+03  0.15294330000E+03 0.  0.
<mgrwt>
<rscale>  0 0.88937839E+03</rscale>
<asrwt>0</asrwt>
<pdfrwt beam="1">  1        1 0.59804732E+00 0.95781558E+03</pdfrwt>
<pdfrwt beam="2">  1       -1 0.63287643E-01 0.95781558E+03</pdfrwt>
<totfact> 0.32250945E-01</totfact>
</mgrwt>
</event>
<event>
 4    1  0.1064939E-007  0.1211668E+04  0.7818608E-02  0.9145863E-01
         -1   -1    0    0    0  501 -0.00000000000E+00  0.00000000000E+00  0.22391008293E+04  0.22391008293E+04  0.50400000000E-02 0.  1.
          1   -1    0    0  501    0  0.00000000000E+00 -0.00000000000E+00 -0.12061357209E+04  0.12061357209E+04  0.50400000000E-02 0. -1.
    8880023    1    1    2    0    0 -0.67153611742E+03  0.76378604974E+03  0.17946842441E+04  0.21654171951E+04  0.65864270000E+03 0.  1.
    8880022    1    1    2    0    0  0.67153611742E+03 -0.76378604974E+03 -0.76171913568E+03  0.12798193550E+04  0.15294330000E+03 0.  0.
<mgrwt>
<rscale>  0 0.11630121E+04</rscale>
<asrwt>0</asrwt>
<pdfrwt beam="1">  1        1 0.18555934E+00 0.12116683E+04</pdfrwt>
<pdfrwt beam="2">  1       -1 0.34447705E+00 0.12116683E+04</pdfrwt>
<totfact> 0.17626922E-01</totfact>
</mgrwt>
</event>
<event>
 4    1  0.1008211E-007  0.7927495E+03  0.7818608E-02  0.9726698E-01
          1   -1    0    0  501    0  0.00000000000E+00  0.00000000000E+00  0.49455277494E+03  0.49455277497E+03  0.50400000000E-02 0. -1.
         -1   -1    0    0    0  501 -0.00000000000E+00 -0.00000000000E+00 -0.20327798229E+04  0.20327798229E+04  0.50400000000E-02 0.  1.
    8880023    1    1    2    0    0  0.17026759630E+03 -0.40700188596E+03 -0.18177679497E+04  0.19831117252E+04  0.65864270000E+03 0.  0.
    8880022    1    1    2    0    0 -0.17026759630E+03  0.40700188596E+03  0.27954090170E+03  0.54422087268E+03  0.15294330000E+03 0.  0.
<mgrwt>
<rscale>  0 0.69449213E+03</rscale>
<asrwt>0</asrwt>
<pdfrwt beam="1">  1        1 0.76085043E-01 0.79274952E+03</pdfrwt>
<pdfrwt beam="2">  1       -1 0.31273535E+00 0.79274952E+03</pdfrwt>
<totfact> 0.12874417E+00</totfact>
</mgrwt>
</event>
<event>
 4    1  0.1008211E-007  0.7082663E+03  0.7818608E-02  0.9964496E-01
          1   -1    0    0  501    0  0.00000000000E+00  0.00000000000E+00  0.10584506500E+04  0.10584506500E+04  0.50400000000E-02 0. -1.
         -1   -1    0    0    0  501 -0.00000000000E+00 -0.00000000000E+00 -0.90404145659E+03  0.90404145661E+03  0.50400000000E-02 0.  1.
    8880023    1    1    2    0    0  0.15460356187E+03 -0.20959184626E+03 -0.73648770868E+03  0.10217902694E+04  0.65864270000E+03 0.  1.
    8880022    1    1    2    0    0 -0.15460356187E+03  0.20959184626E+03  0.89089690205E+03  0.94070183717E+03  0.15294330000E+03 0.  0.
<mgrwt>
<rscale>  0 0.57234816E+03</rscale>
<asrwt>0</asrwt>
<pdfrwt beam="1">  1        1 0.16283856E+00 0.70826634E+03</pdfrwt>
<pdfrwt beam="2">  1       -1 0.13908330E+00 0.70826634E+03</pdfrwt>
<totfact> 0.60620017E+00</totfact>
</mgrwt>
</event>
<event>
 4    1  0.1008211E-007  0.7754938E+03  0.7818608E-02  0.9766530E-01
          1   -1    0    0  501    0  0.00000000000E+00  0.00000000000E+00  0.22470493209E+04  0.22470493209E+04  0.50400000000E-02 0. -1.
         -1   -1    0    0    0  501 -0.00000000000E+00 -0.00000000000E+00 -0.73707853064E+03  0.73707853065E+03  0.50400000000E-02 0.  1.
    8880023    1    1    2    0    0  0.21698147960E+03  0.34713041122E+03 -0.50295421306E+03  0.92431251835E+03  0.65864270000E+03 0.  1.
    8880022    1    1    2    0    0 -0.21698147960E+03 -0.34713041122E+03  0.20129250034E+04  0.20598153332E+04  0.15294330000E+03 0.  0.
<mgrwt>
<rscale>  0 0.67190058E+03</rscale>
<asrwt>0</asrwt>
<pdfrwt beam="1">  1        1 0.34569989E+00 0.77549384E+03</pdfrwt>
<pdfrwt beam="2">  1       -1 0.11339670E+00 0.77549384E+03</pdfrwt>
<totfact> 0.15152344E+00</totfact>
</mgrwt>
</event>
<event>
 4    1  0.1229112E-007  0.7216363E+03  0.7818608E-02  0.9917088E-01
          1   -1    0    0  501    0  0.00000000000E+00  0.00000000000E+00  0.23126641170E+04  0.23126641170E+04  0.50400000000E-02 0. -1.
         -1   -1    0    0    0  501 -0.00000000000E+00 -0.00000000000E+00 -0.10200890673E+04  0.10200890673E+04  0.50400000000E-02 0.  1.
    8880023    1    1    2    0    0 -0.28745622401E+03  0.65709142293E+02 -0.87822894470E+03  0.11366815991E+04  0.65864270000E+03 0.  1.
    8880022    1    1    2    0    0  0.28745622401E+03 -0.65709142293E+02  0.21708039945E+04  0.21960715852E+04  0.15294330000E+03 0.  0.
<mgrwt>
<rscale>  0 0.59440249E+03</rscale>
<asrwt>0</asrwt>
<pdfrwt beam="1">  1        1 0.35579448E+00 0.72163632E+03</pdfrwt>
<pdfrwt beam="2">  1       -1 0.15693678E+00 0.72163632E+03</pdfrwt>
<totfact> 0.60434279E-01</totfact>
</mgrwt>
</event>
<event>
 4    1  0.1008211E-007  0.8297213E+03  0.7818608E-02  0.9649875E-01
          1   -1    0    0  501    0  0.00000000000E+00  0.00000000000E+00  0.56456455588E+03  0.56456455590E+03  0.50400000000E-02 0. -1.
         -1   -1    0    0    0  501 -0.00000000000E+00 -0.00000000000E+00 -0.12754661661E+04  0.12754661661E+04  0.50400000000E-02 0.  1.
    8880023    1    1    2    0    0 -0.45919237388E+03  0.20921197938E+03 -0.94978872974E+03  0.12611645911E+04  0.65864270000E+03 0.  1.
    8880022    1    1    2    0    0  0.45919237388E+03 -0.20921197938E+03  0.23888711954E+03  0.57886613085E+03  0.15294330000E+03 0.  0.
<mgrwt>
<rscale>  0 0.74081282E+03</rscale>
<asrwt>0</asrwt>
<pdfrwt beam="1">  1        1 0.86856085E-01 0.82972134E+03</pdfrwt>
<pdfrwt beam="2">  1       -1 0.19622556E+00 0.82972134E+03</pdfrwt>
<totfact> 0.61164624E+00</totfact>
</mgrwt>
</event>
<event>
 4    1  0.1008211E-007  0.1034678E+04  0.7818608E-02  0.9337531E-01
         -1   -1    0    0    0  501 -0.00000000000E+00  0.00000000000E+00  0.10310544403E+04  0.10310544403E+04  0.50400000000E-02 0.  1.
          1   -1    0    0  501    0  0.00000000000E+00 -0.00000000000E+00 -0.14427776785E+04  0.14427776785E+04  0.50400000000E-02 0. -1.
    8880023    1    1    2    0    0  0.58258144204E+03 -0.54529565605E+03  0.58445034376E+03  0.11883353482E+04  0.65864270000E+03 0.  0.
    8880022    1    1    2    0    0 -0.58258144204E+03  0.54529565605E+03 -0.99617358193E+03  0.12854967707E+04  0.15294330000E+03 0.  0.
<mgrwt>
<rscale>  0 0.97399886E+03</rscale>
<asrwt>0</asrwt>
<pdfrwt beam="1">  1        1 0.22196580E+00 0.10346781E+04</pdfrwt>
<pdfrwt beam="2">  1       -1 0.15862376E+00 0.10346781E+04</pdfrwt>
<totfact> 0.21475943E+00</totfact>
</mgrwt>
</event>
<event>
 4    1  0.1008211E-007  0.9204627E+03  0.7818608E-02  0.9493950E-01
          1   -1    0    0  501    0  0.00000000000E+00  0.00000000000E+00  0.11152384388E+04  0.11152384388E+04  0.50400000000E-02 0. -1.
         -1   -1    0    0    0  501 -0.00000000000E+00 -0.00000000000E+00 -0.15455108590E+04  0.15455108590E+04  0.50400000000E-02 0.  1.
    8880023    1    1    2    0    0 -0.30860428776E+03  0.56409638680E+03 -0.12847712123E+04  0.15804710102E+04  0.65864270000E+03 0.  1.
    8880022    1    1    2    0    0  0.30860428776E+03 -0.56409638680E+03  0.85449879201E+03  0.10802782876E+04  0.15294330000E+03 0.  0.
<mgrwt>
<rscale>  0 0.84731339E+03</rscale>
<asrwt>0</asrwt>
<pdfrwt beam="1">  1        1 0.17157515E+00 0.92046268E+03</pdfrwt>
<pdfrwt beam="2">  1       -1 0.23777090E+00 0.92046268E+03</pdfrwt>
<totfact> 0.10560559E+00</totfact>
</mgrwt>
</event>
<event>
 4    1  0.1008211E-007  0.6821609E+03  0.7818608E-02  0.1008127E+00
         -1   -1    0    0    0  501 -0.00000000000E+00  0.00000000000E+00  0.22155948763E+04  0.22155948764E+04  0.50400000000E-02 0.  1.
          1   -1    0    0  501    0  0.00000000000E+00 -0.00000000000E+00 -0.97454553603E+03  0.97454553604E+03  0.50400000000E-02 0. -1.
    8880023    1    1    2    0    0 -0.17396162232E+03 -0.35645298527E+02  0.21478336873E+04  0.22535600697E+04  0.65864270000E+03 0.  1.
    8880022    1    1    2    0    0  0.17396162232E+03  0.35645298527E+02 -0.90678434697E+03  0.93658034267E+03  0.15294330000E+03 0.  0.
<mgrwt>
<rscale>  0 0.52225937E+03</rscale>
<asrwt>0</asrwt>
<pdfrwt beam="1">  1        1 0.14993008E+00 0.68216086E+03</pdfrwt>
<pdfrwt beam="2">  1       -1 0.34086075E+00 0.68216086E+03</pdfrwt>
<totfact> 0.30808302E-01</totfact>
</mgrwt>
</event>
<event>
 4    1  0.1008211E-007  0.6979480E+03  0.7818608E-02  0.1000582E+00
          1   -1    0    0  501    0  0.00000000000E+00  0.00000000000E+00  0.92267960912E+03  0.92267960914E+03  0.50400000000E-02 0. -1.
         -1   -1    0    0    0  501 -0.00000000000E+00 -0.00000000000E+00 -0.32212662963E+03  0.32212662967E+03  0.50400000000E-02 0.  1.
    8880023    1    1    2    0    0 -0.15746242777E+03  0.16889874341E+03  0.66104393804E+03  0.96130666073E+03  0.65864270000E+03 0.  0.
    8880022    1    1    2    0    0  0.15746242777E+03 -0.16889874341E+03 -0.60490958552E+02  0.28349957807E+03  0.15294330000E+03 0.  0.
<mgrwt>
<rscale>  0 0.55395670E+03</rscale>
<asrwt>0</asrwt>
<pdfrwt beam="1">  1        1 0.14195071E+00 0.69794800E+03</pdfrwt>
<pdfrwt beam="2">  1       -1 0.49557944E-01 0.69794800E+03</pdfrwt>
<totfact> 0.73032524E+01</totfact>
</mgrwt>
</event>
<event>
 4    1  0.1008211E-007  0.8172286E+03  0.7818608E-02  0.9674712E-01
         -1   -1    0    0    0  501 -0.00000000000E+00  0.00000000000E+00  0.21026570169E+03  0.21026570175E+03  0.50400000000E-02 0.  1.
          1   -1    0    0  501    0  0.00000000000E+00 -0.00000000000E+00 -0.22081666884E+04  0.22081666884E+04  0.50400000000E-02 0. -1.
    8880023    1    1    2    0    0 -0.41094133037E+03 -0.25530301361E+03 -0.14964694651E+04  0.17050757966E+04  0.65864270000E+03 0. -1.
    8880022    1    1    2    0    0  0.41094133037E+03  0.25530301361E+03 -0.50143152161E+03  0.71335659361E+03  0.15294330000E+03 0.  0.
<mgrwt>
<rscale>  0 0.72542586E+03</rscale>
<asrwt>0</asrwt>
<pdfrwt beam="1">  1        1 0.33971793E+00 0.81722862E+03</pdfrwt>
<pdfrwt beam="2">  1       -1 0.32348571E-01 0.81722862E+03</pdfrwt>
<totfact> 0.19863246E+01</totfact>
</mgrwt>
</event>
<event>
 4    1  0.1008211E-007  0.1192420E+04  0.7818608E-02  0.9164526E-01
         -1   -1    0    0    0  501 -0.00000000000E+00  0.00000000000E+00  0.13955320417E+04  0.13955320417E+04  0.50400000000E-02 0.  1.
          1   -1    0    0  501    0  0.00000000000E+00 -0.00000000000E+00 -0.19253342446E+04  0.19253342446E+04  0.50400000000E-02 0. -1.
    8880023    1    1    2    0    0  0.51962064219E+03 -0.84737828395E+03  0.95487200209E+03  0.15276276754E+04  0.65864270000E+03 0.  0.
    8880022    1    1    2    0    0 -0.51962064219E+03  0.84737828395E+03 -0.14846742050E+04  0.17932386109E+04  0.15294330000E+03 0.  0.
<mgrwt>
<rscale>  0 0.11427201E+04</rscale>
<asrwt>0</asrwt>
<pdfrwt beam="1">  1        1 0.29620527E+00 0.11924201E+04</pdfrwt>
<pdfrwt beam="2">  1       -1 0.21469724E+00 0.11924201E+04</pdfrwt>
<totfact> 0.39307860E-01</totfact>
</mgrwt>
</event>
<event>
 4    1  0.1008211E-007  0.1219796E+04  0.7818608E-02  0.9138115E-01
         -1   -1    0    0    0  501 -0.00000000000E+00  0.00000000000E+00  0.22801217888E+04  0.22801217888E+04  0.50400000000E-02 0.  1.
          1   -1    0    0  501    0  0.00000000000E+00 -0.00000000000E+00 -0.97856516626E+03  0.97856516628E+03  0.50400000000E-02 0. -1.
    8880023    1    1    2    0    0  0.90053825577E+03 -0.49307595468E+03  0.17456986211E+04  0.21296400938E+04  0.65864270000E+03 0.  0.
    8880022    1    1    2    0    0 -0.90053825577E+03  0.49307595468E+03 -0.44414199851E+03  0.11290468613E+04  0.15294330000E+03 0.  0.
<mgrwt>
<rscale>  0 0.11715664E+04</rscale>
<asrwt>0</asrwt>
<pdfrwt beam="1">  1        1 0.15054849E+00 0.12197964E+04</pdfrwt>
<pdfrwt beam="2">  1       -1 0.35078797E+00 0.12197964E+04</pdfrwt>
<totfact> 0.23824087E-01</totfact>
</mgrwt>
</event>
<event>
 4    1  0.1008211E-007  0.6697071E+03  0.7818608E-02  0.1015874E+00
         -1   -1    0    0    0  501 -0.00000000000E+00  0.00000000000E+00  0.67393724268E+03  0.67393724270E+03  0.50400000000E-02 0.  1.
          1   -1    0    0  501    0  0.00000000000E+00 -0.00000000000E+00 -0.20239749007E+04  0.20239749007E+04  0.50400000000E-02 0. -1.
    8880023    1    1    2    0    0  0.52958110460E+02 -0.10905421214E+03  0.50115566143E+03  0.83645955425E+03  0.65864270000E+03 0.  1.
    8880022    1    1    2    0    0 -0.52958110460E+02  0.10905421214E+03 -0.18511933195E+04  0.18614525892E+04  0.15294330000E+03 0.  0.
<mgrwt>
<rscale>  0 0.49205502E+03</rscale>
<asrwt>0</asrwt>
<pdfrwt beam="1">  1        1 0.31138075E+00 0.66970709E+03</pdfrwt>
<pdfrwt beam="2">  1       -1 0.10368265E+00 0.66970709E+03</pdfrwt>
<totfact> 0.26949418E+00</totfact>
</mgrwt>
</event>
<event>
 4    1  0.1008211E-007  0.1297440E+04  0.7818608E-02  0.9067774E-01
          1   -1    0    0  501    0  0.00000000000E+00  0.00000000000E+00  0.24728488818E+04  0.24728488818E+04  0.50400000000E-02 0. -1.
         -1   -1    0    0    0  501 -0.00000000000E+00 -0.00000000000E+00 -0.97842721184E+03  0.97842721186E+03  0.50400000000E-02 0.  1.
    8880023    1    1    2    0    0 -0.18774532379E+03 -0.11019493148E+04 -0.29996464455E+03  0.13316642194E+04  0.65864270000E+03 0.  1.
    8880022    1    1    2    0    0  0.18774532379E+03  0.11019493148E+04  0.17943863145E+04  0.21196118743E+04  0.15294330000E+03 0.  0.
<mgrwt>
<rscale>  0 0.12528992E+04</rscale>
<asrwt>0</asrwt>
<pdfrwt beam="1">  1        1 0.38043829E+00 0.12974401E+04</pdfrwt>
<pdfrwt beam="2">  1       -1 0.15052727E+00 0.12974401E+04</pdfrwt>
<totfact> 0.47598145E-01</totfact>
</mgrwt>
</event>
<event>
 4    1  0.1008211E-007  0.8807321E+03  0.7818608E-02  0.9557699E-01
         -1   -1    0    0    0  501 -0.00000000000E+00  0.00000000000E+00  0.42526035921E+03  0.42526035924E+03  0.50400000000E-02 0.  1.
          1   -1    0    0  501    0  0.00000000000E+00 -0.00000000000E+00 -0.16446390097E+04  0.16446390097E+04  0.50400000000E-02 0. -1.
    8880023    1    1    2    0    0  0.21856568243E+03  0.54231705656E+03 -0.22956735046E+03  0.91015939375E+03  0.65864270000E+03 0.  1.
    8880022    1    1    2    0    0 -0.21856568243E+03 -0.54231705656E+03 -0.98981129999E+03  0.11597399752E+04  0.15294330000E+03 0.  0.
<mgrwt>
<rscale>  0 0.80160361E+03</rscale>
<asrwt>0</asrwt>
<pdfrwt beam="1">  1        1 0.25302138E+00 0.88073206E+03</pdfrwt>
<pdfrwt beam="2">  1       -1 0.65424672E-01 0.88073206E+03</pdfrwt>
<totfact> 0.12575379E+01</totfact>
</mgrwt>
</event>
<event>
 4    1  0.1008211E-007  0.9033755E+03  0.7818608E-02  0.9520634E-01
         -1   -1    0    0    0  501 -0.00000000000E+00  0.00000000000E+00  0.56761752636E+03  0.56761752638E+03  0.50400000000E-02 0.  1.
          1   -1    0    0  501    0  0.00000000000E+00 -0.00000000000E+00 -0.15726407948E+04  0.15726407948E+04  0.50400000000E-02 0. -1.
    8880023    1    1    2    0    0  0.47345717087E+03 -0.39763719750E+03  0.53423105585E+02  0.90495373802E+03  0.65864270000E+03 0.  1.
    8880022    1    1    2    0    0 -0.47345717087E+03  0.39763719750E+03 -0.10584463740E+04  0.12353045832E+04  0.15294330000E+03 0.  0.
<mgrwt>
<rscale>  0 0.82779473E+03</rscale>
<asrwt>0</asrwt>
<pdfrwt beam="1">  1        1 0.24194474E+00 0.90337547E+03</pdfrwt>
<pdfrwt beam="2">  1       -1 0.87325774E-01 0.90337547E+03</pdfrwt>
<totfact> 0.76600478E+00</totfact>
</mgrwt>
</event>
<event>
 4    1  0.1008211E-007  0.7612353E+03  0.7818608E-02  0.9801920E-01
         -1   -1    0    0    0  501 -0.00000000000E+00  0.00000000000E+00  0.20943890635E+03  0.20943890641E+03  0.50400000000E-02 0.  1.
          1   -1    0    0  501    0  0.00000000000E+00 -0.00000000000E+00 -0.19464352289E+04  0.19464352289E+04  0.50400000000E-02 0. -1.
    8880023    1    1    2    0    0  0.34098385736E+03  0.17146120541E+03 -0.67626662168E+03  0.10182414673E+04  0.65864270000E+03 0.  0.
    8880022    1    1    2    0    0 -0.34098385736E+03 -0.17146120541E+03 -0.10607297009E+04  0.11376326680E+04  0.15294330000E+03 0.  0.
<mgrwt>
<rscale>  0 0.65259610E+03</rscale>
<asrwt>0</asrwt>
<pdfrwt beam="1">  1        1 0.29945156E+00 0.76123527E+03</pdfrwt>
<pdfrwt beam="2">  1       -1 0.32221372E-01 0.76123527E+03</pdfrwt>
<totfact> 0.30172641E+01</totfact>
</mgrwt>
</event>
<event>
 4    1  0.1008211E-007  0.1106229E+04  0.7818608E-02  0.9254152E-01
          1   -1    0    0  501    0  0.00000000000E+00  0.00000000000E+00  0.22915898431E+04  0.22915898431E+04  0.50400000000E-02 0. -1.
         -1   -1    0    0    0  501 -0.00000000000E+00 -0.00000000000E+00 -0.65113255188E+03  0.65113255190E+03  0.50400000000E-02 0.  1.
    8880023    1    1    2    0    0  0.27085032982E+03 -0.84650633661E+03  0.41545529784E+02  0.11070090860E+04  0.65864270000E+03 0.  0.
    8880022    1    1    2    0    0 -0.27085032982E+03  0.84650633661E+03  0.15989117614E+04  0.18357133090E+04  0.15294330000E+03 0.  0.
<mgrwt>
<rscale>  0 0.10511552E+04</rscale>
<asrwt>0</asrwt>
<pdfrwt beam="1">  1        1 0.35255227E+00 0.11062292E+04</pdfrwt>
<pdfrwt beam="2">  1       -1 0.10017424E+00 0.11062292E+04</pdfrwt>
<totfact> 0.17908106E+00</totfact>
</mgrwt>
</event>
<event>
 4    1  0.1008211E-007  0.7351827E+03  0.7818608E-02  0.9874208E-01
         -1   -1    0    0    0  501 -0.00000000000E+00  0.00000000000E+00  0.71932823491E+03  0.71932823493E+03  0.50400000000E-02 0.  1.
          1   -1    0    0  501    0  0.00000000000E+00 -0.00000000000E+00 -0.70526901135E+03  0.70526901137E+03  0.50400000000E-02 0. -1.
    8880023    1    1    2    0    0 -0.24378182922E+03 -0.21737940081E+03  0.44754814107E+03  0.86069328393E+03  0.65864270000E+03 0.  0.
    8880022    1    1    2    0    0  0.24378182922E+03  0.21737940081E+03 -0.43348891751E+03  0.56390396237E+03  0.15294330000E+03 0.  0.
<mgrwt>
<rscale>  0 0.61527703E+03</rscale>
<asrwt>0</asrwt>
<pdfrwt beam="1">  1        1 0.10850293E+00 0.73518269E+03</pdfrwt>
<pdfrwt beam="2">  1       -1 0.11066588E+00 0.73518269E+03</pdfrwt>
<totfact> 0.20840609E+01</totfact>
</mgrwt>
</event>
<event>
 4    1  0.1008211E-007  0.9239194E+03  0.7818608E-02  0.9488675E-01
         -1   -1    0    0    0  501 -0.00000000000E+00  0.00000000000E+00  0.92929453819E+03  0.92929453821E+03  0.50400000000E-02 0.  1.
          1   -1    0    0  501    0  0.00000000000E+00 -0.00000000000E+00 -0.17638547777E+04  0.17638547777E+04  0.50400000000E-02 0. -1.
    8880023    1    1    2    0    0 -0.42741691079E+00 -0.64793267260E+03  0.60687107944E+03  0.11054047423E+04  0.65864270000E+03 0.  1.
    8880022    1    1    2    0    0  0.42741691079E+00  0.64793267260E+03 -0.14414313190E+04  0.15877445737E+04  0.15294330000E+03 0.  0.
<mgrwt>
<rscale>  0 0.85123917E+03</rscale>
<asrwt>0</asrwt>
<pdfrwt beam="1">  1        1 0.27136227E+00 0.92391944E+03</pdfrwt>
<pdfrwt beam="2">  1       -1 0.14296839E+00 0.92391944E+03</pdfrwt>
<totfact> 0.17438895E+00</totfact>
</mgrwt>
</event>
<event>
 4    1  0.1008211E-007  0.7940744E+03  0.7818608E-02  0.9723758E-01
         -1   -1    0    0    0  501 -0.00000000000E+00  0.00000000000E+00  0.24145427502E+03  0.24145427507E+03  0.50400000000E-02 0.  1.
          1   -1    0    0  501    0  0.00000000000E+00 -0.00000000000E+00 -0.23802167749E+04  0.23802167749E+04  0.50400000000E-02 0. -1.
    8880023    1    1    2    0    0  0.24813781637E+02  0.44286359917E+03 -0.55223657100E+03  0.96722248104E+03  0.65864270000E+03 0.  1.
    8880022    1    1    2    0    0 -0.24813781637E+02 -0.44286359917E+03 -0.15865259289E+04  0.16544485690E+04  0.15294330000E+03 0.  0.
<mgrwt>
<rscale>  0 0.69619701E+03</rscale>
<asrwt>0</asrwt>
<pdfrwt beam="1">  1        1 0.36618718E+00 0.79407437E+03</pdfrwt>
<pdfrwt beam="2">  1       -1 0.37146813E-01 0.79407437E+03</pdfrwt>
<totfact> 0.11919677E+01</totfact>
</mgrwt>
</event>
<event>
 4    1  0.1008211E-007  0.8017027E+03  0.7818608E-02  0.9707126E-01
          1   -1    0    0  501    0  0.00000000000E+00  0.00000000000E+00  0.22443153362E+04  0.22443153362E+04  0.50400000000E-02 0. -1.
         -1   -1    0    0    0  501 -0.00000000000E+00 -0.00000000000E+00 -0.34978681402E+03  0.34978681406E+03  0.50400000000E-02 0.  1.
    8880023    1    1    2    0    0 -0.45485784010E+03  0.44960284242E+02  0.19160176181E+03  0.82428060953E+03  0.65864270000E+03 0.  1.
    8880022    1    1    2    0    0  0.45485784010E+03 -0.44960284242E+02  0.17029267604E+04  0.17698215407E+04  0.15294330000E+03 0.  0.
<mgrwt>
<rscale>  0 0.70594070E+03</rscale>
<asrwt>0</asrwt>
<pdfrwt beam="1">  1        1 0.34527928E+00 0.80170274E+03</pdfrwt>
<pdfrwt beam="2">  1       -1 0.53813356E-01 0.80170274E+03</pdfrwt>
<totfact> 0.73859956E+00</totfact>
</mgrwt>
</event>
<event>
 4    1  0.1008211E-007  0.8236842E+03  0.7818608E-02  0.9661748E-01
          1   -1    0    0  501    0  0.00000000000E+00  0.00000000000E+00  0.17354824565E+04  0.17354824565E+04  0.50400000000E-02 0. -1.
         -1   -1    0    0    0  501 -0.00000000000E+00 -0.00000000000E+00 -0.41603821135E+03  0.41603821138E+03  0.50400000000E-02 0.  1.
    8880023    1    1    2    0    0  0.23535307821E+02  0.49405621199E+03  0.10376984049E+03  0.83019505984E+03  0.65864270000E+03 0.  0.
    8880022    1    1    2    0    0 -0.23535307821E+02 -0.49405621199E+03  0.12156744047E+04  0.13213256080E+04  0.15294330000E+03 0.  0.
<mgrwt>
<rscale>  0 0.73340677E+03</rscale>
<asrwt>0</asrwt>
<pdfrwt beam="1">  1        1 0.26699730E+00 0.82368420E+03</pdfrwt>
<pdfrwt beam="2">  1       -1 0.64005878E-01 0.82368420E+03</pdfrwt>
<totfact> 0.11494535E+01</totfact>
</mgrwt>
</event>
<event>
 4    1  0.1008211E-007  0.9094230E+03  0.7818608E-02  0.9511071E-01
          1   -1    0    0  501    0  0.00000000000E+00  0.00000000000E+00  0.34168382859E+04  0.34168382859E+04  0.50400000000E-02 0. -1.
         -1   -1    0    0    0  501 -0.00000000000E+00 -0.00000000000E+00 -0.55559465579E+03  0.55559465581E+03  0.50400000000E-02 0.  1.
    8880023    1    1    2    0    0  0.48359865841E+02  0.62522101558E+03 -0.12432960244E+03  0.91788237332E+03  0.65864270000E+03 0.  1.
    8880022    1    1    2    0    0 -0.48359865841E+02 -0.62522101558E+03  0.29855732326E+04  0.30545505684E+04  0.15294330000E+03 0.  0.
<mgrwt>
<rscale>  0 0.83472512E+03</rscale>
<asrwt>0</asrwt>
<pdfrwt beam="1">  1        1 0.52566743E+00 0.90942300E+03</pdfrwt>
<pdfrwt beam="2">  1       -1 0.85476100E-01 0.90942300E+03</pdfrwt>
<totfact> 0.41462818E-01</totfact>
</mgrwt>
</event>
<event>
 4    1  0.1008211E-007  0.6769667E+03  0.7818608E-02  0.1011094E+00
          1   -1    0    0  501    0  0.00000000000E+00  0.00000000000E+00  0.42200401359E+03  0.42200401362E+03  0.50400000000E-02 0. -1.
         -1   -1    0    0    0  501 -0.00000000000E+00 -0.00000000000E+00 -0.18613912117E+04  0.18613912117E+04  0.50400000000E-02 0.  1.
    8880023    1    1    2    0    0 -0.89795669867E+02 -0.12810331654E+03 -0.17654170052E+04  0.18907620502E+04  0.65864270000E+03 0.  1.
    8880022    1    1    2    0    0  0.89795669867E+02  0.12810331654E+03  0.32602980712E+03  0.39263317509E+03  0.15294330000E+03 0.  0.
<mgrwt>
<rscale>  0 0.51042057E+03</rscale>
<asrwt>0</asrwt>
<pdfrwt beam="1">  1        1 0.64923695E-01 0.67696671E+03</pdfrwt>
<pdfrwt beam="2">  1       -1 0.28636787E+00 0.67696671E+03</pdfrwt>
<totfact> 0.24002827E+00</totfact>
</mgrwt>
</event>
<event>
 4    1  0.1008211E-007  0.1040410E+04  0.7818608E-02  0.9330500E-01
         -1   -1    0    0    0  501 -0.00000000000E+00  0.00000000000E+00  0.13527344666E+04  0.13527344666E+04  0.50400000000E-02 0.  1.
          1   -1    0    0  501    0  0.00000000000E+00 -0.00000000000E+00 -0.10013789695E+04  0.10013789695E+04  0.50400000000E-02 0. -1.
    8880023    1    1    2    0    0  0.74625974332E+03 -0.30288425922E+03  0.89338585095E+03  0.13713464055E+04  0.65864270000E+03 0.  1.
    8880022    1    1    2    0    0 -0.74625974332E+03  0.30288425922E+03 -0.54203035383E+03  0.98276703062E+03  0.15294330000E+03 0.  0.
<mgrwt>
<rscale>  0 0.98022836E+03</rscale>
<asrwt>0</asrwt>
<pdfrwt beam="1">  1        1 0.15405830E+00 0.10404099E+04</pdfrwt>
<pdfrwt beam="2">  1       -1 0.20811299E+00 0.10404099E+04</pdfrwt>
<totfact> 0.19976147E+00</totfact>
</mgrwt>
</event>
<event>
 4    1  0.1008211E-007  0.9647736E+03  0.7818608E-02  0.9429169E-01
          1   -1    0    0  501    0  0.00000000000E+00  0.00000000000E+00  0.59619952152E+03  0.59619952154E+03  0.50400000000E-02 0. -1.
         -1   -1    0    0    0  501 -0.00000000000E+00 -0.00000000000E+00 -0.29335333334E+04  0.29335333335E+04  0.50400000000E-02 0.  1.
    8880023    1    1    2    0    0  0.11867386598E+03 -0.69490597872E+03 -0.25912164359E+04  0.27649937848E+04  0.65864270000E+03 0.  1.
    8880022    1    1    2    0    0 -0.11867386598E+03  0.69490597872E+03  0.25388262400E+03  0.76473907022E+03  0.15294330000E+03 0.  0.
<mgrwt>
<rscale>  0 0.89713545E+03</rscale>
<asrwt>0</asrwt>
<pdfrwt beam="1">  1        1 0.91723005E-01 0.96477355E+03</pdfrwt>
<pdfrwt beam="2">  1       -1 0.45131281E+00 0.96477355E+03</pdfrwt>
<totfact> 0.11314839E-01</totfact>
</mgrwt>
</event>
<event>
 4    1  0.1008211E-007  0.1330374E+04  0.7818608E-02  0.9039764E-01
          1   -1    0    0  501    0  0.00000000000E+00  0.00000000000E+00  0.26331448873E+04  0.26331448873E+04  0.50400000000E-02 0. -1.
         -1   -1    0    0    0  501 -0.00000000000E+00 -0.00000000000E+00 -0.67085270561E+03  0.67085270563E+03  0.50400000000E-02 0.  1.
    8880023    1    1    2    0    0  0.56300640707E+03 -0.10095093112E+04  0.47163054692E+03  0.14114995015E+04  0.65864270000E+03 0.  0.
    8880022    1    1    2    0    0 -0.56300640707E+03  0.10095093112E+04  0.14906616348E+04  0.18924980915E+04  0.15294330000E+03 0.  0.
<mgrwt>
<rscale>  0 0.12872172E+04</rscale>
<asrwt>0</asrwt>
<pdfrwt beam="1">  1        1 0.40509921E+00 0.13303742E+04</pdfrwt>
<pdfrwt beam="2">  1       -1 0.10320811E+00 0.13303742E+04</pdfrwt>
<totfact> 0.94512346E-01</totfact>
</mgrwt>
</event>
<event>
 4    1  0.1008211E-007  0.9565212E+03  0.7818608E-02  0.9440793E-01
         -1   -1    0    0    0  501 -0.00000000000E+00  0.00000000000E+00  0.10502428123E+04  0.10502428123E+04  0.50400000000E-02 0.  1.
          1   -1    0    0  501    0  0.00000000000E+00 -0.00000000000E+00 -0.31764338278E+04  0.31764338278E+04  0.50400000000E-02 0. -1.
    8880023    1    1    2    0    0  0.62690577967E+03  0.29683630860E+03  0.78044334554E+03  0.12345139418E+04  0.65864270000E+03 0.  1.
    8880022    1    1    2    0    0 -0.62690577967E+03 -0.29683630860E+03 -0.29066343611E+04  0.29921626982E+04  0.15294330000E+03 0.  0.
<mgrwt>
<rscale>  0 0.88793289E+03</rscale>
<asrwt>0</asrwt>
<pdfrwt beam="1">  1        1 0.48868212E+00 0.95652123E+03</pdfrwt>
<pdfrwt beam="2">  1       -1 0.16157582E+00 0.95652123E+03</pdfrwt>
<totfact> 0.13107635E-01</totfact>
</mgrwt>
</event>
<event>
 4    1  0.1008211E-007  0.7133623E+03  0.7818608E-02  0.9945721E-01
         -1   -1    0    0    0  501 -0.00000000000E+00  0.00000000000E+00  0.38613352459E+03  0.38613352462E+03  0.50400000000E-02 0.  1.
          1   -1    0    0  501    0  0.00000000000E+00 -0.00000000000E+00 -0.91373645590E+03  0.91373645591E+03  0.50400000000E-02 0. -1.
    8880023    1    1    2    0    0 -0.27212402779E+03 -0.32000751657E+02 -0.33002406054E+02  0.71412526890E+03  0.65864270000E+03 0.  1.
    8880022    1    1    2    0    0  0.27212402779E+03  0.32000751657E+02 -0.49460052526E+03  0.58574471163E+03  0.15294330000E+03 0.  0.
<mgrwt>
<rscale>  0 0.58095708E+03</rscale>
<asrwt>0</asrwt>
<pdfrwt beam="1">  1        1 0.14057484E+00 0.71336228E+03</pdfrwt>
<pdfrwt beam="2">  1       -1 0.59405158E-01 0.71336228E+03</pdfrwt>
<totfact> 0.52307623E+01</totfact>
</mgrwt>
</event>
<event>
 4    1  0.1008211E-007  0.9567652E+03  0.7818608E-02  0.9440447E-01
          1   -1    0    0  501    0  0.00000000000E+00  0.00000000000E+00  0.17087999180E+04  0.17087999180E+04  0.50400000000E-02 0. -1.
         -1   -1    0    0    0  501 -0.00000000000E+00 -0.00000000000E+00 -0.60944939126E+03  0.60944939128E+03  0.50400000000E-02 0.  1.
    8880023    1    1    2    0    0  0.61300541962E+03 -0.32529021456E+03 -0.59779031582E+02  0.95863085025E+03  0.65864270000E+03 0.  0.
    8880022    1    1    2    0    0 -0.61300541962E+03  0.32529021456E+03  0.11591295583E+04  0.13596184590E+04  0.15294330000E+03 0.  0.
<mgrwt>
<rscale>  0 0.88820537E+03</rscale>
<asrwt>0</asrwt>
<pdfrwt beam="1">  1        1 0.26289230E+00 0.95676516E+03</pdfrwt>
<pdfrwt beam="2">  1       -1 0.93761444E-01 0.95676516E+03</pdfrwt>
<totfact> 0.52525112E+00</totfact>
</mgrwt>
</event>
<event>
 4    1  0.1008211E-007  0.1415646E+04  0.7818608E-02  0.8971620E-01
          1   -1    0    0  501    0  0.00000000000E+00  0.00000000000E+00  0.26308341855E+04  0.26308341855E+04  0.50400000000E-02 0. -1.
         -1   -1    0    0    0  501 -0.00000000000E+00 -0.00000000000E+00 -0.71259945618E+03  0.71259945620E+03  0.50400000000E-02 0.  1.
    8880023    1    1    2    0    0 -0.88735051776E+03 -0.88478982797E+03  0.66305099182E+03  0.15632308867E+04  0.65864270000E+03 0.  1.
    8880022    1    1    2    0    0  0.88735051776E+03  0.88478982797E+03  0.12551837375E+04  0.17802027550E+04  0.15294330000E+03 0.  0.
<mgrwt>
<rscale>  0 0.13756713E+04</rscale>
<asrwt>0</asrwt>
<pdfrwt beam="1">  1        1 0.40474372E+00 0.14156462E+04</pdfrwt>
<pdfrwt beam="2">  1       -1 0.10963069E+00 0.14156462E+04</pdfrwt>
<totfact> 0.81472968E-01</totfact>
</mgrwt>
</event>
<event>
 4    1  0.1008211E-007  0.9358604E+03  0.7818608E-02  0.9470757E-01
         -1   -1    0    0    0  501 -0.00000000000E+00  0.00000000000E+00  0.63968053339E+03  0.63968053341E+03  0.50400000000E-02 0.  1.
          1   -1    0    0  501    0  0.00000000000E+00 -0.00000000000E+00 -0.16014082089E+04  0.16014082090E+04  0.50400000000E-02 0. -1.
    8880023    1    1    2    0    0 -0.86657693784E+02  0.65917740901E+03  0.13896489589E+03  0.94612148321E+03  0.65864270000E+03 0.  1.
    8880022    1    1    2    0    0  0.86657693784E+02 -0.65917740901E+03 -0.11006925714E+04  0.12949672592E+04  0.15294330000E+03 0.  0.
<mgrwt>
<rscale>  0 0.86474580E+03</rscale>
<asrwt>0</asrwt>
<pdfrwt beam="1">  1        1 0.24637049E+00 0.93586036E+03</pdfrwt>
<pdfrwt beam="2">  1       -1 0.98412390E-01 0.93586036E+03</pdfrwt>
<totfact> 0.55853478E+00</totfact>
</mgrwt>
</event>
<event>
 4    1  0.1008211E-007  0.1066852E+04  0.7818608E-02  0.9298892E-01
          1   -1    0    0  501    0  0.00000000000E+00  0.00000000000E+00  0.10600628738E+04  0.10600628738E+04  0.50400000000E-02 0. -1.
         -1   -1    0    0    0  501 -0.00000000000E+00 -0.00000000000E+00 -0.91686886061E+03  0.91686886063E+03  0.50400000000E-02 0.  1.
    8880023    1    1    2    0    0  0.55893128682E+03 -0.62606601283E+03 -0.14460624437E+03  0.10766076388E+04  0.65864270000E+03 0.  0.
    8880022    1    1    2    0    0 -0.55893128682E+03  0.62606601283E+03  0.28780025751E+03  0.90032409556E+03  0.15294330000E+03 0.  0.
<mgrwt>
<rscale>  0 0.10088491E+04</rscale>
<asrwt>0</asrwt>
<pdfrwt beam="1">  1        1 0.16308660E+00 0.10668519E+04</pdfrwt>
<pdfrwt beam="2">  1       -1 0.14105675E+00 0.10668519E+04</pdfrwt>
<totfact> 0.55616745E+00</totfact>
</mgrwt>
</event>
<event>
 4    1  0.1008211E-007  0.1305750E+04  0.7818608E-02  0.9060610E-01
         -1   -1    0    0    0  501 -0.00000000000E+00  0.00000000000E+00  0.12529452242E+04  0.12529452242E+04  0.50400000000E-02 0.  1.
          1   -1    0    0  501    0  0.00000000000E+00 -0.00000000000E+00 -0.18894849770E+04  0.18894849770E+04  0.50400000000E-02 0. -1.
    8880023    1    1    2    0    0 -0.61234292413E+03 -0.94668280980E+03  0.62156592663E+03  0.14461419732E+04  0.65864270000E+03 0.  0.
    8880022    1    1    2    0    0  0.61234292413E+03  0.94668280980E+03 -0.12581056794E+04  0.16962882280E+04  0.15294330000E+03 0.  0.
<mgrwt>
<rscale>  0 0.12615672E+04</rscale>
<asrwt>0</asrwt>
<pdfrwt beam="1">  1        1 0.29069000E+00 0.13057497E+04</pdfrwt>
<pdfrwt beam="2">  1       -1 0.19276080E+00 0.13057497E+04</pdfrwt>
<totfact> 0.57921053E-01</totfact>
</mgrwt>
</event>
<event>
 4    1  0.1008211E-007  0.9865153E+03  0.7818608E-02  0.9399416E-01
         -1   -1    0    0    0  501 -0.00000000000E+00  0.00000000000E+00  0.64186013710E+03  0.64186013712E+03  0.50400000000E-02 0.  1.
          1   -1    0    0  501    0  0.00000000000E+00 -0.00000000000E+00 -0.14451166111E+04  0.14451166111E+04  0.50400000000E-02 0. -1.
    8880023    1    1    2    0    0 -0.36853482230E+02 -0.73351486232E+03  0.18631690171E+01  0.98651706020E+03  0.65864270000E+03 0.  0.
    8880022    1    1    2    0    0  0.36853482230E+02  0.73351486232E+03 -0.80511964301E+03  0.11004596880E+04  0.15294330000E+03 0.  0.
<mgrwt>
<rscale>  0 0.92123736E+03</rscale>
<asrwt>0</asrwt>
<pdfrwt beam="1">  1        1 0.22232563E+00 0.98651530E+03</pdfrwt>
<pdfrwt beam="2">  1       -1 0.98747713E-01 0.98651530E+03</pdfrwt>
<totfact> 0.70546572E+00</totfact>
</mgrwt>
</event>
<event>
 4    1  0.1008211E-007  0.1121405E+04  0.7818608E-02  0.9237591E-01
          1   -1    0    0  501    0  0.00000000000E+00  0.00000000000E+00  0.16797826012E+04  0.16797826012E+04  0.50400000000E-02 0. -1.
         -1   -1    0    0    0  501 -0.00000000000E+00 -0.00000000000E+00 -0.98856753052E+03  0.98856753053E+03  0.50400000000E-02 0.  1.
    8880023    1    1    2    0    0  0.88748174335E+03 -0.19003687176E+03 -0.44469418509E+03  0.12063585628E+04  0.65864270000E+03 0.  1.
    8880022    1    1    2    0    0 -0.88748174335E+03  0.19003687176E+03  0.11359092558E+04  0.14619915690E+04  0.15294330000E+03 0.  0.
<mgrwt>
<rscale>  0 0.10673711E+04</rscale>
<asrwt>0</asrwt>
<pdfrwt beam="1">  1        1 0.25842809E+00 0.11214045E+04</pdfrwt>
<pdfrwt beam="2">  1       -1 0.15208731E+00 0.11214045E+04</pdfrwt>
<totfact> 0.16384217E+00</totfact>
</mgrwt>
</event>
<event>
 4    1  0.2228087E-007  0.1493495E+04  0.7818608E-02  0.8914243E-01
          1   -1    0    0  501    0  0.00000000000E+00  0.00000000000E+00  0.26324124775E+04  0.26324124775E+04  0.50400000000E-02 0. -1.
         -1   -1    0    0    0  501 -0.00000000000E+00 -0.00000000000E+00 -0.19957701691E+04  0.19957701691E+04  0.50400000000E-02 0.  1.
    8880023    1    1    2    0    0 -0.60132266557E+03 -0.11979679187E+04 -0.14900368291E+04  0.21096767622E+04  0.65864270000E+03 0.  1.
    8880022    1    1    2    0    0  0.60132266557E+03  0.11979679187E+04  0.21266791376E+04  0.25185058844E+04  0.15294330000E+03 0.  0.
<mgrwt>
<rscale>  0 0.14560118E+04</rscale>
<asrwt>0</asrwt>
<pdfrwt beam="1">  1        1 0.40498653E+00 0.14934947E+04</pdfrwt>
<pdfrwt beam="2">  1       -1 0.30704157E+00 0.14934947E+04</pdfrwt>
<totfact> 0.30751786E-02</totfact>
</mgrwt>
</event>
<event>
 4    1  0.1335804E-007  0.1700264E+04  0.7818608E-02  0.8779810E-01
         -1   -1    0    0    0  501 -0.00000000000E+00  0.00000000000E+00  0.21425723854E+04  0.21425723854E+04  0.50400000000E-02 0.  1.
          1   -1    0    0  501    0  0.00000000000E+00 -0.00000000000E+00 -0.27004388937E+04  0.27004388937E+04  0.50400000000E-02 0. -1.
    8880023    1    1    2    0    0  0.10945638193E+04 -0.11220602037E+04  0.14891765629E+04  0.22602093038E+04  0.65864270000E+03 0.  0.
    8880022    1    1    2    0    0 -0.10945638193E+04  0.11220602037E+04 -0.20470430713E+04  0.25828019753E+04  0.15294330000E+03 0.  0.
<mgrwt>
<rscale>  0 0.16680319E+04</rscale>
<asrwt>0</asrwt>
<pdfrwt beam="1">  1        1 0.41545214E+00 0.17002645E+04</pdfrwt>
<pdfrwt beam="2">  1       -1 0.32962652E+00 0.17002645E+04</pdfrwt>
<totfact> 0.19061005E-02</totfact>
</mgrwt>
</event>
<event>
 4    1  0.1008211E-007  0.1357732E+04  0.7818608E-02  0.9017242E-01
         -1   -1    0    0    0  501 -0.00000000000E+00  0.00000000000E+00  0.42239019823E+03  0.42239019826E+03  0.50400000000E-02 0.  1.
          1   -1    0    0  501    0  0.00000000000E+00 -0.00000000000E+00 -0.42964922100E+04  0.42964922100E+04  0.50400000000E-02 0. -1.
    8880023    1    1    2    0    0 -0.48069212731E+03  0.10856154326E+04 -0.12986176954E+04  0.18787878842E+04  0.65864270000E+03 0.  1.
    8880022    1    1    2    0    0  0.48069212731E+03 -0.10856154326E+04 -0.25754843164E+04  0.28400945241E+04  0.15294330000E+03 0.  0.
<mgrwt>
<rscale>  0 0.13156548E+04</rscale>
<asrwt>0</asrwt>
<pdfrwt beam="1">  1        1 0.66099877E+00 0.13577319E+04</pdfrwt>
<pdfrwt beam="2">  1       -1 0.64983110E-01 0.13577319E+04</pdfrwt>
<totfact> 0.12322851E-01</totfact>
</mgrwt>
</event>
<event>
 4    1  0.1008211E-007  0.1027189E+04  0.7818608E-02  0.9346820E-01
          1   -1    0    0  501    0  0.00000000000E+00  0.00000000000E+00  0.35444993811E+04  0.35444993811E+04  0.50400000000E-02 0. -1.
         -1   -1    0    0    0  501 -0.00000000000E+00 -0.00000000000E+00 -0.11428034944E+04  0.11428034944E+04  0.50400000000E-02 0.  1.
    8880023    1    1    2    0    0  0.78822640091E+03 -0.22858218856E+01 -0.85290135217E+03  0.13351243413E+04  0.65864270000E+03 0.  0.
    8880022    1    1    2    0    0 -0.78822640091E+03  0.22858218856E+01  0.32545972389E+04  0.33521785341E+04  0.15294330000E+03 0.  0.
<mgrwt>
<rscale>  0 0.96584434E+03</rscale>
<asrwt>0</asrwt>
<pdfrwt beam="1">  1        1 0.54530759E+00 0.10271885E+04</pdfrwt>
<pdfrwt beam="2">  1       -1 0.17581593E+00 0.10271885E+04</pdfrwt>
<totfact> 0.53217271E-02</totfact>
</mgrwt>
</event>
<event>
 4    1  0.1008211E-007  0.1221834E+04  0.7818608E-02  0.9136185E-01
         -1   -1    0    0    0  501 -0.00000000000E+00  0.00000000000E+00  0.18487285275E+04  0.18487285275E+04  0.50400000000E-02 0.  1.
          1   -1    0    0  501    0  0.00000000000E+00 -0.00000000000E+00 -0.10290844069E+04  0.10290844069E+04  0.50400000000E-02 0. -1.
    8880023    1    1    2    0    0 -0.53199453087E+03 -0.88093640124E+03 -0.38973823024E+03  0.12824871221E+04  0.65864270000E+03 0.  0.
    8880022    1    1    2    0    0  0.53199453087E+03  0.88093640124E+03  0.12093823509E+04  0.15953258124E+04  0.15294330000E+03 0.  0.
<mgrwt>
<rscale>  0 0.11737091E+04</rscale>
<asrwt>0</asrwt>
<pdfrwt beam="1">  1        1 0.15832068E+00 0.12218336E+04</pdfrwt>
<pdfrwt beam="2">  1       -1 0.28441977E+00 0.12218336E+04</pdfrwt>
<totfact> 0.58726539E-01</totfact>
</mgrwt>
</event>
<event>
 4    1  0.1152162E-007  0.9512865E+03  0.7818608E-02  0.9448265E-01
         -1   -1    0    0    0  501 -0.00000000000E+00  0.00000000000E+00  0.18391985309E+04  0.18391985309E+04  0.50400000000E-02 0.  1.
          1   -1    0    0  501    0  0.00000000000E+00 -0.00000000000E+00 -0.16442957746E+04  0.16442957746E+04  0.50400000000E-02 0. -1.
    8880023    1    1    2    0    0  0.47964343932E+03 -0.49099698413E+03  0.16289072726E+04  0.18863416913E+04  0.65864270000E+03 0.  1.
    8880022    1    1    2    0    0 -0.47964343932E+03  0.49099698413E+03 -0.14340045163E+04  0.15971526142E+04  0.15294330000E+03 0.  0.
<mgrwt>
<rscale>  0 0.88207867E+03</rscale>
<asrwt>0</asrwt>
<pdfrwt beam="1">  1        1 0.25296858E+00 0.95128654E+03</pdfrwt>
<pdfrwt beam="2">  1       -1 0.28295362E+00 0.95128654E+03</pdfrwt>
<totfact> 0.22728694E-01</totfact>
</mgrwt>
</event>
<event>
 4    1  0.1008211E-007  0.9001531E+03  0.7818608E-02  0.9525786E-01
          1   -1    0    0  501    0  0.00000000000E+00  0.00000000000E+00  0.28140661810E+04  0.28140661811E+04  0.50400000000E-02 0. -1.
         -1   -1    0    0    0  501 -0.00000000000E+00 -0.00000000000E+00 -0.57178635498E+03  0.57178635501E+03  0.50400000000E-02 0.  1.
    8880023    1    1    2    0    0  0.42599564304E+03 -0.44158027837E+03 -0.14897913557E+03  0.91239816924E+03  0.65864270000E+03 0.  1.
    8880022    1    1    2    0    0 -0.42599564304E+03  0.44158027837E+03  0.23912589616E+04  0.24734543668E+04  0.15294330000E+03 0.  0.
<mgrwt>
<rscale>  0 0.82409142E+03</rscale>
<asrwt>0</asrwt>
<pdfrwt beam="1">  1        1 0.43293325E+00 0.90015312E+03</pdfrwt>
<pdfrwt beam="2">  1       -1 0.87967134E-01 0.90015312E+03</pdfrwt>
<totfact> 0.10779692E+00</totfact>
</mgrwt>
</event>
<event>
 4    1  0.1008211E-007  0.6690991E+03  0.7818608E-02  0.1016317E+00
          1   -1    0    0  501    0  0.00000000000E+00  0.00000000000E+00  0.15168807291E+04  0.15168807291E+04  0.50400000000E-02 0. -1.
         -1   -1    0    0    0  501 -0.00000000000E+00 -0.00000000000E+00 -0.95638432731E+03  0.95638432733E+03  0.50400000000E-02 0.  1.
    8880023    1    1    2    0    0 -0.10815839602E+03 -0.46745912741E+02 -0.83187504353E+03  0.10675718773E+04  0.65864270000E+03 0.  1.
    8880022    1    1    2    0    0  0.10815839602E+03  0.46745912741E+02  0.13923714453E+04  0.14056931791E+04  0.15294330000E+03 0.  0.
<mgrwt>
<rscale>  0 0.49039401E+03</rscale>
<asrwt>0</asrwt>
<pdfrwt beam="1">  1        1 0.23336627E+00 0.66909911E+03</pdfrwt>
<pdfrwt beam="2">  1       -1 0.14713605E+00 0.66909911E+03</pdfrwt>
<totfact> 0.24870708E+00</totfact>
</mgrwt>
</event>
<event>
 4    1  0.1008211E-007  0.9803416E+03  0.7818608E-02  0.9407741E-01
          1   -1    0    0  501    0  0.00000000000E+00  0.00000000000E+00  0.78776077511E+03  0.78776077512E+03  0.50400000000E-02 0. -1.
         -1   -1    0    0    0  501 -0.00000000000E+00 -0.00000000000E+00 -0.23638438216E+04  0.23638438216E+04  0.50400000000E-02 0.  1.
    8880023    1    1    2    0    0 -0.30790278350E+03 -0.65761342390E+03 -0.20491484096E+04  0.22715807162E+04  0.65864270000E+03 0.  0.
    8880022    1    1    2    0    0  0.30790278350E+03  0.65761342390E+03  0.47306536316E+03  0.88002388048E+03  0.15294330000E+03 0.  0.
<mgrwt>
<rscale>  0 0.91441357E+03</rscale>
<asrwt>0</asrwt>
<pdfrwt beam="1">  1        1 0.12119397E+00 0.98034165E+03</pdfrwt>
<pdfrwt beam="2">  1       -1 0.36366828E+00 0.98034165E+03</pdfrwt>
<totfact> 0.29278643E-01</totfact>
</mgrwt>
</event>
<event>
 4    1  0.1008211E-007  0.1172588E+04  0.7818608E-02  0.9184240E-01
          1   -1    0    0  501    0  0.00000000000E+00  0.00000000000E+00  0.20031745183E+04  0.20031745183E+04  0.50400000000E-02 0. -1.
         -1   -1    0    0    0  501 -0.00000000000E+00 -0.00000000000E+00 -0.62939352875E+03  0.62939352877E+03  0.50400000000E-02 0.  1.
    8880023    1    1    2    0    0 -0.50273211672E+03  0.82970705293E+03  0.37323446553E+03  0.12305557880E+04  0.65864270000E+03 0.  0.
    8880022    1    1    2    0    0  0.50273211672E+03 -0.82970705293E+03  0.10005465240E+04  0.14020122591E+04  0.15294330000E+03 0.  0.
<mgrwt>
<rscale>  0 0.11217589E+04</rscale>
<asrwt>0</asrwt>
<pdfrwt beam="1">  1        1 0.30818070E+00 0.11725884E+04</pdfrwt>
<pdfrwt beam="2">  1       -1 0.96829773E-01 0.11725884E+04</pdfrwt>
<totfact> 0.30096077E+00</totfact>
</mgrwt>
</event>
<event>
 4    1  0.1008211E-007  0.8682389E+03  0.7818608E-02  0.9579073E-01
         -1   -1    0    0    0  501 -0.00000000000E+00  0.00000000000E+00  0.41833541695E+03  0.41833541698E+03  0.50400000000E-02 0.  1.
          1   -1    0    0  501    0  0.00000000000E+00 -0.00000000000E+00 -0.18788263278E+04  0.18788263278E+04  0.50400000000E-02 0. -1.
    8880023    1    1    2    0    0 -0.38847421858E+03 -0.41123764339E+03 -0.17683298886E+03  0.88606361513E+03  0.65864270000E+03 0.  1.
    8880022    1    1    2    0    0  0.38847421858E+03  0.41123764339E+03 -0.12836579220E+04  0.14110981297E+04  0.15294330000E+03 0.  0.
<mgrwt>
<rscale>  0 0.78696910E+03</rscale>
<asrwt>0</asrwt>
<pdfrwt beam="1">  1        1 0.28905020E+00 0.86823892E+03</pdfrwt>
<pdfrwt beam="2">  1       -1 0.64359296E-01 0.86823892E+03</pdfrwt>
<totfact> 0.90510274E+00</totfact>
</mgrwt>
</event>
<event>
 4    1  0.1008211E-007  0.6734828E+03  0.7818608E-02  0.1013280E+00
          1   -1    0    0  501    0  0.00000000000E+00  0.00000000000E+00  0.85223825587E+03  0.85223825589E+03  0.50400000000E-02 0. -1.
         -1   -1    0    0    0  501 -0.00000000000E+00 -0.00000000000E+00 -0.17209894737E+04  0.17209894737E+04  0.50400000000E-02 0.  1.
    8880023    1    1    2    0    0  0.31797651986E+02  0.13695925602E+03 -0.16408391643E+04  0.17736776195E+04  0.65864270000E+03 0.  1.
    8880022    1    1    2    0    0 -0.31797651986E+02 -0.13695925602E+03  0.77208794648E+03  0.79955011012E+03  0.15294330000E+03 0.  0.
<mgrwt>
<rscale>  0 0.50191574E+03</rscale>
<asrwt>0</asrwt>
<pdfrwt beam="1">  1        1 0.13111358E+00 0.67348284E+03</pdfrwt>
<pdfrwt beam="2">  1       -1 0.26476761E+00 0.67348284E+03</pdfrwt>
<totfact> 0.11901443E+00</totfact>
</mgrwt>
</event>
<event>
 4    1  0.1008211E-007  0.8565438E+03  0.7818608E-02  0.9599741E-01
         -1   -1    0    0    0  501 -0.00000000000E+00  0.00000000000E+00  0.13906198192E+04  0.13906198192E+04  0.50400000000E-02 0.  1.
          1   -1    0    0  501    0  0.00000000000E+00 -0.00000000000E+00 -0.66709460694E+03  0.66709460696E+03  0.50400000000E-02 0. -1.
    8880023    1    1    2    0    0  0.54006177019E+03  0.90500905863E+02  0.10862354875E+04  0.13833202341E+04  0.65864270000E+03 0.  0.
    8880022    1    1    2    0    0 -0.54006177019E+03 -0.90500905863E+02 -0.36271027519E+03  0.67439419209E+03  0.15294330000E+03 0.  0.
<mgrwt>
<rscale>  0 0.77313317E+03</rscale>
<asrwt>0</asrwt>
<pdfrwt beam="1">  1        1 0.10262994E+00 0.85654383E+03</pdfrwt>
<pdfrwt beam="2">  1       -1 0.21394151E+00 0.85654383E+03</pdfrwt>
<totfact> 0.36238429E+00</totfact>
</mgrwt>
</event>
<event>
 4    1  0.1008211E-007  0.6620603E+03  0.7818608E-02  0.1022138E+00
          1   -1    0    0  501    0  0.00000000000E+00  0.00000000000E+00  0.27218944007E+04  0.27218944008E+04  0.50400000000E-02 0. -1.
         -1   -1    0    0    0  501 -0.00000000000E+00 -0.00000000000E+00 -0.21435821772E+03  0.21435821778E+03  0.50400000000E-02 0.  1.
    8880023    1    1    2    0    0 -0.36818791929E+01  0.67082622913E+02  0.30767857207E+03  0.73006160323E+03  0.65864270000E+03 0.  1.
    8880022    1    1    2    0    0  0.36818791929E+01 -0.67082622913E+02  0.21998576110E+04  0.22061910153E+04  0.15294330000E+03 0.  0.
<mgrwt>
<rscale>  0 0.46922806E+03</rscale>
<asrwt>0</asrwt>
<pdfrwt beam="1">  1        1 0.41875298E+00 0.66206030E+03</pdfrwt>
<pdfrwt beam="2">  1       -1 0.32978188E-01 0.66206030E+03</pdfrwt>
<totfact> 0.87878111E+00</totfact>
</mgrwt>
</event>
<event>
 4    1  0.1008211E-007  0.1135247E+04  0.7818608E-02  0.9222792E-01
         -1   -1    0    0    0  501 -0.00000000000E+00  0.00000000000E+00  0.14094971356E+04  0.14094971356E+04  0.50400000000E-02 0.  1.
          1   -1    0    0  501    0  0.00000000000E+00 -0.00000000000E+00 -0.83508611954E+03  0.83508611955E+03  0.50400000000E-02 0. -1.
    8880023    1    1    2    0    0  0.24989618408E+03  0.89024023867E+03  0.64329489290E+03  0.13048426383E+04  0.65864270000E+03 0.  0.
    8880022    1    1    2    0    0 -0.24989618408E+03 -0.89024023867E+03 -0.68883876852E+02  0.93974061680E+03  0.15294330000E+03 0.  0.
<mgrwt>
<rscale>  0 0.10821248E+04</rscale>
<asrwt>0</asrwt>
<pdfrwt beam="1">  1        1 0.12847479E+00 0.11352471E+04</pdfrwt>
<pdfrwt beam="2">  1       -1 0.21684571E+00 0.11352471E+04</pdfrwt>
<totfact> 0.23573240E+00</totfact>
</mgrwt>
</event>
<event>
 4    1  0.1008211E-007  0.9113861E+03  0.7818608E-02  0.9507995E-01
         -1   -1    0    0    0  501 -0.00000000000E+00  0.00000000000E+00  0.69537620050E+03  0.69537620051E+03  0.50400000000E-02 0.  1.
          1   -1    0    0  501    0  0.00000000000E+00 -0.00000000000E+00 -0.12918629090E+04  0.12918629090E+04  0.50400000000E-02 0. -1.
    8880023    1    1    2    0    0 -0.44567024099E+03  0.44518817957E+03  0.22699342020E+03  0.93922877831E+03  0.65864270000E+03 0.  1.
    8880022    1    1    2    0    0  0.44567024099E+03 -0.44518817957E+03 -0.82348012866E+03  0.10480103312E+04  0.15294330000E+03 0.  0.
<mgrwt>
<rscale>  0 0.83696946E+03</rscale>
<asrwt>0</asrwt>
<pdfrwt beam="1">  1        1 0.19874814E+00 0.91138613E+03</pdfrwt>
<pdfrwt beam="2">  1       -1 0.10698095E+00 0.91138613E+03</pdfrwt>
<totfact> 0.75791860E+00</totfact>
</mgrwt>
</event>
<event>
 4    1  0.1008211E-007  0.8251449E+03  0.7818608E-02  0.9658854E-01
         -1   -1    0    0    0  501 -0.00000000000E+00  0.00000000000E+00  0.11451903931E+04  0.11451903931E+04  0.50400000000E-02 0.  1.
          1   -1    0    0  501    0  0.00000000000E+00 -0.00000000000E+00 -0.18892899351E+04  0.18892899351E+04  0.50400000000E-02 0. -1.
    8880023    1    1    2    0    0 -0.31950972527E+03 -0.38074589472E+03  0.95236043957E+03  0.12601009936E+04  0.65864270000E+03 0.  1.
    8880022    1    1    2    0    0  0.31950972527E+03  0.38074589472E+03 -0.16964599816E+04  0.17743793346E+04  0.15294330000E+03 0.  0.
<mgrwt>
<rscale>  0 0.73520364E+03</rscale>
<asrwt>0</asrwt>
<pdfrwt beam="1">  1        1 0.29065999E+00 0.82514490E+03</pdfrwt>
<pdfrwt beam="2">  1       -1 0.17618314E+00 0.82514490E+03</pdfrwt>
<totfact> 0.81875781E-01</totfact>
</mgrwt>
</event>
<event>
 4    1  0.1008211E-007  0.7482214E+03  0.7818608E-02  0.9836615E-01
          1   -1    0    0  501    0  0.00000000000E+00  0.00000000000E+00  0.41627315161E+04  0.41627315161E+04  0.50400000000E-02 0. -1.
         -1   -1    0    0    0  501 -0.00000000000E+00 -0.00000000000E+00 -0.21394681086E+03  0.21394681092E+03  0.50400000000E-02 0.  1.
    8880023    1    1    2    0    0  0.32341732749E+03 -0.14637722669E+03  0.48559951305E+03  0.89198775415E+03  0.65864270000E+03 0.  1.
    8880022    1    1    2    0    0 -0.32341732749E+03  0.14637722669E+03  0.34631851922E+04  0.34846905729E+04  0.15294330000E+03 0.  0.
<mgrwt>
<rscale>  0 0.63434058E+03</rscale>
<asrwt>0</asrwt>
<pdfrwt beam="1">  1        1 0.64042021E+00 0.74822140E+03</pdfrwt>
<pdfrwt beam="2">  1       -1 0.32914895E-01 0.74822140E+03</pdfrwt>
<totfact> 0.66093541E-01</totfact>
</mgrwt>
</event>
<event>
 4    1  0.1008211E-007  0.7366664E+03  0.7818608E-02  0.9869766E-01
         -1   -1    0    0    0  501 -0.00000000000E+00  0.00000000000E+00  0.45832474608E+03  0.45832474610E+03  0.50400000000E-02 0.  1.
          1   -1    0    0  501    0  0.00000000000E+00 -0.00000000000E+00 -0.16471520937E+04  0.16471520937E+04  0.50400000000E-02 0. -1.
    8880023    1    1    2    0    0  0.10174086676E+02  0.32979338876E+03  0.12061077343E+03  0.74647461862E+03  0.65864270000E+03 0.  0.
    8880022    1    1    2    0    0 -0.10174086676E+02 -0.32979338876E+03 -0.13094381210E+04  0.13590022212E+04  0.15294330000E+03 0.  0.
<mgrwt>
<rscale>  0 0.61749187E+03</rscale>
<asrwt>0</asrwt>
<pdfrwt beam="1">  1        1 0.25340801E+00 0.73666641E+03</pdfrwt>
<pdfrwt beam="2">  1       -1 0.70511500E-01 0.73666641E+03</pdfrwt>
<totfact> 0.10971171E+01</totfact>
</mgrwt>
</event>
<event>
 4    1  0.1008211E-007  0.7432205E+03  0.7818608E-02  0.9850663E-01
         -1   -1    0    0    0  501 -0.00000000000E+00  0.00000000000E+00  0.17199180401E+04  0.17199180401E+04  0.50400000000E-02 0.  1.
          1   -1    0    0  501    0  0.00000000000E+00 -0.00000000000E+00 -0.41366132691E+03  0.41366132694E+03  0.50400000000E-02 0. -1.
    8880023    1    1    2    0    0  0.31337229012E+03 -0.14270378061E+03  0.15260297489E+04  0.16973931666E+04  0.65864270000E+03 0.  1.
    8880022    1    1    2    0    0 -0.31337229012E+03  0.14270378061E+03 -0.21977303572E+03  0.43618620044E+03  0.15294330000E+03 0.  0.
<mgrwt>
<rscale>  0 0.62713111E+03</rscale>
<asrwt>0</asrwt>
<pdfrwt beam="1">  1        1 0.63640204E-01 0.74322054E+03</pdfrwt>
<pdfrwt beam="2">  1       -1 0.26460278E+00 0.74322054E+03</pdfrwt>
<totfact> 0.33571386E+00</totfact>
</mgrwt>
</event>
<event>
 4    1  0.1008211E-007  0.7500402E+03  0.7818608E-02  0.9831610E-01
          1   -1    0    0  501    0  0.00000000000E+00  0.00000000000E+00  0.18378890837E+04  0.18378890837E+04  0.50400000000E-02 0. -1.
         -1   -1    0    0    0  501 -0.00000000000E+00 -0.00000000000E+00 -0.36026109148E+03  0.36026109151E+03  0.50400000000E-02 0.  1.
    8880023    1    1    2    0    0  0.27212703148E+03 -0.23387371418E+03  0.88433659895E+02  0.75523556187E+03  0.65864270000E+03 0.  1.
    8880022    1    1    2    0    0 -0.27212703148E+03  0.23387371418E+03  0.13891943323E+04  0.14429146134E+04  0.15294330000E+03 0.  0.
<mgrwt>
<rscale>  0 0.63693398E+03</rscale>
<asrwt>0</asrwt>
<pdfrwt beam="1">  1        1 0.28275217E+00 0.75004016E+03</pdfrwt>
<pdfrwt beam="2">  1       -1 0.55424782E-01 0.75004016E+03</pdfrwt>
<totfact> 0.13164267E+01</totfact>
</mgrwt>
</event>
<event>
 4    1  0.1008211E-007  0.9930310E+03  0.7818608E-02  0.9390733E-01
          1   -1    0    0  501    0  0.00000000000E+00  0.00000000000E+00  0.15938928510E+04  0.15938928510E+04  0.50400000000E-02 0. -1.
         -1   -1    0    0    0  501 -0.00000000000E+00 -0.00000000000E+00 -0.52530451818E+03  0.52530451820E+03  0.50400000000E-02 0.  1.
    8880023    1    1    2    0    0 -0.67183773277E+03  0.31770173644E+03  0.29569606013E+03  0.10361209865E+04  0.65864270000E+03 0.  0.
    8880022    1    1    2    0    0  0.67183773277E+03 -0.31770173644E+03  0.77289227272E+03  0.10830763827E+04  0.15294330000E+03 0.  0.
<mgrwt>
<rscale>  0 0.92842296E+03</rscale>
<asrwt>0</asrwt>
<pdfrwt beam="1">  1        1 0.24521428E+00 0.99303099E+03</pdfrwt>
<pdfrwt beam="2">  1       -1 0.80816080E-01 0.99303099E+03</pdfrwt>
<totfact> 0.86650239E+00</totfact>
</mgrwt>
</event>
<event>
 4    1  0.1008211E-007  0.9107944E+03  0.7818608E-02  0.9508921E-01
          1   -1    0    0  501    0  0.00000000000E+00  0.00000000000E+00  0.15133900532E+04  0.15133900532E+04  0.50400000000E-02 0. -1.
         -1   -1    0    0    0  501 -0.00000000000E+00 -0.00000000000E+00 -0.90168803499E+03  0.90168803501E+03  0.50400000000E-02 0.  1.
    8880023    1    1    2    0    0  0.33382624703E+03 -0.53319435043E+03 -0.56516454585E+03  0.10718942806E+04  0.65864270000E+03 0.  0.
    8880022    1    1    2    0    0 -0.33382624703E+03  0.53319435043E+03  0.11768665641E+04  0.13431838077E+04  0.15294330000E+03 0.  0.
<mgrwt>
<rscale>  0 0.83629320E+03</rscale>
<asrwt>0</asrwt>
<pdfrwt beam="1">  1        1 0.23282924E+00 0.91079437E+03</pdfrwt>
<pdfrwt beam="2">  1       -1 0.13872124E+00 0.91079437E+03</pdfrwt>
<totfact> 0.27990653E+00</totfact>
</mgrwt>
</event>
<event>
 4    1  0.1008211E-007  0.1193131E+04  0.7818608E-02  0.9163828E-01
         -1   -1    0    0    0  501 -0.00000000000E+00  0.00000000000E+00  0.12140424776E+04  0.12140424776E+04  0.50400000000E-02 0.  1.
          1   -1    0    0  501    0  0.00000000000E+00 -0.00000000000E+00 -0.13730276947E+04  0.13730276947E+04  0.50400000000E-02 0. -1.
    8880023    1    1    2    0    0 -0.50644387197E+03 -0.85631012138E+03  0.59133666162E+03  0.13316312076E+04  0.65864270000E+03 0.  1.
    8880022    1    1    2    0    0  0.50644387197E+03  0.85631012138E+03 -0.75032187872E+03  0.12554389647E+04  0.15294330000E+03 0.  0.
<mgrwt>
<rscale>  0 0.11434709E+04</rscale>
<asrwt>0</asrwt>
<pdfrwt beam="1">  1        1 0.21123503E+00 0.11931314E+04</pdfrwt>
<pdfrwt beam="2">  1       -1 0.18677576E+00 0.11931314E+04</pdfrwt>
<totfact> 0.14657045E+00</totfact>
</mgrwt>
</event>
<event>
 4    1  0.1008211E-007  0.8172705E+03  0.7818608E-02  0.9674627E-01
         -1   -1    0    0    0  501 -0.00000000000E+00  0.00000000000E+00  0.11391133654E+04  0.11391133654E+04  0.50400000000E-02 0.  1.
          1   -1    0    0  501    0  0.00000000000E+00 -0.00000000000E+00 -0.46540292458E+03  0.46540292461E+03  0.50400000000E-02 0. -1.
    8880023    1    1    2    0    0  0.17131029804E+03  0.45251929997E+03  0.72757253990E+03  0.10942088202E+04  0.65864270000E+03 0.  1.
    8880022    1    1    2    0    0 -0.17131029804E+03 -0.45251929997E+03 -0.53862099073E+02  0.51030746986E+03  0.15294330000E+03 0.  0.
<mgrwt>
<rscale>  0 0.72547791E+03</rscale>
<asrwt>0</asrwt>
<pdfrwt beam="1">  1        1 0.71600451E-01 0.81727054E+03</pdfrwt>
<pdfrwt beam="2">  1       -1 0.17524821E+00 0.81727054E+03</pdfrwt>
<totfact> 0.11258325E+01</totfact>
</mgrwt>
</event>
<event>
 4    1  0.1008211E-007  0.6590319E+03  0.7818608E-02  0.1025171E+00
          1   -1    0    0  501    0  0.00000000000E+00  0.00000000000E+00  0.73519800864E+03  0.73519800866E+03  0.50400000000E-02 0. -1.
         -1   -1    0    0    0  501 -0.00000000000E+00 -0.00000000000E+00 -0.98797217557E+03  0.98797217559E+03  0.50400000000E-02 0.  1.
    8880023    1    1    2    0    0 -0.22299747066E+02 -0.39487307549E+01 -0.86742034550E+03  0.10893764883E+04  0.65864270000E+03 0.  1.
    8880022    1    1    2    0    0  0.22299747066E+02  0.39487307549E+01  0.61464617856E+03  0.63379369595E+03  0.15294330000E+03 0.  0.
<mgrwt>
<rscale>  0 0.45865893E+03</rscale>
<asrwt>0</asrwt>
<pdfrwt beam="1">  1        1 0.11310739E+00 0.65903192E+03</pdfrwt>
<pdfrwt beam="2">  1       -1 0.15199572E+00 0.65903192E+03</pdfrwt>
<totfact> 0.88901130E+00</totfact>
</mgrwt>
</event>
<event>
 4    1  0.1008211E-007  0.8703786E+03  0.7818608E-02  0.9575362E-01
         -1   -1    0    0    0  501 -0.00000000000E+00  0.00000000000E+00  0.64587804488E+03  0.64587804490E+03  0.50400000000E-02 0.  1.
          1   -1    0    0  501    0  0.00000000000E+00 -0.00000000000E+00 -0.11849966805E+04  0.11849966805E+04  0.50400000000E-02 0. -1.
    8880023    1    1    2    0    0 -0.51876898659E+03 -0.23372519038E+03  0.19259853824E+03  0.89143318834E+03  0.65864270000E+03 0.  1.
    8880022    1    1    2    0    0  0.51876898659E+03  0.23372519038E+03 -0.73171717390E+03  0.93944153712E+03  0.15294330000E+03 0.  0.
<mgrwt>
<rscale>  0 0.78948576E+03</rscale>
<asrwt>0</asrwt>
<pdfrwt beam="1">  1        1 0.18230718E+00 0.87037861E+03</pdfrwt>
<pdfrwt beam="2">  1       -1 0.99365853E-01 0.87037861E+03</pdfrwt>
<totfact> 0.10789904E+01</totfact>
</mgrwt>
</event>
<event>
 4    1  0.1008211E-007  0.1318035E+04  0.7818608E-02  0.9050140E-01
          1   -1    0    0  501    0  0.00000000000E+00  0.00000000000E+00  0.60230145894E+03  0.60230145896E+03  0.50400000000E-02 0. -1.
         -1   -1    0    0    0  501 -0.00000000000E+00 -0.00000000000E+00 -0.43399437138E+04  0.43399437138E+04  0.50400000000E-02 0.  1.
    8880023    1    1    2    0    0  0.10327675922E+04  0.48661799937E+03 -0.35349551444E+04  0.37726812821E+04  0.65864270000E+03 0.  0.
    8880022    1    1    2    0    0 -0.10327675922E+04 -0.48661799937E+03 -0.20268711046E+03  0.11695638907E+04  0.15294330000E+03 0.  0.
<mgrwt>
<rscale>  0 0.12743707E+04</rscale>
<asrwt>0</asrwt>
<pdfrwt beam="1">  1        1 0.92661766E-01 0.13180350E+04</pdfrwt>
<pdfrwt beam="2">  1       -1 0.66768363E+00 0.13180350E+04</pdfrwt>
<totfact> 0.83225223E-03</totfact>
</mgrwt>
</event>
<event>
 4    1  0.1008211E-007  0.7479232E+03  0.7818608E-02  0.9837441E-01
         -1   -1    0    0    0  501 -0.00000000000E+00  0.00000000000E+00  0.54527090566E+03  0.54527090568E+03  0.50400000000E-02 0.  1.
          1   -1    0    0  501    0  0.00000000000E+00 -0.00000000000E+00 -0.10969852891E+04  0.10969852891E+04  0.50400000000E-02 0. -1.
    8880023    1    1    2    0    0  0.45921498431E+02 -0.35138308894E+03  0.21982651291E+03  0.77955933786E+03  0.65864270000E+03 0.  0.
    8880022    1    1    2    0    0 -0.45921498431E+02  0.35138308894E+03 -0.77154089637E+03  0.86269685696E+03  0.15294330000E+03 0.  0.
<mgrwt>
<rscale>  0 0.63391391E+03</rscale>
<asrwt>0</asrwt>
<pdfrwt beam="1">  1        1 0.16876697E+00 0.74792317E+03</pdfrwt>
<pdfrwt beam="2">  1       -1 0.83887832E-01 0.74792317E+03</pdfrwt>
<totfact> 0.18506540E+01</totfact>
</mgrwt>
</event>
<event>
 4    1  0.1008211E-007  0.7490402E+03  0.7818608E-02  0.9834355E-01
         -1   -1    0    0    0  501 -0.00000000000E+00  0.00000000000E+00  0.69655941088E+03  0.69655941090E+03  0.50400000000E-02 0.  1.
          1   -1    0    0  501    0  0.00000000000E+00 -0.00000000000E+00 -0.71581870648E+03  0.71581870649E+03  0.50400000000E-02 0. -1.
    8880023    1    1    2    0    0 -0.10426614674E+03 -0.34114447507E+03  0.39323802101E+03  0.84598896545E+03  0.65864270000E+03 0.  1.
    8880022    1    1    2    0    0  0.10426614674E+03  0.34114447507E+03 -0.41249731660E+03  0.56638915195E+03  0.15294330000E+03 0.  0.
<mgrwt>
<rscale>  0 0.63550990E+03</rscale>
<asrwt>0</asrwt>
<pdfrwt beam="1">  1        1 0.11012595E+00 0.74904018E+03</pdfrwt>
<pdfrwt beam="2">  1       -1 0.10716299E+00 0.74904018E+03</pdfrwt>
<totfact> 0.21940316E+01</totfact>
</mgrwt>
</event>
<event>
 4    1  0.1008211E-007  0.7012753E+03  0.7818608E-02  0.9991951E-01
          1   -1    0    0  501    0  0.00000000000E+00  0.00000000000E+00  0.17530059043E+04  0.17530059043E+04  0.50400000000E-02 0. -1.
         -1   -1    0    0    0  501 -0.00000000000E+00 -0.00000000000E+00 -0.25816845290E+03  0.25816845295E+03  0.50400000000E-02 0.  1.
    8880023    1    1    2    0    0  0.21375754790E+03 -0.11083549338E+03  0.26659002913E+03  0.75023812605E+03  0.65864270000E+03 0.  1.
    8880022    1    1    2    0    0 -0.21375754790E+03  0.11083549338E+03  0.12282474223E+04  0.12609362312E+04  0.15294330000E+03 0.  0.
<mgrwt>
<rscale>  0 0.56004561E+03</rscale>
<asrwt>0</asrwt>
<pdfrwt beam="1">  1        1 0.26969322E+00 0.70127527E+03</pdfrwt>
<pdfrwt beam="2">  1       -1 0.39718223E-01 0.70127527E+03</pdfrwt>
<totfact> 0.28192250E+01</totfact>
</mgrwt>
</event>
<event>
 4    1  0.1008211E-007  0.1536682E+04  0.7818608E-02  0.8884159E-01
          1   -1    0    0  501    0  0.00000000000E+00  0.00000000000E+00  0.11352758639E+04  0.11352758639E+04  0.50400000000E-02 0. -1.
         -1   -1    0    0    0  501 -0.00000000000E+00 -0.00000000000E+00 -0.20959022047E+04  0.20959022047E+04  0.50400000000E-02 0.  1.
    8880023    1    1    2    0    0  0.57596449465E+03 -0.12632680463E+04 -0.10007684539E+04  0.18338290434E+04  0.65864270000E+03 0.  0.
    8880022    1    1    2    0    0 -0.57596449465E+03  0.12632680463E+04  0.40142113099E+02  0.13973490252E+04  0.15294330000E+03 0.  0.
<mgrwt>
<rscale>  0 0.15004427E+04</rscale>
<asrwt>0</asrwt>
<pdfrwt beam="1">  1        1 0.17465783E+00 0.15366820E+04</pdfrwt>
<pdfrwt beam="2">  1       -1 0.32244649E+00 0.15366820E+04</pdfrwt>
<totfact> 0.26623747E-01</totfact>
</mgrwt>
</event>
<event>
 4    1  0.1008211E-007  0.6800193E+03  0.7818608E-02  0.1009313E+00
         -1   -1    0    0    0  501 -0.00000000000E+00  0.00000000000E+00  0.56954984225E+03  0.56954984227E+03  0.50400000000E-02 0.  1.
          1   -1    0    0  501    0  0.00000000000E+00 -0.00000000000E+00 -0.16597228046E+04  0.16597228046E+04  0.50400000000E-02 0. -1.
    8880023    1    1    2    0    0  0.50931728672E+01 -0.16908603198E+03  0.35438699273E+03  0.76682225679E+03  0.65864270000E+03 0.  1.
    8880022    1    1    2    0    0 -0.50931728672E+01  0.16908603198E+03 -0.14445599551E+04  0.14624503901E+04  0.15294330000E+03 0.  0.
<mgrwt>
<rscale>  0 0.51748690E+03</rscale>
<asrwt>0</asrwt>
<pdfrwt beam="1">  1        1 0.25534197E+00 0.68001929E+03</pdfrwt>
<pdfrwt beam="2">  1       -1 0.87623053E-01 0.68001929E+03</pdfrwt>
<totfact> 0.68656812E+00</totfact>
</mgrwt>
</event>
<event>
 4    1  0.1008211E-007  0.1082051E+04  0.7818608E-02  0.9281308E-01
         -1   -1    0    0    0  501 -0.00000000000E+00  0.00000000000E+00  0.10649364968E+04  0.10649364968E+04  0.50400000000E-02 0.  1.
          1   -1    0    0  501    0  0.00000000000E+00 -0.00000000000E+00 -0.16569632585E+04  0.16569632585E+04  0.50400000000E-02 0. -1.
    8880023    1    1    2    0    0 -0.64600016896E+03  0.56542789789E+03  0.60594256541E+03  0.12401618946E+04  0.65864270000E+03 0.  1.
    8880022    1    1    2    0    0  0.64600016896E+03 -0.56542789789E+03 -0.11979693272E+04  0.14817378607E+04  0.15294330000E+03 0.  0.
<mgrwt>
<rscale>  0 0.10252207E+04</rscale>
<asrwt>0</asrwt>
<pdfrwt beam="1">  1        1 0.25491743E+00 0.10820514E+04</pdfrwt>
<pdfrwt beam="2">  1       -1 0.16383638E+00 0.10820514E+04</pdfrwt>
<totfact> 0.13883955E+00</totfact>
</mgrwt>
</event>
<event>
 4    1  0.1008211E-007  0.6781405E+03  0.7818608E-02  0.1010396E+00
          1   -1    0    0  501    0  0.00000000000E+00  0.00000000000E+00  0.14772056532E+04  0.14772056532E+04  0.50400000000E-02 0. -1.
         -1   -1    0    0    0  501 -0.00000000000E+00 -0.00000000000E+00 -0.26898154439E+03  0.26898154444E+03  0.50400000000E-02 0.  1.
    8880023    1    1    2    0    0 -0.14518038146E+03  0.70618570305E+02  0.19041591439E+03  0.70436691600E+03  0.65864270000E+03 0.  0.
    8880022    1    1    2    0    0  0.14518038146E+03 -0.70618570305E+02  0.10178081944E+04  0.10418202816E+04  0.15294330000E+03 0. -1.
<mgrwt>
<rscale>  0 0.51317691E+03</rscale>
<asrwt>0</asrwt>
<pdfrwt beam="1">  1        1 0.22726241E+00 0.67814050E+03</pdfrwt>
<pdfrwt beam="2">  1       -1 0.41381776E-01 0.67814050E+03</pdfrwt>
<totfact> 0.40316639E+01</totfact>
</mgrwt>
</event>
<event>
 4    1  0.1008211E-007  0.1056568E+04  0.7818608E-02  0.9311027E-01
         -1   -1    0    0    0  501 -0.00000000000E+00  0.00000000000E+00  0.82559637454E+03  0.82559637456E+03  0.50400000000E-02 0.  1.
          1   -1    0    0  501    0  0.00000000000E+00 -0.00000000000E+00 -0.13259957806E+04  0.13259957806E+04  0.50400000000E-02 0. -1.
    8880023    1    1    2    0    0 -0.62925121618E+03  0.53532151639E+03  0.17831929180E+03  0.10715102403E+04  0.65864270000E+03 0.  0.
    8880022    1    1    2    0    0  0.62925121618E+03 -0.53532151639E+03 -0.67871869786E+03  0.10800819149E+04  0.15294330000E+03 0.  0.
<mgrwt>
<rscale>  0 0.99774011E+03</rscale>
<asrwt>0</asrwt>
<pdfrwt beam="1">  1        1 0.20399935E+00 0.10565682E+04</pdfrwt>
<pdfrwt beam="2">  1       -1 0.12701483E+00 0.10565682E+04</pdfrwt>
<totfact> 0.46482558E+00</totfact>
</mgrwt>
</event>
<event>
 4    1  0.1008211E-007  0.1236556E+04  0.7818608E-02  0.9122381E-01
         -1   -1    0    0    0  501 -0.00000000000E+00  0.00000000000E+00  0.58363504159E+03  0.58363504161E+03  0.50400000000E-02 0.  1.
          1   -1    0    0  501    0  0.00000000000E+00 -0.00000000000E+00 -0.33671867649E+04  0.33671867649E+04  0.50400000000E-02 0. -1.
    8880023    1    1    2    0    0  0.80595223278E+03  0.66760876450E+03 -0.33124305051E+03  0.12801533614E+04  0.65864270000E+03 0.  0.
    8880022    1    1    2    0    0 -0.80595223278E+03 -0.66760876450E+03 -0.24523086728E+04  0.26706684451E+04  0.15294330000E+03 0.  0.
<mgrwt>
<rscale>  0 0.11891790E+04</rscale>
<asrwt>0</asrwt>
<pdfrwt beam="1">  1        1 0.51802872E+00 0.12365560E+04</pdfrwt>
<pdfrwt beam="2">  1       -1 0.89790008E-01 0.12365560E+04</pdfrwt>
<totfact> 0.38410086E-01</totfact>
</mgrwt>
</event>
<event>
 4    1  0.1008211E-007  0.9394535E+03  0.7818608E-02  0.9465453E-01
         -1   -1    0    0    0  501 -0.00000000000E+00  0.00000000000E+00  0.15236885199E+04  0.15236885199E+04  0.50400000000E-02 0.  1.
          1   -1    0    0  501    0  0.00000000000E+00 -0.00000000000E+00 -0.99224433768E+03  0.99224433769E+03  0.50400000000E-02 0. -1.
    8880023    1    1    2    0    0 -0.60664087213E+03 -0.28416472220E+03  0.12222489701E+04  0.15415788946E+04  0.65864270000E+03 0.  1.
    8880022    1    1    2    0    0  0.60664087213E+03  0.28416472220E+03 -0.69080478793E+03  0.97435396296E+03  0.15294330000E+03 0.  0.
<mgrwt>
<rscale>  0 0.86879434E+03</rscale>
<asrwt>0</asrwt>
<pdfrwt beam="1">  1        1 0.15265298E+00 0.93945353E+03</pdfrwt>
<pdfrwt beam="2">  1       -1 0.23441362E+00 0.93945353E+03</pdfrwt>
<totfact> 0.13752142E+00</totfact>
</mgrwt>
</event>
<event>
 4    1  0.1008211E-007  0.7732589E+03  0.7818608E-02  0.9771917E-01
          1   -1    0    0  501    0  0.00000000000E+00  0.00000000000E+00  0.37842814184E+03  0.37842814187E+03  0.50400000000E-02 0. -1.
         -1   -1    0    0    0  501 -0.00000000000E+00 -0.00000000000E+00 -0.99561418808E+03  0.99561418809E+03  0.50400000000E-02 0.  1.
    8880023    1    1    2    0    0 -0.14631884112E+03 -0.37776966878E+03 -0.51519236122E+03  0.92916763894E+03  0.65864270000E+03 0. -1.
    8880022    1    1    2    0    0  0.14631884112E+03  0.37776966878E+03 -0.10199368502E+03  0.44487469103E+03  0.15294330000E+03 0.  1.
<mgrwt>
<rscale>  0 0.66891660E+03</rscale>
<asrwt>0</asrwt>
<pdfrwt beam="1">  1        1 0.58219715E-01 0.77325890E+03</pdfrwt>
<pdfrwt beam="2">  1       -1 0.15317141E+00 0.77325890E+03</pdfrwt>
<totfact> 0.21779122E+01</totfact>
</mgrwt>
</event>
<event>
 4    1  0.1008211E-007  0.7686543E+03  0.7818608E-02  0.9783196E-01
          1   -1    0    0  501    0  0.00000000000E+00  0.00000000000E+00  0.10387169064E+04  0.10387169064E+04  0.50400000000E-02 0. -1.
         -1   -1    0    0    0  501 -0.00000000000E+00 -0.00000000000E+00 -0.62490039501E+03  0.62490039503E+03  0.50400000000E-02 0.  1.
    8880023    1    1    2    0    0  0.29347250490E+03 -0.26625762860E+03 -0.30640764994E+03  0.82747512961E+03  0.65864270000E+03 0.  1.
    8880022    1    1    2    0    0 -0.29347250490E+03  0.26625762860E+03  0.72022416131E+03  0.83614217181E+03  0.15294330000E+03 0.  0.
<mgrwt>
<rscale>  0 0.66272162E+03</rscale>
<asrwt>0</asrwt>
<pdfrwt beam="1">  1        1 0.15980260E+00 0.76865431E+03</pdfrwt>
<pdfrwt beam="2">  1       -1 0.96138524E-01 0.76865431E+03</pdfrwt>
<totfact> 0.15135687E+01</totfact>
</mgrwt>
</event>
<event>
 4    1  0.1008211E-007  0.9073359E+03  0.7818608E-02  0.9514356E-01
          1   -1    0    0  501    0  0.00000000000E+00  0.00000000000E+00  0.15693463964E+04  0.15693463964E+04  0.50400000000E-02 0. -1.
         -1   -1    0    0    0  501 -0.00000000000E+00 -0.00000000000E+00 -0.55048180352E+03  0.55048180354E+03  0.50400000000E-02 0.  1.
    8880023    1    1    2    0    0 -0.32146248858E+01  0.62404954553E+03 -0.93287483233E+01  0.90738382226E+03  0.65864270000E+03 0.  0.
    8880022    1    1    2    0    0  0.32146248858E+01 -0.62404954553E+03  0.10281933412E+04  0.12124443777E+04  0.15294330000E+03 0.  0.
<mgrwt>
<rscale>  0 0.83233615E+03</rscale>
<asrwt>0</asrwt>
<pdfrwt beam="1">  1        1 0.24143791E+00 0.90733587E+03</pdfrwt>
<pdfrwt beam="2">  1       -1 0.84689508E-01 0.90733587E+03</pdfrwt>
<totfact> 0.82269597E+00</totfact>
</mgrwt>
</event>
<event>
 4    1  0.1008211E-007  0.9198713E+03  0.7818608E-02  0.9494856E-01
         -1   -1    0    0    0  501 -0.00000000000E+00  0.00000000000E+00  0.43824879639E+03  0.43824879642E+03  0.50400000000E-02 0.  1.
          1   -1    0    0  501    0  0.00000000000E+00 -0.00000000000E+00 -0.24247392813E+04  0.24247392813E+04  0.50400000000E-02 0. -1.
    8880023    1    1    2    0    0  0.24827175937E+03 -0.59221119376E+03 -0.17685821870E+03  0.93671874130E+03  0.65864270000E+03 0.  0.
    8880022    1    1    2    0    0 -0.24827175937E+03  0.59221119376E+03 -0.18096322662E+04  0.19262693364E+04  0.15294330000E+03 0.  0.
<mgrwt>
<rscale>  0 0.84664100E+03</rscale>
<asrwt>0</asrwt>
<pdfrwt beam="1">  1        1 0.37303680E+00 0.91987128E+03</pdfrwt>
<pdfrwt beam="2">  1       -1 0.67422893E-01 0.91987128E+03</pdfrwt>
<totfact> 0.35034982E+00</totfact>
</mgrwt>
</event>
<event>
 4    1  0.1008211E-007  0.7426319E+03  0.7818608E-02  0.9852346E-01
         -1   -1    0    0    0  501 -0.00000000000E+00  0.00000000000E+00  0.17145180746E+03  0.17145180753E+03  0.50400000000E-02 0.  1.
          1   -1    0    0  501    0  0.00000000000E+00 -0.00000000000E+00 -0.21498625951E+04  0.21498625951E+04  0.50400000000E-02 0. -1.
    8880023    1    1    2    0    0 -0.18919912758E+03  0.28617422718E+03 -0.83340064972E+03  0.11162700602E+04  0.65864270000E+03 0.  1.
    8880022    1    1    2    0    0  0.18919912758E+03 -0.28617422718E+03 -0.11450101379E+04  0.12050443424E+04  0.15294330000E+03 0.  0.
<mgrwt>
<rscale>  0 0.62627461E+03</rscale>
<asrwt>0</asrwt>
<pdfrwt beam="1">  1        1 0.33074807E+00 0.74263194E+03</pdfrwt>
<pdfrwt beam="2">  1       -1 0.26377203E-01 0.74263194E+03</pdfrwt>
<totfact> 0.31303908E+01</totfact>
</mgrwt>
</event>
<event>
 4    1  0.1008211E-007  0.7560036E+03  0.7818608E-02  0.9815566E-01
          1   -1    0    0  501    0  0.00000000000E+00  0.00000000000E+00  0.96388181773E+03  0.96388181774E+03  0.50400000000E-02 0. -1.
         -1   -1    0    0    0  501 -0.00000000000E+00 -0.00000000000E+00 -0.37004432775E+03  0.37004432778E+03  0.50400000000E-02 0.  1.
    8880023    1    1    2    0    0 -0.27486357916E+03  0.24936169175E+03  0.53972440315E+03  0.92889390034E+03  0.65864270000E+03 0.  1.
    8880022    1    1    2    0    0  0.27486357916E+03 -0.24936169175E+03  0.54113086830E+02  0.40503224519E+03  0.15294330000E+03 0. -1.
<mgrwt>
<rscale>  0 0.64533847E+03</rscale>
<asrwt>0</asrwt>
<pdfrwt beam="1">  1        1 0.14828951E+00 0.75600360E+03</pdfrwt>
<pdfrwt beam="2">  1       -1 0.56929897E-01 0.75600360E+03</pdfrwt>
<totfact> 0.51634363E+01</totfact>
</mgrwt>
</event>
<event>
 4    1  0.1008211E-007  0.7998064E+03  0.7818608E-02  0.9711215E-01
         -1   -1    0    0    0  501 -0.00000000000E+00  0.00000000000E+00  0.55247321148E+03  0.55247321151E+03  0.50400000000E-02 0.  1.
          1   -1    0    0  501    0  0.00000000000E+00 -0.00000000000E+00 -0.14243202550E+04  0.14243202550E+04  0.50400000000E-02 0. -1.
    8880023    1    1    2    0    0 -0.26141893557E+03 -0.37086404146E+03  0.18113006962E+03  0.82005994019E+03  0.65864270000E+03 0.  0.
    8880022    1    1    2    0    0  0.26141893557E+03  0.37086404146E+03 -0.10529771131E+04  0.11567335263E+04  0.15294330000E+03 0.  0.
<mgrwt>
<rscale>  0 0.70352969E+03</rscale>
<asrwt>0</asrwt>
<pdfrwt beam="1">  1        1 0.21912619E+00 0.79980635E+03</pdfrwt>
<pdfrwt beam="2">  1       -1 0.84995879E-01 0.79980635E+03</pdfrwt>
<totfact> 0.10416649E+01</totfact>
</mgrwt>
</event>
<event>
 4    1  0.1008211E-007  0.7528100E+03  0.7818608E-02  0.9824090E-01
         -1   -1    0    0    0  501 -0.00000000000E+00  0.00000000000E+00  0.51982324594E+03  0.51982324597E+03  0.50400000000E-02 0.  1.
          1   -1    0    0  501    0  0.00000000000E+00 -0.00000000000E+00 -0.69974622503E+03  0.69974622505E+03  0.50400000000E-02 0. -1.
    8880023    1    1    2    0    0  0.36227419381E+03 -0.40867451476E+02  0.63175238185E+02  0.75545619137E+03  0.65864270000E+03 0.  0.
    8880022    1    1    2    0    0 -0.36227419381E+03  0.40867451476E+02 -0.24309821727E+03  0.46411327965E+03  0.15294330000E+03 0.  1.
<mgrwt>
<rscale>  0 0.64085599E+03</rscale>
<asrwt>0</asrwt>
<pdfrwt beam="1">  1        1 0.10765326E+00 0.75281003E+03</pdfrwt>
<pdfrwt beam="2">  1       -1 0.79972807E-01 0.75281003E+03</pdfrwt>
<totfact> 0.43521819E+01</totfact>
</mgrwt>
</event>
<event>
 4    1  0.1008211E-007  0.9222731E+03  0.7818608E-02  0.9491182E-01
          1   -1    0    0  501    0  0.00000000000E+00  0.00000000000E+00  0.12847610223E+04  0.12847610223E+04  0.50400000000E-02 0. -1.
         -1   -1    0    0    0  501 -0.00000000000E+00 -0.00000000000E+00 -0.51960851003E+03  0.51960851006E+03  0.50400000000E-02 0.  1.
    8880023    1    1    2    0    0  0.30719574032E+02 -0.64485169237E+03  0.22623042558E+03  0.94961455818E+03  0.65864270000E+03 0.  0.
    8880022    1    1    2    0    0 -0.30719574032E+02  0.64485169237E+03  0.53892208671E+03  0.85475497421E+03  0.15294330000E+03 0.  0.
<mgrwt>
<rscale>  0 0.84937032E+03</rscale>
<asrwt>0</asrwt>
<pdfrwt beam="1">  1        1 0.19765554E+00 0.92227306E+03</pdfrwt>
<pdfrwt beam="2">  1       -1 0.79939772E-01 0.92227306E+03</pdfrwt>
<totfact> 0.14672055E+01</totfact>
</mgrwt>
</event>
<event>
 4    1  0.1008211E-007  0.8333721E+03  0.7818608E-02  0.9642807E-01
         -1   -1    0    0    0  501 -0.00000000000E+00  0.00000000000E+00  0.34842077931E+03  0.34842077934E+03  0.50400000000E-02 0.  1.
          1   -1    0    0  501    0  0.00000000000E+00 -0.00000000000E+00 -0.14508596650E+04  0.14508596650E+04  0.50400000000E-02 0. -1.
    8880023    1    1    2    0    0 -0.39474916319E+03 -0.32383936533E+03 -0.90661099278E+03  0.12314432731E+04  0.65864270000E+03 0. -1.
    8880022    1    1    2    0    0  0.39474916319E+03  0.32383936533E+03 -0.19582789288E+03  0.56783717122E+03  0.15294330000E+03 0.  0.
<mgrwt>
<rscale>  0 0.74526599E+03</rscale>
<asrwt>0</asrwt>
<pdfrwt beam="1">  1        1 0.22320918E+00 0.83337209E+03</pdfrwt>
<pdfrwt beam="2">  1       -1 0.53603198E-01 0.83337209E+03</pdfrwt>
<totfact> 0.25410996E+01</totfact>
</mgrwt>
</event>
<event>
 4    1  0.1008211E-007  0.7525118E+03  0.7818608E-02  0.9824894E-01
         -1   -1    0    0    0  501 -0.00000000000E+00  0.00000000000E+00  0.51542599580E+03  0.51542599582E+03  0.50400000000E-02 0.  1.
          1   -1    0    0  501    0  0.00000000000E+00 -0.00000000000E+00 -0.95868976210E+03  0.95868976211E+03  0.50400000000E-02 0. -1.
    8880023    1    1    2    0    0 -0.27066639916E+03  0.24331762613E+03  0.14431850959E+03  0.76622568823E+03  0.65864270000E+03 0.  1.
    8880022    1    1    2    0    0  0.27066639916E+03 -0.24331762613E+03 -0.58758227590E+03  0.70789006971E+03  0.15294330000E+03 0.  0.
<mgrwt>
<rscale>  0 0.64043523E+03</rscale>
<asrwt>0</asrwt>
<pdfrwt beam="1">  1        1 0.14749073E+00 0.75251178E+03</pdfrwt>
<pdfrwt beam="2">  1       -1 0.79296307E-01 0.75251178E+03</pdfrwt>
<totfact> 0.26629425E+01</totfact>
</mgrwt>
</event>
<event>
 4    1  0.1008211E-007  0.7916079E+03  0.7818608E-02  0.9729244E-01
         -1   -1    0    0    0  501 -0.00000000000E+00  0.00000000000E+00  0.10985716029E+04  0.10985716029E+04  0.50400000000E-02 0.  1.
          1   -1    0    0  501    0  0.00000000000E+00 -0.00000000000E+00 -0.92456897314E+03  0.92456897315E+03  0.50400000000E-02 0. -1.
    8880023    1    1    2    0    0  0.43907249488E+03  0.69445013246E+01  0.87626564950E+03  0.11808829648E+04  0.65864270000E+03 0.  1.
    8880022    1    1    2    0    0 -0.43907249488E+03 -0.69445013246E+01 -0.70226301972E+03  0.84225761126E+03  0.15294330000E+03 0.  0.
<mgrwt>
<rscale>  0 0.69301992E+03</rscale>
<asrwt>0</asrwt>
<pdfrwt beam="1">  1        1 0.14224138E+00 0.79160791E+03</pdfrwt>
<pdfrwt beam="2">  1       -1 0.16901101E+00 0.79160791E+03</pdfrwt>
<totfact> 0.44802011E+00</totfact>
</mgrwt>
</event>
<event>
 4    1  0.1008211E-007  0.7030474E+03  0.7818608E-02  0.9984787E-01
          1   -1    0    0  501    0  0.00000000000E+00  0.00000000000E+00  0.21340505192E+04  0.21340505192E+04  0.50400000000E-02 0. -1.
         -1   -1    0    0    0  501 -0.00000000000E+00 -0.00000000000E+00 -0.71154903486E+03  0.71154903487E+03  0.50400000000E-02 0.  1.
    8880023    1    1    2    0    0 -0.10510132098E+03 -0.22230416090E+03 -0.52452532383E+03  0.87715588651E+03  0.65864270000E+03 0.  1.
    8880022    1    1    2    0    0  0.10510132098E+03  0.22230416090E+03  0.19470268082E+04  0.19684436676E+04  0.15294330000E+03 0.  0.
<mgrwt>
<rscale>  0 0.56322370E+03</rscale>
<asrwt>0</asrwt>
<pdfrwt beam="1">  1        1 0.32831547E+00 0.70304739E+03</pdfrwt>
<pdfrwt beam="2">  1       -1 0.10946908E+00 0.70304739E+03</pdfrwt>
<totfact> 0.19907024E+00</totfact>
</mgrwt>
</event>
<event>
 4    1  0.1008211E-007  0.1231267E+04  0.7818608E-02  0.9127312E-01
          1   -1    0    0  501    0  0.00000000000E+00  0.00000000000E+00  0.39916752346E+04  0.39916752346E+04  0.50400000000E-02 0. -1.
         -1   -1    0    0    0  501 -0.00000000000E+00 -0.00000000000E+00 -0.37737280726E+03  0.37737280729E+03  0.50400000000E-02 0.  1.
    8880023    1    1    2    0    0 -0.66080722778E+02  0.10381911449E+04  0.11292333790E+04  0.16706842148E+04  0.65864270000E+03 0.  0.
    8880022    1    1    2    0    0  0.66080722778E+02 -0.10381911449E+04  0.24850690483E+04  0.26983638270E+04  0.15294330000E+03 0.  0.
<mgrwt>
<rscale>  0 0.11836241E+04</rscale>
<asrwt>0</asrwt>
<pdfrwt beam="1">  1        1 0.61410391E+00 0.12312667E+04</pdfrwt>
<pdfrwt beam="2">  1       -1 0.58057352E-01 0.12312667E+04</pdfrwt>
<totfact> 0.29735338E-01</totfact>
</mgrwt>
</event>
<event>
 4    1  0.2191773E-007  0.1042757E+04  0.7818608E-02  0.9327639E-01
          1   -1    0    0  501    0  0.00000000000E+00  0.00000000000E+00  0.28570280945E+04  0.28570280945E+04  0.50400000000E-02 0. -1.
         -1   -1    0    0    0  501 -0.00000000000E+00 -0.00000000000E+00 -0.18473399001E+04  0.18473399001E+04  0.50400000000E-02 0.  1.
    8880023    1    1    2    0    0  0.49073822684E+03  0.64242368326E+03 -0.16324627589E+04  0.19370795187E+04  0.65864270000E+03 0.  0.
    8880022    1    1    2    0    0 -0.49073822684E+03 -0.64242368326E+03  0.26421509533E+04  0.27672884760E+04  0.15294330000E+03 0.  0.
<mgrwt>
<rscale>  0 0.98277669E+03</rscale>
<asrwt>0</asrwt>
<pdfrwt beam="1">  1        1 0.43954278E+00 0.10427571E+04</pdfrwt>
<pdfrwt beam="2">  1       -1 0.28420614E+00 0.10427571E+04</pdfrwt>
<totfact> 0.32497507E-02</totfact>
</mgrwt>
</event>
<event>
 4    1  0.1008211E-007  0.1050993E+04  0.7818608E-02  0.9317689E-01
          1   -1    0    0  501    0  0.00000000000E+00  0.00000000000E+00  0.14391596419E+04  0.14391596420E+04  0.50400000000E-02 0. -1.
         -1   -1    0    0    0  501 -0.00000000000E+00 -0.00000000000E+00 -0.12560538761E+04  0.12560538761E+04  0.50400000000E-02 0.  1.
    8880023    1    1    2    0    0 -0.76238890535E+03 -0.29922940021E+03 -0.86155555647E+03  0.13589934732E+04  0.65864270000E+03 0.  0.
    8880022    1    1    2    0    0  0.76238890535E+03  0.29922940021E+03  0.10446613223E+04  0.13362200449E+04  0.15294330000E+03 0.  0.
<mgrwt>
<rscale>  0 0.99170544E+03</rscale>
<asrwt>0</asrwt>
<pdfrwt beam="1">  1        1 0.22140918E+00 0.10509925E+04</pdfrwt>
<pdfrwt beam="2">  1       -1 0.19323906E+00 0.10509925E+04</pdfrwt>
<totfact> 0.12082107E+00</totfact>
</mgrwt>
</event>
<event>
 4    1  0.1008211E-007  0.8388090E+03  0.7818608E-02  0.9632430E-01
          1   -1    0    0  501    0  0.00000000000E+00  0.00000000000E+00  0.49704096312E+03  0.49704096314E+03  0.50400000000E-02 0. -1.
         -1   -1    0    0    0  501 -0.00000000000E+00 -0.00000000000E+00 -0.21598009679E+04  0.21598009679E+04  0.50400000000E-02 0.  1.
    8880023    1    1    2    0    0  0.11942754609E+03  0.50549720244E+03 -0.18914218875E+04  0.20690764421E+04  0.65864270000E+03 0.  1.
    8880022    1    1    2    0    0 -0.11942754609E+03 -0.50549720244E+03  0.22866188269E+03  0.58776548899E+03  0.15294330000E+03 0.  0.
<mgrwt>
<rscale>  0 0.75186433E+03</rscale>
<asrwt>0</asrwt>
<pdfrwt beam="1">  1        1 0.76467842E-01 0.83880902E+03</pdfrwt>
<pdfrwt beam="2">  1       -1 0.33227707E+00 0.83880902E+03</pdfrwt>
<totfact> 0.94884408E-01</totfact>
</mgrwt>
</event>
<event>
 4    1  0.1008211E-007  0.9837459E+03  0.7818608E-02  0.9403139E-01
          1   -1    0    0  501    0  0.00000000000E+00  0.00000000000E+00  0.27679614300E+04  0.27679614300E+04  0.50400000000E-02 0. -1.
         -1   -1    0    0    0  501 -0.00000000000E+00 -0.00000000000E+00 -0.67390997066E+03  0.67390997068E+03  0.50400000000E-02 0.  1.
    8880023    1    1    2    0    0  0.67955404149E+03  0.26861139584E+03 -0.22198990716E+03  0.10084817809E+04  0.65864270000E+03 0.  1.
    8880022    1    1    2    0    0 -0.67955404149E+03 -0.26861139584E+03  0.23160413665E+04  0.24333896198E+04  0.15294330000E+03 0.  0.
<mgrwt>
<rscale>  0 0.91817820E+03</rscale>
<asrwt>0</asrwt>
<pdfrwt beam="1">  1        1 0.42584022E+00 0.98374589E+03</pdfrwt>
<pdfrwt beam="2">  1       -1 0.10367846E+00 0.98374589E+03</pdfrwt>
<totfact> 0.79034427E-01</totfact>
</mgrwt>
</event>
<event>
 4    1  0.1008211E-007  0.7138534E+03  0.7818608E-02  0.9943961E-01
         -1   -1    0    0    0  501 -0.00000000000E+00  0.00000000000E+00  0.23683114211E+04  0.23683114211E+04  0.50400000000E-02 0.  1.
          1   -1    0    0  501    0  0.00000000000E+00 -0.00000000000E+00 -0.60489076595E+03  0.60489076597E+03  0.50400000000E-02 0. -1.
    8880023    1    1    2    0    0 -0.12665090359E+03 -0.24440944995E+03  0.22684037419E+04  0.23780753086E+04  0.65864270000E+03 0.  0.
    8880022    1    1    2    0    0  0.12665090359E+03  0.24440944995E+03 -0.50498308676E+03  0.59512687852E+03  0.15294330000E+03 0.  0.
<mgrwt>
<rscale>  0 0.58177258E+03</rscale>
<asrwt>0</asrwt>
<pdfrwt beam="1">  1        1 0.93060118E-01 0.71385337E+03</pdfrwt>
<pdfrwt beam="2">  1       -1 0.36435560E+00 0.71385337E+03</pdfrwt>
<totfact> 0.45472258E-01</totfact>
</mgrwt>
</event>
<event>
 4    1  0.1008211E-007  0.8133320E+03  0.7818608E-02  0.9682678E-01
         -1   -1    0    0    0  501 -0.00000000000E+00  0.00000000000E+00  0.10667776789E+04  0.10667776790E+04  0.50400000000E-02 0.  1.
          1   -1    0    0  501    0  0.00000000000E+00 -0.00000000000E+00 -0.50954648178E+03  0.50954648181E+03  0.50400000000E-02 0. -1.
    8880023    1    1    2    0    0  0.29034255603E+03 -0.37868179437E+03  0.68030580937E+03  0.10603418797E+04  0.65864270000E+03 0.  0.
    8880022    1    1    2    0    0 -0.29034255603E+03  0.37868179437E+03 -0.12307461221E+03  0.51598228110E+03  0.15294330000E+03 0.  0.
<mgrwt>
<rscale>  0 0.72057575E+03</rscale>
<asrwt>0</asrwt>
<pdfrwt beam="1">  1        1 0.78391766E-01 0.81333198E+03</pdfrwt>
<pdfrwt beam="2">  1       -1 0.16411964E+00 0.81333198E+03</pdfrwt>
<totfact> 0.12003231E+01</totfact>
</mgrwt>
</event>
<event>
 4    1  0.1008211E-007  0.9502424E+03  0.7818608E-02  0.9449765E-01
         -1   -1    0    0    0  501 -0.00000000000E+00  0.00000000000E+00  0.90261370545E+03  0.90261370546E+03  0.50400000000E-02 0.  1.
          1   -1    0    0  501    0  0.00000000000E+00 -0.00000000000E+00 -0.20898274605E+04  0.20898274605E+04  0.50400000000E-02 0. -1.
    8880023    1    1    2    0    0  0.50336636708E+03 -0.46451333270E+03  0.56456879000E+03  0.11053046913E+04  0.65864270000E+03 0.  0.
    8880022    1    1    2    0    0 -0.50336636708E+03  0.46451333270E+03 -0.17517825450E+04  0.18871364746E+04  0.15294330000E+03 0.  0.
<mgrwt>
<rscale>  0 0.88090930E+03</rscale>
<asrwt>0</asrwt>
<pdfrwt beam="1">  1        1 0.32151191E+00 0.95024236E+03</pdfrwt>
<pdfrwt beam="2">  1       -1 0.13886365E+00 0.95024236E+03</pdfrwt>
<totfact> 0.11312308E+00</totfact>
</mgrwt>
</event>
<event>
 4    1  0.1008211E-007  0.1055081E+04  0.7818608E-02  0.9312799E-01
          1   -1    0    0  501    0  0.00000000000E+00  0.00000000000E+00  0.26466628201E+04  0.26466628201E+04  0.50400000000E-02 0. -1.
         -1   -1    0    0    0  501 -0.00000000000E+00 -0.00000000000E+00 -0.66815439611E+03  0.66815439613E+03  0.50400000000E-02 0.  1.
    8880023    1    1    2    0    0 -0.81980604833E+03 -0.85456392050E+02 -0.11342708995E+03  0.10611600552E+04  0.65864270000E+03 0.  0.
    8880022    1    1    2    0    0  0.81980604833E+03  0.85456392050E+02  0.20919355139E+04  0.22536571610E+04  0.15294330000E+03 0.  0.
<mgrwt>
<rscale>  0 0.99613078E+03</rscale>
<asrwt>0</asrwt>
<pdfrwt beam="1">  1        1 0.40717889E+00 0.10550805E+04</pdfrwt>
<pdfrwt beam="2">  1       -1 0.10279298E+00 0.10550805E+04</pdfrwt>
<totfact> 0.96883653E-01</totfact>
</mgrwt>
</event>
<event>
 4    1  0.1008211E-007  0.7667989E+03  0.7818608E-02  0.9787814E-01
         -1   -1    0    0    0  501 -0.00000000000E+00  0.00000000000E+00  0.58551604587E+03  0.58551604589E+03  0.50400000000E-02 0.  1.
          1   -1    0    0  501    0  0.00000000000E+00 -0.00000000000E+00 -0.96871485626E+03  0.96871485627E+03  0.50400000000E-02 0. -1.
    8880023    1    1    2    0    0 -0.28399609415E+03 -0.27113934924E+03  0.23863383577E+03  0.80307324824E+03  0.65864270000E+03 0.  0.
    8880022    1    1    2    0    0  0.28399609415E+03  0.27113934924E+03 -0.62183264616E+03  0.75115765392E+03  0.15294330000E+03 0.  0.
<mgrwt>
<rscale>  0 0.66020659E+03</rscale>
<asrwt>0</asrwt>
<pdfrwt beam="1">  1        1 0.14903305E+00 0.76679889E+03</pdfrwt>
<pdfrwt beam="2">  1       -1 0.90079392E-01 0.76679889E+03</pdfrwt>
<totfact> 0.19825961E+01</totfact>
</mgrwt>
</event>
<event>
 4    1  0.1008211E-007  0.7698042E+03  0.7818608E-02  0.9780356E-01
          1   -1    0    0  501    0  0.00000000000E+00  0.00000000000E+00  0.12006711880E+04  0.12006711880E+04  0.50400000000E-02 0. -1.
         -1   -1    0    0    0  501 -0.00000000000E+00 -0.00000000000E+00 -0.80968826578E+03  0.80968826580E+03  0.50400000000E-02 0.  1.
    8880023    1    1    2    0    0  0.32484895798E+03  0.23078439352E+03 -0.57065628125E+03  0.95825209595E+03  0.65864270000E+03 0.  1.
    8880022    1    1    2    0    0 -0.32484895798E+03 -0.23078439352E+03  0.96163920342E+03  0.10521073578E+04  0.15294330000E+03 0.  0.
<mgrwt>
<rscale>  0 0.66427479E+03</rscale>
<asrwt>0</asrwt>
<pdfrwt beam="1">  1        1 0.18471864E+00 0.76980419E+03</pdfrwt>
<pdfrwt beam="2">  1       -1 0.12456743E+00 0.76980419E+03</pdfrwt>
<totfact> 0.62294764E+00</totfact>
</mgrwt>
</event>
<event>
 4    1  0.1008211E-007  0.8372091E+03  0.7818608E-02  0.9635465E-01
          1   -1    0    0  501    0  0.00000000000E+00  0.00000000000E+00  0.57756383359E+03  0.57756383362E+03  0.50400000000E-02 0. -1.
         -1   -1    0    0    0  501 -0.00000000000E+00 -0.00000000000E+00 -0.16815510201E+04  0.16815510201E+04  0.50400000000E-02 0.  1.
    8880023    1    1    2    0    0 -0.89975229907E+02  0.50893344805E+03 -0.14096292449E+04  0.16395040747E+04  0.65864270000E+03 0.  1.
    8880022    1    1    2    0    0  0.89975229907E+02 -0.50893344805E+03  0.30564205845E+03  0.61961077900E+03  0.15294330000E+03 0.  0.
<mgrwt>
<rscale>  0 0.74992665E+03</rscale>
<asrwt>0</asrwt>
<pdfrwt beam="1">  1        1 0.88855975E-01 0.83720906E+03</pdfrwt>
<pdfrwt beam="2">  1       -1 0.25870016E+00 0.83720906E+03</pdfrwt>
<totfact> 0.22835518E+00</totfact>
</mgrwt>
</event>
<event>
 4    1  0.1008211E-007  0.1048262E+04  0.7818608E-02  0.9320973E-01
         -1   -1    0    0    0  501 -0.00000000000E+00  0.00000000000E+00  0.82662068283E+03  0.82662068284E+03  0.50400000000E-02 0.  1.
          1   -1    0    0  501    0  0.00000000000E+00 -0.00000000000E+00 -0.17557991009E+04  0.17557991009E+04  0.50400000000E-02 0. -1.
    8880023    1    1    2    0    0  0.78447532687E+03 -0.22280508196E+03  0.30817945838E+03  0.10926245594E+04  0.65864270000E+03 0.  0.
    8880022    1    1    2    0    0 -0.78447532687E+03  0.22280508196E+03 -0.12373578765E+04  0.14897952243E+04  0.15294330000E+03 0.  0.
<mgrwt>
<rscale>  0 0.98874743E+03</rscale>
<asrwt>0</asrwt>
<pdfrwt beam="1">  1        1 0.27012294E+00 0.10482623E+04</pdfrwt>
<pdfrwt beam="2">  1       -1 0.12717241E+00 0.10482623E+04</pdfrwt>
<totfact> 0.23435759E+00</totfact>
</mgrwt>
</event>
<event>
 4    1  0.1008211E-007  0.1370436E+04  0.7818608E-02  0.9007002E-01
         -1   -1    0    0    0  501 -0.00000000000E+00  0.00000000000E+00  0.16260778456E+04  0.16260778456E+04  0.50400000000E-02 0.  1.
          1   -1    0    0  501    0  0.00000000000E+00 -0.00000000000E+00 -0.11780241837E+04  0.11780241838E+04  0.50400000000E-02 0. -1.
    8880023    1    1    2    0    0  0.10718145493E+04  0.54359788564E+03  0.74067592173E+03  0.15577856453E+04  0.65864270000E+03 0.  0.
    8880022    1    1    2    0    0 -0.10718145493E+04 -0.54359788564E+03 -0.29262225987E+03  0.12463163841E+04  0.15294330000E+03 0.  0.
<mgrwt>
<rscale>  0 0.13288407E+04</rscale>
<asrwt>0</asrwt>
<pdfrwt beam="1">  1        1 0.18123449E+00 0.13704362E+04</pdfrwt>
<pdfrwt beam="2">  1       -1 0.25016582E+00 0.13704362E+04</pdfrwt>
<totfact> 0.74197570E-01</totfact>
</mgrwt>
</event>
<event>
 4    1  0.1008211E-007  0.1317615E+04  0.7818608E-02  0.9050496E-01
         -1   -1    0    0    0  501 -0.00000000000E+00  0.00000000000E+00  0.81208736743E+03  0.81208736745E+03  0.50400000000E-02 0.  1.
          1   -1    0    0  501    0  0.00000000000E+00 -0.00000000000E+00 -0.25665846982E+04  0.25665846982E+04  0.50400000000E-02 0. -1.
    8880023    1    1    2    0    0 -0.11027623155E+04 -0.29362140487E+03 -0.46001154553E+02  0.13184174477E+04  0.65864270000E+03 0.  1.
    8880022    1    1    2    0    0  0.11027623155E+04  0.29362140487E+03 -0.17084961762E+04  0.20602546180E+04  0.15294330000E+03 0.  0.
<mgrwt>
<rscale>  0 0.12739329E+04</rscale>
<asrwt>0</asrwt>
<pdfrwt beam="1">  1        1 0.39485918E+00 0.13176147E+04</pdfrwt>
<pdfrwt beam="2">  1       -1 0.12493652E+00 0.13176147E+04</pdfrwt>
<totfact> 0.66437968E-01</totfact>
</mgrwt>
</event>
<event>
 4    1  0.1008211E-007  0.9125367E+03  0.7818608E-02  0.9506199E-01
          1   -1    0    0  501    0  0.00000000000E+00  0.00000000000E+00  0.16893100029E+04  0.16893100029E+04  0.50400000000E-02 0. -1.
         -1   -1    0    0    0  501 -0.00000000000E+00 -0.00000000000E+00 -0.11147294516E+04  0.11147294516E+04  0.50400000000E-02 0.  1.
    8880023    1    1    2    0    0 -0.59889833452E+03 -0.20058354719E+03 -0.84443488691E+03  0.12432994245E+04  0.65864270000E+03 0.  0.
    8880022    1    1    2    0    0  0.59889833452E+03  0.20058354719E+03  0.14190154382E+04  0.15607400300E+04  0.15294330000E+03 0.  0.
<mgrwt>
<rscale>  0 0.83828361E+03</rscale>
<asrwt>0</asrwt>
<pdfrwt beam="1">  1        1 0.25989385E+00 0.91253667E+03</pdfrwt>
<pdfrwt beam="2">  1       -1 0.17149684E+00 0.91253667E+03</pdfrwt>
<totfact> 0.11882814E+00</totfact>
</mgrwt>
</event>
<event>
 4    1  0.1008211E-007  0.1453666E+04  0.7818608E-02  0.8943066E-01
          1   -1    0    0  501    0  0.00000000000E+00  0.00000000000E+00  0.13699335988E+04  0.13699335988E+04  0.50400000000E-02 0. -1.
         -1   -1    0    0    0  501 -0.00000000000E+00 -0.00000000000E+00 -0.17943969487E+04  0.17943969487E+04  0.50400000000E-02 0.  1.
    8880023    1    1    2    0    0  0.62441160286E+02 -0.12943866658E+04  0.53038296707E+03  0.15474017051E+04  0.65864270000E+03 0.  0.
    8880022    1    1    2    0    0 -0.62441160286E+02  0.12943866658E+04 -0.95484631695E+03  0.16169288423E+04  0.15294330000E+03 0.  0.
<mgrwt>
<rscale>  0 0.14149520E+04</rscale>
<asrwt>0</asrwt>
<pdfrwt beam="1">  1        1 0.21075902E+00 0.14536664E+04</pdfrwt>
<pdfrwt beam="2">  1       -1 0.27606107E+00 0.14536664E+04</pdfrwt>
<totfact> 0.36234096E-01</totfact>
</mgrwt>
</event>
<event>
 4    1  0.1008211E-007  0.1187300E+04  0.7818608E-02  0.9169568E-01
          1   -1    0    0  501    0  0.00000000000E+00  0.00000000000E+00  0.15880761593E+04  0.15880761593E+04  0.50400000000E-02 0. -1.
         -1   -1    0    0    0  501 -0.00000000000E+00 -0.00000000000E+00 -0.77721894827E+03  0.77721894829E+03  0.50400000000E-02 0.  1.
    8880023    1    1    2    0    0  0.89385430140E+03 -0.42058933543E+03  0.64756935727E+03  0.13524153134E+04  0.65864270000E+03 0.  1.
    8880022    1    1    2    0    0 -0.89385430140E+03  0.42058933543E+03  0.16328785373E+03  0.10128797942E+04  0.15294330000E+03 0.  0.
<mgrwt>
<rscale>  0 0.11373137E+04</rscale>
<asrwt>0</asrwt>
<pdfrwt beam="1">  1        1 0.24431941E+00 0.11872999E+04</pdfrwt>
<pdfrwt beam="2">  1       -1 0.11957215E+00 0.11872999E+04</pdfrwt>
<totfact> 0.34956470E+00</totfact>
</mgrwt>
</event>
<event>
 4    1  0.1852075E-007  0.6647720E+03  0.7818608E-02  0.1019725E+00
         -1   -1    0    0    0  501 -0.00000000000E+00  0.00000000000E+00  0.17759673041E+04  0.17759673041E+04  0.50400000000E-02 0.  1.
          1   -1    0    0  501    0  0.00000000000E+00 -0.00000000000E+00 -0.29008161149E+04  0.29008161149E+04  0.50400000000E-02 0. -1.
    8880023    1    1    2    0    0 -0.88831077086E+02  0.14854497280E+02  0.17108867225E+04  0.18354986243E+04  0.65864270000E+03 0.  1.
    8880022    1    1    2    0    0  0.88831077086E+02 -0.14854497280E+02 -0.28357355333E+04  0.28412847946E+04  0.15294330000E+03 0.  0.
<mgrwt>
<rscale>  0 0.47785815E+03</rscale>
<asrwt>0</asrwt>
<pdfrwt beam="1">  1        1 0.44627940E+00 0.66477201E+03</pdfrwt>
<pdfrwt beam="2">  1       -1 0.27322574E+00 0.66477201E+03</pdfrwt>
<totfact> 0.39481638E-02</totfact>
</mgrwt>
</event>
<event>
 4    1  0.1008211E-007  0.8388753E+03  0.7818608E-02  0.9632305E-01
         -1   -1    0    0    0  501 -0.00000000000E+00  0.00000000000E+00  0.62038594785E+03  0.62038594787E+03  0.50400000000E-02 0.  1.
          1   -1    0    0  501    0  0.00000000000E+00 -0.00000000000E+00 -0.14196094945E+04  0.14196094946E+04  0.50400000000E-02 0. -1.
    8880023    1    1    2    0    0 -0.50260086783E+03  0.13150651650E+03  0.23619994331E+03  0.87149424307E+03  0.65864270000E+03 0.  0.
    8880022    1    1    2    0    0  0.50260086783E+03 -0.13150651650E+03 -0.10354234900E+04  0.11685011994E+04  0.15294330000E+03 0.  0.
<mgrwt>
<rscale>  0 0.75194456E+03</rscale>
<asrwt>0</asrwt>
<pdfrwt beam="1">  1        1 0.21840146E+00 0.83887532E+03</pdfrwt>
<pdfrwt beam="2">  1       -1 0.95443993E-01 0.83887532E+03</pdfrwt>
<totfact> 0.80850658E+00</totfact>
</mgrwt>
</event>
<event>
 4    1  0.1008211E-007  0.7248162E+03  0.7818608E-02  0.9906614E-01
          1   -1    0    0  501    0  0.00000000000E+00  0.00000000000E+00  0.11574579349E+04  0.11574579349E+04  0.50400000000E-02 0. -1.
         -1   -1    0    0    0  501 -0.00000000000E+00 -0.00000000000E+00 -0.26227171106E+03  0.26227171111E+03  0.50400000000E-02 0.  1.
    8880023    1    1    2    0    0  0.28288295489E+03 -0.10735705972E+03  0.42554654566E+03  0.84050483236E+03  0.65864270000E+03 0. -1.
    8880022    1    1    2    0    0 -0.28288295489E+03  0.10735705972E+03  0.46963967821E+03  0.57922481370E+03  0.15294330000E+03 0.  0.
<mgrwt>
<rscale>  0 0.59941802E+03</rscale>
<asrwt>0</asrwt>
<pdfrwt beam="1">  1        1 0.17807045E+00 0.72481619E+03</pdfrwt>
<pdfrwt beam="2">  1       -1 0.40349494E-01 0.72481619E+03</pdfrwt>
<totfact> 0.70575019E+01</totfact>
</mgrwt>
</event>
<event>
 4    1  0.1008211E-007  0.6646860E+03  0.7818608E-02  0.1019798E+00
         -1   -1    0    0    0  501 -0.00000000000E+00  0.00000000000E+00  0.25891461757E+03  0.25891461762E+03  0.50400000000E-02 0.  1.
          1   -1    0    0  501    0  0.00000000000E+00 -0.00000000000E+00 -0.23773895822E+04  0.23773895822E+04  0.50400000000E-02 0. -1.
    8880023    1    1    2    0    0  0.89362441087E+02 -0.34053879618E+01 -0.17847372944E+03  0.68822984599E+03  0.65864270000E+03 0.  1.
    8880022    1    1    2    0    0 -0.89362441087E+02  0.34053879618E+01 -0.19400012352E+04  0.19480743539E+04  0.15294330000E+03 0.  0.
<mgrwt>
<rscale>  0 0.47759458E+03</rscale>
<asrwt>0</asrwt>
<pdfrwt beam="1">  1        1 0.36575223E+00 0.66468598E+03</pdfrwt>
<pdfrwt beam="2">  1       -1 0.39833020E-01 0.66468598E+03</pdfrwt>
<totfact> 0.10780704E+01</totfact>
</mgrwt>
</event>
<event>
 4    1  0.1008211E-007  0.6653045E+03  0.7818608E-02  0.1019279E+00
         -1   -1    0    0    0  501 -0.00000000000E+00  0.00000000000E+00  0.17845948838E+03  0.17845948845E+03  0.50400000000E-02 0.  1.
          1   -1    0    0  501    0  0.00000000000E+00 -0.00000000000E+00 -0.16725679840E+04  0.16725679840E+04  0.50400000000E-02 0. -1.
    8880023    1    1    2    0    0 -0.88936307736E+02 -0.30169690616E+02 -0.47806294312E+03  0.81925225719E+03  0.65864270000E+03 0.  1.
    8880022    1    1    2    0    0  0.88936307736E+02  0.30169690616E+02 -0.10160455525E+04  0.10317752152E+04  0.15294330000E+03 0.  0.
<mgrwt>
<rscale>  0 0.47947588E+03</rscale>
<asrwt>0</asrwt>
<pdfrwt beam="1">  1        1 0.25731814E+00 0.66530450E+03</pdfrwt>
<pdfrwt beam="2">  1       -1 0.27455307E-01 0.66530450E+03</pdfrwt>
<totfact> 0.61533344E+01</totfact>
</mgrwt>
</event>
<event>
 4    1  0.1008211E-007  0.1204772E+04  0.7818608E-02  0.9152498E-01
         -1   -1    0    0    0  501 -0.00000000000E+00  0.00000000000E+00  0.82676521702E+03  0.82676521703E+03  0.50400000000E-02 0.  1.
          1   -1    0    0  501    0  0.00000000000E+00 -0.00000000000E+00 -0.17535639685E+04  0.17535639685E+04  0.50400000000E-02 0. -1.
    8880023    1    1    2    0    0 -0.92067819244E+03  0.41233082791E+03 -0.98813192053E+03  0.15581655703E+04  0.65864270000E+03 0.  0.
    8880022    1    1    2    0    0  0.92067819244E+03 -0.41233082791E+03  0.61333169084E+02  0.10221636152E+04  0.15294330000E+03 0.  0.
<mgrwt>
<rscale>  0 0.11557474E+04</rscale>
<asrwt>0</asrwt>
<pdfrwt beam="1">  1        1 0.26977907E+00 0.12047719E+04</pdfrwt>
<pdfrwt beam="2">  1       -1 0.12719465E+00 0.12047719E+04</pdfrwt>
<totfact> 0.23062834E+00</totfact>
</mgrwt>
</event>
<event>
 4    1  0.1008211E-007  0.1128699E+04  0.7818608E-02  0.9229757E-01
          1   -1    0    0  501    0  0.00000000000E+00  0.00000000000E+00  0.12674772682E+04  0.12674772682E+04  0.50400000000E-02 0. -1.
         -1   -1    0    0    0  501 -0.00000000000E+00 -0.00000000000E+00 -0.16311367856E+04  0.16311367856E+04  0.50400000000E-02 0.  1.
    8880023    1    1    2    0    0  0.12855873339E+03  0.90753679295E+03 -0.12007160861E+04  0.16479319477E+04  0.65864270000E+03 0.  0.
    8880022    1    1    2    0    0 -0.12855873339E+03 -0.90753679295E+03  0.83705656865E+03  0.12506821061E+04  0.15294330000E+03 0.  0.
<mgrwt>
<rscale>  0 0.10751497E+04</rscale>
<asrwt>0</asrwt>
<pdfrwt beam="1">  1        1 0.19499650E+00 0.11286986E+04</pdfrwt>
<pdfrwt beam="2">  1       -1 0.25094412E+00 0.11286986E+04</pdfrwt>
<totfact> 0.64994508E-01</totfact>
</mgrwt>
</event>
<event>
 4    1  0.1008211E-007  0.8710348E+03  0.7818608E-02  0.9574228E-01
          1   -1    0    0  501    0  0.00000000000E+00  0.00000000000E+00  0.94865087942E+03  0.94865087944E+03  0.50400000000E-02 0. -1.
         -1   -1    0    0    0  501 -0.00000000000E+00 -0.00000000000E+00 -0.13321357846E+04  0.13321357846E+04  0.50400000000E-02 0.  1.
    8880023    1    1    2    0    0  0.50311111174E+03  0.26790036896E+03 -0.10672377679E+04  0.13775696200E+04  0.65864270000E+03 0.  1.
    8880022    1    1    2    0    0 -0.50311111174E+03 -0.26790036896E+03  0.68375286270E+03  0.90321704407E+03  0.15294330000E+03 0.  0.
<mgrwt>
<rscale>  0 0.79025667E+03</rscale>
<asrwt>0</asrwt>
<pdfrwt beam="1">  1        1 0.14594629E+00 0.87103479E+03</pdfrwt>
<pdfrwt beam="2">  1       -1 0.20494397E+00 0.87103479E+03</pdfrwt>
<totfact> 0.23642957E+00</totfact>
</mgrwt>
</event>
<event>
 4    1  0.1008211E-007  0.1212558E+04  0.7818608E-02  0.9145010E-01
         -1   -1    0    0    0  501 -0.00000000000E+00  0.00000000000E+00  0.80179516258E+03  0.80179516259E+03  0.50400000000E-02 0.  1.
          1   -1    0    0  501    0  0.00000000000E+00 -0.00000000000E+00 -0.18572214865E+04  0.18572214865E+04  0.50400000000E-02 0. -1.
    8880023    1    1    2    0    0 -0.42878616578E+03  0.92337970309E+03 -0.40328780040E+02  0.12132288609E+04  0.65864270000E+03 0.  1.
    8880022    1    1    2    0    0  0.42878616578E+03 -0.92337970309E+03 -0.10150975439E+04  0.14457877883E+04  0.15294330000E+03 0.  0.
<mgrwt>
<rscale>  0 0.11639493E+04</rscale>
<asrwt>0</asrwt>
<pdfrwt beam="1">  1        1 0.28572638E+00 0.12125584E+04</pdfrwt>
<pdfrwt beam="2">  1       -1 0.12335310E+00 0.12125584E+04</pdfrwt>
<totfact> 0.21161850E+00</totfact>
</mgrwt>
</event>
<event>
 4    1  0.1008211E-007  0.1581502E+04  0.7818608E-02  0.8854130E-01
          1   -1    0    0  501    0  0.00000000000E+00  0.00000000000E+00  0.31415427953E+04  0.31415427953E+04  0.50400000000E-02 0. -1.
         -1   -1    0    0    0  501 -0.00000000000E+00 -0.00000000000E+00 -0.84580317302E+03  0.84580317304E+03  0.50400000000E-02 0.  1.
    8880023    1    1    2    0    0 -0.13077813266E+04  0.59753485293E+03  0.45313023463E+03  0.16451374151E+04  0.65864270000E+03 0.  0.
    8880022    1    1    2    0    0  0.13077813266E+04 -0.59753485293E+03  0.18426093877E+04  0.23422085533E+04  0.15294330000E+03 0.  0.
<mgrwt>
<rscale>  0 0.15464636E+04</rscale>
<asrwt>0</asrwt>
<pdfrwt beam="1">  1        1 0.48331428E+00 0.15815025E+04</pdfrwt>
<pdfrwt beam="2">  1       -1 0.13012357E+00 0.15815025E+04</pdfrwt>
<totfact> 0.22503242E-01</totfact>
</mgrwt>
</event>
<event>
 4    1  0.1008211E-007  0.9825375E+03  0.7818608E-02  0.9404769E-01
          1   -1    0    0  501    0  0.00000000000E+00  0.00000000000E+00  0.13897402548E+04  0.13897402548E+04  0.50400000000E-02 0. -1.
         -1   -1    0    0    0  501 -0.00000000000E+00 -0.00000000000E+00 -0.18424086313E+04  0.18424086314E+04  0.50400000000E-02 0.  1.
    8880023    1    1    2    0    0  0.30107067302E+03  0.66402278042E+03 -0.15920583535E+04  0.18708366605E+04  0.65864270000E+03 0.  1.
    8880022    1    1    2    0    0 -0.30107067302E+03 -0.66402278042E+03  0.11393899770E+04  0.13613122256E+04  0.15294330000E+03 0.  0.
<mgrwt>
<rscale>  0 0.91684246E+03</rscale>
<asrwt>0</asrwt>
<pdfrwt beam="1">  1        1 0.21380619E+00 0.98253754E+03</pdfrwt>
<pdfrwt beam="2">  1       -1 0.28344748E+00 0.98253754E+03</pdfrwt>
<totfact> 0.33593417E-01</totfact>
</mgrwt>
</event>
<event>
 4    1  0.1008211E-007  0.1072580E+04  0.7818608E-02  0.9292217E-01
         -1   -1    0    0    0  501 -0.00000000000E+00  0.00000000000E+00  0.14964374565E+04  0.14964374565E+04  0.50400000000E-02 0.  1.
          1   -1    0    0  501    0  0.00000000000E+00 -0.00000000000E+00 -0.86439058751E+03  0.86439058752E+03  0.50400000000E-02 0. -1.
    8880023    1    1    2    0    0 -0.57248199631E+03  0.62360475940E+03  0.96072451726E+03  0.14399376154E+04  0.65864270000E+03 0.  1.
    8880022    1    1    2    0    0  0.57248199631E+03 -0.62360475940E+03 -0.32867764825E+03  0.92089042861E+03  0.15294330000E+03 0.  0.
<mgrwt>
<rscale>  0 0.10150259E+04</rscale>
<asrwt>0</asrwt>
<pdfrwt beam="1">  1        1 0.13298317E+00 0.10725804E+04</pdfrwt>
<pdfrwt beam="2">  1       -1 0.23022114E+00 0.10725804E+04</pdfrwt>
<totfact> 0.18267323E+00</totfact>
</mgrwt>
</event>
<event>
 4    1  0.1008211E-007  0.1301122E+04  0.7818608E-02  0.9064591E-01
          1   -1    0    0  501    0  0.00000000000E+00  0.00000000000E+00  0.11579119006E+04  0.11579119006E+04  0.50400000000E-02 0. -1.
         -1   -1    0    0    0  501 -0.00000000000E+00 -0.00000000000E+00 -0.13398167877E+04  0.13398167877E+04  0.50400000000E-02 0.  1.
    8880023    1    1    2    0    0  0.10289694903E+04 -0.44758372845E+03 -0.36312787437E+03  0.13508447229E+04  0.65864270000E+03 0.  0.
    8880022    1    1    2    0    0 -0.10289694903E+04  0.44758372845E+03  0.18122298730E+03  0.11468839654E+04  0.15294330000E+03 0.  0.
<mgrwt>
<rscale>  0 0.12567412E+04</rscale>
<asrwt>0</asrwt>
<pdfrwt beam="1">  1        1 0.17814029E+00 0.13011224E+04</pdfrwt>
<pdfrwt beam="2">  1       -1 0.20612566E+00 0.13011224E+04</pdfrwt>
<totfact> 0.15199936E+00</totfact>
</mgrwt>
</event>
<event>
 4    1  0.1008211E-007  0.1114055E+04  0.7818608E-02  0.9245567E-01
          1   -1    0    0  501    0  0.00000000000E+00  0.00000000000E+00  0.15180157460E+04  0.15180157460E+04  0.50400000000E-02 0. -1.
         -1   -1    0    0    0  501 -0.00000000000E+00 -0.00000000000E+00 -0.10253925697E+04  0.10253925697E+04  0.50400000000E-02 0.  1.
    8880023    1    1    2    0    0 -0.48604257014E+03  0.75569260807E+03 -0.47770397066E+03  0.12121551005E+04  0.65864270000E+03 0.  0.
    8880022    1    1    2    0    0  0.48604257014E+03 -0.75569260807E+03  0.97032714696E+03  0.13312532152E+04  0.15294330000E+03 0.  0.
<mgrwt>
<rscale>  0 0.10595234E+04</rscale>
<asrwt>0</asrwt>
<pdfrwt beam="1">  1        1 0.23354088E+00 0.11140552E+04</pdfrwt>
<pdfrwt beam="2">  1       -1 0.15775270E+00 0.11140552E+04</pdfrwt>
<totfact> 0.19144885E+00</totfact>
</mgrwt>
</event>
<event>
 4    1  0.1008211E-007  0.1066023E+04  0.7818608E-02  0.9299863E-01
          1   -1    0    0  501    0  0.00000000000E+00  0.00000000000E+00  0.15490273824E+04  0.15490273824E+04  0.50400000000E-02 0. -1.
         -1   -1    0    0    0  501 -0.00000000000E+00 -0.00000000000E+00 -0.98173987291E+03  0.98173987293E+03  0.50400000000E-02 0.  1.
    8880023    1    1    2    0    0  0.25463666101E+03  0.79859577733E+03 -0.48969872008E+03  0.11731198095E+04  0.65864270000E+03 0.  0.
    8880022    1    1    2    0    0 -0.25463666101E+03 -0.79859577733E+03  0.10569862296E+04  0.13576474458E+04  0.15294330000E+03 0.  0.
<mgrwt>
<rscale>  0 0.10079548E+04</rscale>
<asrwt>0</asrwt>
<pdfrwt beam="1">  1        1 0.23831190E+00 0.10660231E+04</pdfrwt>
<pdfrwt beam="2">  1       -1 0.15103690E+00 0.10660231E+04</pdfrwt>
<totfact> 0.20658981E+00</totfact>
</mgrwt>
</event>
<event>
 4    1  0.1008211E-007  0.9542584E+03  0.7818608E-02  0.9444013E-01
         -1   -1    0    0    0  501 -0.00000000000E+00  0.00000000000E+00  0.15303486174E+04  0.15303486174E+04  0.50400000000E-02 0.  1.
          1   -1    0    0  501    0  0.00000000000E+00 -0.00000000000E+00 -0.12295378208E+04  0.12295378208E+04  0.50400000000E-02 0. -1.
    8880023    1    1    2    0    0 -0.48045684108E+03 -0.49594368755E+03  0.12522362977E+04  0.15743903166E+04  0.65864270000E+03 0.  1.
    8880022    1    1    2    0    0  0.48045684108E+03  0.49594368755E+03 -0.95142550112E+03  0.11854961217E+04  0.15294330000E+03 0.  0.
<mgrwt>
<rscale>  0 0.88540391E+03</rscale>
<asrwt>0</asrwt>
<pdfrwt beam="1">  1        1 0.18915966E+00 0.95425842E+03</pdfrwt>
<pdfrwt beam="2">  1       -1 0.23543825E+00 0.95425842E+03</pdfrwt>
<totfact> 0.89674377E-01</totfact>
</mgrwt>
</event>
<event>
 4    1  0.1008211E-007  0.9169473E+03  0.7818608E-02  0.9499356E-01
          1   -1    0    0  501    0  0.00000000000E+00  0.00000000000E+00  0.53105366793E+03  0.53105366795E+03  0.50400000000E-02 0. -1.
         -1   -1    0    0    0  501 -0.00000000000E+00 -0.00000000000E+00 -0.20576264648E+04  0.20576264648E+04  0.50400000000E-02 0.  1.
    8880023    1    1    2    0    0 -0.36008490650E+03  0.52661284520E+03 -0.16809058763E+04  0.19147420192E+04  0.65864270000E+03 0.  1.
    8880022    1    1    2    0    0  0.36008490650E+03 -0.52661284520E+03  0.15433307940E+03  0.67393811365E+03  0.15294330000E+03 0.  0.
<mgrwt>
<rscale>  0 0.84331347E+03</rscale>
<asrwt>0</asrwt>
<pdfrwt beam="1">  1        1 0.81700565E-01 0.91694735E+03</pdfrwt>
<pdfrwt beam="2">  1       -1 0.31655791E+00 0.91694735E+03</pdfrwt>
<totfact> 0.10804650E+00</totfact>
</mgrwt>
</event>
<event>
 4    1  0.1008211E-007  0.1079254E+04  0.7818608E-02  0.9284513E-01
          1   -1    0    0  501    0  0.00000000000E+00  0.00000000000E+00  0.64625356727E+03  0.64625356729E+03  0.50400000000E-02 0. -1.
         -1   -1    0    0    0  501 -0.00000000000E+00 -0.00000000000E+00 -0.15354931918E+04  0.15354931918E+04  0.50400000000E-02 0.  1.
    8880023    1    1    2    0    0  0.50454719971E+03 -0.69022574774E+03 -0.26259698763E+03  0.11107415738E+04  0.65864270000E+03 0. -1.
    8880022    1    1    2    0    0 -0.50454719971E+03  0.69022574774E+03 -0.62664263690E+03  0.10710051853E+04  0.15294330000E+03 0.  0.
<mgrwt>
<rscale>  0 0.10222119E+04</rscale>
<asrwt>0</asrwt>
<pdfrwt beam="1">  1        1 0.99423626E-01 0.10792542E+04</pdfrwt>
<pdfrwt beam="2">  1       -1 0.23622972E+00 0.10792542E+04</pdfrwt>
<totfact> 0.26308441E+00</totfact>
</mgrwt>
</event>
<event>
 4    1  0.1008211E-007  0.8284379E+03  0.7818608E-02  0.9652379E-01
         -1   -1    0    0    0  501 -0.00000000000E+00  0.00000000000E+00  0.10291423080E+04  0.10291423080E+04  0.50400000000E-02 0.  1.
          1   -1    0    0  501    0  0.00000000000E+00 -0.00000000000E+00 -0.12383829881E+04  0.12383829881E+04  0.50400000000E-02 0. -1.
    8880023    1    1    2    0    0 -0.47538422034E+03 -0.16281589219E+03  0.78613280566E+03  0.11420657451E+04  0.65864270000E+03 0.  1.
    8880022    1    1    2    0    0  0.47538422034E+03  0.16281589219E+03 -0.99537348578E+03  0.11254595510E+04  0.15294330000E+03 0.  0.
<mgrwt>
<rscale>  0 0.73924285E+03</rscale>
<asrwt>0</asrwt>
<pdfrwt beam="1">  1        1 0.19052046E+00 0.82843791E+03</pdfrwt>
<pdfrwt beam="2">  1       -1 0.15832959E+00 0.82843791E+03</pdfrwt>
<totfact> 0.31000606E+00</totfact>
</mgrwt>
</event>
<event>
 4    1  0.1008211E-007  0.1128929E+04  0.7818608E-02  0.9229510E-01
         -1   -1    0    0    0  501 -0.00000000000E+00  0.00000000000E+00  0.98601339122E+03  0.98601339123E+03  0.50400000000E-02 0.  1.
          1   -1    0    0  501    0  0.00000000000E+00 -0.00000000000E+00 -0.24451095521E+04  0.24451095521E+04  0.50400000000E-02 0. -1.
    8880023    1    1    2    0    0 -0.53831930322E+03 -0.74221541915E+03 -0.20424520266E+04  0.23336863303E+04  0.65864270000E+03 0.  0.
    8880022    1    1    2    0    0  0.53831930322E+03  0.74221541915E+03  0.58335586575E+03  0.10974366131E+04  0.15294330000E+03 0.  0.
<mgrwt>
<rscale>  0 0.10753956E+04</rscale>
<asrwt>0</asrwt>
<pdfrwt beam="1">  1        1 0.37617070E+00 0.11289294E+04</pdfrwt>
<pdfrwt beam="2">  1       -1 0.15169437E+00 0.11289294E+04</pdfrwt>
<totfact> 0.49879466E-01</totfact>
</mgrwt>
</event>
<event>
 4    1  0.1008211E-007  0.9184472E+03  0.7818608E-02  0.9497044E-01
          1   -1    0    0  501    0  0.00000000000E+00  0.00000000000E+00  0.13375977646E+04  0.13375977646E+04  0.50400000000E-02 0. -1.
         -1   -1    0    0    0  501 -0.00000000000E+00 -0.00000000000E+00 -0.75462832007E+03  0.75462832009E+03  0.50400000000E-02 0.  1.
    8880023    1    1    2    0    0  0.63626313136E+03 -0.70031205619E+02 -0.32199809342E+03  0.97325645157E+03  0.65864270000E+03 0.  0.
    8880022    1    1    2    0    0 -0.63626313136E+03  0.70031205619E+02  0.90496753791E+03  0.11189696331E+04  0.15294330000E+03 0.  0.
<mgrwt>
<rscale>  0 0.84502108E+03</rscale>
<asrwt>0</asrwt>
<pdfrwt beam="1">  1        1 0.20578427E+00 0.91844725E+03</pdfrwt>
<pdfrwt beam="2">  1       -1 0.11609667E+00 0.91844725E+03</pdfrwt>
<totfact> 0.57868980E+00</totfact>
</mgrwt>
</event>
<event>
 4    1  0.1008211E-007  0.1230256E+04  0.7818608E-02  0.9128258E-01
         -1   -1    0    0    0  501 -0.00000000000E+00  0.00000000000E+00  0.92984490741E+03  0.92984490743E+03  0.50400000000E-02 0.  1.
          1   -1    0    0  501    0  0.00000000000E+00 -0.00000000000E+00 -0.15944194771E+04  0.15944194771E+04  0.50400000000E-02 0. -1.
    8880023    1    1    2    0    0 -0.80468839505E+03  0.65741556891E+03  0.86134090241E+02  0.12332671775E+04  0.65864270000E+03 0.  0.
    8880022    1    1    2    0    0  0.80468839505E+03 -0.65741556891E+03 -0.75070865989E+03  0.12909972070E+04  0.15294330000E+03 0.  0.
<mgrwt>
<rscale>  0 0.11825619E+04</rscale>
<asrwt>0</asrwt>
<pdfrwt beam="1">  1        1 0.24529531E+00 0.12302556E+04</pdfrwt>
<pdfrwt beam="2">  1       -1 0.14305306E+00 0.12302556E+04</pdfrwt>
<totfact> 0.21808549E+00</totfact>
</mgrwt>
</event>
<event>
 4    1  0.1008211E-007  0.6966848E+03  0.7818608E-02  0.1001124E+00
          1   -1    0    0  501    0  0.00000000000E+00  0.00000000000E+00  0.23168866632E+04  0.23168866632E+04  0.50400000000E-02 0. -1.
         -1   -1    0    0    0  501 -0.00000000000E+00 -0.00000000000E+00 -0.36347827711E+03  0.36347827715E+03  0.50400000000E-02 0.  1.
    8880023    1    1    2    0    0 -0.17346277780E+03  0.14652711360E+03 -0.11198095489E+02  0.69677480861E+03  0.65864270000E+03 0.  0.
    8880022    1    1    2    0    0  0.17346277780E+03 -0.14652711360E+03  0.19646064815E+04  0.19835901317E+04  0.15294330000E+03 0.  0.
<mgrwt>
<rscale>  0 0.55160040E+03</rscale>
<asrwt>0</asrwt>
<pdfrwt beam="1">  1        1 0.35644408E+00 0.69668482E+03</pdfrwt>
<pdfrwt beam="2">  1       -1 0.55919738E-01 0.69668482E+03</pdfrwt>
<totfact> 0.62392130E+00</totfact>
</mgrwt>
</event>
<event>
 4    1  0.1008211E-007  0.9518505E+03  0.7818608E-02  0.9447457E-01
         -1   -1    0    0    0  501 -0.00000000000E+00  0.00000000000E+00  0.16645627227E+04  0.16645627227E+04  0.50400000000E-02 0.  1.
          1   -1    0    0  501    0  0.00000000000E+00 -0.00000000000E+00 -0.74650895253E+03  0.74650895255E+03  0.50400000000E-02 0. -1.
    8880023    1    1    2    0    0 -0.28098826708E+03 -0.62710032599E+03  0.12991646720E+04  0.16105428515E+04  0.65864270000E+03 0.  0.
    8880022    1    1    2    0    0  0.28098826708E+03  0.62710032599E+03 -0.38111090190E+03  0.80052882375E+03  0.15294330000E+03 0.  0.
<mgrwt>
<rscale>  0 0.88271006E+03</rscale>
<asrwt>0</asrwt>
<pdfrwt beam="1">  1        1 0.11484753E+00 0.95185053E+03</pdfrwt>
<pdfrwt beam="2">  1       -1 0.25608657E+00 0.95185053E+03</pdfrwt>
<totfact> 0.15937576E+00</totfact>
</mgrwt>
</event>
<event>
 4    1  0.1008211E-007  0.1687743E+04  0.7818608E-02  0.8787314E-01
         -1   -1    0    0    0  501 -0.00000000000E+00  0.00000000000E+00  0.18728402012E+04  0.18728402012E+04  0.50400000000E-02 0.  1.
          1   -1    0    0  501    0  0.00000000000E+00 -0.00000000000E+00 -0.18681223862E+04  0.18681223863E+04  0.50400000000E-02 0. -1.
    8880023    1    1    2    0    0  0.73351229759E+03 -0.13698996894E+04  0.92894777366E+03  0.19265045088E+04  0.65864270000E+03 0.  0.
    8880022    1    1    2    0    0 -0.73351229759E+03  0.13698996894E+04 -0.92422995870E+03  0.18144580787E+04  0.15294330000E+03 0.  0.
<mgrwt>
<rscale>  0 0.16552370E+04</rscale>
<asrwt>0</asrwt>
<pdfrwt beam="1">  1        1 0.28740344E+00 0.16877428E+04</pdfrwt>
<pdfrwt beam="2">  1       -1 0.28812926E+00 0.16877428E+04</pdfrwt>
<totfact> 0.13327909E-01</totfact>
</mgrwt>
</event>
<event>
 4    1  0.1008211E-007  0.1226613E+04  0.7818608E-02  0.9131677E-01
         -1   -1    0    0    0  501 -0.00000000000E+00  0.00000000000E+00  0.11538552636E+04  0.11538552636E+04  0.50400000000E-02 0.  1.
          1   -1    0    0  501    0  0.00000000000E+00 -0.00000000000E+00 -0.13368726106E+04  0.13368726106E+04  0.50400000000E-02 0. -1.
    8880023    1    1    2    0    0 -0.10008240331E+04 -0.26290780541E+03 -0.59896294073E+03  0.13650406844E+04  0.65864270000E+03 0.  0.
    8880022    1    1    2    0    0  0.10008240331E+04  0.26290780541E+03  0.41594559373E+03  0.11256871898E+04  0.15294330000E+03 0.  0.
<mgrwt>
<rscale>  0 0.11787340E+04</rscale>
<asrwt>0</asrwt>
<pdfrwt beam="1">  1        1 0.20567271E+00 0.12266130E+04</pdfrwt>
<pdfrwt beam="2">  1       -1 0.17751619E+00 0.12266130E+04</pdfrwt>
<totfact> 0.18043642E+00</totfact>
</mgrwt>
</event>
<event>
 4    1  0.1008211E-007  0.1060889E+04  0.7818608E-02  0.9305904E-01
         -1   -1    0    0    0  501 -0.00000000000E+00  0.00000000000E+00  0.63407398361E+03  0.63407398363E+03  0.50400000000E-02 0.  1.
          1   -1    0    0  501    0  0.00000000000E+00 -0.00000000000E+00 -0.16608539068E+04  0.16608539068E+04  0.50400000000E-02 0. -1.
    8880023    1    1    2    0    0  0.51669369859E+03  0.65169279324E+03 -0.14083430341E+03  0.10701964223E+04  0.65864270000E+03 0.  0.
    8880022    1    1    2    0    0 -0.51669369859E+03 -0.65169279324E+03 -0.88594561973E+03  0.12247314681E+04  0.15294330000E+03 0.  0.
<mgrwt>
<rscale>  0 0.10024112E+04</rscale>
<asrwt>0</asrwt>
<pdfrwt beam="1">  1        1 0.25551598E+00 0.10608893E+04</pdfrwt>
<pdfrwt beam="2">  1       -1 0.97549844E-01 0.10608893E+04</pdfrwt>
<totfact> 0.51114512E+00</totfact>
</mgrwt>
</event>
<event>
 4    1  0.1008211E-007  0.1122775E+04  0.7818608E-02  0.9236113E-01
          1   -1    0    0  501    0  0.00000000000E+00  0.00000000000E+00  0.42544138336E+04  0.42544138336E+04  0.50400000000E-02 0. -1.
         -1   -1    0    0    0  501 -0.00000000000E+00 -0.00000000000E+00 -0.37357771814E+03  0.37357771817E+03  0.50400000000E-02 0.  1.
    8880023    1    1    2    0    0 -0.51277530497E+03 -0.75091624444E+03  0.71617819660E+03  0.13317413920E+04  0.65864270000E+03 0.  0.
    8880022    1    1    2    0    0  0.51277530497E+03  0.75091624444E+03  0.31646579188E+04  0.32962501598E+04  0.15294330000E+03 0.  0.
<mgrwt>
<rscale>  0 0.10688335E+04</rscale>
<asrwt>0</asrwt>
<pdfrwt beam="1">  1        1 0.65452515E+00 0.11227751E+04</pdfrwt>
<pdfrwt beam="2">  1       -1 0.57473500E-01 0.11227751E+04</pdfrwt>
<totfact> 0.17918411E-01</totfact>
</mgrwt>
</event>
<event>
 4    1  0.1008211E-007  0.1085185E+04  0.7818608E-02  0.9277733E-01
         -1   -1    0    0    0  501 -0.00000000000E+00  0.00000000000E+00  0.10068959653E+04  0.10068959653E+04  0.50400000000E-02 0.  1.
          1   -1    0    0  501    0  0.00000000000E+00 -0.00000000000E+00 -0.22569354296E+04  0.22569354296E+04  0.50400000000E-02 0. -1.
    8880023    1    1    2    0    0  0.77392149839E+03 -0.38060601839E+03  0.58328771417E+03  0.12320106293E+04  0.65864270000E+03 0.  1.
    8880022    1    1    2    0    0 -0.77392149839E+03  0.38060601839E+03 -0.18333271785E+04  0.20318207656E+04  0.15294330000E+03 0.  0.
<mgrwt>
<rscale>  0 0.10285888E+04</rscale>
<asrwt>0</asrwt>
<pdfrwt beam="1">  1        1 0.34722084E+00 0.10851846E+04</pdfrwt>
<pdfrwt beam="2">  1       -1 0.15490707E+00 0.10851846E+04</pdfrwt>
<totfact> 0.63734030E-01</totfact>
</mgrwt>
</event>
<event>
 4    1  0.1008211E-007  0.7858158E+03  0.7818608E-02  0.9742349E-01
         -1   -1    0    0    0  501 -0.00000000000E+00  0.00000000000E+00  0.14688784004E+04  0.14688784004E+04  0.50400000000E-02 0.  1.
          1   -1    0    0  501    0  0.00000000000E+00 -0.00000000000E+00 -0.91592805073E+03  0.91592805075E+03  0.50400000000E-02 0. -1.
    8880023    1    1    2    0    0 -0.32464218054E+03  0.27982798719E+03  0.12947428814E+04  0.15145512811E+04  0.65864270000E+03 0.  1.
    8880022    1    1    2    0    0  0.32464218054E+03 -0.27982798719E+03 -0.74179253176E+03  0.87025517005E+03  0.15294330000E+03 0.  0.
<mgrwt>
<rscale>  0 0.68550386E+03</rscale>
<asrwt>0</asrwt>
<pdfrwt beam="1">  1        1 0.14091201E+00 0.78581579E+03</pdfrwt>
<pdfrwt beam="2">  1       -1 0.22598129E+00 0.78581579E+03</pdfrwt>
<totfact> 0.18413922E+00</totfact>
</mgrwt>
</event>
<event>
 4    1  0.1008211E-007  0.7373997E+03  0.7818608E-02  0.9867587E-01
         -1   -1    0    0    0  501 -0.00000000000E+00  0.00000000000E+00  0.49370211162E+03  0.49370211164E+03  0.50400000000E-02 0.  1.
          1   -1    0    0  501    0  0.00000000000E+00 -0.00000000000E+00 -0.19542554206E+04  0.19542554206E+04  0.50400000000E-02 0. -1.
    8880023    1    1    2    0    0  0.16485651242E+03  0.28769860174E+03  0.18673975953E+03  0.76067739495E+03  0.65864270000E+03 0.  1.
    8880022    1    1    2    0    0 -0.16485651242E+03 -0.28769860174E+03 -0.16472930685E+04  0.16872801373E+04  0.15294330000E+03 0. -1.
<mgrwt>
<rscale>  0 0.61858190E+03</rscale>
<asrwt>0</asrwt>
<pdfrwt beam="1">  1        1 0.30065467E+00 0.73739973E+03</pdfrwt>
<pdfrwt beam="2">  1       -1 0.75954172E-01 0.73739973E+03</pdfrwt>
<totfact> 0.58545287E+00</totfact>
</mgrwt>
</event>
<event>
 4    1  0.1008211E-007  0.8299222E+03  0.7818608E-02  0.9649484E-01
         -1   -1    0    0    0  501 -0.00000000000E+00  0.00000000000E+00  0.62468197945E+03  0.62468197947E+03  0.50400000000E-02 0.  1.
          1   -1    0    0  501    0  0.00000000000E+00 -0.00000000000E+00 -0.12235922929E+04  0.12235922929E+04  0.50400000000E-02 0. -1.
    8880023    1    1    2    0    0  0.16552232493E+03 -0.47703565878E+03  0.23404212750E+03  0.86229147248E+03  0.65864270000E+03 0.  1.
    8880022    1    1    2    0    0 -0.16552232493E+03  0.47703565878E+03 -0.83295244094E+03  0.98598279989E+03  0.15294330000E+03 0.  0.
<mgrwt>
<rscale>  0 0.74105833E+03</rscale>
<asrwt>0</asrwt>
<pdfrwt beam="1">  1        1 0.18824497E+00 0.82992220E+03</pdfrwt>
<pdfrwt beam="2">  1       -1 0.96104920E-01 0.82992220E+03</pdfrwt>
<totfact> 0.10964933E+01</totfact>
</mgrwt>
</event>
<event>
 4    1  0.1008211E-007  0.1349845E+04  0.7818608E-02  0.9023668E-01
         -1   -1    0    0    0  501 -0.00000000000E+00  0.00000000000E+00  0.11628737040E+04  0.11628737040E+04  0.50400000000E-02 0.  1.
          1   -1    0    0  501    0  0.00000000000E+00 -0.00000000000E+00 -0.23683056791E+04  0.23683056791E+04  0.50400000000E-02 0. -1.
    8880023    1    1    2    0    0 -0.41967895483E+01  0.11782420292E+04  0.51126679539E+03  0.14434250361E+04  0.65864270000E+03 0.  0.
    8880022    1    1    2    0    0  0.41967895483E+01 -0.11782420292E+04 -0.17166987704E+04  0.20877543471E+04  0.15294330000E+03 0.  0.
<mgrwt>
<rscale>  0 0.13074629E+04</rscale>
<asrwt>0</asrwt>
<pdfrwt beam="1">  1        1 0.36435472E+00 0.13498452E+04</pdfrwt>
<pdfrwt beam="2">  1       -1 0.17890365E+00 0.13498452E+04</pdfrwt>
<totfact> 0.34147897E-01</totfact>
</mgrwt>
</event>
<event>
 4    1  0.1008211E-007  0.6669800E+03  0.7818608E-02  0.1017927E+00
          1   -1    0    0  501    0  0.00000000000E+00  0.00000000000E+00  0.28692203191E+04  0.28692203191E+04  0.50400000000E-02 0. -1.
         -1   -1    0    0    0  501 -0.00000000000E+00 -0.00000000000E+00 -0.35334645050E+03  0.35334645054E+03  0.50400000000E-02 0.  1.
    8880023    1    1    2    0    0  0.10244755868E+03  0.23591521376E+02 -0.32186890327E+02  0.66775614137E+03  0.65864270000E+03 0.  1.
    8880022    1    1    2    0    0 -0.10244755868E+03 -0.23591521376E+02  0.25480607589E+04  0.25548106283E+04  0.15294330000E+03 0.  0.
<mgrwt>
<rscale>  0 0.48442142E+03</rscale>
<asrwt>0</asrwt>
<pdfrwt beam="1">  1        1 0.44141853E+00 0.66697996E+03</pdfrwt>
<pdfrwt beam="2">  1       -1 0.54360990E-01 0.66697996E+03</pdfrwt>
<totfact> 0.27669490E+00</totfact>
</mgrwt>
</event>
<event>
 4    1  0.1008211E-007  0.6670870E+03  0.7818608E-02  0.1017843E+00
          1   -1    0    0  501    0  0.00000000000E+00  0.00000000000E+00  0.11168537238E+04  0.11168537238E+04  0.50400000000E-02 0. -1.
         -1   -1    0    0    0  501 -0.00000000000E+00 -0.00000000000E+00 -0.87020700701E+03  0.87020700702E+03  0.50400000000E-02 0.  1.
    8880023    1    1    2    0    0 -0.77807434237E+02  0.71700251847E+02 -0.73230897553E+03  0.99059657017E+03  0.65864270000E+03 0.  1.
    8880022    1    1    2    0    0  0.77807434237E+02 -0.71700251847E+02  0.97895569233E+03  0.99646416067E+03  0.15294330000E+03 0.  0.
<mgrwt>
<rscale>  0 0.48473048E+03</rscale>
<asrwt>0</asrwt>
<pdfrwt beam="1">  1        1 0.17182365E+00 0.66708705E+03</pdfrwt>
<pdfrwt beam="2">  1       -1 0.13387800E+00 0.66708705E+03</pdfrwt>
<totfact> 0.60879884E+00</totfact>
</mgrwt>
</event>
<event>
 4    1  0.1008211E-007  0.1000479E+04  0.7818608E-02  0.9380931E-01
          1   -1    0    0  501    0  0.00000000000E+00  0.00000000000E+00  0.31226243529E+04  0.31226243529E+04  0.50400000000E-02 0. -1.
         -1   -1    0    0    0  501 -0.00000000000E+00 -0.00000000000E+00 -0.12004520407E+04  0.12004520407E+04  0.50400000000E-02 0.  1.
    8880023    1    1    2    0    0 -0.75272753905E+03 -0.23430206972E+02 -0.93196078122E+03  0.13672998306E+04  0.65864270000E+03 0.  1.
    8880022    1    1    2    0    0  0.75272753905E+03  0.23430206972E+02  0.28541330934E+04  0.29557765631E+04  0.15294330000E+03 0.  0.
<mgrwt>
<rscale>  0 0.93661701E+03</rscale>
<asrwt>0</asrwt>
<pdfrwt beam="1">  1        1 0.48040375E+00 0.10004788E+04</pdfrwt>
<pdfrwt beam="2">  1       -1 0.18468493E+00 0.10004788E+04</pdfrwt>
<totfact> 0.96482177E-02</totfact>
</mgrwt>
</event>
<event>
 4    1  0.1008211E-007  0.1444397E+04  0.7818608E-02  0.8949931E-01
          1   -1    0    0  501    0  0.00000000000E+00  0.00000000000E+00  0.21534295253E+04  0.21534295253E+04  0.50400000000E-02 0. -1.
         -1   -1    0    0    0  501 -0.00000000000E+00 -0.00000000000E+00 -0.17597999957E+04  0.17597999957E+04  0.50400000000E-02 0.  1.
    8880023    1    1    2    0    0  0.68642913736E+03 -0.10868706530E+04 -0.11874053993E+04  0.18698167197E+04  0.65864270000E+03 0.  0.
    8880022    1    1    2    0    0 -0.68642913736E+03  0.10868706530E+04  0.15810349289E+04  0.20434128013E+04  0.15294330000E+03 0.  0.
<mgrwt>
<rscale>  0 0.14053834E+04</rscale>
<asrwt>0</asrwt>
<pdfrwt beam="1">  1        1 0.33129685E+00 0.14443971E+04</pdfrwt>
<pdfrwt beam="2">  1       -1 0.27073846E+00 0.14443971E+04</pdfrwt>
<totfact> 0.11378066E-01</totfact>
</mgrwt>
</event>
<event>
 4    1  0.1008211E-007  0.7678584E+03  0.7818608E-02  0.9785172E-01
          1   -1    0    0  501    0  0.00000000000E+00  0.00000000000E+00  0.22807195619E+04  0.22807195619E+04  0.50400000000E-02 0. -1.
         -1   -1    0    0    0  501 -0.00000000000E+00 -0.00000000000E+00 -0.21391501413E+03  0.21391501419E+03  0.50400000000E-02 0.  1.
    8880023    1    1    2    0    0  0.24118696871E+03 -0.31245036955E+03  0.61922168280E+03  0.98642895640E+03  0.65864270000E+03 0.  0.
    8880022    1    1    2    0    0 -0.24118696871E+03  0.31245036955E+03  0.14475828650E+04  0.15082056197E+04  0.15294330000E+03 0.  0.
<mgrwt>
<rscale>  0 0.66164419E+03</rscale>
<asrwt>0</asrwt>
<pdfrwt beam="1">  1        1 0.35087992E+00 0.76785845E+03</pdfrwt>
<pdfrwt beam="2">  1       -1 0.32910003E-01 0.76785845E+03</pdfrwt>
<totfact> 0.17335244E+01</totfact>
</mgrwt>
</event>
<event>
 4    1  0.1008211E-007  0.7077277E+03  0.7818608E-02  0.9966538E-01
         -1   -1    0    0    0  501 -0.00000000000E+00  0.00000000000E+00  0.65330744437E+03  0.65330744439E+03  0.50400000000E-02 0.  1.
          1   -1    0    0  501    0  0.00000000000E+00 -0.00000000000E+00 -0.46917582346E+03  0.46917582349E+03  0.50400000000E-02 0. -1.
    8880023    1    1    2    0    0 -0.21841690865E+03 -0.13914848487E+03  0.33839068384E+03  0.78446587434E+03  0.65864270000E+03 0.  0.
    8880022    1    1    2    0    0  0.21841690865E+03  0.13914848487E+03 -0.15425906293E+03  0.33801739354E+03  0.15294330000E+03 0.  0.
<mgrwt>
<rscale>  0 0.57142159E+03</rscale>
<asrwt>0</asrwt>
<pdfrwt beam="1">  1        1 0.72180896E-01 0.70772767E+03</pdfrwt>
<pdfrwt beam="2">  1       -1 0.10050884E+00 0.70772767E+03</pdfrwt>
<totfact> 0.46726401E+01</totfact>
</mgrwt>
</event>
<event>
 4    1  0.1008211E-007  0.1750519E+04  0.7818608E-02  0.8750413E-01
         -1   -1    0    0    0  501 -0.00000000000E+00  0.00000000000E+00  0.19882520016E+04  0.19882520016E+04  0.50400000000E-02 0.  1.
          1   -1    0    0  501    0  0.00000000000E+00 -0.00000000000E+00 -0.15201028657E+04  0.15201028657E+04  0.50400000000E-02 0. -1.
    8880023    1    1    2    0    0 -0.10280001190E+04  0.12544811727E+04 -0.16998026825E+03  0.17587526134E+04  0.65864270000E+03 0.  0.
    8880022    1    1    2    0    0  0.10280001190E+04 -0.12544811727E+04  0.63812940417E+03  0.17496022539E+04  0.15294330000E+03 0.  0.
<mgrwt>
<rscale>  0 0.17193358E+04</rscale>
<asrwt>0</asrwt>
<pdfrwt beam="1">  1        1 0.23386198E+00 0.17505192E+04</pdfrwt>
<pdfrwt beam="2">  1       -1 0.30588492E+00 0.17505192E+04</pdfrwt>
<totfact> 0.17626937E-01</totfact>
</mgrwt>
</event>
<event>
 4    1  0.1008211E-007  0.7214511E+03  0.7818608E-02  0.9917706E-01
          1   -1    0    0  501    0  0.00000000000E+00  0.00000000000E+00  0.65359163001E+03  0.65359163002E+03  0.50400000000E-02 0. -1.
         -1   -1    0    0    0  501 -0.00000000000E+00 -0.00000000000E+00 -0.55024668945E+03  0.55024668947E+03  0.50400000000E-02 0.  1.
    8880023    1    1    2    0    0  0.17638262318E+03  0.23573418063E+03 -0.20593453488E+03  0.75026706752E+03  0.65864270000E+03 0.  1.
    8880022    1    1    2    0    0 -0.17638262318E+03 -0.23573418063E+03  0.30927947544E+03  0.45357125198E+03  0.15294330000E+03 0.  0.
<mgrwt>
<rscale>  0 0.59410787E+03</rscale>
<asrwt>0</asrwt>
<pdfrwt beam="1">  1        1 0.10055256E+00 0.72145107E+03</pdfrwt>
<pdfrwt beam="2">  1       -1 0.84653337E-01 0.72145107E+03</pdfrwt>
<totfact> 0.42796100E+01</totfact>
</mgrwt>
</event>
<event>
 4    1  0.1008211E-007  0.1105835E+04  0.7818608E-02  0.9254587E-01
          1   -1    0    0  501    0  0.00000000000E+00  0.00000000000E+00  0.11729409082E+04  0.11729409083E+04  0.50400000000E-02 0. -1.
         -1   -1    0    0    0  501 -0.00000000000E+00 -0.00000000000E+00 -0.16890227553E+04  0.16890227553E+04  0.50400000000E-02 0.  1.
    8880023    1    1    2    0    0  0.31602186708E+03  0.83017539449E+03 -0.12720730786E+04  0.16855388247E+04  0.65864270000E+03 0.  1.
    8880022    1    1    2    0    0 -0.31602186708E+03 -0.83017539449E+03  0.75599123159E+03  0.11764248388E+04  0.15294330000E+03 0.  0.
<mgrwt>
<rscale>  0 0.10507334E+04</rscale>
<asrwt>0</asrwt>
<pdfrwt beam="1">  1        1 0.18045245E+00 0.11058351E+04</pdfrwt>
<pdfrwt beam="2">  1       -1 0.25984966E+00 0.11058351E+04</pdfrwt>
<totfact> 0.66889799E-01</totfact>
</mgrwt>
</event>
<event>
 4    1  0.1008211E-007  0.1034974E+04  0.7818608E-02  0.9337166E-01
         -1   -1    0    0    0  501 -0.00000000000E+00  0.00000000000E+00  0.10365293131E+04  0.10365293131E+04  0.50400000000E-02 0.  1.
          1   -1    0    0  501    0  0.00000000000E+00 -0.00000000000E+00 -0.15990836827E+04  0.15990836827E+04  0.50400000000E-02 0. -1.
    8880023    1    1    2    0    0  0.26921709621E+03  0.75158750996E+03  0.61562553025E+03  0.12042286451E+04  0.65864270000E+03 0.  0.
    8880022    1    1    2    0    0 -0.26921709621E+03 -0.75158750996E+03 -0.11781798998E+04  0.14313843507E+04  0.15294330000E+03 0.  0.
<mgrwt>
<rscale>  0 0.97432107E+03</rscale>
<asrwt>0</asrwt>
<pdfrwt beam="1">  1        1 0.24601287E+00 0.10349743E+04</pdfrwt>
<pdfrwt beam="2">  1       -1 0.15946605E+00 0.10349743E+04</pdfrwt>
<totfact> 0.16510943E+00</totfact>
</mgrwt>
</event>
<event>
 4    1  0.1008211E-007  0.7762534E+03  0.7818608E-02  0.9764713E-01
          1   -1    0    0  501    0  0.00000000000E+00  0.00000000000E+00  0.58535981952E+03  0.58535981954E+03  0.50400000000E-02 0. -1.
         -1   -1    0    0    0  501 -0.00000000000E+00 -0.00000000000E+00 -0.12064475045E+04  0.12064475045E+04  0.50400000000E-02 0.  1.
    8880023    1    1    2    0    0 -0.20571162535E+03  0.35558660127E+03 -0.96226321037E+03  0.12363332059E+04  0.65864270000E+03 0.  1.
    8880022    1    1    2    0    0  0.20571162535E+03 -0.35558660127E+03  0.34117552537E+03  0.55547411814E+03  0.15294330000E+03 0.  0.
<mgrwt>
<rscale>  0 0.67291141E+03</rscale>
<asrwt>0</asrwt>
<pdfrwt beam="1">  1        1 0.90055357E-01 0.77625338E+03</pdfrwt>
<pdfrwt beam="2">  1       -1 0.18560731E+00 0.77625338E+03</pdfrwt>
<totfact> 0.69361275E+00</totfact>
</mgrwt>
</event>
<event>
 4    1  0.1008211E-007  0.6811872E+03  0.7818608E-02  0.1008660E+00
         -1   -1    0    0    0  501 -0.00000000000E+00  0.00000000000E+00  0.28130809405E+04  0.28130809405E+04  0.50400000000E-02 0.  1.
          1   -1    0    0  501    0  0.00000000000E+00 -0.00000000000E+00 -0.17717209149E+03  0.17717209156E+03  0.50400000000E-02 0. -1.
    8880023    1    1    2    0    0 -0.40622507401E+02 -0.16898423833E+03  0.26706455519E+04  0.27561501648E+04  0.65864270000E+03 0.  1.
    8880022    1    1    2    0    0  0.40622507401E+02  0.16898423833E+03 -0.34736702874E+02  0.23410286725E+03  0.15294330000E+03 0.  0.
<mgrwt>
<rscale>  0 0.52010732E+03</rscale>
<asrwt>0</asrwt>
<pdfrwt beam="1">  1        1 0.27257245E-01 0.68118725E+03</pdfrwt>
<pdfrwt beam="2">  1       -1 0.43278168E+00 0.68118725E+03</pdfrwt>
<totfact> 0.80169298E-01</totfact>
</mgrwt>
</event>
<event>
 4    1  0.1008211E-007  0.7088697E+03  0.7818608E-02  0.9962222E-01
          1   -1    0    0  501    0  0.00000000000E+00  0.00000000000E+00  0.18585868287E+04  0.18585868287E+04  0.50400000000E-02 0. -1.
         -1   -1    0    0    0  501 -0.00000000000E+00 -0.00000000000E+00 -0.10096945650E+04  0.10096945650E+04  0.50400000000E-02 0.  1.
    8880023    1    1    2    0    0  0.26165508465E+03 -0.14920344554E+02 -0.87033087983E+03  0.11224847646E+04  0.65864270000E+03 0.  1.
    8880022    1    1    2    0    0 -0.26165508465E+03  0.14920344554E+02  0.17192231436E+04  0.17457966291E+04  0.15294330000E+03 0.  0.
<mgrwt>
<rscale>  0 0.57338203E+03</rscale>
<asrwt>0</asrwt>
<pdfrwt beam="1">  1        1 0.28593643E+00 0.70886967E+03</pdfrwt>
<pdfrwt beam="2">  1       -1 0.15533763E+00 0.70886967E+03</pdfrwt>
<totfact> 0.12550828E+00</totfact>
</mgrwt>
</event>
<event>
 4    1  0.1008211E-007  0.1291356E+04  0.7818608E-02  0.9073061E-01
          1   -1    0    0  501    0  0.00000000000E+00  0.00000000000E+00  0.17377760463E+04  0.17377760463E+04  0.50400000000E-02 0. -1.
         -1   -1    0    0    0  501 -0.00000000000E+00 -0.00000000000E+00 -0.12202964505E+04  0.12202964505E+04  0.50400000000E-02 0.  1.
    8880023    1    1    2    0    0 -0.10377609791E+04  0.39603267995E+03 -0.55585172112E+03  0.14059057847E+04  0.65864270000E+03 0.  0.
    8880022    1    1    2    0    0  0.10377609791E+04 -0.39603267995E+03  0.10733313169E+04  0.15521667121E+04  0.15294330000E+03 0.  0.
<mgrwt>
<rscale>  0 0.12465485E+04</rscale>
<asrwt>0</asrwt>
<pdfrwt beam="1">  1        1 0.26735016E+00 0.12913559E+04</pdfrwt>
<pdfrwt beam="2">  1       -1 0.18773791E+00 0.12913559E+04</pdfrwt>
<totfact> 0.79803293E-01</totfact>
</mgrwt>
</event>
<event>
 4    1  0.1008211E-007  0.1323590E+04  0.7818608E-02  0.9045451E-01
          1   -1    0    0  501    0  0.00000000000E+00  0.00000000000E+00  0.33412954514E+04  0.33412954514E+04  0.50400000000E-02 0. -1.
         -1   -1    0    0    0  501 -0.00000000000E+00 -0.00000000000E+00 -0.75200830008E+03  0.75200830010E+03  0.50400000000E-02 0.  1.
    8880023    1    1    2    0    0  0.90856211302E+03  0.70185148137E+03  0.75754360047E+02  0.13257562161E+04  0.65864270000E+03 0.  1.
    8880022    1    1    2    0    0 -0.90856211302E+03 -0.70185148137E+03  0.25135327913E+04  0.27675475355E+04  0.15294330000E+03 0.  0.
<mgrwt>
<rscale>  0 0.12801559E+04</rscale>
<asrwt>0</asrwt>
<pdfrwt beam="1">  1        1 0.51404544E+00 0.13235901E+04</pdfrwt>
<pdfrwt beam="2">  1       -1 0.11569359E+00 0.13235901E+04</pdfrwt>
<totfact> 0.22058323E-01</totfact>
</mgrwt>
</event>
<event>
 4    1  0.1008211E-007  0.7920764E+03  0.7818608E-02  0.9728198E-01
         -1   -1    0    0    0  501 -0.00000000000E+00  0.00000000000E+00  0.25422876255E+04  0.25422876255E+04  0.50400000000E-02 0.  1.
          1   -1    0    0  501    0  0.00000000000E+00 -0.00000000000E+00 -0.57858490012E+03  0.57858490014E+03  0.50400000000E-02 0. -1.
    8880023    1    1    2    0    0  0.43958237701E+03  0.18496482824E+02  0.23724386648E+04  0.25011697684E+04  0.65864270000E+03 0.  0.
    8880022    1    1    2    0    0 -0.43958237701E+03 -0.18496482824E+02 -0.40873593944E+03  0.61970275718E+03  0.15294330000E+03 0.  0.
<mgrwt>
<rscale>  0 0.69362441E+03</rscale>
<asrwt>0</asrwt>
<pdfrwt beam="1">  1        1 0.89013063E-01 0.79207638E+03</pdfrwt>
<pdfrwt beam="2">  1       -1 0.39112117E+00 0.79207638E+03</pdfrwt>
<totfact> 0.31587824E-01</totfact>
</mgrwt>
</event>
<event>
 4    1  0.1244567E-007  0.1229078E+04  0.7818608E-02  0.9129362E-01
         -1   -1    0    0    0  501 -0.00000000000E+00  0.00000000000E+00  0.13984440948E+04  0.13984440948E+04  0.50400000000E-02 0.  1.
          1   -1    0    0  501    0  0.00000000000E+00 -0.00000000000E+00 -0.22813072663E+04  0.22813072664E+04  0.50400000000E-02 0. -1.
    8880023    1    1    2    0    0 -0.65621158241E+03  0.80387119179E+03  0.95981658520E+03  0.15594488184E+04  0.65864270000E+03 0.  1.
    8880022    1    1    2    0    0  0.65621158241E+03 -0.80387119179E+03 -0.18426797567E+04  0.21203025427E+04  0.15294330000E+03 0.  0.
<mgrwt>
<rscale>  0 0.11813246E+04</rscale>
<asrwt>0</asrwt>
<pdfrwt beam="1">  1        1 0.35097035E+00 0.12290780E+04</pdfrwt>
<pdfrwt beam="2">  1       -1 0.21514525E+00 0.12290780E+04</pdfrwt>
<totfact> 0.22274958E-01</totfact>
</mgrwt>
</event>
<event>
 4    1  0.1008211E-007  0.7187261E+03  0.7818608E-02  0.9926920E-01
         -1   -1    0    0    0  501 -0.00000000000E+00  0.00000000000E+00  0.66884657645E+03  0.66884657647E+03  0.50400000000E-02 0.  1.
          1   -1    0    0  501    0  0.00000000000E+00 -0.00000000000E+00 -0.10349915580E+04  0.10349915580E+04  0.50400000000E-02 0. -1.
    8880023    1    1    2    0    0  0.25513567899E+03 -0.13290138837E+03  0.43421331289E+03  0.83970733061E+03  0.65864270000E+03 0.  1.
    8880022    1    1    2    0    0 -0.25513567899E+03  0.13290138837E+03 -0.80035829446E+03  0.86413080390E+03  0.15294330000E+03 0.  0.
<mgrwt>
<rscale>  0 0.58974174E+03</rscale>
<asrwt>0</asrwt>
<pdfrwt beam="1">  1        1 0.15922947E+00 0.71872610E+03</pdfrwt>
<pdfrwt beam="2">  1       -1 0.10289947E+00 0.71872610E+03</pdfrwt>
<totfact> 0.13137407E+01</totfact>
</mgrwt>
</event>
<event>
 4    1  0.1008211E-007  0.1639648E+04  0.7818608E-02  0.8816843E-01
         -1   -1    0    0    0  501 -0.00000000000E+00  0.00000000000E+00  0.94474665350E+03  0.94474665352E+03  0.50400000000E-02 0.  1.
          1   -1    0    0  501    0  0.00000000000E+00 -0.00000000000E+00 -0.35178171143E+04  0.35178171143E+04  0.50400000000E-02 0. -1.
    8880023    1    1    2    0    0  0.57247193358E+03 -0.13881324075E+04 -0.20224221932E+03  0.16520737929E+04  0.65864270000E+03 0.  0.
    8880022    1    1    2    0    0 -0.57247193358E+03  0.13881324075E+04 -0.23708282415E+04  0.28104899750E+04  0.15294330000E+03 0.  0.
<mgrwt>
<rscale>  0 0.16060455E+04</rscale>
<asrwt>0</asrwt>
<pdfrwt beam="1">  1        1 0.54120263E+00 0.16396481E+04</pdfrwt>
<pdfrwt beam="2">  1       -1 0.14534564E+00 0.16396481E+04</pdfrwt>
<totfact> 0.86333381E-02</totfact>
</mgrwt>
</event>
<event>
 4    1  0.1008211E-007  0.1393306E+04  0.7818608E-02  0.8988901E-01
          1   -1    0    0  501    0  0.00000000000E+00  0.00000000000E+00  0.21886937403E+04  0.21886937403E+04  0.50400000000E-02 0. -1.
         -1   -1    0    0    0  501 -0.00000000000E+00 -0.00000000000E+00 -0.14372720625E+04  0.14372720625E+04  0.50400000000E-02 0.  1.
    8880023    1    1    2    0    0  0.57810922420E+03 -0.10831814705E+04 -0.82710956409E+03  0.16203125657E+04  0.65864270000E+03 0.  0.
    8880022    1    1    2    0    0 -0.57810922420E+03  0.10831814705E+04  0.15785312418E+04  0.20056532371E+04  0.15294330000E+03 0.  0.
<mgrwt>
<rscale>  0 0.13525482E+04</rscale>
<asrwt>0</asrwt>
<pdfrwt beam="1">  1        1 0.33672211E+00 0.13933063E+04</pdfrwt>
<pdfrwt beam="2">  1       -1 0.22111878E+00 0.13933063E+04</pdfrwt>
<totfact> 0.22951712E-01</totfact>
</mgrwt>
</event>
<event>
 4    1  0.1008211E-007  0.1222086E+04  0.7818608E-02  0.9135946E-01
          1   -1    0    0  501    0  0.00000000000E+00  0.00000000000E+00  0.11176572086E+04  0.11176572087E+04  0.50400000000E-02 0. -1.
         -1   -1    0    0    0  501 -0.00000000000E+00 -0.00000000000E+00 -0.16085071804E+04  0.16085071804E+04  0.50400000000E-02 0.  1.
    8880023    1    1    2    0    0  0.93836044562E+03 -0.42327832582E+03 -0.98922392233E+03  0.15722782965E+04  0.65864270000E+03 0.  0.
    8880022    1    1    2    0    0 -0.93836044562E+03  0.42327832582E+03  0.49837395054E+03  0.11538860926E+04  0.15294330000E+03 0.  0.
<mgrwt>
<rscale>  0 0.11739749E+04</rscale>
<asrwt>0</asrwt>
<pdfrwt beam="1">  1        1 0.17194726E+00 0.12220864E+04</pdfrwt>
<pdfrwt beam="2">  1       -1 0.24746264E+00 0.12220864E+04</pdfrwt>
<totfact> 0.87190647E-01</totfact>
</mgrwt>
</event>
<event>
 4    1  0.1008211E-007  0.1118616E+04  0.7818608E-02  0.9240607E-01
         -1   -1    0    0    0  501 -0.00000000000E+00  0.00000000000E+00  0.11569612460E+04  0.11569612460E+04  0.50400000000E-02 0.  1.
          1   -1    0    0  501    0  0.00000000000E+00 -0.00000000000E+00 -0.19034619200E+04  0.19034619200E+04  0.50400000000E-02 0. -1.
    8880023    1    1    2    0    0  0.90300689703E+03 -0.45494713516E+02  0.72037756264E+03  0.13305056423E+04  0.65864270000E+03 0.  0.
    8880022    1    1    2    0    0 -0.90300689703E+03  0.45494713516E+02 -0.14668782366E+04  0.17299175238E+04  0.15294330000E+03 0.  0.
<mgrwt>
<rscale>  0 0.10643946E+04</rscale>
<asrwt>0</asrwt>
<pdfrwt beam="1">  1        1 0.29284030E+00 0.11186159E+04</pdfrwt>
<pdfrwt beam="2">  1       -1 0.17799404E+00 0.11186159E+04</pdfrwt>
<totfact> 0.73996691E-01</totfact>
</mgrwt>
</event>
<event>
 4    1  0.1008211E-007  0.6795651E+03  0.7818608E-02  0.1009571E+00
         -1   -1    0    0    0  501 -0.00000000000E+00  0.00000000000E+00  0.73730273508E+03  0.73730273510E+03  0.50400000000E-02 0.  1.
          1   -1    0    0  501    0  0.00000000000E+00 -0.00000000000E+00 -0.11153286611E+04  0.11153286612E+04  0.50400000000E-02 0. -1.
    8880023    1    1    2    0    0  0.16318929967E+03 -0.36982613187E+02  0.56436674518E+03  0.88335637799E+03  0.65864270000E+03 0.  1.
    8880022    1    1    2    0    0 -0.16318929967E+03  0.36982613187E+02 -0.94239267125E+03  0.96927501827E+03  0.15294330000E+03 0.  0.
<mgrwt>
<rscale>  0 0.51645588E+03</rscale>
<asrwt>0</asrwt>
<pdfrwt beam="1">  1        1 0.17158902E+00 0.67956506E+03</pdfrwt>
<pdfrwt beam="2">  1       -1 0.11343119E+00 0.67956506E+03</pdfrwt>
<totfact> 0.91549773E+00</totfact>
</mgrwt>
</event>
<event>
 4    1  0.1008211E-007  0.9208733E+03  0.7818608E-02  0.9493321E-01
         -1   -1    0    0    0  501 -0.00000000000E+00  0.00000000000E+00  0.64789249230E+03  0.64789249232E+03  0.50400000000E-02 0.  1.
          1   -1    0    0  501    0  0.00000000000E+00 -0.00000000000E+00 -0.15666155893E+04  0.15666155893E+04  0.50400000000E-02 0. -1.
    8880023    1    1    2    0    0  0.53833231094E+03  0.35269769514E+03  0.17398697223E+03  0.93716541439E+03  0.65864270000E+03 0.  1.
    8880022    1    1    2    0    0 -0.53833231094E+03 -0.35269769514E+03 -0.10927100692E+04  0.12773426672E+04  0.15294330000E+03 0.  0.
<mgrwt>
<rscale>  0 0.84778005E+03</rscale>
<asrwt>0</asrwt>
<pdfrwt beam="1">  1        1 0.24101778E+00 0.92087325E+03</pdfrwt>
<pdfrwt beam="2">  1       -1 0.99675768E-01 0.92087325E+03</pdfrwt>
<totfact> 0.57415456E+00</totfact>
</mgrwt>
</event>
<event>
 4    1  0.1008211E-007  0.7518740E+03  0.7818608E-02  0.9826618E-01
          1   -1    0    0  501    0  0.00000000000E+00  0.00000000000E+00  0.37472833283E+04  0.37472833283E+04  0.50400000000E-02 0. -1.
         -1   -1    0    0    0  501 -0.00000000000E+00 -0.00000000000E+00 -0.46028518210E+03  0.46028518213E+03  0.50400000000E-02 0.  1.
    8880023    1    1    2    0    0 -0.24179180576E+03 -0.27026100511E+03 -0.13424319224E+03  0.76376418425E+03  0.65864270000E+03 0.  1.
    8880022    1    1    2    0    0  0.24179180576E+03  0.27026100511E+03  0.34212413384E+04  0.34438043262E+04  0.15294330000E+03 0.  0.
<mgrwt>
<rscale>  0 0.63953424E+03</rscale>
<asrwt>0</asrwt>
<pdfrwt beam="1">  1        1 0.57650512E+00 0.75187399E+03</pdfrwt>
<pdfrwt beam="2">  1       -1 0.70813106E-01 0.75187399E+03</pdfrwt>
<totfact> 0.35104787E-01</totfact>
</mgrwt>
</event>
<event>
 4    1  0.1008211E-007  0.7610082E+03  0.7818608E-02  0.9802504E-01
          1   -1    0    0  501    0  0.00000000000E+00  0.00000000000E+00  0.37573304590E+03  0.37573304593E+03  0.50400000000E-02 0. -1.
         -1   -1    0    0    0  501 -0.00000000000E+00 -0.00000000000E+00 -0.14528164441E+04  0.14528164441E+04  0.50400000000E-02 0.  1.
    8880023    1    1    2    0    0 -0.33207530115E+03 -0.18721458291E+03 -0.11809129203E+04  0.14048803640E+04  0.65864270000E+03 0.  1.
    8880022    1    1    2    0    0  0.33207530115E+03  0.18721458291E+03  0.10382952205E+03  0.42366912603E+03  0.15294330000E+03 0.  0.
<mgrwt>
<rscale>  0 0.65228323E+03</rscale>
<asrwt>0</asrwt>
<pdfrwt beam="1">  1        1 0.57805085E-01 0.76100822E+03</pdfrwt>
<pdfrwt beam="2">  1       -1 0.22351022E+00 0.76100822E+03</pdfrwt>
<totfact> 0.70269176E+00</totfact>
</mgrwt>
</event>
<event>
 4    1  0.1008211E-007  0.1213794E+04  0.7818608E-02  0.9143829E-01
          1   -1    0    0  501    0  0.00000000000E+00  0.00000000000E+00  0.54868532778E+03  0.54868532780E+03  0.50400000000E-02 0. -1.
         -1   -1    0    0    0  501 -0.00000000000E+00 -0.00000000000E+00 -0.24472875621E+04  0.24472875621E+04  0.50400000000E-02 0.  1.
    8880023    1    1    2    0    0 -0.23621033919E+02  0.10192780807E+04 -0.13932431195E+04  0.18478155631E+04  0.65864270000E+03 0.  1.
    8880022    1    1    2    0    0  0.23621033919E+02 -0.10192780807E+04 -0.50535911481E+03  0.11481573268E+04  0.15294330000E+03 0.  0.
<mgrwt>
<rscale>  0 0.11652501E+04</rscale>
<asrwt>0</asrwt>
<pdfrwt beam="1">  1        1 0.84413129E-01 0.12137940E+04</pdfrwt>
<pdfrwt beam="2">  1       -1 0.37650577E+00 0.12137940E+04</pdfrwt>
<totfact> 0.39965709E-01</totfact>
</mgrwt>
</event>
<event>
 4    1  0.1008211E-007  0.8113292E+03  0.7818608E-02  0.9686815E-01
         -1   -1    0    0    0  501 -0.00000000000E+00  0.00000000000E+00  0.51505989876E+03  0.51505989879E+03  0.50400000000E-02 0.  1.
          1   -1    0    0  501    0  0.00000000000E+00 -0.00000000000E+00 -0.20120901861E+04  0.20120901861E+04  0.50400000000E-02 0. -1.
    8880023    1    1    2    0    0 -0.17419988245E+03 -0.44056700738E+03  0.13356696975E+03  0.82225010107E+03  0.65864270000E+03 0.  1.
    8880022    1    1    2    0    0  0.17419988245E+03  0.44056700738E+03 -0.16305972571E+04  0.17048999838E+04  0.15294330000E+03 0.  0.
<mgrwt>
<rscale>  0 0.71807284E+03</rscale>
<asrwt>0</asrwt>
<pdfrwt beam="1">  1        1 0.30955233E+00 0.81132921E+03</pdfrwt>
<pdfrwt beam="2">  1       -1 0.79239985E-01 0.81132921E+03</pdfrwt>
<totfact> 0.48387511E+00</totfact>
</mgrwt>
</event>
<event>
 4    1  0.1008211E-007  0.1140570E+04  0.7818608E-02  0.9217176E-01
         -1   -1    0    0    0  501 -0.00000000000E+00  0.00000000000E+00  0.15947433548E+04  0.15947433548E+04  0.50400000000E-02 0.  1.
          1   -1    0    0  501    0  0.00000000000E+00 -0.00000000000E+00 -0.82891221819E+03  0.82891221820E+03  0.50400000000E-02 0. -1.
    8880023    1    1    2    0    0  0.87987457152E+03  0.30481136512E+03  0.92268685152E+03  0.14670550304E+04  0.65864270000E+03 0.  0.
    8880022    1    1    2    0    0 -0.87987457152E+03 -0.30481136512E+03 -0.15685571489E+03  0.95660054266E+03  0.15294330000E+03 0.  0.
<mgrwt>
<rscale>  0 0.10877885E+04</rscale>
<asrwt>0</asrwt>
<pdfrwt beam="1">  1        1 0.12752496E+00 0.11405698E+04</pdfrwt>
<pdfrwt beam="2">  1       -1 0.24534513E+00 0.11405698E+04</pdfrwt>
<totfact> 0.15453998E+00</totfact>
</mgrwt>
</event>
<event>
 4    1  0.1008211E-007  0.6732721E+03  0.7818608E-02  0.1013418E+00
         -1   -1    0    0    0  501 -0.00000000000E+00  0.00000000000E+00  0.49516701440E+03  0.49516701442E+03  0.50400000000E-02 0.  1.
          1   -1    0    0  501    0  0.00000000000E+00 -0.00000000000E+00 -0.20854083136E+04  0.20854083136E+04  0.50400000000E-02 0. -1.
    8880023    1    1    2    0    0 -0.12482685283E+03  0.62477073219E+02  0.25782104373E+03  0.72094869770E+03  0.65864270000E+03 0.  1.
    8880022    1    1    2    0    0  0.12482685283E+03 -0.62477073219E+02 -0.18480623430E+04  0.18596266304E+04  0.15294330000E+03 0.  0.
<mgrwt>
<rscale>  0 0.50138431E+03</rscale>
<asrwt>0</asrwt>
<pdfrwt beam="1">  1        1 0.32083204E+00 0.67327211E+03</pdfrwt>
<pdfrwt beam="2">  1       -1 0.76179542E-01 0.67327211E+03</pdfrwt>
<totfact> 0.48133188E+00</totfact>
</mgrwt>
</event>
<event>
 4    1  0.1008211E-007  0.1441370E+04  0.7818608E-02  0.8952186E-01
          1   -1    0    0  501    0  0.00000000000E+00  0.00000000000E+00  0.13861819086E+04  0.13861819086E+04  0.50400000000E-02 0. -1.
         -1   -1    0    0    0  501 -0.00000000000E+00 -0.00000000000E+00 -0.17391555887E+04  0.17391555887E+04  0.50400000000E-02 0.  1.
    8880023    1    1    2    0    0 -0.12637541795E+04  0.21601588006E+03 -0.92550193641E+03  0.17129219268E+04  0.65864270000E+03 0.  0.
    8880022    1    1    2    0    0  0.12637541795E+04 -0.21601588006E+03  0.57252825626E+03  0.14124155705E+04  0.15294330000E+03 0.  0.
<mgrwt>
<rscale>  0 0.14022575E+04</rscale>
<asrwt>0</asrwt>
<pdfrwt beam="1">  1        1 0.21325876E+00 0.14413701E+04</pdfrwt>
<pdfrwt beam="2">  1       -1 0.26756240E+00 0.14413701E+04</pdfrwt>
<totfact> 0.40113093E-01</totfact>
</mgrwt>
</event>
<event>
 4    1  0.1008211E-007  0.7493397E+03  0.7818608E-02  0.9833531E-01
         -1   -1    0    0    0  501 -0.00000000000E+00  0.00000000000E+00  0.86159881066E+03  0.86159881067E+03  0.50400000000E-02 0.  1.
          1   -1    0    0  501    0  0.00000000000E+00 -0.00000000000E+00 -0.63347576890E+03  0.63347576892E+03  0.50400000000E-02 0. -1.
    8880023    1    1    2    0    0  0.33851107591E+03  0.11449893874E+03  0.59785283994E+03  0.95861252859E+03  0.65864270000E+03 0.  0.
    8880022    1    1    2    0    0 -0.33851107591E+03 -0.11449893874E+03 -0.36972979819E+03  0.53646205100E+03  0.15294330000E+03 0.  0.
<mgrwt>
<rscale>  0 0.63593689E+03</rscale>
<asrwt>0</asrwt>
<pdfrwt beam="1">  1        1 0.97457810E-01 0.74933968E+03</pdfrwt>
<pdfrwt beam="2">  1       -1 0.13255366E+00 0.74933968E+03</pdfrwt>
<totfact> 0.15698472E+01</totfact>
</mgrwt>
</event>
<event>
 4    1  0.1008211E-007  0.1210697E+04  0.7818608E-02  0.9146794E-01
         -1   -1    0    0    0  501 -0.00000000000E+00  0.00000000000E+00  0.77082201542E+03  0.77082201544E+03  0.50400000000E-02 0.  1.
          1   -1    0    0  501    0  0.00000000000E+00 -0.00000000000E+00 -0.16670208110E+04  0.16670208110E+04  0.50400000000E-02 0. -1.
    8880023    1    1    2    0    0  0.31627895702E+03 -0.96537270756E+03 -0.28975542457E+03  0.12448876477E+04  0.65864270000E+03 0.  0.
    8880022    1    1    2    0    0 -0.31627895702E+03  0.96537270756E+03 -0.60644337101E+03  0.11929551787E+04  0.15294330000E+03 0.  1.
<mgrwt>
<rscale>  0 0.11619892E+04</rscale>
<asrwt>0</asrwt>
<pdfrwt beam="1">  1        1 0.25646474E+00 0.12106969E+04</pdfrwt>
<pdfrwt beam="2">  1       -1 0.11858800E+00 0.12106969E+04</pdfrwt>
<totfact> 0.31417884E+00</totfact>
</mgrwt>
</event>
<event>
 4    1  0.1008211E-007  0.6883250E+03  0.7818608E-02  0.1004959E+00
          1   -1    0    0  501    0  0.00000000000E+00  0.00000000000E+00  0.17512777787E+04  0.17512777787E+04  0.50400000000E-02 0. -1.
         -1   -1    0    0    0  501 -0.00000000000E+00 -0.00000000000E+00 -0.45617934968E+03  0.45617934970E+03  0.50400000000E-02 0.  1.
    8880023    1    1    2    0    0  0.19814366484E+03 -0.26836919049E+02 -0.17964534139E+03  0.71138160440E+03  0.65864270000E+03 0.  1.
    8880022    1    1    2    0    0 -0.19814366484E+03  0.26836919049E+02  0.14747437704E+04  0.14960755240E+04  0.15294330000E+03 0.  0.
<mgrwt>
<rscale>  0 0.53528247E+03</rscale>
<asrwt>0</asrwt>
<pdfrwt beam="1">  1        1 0.26942735E+00 0.68832502E+03</pdfrwt>
<pdfrwt beam="2">  1       -1 0.70181438E-01 0.68832502E+03</pdfrwt>
<totfact> 0.95020328E+00</totfact>
</mgrwt>
</event>
<event>
 4    1  0.1008211E-007  0.9054447E+03  0.7818608E-02  0.9517347E-01
         -1   -1    0    0    0  501 -0.00000000000E+00  0.00000000000E+00  0.23939619273E+04  0.23939619273E+04  0.50400000000E-02 0.  1.
          1   -1    0    0  501    0  0.00000000000E+00 -0.00000000000E+00 -0.52015368486E+03  0.52015368488E+03  0.50400000000E-02 0. -1.
    8880023    1    1    2    0    0 -0.30820266428E+03  0.53947292785E+03  0.20579188481E+04  0.22483016065E+04  0.65864270000E+03 0.  1.
    8880022    1    1    2    0    0  0.30820266428E+03 -0.53947292785E+03 -0.18411060559E+03  0.66581400575E+03  0.15294330000E+03 0.  0.
<mgrwt>
<rscale>  0 0.83016892E+03</rscale>
<asrwt>0</asrwt>
<pdfrwt beam="1">  1        1 0.80023644E-01 0.90544471E+03</pdfrwt>
<pdfrwt beam="2">  1       -1 0.36830183E+00 0.90544471E+03</pdfrwt>
<totfact> 0.51102276E-01</totfact>
</mgrwt>
</event>
<event>
 4    1  0.1008211E-007  0.1306126E+04  0.7818608E-02  0.9060287E-01
         -1   -1    0    0    0  501 -0.00000000000E+00  0.00000000000E+00  0.11322007366E+04  0.11322007366E+04  0.50400000000E-02 0.  1.
          1   -1    0    0  501    0  0.00000000000E+00 -0.00000000000E+00 -0.16529858380E+04  0.16529858380E+04  0.50400000000E-02 0. -1.
    8880023    1    1    2    0    0  0.23130303197E+03 -0.11039270941E+04 -0.89918112753E+03  0.15857153048E+04  0.65864270000E+03 0.  0.
    8880022    1    1    2    0    0 -0.23130303197E+03  0.11039270941E+04  0.37839602613E+03  0.11994712699E+04  0.15294330000E+03 0.  0.
<mgrwt>
<rscale>  0 0.12619600E+04</rscale>
<asrwt>0</asrwt>
<pdfrwt beam="1">  1        1 0.25430551E+00 0.13061265E+04</pdfrwt>
<pdfrwt beam="2">  1       -1 0.17418473E+00 0.13061265E+04</pdfrwt>
<totfact> 0.11394310E+00</totfact>
</mgrwt>
</event>
<event>
 4    1  0.1008211E-007  0.9201082E+03  0.7818608E-02  0.9494493E-01
         -1   -1    0    0    0  501 -0.00000000000E+00  0.00000000000E+00  0.69965311507E+03  0.69965311509E+03  0.50400000000E-02 0.  1.
          1   -1    0    0  501    0  0.00000000000E+00 -0.00000000000E+00 -0.15687169930E+04  0.15687169930E+04  0.50400000000E-02 0. -1.
    8880023    1    1    2    0    0  0.60953560857E+03 -0.20311374306E+03  0.26368755336E+03  0.95714689719E+03  0.65864270000E+03 0.  1.
    8880022    1    1    2    0    0 -0.60953560857E+03  0.20311374306E+03 -0.11327514313E+04  0.13112232109E+04  0.15294330000E+03 0.  0.
<mgrwt>
<rscale>  0 0.84691037E+03</rscale>
<asrwt>0</asrwt>
<pdfrwt beam="1">  1        1 0.24134107E+00 0.92010818E+03</pdfrwt>
<pdfrwt beam="2">  1       -1 0.10763894E+00 0.92010818E+03</pdfrwt>
<totfact> 0.47886038E+00</totfact>
</mgrwt>
</event>
<event>
 4    1  0.1008211E-007  0.1379427E+04  0.7818608E-02  0.8999835E-01
         -1   -1    0    0    0  501 -0.00000000000E+00  0.00000000000E+00  0.24812581588E+04  0.24812581588E+04  0.50400000000E-02 0.  1.
          1   -1    0    0  501    0  0.00000000000E+00 -0.00000000000E+00 -0.95639524158E+03  0.95639524159E+03  0.50400000000E-02 0. -1.
    8880023    1    1    2    0    0  0.10636955028E+04 -0.58100004049E+03  0.17154155642E+04  0.22012428157E+04  0.65864270000E+03 0.  0.
    8880022    1    1    2    0    0 -0.10636955028E+04  0.58100004049E+03 -0.19055264696E+03  0.12364105847E+04  0.15294330000E+03 0.  0.
<mgrwt>
<rscale>  0 0.13381653E+04</rscale>
<asrwt>0</asrwt>
<pdfrwt beam="1">  1        1 0.14713773E+00 0.13794272E+04</pdfrwt>
<pdfrwt beam="2">  1       -1 0.38173202E+00 0.13794272E+04</pdfrwt>
<totfact> 0.15095037E-01</totfact>
</mgrwt>
</event>
<event>
 4    1  0.1008211E-007  0.8441583E+03  0.7818608E-02  0.9622389E-01
         -1   -1    0    0    0  501 -0.00000000000E+00  0.00000000000E+00  0.11816537472E+04  0.11816537472E+04  0.50400000000E-02 0.  1.
          1   -1    0    0  501    0  0.00000000000E+00 -0.00000000000E+00 -0.60969029704E+03  0.60969029706E+03  0.50400000000E-02 0. -1.
    8880023    1    1    2    0    0 -0.66444735433E+00 -0.52800812695E+03  0.83020484547E+03  0.11839946433E+04  0.65864270000E+03 0.  1.
    8880022    1    1    2    0    0  0.66444735433E+00  0.52800812695E+03 -0.25824139532E+03  0.60734940099E+03  0.15294330000E+03 0.  0.
<mgrwt>
<rscale>  0 0.75831906E+03</rscale>
<asrwt>0</asrwt>
<pdfrwt beam="1">  1        1 0.93798508E-01 0.84415830E+03</pdfrwt>
<pdfrwt beam="2">  1       -1 0.18179288E+00 0.84415830E+03</pdfrwt>
<totfact> 0.69012681E+00</totfact>
</mgrwt>
</event>
<event>
 4    1  0.1008211E-007  0.7115422E+03  0.7818608E-02  0.9952318E-01
          1   -1    0    0  501    0  0.00000000000E+00  0.00000000000E+00  0.16337725226E+04  0.16337725226E+04  0.50400000000E-02 0. -1.
         -1   -1    0    0    0  501 -0.00000000000E+00 -0.00000000000E+00 -0.74895800341E+03  0.74895800343E+03  0.50400000000E-02 0.  1.
    8880023    1    1    2    0    0 -0.48535914876E+02  0.26481388206E+03 -0.55976870711E+03  0.90533603644E+03  0.65864270000E+03 0.  1.
    8880022    1    1    2    0    0  0.48535914876E+02 -0.26481388206E+03  0.14445832263E+04  0.14773944896E+04  0.15294330000E+03 0.  0.
<mgrwt>
<rscale>  0 0.57791370E+03</rscale>
<asrwt>0</asrwt>
<pdfrwt beam="1">  1        1 0.25134962E+00 0.71154222E+03</pdfrwt>
<pdfrwt beam="2">  1       -1 0.11522431E+00 0.71154222E+03</pdfrwt>
<totfact> 0.38041433E+00</totfact>
</mgrwt>
</event>
<event>
 4    1  0.1008211E-007  0.8138500E+03  0.7818608E-02  0.9681613E-01
         -1   -1    0    0    0  501 -0.00000000000E+00  0.00000000000E+00  0.64412141204E+03  0.64412141206E+03  0.50400000000E-02 0.  1.
          1   -1    0    0  501    0  0.00000000000E+00 -0.00000000000E+00 -0.22911065572E+04  0.22911065572E+04  0.50400000000E-02 0. -1.
    8880023    1    1    2    0    0  0.44345022904E+03  0.17858759256E+03  0.34280995482E+03  0.88310277162E+03  0.65864270000E+03 0.  0.
    8880022    1    1    2    0    0 -0.44345022904E+03 -0.17858759256E+03 -0.19897951000E+04  0.20521251976E+04  0.15294330000E+03 0.  0.
<mgrwt>
<rscale>  0 0.72122201E+03</rscale>
<asrwt>0</asrwt>
<pdfrwt beam="1">  1        1 0.35247793E+00 0.81385001E+03</pdfrwt>
<pdfrwt beam="2">  1       -1 0.99095603E-01 0.81385001E+03</pdfrwt>
<totfact> 0.19231693E+00</totfact>
</mgrwt>
</event>
<event>
 4    1  0.1156297E-007  0.6973547E+03  0.7818608E-02  0.1000836E+00
          1   -1    0    0  501    0  0.00000000000E+00  0.00000000000E+00  0.20763521479E+04  0.20763521479E+04  0.50400000000E-02 0. -1.
         -1   -1    0    0    0  501 -0.00000000000E+00 -0.00000000000E+00 -0.15878955345E+04  0.15878955345E+04  0.50400000000E-02 0.  1.
    8880023    1    1    2    0    0 -0.30182973865E+02 -0.22711743301E+03 -0.15013822853E+04  0.16554311563E+04  0.65864270000E+03 0.  1.
    8880022    1    1    2    0    0  0.30182973865E+02  0.22711743301E+03  0.19898388987E+04  0.20088165262E+04  0.15294330000E+03 0.  0.
<mgrwt>
<rscale>  0 0.55285313E+03</rscale>
<asrwt>0</asrwt>
<pdfrwt beam="1">  1        1 0.31943879E+00 0.69735468E+03</pdfrwt>
<pdfrwt beam="2">  1       -1 0.24429162E+00 0.69735468E+03</pdfrwt>
<totfact> 0.21898255E-01</totfact>
</mgrwt>
</event>
<event>
 4    1  0.1008211E-007  0.1654882E+04  0.7818608E-02  0.8807366E-01
         -1   -1    0    0    0  501 -0.00000000000E+00  0.00000000000E+00  0.22217061344E+04  0.22217061344E+04  0.50400000000E-02 0.  1.
          1   -1    0    0  501    0  0.00000000000E+00 -0.00000000000E+00 -0.23106716280E+04  0.23106716280E+04  0.50400000000E-02 0. -1.
    8880023    1    1    2    0    0 -0.13980654685E+04  0.59180864010E+03 -0.16588344339E+04  0.23431530906E+04  0.65864270000E+03 0.  0.
    8880022    1    1    2    0    0  0.13980654685E+04 -0.59180864010E+03  0.15698689404E+04  0.21892246718E+04  0.15294330000E+03 0.  0.
<mgrwt>
<rscale>  0 0.16216354E+04</rscale>
<asrwt>0</asrwt>
<pdfrwt beam="1">  1        1 0.35548794E+00 0.16548821E+04</pdfrwt>
<pdfrwt beam="2">  1       -1 0.34180094E+00 0.16548821E+04</pdfrwt>
<totfact> 0.29770054E-02</totfact>
</mgrwt>
</event>
<event>
 4    1  0.1008211E-007  0.7643495E+03  0.7818608E-02  0.9793974E-01
          1   -1    0    0  501    0  0.00000000000E+00  0.00000000000E+00  0.19694118502E+04  0.19694118502E+04  0.50400000000E-02 0. -1.
         -1   -1    0    0    0  501 -0.00000000000E+00 -0.00000000000E+00 -0.64323644253E+03  0.64323644255E+03  0.50400000000E-02 0.  1.
    8880023    1    1    2    0    0 -0.35451119278E+03 -0.15729516948E+03 -0.38188847088E+03  0.85444073323E+03  0.65864270000E+03 0.  1.
    8880022    1    1    2    0    0  0.35451119278E+03  0.15729516948E+03  0.17080638785E+04  0.17582075595E+04  0.15294330000E+03 0.  0.
<mgrwt>
<rscale>  0 0.65686911E+03</rscale>
<asrwt>0</asrwt>
<pdfrwt beam="1">  1        1 0.30298643E+00 0.76434950E+03</pdfrwt>
<pdfrwt beam="2">  1       -1 0.98959454E-01 0.76434950E+03</pdfrwt>
<totfact> 0.32005356E+00</totfact>
</mgrwt>
</event>
<event>
 4    1  0.1008211E-007  0.1691604E+04  0.7818608E-02  0.8784992E-01
         -1   -1    0    0    0  501 -0.00000000000E+00  0.00000000000E+00  0.31781586202E+04  0.31781586203E+04  0.50400000000E-02 0.  1.
          1   -1    0    0  501    0  0.00000000000E+00 -0.00000000000E+00 -0.18994371870E+04  0.18994371870E+04  0.50400000000E-02 0. -1.
    8880023    1    1    2    0    0 -0.12394452067E+04  0.94418770650E+03  0.25505345881E+04  0.30605149464E+04  0.65864270000E+03 0.  1.
    8880022    1    1    2    0    0  0.12394452067E+04 -0.94418770650E+03 -0.12718131549E+04  0.20170808609E+04  0.15294330000E+03 0.  0.
<mgrwt>
<rscale>  0 0.16591833E+04</rscale>
<asrwt>0</asrwt>
<pdfrwt beam="1">  1        1 0.29222111E+00 0.16916043E+04</pdfrwt>
<pdfrwt beam="2">  1       -1 0.48894748E+00 0.16916043E+04</pdfrwt>
<totfact> 0.56090502E-03</totfact>
</mgrwt>
</event>
<event>
 4    1  0.1008211E-007  0.8530531E+03  0.7818608E-02  0.9606042E-01
          1   -1    0    0  501    0  0.00000000000E+00  0.00000000000E+00  0.49847827210E+03  0.49847827212E+03  0.50400000000E-02 0. -1.
         -1   -1    0    0    0  501 -0.00000000000E+00 -0.00000000000E+00 -0.13191592613E+04  0.13191592613E+04  0.50400000000E-02 0.  1.
    8880023    1    1    2    0    0  0.41804942541E+03  0.34514353962E+03 -0.91000656515E+03  0.12473217467E+04  0.65864270000E+03 0.  1.
    8880022    1    1    2    0    0 -0.41804942541E+03 -0.34514353962E+03  0.89325575934E+02  0.57031578670E+03  0.15294330000E+03 0.  0.
<mgrwt>
<rscale>  0 0.76897561E+03</rscale>
<asrwt>0</asrwt>
<pdfrwt beam="1">  1        1 0.76688965E-01 0.85305310E+03</pdfrwt>
<pdfrwt beam="2">  1       -1 0.20294758E+00 0.85305310E+03</pdfrwt>
<totfact> 0.65268032E+00</totfact>
</mgrwt>
</event>
<event>
 4    1  0.1008211E-007  0.1945500E+04  0.7818608E-02  0.8646053E-01
         -1   -1    0    0    0  501 -0.00000000000E+00  0.00000000000E+00  0.36768581917E+04  0.36768581917E+04  0.50400000000E-02 0.  1.
          1   -1    0    0  501    0  0.00000000000E+00 -0.00000000000E+00 -0.12403882422E+04  0.12403882422E+04  0.50400000000E-02 0. -1.
    8880023    1    1    2    0    0  0.16099554502E+04 -0.87132239982E+03  0.23872403071E+04  0.30795918181E+04  0.65864270000E+03 0.  0.
    8880022    1    1    2    0    0 -0.16099554502E+04  0.87132239982E+03  0.49229642460E+02  0.18376546158E+04  0.15294330000E+03 0.  0.
<mgrwt>
<rscale>  0 0.19177871E+04</rscale>
<asrwt>0</asrwt>
<pdfrwt beam="1">  1        1 0.19082896E+00 0.19454998E+04</pdfrwt>
<pdfrwt beam="2">  1       -1 0.56567048E+00 0.19454998E+04</pdfrwt>
<totfact> 0.54947309E-03</totfact>
</mgrwt>
</event>
<event>
 4    1  0.1008211E-007  0.8323750E+03  0.7818608E-02  0.9644729E-01
          1   -1    0    0  501    0  0.00000000000E+00  0.00000000000E+00  0.13984094595E+04  0.13984094595E+04  0.50400000000E-02 0. -1.
         -1   -1    0    0    0  501 -0.00000000000E+00 -0.00000000000E+00 -0.88946797679E+03  0.88946797680E+03  0.50400000000E-02 0.  1.
    8880023    1    1    2    0    0  0.16350060207E+03 -0.48198079080E+03 -0.62146297808E+03  0.10387802313E+04  0.65864270000E+03 0.  1.
    8880022    1    1    2    0    0 -0.16350060207E+03  0.48198079080E+03  0.11304044608E+04  0.12490972050E+04  0.15294330000E+03 0.  0.
<mgrwt>
<rscale>  0 0.74405158E+03</rscale>
<asrwt>0</asrwt>
<pdfrwt beam="1">  1        1 0.21513992E+00 0.83237500E+03</pdfrwt>
<pdfrwt beam="2">  1       -1 0.13684123E+00 0.83237500E+03</pdfrwt>
<totfact> 0.35240291E+00</totfact>
</mgrwt>
</event>
<event>
 4    1  0.1008211E-007  0.6969904E+03  0.7818608E-02  0.1000992E+00
         -1   -1    0    0    0  501 -0.00000000000E+00  0.00000000000E+00  0.48315456457E+03  0.48315456460E+03  0.50400000000E-02 0.  1.
          1   -1    0    0  501    0  0.00000000000E+00 -0.00000000000E+00 -0.68544231339E+03  0.68544231341E+03  0.50400000000E-02 0. -1.
    8880023    1    1    2    0    0  0.93565506038E+02  0.20792051819E+03  0.15893326873E+03  0.71488141393E+03  0.65864270000E+03 0.  0.
    8880022    1    1    2    0    0 -0.93565506038E+02 -0.20792051819E+03 -0.36122101755E+03  0.45371546408E+03  0.15294330000E+03 0.  0.
<mgrwt>
<rscale>  0 0.55217283E+03</rscale>
<asrwt>0</asrwt>
<pdfrwt beam="1">  1        1 0.10545266E+00 0.69699042E+03</pdfrwt>
<pdfrwt beam="2">  1       -1 0.74331471E-01 0.69699042E+03</pdfrwt>
<totfact> 0.52622586E+01</totfact>
</mgrwt>
</event>
<event>
 4    1  0.1008211E-007  0.9302935E+03  0.7818608E-02  0.9479053E-01
         -1   -1    0    0    0  501 -0.00000000000E+00  0.00000000000E+00  0.64046186526E+03  0.64046186528E+03  0.50400000000E-02 0.  1.
          1   -1    0    0  501    0  0.00000000000E+00 -0.00000000000E+00 -0.13647024348E+04  0.13647024348E+04  0.50400000000E-02 0. -1.
    8880023    1    1    2    0    0 -0.11031170815E+03 -0.64766275723E+03  0.10500886293E+03  0.93620125380E+03  0.65864270000E+03 0.  0.
    8880022    1    1    2    0    0  0.11031170815E+03  0.64766275723E+03 -0.82924943243E+03  0.10689630463E+04  0.15294330000E+03 0.  0.
<mgrwt>
<rscale>  0 0.85845922E+03</rscale>
<asrwt>0</asrwt>
<pdfrwt beam="1">  1        1 0.20995422E+00 0.93029346E+03</pdfrwt>
<pdfrwt beam="2">  1       -1 0.98532595E-01 0.93029346E+03</pdfrwt>
<totfact> 0.81227763E+00</totfact>
</mgrwt>
</event>
<event>
 4    1  0.1421005E-007  0.1196222E+04  0.7818608E-02  0.9160804E-01
         -1   -1    0    0    0  501 -0.00000000000E+00  0.00000000000E+00  0.24721389286E+04  0.24721389286E+04  0.50400000000E-02 0.  1.
          1   -1    0    0  501    0  0.00000000000E+00 -0.00000000000E+00 -0.19048119699E+04  0.19048119699E+04  0.50400000000E-02 0. -1.
    8880023    1    1    2    0    0 -0.99506961593E+03 -0.83505285450E+02  0.21726656081E+04  0.24802061858E+04  0.65864270000E+03 0.  0.
    8880022    1    1    2    0    0  0.99506961593E+03  0.83505285450E+02 -0.16053386493E+04  0.18967447127E+04  0.15294330000E+03 0.  0.
<mgrwt>
<rscale>  0 0.11467320E+04</rscale>
<asrwt>0</asrwt>
<pdfrwt beam="1">  1        1 0.29304800E+00 0.11962219E+04</pdfrwt>
<pdfrwt beam="2">  1       -1 0.38032906E+00 0.11962219E+04</pdfrwt>
<totfact> 0.33387298E-02</totfact>
</mgrwt>
</event>
<event>
 4    1  0.1008211E-007  0.7386651E+03  0.7818608E-02  0.9863853E-01
          1   -1    0    0  501    0  0.00000000000E+00  0.00000000000E+00  0.14529871631E+04  0.14529871631E+04  0.50400000000E-02 0. -1.
         -1   -1    0    0    0  501 -0.00000000000E+00 -0.00000000000E+00 -0.10374168735E+04  0.10374168735E+04  0.50400000000E-02 0.  1.
    8880023    1    1    2    0    0  0.29055894491E+03  0.16550355984E+03 -0.87695458549E+03  0.11465929880E+04  0.65864270000E+03 0.  1.
    8880022    1    1    2    0    0 -0.29055894491E+03 -0.16550355984E+03  0.12925248751E+04  0.13438110486E+04  0.15294330000E+03 0.  0.
<mgrwt>
<rscale>  0 0.62045576E+03</rscale>
<asrwt>0</asrwt>
<pdfrwt beam="1">  1        1 0.22353649E+00 0.73866510E+03</pdfrwt>
<pdfrwt beam="2">  1       -1 0.15960260E+00 0.73866510E+03</pdfrwt>
<totfact> 0.21761594E+00</totfact>
</mgrwt>
</event>
<event>
 4    1  0.1008211E-007  0.1001516E+04  0.7818608E-02  0.9379577E-01
         -1   -1    0    0    0  501 -0.00000000000E+00  0.00000000000E+00  0.29320562667E+04  0.29320562667E+04  0.50400000000E-02 0.  1.
          1   -1    0    0  501    0  0.00000000000E+00 -0.00000000000E+00 -0.36357859044E+03  0.36357859047E+03  0.50400000000E-02 0. -1.
    8880023    1    1    2    0    0 -0.74231866771E+03 -0.13485665723E+03  0.22494576909E+04  0.24623349553E+04  0.65864270000E+03 0.  0.
    8880022    1    1    2    0    0  0.74231866771E+03  0.13485665723E+03  0.31901998531E+03  0.83329990188E+03  0.15294330000E+03 0.  0.
<mgrwt>
<rscale>  0 0.93775604E+03</rscale>
<asrwt>0</asrwt>
<pdfrwt beam="1">  1        1 0.55935169E-01 0.10015156E+04</pdfrwt>
<pdfrwt beam="2">  1       -1 0.45108557E+00 0.10015156E+04</pdfrwt>
<totfact> 0.22245967E-01</totfact>
</mgrwt>
</event>
<event>
 4    1  0.1142997E-007  0.7350711E+03  0.7818608E-02  0.9874544E-01
         -1   -1    0    0    0  501 -0.00000000000E+00  0.00000000000E+00  0.11896330778E+04  0.11896330778E+04  0.50400000000E-02 0.  1.
          1   -1    0    0  501    0  0.00000000000E+00 -0.00000000000E+00 -0.28937937137E+04  0.28937937137E+04  0.50400000000E-02 0. -1.
    8880023    1    1    2    0    0 -0.11827255293E+03  0.30418883496E+03  0.10632706125E+04  0.12926228552E+04  0.65864270000E+03 0.  1.
    8880022    1    1    2    0    0  0.11827255293E+03 -0.30418883496E+03 -0.27674312483E+04  0.27908039363E+04  0.15294330000E+03 0.  0.
<mgrwt>
<rscale>  0 0.61510986E+03</rscale>
<asrwt>0</asrwt>
<pdfrwt beam="1">  1        1 0.44519903E+00 0.73507105E+03</pdfrwt>
<pdfrwt beam="2">  1       -1 0.18302047E+00 0.73507105E+03</pdfrwt>
<totfact> 0.15436716E-01</totfact>
</mgrwt>
</event>
<event>
 4    1  0.1008211E-007  0.7829577E+03  0.7818608E-02  0.9748935E-01
          1   -1    0    0  501    0  0.00000000000E+00  0.00000000000E+00  0.15627192382E+04  0.15627192382E+04  0.50400000000E-02 0. -1.
         -1   -1    0    0    0  501 -0.00000000000E+00 -0.00000000000E+00 -0.53372322142E+03  0.53372322144E+03  0.50400000000E-02 0.  1.
    8880023    1    1    2    0    0  0.42031965398E+03 -0.50437456788E+02 -0.18257327787E+03  0.80396253434E+03  0.65864270000E+03 0.  1.
    8880022    1    1    2    0    0 -0.42031965398E+03  0.50437456788E+02  0.12115692947E+04  0.12924799253E+04  0.15294330000E+03 0.  0.
<mgrwt>
<rscale>  0 0.68176512E+03</rscale>
<asrwt>0</asrwt>
<pdfrwt beam="1">  1        1 0.24041834E+00 0.78295770E+03</pdfrwt>
<pdfrwt beam="2">  1       -1 0.82111265E-01 0.78295770E+03</pdfrwt>
<totfact> 0.90368319E+00</totfact>
</mgrwt>
</event>
<event>
 4    1  0.1008211E-007  0.7254719E+03  0.7818608E-02  0.9904488E-01
          1   -1    0    0  501    0  0.00000000000E+00  0.00000000000E+00  0.33854862807E+04  0.33854862807E+04  0.50400000000E-02 0. -1.
         -1   -1    0    0    0  501 -0.00000000000E+00 -0.00000000000E+00 -0.10702295471E+03  0.10702295482E+03  0.50400000000E-02 0.  1.
    8880023    1    1    2    0    0  0.15659245656E+03 -0.26072615920E+03  0.13343482320E+04  0.15188135956E+04  0.65864270000E+03 0.  1.
    8880022    1    1    2    0    0 -0.15659245656E+03  0.26072615920E+03  0.19441150939E+04  0.19736956399E+04  0.15294330000E+03 0.  0.
<mgrwt>
<rscale>  0 0.60044284E+03</rscale>
<asrwt>0</asrwt>
<pdfrwt beam="1">  1        1 0.52084406E+00 0.72547194E+03</pdfrwt>
<pdfrwt beam="2">  1       -1 0.16465069E-01 0.72547194E+03</pdfrwt>
<totfact> 0.93350326E+00</totfact>
</mgrwt>
</event>
<event>
 4    1  0.1008211E-007  0.9755821E+03  0.7818608E-02  0.9414225E-01
          1   -1    0    0  501    0  0.00000000000E+00  0.00000000000E+00  0.11101523826E+04  0.11101523826E+04  0.50400000000E-02 0. -1.
         -1   -1    0    0    0  501 -0.00000000000E+00 -0.00000000000E+00 -0.96177209493E+03  0.96177209495E+03  0.50400000000E-02 0.  1.
    8880023    1    1    2    0    0 -0.70598303977E+03 -0.13977917864E+03 -0.49550693511E+03  0.10942063792E+04  0.65864270000E+03 0.  1.
    8880022    1    1    2    0    0  0.70598303977E+03  0.13977917864E+03  0.64388722274E+03  0.97771809835E+03  0.15294330000E+03 0.  0.
<mgrwt>
<rscale>  0 0.90914223E+03</rscale>
<asrwt>0</asrwt>
<pdfrwt beam="1">  1        1 0.17079267E+00 0.97558212E+03</pdfrwt>
<pdfrwt beam="2">  1       -1 0.14796494E+00 0.97558212E+03</pdfrwt>
<totfact> 0.45358642E+00</totfact>
</mgrwt>
</event>
<event>
 4    1  0.1008211E-007  0.9173898E+03  0.7818608E-02  0.9498673E-01
         -1   -1    0    0    0  501 -0.00000000000E+00  0.00000000000E+00  0.96061056240E+03  0.96061056242E+03  0.50400000000E-02 0.  1.
          1   -1    0    0  501    0  0.00000000000E+00 -0.00000000000E+00 -0.76881092278E+03  0.76881092279E+03  0.50400000000E-02 0. -1.
    8880023    1    1    2    0    0  0.61928531025E+03 -0.15581914689E+03  0.45249786038E+03  0.10229166251E+04  0.65864270000E+03 0.  1.
    8880022    1    1    2    0    0 -0.61928531025E+03  0.15581914689E+03 -0.26069822075E+03  0.70650486010E+03  0.15294330000E+03 0.  0.
<mgrwt>
<rscale>  0 0.84381738E+03</rscale>
<asrwt>0</asrwt>
<pdfrwt beam="1">  1        1 0.11827860E+00 0.91738983E+03</pdfrwt>
<pdfrwt beam="2">  1       -1 0.14778624E+00 0.91738983E+03</pdfrwt>
<totfact> 0.86490010E+00</totfact>
</mgrwt>
</event>
<event>
 4    1  0.1008211E-007  0.6727438E+03  0.7818608E-02  0.1013768E+00
          1   -1    0    0  501    0  0.00000000000E+00  0.00000000000E+00  0.18292879737E+04  0.18292879737E+04  0.50400000000E-02 0. -1.
         -1   -1    0    0    0  501 -0.00000000000E+00 -0.00000000000E+00 -0.17353669500E+03  0.17353669508E+03  0.50400000000E-02 0.  1.
    8880023    1    1    2    0    0  0.26479450092E+02  0.13443522752E+03  0.52438221696E+03  0.85297180927E+03  0.65864270000E+03 0.  0.
    8880022    1    1    2    0    0 -0.26479450092E+02 -0.13443522752E+03  0.11313690617E+04  0.11498528595E+04  0.15294330000E+03 0.  0.
<mgrwt>
<rscale>  0 0.50004272E+03</rscale>
<asrwt>0</asrwt>
<pdfrwt beam="1">  1        1 0.28142892E+00 0.67274378E+03</pdfrwt>
<pdfrwt beam="2">  1       -1 0.26697953E-01 0.67274378E+03</pdfrwt>
<totfact> 0.50659143E+01</totfact>
</mgrwt>
</event>
<event>
 4    1  0.1008211E-007  0.7380714E+03  0.7818608E-02  0.9865601E-01
          1   -1    0    0  501    0  0.00000000000E+00  0.00000000000E+00  0.84683536717E+03  0.84683536719E+03  0.50400000000E-02 0. -1.
         -1   -1    0    0    0  501 -0.00000000000E+00 -0.00000000000E+00 -0.88427685239E+03  0.88427685240E+03  0.50400000000E-02 0.  1.
    8880023    1    1    2    0    0  0.72441548371E+02 -0.32510222022E+03 -0.67209582097E+03  0.99822954792E+03  0.65864270000E+03 0.  1.
    8880022    1    1    2    0    0 -0.72441548371E+02  0.32510222022E+03  0.63465433575E+03  0.73288267167E+03  0.15294330000E+03 0.  0.
<mgrwt>
<rscale>  0 0.61957770E+03</rscale>
<asrwt>0</asrwt>
<pdfrwt beam="1">  1        1 0.13028236E+00 0.73807143E+03</pdfrwt>
<pdfrwt beam="2">  1       -1 0.13604259E+00 0.73807143E+03</pdfrwt>
<totfact> 0.94052703E+00</totfact>
</mgrwt>
</event>
<event>
 4    1  0.1008211E-007  0.1157714E+04  0.7818608E-02  0.9199365E-01
          1   -1    0    0  501    0  0.00000000000E+00  0.00000000000E+00  0.29983603334E+04  0.29983603334E+04  0.50400000000E-02 0. -1.
         -1   -1    0    0    0  501 -0.00000000000E+00 -0.00000000000E+00 -0.76639591845E+03  0.76639591847E+03  0.50400000000E-02 0.  1.
    8880023    1    1    2    0    0 -0.93838715286E+03 -0.16099957136E+03 -0.17587757787E+03  0.11709971987E+04  0.65864270000E+03 0.  1.
    8880022    1    1    2    0    0  0.93838715286E+03  0.16099957136E+03  0.24078419928E+04  0.25937590532E+04  0.15294330000E+03 0.  0.
<mgrwt>
<rscale>  0 0.11059983E+04</rscale>
<asrwt>0</asrwt>
<pdfrwt beam="1">  1        1 0.46128620E+00 0.11577139E+04</pdfrwt>
<pdfrwt beam="2">  1       -1 0.11790707E+00 0.11577139E+04</pdfrwt>
<totfact> 0.38780109E-01</totfact>
</mgrwt>
</event>
<event>
 4    1  0.1008211E-007  0.6637576E+03  0.7818608E-02  0.1020599E+00
         -1   -1    0    0    0  501 -0.00000000000E+00  0.00000000000E+00  0.11019444015E+04  0.11019444015E+04  0.50400000000E-02 0.  1.
          1   -1    0    0  501    0  0.00000000000E+00 -0.00000000000E+00 -0.68225402927E+03  0.68225402929E+03  0.50400000000E-02 0. -1.
    8880023    1    1    2    0    0  0.67377275857E+02 -0.47162216991E+02  0.98782650458E+03  0.11901157009E+04  0.65864270000E+03 0.  1.
    8880022    1    1    2    0    0 -0.67377275857E+02  0.47162216991E+02 -0.56813613240E+03  0.59408272990E+03  0.15294330000E+03 0.  0.
<mgrwt>
<rscale>  0 0.47470978E+03</rscale>
<asrwt>0</asrwt>
<pdfrwt beam="1">  1        1 0.10496216E+00 0.66375762E+03</pdfrwt>
<pdfrwt beam="2">  1       -1 0.16952991E+00 0.66375762E+03</pdfrwt>
<totfact> 0.73496747E+00</totfact>
</mgrwt>
</event>
<event>
 4    1  0.1008211E-007  0.1442660E+04  0.7818608E-02  0.8951225E-01
          1   -1    0    0  501    0  0.00000000000E+00  0.00000000000E+00  0.16315538638E+04  0.16315538639E+04  0.50400000000E-02 0. -1.
         -1   -1    0    0    0  501 -0.00000000000E+00 -0.00000000000E+00 -0.16682277288E+04  0.16682277288E+04  0.50400000000E-02 0.  1.
    8880023    1    1    2    0    0  0.11333112462E+04  0.60254642153E+03 -0.94083010149E+03  0.17223321564E+04  0.65864270000E+03 0.  0.
    8880022    1    1    2    0    0 -0.11333112462E+04 -0.60254642153E+03  0.90415623649E+03  0.15774494363E+04  0.15294330000E+03 0.  0.
<mgrwt>
<rscale>  0 0.14035892E+04</rscale>
<asrwt>0</asrwt>
<pdfrwt beam="1">  1        1 0.25100829E+00 0.14426596E+04</pdfrwt>
<pdfrwt beam="2">  1       -1 0.25665042E+00 0.14426596E+04</pdfrwt>
<totfact> 0.31854417E-01</totfact>
</mgrwt>
</event>
<event>
 4    1  0.1008211E-007  0.7659558E+03  0.7818608E-02  0.9789926E-01
          1   -1    0    0  501    0  0.00000000000E+00  0.00000000000E+00  0.13181091754E+04  0.13181091754E+04  0.50400000000E-02 0. -1.
         -1   -1    0    0    0  501 -0.00000000000E+00 -0.00000000000E+00 -0.72631027672E+03  0.72631027674E+03  0.50400000000E-02 0.  1.
    8880023    1    1    2    0    0  0.38210815014E+03 -0.82894011629E+02 -0.47272955841E+03  0.90008971621E+03  0.65864270000E+03 0.  1.
    8880022    1    1    2    0    0 -0.38210815014E+03  0.82894011629E+02  0.10645284571E+04  0.11443297359E+04  0.15294330000E+03 0.  0.
<mgrwt>
<rscale>  0 0.65906005E+03</rscale>
<asrwt>0</asrwt>
<pdfrwt beam="1">  1        1 0.20278603E+00 0.76595578E+03</pdfrwt>
<pdfrwt beam="2">  1       -1 0.11174004E+00 0.76595578E+03</pdfrwt>
<totfact> 0.66850972E+00</totfact>
</mgrwt>
</event>
<event>
 4    1  0.1008211E-007  0.6914478E+03  0.7818608E-02  0.1003472E+00
          1   -1    0    0  501    0  0.00000000000E+00  0.00000000000E+00  0.12338978741E+04  0.12338978741E+04  0.50400000000E-02 0. -1.
         -1   -1    0    0    0  501 -0.00000000000E+00 -0.00000000000E+00 -0.68513328070E+03  0.68513328072E+03  0.50400000000E-02 0.  1.
    8880023    1    1    2    0    0  0.12078916598E+03  0.17233644609E+03 -0.49046320728E+03  0.84773476821E+03  0.65864270000E+03 0.  1.
    8880022    1    1    2    0    0 -0.12078916598E+03 -0.17233644609E+03  0.10392278006E+04  0.10712963866E+04  0.15294330000E+03 0.  0.
<mgrwt>
<rscale>  0 0.54153724E+03</rscale>
<asrwt>0</asrwt>
<pdfrwt beam="1">  1        1 0.18983044E+00 0.69144781E+03</pdfrwt>
<pdfrwt beam="2">  1       -1 0.10540512E+00 0.69144781E+03</pdfrwt>
<totfact> 0.89003056E+00</totfact>
</mgrwt>
</event>
<event>
 4    1  0.1008211E-007  0.7764627E+03  0.7818608E-02  0.9764213E-01
          1   -1    0    0  501    0  0.00000000000E+00  0.00000000000E+00  0.97153800578E+03  0.97153800579E+03  0.50400000000E-02 0. -1.
         -1   -1    0    0    0  501 -0.00000000000E+00 -0.00000000000E+00 -0.23068712094E+04  0.23068712094E+04  0.50400000000E-02 0.  1.
    8880023    1    1    2    0    0 -0.36252907812E+03  0.19405345098E+03 -0.21868022501E+04  0.23205599242E+04  0.65864270000E+03 0.  1.
    8880022    1    1    2    0    0  0.36252907812E+03 -0.19405345098E+03  0.85146904645E+03  0.95784929106E+03  0.15294330000E+03 0.  0.
<mgrwt>
<rscale>  0 0.67318965E+03</rscale>
<asrwt>0</asrwt>
<pdfrwt beam="1">  1        1 0.14946739E+00 0.77646267E+03</pdfrwt>
<pdfrwt beam="2">  1       -1 0.35490326E+00 0.77646267E+03</pdfrwt>
<totfact> 0.24514137E-01</totfact>
</mgrwt>
</event>
<event>
 4    1  0.1008211E-007  0.1133754E+04  0.7818608E-02  0.9224374E-01
          1   -1    0    0  501    0  0.00000000000E+00  0.00000000000E+00  0.15455577081E+04  0.15455577081E+04  0.50400000000E-02 0. -1.
         -1   -1    0    0    0  501 -0.00000000000E+00 -0.00000000000E+00 -0.10892708210E+04  0.10892708210E+04  0.50400000000E-02 0.  1.
    8880023    1    1    2    0    0 -0.24913801732E+03  0.88854844483E+03 -0.55069543911E+03  0.12604220576E+04  0.65864270000E+03 0.  1.
    8880022    1    1    2    0    0  0.24913801732E+03 -0.88854844483E+03  0.10069823262E+04  0.13744064715E+04  0.15294330000E+03 0.  0.
<mgrwt>
<rscale>  0 0.10805351E+04</rscale>
<asrwt>0</asrwt>
<pdfrwt beam="1">  1        1 0.23777811E+00 0.11337541E+04</pdfrwt>
<pdfrwt beam="2">  1       -1 0.16758013E+00 0.11337541E+04</pdfrwt>
<totfact> 0.15417033E+00</totfact>
</mgrwt>
</event>
<event>
 4    1  0.1008211E-007  0.6600123E+03  0.7818608E-02  0.1024144E+00
         -1   -1    0    0    0  501 -0.00000000000E+00  0.00000000000E+00  0.22771944609E+03  0.22771944615E+03  0.50400000000E-02 0.  1.
          1   -1    0    0  501    0  0.00000000000E+00 -0.00000000000E+00 -0.75804150497E+03  0.75804150499E+03  0.50400000000E-02 0. -1.
    8880023    1    1    2    0    0  0.42108791582E+02 -0.57303447238E+01 -0.35564912722E+03  0.74973494992E+03  0.65864270000E+03 0.  1.
    8880022    1    1    2    0    0 -0.42108791582E+02  0.57303447238E+01 -0.17467293166E+03  0.23602600121E+03  0.15294330000E+03 0. -1.
<mgrwt>
<rscale>  0 0.46220431E+03</rscale>
<asrwt>0</asrwt>
<pdfrwt beam="1">  1        1 0.11662177E+00 0.66001227E+03</pdfrwt>
<pdfrwt beam="2">  1       -1 0.35033761E-01 0.66001227E+03</pdfrwt>
<totfact> 0.19018019E+02</totfact>
</mgrwt>
</event>
<event>
 4    1  0.1008211E-007  0.1061859E+04  0.7818608E-02  0.9304760E-01
          1   -1    0    0  501    0  0.00000000000E+00  0.00000000000E+00  0.18624351681E+04  0.18624351681E+04  0.50400000000E-02 0. -1.
         -1   -1    0    0    0  501 -0.00000000000E+00 -0.00000000000E+00 -0.73870769067E+03  0.73870769069E+03  0.50400000000E-02 0.  1.
    8880023    1    1    2    0    0  0.19326488430E+02 -0.83268230990E+03  0.13567077470E+04  0.17228463250E+04  0.65864270000E+03 0.  0.
    8880022    1    1    2    0    0 -0.19326488430E+02  0.83268230990E+03 -0.23298026955E+03  0.87829653386E+03  0.15294330000E+03 0.  0.
<mgrwt>
<rscale>  0 0.10034584E+04</rscale>
<asrwt>0</asrwt>
<pdfrwt beam="1">  1        1 0.28652849E+00 0.10618585E+04</pdfrwt>
<pdfrwt beam="2">  1       -1 0.11364734E+00 0.10618585E+04</pdfrwt>
<totfact> 0.26115789E+00</totfact>
</mgrwt>
</event>
<event>
 4    1  0.1008211E-007  0.1423293E+04  0.7818608E-02  0.8965791E-01
         -1   -1    0    0    0  501 -0.00000000000E+00  0.00000000000E+00  0.11408457552E+04  0.11408457553E+04  0.50400000000E-02 0.  1.
          1   -1    0    0  501    0  0.00000000000E+00 -0.00000000000E+00 -0.17914761802E+04  0.17914761802E+04  0.50400000000E-02 0. -1.
    8880023    1    1    2    0    0  0.16978687689E+03 -0.12502505893E+04  0.14847593420E+03  0.14310169212E+04  0.65864270000E+03 0.  0.
    8880022    1    1    2    0    0 -0.16978687689E+03  0.12502505893E+04 -0.79910635919E+03  0.15013050143E+04  0.15294330000E+03 0.  0.
<mgrwt>
<rscale>  0 0.13835792E+04</rscale>
<asrwt>0</asrwt>
<pdfrwt beam="1">  1        1 0.27561172E+00 0.14232935E+04</pdfrwt>
<pdfrwt beam="2">  1       -1 0.17551473E+00 0.14232935E+04</pdfrwt>
<totfact> 0.88474188E-01</totfact>
</mgrwt>
</event>
<event>
 4    1  0.1008211E-007  0.7922206E+03  0.7818608E-02  0.9727876E-01
         -1   -1    0    0    0  501 -0.00000000000E+00  0.00000000000E+00  0.10271352871E+04  0.10271352871E+04  0.50400000000E-02 0.  1.
          1   -1    0    0  501    0  0.00000000000E+00 -0.00000000000E+00 -0.12113556209E+04  0.12113556209E+04  0.50400000000E-02 0. -1.
    8880023    1    1    2    0    0  0.42096530513E+03  0.12880780302E+03  0.81459418666E+03  0.11362997551E+04  0.65864270000E+03 0.  1.
    8880022    1    1    2    0    0 -0.42096530513E+03 -0.12880780302E+03 -0.99881452045E+03  0.11021911529E+04  0.15294330000E+03 0.  0.
<mgrwt>
<rscale>  0 0.69381038E+03</rscale>
<asrwt>0</asrwt>
<pdfrwt beam="1">  1        1 0.18636240E+00 0.79222058E+03</pdfrwt>
<pdfrwt beam="2">  1       -1 0.15802081E+00 0.79222058E+03</pdfrwt>
<totfact> 0.32786833E+00</totfact>
</mgrwt>
</event>
<event>
 4    1  0.1008211E-007  0.1507452E+04  0.7818608E-02  0.8904391E-01
         -1   -1    0    0    0  501 -0.00000000000E+00  0.00000000000E+00  0.80655259565E+03  0.80655259566E+03  0.50400000000E-02 0.  1.
          1   -1    0    0  501    0  0.00000000000E+00 -0.00000000000E+00 -0.40350095362E+04  0.40350095363E+04  0.50400000000E-02 0. -1.
    8880023    1    1    2    0    0  0.76858394862E+03 -0.11170861699E+04 -0.20099771039E+03  0.15207935702E+04  0.65864270000E+03 0.  1.
    8880022    1    1    2    0    0 -0.76858394862E+03  0.11170861699E+04 -0.30274592302E+04  0.33207685618E+04  0.15294330000E+03 0.  0.
<mgrwt>
<rscale>  0 0.14703815E+04</rscale>
<asrwt>0</asrwt>
<pdfrwt beam="1">  1        1 0.62077069E+00 0.15074525E+04</pdfrwt>
<pdfrwt beam="2">  1       -1 0.12408502E+00 0.15074525E+04</pdfrwt>
<totfact> 0.49151641E-02</totfact>
</mgrwt>
</event>
<event>
 4    1  0.1095176E-007  0.9446137E+03  0.7818608E-02  0.9457907E-01
          1   -1    0    0  501    0  0.00000000000E+00  0.00000000000E+00  0.18659692655E+04  0.18659692655E+04  0.50400000000E-02 0. -1.
         -1   -1    0    0    0  501 -0.00000000000E+00 -0.00000000000E+00 -0.13557371318E+04  0.13557371318E+04  0.50400000000E-02 0.  1.
    8880023    1    1    2    0    0 -0.61613135268E+03 -0.28083250939E+03 -0.11108920337E+04  0.14582098816E+04  0.65864270000E+03 0.  1.
    8880022    1    1    2    0    0  0.61613135268E+03  0.28083250939E+03  0.16211241674E+04  0.17634965158E+04  0.15294330000E+03 0.  0.
<mgrwt>
<rscale>  0 0.87459627E+03</rscale>
<asrwt>0</asrwt>
<pdfrwt beam="1">  1        1 0.28707219E+00 0.94461365E+03</pdfrwt>
<pdfrwt beam="2">  1       -1 0.20857494E+00 0.94461365E+03</pdfrwt>
<totfact> 0.49340650E-01</totfact>
</mgrwt>
</event>
<event>
 4    1  0.1008211E-007  0.1418596E+04  0.7818608E-02  0.8969366E-01
         -1   -1    0    0    0  501 -0.00000000000E+00  0.00000000000E+00  0.27068140074E+04  0.27068140074E+04  0.50400000000E-02 0.  1.
          1   -1    0    0  501    0  0.00000000000E+00 -0.00000000000E+00 -0.15638530665E+04  0.15638530665E+04  0.50400000000E-02 0. -1.
    8880023    1    1    2    0    0 -0.11955555696E+04  0.38632986071E+03  0.22026431087E+04  0.26199333488E+04  0.65864270000E+03 0.  0.
    8880022    1    1    2    0    0  0.11955555696E+04 -0.38632986071E+03 -0.10596821679E+04  0.16507337251E+04  0.15294330000E+03 0.  0.
<mgrwt>
<rscale>  0 0.13787219E+04</rscale>
<asrwt>0</asrwt>
<pdfrwt beam="1">  1        1 0.24059278E+00 0.14185958E+04</pdfrwt>
<pdfrwt beam="2">  1       -1 0.41643292E+00 0.14185958E+04</pdfrwt>
<totfact> 0.31209287E-02</totfact>
</mgrwt>
</event>
<event>
 4    1  0.1008211E-007  0.1065990E+04  0.7818608E-02  0.9299902E-01
         -1   -1    0    0    0  501 -0.00000000000E+00  0.00000000000E+00  0.10768132348E+04  0.10768132348E+04  0.50400000000E-02 0.  1.
          1   -1    0    0  501    0  0.00000000000E+00 -0.00000000000E+00 -0.14013143839E+04  0.14013143839E+04  0.50400000000E-02 0. -1.
    8880023    1    1    2    0    0 -0.12764939906E+03 -0.82839004308E+03  0.59808437301E+03  0.12223091082E+04  0.65864270000E+03 0.  0.
    8880022    1    1    2    0    0  0.12764939906E+03  0.82839004308E+03 -0.92258552215E+03  0.12558185105E+04  0.15294330000E+03 0.  0.
<mgrwt>
<rscale>  0 0.10079190E+04</rscale>
<asrwt>0</asrwt>
<pdfrwt beam="1">  1        1 0.21558683E+00 0.10659900E+04</pdfrwt>
<pdfrwt beam="2">  1       -1 0.16566357E+00 0.10659900E+04</pdfrwt>
<totfact> 0.20236389E+00</totfact>
</mgrwt>
</event>
<event>
 4    1  0.1008211E-007  0.7829221E+03  0.7818608E-02  0.9749017E-01
         -1   -1    0    0    0  501 -0.00000000000E+00  0.00000000000E+00  0.26865223138E+03  0.26865223143E+03  0.50400000000E-02 0.  1.
          1   -1    0    0  501    0  0.00000000000E+00 -0.00000000000E+00 -0.26079201844E+04  0.26079201844E+04  0.50400000000E-02 0. -1.
    8880023    1    1    2    0    0  0.30069225019E+03 -0.29789418534E+03 -0.38746467683E+03  0.87355357994E+03  0.65864270000E+03 0.  1.
    8880022    1    1    2    0    0 -0.30069225019E+03  0.29789418534E+03 -0.19518032762E+04  0.20030188359E+04  0.15294330000E+03 0.  0.
<mgrwt>
<rscale>  0 0.68171840E+03</rscale>
<asrwt>0</asrwt>
<pdfrwt beam="1">  1        1 0.40121847E+00 0.78292208E+03</pdfrwt>
<pdfrwt beam="2">  1       -1 0.41331114E-01 0.78292208E+03</pdfrwt>
<totfact> 0.68755034E+00</totfact>
</mgrwt>
</event>
<event>
 4    1  0.1008211E-007  0.1214570E+04  0.7818608E-02  0.9143088E-01
          1   -1    0    0  501    0  0.00000000000E+00  0.00000000000E+00  0.18509521558E+04  0.18509521559E+04  0.50400000000E-02 0. -1.
         -1   -1    0    0    0  501 -0.00000000000E+00 -0.00000000000E+00 -0.87388164567E+03  0.87388164568E+03  0.50400000000E-02 0.  1.
    8880023    1    1    2    0    0 -0.91570061082E+03  0.45040240023E+03 -0.11788528903E+03  0.12202774596E+04  0.65864270000E+03 0.  1.
    8880022    1    1    2    0    0  0.91570061082E+03 -0.45040240023E+03  0.10949557992E+04  0.15045563419E+04  0.15294330000E+03 0.  0.
<mgrwt>
<rscale>  0 0.11660668E+04</rscale>
<asrwt>0</asrwt>
<pdfrwt beam="1">  1        1 0.28476187E+00 0.12145699E+04</pdfrwt>
<pdfrwt beam="2">  1       -1 0.13444333E+00 0.12145699E+04</pdfrwt>
<totfact> 0.17183437E+00</totfact>
</mgrwt>
</event>
<event>
 4    1  0.1008211E-007  0.6663199E+03  0.7818608E-02  0.1018451E+00
         -1   -1    0    0    0  501 -0.00000000000E+00  0.00000000000E+00  0.49235682066E+03  0.49235682068E+03  0.50400000000E-02 0.  1.
          1   -1    0    0  501    0  0.00000000000E+00 -0.00000000000E+00 -0.14795104543E+04  0.14795104543E+04  0.50400000000E-02 0. -1.
    8880023    1    1    2    0    0  0.40415197230E+02 -0.92404448315E+02  0.25709840298E+03  0.71420008773E+03  0.65864270000E+03 0.  1.
    8880022    1    1    2    0    0 -0.40415197230E+02  0.92404448315E+02 -0.12442520366E+04  0.12576671872E+04  0.15294330000E+03 0.  0.
<mgrwt>
<rscale>  0 0.48249818E+03</rscale>
<asrwt>0</asrwt>
<pdfrwt beam="1">  1        1 0.22761699E+00 0.66631988E+03</pdfrwt>
<pdfrwt beam="2">  1       -1 0.75747204E-01 0.66631988E+03</pdfrwt>
<totfact> 0.12434218E+01</totfact>
</mgrwt>
</event>
<event>
 4    1  0.1008211E-007  0.7385145E+03  0.7818608E-02  0.9864295E-01
          1   -1    0    0  501    0  0.00000000000E+00  0.00000000000E+00  0.85443392525E+03  0.85443392526E+03  0.50400000000E-02 0. -1.
         -1   -1    0    0    0  501 -0.00000000000E+00 -0.00000000000E+00 -0.10015537501E+04  0.10015537501E+04  0.50400000000E-02 0.  1.
    8880023    1    1    2    0    0 -0.22505349372E+02 -0.33329717306E+03 -0.81121913380E+03  0.10970324451E+04  0.65864270000E+03 0.  1.
    8880022    1    1    2    0    0  0.22505349372E+02  0.33329717306E+03  0.66409930897E+03  0.75895523024E+03  0.15294330000E+03 0.  0.
<mgrwt>
<rscale>  0 0.62023323E+03</rscale>
<asrwt>0</asrwt>
<pdfrwt beam="1">  1        1 0.13145137E+00 0.73851452E+03</pdfrwt>
<pdfrwt beam="2">  1       -1 0.15408519E+00 0.73851452E+03</pdfrwt>
<totfact> 0.66696573E+00</totfact>
</mgrwt>
</event>
<event>
 4    1  0.1008211E-007  0.8966471E+03  0.7818608E-02  0.9531436E-01
          1   -1    0    0  501    0  0.00000000000E+00  0.00000000000E+00  0.20349632394E+04  0.20349632394E+04  0.50400000000E-02 0. -1.
         -1   -1    0    0    0  501 -0.00000000000E+00 -0.00000000000E+00 -0.40569768784E+03  0.40569768788E+03  0.50400000000E-02 0.  1.
    8880023    1    1    2    0    0 -0.59138100723E+03  0.14294839931E+03  0.25850717999E+03  0.93316767462E+03  0.65864270000E+03 0.  0.
    8880022    1    1    2    0    0  0.59138100723E+03 -0.14294839931E+03  0.13707583715E+04  0.15074932526E+04  0.15294330000E+03 0.  0.
<mgrwt>
<rscale>  0 0.82005344E+03</rscale>
<asrwt>0</asrwt>
<pdfrwt beam="1">  1        1 0.31307127E+00 0.89664706E+03</pdfrwt>
<pdfrwt beam="2">  1       -1 0.62415029E-01 0.89664706E+03</pdfrwt>
<totfact> 0.75320986E+00</totfact>
</mgrwt>
</event>
<event>
 4    1  0.1008211E-007  0.6641574E+03  0.7818608E-02  0.1020251E+00
         -1   -1    0    0    0  501 -0.00000000000E+00  0.00000000000E+00  0.39499228087E+03  0.39499228091E+03  0.50400000000E-02 0.  1.
          1   -1    0    0  501    0  0.00000000000E+00 -0.00000000000E+00 -0.98232443231E+03  0.98232443233E+03  0.50400000000E-02 0. -1.
    8880023    1    1    2    0    0 -0.52791311144E+02  0.67141560234E+02  0.96744844145E+02  0.67116665797E+03  0.65864270000E+03 0.  1.
    8880022    1    1    2    0    0  0.52791311144E+02 -0.67141560234E+02 -0.68407699558E+03  0.70615005526E+03  0.15294330000E+03 0.  0.
<mgrwt>
<rscale>  0 0.47596150E+03</rscale>
<asrwt>0</asrwt>
<pdfrwt beam="1">  1        1 0.15112684E+00 0.66415745E+03</pdfrwt>
<pdfrwt beam="2">  1       -1 0.60768043E-01 0.66415745E+03</pdfrwt>
<totfact> 0.44372798E+01</totfact>
</mgrwt>
</event>
<event>
 4    1  0.1008211E-007  0.1151119E+04  0.7818608E-02  0.9206167E-01
         -1   -1    0    0    0  501 -0.00000000000E+00  0.00000000000E+00  0.14656419907E+04  0.14656419908E+04  0.50400000000E-02 0.  1.
          1   -1    0    0  501    0  0.00000000000E+00 -0.00000000000E+00 -0.96534544159E+03  0.96534544160E+03  0.50400000000E-02 0. -1.
    8880023    1    1    2    0    0  0.14212950051E+03 -0.93330844167E+03  0.83025033099E+03  0.14192925211E+04  0.65864270000E+03 0.  0.
    8880022    1    1    2    0    0 -0.14212950051E+03  0.93330844167E+03 -0.32995378184E+03  0.10116949112E+04  0.15294330000E+03 0.  0.
<mgrwt>
<rscale>  0 0.10989996E+04</rscale>
<asrwt>0</asrwt>
<pdfrwt beam="1">  1        1 0.14851468E+00 0.11511193E+04</pdfrwt>
<pdfrwt beam="2">  1       -1 0.22548338E+00 0.11511193E+04</pdfrwt>
<totfact> 0.16088805E+00</totfact>
</mgrwt>
</event>
<event>
 4    1  0.1008211E-007  0.9765126E+03  0.7818608E-02  0.9412953E-01
         -1   -1    0    0    0  501 -0.00000000000E+00  0.00000000000E+00  0.48155573166E+03  0.48155573169E+03  0.50400000000E-02 0.  1.
          1   -1    0    0  501    0  0.00000000000E+00 -0.00000000000E+00 -0.17395260424E+04  0.17395260424E+04  0.50400000000E-02 0. -1.
    8880023    1    1    2    0    0  0.64417230285E+03 -0.32374159979E+03 -0.31873601344E+03  0.10272144040E+04  0.65864270000E+03 0.  0.
    8880022    1    1    2    0    0 -0.64417230285E+03  0.32374159979E+03 -0.93923429726E+03  0.11938673701E+04  0.15294330000E+03 0.  0.
<mgrwt>
<rscale>  0 0.91017347E+03</rscale>
<asrwt>0</asrwt>
<pdfrwt beam="1">  1        1 0.26761939E+00 0.97651256E+03</pdfrwt>
<pdfrwt beam="2">  1       -1 0.74085498E-01 0.97651256E+03</pdfrwt>
<totfact> 0.83071354E+00</totfact>
</mgrwt>
</event>
<event>
 4    1  0.1008211E-007  0.1490700E+04  0.7818608E-02  0.8916231E-01
          1   -1    0    0  501    0  0.00000000000E+00  0.00000000000E+00  0.12179957566E+04  0.12179957566E+04  0.50400000000E-02 0. -1.
         -1   -1    0    0    0  501 -0.00000000000E+00 -0.00000000000E+00 -0.19537059698E+04  0.19537059698E+04  0.50400000000E-02 0.  1.
    8880023    1    1    2    0    0  0.12000283380E+04 -0.59017545508E+03  0.23912096542E+03  0.15097563122E+04  0.65864270000E+03 0. -1.
    8880022    1    1    2    0    0 -0.12000283380E+04  0.59017545508E+03 -0.97483117861E+03  0.16619454142E+04  0.15294330000E+03 0.  0.
<mgrwt>
<rscale>  0 0.14531331E+04</rscale>
<asrwt>0</asrwt>
<pdfrwt beam="1">  1        1 0.18738396E+00 0.14906996E+04</pdfrwt>
<pdfrwt beam="2">  1       -1 0.30057015E+00 0.14906996E+04</pdfrwt>
<totfact> 0.32231048E-01</totfact>
</mgrwt>
</event>
<event>
 4    1  0.1008211E-007  0.1364562E+04  0.7818608E-02  0.9011720E-01
         -1   -1    0    0    0  501 -0.00000000000E+00  0.00000000000E+00  0.16982947727E+04  0.16982947727E+04  0.50400000000E-02 0.  1.
          1   -1    0    0  501    0  0.00000000000E+00 -0.00000000000E+00 -0.11983987716E+04  0.11983987717E+04  0.50400000000E-02 0. -1.
    8880023    1    1    2    0    0 -0.11938037836E+04  0.55249339173E+02  0.89132618599E+03  0.16298750073E+04  0.65864270000E+03 0.  1.
    8880022    1    1    2    0    0  0.11938037836E+04 -0.55249339173E+02 -0.39143018497E+03  0.12668185371E+04  0.15294330000E+03 0.  0.
<mgrwt>
<rscale>  0 0.13227456E+04</rscale>
<asrwt>0</asrwt>
<pdfrwt beam="1">  1        1 0.18436904E+00 0.13645623E+04</pdfrwt>
<pdfrwt beam="2">  1       -1 0.26127612E+00 0.13645623E+04</pdfrwt>
<totfact> 0.60712716E-01</totfact>
</mgrwt>
</event>
<event>
 4    1  0.1008211E-007  0.1077310E+04  0.7818608E-02  0.9286749E-01
         -1   -1    0    0    0  501 -0.00000000000E+00  0.00000000000E+00  0.94009333578E+03  0.94009333579E+03  0.50400000000E-02 0.  1.
          1   -1    0    0  501    0  0.00000000000E+00 -0.00000000000E+00 -0.16008119425E+04  0.16008119425E+04  0.50400000000E-02 0. -1.
    8880023    1    1    2    0    0 -0.57972145875E+03  0.62506784997E+03  0.41969678016E+03  0.11561757567E+04  0.65864270000E+03 0.  0.
    8880022    1    1    2    0    0  0.57972145875E+03 -0.62506784997E+03 -0.10804153869E+04  0.13847295216E+04  0.15294330000E+03 0.  0.
<mgrwt>
<rscale>  0 0.10201196E+04</rscale>
<asrwt>0</asrwt>
<pdfrwt beam="1">  1        1 0.24627876E+00 0.10773101E+04</pdfrwt>
<pdfrwt beam="2">  1       -1 0.14462974E+00 0.10773101E+04</pdfrwt>
<totfact> 0.21354515E+00</totfact>
</mgrwt>
</event>
<event>
 4    1  0.1008211E-007  0.8186180E+03  0.7818608E-02  0.9671898E-01
          1   -1    0    0  501    0  0.00000000000E+00  0.00000000000E+00  0.93245992581E+03  0.93245992582E+03  0.50400000000E-02 0. -1.
         -1   -1    0    0    0  501 -0.00000000000E+00 -0.00000000000E+00 -0.10183372129E+04  0.10183372129E+04  0.50400000000E-02 0.  1.
    8880023    1    1    2    0    0  0.19488045429E+03  0.44536148440E+03 -0.75233503822E+03  0.11118198862E+04  0.65864270000E+03 0.  1.
    8880022    1    1    2    0    0 -0.19488045429E+03 -0.44536148440E+03  0.66645775114E+03  0.83897725257E+03  0.15294330000E+03 0.  0.
<mgrwt>
<rscale>  0 0.72714914E+03</rscale>
<asrwt>0</asrwt>
<pdfrwt beam="1">  1        1 0.14345537E+00 0.81861801E+03</pdfrwt>
<pdfrwt beam="2">  1       -1 0.15666726E+00 0.81861801E+03</pdfrwt>
<totfact> 0.54398323E+00</totfact>
</mgrwt>
</event>
<event>
 4    1  0.1008211E-007  0.1010609E+04  0.7818608E-02  0.9367808E-01
         -1   -1    0    0    0  501 -0.00000000000E+00  0.00000000000E+00  0.16681225223E+04  0.16681225223E+04  0.50400000000E-02 0.  1.
          1   -1    0    0  501    0  0.00000000000E+00 -0.00000000000E+00 -0.74355774190E+03  0.74355774192E+03  0.50400000000E-02 0. -1.
    8880023    1    1    2    0    0  0.30685769211E+03  0.70239499188E+03  0.12127495714E+04  0.15786361509E+04  0.65864270000E+03 0.  0.
    8880022    1    1    2    0    0 -0.30685769211E+03 -0.70239499188E+03 -0.28818479105E+03  0.83304411326E+03  0.15294330000E+03 0.  0.
<mgrwt>
<rscale>  0 0.94773018E+03</rscale>
<asrwt>0</asrwt>
<pdfrwt beam="1">  1        1 0.11439350E+00 0.10106090E+04</pdfrwt>
<pdfrwt beam="2">  1       -1 0.25663423E+00 0.10106090E+04</pdfrwt>
<totfact> 0.15779821E+00</totfact>
</mgrwt>
</event>
<event>
 4    1  0.1008211E-007  0.6754524E+03  0.7818608E-02  0.1012023E+00
          1   -1    0    0  501    0  0.00000000000E+00  0.00000000000E+00  0.38109822922E+03  0.38109822926E+03  0.50400000000E-02 0. -1.
         -1   -1    0    0    0  501 -0.00000000000E+00 -0.00000000000E+00 -0.60812512166E+03  0.60812512168E+03  0.50400000000E-02 0.  1.
    8880023    1    1    2    0    0  0.14974233362E+03 -0.17282491862E+01 -0.32992815461E+03  0.75172371706E+03  0.65864270000E+03 0.  1.
    8880022    1    1    2    0    0 -0.14974233362E+03  0.17282491862E+01  0.10290126217E+03  0.23749963388E+03  0.15294330000E+03 0.  0.
<mgrwt>
<rscale>  0 0.50678632E+03</rscale>
<asrwt>0</asrwt>
<pdfrwt beam="1">  1        1 0.58630497E-01 0.67545241E+03</pdfrwt>
<pdfrwt beam="2">  1       -1 0.93557711E-01 0.67545241E+03</pdfrwt>
<totfact> 0.72652738E+01</totfact>
</mgrwt>
</event>
<event>
 4    1  0.1008211E-007  0.7174916E+03  0.7818608E-02  0.9931167E-01
          1   -1    0    0  501    0  0.00000000000E+00  0.00000000000E+00  0.29026020656E+04  0.29026020656E+04  0.50400000000E-02 0. -1.
         -1   -1    0    0    0  501 -0.00000000000E+00 -0.00000000000E+00 -0.79409724727E+03  0.79409724729E+03  0.50400000000E-02 0.  1.
    8880023    1    1    2    0    0 -0.79827425346E+02 -0.27315130821E+03 -0.62053162888E+03  0.94860622163E+03  0.65864270000E+03 0.  1.
    8880022    1    1    2    0    0  0.79827425346E+02  0.27315130821E+03  0.27290364472E+04  0.27480930913E+04  0.15294330000E+03 0.  0.
<mgrwt>
<rscale>  0 0.58774314E+03</rscale>
<asrwt>0</asrwt>
<pdfrwt beam="1">  1        1 0.44655416E+00 0.71749165E+03</pdfrwt>
<pdfrwt beam="2">  1       -1 0.12216881E+00 0.71749165E+03</pdfrwt>
<totfact> 0.45392481E-01</totfact>
</mgrwt>
</event>
<event>
 4    1  0.1008211E-007  0.1259716E+04  0.7818608E-02  0.9101153E-01
         -1   -1    0    0    0  501 -0.00000000000E+00  0.00000000000E+00  0.75077611251E+03  0.75077611253E+03  0.50400000000E-02 0.  1.
          1   -1    0    0  501    0  0.00000000000E+00 -0.00000000000E+00 -0.21815652001E+04  0.21815652001E+04  0.50400000000E-02 0. -1.
    8880023    1    1    2    0    0 -0.36307588929E+03  0.10105691305E+04 -0.17311495675E+03  0.12715553718E+04  0.65864270000E+03 0.  0.
    8880022    1    1    2    0    0  0.36307588929E+03 -0.10105691305E+04 -0.12576741308E+04  0.16607859408E+04  0.15294330000E+03 0.  0.
<mgrwt>
<rscale>  0 0.12134640E+04</rscale>
<asrwt>0</asrwt>
<pdfrwt beam="1">  1        1 0.33562541E+00 0.12597160E+04</pdfrwt>
<pdfrwt beam="2">  1       -1 0.11550402E+00 0.12597160E+04</pdfrwt>
<totfact> 0.14912315E+00</totfact>
</mgrwt>
</event>
<event>
 4    1  0.1008211E-007  0.7227366E+03  0.7818608E-02  0.9913433E-01
         -1   -1    0    0    0  501 -0.00000000000E+00  0.00000000000E+00  0.41047947866E+03  0.41047947869E+03  0.50400000000E-02 0.  1.
          1   -1    0    0  501    0  0.00000000000E+00 -0.00000000000E+00 -0.92063676522E+03  0.92063676524E+03  0.50400000000E-02 0. -1.
    8880023    1    1    2    0    0 -0.17665927652E+02  0.29702838787E+03 -0.20305784150E+01  0.72273942587E+03  0.65864270000E+03 0.  1.
    8880022    1    1    2    0    0  0.17665927652E+02 -0.29702838787E+03 -0.50812670815E+03  0.60837681806E+03  0.15294330000E+03 0.  0.
<mgrwt>
<rscale>  0 0.59614670E+03</rscale>
<asrwt>0</asrwt>
<pdfrwt beam="1">  1        1 0.14163642E+00 0.72273657E+03</pdfrwt>
<pdfrwt beam="2">  1       -1 0.63150689E-01 0.72273657E+03</pdfrwt>
<totfact> 0.45713749E+01</totfact>
</mgrwt>
</event>
<event>
 4    1  0.1008211E-007  0.7446406E+03  0.7818608E-02  0.9846630E-01
         -1   -1    0    0    0  501 -0.00000000000E+00  0.00000000000E+00  0.36711833662E+03  0.36711833665E+03  0.50400000000E-02 0.  1.
          1   -1    0    0  501    0  0.00000000000E+00 -0.00000000000E+00 -0.18451596144E+04  0.18451596144E+04  0.50400000000E-02 0. -1.
    8880023    1    1    2    0    0 -0.33893116852E+03  0.76191317218E+02 -0.63098813181E+02  0.74730925346E+03  0.65864270000E+03 0.  0.
    8880022    1    1    2    0    0  0.33893116852E+03 -0.76191317218E+02 -0.14149424646E+04  0.14649686976E+04  0.15294330000E+03 0.  0.
<mgrwt>
<rscale>  0 0.62919050E+03</rscale>
<asrwt>0</asrwt>
<pdfrwt beam="1">  1        1 0.28387070E+00 0.74464062E+03</pdfrwt>
<pdfrwt beam="2">  1       -1 0.56479745E-01 0.74464062E+03</pdfrwt>
<totfact> 0.12560436E+01</totfact>
</mgrwt>
</event>
<event>
 4    1  0.1008211E-007  0.7991114E+03  0.7818608E-02  0.9712721E-01
          1   -1    0    0  501    0  0.00000000000E+00  0.00000000000E+00  0.65053858490E+03  0.65053858492E+03  0.50400000000E-02 0. -1.
         -1   -1    0    0    0  501 -0.00000000000E+00 -0.00000000000E+00 -0.17551144908E+04  0.17551144908E+04  0.50400000000E-02 0.  1.
    8880023    1    1    2    0    0 -0.41518070560E+03  0.17998265464E+03 -0.15555079276E+04  0.17487663919E+04  0.65864270000E+03 0.  1.
    8880022    1    1    2    0    0  0.41518070560E+03 -0.17998265464E+03  0.45093202168E+03  0.65688668388E+03  0.15294330000E+03 0.  0.
<mgrwt>
<rscale>  0 0.70264429E+03</rscale>
<asrwt>0</asrwt>
<pdfrwt beam="1">  1        1 0.10008286E+00 0.79911137E+03</pdfrwt>
<pdfrwt beam="2">  1       -1 0.27001761E+00 0.79911137E+03</pdfrwt>
<totfact> 0.16351673E+00</totfact>
</mgrwt>
</event>
<event>
 4    1  0.1404225E-007  0.6901322E+03  0.7818608E-02  0.1004090E+00
         -1   -1    0    0    0  501 -0.00000000000E+00  0.00000000000E+00  0.12103598942E+04  0.12103598942E+04  0.50400000000E-02 0.  1.
          1   -1    0    0  501    0  0.00000000000E+00 -0.00000000000E+00 -0.21574160294E+04  0.21574160294E+04  0.50400000000E-02 0. -1.
    8880023    1    1    2    0    0 -0.98338911359E+02  0.18111225613E+03  0.11033297364E+04  0.13013911419E+04  0.65864270000E+03 0.  1.
    8880022    1    1    2    0    0  0.98338911359E+02 -0.18111225613E+03 -0.20503858715E+04  0.20663847817E+04  0.15294330000E+03 0.  0.
<mgrwt>
<rscale>  0 0.53892717E+03</rscale>
<asrwt>0</asrwt>
<pdfrwt beam="1">  1        1 0.33191016E+00 0.69013216E+03</pdfrwt>
<pdfrwt beam="2">  1       -1 0.18620921E+00 0.69013216E+03</pdfrwt>
<totfact> 0.47391272E-01</totfact>
</mgrwt>
</event>
<event>
 4    1  0.1008211E-007  0.1358275E+04  0.7818608E-02  0.9016801E-01
          1   -1    0    0  501    0  0.00000000000E+00  0.00000000000E+00  0.24464218177E+04  0.24464218177E+04  0.50400000000E-02 0. -1.
         -1   -1    0    0    0  501 -0.00000000000E+00 -0.00000000000E+00 -0.95101784257E+03  0.95101784259E+03  0.50400000000E-02 0.  1.
    8880023    1    1    2    0    0  0.52973717604E+03 -0.10632401193E+04 -0.14536590740E+03  0.13660316542E+04  0.65864270000E+03 0.  0.
    8880022    1    1    2    0    0 -0.52973717604E+03  0.10632401193E+04  0.16407698825E+04  0.20314080061E+04  0.15294330000E+03 0.  0.
<mgrwt>
<rscale>  0 0.13162188E+04</rscale>
<asrwt>0</asrwt>
<pdfrwt beam="1">  1        1 0.37637258E+00 0.13582751E+04</pdfrwt>
<pdfrwt beam="2">  1       -1 0.14631044E+00 0.13582751E+04</pdfrwt>
<totfact> 0.53184711E-01</totfact>
</mgrwt>
</event>
<event>
 4    1  0.1008211E-007  0.1111297E+04  0.7818608E-02  0.9248582E-01
         -1   -1    0    0    0  501 -0.00000000000E+00  0.00000000000E+00  0.18028310311E+04  0.18028310311E+04  0.50400000000E-02 0.  1.
          1   -1    0    0  501    0  0.00000000000E+00 -0.00000000000E+00 -0.83188742448E+03  0.83188742450E+03  0.50400000000E-02 0. -1.
    8880023    1    1    2    0    0  0.67370968833E+03  0.58930915872E+03  0.12616257274E+04  0.16812732410E+04  0.65864270000E+03 0.  0.
    8880022    1    1    2    0    0 -0.67370968833E+03 -0.58930915872E+03 -0.29068212084E+03  0.95344521452E+03  0.15294330000E+03 0.  0.
<mgrwt>
<rscale>  0 0.10565752E+04</rscale>
<asrwt>0</asrwt>
<pdfrwt beam="1">  1        1 0.12798268E+00 0.11112966E+04</pdfrwt>
<pdfrwt beam="2">  1       -1 0.27735862E+00 0.11112966E+04</pdfrwt>
<totfact> 0.95668223E-01</totfact>
</mgrwt>
</event>
<event>
 4    1  0.1008211E-007  0.7760860E+03  0.7818608E-02  0.9765113E-01
         -1   -1    0    0    0  501 -0.00000000000E+00  0.00000000000E+00  0.33902517402E+03  0.33902517406E+03  0.50400000000E-02 0.  1.
          1   -1    0    0  501    0  0.00000000000E+00 -0.00000000000E+00 -0.15694657647E+04  0.15694657647E+04  0.50400000000E-02 0. -1.
    8880023    1    1    2    0    0  0.40086309241E+03  0.88362919144E+02 -0.21919954503E+03  0.80644768655E+03  0.65864270000E+03 0.  1.
    8880022    1    1    2    0    0 -0.40086309241E+03 -0.88362919144E+02 -0.10112410457E+04  0.11020432522E+04  0.15294330000E+03 0.  0.
<mgrwt>
<rscale>  0 0.67268875E+03</rscale>
<asrwt>0</asrwt>
<pdfrwt beam="1">  1        1 0.24145627E+00 0.77608597E+03</pdfrwt>
<pdfrwt beam="2">  1       -1 0.52157720E-01 0.77608597E+03</pdfrwt>
<totfact> 0.22358936E+01</totfact>
</mgrwt>
</event>
<event>
 4    1  0.1008211E-007  0.8204629E+03  0.7818608E-02  0.9668182E-01
         -1   -1    0    0    0  501 -0.00000000000E+00  0.00000000000E+00  0.62104325153E+03  0.62104325155E+03  0.50400000000E-02 0.  1.
          1   -1    0    0  501    0  0.00000000000E+00 -0.00000000000E+00 -0.12766677700E+04  0.12766677700E+04  0.50400000000E-02 0. -1.
    8880023    1    1    2    0    0 -0.28646571081E+02 -0.48839390678E+03  0.24946779675E+03  0.85755094431E+03  0.65864270000E+03 0.  0.
    8880022    1    1    2    0    0  0.28646571081E+02  0.48839390678E+03 -0.90509231521E+03  0.10401600772E+04  0.15294330000E+03 0.  0.
<mgrwt>
<rscale>  0 0.72943263E+03</rscale>
<asrwt>0</asrwt>
<pdfrwt beam="1">  1        1 0.19641043E+00 0.82046294E+03</pdfrwt>
<pdfrwt beam="2">  1       -1 0.95545116E-01 0.82046294E+03</pdfrwt>
<totfact> 0.10190299E+01</totfact>
</mgrwt>
</event>
<event>
 4    1  0.1008211E-007  0.6821891E+03  0.7818608E-02  0.1008111E+00
          1   -1    0    0  501    0  0.00000000000E+00  0.00000000000E+00  0.77402765865E+03  0.77402765867E+03  0.50400000000E-02 0. -1.
         -1   -1    0    0    0  501 -0.00000000000E+00 -0.00000000000E+00 -0.35995038370E+03  0.35995038374E+03  0.50400000000E-02 0.  1.
    8880023    1    1    2    0    0  0.15034462092E+03 -0.94701199964E+02  0.28578320032E+02  0.68278748447E+03  0.65864270000E+03 0.  0.
    8880022    1    1    2    0    0 -0.15034462092E+03  0.94701199964E+02  0.38549895492E+03  0.45119055794E+03  0.15294330000E+03 0.  0.
<mgrwt>
<rscale>  0 0.52232147E+03</rscale>
<asrwt>0</asrwt>
<pdfrwt beam="1">  1        1 0.11908118E+00 0.68218914E+03</pdfrwt>
<pdfrwt beam="2">  1       -1 0.55376983E-01 0.68218914E+03</pdfrwt>
<totfact> 0.78833991E+01</totfact>
</mgrwt>
</event>
<event>
 4    1  0.1008211E-007  0.7935807E+03  0.7818608E-02  0.9724852E-01
          1   -1    0    0  501    0  0.00000000000E+00  0.00000000000E+00  0.14272639808E+04  0.14272639808E+04  0.50400000000E-02 0. -1.
         -1   -1    0    0    0  501 -0.00000000000E+00 -0.00000000000E+00 -0.14316519718E+04  0.14316519718E+04  0.50400000000E-02 0.  1.
    8880023    1    1    2    0    0  0.34389097906E+03  0.27874563380E+03 -0.12766433069E+04  0.15031927598E+04  0.65864270000E+03 0.  0.
    8880022    1    1    2    0    0 -0.34389097906E+03 -0.27874563380E+03  0.12722553159E+04  0.13557231928E+04  0.15294330000E+03 0.  0.
<mgrwt>
<rscale>  0 0.69556220E+03</rscale>
<asrwt>0</asrwt>
<pdfrwt beam="1">  1        1 0.21957907E+00 0.79358071E+03</pdfrwt>
<pdfrwt beam="2">  1       -1 0.22025415E+00 0.79358071E+03</pdfrwt>
<totfact> 0.84224126E-01</totfact>
</mgrwt>
</event>
<event>
 4    1  0.1008211E-007  0.1477395E+04  0.7818608E-02  0.8925765E-01
         -1   -1    0    0    0  501 -0.00000000000E+00  0.00000000000E+00  0.81380298037E+03  0.81380298038E+03  0.50400000000E-02 0.  1.
          1   -1    0    0  501    0  0.00000000000E+00 -0.00000000000E+00 -0.28310351221E+04  0.28310351221E+04  0.50400000000E-02 0. -1.
    8880023    1    1    2    0    0 -0.13211003561E+04 -0.59831141044E+02 -0.36278350601E+03  0.15212849815E+04  0.65864270000E+03 0.  0.
    8880022    1    1    2    0    0  0.13211003561E+04  0.59831141044E+02 -0.16544486357E+04  0.21235531210E+04  0.15294330000E+03 0.  0.
<mgrwt>
<rscale>  0 0.14394247E+04</rscale>
<asrwt>0</asrwt>
<pdfrwt beam="1">  1        1 0.43554386E+00 0.14773950E+04</pdfrwt>
<pdfrwt beam="2">  1       -1 0.12520046E+00 0.14773950E+04</pdfrwt>
<totfact> 0.42231346E-01</totfact>
</mgrwt>
</event>
<event>
 4    1  0.1008211E-007  0.6850798E+03  0.7818608E-02  0.1006585E+00
         -1   -1    0    0    0  501 -0.00000000000E+00  0.00000000000E+00  0.51192267703E+03  0.51192267705E+03  0.50400000000E-02 0.  1.
          1   -1    0    0  501    0  0.00000000000E+00 -0.00000000000E+00 -0.95930953890E+03  0.95930953891E+03  0.50400000000E-02 0. -1.
    8880023    1    1    2    0    0 -0.76526841861E+02 -0.17224328119E+03  0.25274799256E+03  0.73021631004E+03  0.65864270000E+03 0.  1.
    8880022    1    1    2    0    0  0.76526841861E+02  0.17224328119E+03 -0.70013485443E+03  0.74101590593E+03  0.15294330000E+03 0.  0.
<mgrwt>
<rscale>  0 0.52854844E+03</rscale>
<asrwt>0</asrwt>
<pdfrwt beam="1">  1        1 0.14758608E+00 0.68507978E+03</pdfrwt>
<pdfrwt beam="2">  1       -1 0.78757335E-01 0.68507978E+03</pdfrwt>
<totfact> 0.27200391E+01</totfact>
</mgrwt>
</event>
<event>
 4    1  0.1008211E-007  0.9087251E+03  0.7818608E-02  0.9512168E-01
         -1   -1    0    0    0  501 -0.00000000000E+00  0.00000000000E+00  0.15119624666E+04  0.15119624666E+04  0.50400000000E-02 0.  1.
          1   -1    0    0  501    0  0.00000000000E+00 -0.00000000000E+00 -0.75053246682E+03  0.75053246684E+03  0.50400000000E-02 0. -1.
    8880023    1    1    2    0    0  0.44497665219E+03  0.44041664430E+03  0.11834784844E+04  0.14921134578E+04  0.65864270000E+03 0.  1.
    8880022    1    1    2    0    0 -0.44497665219E+03 -0.44041664430E+03 -0.42204848467E+03  0.77038147563E+03  0.15294330000E+03 0.  0.
<mgrwt>
<rscale>  0 0.83392658E+03</rscale>
<asrwt>0</asrwt>
<pdfrwt beam="1">  1        1 0.11546653E+00 0.90872507E+03</pdfrwt>
<pdfrwt beam="2">  1       -1 0.23260961E+00 0.90872507E+03</pdfrwt>
<totfact> 0.22603997E+00</totfact>
</mgrwt>
</event>
<event>
 4    1  0.1008211E-007  0.8853759E+03  0.7818608E-02  0.9549928E-01
          1   -1    0    0  501    0  0.00000000000E+00  0.00000000000E+00  0.19567606789E+04  0.19567606789E+04  0.50400000000E-02 0. -1.
         -1   -1    0    0    0  501 -0.00000000000E+00 -0.00000000000E+00 -0.70578722010E+03  0.70578722012E+03  0.50400000000E-02 0.  1.
    8880023    1    1    2    0    0  0.27204979133E+03 -0.52542280063E+03 -0.34758203486E+03  0.95115912739E+03  0.65864270000E+03 0.  0.
    8880022    1    1    2    0    0 -0.27204979133E+03  0.52542280063E+03  0.15985554937E+04  0.17113887717E+04  0.15294330000E+03 0.  0.
<mgrwt>
<rscale>  0 0.80700829E+03</rscale>
<asrwt>0</asrwt>
<pdfrwt beam="1">  1        1 0.30104010E+00 0.88537586E+03</pdfrwt>
<pdfrwt beam="2">  1       -1 0.10858265E+00 0.88537586E+03</pdfrwt>
<totfact> 0.25789856E+00</totfact>
</mgrwt>
</event>
<event>
 4    1  0.1008211E-007  0.9623536E+03  0.7818608E-02  0.9432558E-01
          1   -1    0    0  501    0  0.00000000000E+00  0.00000000000E+00  0.37133831727E+04  0.37133831727E+04  0.50400000000E-02 0. -1.
         -1   -1    0    0    0  501 -0.00000000000E+00 -0.00000000000E+00 -0.46085255011E+03  0.46085255014E+03  0.50400000000E-02 0.  1.
    8880023    1    1    2    0    0  0.58241729017E+03 -0.39128561552E+03  0.13107559156E+03  0.97123907961E+03  0.65864270000E+03 0.  1.
    8880022    1    1    2    0    0 -0.58241729017E+03  0.39128561552E+03  0.31214550310E+04  0.32029966432E+04  0.15294330000E+03 0.  0.
<mgrwt>
<rscale>  0 0.89444017E+03</rscale>
<asrwt>0</asrwt>
<pdfrwt beam="1">  1        1 0.57128975E+00 0.96235365E+03</pdfrwt>
<pdfrwt beam="2">  1       -1 0.70900388E-01 0.96235365E+03</pdfrwt>
<totfact> 0.35607228E-01</totfact>
</mgrwt>
</event>
<event>
 4    1  0.1008211E-007  0.6794845E+03  0.7818608E-02  0.1009617E+00
          1   -1    0    0  501    0  0.00000000000E+00  0.00000000000E+00  0.35546620650E+03  0.35546620654E+03  0.50400000000E-02 0. -1.
         -1   -1    0    0    0  501 -0.00000000000E+00 -0.00000000000E+00 -0.89191059594E+03  0.89191059595E+03  0.50400000000E-02 0.  1.
    8880023    1    1    2    0    0 -0.45452666430E+02 -0.16069541109E+03 -0.69419607583E+03  0.97139454291E+03  0.65864270000E+03 0.  0.
    8880022    1    1    2    0    0  0.45452666430E+02  0.16069541109E+03  0.15775168639E+03  0.27598225958E+03  0.15294330000E+03 0.  0.
<mgrwt>
<rscale>  0 0.51627228E+03</rscale>
<asrwt>0</asrwt>
<pdfrwt beam="1">  1        1 0.54687109E-01 0.67948449E+03</pdfrwt>
<pdfrwt beam="2">  1       -1 0.13721701E+00 0.67948449E+03</pdfrwt>
<totfact> 0.31917443E+01</totfact>
</mgrwt>
</event>
<event>
 4    1  0.1008211E-007  0.6726671E+03  0.7818608E-02  0.1013819E+00
          1   -1    0    0  501    0  0.00000000000E+00  0.00000000000E+00  0.43026605191E+03  0.43026605194E+03  0.50400000000E-02 0. -1.
         -1   -1    0    0    0  501 -0.00000000000E+00 -0.00000000000E+00 -0.18179354397E+04  0.18179354397E+04  0.50400000000E-02 0.  1.
    8880023    1    1    2    0    0  0.83262154799E+02  0.10834302436E+03 -0.17260651841E+04  0.18525069564E+04  0.65864270000E+03 0.  1.
    8880022    1    1    2    0    0 -0.83262154799E+02 -0.10834302436E+03  0.33839579626E+03  0.39569453533E+03  0.15294330000E+03 0.  0.
<mgrwt>
<rscale>  0 0.49984684E+03</rscale>
<asrwt>0</asrwt>
<pdfrwt beam="1">  1        1 0.66194778E-01 0.67266708E+03</pdfrwt>
<pdfrwt beam="2">  1       -1 0.27968237E+00 0.67266708E+03</pdfrwt>
<totfact> 0.25820718E+00</totfact>
</mgrwt>
</event>
<event>
 4    1  0.1008211E-007  0.6946967E+03  0.7818608E-02  0.1001996E+00
         -1   -1    0    0    0  501 -0.00000000000E+00  0.00000000000E+00  0.35706218973E+03  0.35706218977E+03  0.50400000000E-02 0.  1.
          1   -1    0    0  501    0  0.00000000000E+00 -0.00000000000E+00 -0.15510207810E+04  0.15510207810E+04  0.50400000000E-02 0. -1.
    8880023    1    1    2    0    0 -0.21860240178E+03 -0.31721793840E+02 -0.10777079293E+02  0.69478027748E+03  0.65864270000E+03 0.  1.
    8880022    1    1    2    0    0  0.21860240178E+03  0.31721793840E+02 -0.11831815119E+04  0.12133026933E+04  0.15294330000E+03 0.  0.
<mgrwt>
<rscale>  0 0.54783811E+03</rscale>
<asrwt>0</asrwt>
<pdfrwt beam="1">  1        1 0.23861858E+00 0.69469669E+03</pdfrwt>
<pdfrwt beam="2">  1       -1 0.54932645E-01 0.69469669E+03</pdfrwt>
<totfact> 0.21061979E+01</totfact>
</mgrwt>
</event>
<event>
 4    1  0.1008211E-007  0.1379429E+04  0.7818608E-02  0.8999834E-01
         -1   -1    0    0    0  501 -0.00000000000E+00  0.00000000000E+00  0.63865529960E+03  0.63865529962E+03  0.50400000000E-02 0.  1.
          1   -1    0    0  501    0  0.00000000000E+00 -0.00000000000E+00 -0.43876969380E+04  0.43876969380E+04  0.50400000000E-02 0. -1.
    8880023    1    1    2    0    0  0.91180650362E+03  0.79851237511E+03 -0.36258803919E+03  0.14262865791E+04  0.65864270000E+03 0.  1.
    8880022    1    1    2    0    0 -0.91180650362E+03 -0.79851237511E+03 -0.33864535992E+04  0.36000656585E+04  0.15294330000E+03 0.  0.
<mgrwt>
<rscale>  0 0.13381668E+04</rscale>
<asrwt>0</asrwt>
<pdfrwt beam="1">  1        1 0.67503028E+00 0.13794286E+04</pdfrwt>
<pdfrwt beam="2">  1       -1 0.98254664E-01 0.13794286E+04</pdfrwt>
<totfact> 0.41253905E-02</totfact>
</mgrwt>
</event>
<event>
 4    1  0.1008211E-007  0.1149565E+04  0.7818608E-02  0.9207780E-01
          1   -1    0    0  501    0  0.00000000000E+00  0.00000000000E+00  0.14265033603E+04  0.14265033603E+04  0.50400000000E-02 0. -1.
         -1   -1    0    0    0  501 -0.00000000000E+00 -0.00000000000E+00 -0.12944669653E+04  0.12944669653E+04  0.50400000000E-02 0.  1.
    8880023    1    1    2    0    0 -0.63352052227E+03  0.69738101022E+03 -0.78921416370E+03  0.13944022834E+04  0.65864270000E+03 0.  0.
    8880022    1    1    2    0    0  0.63352052227E+03 -0.69738101022E+03  0.92125055869E+03  0.13265680422E+04  0.15294330000E+03 0.  0.
<mgrwt>
<rscale>  0 0.10973486E+04</rscale>
<asrwt>0</asrwt>
<pdfrwt beam="1">  1        1 0.21946206E+00 0.11495646E+04</pdfrwt>
<pdfrwt beam="2">  1       -1 0.19914876E+00 0.11495646E+04</pdfrwt>
<totfact> 0.11072696E+00</totfact>
</mgrwt>
</event>
<event>
 4    1  0.1008211E-007  0.7828493E+03  0.7818608E-02  0.9749186E-01
         -1   -1    0    0    0  501 -0.00000000000E+00  0.00000000000E+00  0.32598023641E+03  0.32598023644E+03  0.50400000000E-02 0.  1.
          1   -1    0    0  501    0  0.00000000000E+00 -0.00000000000E+00 -0.17916135543E+04  0.17916135543E+04  0.50400000000E-02 0. -1.
    8880023    1    1    2    0    0 -0.26544551900E+03  0.32951707625E+03 -0.25067862218E+03  0.82200535581E+03  0.65864270000E+03 0.  1.
    8880022    1    1    2    0    0  0.26544551900E+03 -0.32951707625E+03 -0.12149546957E+04  0.12955884350E+04  0.15294330000E+03 0.  0.
<mgrwt>
<rscale>  0 0.68162292E+03</rscale>
<asrwt>0</asrwt>
<pdfrwt beam="1">  1        1 0.27563285E+00 0.78284930E+03</pdfrwt>
<pdfrwt beam="2">  1       -1 0.50150807E-01 0.78284930E+03</pdfrwt>
<totfact> 0.17044525E+01</totfact>
</mgrwt>
</event>
<event>
 4    1  0.1008211E-007  0.1523797E+04  0.7818608E-02  0.8893013E-01
          1   -1    0    0  501    0  0.00000000000E+00  0.00000000000E+00  0.26245873423E+04  0.26245873423E+04  0.50400000000E-02 0. -1.
         -1   -1    0    0    0  501 -0.00000000000E+00 -0.00000000000E+00 -0.17845192399E+04  0.17845192399E+04  0.50400000000E-02 0.  1.
    8880023    1    1    2    0    0 -0.59066956750E+03 -0.12406672764E+04 -0.12035240588E+04  0.19417585316E+04  0.65864270000E+03 0.  0.
    8880022    1    1    2    0    0  0.59066956750E+03  0.12406672764E+04  0.20435921612E+04  0.24673480506E+04  0.15294330000E+03 0.  0.
<mgrwt>
<rscale>  0 0.14871956E+04</rscale>
<asrwt>0</asrwt>
<pdfrwt beam="1">  1        1 0.40378267E+00 0.15237966E+04</pdfrwt>
<pdfrwt beam="2">  1       -1 0.27454142E+00 0.15237966E+04</pdfrwt>
<totfact> 0.50353896E-02</totfact>
</mgrwt>
</event>
<event>
 4    1  0.1008211E-007  0.8082711E+03  0.7818608E-02  0.9693189E-01
          1   -1    0    0  501    0  0.00000000000E+00  0.00000000000E+00  0.28553158435E+03  0.28553158440E+03  0.50400000000E-02 0. -1.
         -1   -1    0    0    0  501 -0.00000000000E+00 -0.00000000000E+00 -0.24771981400E+04  0.24771981400E+04  0.50400000000E-02 0.  1.
    8880023    1    1    2    0    0  0.41840450657E+03 -0.21078341745E+03 -0.21147260809E+04  0.22639276896E+04  0.65864270000E+03 0.  1.
    8880022    1    1    2    0    0 -0.41840450657E+03  0.21078341745E+03 -0.76940474662E+02  0.49880203473E+03  0.15294330000E+03 0.  0.
<mgrwt>
<rscale>  0 0.71423738E+03</rscale>
<asrwt>0</asrwt>
<pdfrwt beam="1">  1        1 0.43927938E-01 0.80827111E+03</pdfrwt>
<pdfrwt beam="2">  1       -1 0.38110739E+00 0.80827111E+03</pdfrwt>
<totfact> 0.94828154E-01</totfact>
</mgrwt>
</event>
<event>
 4    1  0.1008211E-007  0.1090316E+04  0.7818608E-02  0.9271916E-01
         -1   -1    0    0    0  501 -0.00000000000E+00  0.00000000000E+00  0.45603740416E+03  0.45603740418E+03  0.50400000000E-02 0.  1.
          1   -1    0    0  501    0  0.00000000000E+00 -0.00000000000E+00 -0.22772862655E+04  0.22772862655E+04  0.50400000000E-02 0. -1.
    8880023    1    1    2    0    0 -0.53261788970E+03  0.68651018648E+03 -0.65845909295E+03  0.12737176437E+04  0.65864270000E+03 0.  0.
    8880022    1    1    2    0    0  0.53261788970E+03 -0.68651018648E+03 -0.11627897684E+04  0.14596060260E+04  0.15294330000E+03 0.  0.
<mgrwt>
<rscale>  0 0.10340997E+04</rscale>
<asrwt>0</asrwt>
<pdfrwt beam="1">  1        1 0.35035173E+00 0.10903157E+04</pdfrwt>
<pdfrwt beam="2">  1       -1 0.70159602E-01 0.10903157E+04</pdfrwt>
<totfact> 0.39757828E+00</totfact>
</mgrwt>
</event>
<event>
 4    1  0.1008211E-007  0.9657946E+03  0.7818608E-02  0.9427744E-01
          1   -1    0    0  501    0  0.00000000000E+00  0.00000000000E+00  0.13897230763E+04  0.13897230763E+04  0.50400000000E-02 0. -1.
         -1   -1    0    0    0  501 -0.00000000000E+00 -0.00000000000E+00 -0.18298722885E+04  0.18298722885E+04  0.50400000000E-02 0.  1.
    8880023    1    1    2    0    0  0.69407753910E+03  0.13116947893E+03 -0.15906665375E+04  0.18609081929E+04  0.65864270000E+03 0.  0.
    8880022    1    1    2    0    0 -0.69407753910E+03 -0.13116947893E+03  0.11505173253E+04  0.13586871720E+04  0.15294330000E+03 0.  0.
<mgrwt>
<rscale>  0 0.89827192E+03</rscale>
<asrwt>0</asrwt>
<pdfrwt beam="1">  1        1 0.21380355E+00 0.96579463E+03</pdfrwt>
<pdfrwt beam="2">  1       -1 0.28151882E+00 0.96579463E+03</pdfrwt>
<totfact> 0.34668537E-01</totfact>
</mgrwt>
</event>
<event>
 4    1  0.1008211E-007  0.1603813E+04  0.7818608E-02  0.8839608E-01
         -1   -1    0    0    0  501 -0.00000000000E+00  0.00000000000E+00  0.98053095452E+03  0.98053095453E+03  0.50400000000E-02 0.  1.
          1   -1    0    0  501    0  0.00000000000E+00 -0.00000000000E+00 -0.40633862998E+04  0.40633862998E+04  0.50400000000E-02 0. -1.
    8880023    1    1    2    0    0  0.14112241397E+04 -0.38321223419E+03  0.26961842448E+02  0.16040393811E+04  0.65864270000E+03 0.  0.
    8880022    1    1    2    0    0 -0.14112241397E+04  0.38321223419E+03 -0.31098171877E+04  0.34398778733E+04  0.15294330000E+03 0.  0.
<mgrwt>
<rscale>  0 0.15693402E+04</rscale>
<asrwt>0</asrwt>
<pdfrwt beam="1">  1        1 0.62513634E+00 0.16038128E+04</pdfrwt>
<pdfrwt beam="2">  1       -1 0.15085092E+00 0.16038128E+04</pdfrwt>
<totfact> 0.27486384E-02</totfact>
</mgrwt>
</event>
<event>
 4    1  0.1008211E-007  0.1371728E+04  0.7818608E-02  0.9005968E-01
          1   -1    0    0  501    0  0.00000000000E+00  0.00000000000E+00  0.23046019314E+04  0.23046019315E+04  0.50400000000E-02 0. -1.
         -1   -1    0    0    0  501 -0.00000000000E+00 -0.00000000000E+00 -0.14985167961E+04  0.14985167961E+04  0.50400000000E-02 0.  1.
    8880023    1    1    2    0    0 -0.80619370858E+03  0.89324090199E+03 -0.95020674475E+03  0.16686913042E+04  0.65864270000E+03 0.  0.
    8880022    1    1    2    0    0  0.80619370858E+03 -0.89324090199E+03  0.17562918801E+04  0.21344274234E+04  0.15294330000E+03 0.  0.
<mgrwt>
<rscale>  0 0.13301808E+04</rscale>
<asrwt>0</asrwt>
<pdfrwt beam="1">  1        1 0.35455414E+00 0.13717280E+04</pdfrwt>
<pdfrwt beam="2">  1       -1 0.23054105E+00 0.13717280E+04</pdfrwt>
<totfact> 0.16601548E-01</totfact>
</mgrwt>
</event>
<event>
 4    1  0.1008211E-007  0.6893242E+03  0.7818608E-02  0.1004475E+00
          1   -1    0    0  501    0  0.00000000000E+00  0.00000000000E+00  0.15303571818E+04  0.15303571818E+04  0.50400000000E-02 0. -1.
         -1   -1    0    0    0  501 -0.00000000000E+00 -0.00000000000E+00 -0.38247521341E+03  0.38247521344E+03  0.50400000000E-02 0.  1.
    8880023    1    1    2    0    0 -0.10606595811E+03  0.17351551555E+03 -0.47221551942E+02  0.69093972446E+03  0.65864270000E+03 0.  0.
    8880022    1    1    2    0    0  0.10606595811E+03 -0.17351551555E+03  0.11951035203E+04  0.12218926707E+04  0.15294330000E+03 0. -1.
<mgrwt>
<rscale>  0 0.53730638E+03</rscale>
<asrwt>0</asrwt>
<pdfrwt beam="1">  1        1 0.23543957E+00 0.68932418E+03</pdfrwt>
<pdfrwt beam="2">  1       -1 0.58842341E-01 0.68932418E+03</pdfrwt>
<totfact> 0.19048746E+01</totfact>
</mgrwt>
</event>
<event>
 4    1  0.1008211E-007  0.8461845E+03  0.7818608E-02  0.9618627E-01
         -1   -1    0    0    0  501 -0.00000000000E+00  0.00000000000E+00  0.26174354225E+03  0.26174354230E+03  0.50400000000E-02 0.  1.
          1   -1    0    0  501    0  0.00000000000E+00 -0.00000000000E+00 -0.21094328487E+04  0.21094328487E+04  0.50400000000E-02 0. -1.
    8880023    1    1    2    0    0 -0.15890383549E+03 -0.50691967045E+03 -0.70346349905E+03  0.11004040540E+04  0.65864270000E+03 0.  0.
    8880022    1    1    2    0    0  0.15890383549E+03  0.50691967045E+03 -0.11442258074E+04  0.12707723370E+04  0.15294330000E+03 0.  0.
<mgrwt>
<rscale>  0 0.76075475E+03</rscale>
<asrwt>0</asrwt>
<pdfrwt beam="1">  1        1 0.32452812E+00 0.84618449E+03</pdfrwt>
<pdfrwt beam="2">  1       -1 0.40268239E-01 0.84618449E+03</pdfrwt>
<totfact> 0.15567047E+01</totfact>
</mgrwt>
</event>
<event>
 4    1  0.1008211E-007  0.7190454E+03  0.7818608E-02  0.9925829E-01
          1   -1    0    0  501    0  0.00000000000E+00  0.00000000000E+00  0.14713974477E+04  0.14713974477E+04  0.50400000000E-02 0. -1.
         -1   -1    0    0    0  501 -0.00000000000E+00 -0.00000000000E+00 -0.26158016060E+04  0.26158016060E+04  0.50400000000E-02 0.  1.
    8880023    1    1    2    0    0  0.25518852162E+03  0.13451712084E+03 -0.25472836735E+04  0.26468245799E+04  0.65864270000E+03 0.  1.
    8880022    1    1    2    0    0 -0.25518852162E+03 -0.13451712084E+03  0.14028795152E+04  0.14403744737E+04  0.15294330000E+03 0.  0.
<mgrwt>
<rscale>  0 0.59025651E+03</rscale>
<asrwt>0</asrwt>
<pdfrwt beam="1">  1        1 0.22636884E+00 0.71904537E+03</pdfrwt>
<pdfrwt beam="2">  1       -1 0.40243102E+00 0.71904537E+03</pdfrwt>
<totfact> 0.51975284E-02</totfact>
</mgrwt>
</event>
<event>
 4    1  0.1008211E-007  0.9577027E+03  0.7818608E-02  0.9439117E-01
         -1   -1    0    0    0  501 -0.00000000000E+00  0.00000000000E+00  0.88721633187E+03  0.88721633189E+03  0.50400000000E-02 0.  1.
          1   -1    0    0  501    0  0.00000000000E+00 -0.00000000000E+00 -0.24387461746E+04  0.24387461746E+04  0.50400000000E-02 0. -1.
    8880023    1    1    2    0    0 -0.65260301223E+03 -0.23977807929E+03  0.55189193671E+03  0.11053411849E+04  0.65864270000E+03 0.  1.
    8880022    1    1    2    0    0  0.65260301223E+03  0.23977807929E+03 -0.21034217794E+04  0.22206213216E+04  0.15294330000E+03 0.  0.
<mgrwt>
<rscale>  0 0.88925234E+03</rscale>
<asrwt>0</asrwt>
<pdfrwt beam="1">  1        1 0.37519172E+00 0.95770268E+03</pdfrwt>
<pdfrwt beam="2">  1       -1 0.13649482E+00 0.95770268E+03</pdfrwt>
<totfact> 0.68549693E-01</totfact>
</mgrwt>
</event>
<event>
 4    1  0.1008211E-007  0.1033392E+04  0.7818608E-02  0.9339118E-01
          1   -1    0    0  501    0  0.00000000000E+00  0.00000000000E+00  0.25434566024E+04  0.25434566025E+04  0.50400000000E-02 0. -1.
         -1   -1    0    0    0  501 -0.00000000000E+00 -0.00000000000E+00 -0.54760874237E+03  0.54760874239E+03  0.50400000000E-02 0.  1.
    8880023    1    1    2    0    0 -0.65551299977E+03 -0.45209657220E+03  0.11116192637E+03  0.10393535412E+04  0.65864270000E+03 0.  1.
    8880022    1    1    2    0    0  0.65551299977E+03  0.45209657220E+03  0.18846859337E+04  0.20517118036E+04  0.15294330000E+03 0.  0.
<mgrwt>
<rscale>  0 0.97259969E+03</rscale>
<asrwt>0</asrwt>
<pdfrwt beam="1">  1        1 0.39130102E+00 0.10333919E+04</pdfrwt>
<pdfrwt beam="2">  1       -1 0.84247499E-01 0.10333919E+04</pdfrwt>
<totfact> 0.17892401E+00</totfact>
</mgrwt>
</event>
<event>
 4    1  0.1008211E-007  0.1182767E+04  0.7818608E-02  0.9174059E-01
          1   -1    0    0  501    0  0.00000000000E+00  0.00000000000E+00  0.37318335507E+04  0.37318335507E+04  0.50400000000E-02 0. -1.
         -1   -1    0    0    0  501 -0.00000000000E+00 -0.00000000000E+00 -0.43407159714E+03  0.43407159717E+03  0.50400000000E-02 0.  1.
    8880023    1    1    2    0    0 -0.36721792461E+03 -0.91119584928E+03  0.67683726690E+03  0.13627346668E+04  0.65864270000E+03 0.  1.
    8880022    1    1    2    0    0  0.36721792461E+03  0.91119584928E+03  0.26209246867E+04  0.28031704811E+04  0.15294330000E+03 0.  0.
<mgrwt>
<rscale>  0 0.11325240E+04</rscale>
<asrwt>0</asrwt>
<pdfrwt beam="1">  1        1 0.57412824E+00 0.11827667E+04</pdfrwt>
<pdfrwt beam="2">  1       -1 0.66780245E-01 0.11827667E+04</pdfrwt>
<totfact> 0.37440302E-01</totfact>
</mgrwt>
</event>
<event>
 4    1  0.1008211E-007  0.1232713E+04  0.7818608E-02  0.9125961E-01
          1   -1    0    0  501    0  0.00000000000E+00  0.00000000000E+00  0.16914408619E+04  0.16914408619E+04  0.50400000000E-02 0. -1.
         -1   -1    0    0    0  501 -0.00000000000E+00 -0.00000000000E+00 -0.10092240422E+04  0.10092240422E+04  0.50400000000E-02 0.  1.
    8880023    1    1    2    0    0  0.68143426451E+03 -0.78830084745E+03 -0.29109360183E+03  0.12666161906E+04  0.65864270000E+03 0.  0.
    8880022    1    1    2    0    0 -0.68143426451E+03  0.78830084745E+03  0.97331042160E+03  0.14340487135E+04  0.15294330000E+03 0.  0.
<mgrwt>
<rscale>  0 0.11851433E+04</rscale>
<asrwt>0</asrwt>
<pdfrwt beam="1">  1        1 0.26022167E+00 0.12327129E+04</pdfrwt>
<pdfrwt beam="2">  1       -1 0.15526524E+00 0.12327129E+04</pdfrwt>
<totfact> 0.14996464E+00</totfact>
</mgrwt>
</event>
<event>
 4    1  0.1008211E-007  0.1351149E+04  0.7818608E-02  0.9022602E-01
          1   -1    0    0  501    0  0.00000000000E+00  0.00000000000E+00  0.13885352199E+04  0.13885352199E+04  0.50400000000E-02 0. -1.
         -1   -1    0    0    0  501 -0.00000000000E+00 -0.00000000000E+00 -0.22385428655E+04  0.22385428655E+04  0.50400000000E-02 0.  1.
    8880023    1    1    2    0    0  0.45343793514E+03 -0.10891229260E+04 -0.16951972211E+04  0.21677865517E+04  0.65864270000E+03 0.  1.
    8880022    1    1    2    0    0 -0.45343793514E+03  0.10891229260E+04  0.84518957546E+03  0.14592915337E+04  0.15294330000E+03 0.  0.
<mgrwt>
<rscale>  0 0.13088180E+04</rscale>
<asrwt>0</asrwt>
<pdfrwt beam="1">  1        1 0.21362080E+00 0.13511495E+04</pdfrwt>
<pdfrwt beam="2">  1       -1 0.34439121E+00 0.13511495E+04</pdfrwt>
<totfact> 0.12795382E-01</totfact>
</mgrwt>
</event>
<event>
 4    1  0.1008211E-007  0.9395666E+03  0.7818608E-02  0.9465287E-01
          1   -1    0    0  501    0  0.00000000000E+00  0.00000000000E+00  0.12020547550E+04  0.12020547550E+04  0.50400000000E-02 0. -1.
         -1   -1    0    0    0  501 -0.00000000000E+00 -0.00000000000E+00 -0.11244794452E+04  0.11244794452E+04  0.50400000000E-02 0.  1.
    8880023    1    1    2    0    0 -0.66788485265E+03 -0.53897838690E+02 -0.78449883043E+03  0.12240195156E+04  0.65864270000E+03 0.  1.
    8880022    1    1    2    0    0  0.66788485265E+03  0.53897838690E+02  0.86207414028E+03  0.11025146846E+04  0.15294330000E+03 0.  0.
<mgrwt>
<rscale>  0 0.86892160E+03</rscale>
<asrwt>0</asrwt>
<pdfrwt beam="1">  1        1 0.18493150E+00 0.93956658E+03</pdfrwt>
<pdfrwt beam="2">  1       -1 0.17299684E+00 0.93956658E+03</pdfrwt>
<totfact> 0.25213152E+00</totfact>
</mgrwt>
</event>
<event>
 4    1  0.1008211E-007  0.7840157E+03  0.7818608E-02  0.9746487E-01
          1   -1    0    0  501    0  0.00000000000E+00  0.00000000000E+00  0.10244484204E+04  0.10244484204E+04  0.50400000000E-02 0. -1.
         -1   -1    0    0    0  501 -0.00000000000E+00 -0.00000000000E+00 -0.10684143921E+04  0.10684143921E+04  0.50400000000E-02 0.  1.
    8880023    1    1    2    0    0 -0.37308844535E+03 -0.20414560510E+03 -0.85770387033E+03  0.11620398236E+04  0.65864270000E+03 0.  1.
    8880022    1    1    2    0    0  0.37308844535E+03  0.20414560510E+03  0.81373789859E+03  0.93082298895E+03  0.15294330000E+03 0.  0.
<mgrwt>
<rscale>  0 0.68315152E+03</rscale>
<asrwt>0</asrwt>
<pdfrwt beam="1">  1        1 0.15760745E+00 0.78401570E+03</pdfrwt>
<pdfrwt beam="2">  1       -1 0.16437145E+00 0.78401570E+03</pdfrwt>
<totfact> 0.40512007E+00</totfact>
</mgrwt>
</event>
<event>
 4    1  0.1008211E-007  0.6711501E+03  0.7818608E-02  0.1014851E+00
          1   -1    0    0  501    0  0.00000000000E+00  0.00000000000E+00  0.37581105904E+04  0.37581105904E+04  0.50400000000E-02 0. -1.
         -1   -1    0    0    0  501 -0.00000000000E+00 -0.00000000000E+00 -0.31640503245E+03  0.31640503249E+03  0.50400000000E-02 0.  1.
    8880023    1    1    2    0    0 -0.11227146486E+03  0.63461832075E+02  0.45787994487E+02  0.67271021447E+03  0.65864270000E+03 0.  1.
    8880022    1    1    2    0    0  0.11227146486E+03 -0.63461832075E+02  0.33959175635E+04  0.34018054085E+04  0.15294330000E+03 0.  0.
<mgrwt>
<rscale>  0 0.49591214E+03</rscale>
<asrwt>0</asrwt>
<pdfrwt beam="1">  1        1 0.57817084E+00 0.67115013E+03</pdfrwt>
<pdfrwt beam="2">  1       -1 0.48677699E-01 0.67115013E+03</pdfrwt>
<totfact> 0.73282350E-01</totfact>
</mgrwt>
</event>
<event>
 4    1  0.1008211E-007  0.6886270E+03  0.7818608E-02  0.1004812E+00
          1   -1    0    0  501    0  0.00000000000E+00  0.00000000000E+00  0.38886797248E+03  0.38886797252E+03  0.50400000000E-02 0. -1.
         -1   -1    0    0    0  501 -0.00000000000E+00 -0.00000000000E+00 -0.91189264583E+03  0.91189264584E+03  0.50400000000E-02 0.  1.
    8880023    1    1    2    0    0 -0.25230560928E+02 -0.19940012166E+03 -0.70803398035E+03  0.98768381242E+03  0.65864270000E+03 0.  1.
    8880022    1    1    2    0    0  0.25230560928E+02  0.19940012166E+03  0.18500930700E+03  0.31307680594E+03  0.15294330000E+03 0.  0.
<mgrwt>
<rscale>  0 0.53589656E+03</rscale>
<asrwt>0</asrwt>
<pdfrwt beam="1">  1        1 0.59825842E-01 0.68862704E+03</pdfrwt>
<pdfrwt beam="2">  1       -1 0.14029118E+00 0.68862704E+03</pdfrwt>
<totfact> 0.26759929E+01</totfact>
</mgrwt>
</event>
<event>
 4    1  0.1008211E-007  0.8734634E+03  0.7818608E-02  0.9570049E-01
          1   -1    0    0  501    0  0.00000000000E+00  0.00000000000E+00  0.52377377561E+03  0.52377377564E+03  0.50400000000E-02 0. -1.
         -1   -1    0    0    0  501 -0.00000000000E+00 -0.00000000000E+00 -0.15243661128E+04  0.15243661128E+04  0.50400000000E-02 0.  1.
    8880023    1    1    2    0    0  0.32240664729E+03  0.47453354395E+03 -0.11420555306E+04  0.14377862052E+04  0.65864270000E+03 0.  0.
    8880022    1    1    2    0    0 -0.32240664729E+03 -0.47453354395E+03  0.14146319343E+03  0.61035368326E+03  0.15294330000E+03 0.  0.
<mgrwt>
<rscale>  0 0.79310644E+03</rscale>
<asrwt>0</asrwt>
<pdfrwt beam="1">  1        1 0.80580581E-01 0.87346341E+03</pdfrwt>
<pdfrwt beam="2">  1       -1 0.23451786E+00 0.87346341E+03</pdfrwt>
<totfact> 0.37427168E+00</totfact>
</mgrwt>
</event>
<event>
 4    1  0.1008211E-007  0.7867626E+03  0.7818608E-02  0.9740185E-01
         -1   -1    0    0    0  501 -0.00000000000E+00  0.00000000000E+00  0.58421415077E+03  0.58421415080E+03  0.50400000000E-02 0.  1.
          1   -1    0    0  501    0  0.00000000000E+00 -0.00000000000E+00 -0.81479636700E+03  0.81479636702E+03  0.50400000000E-02 0. -1.
    8880023    1    1    2    0    0 -0.98334286759E+02 -0.41894578611E+03 -0.43459229039E+03  0.89881358956E+03  0.65864270000E+03 0. -1.
    8880022    1    1    2    0    0  0.98334286759E+02  0.41894578611E+03  0.20401007417E+03  0.50019692825E+03  0.15294330000E+03 0.  1.
<mgrwt>
<rscale>  0 0.68673795E+03</rscale>
<asrwt>0</asrwt>
<pdfrwt beam="1">  1        1 0.12535329E+00 0.78676261E+03</pdfrwt>
<pdfrwt beam="2">  1       -1 0.89879101E-01 0.78676261E+03</pdfrwt>
<totfact> 0.26583170E+01</totfact>
</mgrwt>
</event>
<event>
 4    1  0.1008211E-007  0.8840136E+03  0.7818608E-02  0.9552198E-01
         -1   -1    0    0    0  501 -0.00000000000E+00  0.00000000000E+00  0.66176957010E+03  0.66176957012E+03  0.50400000000E-02 0.  1.
          1   -1    0    0  501    0  0.00000000000E+00 -0.00000000000E+00 -0.89858386477E+03  0.89858386478E+03  0.50400000000E-02 0. -1.
    8880023    1    1    2    0    0 -0.43485534770E+03 -0.39820921344E+03  0.53358916157E+02  0.88562245415E+03  0.65864270000E+03 0.  0.
    8880022    1    1    2    0    0  0.43485534770E+03  0.39820921344E+03 -0.29017321083E+03  0.67473098075E+03  0.15294330000E+03 0.  0.
<mgrwt>
<rscale>  0 0.80542465E+03</rscale>
<asrwt>0</asrwt>
<pdfrwt beam="1">  1        1 0.13824367E+00 0.88401355E+03</pdfrwt>
<pdfrwt beam="2">  1       -1 0.10181070E+00 0.88401355E+03</pdfrwt>
<totfact> 0.16915154E+01</totfact>
</mgrwt>
</event>
<event>
 4    1  0.1008211E-007  0.8743147E+03  0.7818608E-02  0.9568591E-01
         -1   -1    0    0    0  501 -0.00000000000E+00  0.00000000000E+00  0.20129927965E+04  0.20129927965E+04  0.50400000000E-02 0.  1.
          1   -1    0    0  501    0  0.00000000000E+00 -0.00000000000E+00 -0.39127418505E+03  0.39127418509E+03  0.50400000000E-02 0. -1.
    8880023    1    1    2    0    0  0.44897530060E+03  0.35921745304E+03  0.15825330891E+04  0.18079925839E+04  0.65864270000E+03 0. -1.
    8880022    1    1    2    0    0 -0.44897530060E+03 -0.35921745304E+03  0.39185522309E+02  0.59627439765E+03  0.15294330000E+03 0.  0.
<mgrwt>
<rscale>  0 0.79410406E+03</rscale>
<asrwt>0</asrwt>
<pdfrwt beam="1">  1        1 0.60196029E-01 0.87431471E+03</pdfrwt>
<pdfrwt beam="2">  1       -1 0.30969120E+00 0.87431471E+03</pdfrwt>
<totfact> 0.18234251E+00</totfact>
</mgrwt>
</event>
<event>
 4    1  0.1008211E-007  0.9740230E+03  0.7818608E-02  0.9416361E-01
         -1   -1    0    0    0  501 -0.00000000000E+00  0.00000000000E+00  0.10845735998E+04  0.10845735998E+04  0.50400000000E-02 0.  1.
          1   -1    0    0  501    0  0.00000000000E+00 -0.00000000000E+00 -0.86482518508E+03  0.86482518509E+03  0.50400000000E-02 0. -1.
    8880023    1    1    2    0    0  0.71281335129E+03 -0.82508987625E+02  0.57832110338E+03  0.11327736366E+04  0.65864270000E+03 0.  0.
    8880022    1    1    2    0    0 -0.71281335129E+03  0.82508987625E+02 -0.35857268866E+03  0.81662514833E+03  0.15294330000E+03 0. -1.
<mgrwt>
<rscale>  0 0.90741340E+03</rscale>
<asrwt>0</asrwt>
<pdfrwt beam="1">  1        1 0.13305003E+00 0.97402300E+03</pdfrwt>
<pdfrwt beam="2">  1       -1 0.16685748E+00 0.97402300E+03</pdfrwt>
<totfact> 0.50803346E+00</totfact>
</mgrwt>
</event>
<event>
 4    1  0.1008211E-007  0.7211111E+03  0.7818608E-02  0.9918844E-01
         -1   -1    0    0    0  501 -0.00000000000E+00  0.00000000000E+00  0.67776583788E+03  0.67776583789E+03  0.50400000000E-02 0.  1.
          1   -1    0    0  501    0  0.00000000000E+00 -0.00000000000E+00 -0.96864153039E+03  0.96864153041E+03  0.50400000000E-02 0. -1.
    8880023    1    1    2    0    0  0.10018598090E+03  0.27595964546E+03  0.43951831986E+03  0.84449838155E+03  0.65864270000E+03 0.  1.
    8880022    1    1    2    0    0 -0.10018598090E+03 -0.27595964546E+03 -0.73039401238E+03  0.80190898675E+03  0.15294330000E+03 0.  0.
<mgrwt>
<rscale>  0 0.59356642E+03</rscale>
<asrwt>0</asrwt>
<pdfrwt beam="1">  1        1 0.14902177E+00 0.72111106E+03</pdfrwt>
<pdfrwt beam="2">  1       -1 0.10427167E+00 0.72111106E+03</pdfrwt>
<totfact> 0.14336320E+01</totfact>
</mgrwt>
</event>
<event>
 4    1  0.1008211E-007  0.1312220E+04  0.7818608E-02  0.9055079E-01
         -1   -1    0    0    0  501 -0.00000000000E+00  0.00000000000E+00  0.98398053595E+03  0.98398053596E+03  0.50400000000E-02 0.  1.
          1   -1    0    0  501    0  0.00000000000E+00 -0.00000000000E+00 -0.17338914365E+04  0.17338914365E+04  0.50400000000E-02 0. -1.
    8880023    1    1    2    0    0  0.10700462640E+04 -0.37830103902E+03 -0.85760348304E+03  0.15676111200E+04  0.65864270000E+03 0.  0.
    8880022    1    1    2    0    0 -0.10700462640E+04  0.37830103902E+03  0.10769258253E+03  0.11502608524E+04  0.15294330000E+03 0.  0.
<mgrwt>
<rscale>  0 0.12683119E+04</rscale>
<asrwt>0</asrwt>
<pdfrwt beam="1">  1        1 0.26675253E+00 0.13122198E+04</pdfrwt>
<pdfrwt beam="2">  1       -1 0.15138162E+00 0.13122198E+04</pdfrwt>
<totfact> 0.14902660E+00</totfact>
</mgrwt>
</event>
<event>
 4    1  0.1008211E-007  0.9590605E+03  0.7818608E-02  0.9437196E-01
          1   -1    0    0  501    0  0.00000000000E+00  0.00000000000E+00  0.16981321897E+04  0.16981321897E+04  0.50400000000E-02 0. -1.
         -1   -1    0    0    0  501 -0.00000000000E+00 -0.00000000000E+00 -0.53972803876E+03  0.53972803878E+03  0.50400000000E-02 0.  1.
    8880023    1    1    2    0    0 -0.29053734892E+03  0.63369931848E+03  0.10409044497E+03  0.96469259578E+03  0.65864270000E+03 0.  0.
    8880022    1    1    2    0    0  0.29053734892E+03 -0.63369931848E+03  0.10543137059E+04  0.12731676327E+04  0.15294330000E+03 0. -1.
<mgrwt>
<rscale>  0 0.89076791E+03</rscale>
<asrwt>0</asrwt>
<pdfrwt beam="1">  1        1 0.26125111E+00 0.95906047E+03</pdfrwt>
<pdfrwt beam="2">  1       -1 0.83035082E-01 0.95906047E+03</pdfrwt>
<totfact> 0.69720061E+00</totfact>
</mgrwt>
</event>
<event>
 4    1  0.1008211E-007  0.1292790E+04  0.7818608E-02  0.9071811E-01
         -1   -1    0    0    0  501 -0.00000000000E+00  0.00000000000E+00  0.48710153118E+03  0.48710153120E+03  0.50400000000E-02 0.  1.
          1   -1    0    0  501    0  0.00000000000E+00 -0.00000000000E+00 -0.32987707633E+04  0.32987707633E+04  0.50400000000E-02 0. -1.
    8880023    1    1    2    0    0 -0.99275310921E+03 -0.50193405413E+03 -0.20687139625E+04  0.24394434192E+04  0.65864270000E+03 0.  0.
    8880022    1    1    2    0    0  0.99275310921E+03  0.50193405413E+03 -0.74295526960E+03  0.13464288753E+04  0.15294330000E+03 0.  0.
<mgrwt>
<rscale>  0 0.12480461E+04</rscale>
<asrwt>0</asrwt>
<pdfrwt beam="1">  1        1 0.50750318E+00 0.12927903E+04</pdfrwt>
<pdfrwt beam="2">  1       -1 0.74938699E-01 0.12927903E+04</pdfrwt>
<totfact> 0.63477818E-01</totfact>
</mgrwt>
</event>
