<event>
 4    3  0.3905963E+000  0.1813270E+03  0.7546771E-02  0.1166525E+00
         21   -1    0    0  501  502  0.00000000000E+00  0.00000000000E+00  0.91288606988E+03  0.91288606988E+03  0.00000000000E+00 0. -1.
         21   -1    0    0  502  503 -0.00000000000E+00 -0.00000000000E+00 -0.56726859610E+02  0.56726859610E+02  0.00000000000E+00 0. -1.
          6    1    1    2  501    0 -0.45911783956E+02  0.29027220303E+02  0.72100834982E+03  0.74345982537E+03  0.17300000000E+03 0. -1.
         -6    1    1    2    0  503  0.45911783956E+02 -0.29027220303E+02  0.13515086045E+03  0.22615310413E+03  0.17300000000E+03 0. -1.
<mgrwt>
<rscale>  2 0.18132697E+03</rscale>
<asrwt>0</asrwt>
<pdfrwt beam="1">  1       21 0.14044400E+00 0.18132697E+03</pdfrwt>
<pdfrwt beam="2">  1       21 0.87272099E-02 0.18132697E+03</pdfrwt>
<totfact> 0.36832584E+04</totfact>
</mgrwt>
</event>
<event>
 4    3  0.3905963E+000  0.2682961E+03  0.7546771E-02  0.1102259E+00
         21   -1    0    0  501  502  0.00000000000E+00  0.00000000000E+00  0.42970506144E+03  0.42970506144E+03  0.00000000000E+00 0. -1.
         21   -1    0    0  502  503 -0.00000000000E+00 -0.00000000000E+00 -0.16918487484E+03  0.16918487484E+03  0.00000000000E+00 0.  1.
          6    1    1    2  501    0  0.15541149401E+03 -0.13379477164E+03  0.15999435646E+03  0.31237952476E+03  0.17300000000E+03 0.  1.
         -6    1    1    2    0  503 -0.15541149401E+03  0.13379477164E+03  0.10052583014E+03  0.28651041153E+03  0.17300000000E+03 0. -1.
<mgrwt>
<rscale>  2 0.26829606E+03</rscale>
<asrwt>0</asrwt>
<pdfrwt beam="1">  1       21 0.66108471E-01 0.26829606E+03</pdfrwt>
<pdfrwt beam="2">  1       21 0.26028442E-01 0.26829606E+03</pdfrwt>
<totfact> 0.28382126E+04</totfact>
</mgrwt>
</event>
<event>
 4    3  0.3905963E+000  0.1789273E+03  0.7546771E-02  0.1168845E+00
         21   -1    0    0  503  502  0.00000000000E+00  0.00000000000E+00  0.35925175634E+03  0.35925175634E+03  0.00000000000E+00 0.  1.
         21   -1    0    0  501  503 -0.00000000000E+00 -0.00000000000E+00 -0.10749315643E+03  0.10749315643E+03  0.00000000000E+00 0.  1.
          6    1    1    2  501    0  0.25043207384E+02 -0.38194488083E+02  0.29385017537E+02  0.18132418595E+03  0.17300000000E+03 0.  1.
         -6    1    1    2    0  502 -0.25043207384E+02  0.38194488083E+02  0.22237358238E+03  0.28542072681E+03  0.17300000000E+03 0.  1.
<mgrwt>
<rscale>  2 0.17892731E+03</rscale>
<asrwt>0</asrwt>
<pdfrwt beam="1">  1       21 0.55269501E-01 0.17892731E+03</pdfrwt>
<pdfrwt beam="2">  1       21 0.16537409E-01 0.17892731E+03</pdfrwt>
<totfact> 0.10184453E+05</totfact>
</mgrwt>
</event>
<event>
 4    3  0.3905963E+000  0.2134282E+03  0.7546771E-02  0.1138880E+00
         21   -1    0    0  503  502  0.00000000000E+00  0.00000000000E+00  0.68816275229E+02  0.68816275229E+02  0.00000000000E+00 0. -1.
         21   -1    0    0  501  503 -0.00000000000E+00 -0.00000000000E+00 -0.66835414595E+03  0.66835414595E+03  0.00000000000E+00 0.  1.
          6    1    1    2  501    0 -0.70069802738E+02  0.10350277637E+03 -0.33590328323E+03  0.39797313685E+03  0.17300000000E+03 0.  1.
         -6    1    1    2    0  502  0.70069802738E+02 -0.10350277637E+03 -0.26363458749E+03  0.33919728432E+03  0.17300000000E+03 0. -1.
<mgrwt>
<rscale>  2 0.21342821E+03</rscale>
<asrwt>0</asrwt>
<pdfrwt beam="1">  1       21 0.10587119E-01 0.21342821E+03</pdfrwt>
<pdfrwt beam="2">  1       21 0.10282372E+00 0.21342821E+03</pdfrwt>
<totfact> 0.55773028E+04</totfact>
</mgrwt>
</event>
<event>
 4    3  0.3905963E+000  0.2065586E+03  0.7546771E-02  0.1144321E+00
         21   -1    0    0  501  502  0.00000000000E+00  0.00000000000E+00  0.12106429746E+04  0.12106429746E+04  0.00000000000E+00 0.  1.
         21   -1    0    0  502  503 -0.00000000000E+00 -0.00000000000E+00 -0.63362867444E+02  0.63362867444E+02  0.00000000000E+00 0.  1.
          6    1    1    2  501    0 -0.69394231112E+02  0.89005034719E+02  0.99799781028E+03  0.10191496872E+04  0.17300000000E+03 0.  1.
         -6    1    1    2    0  503  0.69394231112E+02 -0.89005034719E+02  0.14928229686E+03  0.25485615486E+03  0.17300000000E+03 0.  1.
<mgrwt>
<rscale>  2 0.20655860E+03</rscale>
<asrwt>0</asrwt>
<pdfrwt beam="1">  1       21 0.18625275E+00 0.20655860E+03</pdfrwt>
<pdfrwt beam="2">  1       21 0.97481343E-02 0.20655860E+03</pdfrwt>
<totfact> 0.13868971E+04</totfact>
</mgrwt>
</event>
<event>
 4    3  0.3905963E+000  0.3216458E+03  0.7546771E-02  0.1074894E+00
         21   -1    0    0  503  502  0.00000000000E+00  0.00000000000E+00  0.40127112642E+03  0.40127112642E+03  0.00000000000E+00 0.  1.
         21   -1    0    0  501  503 -0.00000000000E+00 -0.00000000000E+00 -0.52577167595E+03  0.52577167595E+03  0.00000000000E+00 0. -1.
          6    1    1    2  501    0 -0.24678196676E+03  0.11236397151E+03 -0.39315187860E+03  0.50796102297E+03  0.17300000000E+03 0. -1.
         -6    1    1    2    0  502  0.24678196676E+03 -0.11236397151E+03  0.26865132907E+03  0.41908177940E+03  0.17300000000E+03 0.  1.
<mgrwt>
<rscale>  2 0.32164577E+03</rscale>
<asrwt>0</asrwt>
<pdfrwt beam="1">  1       21 0.61734019E-01 0.32164577E+03</pdfrwt>
<pdfrwt beam="2">  1       21 0.80887950E-01 0.32164577E+03</pdfrwt>
<totfact> 0.30025732E+03</totfact>
</mgrwt>
</event>
<event>
 4    3  0.3905963E+000  0.2868106E+03  0.7546771E-02  0.1092026E+00
         21   -1    0    0  501  502  0.00000000000E+00  0.00000000000E+00  0.15156576604E+03  0.15156576604E+03  0.00000000000E+00 0.  1.
         21   -1    0    0  502  503 -0.00000000000E+00 -0.00000000000E+00 -0.62915465126E+03  0.62915465126E+03  0.00000000000E+00 0.  1.
          6    1    1    2  501    0 -0.18054590161E+03 -0.14047947997E+03 -0.94121016681E+02  0.30185935908E+03  0.17300000000E+03 0.  1.
         -6    1    1    2    0  503  0.18054590161E+03  0.14047947997E+03 -0.38346786853E+03  0.47886105822E+03  0.17300000000E+03 0.  1.
<mgrwt>
<rscale>  2 0.28681058E+03</rscale>
<asrwt>0</asrwt>
<pdfrwt beam="1">  1       21 0.23317810E-01 0.28681058E+03</pdfrwt>
<pdfrwt beam="2">  1       21 0.96793023E-01 0.28681058E+03</pdfrwt>
<totfact> 0.14554676E+04</totfact>
</mgrwt>
</event>
<event>
 4    3  0.3905963E+000  0.2577684E+03  0.7546771E-02  0.1108491E+00
         21   -1    0    0  503  502  0.00000000000E+00  0.00000000000E+00  0.12184358473E+04  0.12184358473E+04  0.00000000000E+00 0. -1.
         21   -1    0    0  501  503 -0.00000000000E+00 -0.00000000000E+00 -0.11993542865E+03  0.11993542865E+03  0.00000000000E+00 0.  1.
          6    1    1    2  501    0  0.12767486547E+03 -0.14217837850E+03  0.55086450080E+02  0.26358884568E+03  0.17300000000E+03 0.  1.
         -6    1    1    2    0  502 -0.12767486547E+03  0.14217837850E+03  0.10434139686E+04  0.10747824303E+04  0.17300000000E+03 0. -1.
<mgrwt>
<rscale>  2 0.25776843E+03</rscale>
<asrwt>0</asrwt>
<pdfrwt beam="1">  1       21 0.18745166E+00 0.25776843E+03</pdfrwt>
<pdfrwt beam="2">  1       21 0.18451605E-01 0.25776843E+03</pdfrwt>
<totfact> 0.41235697E+03</totfact>
</mgrwt>
</event>
<event>
 4    3  0.3905963E+000  0.2381185E+03  0.7546771E-02  0.1121053E+00
         21   -1    0    0  503  502  0.00000000000E+00  0.00000000000E+00  0.50084167882E+03  0.50084167882E+03  0.00000000000E+00 0.  1.
         21   -1    0    0  501  503 -0.00000000000E+00 -0.00000000000E+00 -0.13237073321E+03  0.13237073321E+03  0.00000000000E+00 0.  1.
          6    1    1    2  501    0  0.15694215647E+03 -0.46266281140E+02  0.63779949215E+02  0.24651225359E+03  0.17300000000E+03 0.  1.
         -6    1    1    2    0  502 -0.15694215647E+03  0.46266281140E+02  0.30469099640E+03  0.38670015844E+03  0.17300000000E+03 0.  1.
<mgrwt>
<rscale>  2 0.23811848E+03</rscale>
<asrwt>0</asrwt>
<pdfrwt beam="1">  1       21 0.77052565E-01 0.23811848E+03</pdfrwt>
<pdfrwt beam="2">  1       21 0.20364728E-01 0.23811848E+03</pdfrwt>
<totfact> 0.32631348E+04</totfact>
</mgrwt>
</event>
<event>
 4    3  0.3905963E+000  0.2031924E+03  0.7546771E-02  0.1147073E+00
         21   -1    0    0  501  502  0.00000000000E+00  0.00000000000E+00  0.43038237747E+02  0.43038237747E+02  0.00000000000E+00 0. -1.
         21   -1    0    0  502  503 -0.00000000000E+00 -0.00000000000E+00 -0.13759050837E+04  0.13759050837E+04  0.00000000000E+00 0.  1.
          6    1    1    2  501    0 -0.10492680061E+03  0.18668108710E+02 -0.27604544699E+03  0.34276554753E+03  0.17300000000E+03 0. -1.
         -6    1    1    2    0  503  0.10492680061E+03 -0.18668108710E+02 -0.10568213990E+04  0.10761777739E+04  0.17300000000E+03 0.  1.
<mgrwt>
<rscale>  2 0.20319235E+03</rscale>
<asrwt>0</asrwt>
<pdfrwt beam="1">  1       21 0.66212665E-02 0.20319235E+03</pdfrwt>
<pdfrwt beam="2">  1       21 0.21167773E+00 0.20319235E+03</pdfrwt>
<totfact> 0.18702899E+04</totfact>
</mgrwt>
</event>
<event>
 4    3  0.3905963E+000  0.2235132E+03  0.7546771E-02  0.1131291E+00
         21   -1    0    0  503  502  0.00000000000E+00  0.00000000000E+00  0.74962331398E+02  0.74962331398E+02  0.00000000000E+00 0.  1.
         21   -1    0    0  501  503 -0.00000000000E+00 -0.00000000000E+00 -0.81068639608E+03  0.81068639608E+03  0.00000000000E+00 0.  1.
          6    1    1    2  501    0 -0.88804593926E+02 -0.11019485239E+03 -0.55465143074E+03  0.59799362121E+03  0.17300000000E+03 0.  1.
         -6    1    1    2    0  502  0.88804593926E+02  0.11019485239E+03 -0.18107263395E+03  0.28765510627E+03  0.17300000000E+03 0.  1.
<mgrwt>
<rscale>  2 0.22351322E+03</rscale>
<asrwt>0</asrwt>
<pdfrwt beam="1">  1       21 0.11532666E-01 0.22351322E+03</pdfrwt>
<pdfrwt beam="2">  1       21 0.12472098E+00 0.22351322E+03</pdfrwt>
<totfact> 0.29688533E+04</totfact>
</mgrwt>
</event>
<event>
 4    3  0.3905963E+000  0.2075056E+03  0.7546771E-02  0.1143557E+00
         21   -1    0    0  503  502  0.00000000000E+00  0.00000000000E+00  0.27422054770E+03  0.27422054770E+03  0.00000000000E+00 0.  1.
         21   -1    0    0  501  503 -0.00000000000E+00 -0.00000000000E+00 -0.24999016088E+03  0.24999016088E+03  0.00000000000E+00 0.  1.
          6    1    1    2  501    0  0.11029948786E+03  0.31042056996E+02 -0.14772359257E+03  0.25471718852E+03  0.17300000000E+03 0.  1.
         -6    1    1    2    0  502 -0.11029948786E+03 -0.31042056996E+02  0.17195397939E+03  0.26949352006E+03  0.17300000000E+03 0.  1.
<mgrwt>
<rscale>  2 0.20750563E+03</rscale>
<asrwt>0</asrwt>
<pdfrwt beam="1">  1       21 0.42187777E-01 0.20750563E+03</pdfrwt>
<pdfrwt beam="2">  1       21 0.38460025E-01 0.20750563E+03</pdfrwt>
<totfact> 0.34973636E+04</totfact>
</mgrwt>
</event>
<event>
 4    3  0.3905963E+000  0.1812271E+03  0.7546771E-02  0.1166621E+00
         21   -1    0    0  501  502  0.00000000000E+00  0.00000000000E+00  0.32757681756E+03  0.32757681756E+03  0.00000000000E+00 0. -1.
         21   -1    0    0  502  503 -0.00000000000E+00 -0.00000000000E+00 -0.10068426414E+03  0.10068426414E+03  0.00000000000E+00 0. -1.
          6    1    1    2  501    0 -0.24968111110E+02  0.47862837867E+02  0.12732599177E+03  0.22148400846E+03  0.17300000000E+03 0. -1.
         -6    1    1    2    0  503  0.24968111110E+02 -0.47862837867E+02  0.99566561641E+02  0.20677707324E+03  0.17300000000E+03 0. -1.
<mgrwt>
<rscale>  2 0.18122709E+03</rscale>
<asrwt>0</asrwt>
<pdfrwt beam="1">  1       21 0.50396433E-01 0.18122709E+03</pdfrwt>
<pdfrwt beam="2">  1       21 0.15489887E-01 0.18122709E+03</pdfrwt>
<totfact> 0.13919779E+05</totfact>
</mgrwt>
</event>
<event>
 4    3  0.3905963E+000  0.2233951E+03  0.7546771E-02  0.1131377E+00
         21   -1    0    0  503  502  0.00000000000E+00  0.00000000000E+00  0.80961663897E+03  0.80961663897E+03  0.00000000000E+00 0.  1.
         21   -1    0    0  501  503 -0.00000000000E+00 -0.00000000000E+00 -0.64425510409E+02  0.64425510409E+02  0.00000000000E+00 0. -1.
          6    1    1    2  501    0  0.11158254262E+03 -0.86750859552E+02  0.46345446927E+03  0.51448558827E+03  0.17300000000E+03 0.  1.
         -6    1    1    2    0  502 -0.11158254262E+03  0.86750859552E+02  0.28173665929E+03  0.35955656111E+03  0.17300000000E+03 0. -1.
<mgrwt>
<rscale>  2 0.22339511E+03</rscale>
<asrwt>0</asrwt>
<pdfrwt beam="1">  1       21 0.12455640E+00 0.22339511E+03</pdfrwt>
<pdfrwt beam="2">  1       21 0.99116176E-02 0.22339511E+03</pdfrwt>
<totfact> 0.39012352E+04</totfact>
</mgrwt>
</event>
<event>
 4    3  0.3905963E+000  0.1737012E+03  0.7546771E-02  0.1174042E+00
         21   -1    0    0  503  502  0.00000000000E+00  0.00000000000E+00  0.79662063142E+02  0.79662063142E+02  0.00000000000E+00 0.  1.
         21   -1    0    0  501  503 -0.00000000000E+00 -0.00000000000E+00 -0.11162766214E+04  0.11162766214E+04  0.00000000000E+00 0.  1.
          6    1    1    2  501    0  0.37451108672E+01 -0.15135726861E+02 -0.10043578404E+04  0.10192677703E+04  0.17300000000E+03 0.  1.
         -6    1    1    2    0  502 -0.37451108672E+01  0.15135726861E+02 -0.32256717878E+02  0.17667091422E+03  0.17300000000E+03 0.  1.
<mgrwt>
<rscale>  2 0.17370123E+03</rscale>
<asrwt>0</asrwt>
<pdfrwt beam="1">  1       21 0.12255702E-01 0.17370123E+03</pdfrwt>
<pdfrwt beam="2">  1       21 0.17173486E+00 0.17370123E+03</pdfrwt>
<totfact> 0.11902395E+04</totfact>
</mgrwt>
</event>
<event>
 4    3  0.3905963E+000  0.2012373E+03  0.7546771E-02  0.1148699E+00
         21   -1    0    0  503  502  0.00000000000E+00  0.00000000000E+00  0.47543169102E+03  0.47543169102E+03  0.00000000000E+00 0.  1.
         21   -1    0    0  501  503 -0.00000000000E+00 -0.00000000000E+00 -0.10551072111E+03  0.10551072111E+03  0.00000000000E+00 0. -1.
          6    1    1    2  501    0  0.39104180058E+02  0.95070087204E+02  0.57448957323E+02  0.20927694827E+03  0.17300000000E+03 0. -1.
         -6    1    1    2    0  502 -0.39104180058E+02 -0.95070087204E+02  0.31247201258E+03  0.37166546386E+03  0.17300000000E+03 0. -1.
<mgrwt>
<rscale>  2 0.20123732E+03</rscale>
<asrwt>0</asrwt>
<pdfrwt beam="1">  1       21 0.73143336E-01 0.20123732E+03</pdfrwt>
<pdfrwt beam="2">  1       21 0.16232419E-01 0.20123732E+03</pdfrwt>
<totfact> 0.56857546E+04</totfact>
</mgrwt>
</event>
<event>
 4    3  0.3905963E+000  0.1736640E+03  0.7546771E-02  0.1174080E+00
         21   -1    0    0  501  502  0.00000000000E+00  0.00000000000E+00  0.40440971041E+03  0.40440971041E+03  0.00000000000E+00 0. -1.
         21   -1    0    0  502  503 -0.00000000000E+00 -0.00000000000E+00 -0.22555458489E+03  0.22555458489E+03  0.00000000000E+00 0. -1.
          6    1    1    2  501    0 -0.73327256007E+01 -0.13282290823E+02  0.34712970919E+03  0.38814716683E+03  0.17300000000E+03 0. -1.
         -6    1    1    2    0  503  0.73327256007E+01  0.13282290823E+02 -0.16827458367E+03  0.24181712847E+03  0.17300000000E+03 0. -1.
<mgrwt>
<rscale>  2 0.17366401E+03</rscale>
<asrwt>0</asrwt>
<pdfrwt beam="1">  1       21 0.62216879E-01 0.17366401E+03</pdfrwt>
<pdfrwt beam="2">  1       21 0.34700705E-01 0.17366401E+03</pdfrwt>
<totfact> 0.19406474E+04</totfact>
</mgrwt>
</event>
<event>
 4    3  0.3905963E+000  0.2418485E+03  0.7546771E-02  0.1118568E+00
         21   -1    0    0  501  502  0.00000000000E+00  0.00000000000E+00  0.26452461834E+03  0.26452461834E+03  0.00000000000E+00 0.  1.
         21   -1    0    0  502  503 -0.00000000000E+00 -0.00000000000E+00 -0.38507741662E+03  0.38507741662E+03  0.00000000000E+00 0. -1.
          6    1    1    2  501    0  0.93221802965E+02 -0.14096589572E+03  0.15166406097E+03  0.28546922023E+03  0.17300000000E+03 0.  1.
         -6    1    1    2    0  503 -0.93221802965E+02  0.14096589572E+03 -0.27221685926E+03  0.36413281474E+03  0.17300000000E+03 0. -1.
<mgrwt>
<rscale>  2 0.24184848E+03</rscale>
<asrwt>0</asrwt>
<pdfrwt beam="1">  1       21 0.40696095E-01 0.24184848E+03</pdfrwt>
<pdfrwt beam="2">  1       21 0.59242679E-01 0.24184848E+03</pdfrwt>
<totfact> 0.15047529E+04</totfact>
</mgrwt>
</event>
<event>
 4    3  0.3905963E+000  0.1945046E+03  0.7546771E-02  0.1154460E+00
         21   -1    0    0  501  502  0.00000000000E+00  0.00000000000E+00  0.61339283921E+02  0.61339283921E+02  0.00000000000E+00 0.  1.
         21   -1    0    0  502  503 -0.00000000000E+00 -0.00000000000E+00 -0.76023789158E+03  0.76023789158E+03  0.00000000000E+00 0. -1.
          6    1    1    2  501    0  0.74930397493E+02 -0.47838061304E+02 -0.17099560637E+03  0.25898174062E+03  0.17300000000E+03 0. -1.
         -6    1    1    2    0  503 -0.74930397493E+02  0.47838061304E+02 -0.52790300129E+03  0.56259543488E+03  0.17300000000E+03 0. -1.
<mgrwt>
<rscale>  2 0.19450461E+03</rscale>
<asrwt>0</asrwt>
<pdfrwt beam="1">  1       21 0.94368134E-02 0.19450461E+03</pdfrwt>
<pdfrwt beam="2">  1       21 0.11695967E+00 0.19450461E+03</pdfrwt>
<totfact> 0.50514434E+04</totfact>
</mgrwt>
</event>
<event>
 4    3  0.3905963E+000  0.1868394E+03  0.7546771E-02  0.1161343E+00
         21   -1    0    0  503  502  0.00000000000E+00  0.00000000000E+00  0.68888602996E+03  0.68888602996E+03  0.00000000000E+00 0. -1.
         21   -1    0    0  501  503 -0.00000000000E+00 -0.00000000000E+00 -0.99089284107E+02  0.99089284107E+02  0.00000000000E+00 0. -1.
          6    1    1    2  501    0  0.60142512449E+02 -0.36916761307E+02  0.19502022949E+02  0.18785445954E+03  0.17300000000E+03 0. -1.
         -6    1    1    2    0  502 -0.60142512449E+02  0.36916761307E+02  0.57029472290E+03  0.60012085453E+03  0.17300000000E+03 0. -1.
<mgrwt>
<rscale>  2 0.18683942E+03</rscale>
<asrwt>0</asrwt>
<pdfrwt beam="1">  1       21 0.10598246E+00 0.18683942E+03</pdfrwt>
<pdfrwt beam="2">  1       21 0.15244506E-01 0.18683942E+03</pdfrwt>
<totfact> 0.27304491E+04</totfact>
</mgrwt>
</event>
<event>
 4    3  0.3905963E+000  0.2009612E+03  0.7546771E-02  0.1148931E+00
         21   -1    0    0  503  502  0.00000000000E+00  0.00000000000E+00  0.19701803196E+04  0.19701803196E+04  0.00000000000E+00 0. -1.
         21   -1    0    0  501  503 -0.00000000000E+00 -0.00000000000E+00 -0.21563896370E+02  0.21563896370E+02  0.00000000000E+00 0. -1.
          6    1    1    2  501    0 -0.61067949108E+02 -0.82018882663E+02  0.11956848241E+04  0.12124551910E+04  0.17300000000E+03 0. -1.
         -6    1    1    2    0  502  0.61067949108E+02  0.82018882663E+02  0.75293159914E+03  0.77928902501E+03  0.17300000000E+03 0. -1.
<mgrwt>
<rscale>  2 0.20096117E+03</rscale>
<asrwt>0</asrwt>
<pdfrwt beam="1">  1       21 0.30310452E+00 0.20096117E+03</pdfrwt>
<pdfrwt beam="2">  1       21 0.33175241E-02 0.20096117E+03</pdfrwt>
<totfact> 0.17396498E+04</totfact>
</mgrwt>
</event>
<event>
 4    3  0.3905963E+000  0.1804838E+03  0.7546771E-02  0.1167336E+00
         21   -1    0    0  501  502  0.00000000000E+00  0.00000000000E+00  0.17660774133E+02  0.17660774133E+02  0.00000000000E+00 0.  1.
         21   -1    0    0  502  503 -0.00000000000E+00 -0.00000000000E+00 -0.23374941991E+04  0.23374941991E+04  0.00000000000E+00 0.  1.
          6    1    1    2  501    0 -0.11767738371E+02  0.50069275944E+02 -0.61909113896E+03  0.64486297025E+03  0.17300000000E+03 0.  1.
         -6    1    1    2    0  503  0.11767738371E+02 -0.50069275944E+02 -0.17007422861E+04  0.17102920030E+04  0.17300000000E+03 0.  1.
<mgrwt>
<rscale>  2 0.18048383E+03</rscale>
<asrwt>0</asrwt>
<pdfrwt beam="1">  1       21 0.27170427E-02 0.18048383E+03</pdfrwt>
<pdfrwt beam="2">  1       21 0.35961442E+00 0.18048383E+03</pdfrwt>
<totfact> 0.11603107E+04</totfact>
</mgrwt>
</event>
<event>
 4    3  0.3905963E+000  0.2419978E+03  0.7546771E-02  0.1118469E+00
         21   -1    0    0  501  502  0.00000000000E+00  0.00000000000E+00  0.22804777810E+03  0.22804777810E+03  0.00000000000E+00 0.  1.
         21   -1    0    0  502  503 -0.00000000000E+00 -0.00000000000E+00 -0.36901636634E+03  0.36901636634E+03  0.00000000000E+00 0.  1.
          6    1    1    2  501    0  0.14923129141E+03 -0.79774446473E+02  0.94140020896E+02  0.25966379066E+03  0.17300000000E+03 0.  1.
         -6    1    1    2    0  503 -0.14923129141E+03  0.79774446473E+02 -0.23510860913E+03  0.33740035378E+03  0.17300000000E+03 0.  1.
<mgrwt>
<rscale>  2 0.24199781E+03</rscale>
<asrwt>0</asrwt>
<pdfrwt beam="1">  1       21 0.35084274E-01 0.24199781E+03</pdfrwt>
<pdfrwt beam="2">  1       21 0.56771748E-01 0.24199781E+03</pdfrwt>
<totfact> 0.22235905E+04</totfact>
</mgrwt>
</event>
<event>
 4    3  0.3905963E+000  0.1818161E+03  0.7546771E-02  0.1166057E+00
         21   -1    0    0  503  502  0.00000000000E+00  0.00000000000E+00  0.58399504167E+02  0.58399504167E+02  0.00000000000E+00 0.  1.
         21   -1    0    0  501  503 -0.00000000000E+00 -0.00000000000E+00 -0.98900388792E+03  0.98900388792E+03  0.00000000000E+00 0.  1.
          6    1    1    2  501    0 -0.54954451403E+02 -0.10396949628E+02 -0.80777891647E+03  0.82798784181E+03  0.17300000000E+03 0.  1.
         -6    1    1    2    0  502  0.54954451403E+02  0.10396949628E+02 -0.12282546728E+03  0.21941555028E+03  0.17300000000E+03 0.  1.
<mgrwt>
<rscale>  2 0.18181608E+03</rscale>
<asrwt>0</asrwt>
<pdfrwt beam="1">  1       21 0.89845395E-02 0.18181608E+03</pdfrwt>
<pdfrwt beam="2">  1       21 0.15215444E+00 0.18181608E+03</pdfrwt>
<totfact> 0.28399287E+04</totfact>
</mgrwt>
</event>
<event>
 4    3  0.3905963E+000  0.1931086E+03  0.7546771E-02  0.1155687E+00
         21   -1    0    0  503  502  0.00000000000E+00  0.00000000000E+00  0.93187756549E+03  0.93187756549E+03  0.00000000000E+00 0. -1.
         21   -1    0    0  501  503 -0.00000000000E+00 -0.00000000000E+00 -0.15843041696E+03  0.15843041696E+03  0.00000000000E+00 0. -1.
          6    1    1    2  501    0  0.22848657518E+02 -0.82703507118E+02 -0.84579634196E+02  0.21081898814E+03  0.17300000000E+03 0. -1.
         -6    1    1    2    0  502 -0.22848657518E+02  0.82703507118E+02  0.85802678272E+03  0.87948899431E+03  0.17300000000E+03 0. -1.
<mgrwt>
<rscale>  2 0.19310860E+03</rscale>
<asrwt>0</asrwt>
<pdfrwt beam="1">  1       21 0.14336578E+00 0.19310860E+03</pdfrwt>
<pdfrwt beam="2">  1       21 0.24373911E-01 0.19310860E+03</pdfrwt>
<totfact> 0.53469872E+03</totfact>
</mgrwt>
</event>
<event>
 4    3  0.3905963E+000  0.2294432E+03  0.7546771E-02  0.1127032E+00
         21   -1    0    0  501  502  0.00000000000E+00  0.00000000000E+00  0.23134920738E+03  0.23134920738E+03  0.00000000000E+00 0. -1.
         21   -1    0    0  502  503 -0.00000000000E+00 -0.00000000000E+00 -0.46813914731E+03  0.46813914731E+03  0.00000000000E+00 0. -1.
          6    1    1    2  501    0 -0.17697195182E+02  0.14967294767E+03  0.13233047820E+03  0.26486890614E+03  0.17300000000E+03 0. -1.
         -6    1    1    2    0  503  0.17697195182E+02 -0.14967294767E+03 -0.36912041813E+03  0.43461944855E+03  0.17300000000E+03 0. -1.
<mgrwt>
<rscale>  2 0.22944320E+03</rscale>
<asrwt>0</asrwt>
<pdfrwt beam="1">  1       21 0.35592186E-01 0.22944320E+03</pdfrwt>
<pdfrwt beam="2">  1       21 0.72021406E-01 0.22944320E+03</pdfrwt>
<totfact> 0.12941656E+04</totfact>
</mgrwt>
</event>
<event>
 4    3  0.3905963E+000  0.1776343E+03  0.7546771E-02  0.1170112E+00
         21   -1    0    0  503  502  0.00000000000E+00  0.00000000000E+00  0.68739931877E+03  0.68739931877E+03  0.00000000000E+00 0. -1.
         21   -1    0    0  501  503 -0.00000000000E+00 -0.00000000000E+00 -0.21894803491E+03  0.21894803491E+03  0.00000000000E+00 0. -1.
          6    1    1    2  501    0 -0.40098051451E+02 -0.41343793014E+01 -0.16865208102E+03  0.24494381244E+03  0.17300000000E+03 0. -1.
         -6    1    1    2    0  502  0.40098051451E+02  0.41343793014E+01  0.63710336487E+03  0.66140354123E+03  0.17300000000E+03 0. -1.
<mgrwt>
<rscale>  2 0.17763431E+03</rscale>
<asrwt>0</asrwt>
<pdfrwt beam="1">  1       21 0.10575374E+00 0.17763431E+03</pdfrwt>
<pdfrwt beam="2">  1       21 0.33684313E-01 0.17763431E+03</pdfrwt>
<totfact> 0.61694143E+03</totfact>
</mgrwt>
</event>
<event>
 4    3  0.3905963E+000  0.2323300E+03  0.7546771E-02  0.1125011E+00
         21   -1    0    0  501  502  0.00000000000E+00  0.00000000000E+00  0.10900236000E+04  0.10900236000E+04  0.00000000000E+00 0.  1.
         21   -1    0    0  502  503 -0.00000000000E+00 -0.00000000000E+00 -0.55883543575E+02  0.55883543575E+02  0.00000000000E+00 0.  1.
          6    1    1    2  501    0  0.11629510782E+03 -0.10258486835E+03  0.71042298031E+03  0.74744766925E+03  0.17300000000E+03 0.  1.
         -6    1    1    2    0  503 -0.11629510782E+03  0.10258486835E+03  0.32371707615E+03  0.39845947436E+03  0.17300000000E+03 0.  1.
<mgrwt>
<rscale>  2 0.23232995E+03</rscale>
<asrwt>0</asrwt>
<pdfrwt beam="1">  1       21 0.16769592E+00 0.23232995E+03</pdfrwt>
<pdfrwt beam="2">  1       21 0.85974691E-02 0.23232995E+03</pdfrwt>
<totfact> 0.22849196E+04</totfact>
</mgrwt>
</event>
<event>
 4    3  0.3905963E+000  0.1910511E+03  0.7546771E-02  0.1157517E+00
         21   -1    0    0  503  502  0.00000000000E+00  0.00000000000E+00  0.27608979425E+03  0.27608979425E+03  0.00000000000E+00 0.  1.
         21   -1    0    0  501  503 -0.00000000000E+00 -0.00000000000E+00 -0.19552367181E+03  0.19552367181E+03  0.00000000000E+00 0.  1.
          6    1    1    2  501    0 -0.34900492054E+02  0.73167430204E+02 -0.93907388493E+02  0.21288286639E+03  0.17300000000E+03 0.  1.
         -6    1    1    2    0  502  0.34900492054E+02 -0.73167430204E+02  0.17447351094E+03  0.25873059967E+03  0.17300000000E+03 0.  1.
<mgrwt>
<rscale>  2 0.19105109E+03</rscale>
<asrwt>0</asrwt>
<pdfrwt beam="1">  1       21 0.42475353E-01 0.19105109E+03</pdfrwt>
<pdfrwt beam="2">  1       21 0.30080565E-01 0.19105109E+03</pdfrwt>
<totfact> 0.56572608E+04</totfact>
</mgrwt>
</event>
<event>
 4    3  0.3905963E+000  0.2184992E+03  0.7546771E-02  0.1135007E+00
         21   -1    0    0  503  502  0.00000000000E+00  0.00000000000E+00  0.33470372316E+03  0.33470372316E+03  0.00000000000E+00 0.  1.
         21   -1    0    0  501  503 -0.00000000000E+00 -0.00000000000E+00 -0.17380885663E+03  0.17380885663E+03  0.00000000000E+00 0. -1.
          6    1    1    2  501    0 -0.13090719516E+03  0.26003612094E+02 -0.27224261575E+02  0.22018865094E+03  0.17300000000E+03 0. -1.
         -6    1    1    2    0  502  0.13090719516E+03 -0.26003612094E+02  0.18811912810E+03  0.28832392884E+03  0.17300000000E+03 0. -1.
<mgrwt>
<rscale>  2 0.21849916E+03</rscale>
<asrwt>0</asrwt>
<pdfrwt beam="1">  1       21 0.51492880E-01 0.21849916E+03</pdfrwt>
<pdfrwt beam="2">  1       21 0.26739824E-01 0.21849916E+03</pdfrwt>
<totfact> 0.47118392E+04</totfact>
</mgrwt>
</event>
<event>
 4    3  0.3905963E+000  0.1735765E+03  0.7546771E-02  0.1174169E+00
         21   -1    0    0  503  502  0.00000000000E+00  0.00000000000E+00  0.20123898916E+04  0.20123898916E+04  0.00000000000E+00 0.  1.
         21   -1    0    0  501  503 -0.00000000000E+00 -0.00000000000E+00 -0.15929114913E+02  0.15929114913E+02  0.00000000000E+00 0.  1.
          6    1    1    2  501    0 -0.81281403660E+01 -0.11565092537E+02  0.12468695422E+04  0.12588933527E+04  0.17300000000E+03 0.  1.
         -6    1    1    2    0  502  0.81281403660E+01  0.11565092537E+02  0.74959123445E+03  0.76942565385E+03  0.17300000000E+03 0.  1.
<mgrwt>
<rscale>  2 0.17357655E+03</rscale>
<asrwt>0</asrwt>
<pdfrwt beam="1">  1       21 0.30959824E+00 0.17357655E+03</pdfrwt>
<pdfrwt beam="2">  1       21 0.24506347E-02 0.17357655E+03</pdfrwt>
<totfact> 0.27067504E+04</totfact>
</mgrwt>
</event>
<event>
 4    3  0.3905963E+000  0.1973075E+03  0.7546771E-02  0.1152031E+00
         21   -1    0    0  503  502  0.00000000000E+00  0.00000000000E+00  0.93115458372E+02  0.93115458372E+02  0.00000000000E+00 0.  1.
         21   -1    0    0  501  503 -0.00000000000E+00 -0.00000000000E+00 -0.86754776685E+03  0.86754776685E+03  0.00000000000E+00 0.  1.
          6    1    1    2  501    0  0.72454220058E+02 -0.61250668406E+02 -0.73294921211E+03  0.75904203172E+03  0.17300000000E+03 0.  1.
         -6    1    1    2    0  502 -0.72454220058E+02  0.61250668406E+02 -0.41483096367E+02  0.20162119350E+03  0.17300000000E+03 0.  1.
<mgrwt>
<rscale>  2 0.19730752E+03</rscale>
<asrwt>0</asrwt>
<pdfrwt beam="1">  1       21 0.14325455E-01 0.19730752E+03</pdfrwt>
<pdfrwt beam="2">  1       21 0.13346889E+00 0.19730752E+03</pdfrwt>
<totfact> 0.17193382E+04</totfact>
</mgrwt>
</event>
<event>
 4    3  0.3905963E+000  0.2176505E+03  0.7546771E-02  0.1135647E+00
         21   -1    0    0  501  502  0.00000000000E+00  0.00000000000E+00  0.38913460962E+03  0.38913460962E+03  0.00000000000E+00 0. -1.
         21   -1    0    0  502  503 -0.00000000000E+00 -0.00000000000E+00 -0.13005814256E+03  0.13005814256E+03  0.00000000000E+00 0.  1.
          6    1    1    2  501    0  0.42146314333E+02 -0.12516567181E+03  0.19520459862E+03  0.29236380168E+03  0.17300000000E+03 0. -1.
         -6    1    1    2    0  503 -0.42146314333E+02  0.12516567181E+03  0.63871868444E+02  0.22682895051E+03  0.17300000000E+03 0.  1.
<mgrwt>
<rscale>  2 0.21765054E+03</rscale>
<asrwt>0</asrwt>
<pdfrwt beam="1">  1       21 0.59866862E-01 0.21765054E+03</pdfrwt>
<pdfrwt beam="2">  1       21 0.20008945E-01 0.21765054E+03</pdfrwt>
<totfact> 0.59363058E+04</totfact>
</mgrwt>
</event>
<event>
 4    3  0.3905963E+000  0.1929907E+03  0.7546771E-02  0.1155791E+00
         21   -1    0    0  501  502  0.00000000000E+00  0.00000000000E+00  0.19032817490E+02  0.19032817490E+02  0.00000000000E+00 0. -1.
         21   -1    0    0  502  503 -0.00000000000E+00 -0.00000000000E+00 -0.23630462401E+04  0.23630462401E+04  0.00000000000E+00 0. -1.
          6    1    1    2  501    0  0.66973550086E+02 -0.53206576471E+02 -0.16657817809E+04  0.16769240704E+04  0.17300000000E+03 0. -1.
         -6    1    1    2    0  503 -0.66973550086E+02  0.53206576471E+02 -0.67823164171E+03  0.70515498723E+03  0.17300000000E+03 0. -1.
<mgrwt>
<rscale>  2 0.19299066E+03</rscale>
<asrwt>0</asrwt>
<pdfrwt beam="1">  1       21 0.29281249E-02 0.19299066E+03</pdfrwt>
<pdfrwt beam="2">  1       21 0.36354569E+00 0.19299066E+03</pdfrwt>
<totfact> 0.95655117E+03</totfact>
</mgrwt>
</event>
<event>
 4    3  0.3905963E+000  0.2240291E+03  0.7546771E-02  0.1130914E+00
         21   -1    0    0  501  502  0.00000000000E+00  0.00000000000E+00  0.70812716772E+03  0.70812716772E+03  0.00000000000E+00 0.  1.
         21   -1    0    0  502  503 -0.00000000000E+00 -0.00000000000E+00 -0.73534122567E+02  0.73534122567E+02  0.00000000000E+00 0. -1.
          6    1    1    2  501    0  0.14211191034E+03  0.80149208222E+01  0.24298549968E+03  0.33050111509E+03  0.17300000000E+03 0. -1.
         -6    1    1    2    0  503 -0.14211191034E+03 -0.80149208222E+01  0.39160754546E+03  0.45116017520E+03  0.17300000000E+03 0.  1.
<mgrwt>
<rscale>  2 0.22402909E+03</rscale>
<asrwt>0</asrwt>
<pdfrwt beam="1">  1       21 0.10894264E+00 0.22402909E+03</pdfrwt>
<pdfrwt beam="2">  1       21 0.11312942E-01 0.22402909E+03</pdfrwt>
<totfact> 0.42881684E+04</totfact>
</mgrwt>
</event>
<event>
 4    3  0.3905963E+000  0.2063500E+03  0.7546771E-02  0.1144489E+00
         21   -1    0    0  503  502  0.00000000000E+00  0.00000000000E+00  0.19199101515E+03  0.19199101515E+03  0.00000000000E+00 0. -1.
         21   -1    0    0  501  503 -0.00000000000E+00 -0.00000000000E+00 -0.22633122221E+03  0.22633122221E+03  0.00000000000E+00 0. -1.
          6    1    1    2  501    0  0.87499743668E+02 -0.70676014345E+02 -0.46821100355E+02  0.21159517855E+03  0.17300000000E+03 0. -1.
         -6    1    1    2    0  502 -0.87499743668E+02  0.70676014345E+02  0.12480893298E+02  0.20672705881E+03  0.17300000000E+03 0. -1.
<mgrwt>
<rscale>  2 0.20634996E+03</rscale>
<asrwt>0</asrwt>
<pdfrwt beam="1">  1       21 0.29537079E-01 0.20634996E+03</pdfrwt>
<pdfrwt beam="2">  1       21 0.34820188E-01 0.20634996E+03</pdfrwt>
<totfact> 0.86824864E+04</totfact>
</mgrwt>
</event>
<event>
 4    3  0.3905963E+000  0.1752356E+03  0.7546771E-02  0.1172495E+00
         21   -1    0    0  501  502  0.00000000000E+00  0.00000000000E+00  0.16511491013E+03  0.16511491013E+03  0.00000000000E+00 0.  1.
         21   -1    0    0  502  503 -0.00000000000E+00 -0.00000000000E+00 -0.28867100924E+03  0.28867100924E+03  0.00000000000E+00 0.  1.
          6    1    1    2  501    0 -0.17435655499E+02  0.21783233675E+02  0.73551555055E+02  0.19004563295E+03  0.17300000000E+03 0.  1.
         -6    1    1    2    0  503  0.17435655499E+02 -0.21783233675E+02 -0.19710765417E+03  0.26374028642E+03  0.17300000000E+03 0.  1.
<mgrwt>
<rscale>  2 0.17523559E+03</rscale>
<asrwt>0</asrwt>
<pdfrwt beam="1">  1       21 0.25402294E-01 0.17523559E+03</pdfrwt>
<pdfrwt beam="2">  1       21 0.44410924E-01 0.17523559E+03</pdfrwt>
<totfact> 0.72058441E+04</totfact>
</mgrwt>
</event>
<event>
 4    3  0.3905963E+000  0.2627703E+03  0.7546771E-02  0.1105490E+00
         21   -1    0    0  501  502  0.00000000000E+00  0.00000000000E+00  0.28190762652E+03  0.28190762652E+03  0.00000000000E+00 0. -1.
         21   -1    0    0  502  503 -0.00000000000E+00 -0.00000000000E+00 -0.40795166530E+03  0.40795166530E+03  0.00000000000E+00 0.  1.
          6    1    1    2  501    0  0.19146791683E+03 -0.49591202024E+02  0.15502287485E+03  0.30509071146E+03  0.17300000000E+03 0. -1.
         -6    1    1    2    0  503 -0.19146791683E+03  0.49591202024E+02 -0.28106691364E+03  0.38476858036E+03  0.17300000000E+03 0.  1.
<mgrwt>
<rscale>  2 0.26277034E+03</rscale>
<asrwt>0</asrwt>
<pdfrwt beam="1">  1       21 0.43370404E-01 0.26277034E+03</pdfrwt>
<pdfrwt beam="2">  1       21 0.62761795E-01 0.26277034E+03</pdfrwt>
<totfact> 0.11530571E+04</totfact>
</mgrwt>
</event>
<event>
 4    3  0.3905963E+000  0.2282661E+03  0.7546771E-02  0.1127866E+00
         21   -1    0    0  501  502  0.00000000000E+00  0.00000000000E+00  0.25018628451E+03  0.25018628451E+03  0.00000000000E+00 0.  1.
         21   -1    0    0  502  503 -0.00000000000E+00 -0.00000000000E+00 -0.23263338758E+03  0.23263338758E+03  0.00000000000E+00 0.  1.
          6    1    1    2  501    0  0.69477662436E+02 -0.13171665274E+03  0.86906651963E+02  0.24425025761E+03  0.17300000000E+03 0.  1.
         -6    1    1    2    0  503 -0.69477662436E+02  0.13171665274E+03 -0.69353755029E+02  0.23856941448E+03  0.17300000000E+03 0.  1.
<mgrwt>
<rscale>  2 0.22826612E+03</rscale>
<asrwt>0</asrwt>
<pdfrwt beam="1">  1       21 0.38490198E-01 0.22826612E+03</pdfrwt>
<pdfrwt beam="2">  1       21 0.35789752E-01 0.22826612E+03</pdfrwt>
<totfact> 0.48187784E+04</totfact>
</mgrwt>
</event>
<event>
 4    3  0.3905963E+000  0.2853899E+03  0.7546771E-02  0.1092781E+00
         21   -1    0    0  501  502  0.00000000000E+00  0.00000000000E+00  0.12650648922E+04  0.12650648922E+04  0.00000000000E+00 0.  1.
         21   -1    0    0  502  503 -0.00000000000E+00 -0.00000000000E+00 -0.64466666115E+02  0.64466666115E+02  0.00000000000E+00 0. -1.
          6    1    1    2  501    0 -0.22041382171E+03  0.54186428693E+02  0.62438859957E+03  0.68651915132E+03  0.17300000000E+03 0.  1.
         -6    1    1    2    0  503  0.22041382171E+03 -0.54186428693E+02  0.57620962648E+03  0.64301240696E+03  0.17300000000E+03 0. -1.
<mgrwt>
<rscale>  2 0.28538995E+03</rscale>
<asrwt>0</asrwt>
<pdfrwt beam="1">  1       21 0.19462535E+00 0.28538995E+03</pdfrwt>
<pdfrwt beam="2">  1       21 0.99179496E-02 0.28538995E+03</pdfrwt>
<totfact> 0.11239746E+04</totfact>
</mgrwt>
</event>
<event>
 4    3  0.3905963E+000  0.2636755E+03  0.7546771E-02  0.1104955E+00
         21   -1    0    0  501  502  0.00000000000E+00  0.00000000000E+00  0.41948422214E+02  0.41948422214E+02  0.00000000000E+00 0.  1.
         21   -1    0    0  502  503 -0.00000000000E+00 -0.00000000000E+00 -0.17313401792E+04  0.17313401792E+04  0.00000000000E+00 0.  1.
          6    1    1    2  501    0  0.17615906182E+03  0.92540491434E+02 -0.66144861856E+03  0.71206673326E+03  0.17300000000E+03 0.  1.
         -6    1    1    2    0  503 -0.17615906182E+03 -0.92540491434E+02 -0.10279431384E+04  0.10612218681E+04  0.17300000000E+03 0.  1.
<mgrwt>
<rscale>  2 0.26367548E+03</rscale>
<asrwt>0</asrwt>
<pdfrwt beam="1">  1       21 0.64536034E-02 0.26367548E+03</pdfrwt>
<pdfrwt beam="2">  1       21 0.26636003E+00 0.26367548E+03</pdfrwt>
<totfact> 0.87286557E+03</totfact>
</mgrwt>
</event>
<event>
 4    3  0.3905963E+000  0.1784281E+03  0.7546771E-02  0.1169333E+00
         21   -1    0    0  501  502  0.00000000000E+00  0.00000000000E+00  0.16248724269E+03  0.16248724269E+03  0.00000000000E+00 0. -1.
         21   -1    0    0  502  503 -0.00000000000E+00 -0.00000000000E+00 -0.19694483789E+03  0.19694483789E+03  0.00000000000E+00 0. -1.
          6    1    1    2  501    0 -0.12226125656E+02 -0.41929597247E+02 -0.43454818616E+01  0.17848095833E+03  0.17300000000E+03 0. -1.
         -6    1    1    2    0  503  0.12226125656E+02  0.41929597247E+02 -0.30112113340E+02  0.18095112225E+03  0.17300000000E+03 0. -1.
<mgrwt>
<rscale>  2 0.17842805E+03</rscale>
<asrwt>0</asrwt>
<pdfrwt beam="1">  1       21 0.24998037E-01 0.17842805E+03</pdfrwt>
<pdfrwt beam="2">  1       21 0.30299206E-01 0.17842805E+03</pdfrwt>
<totfact> 0.15904457E+05</totfact>
</mgrwt>
</event>
<event>
 4    3  0.3905963E+000  0.3364096E+03  0.7546771E-02  0.1068336E+00
         21   -1    0    0  503  502  0.00000000000E+00  0.00000000000E+00  0.10417120003E+04  0.10417120003E+04  0.00000000000E+00 0.  1.
         21   -1    0    0  501  503 -0.00000000000E+00 -0.00000000000E+00 -0.29640917008E+03  0.29640917008E+03  0.00000000000E+00 0. -1.
          6    1    1    2  501    0  0.43173151395E+02 -0.28526913430E+03 -0.15986375532E+03  0.37246183731E+03  0.17300000000E+03 0. -1.
         -6    1    1    2    0  502 -0.43173151395E+02  0.28526913430E+03  0.90516658554E+03  0.96565933308E+03  0.17300000000E+03 0. -1.
<mgrwt>
<rscale>  2 0.33640957E+03</rscale>
<asrwt>0</asrwt>
<pdfrwt beam="1">  1       21 0.16026338E+00 0.33640957E+03</pdfrwt>
<pdfrwt beam="2">  1       21 0.45601411E-01 0.33640957E+03</pdfrwt>
<totfact> 0.10310866E+03</totfact>
</mgrwt>
</event>
<event>
 4    3  0.3905963E+000  0.1779749E+03  0.7546771E-02  0.1169777E+00
         21   -1    0    0  501  502  0.00000000000E+00  0.00000000000E+00  0.34722222609E+03  0.34722222609E+03  0.00000000000E+00 0.  1.
         21   -1    0    0  502  503 -0.00000000000E+00 -0.00000000000E+00 -0.21181432198E+03  0.21181432198E+03  0.00000000000E+00 0.  1.
          6    1    1    2  501    0  0.13563058486E+02  0.39523735153E+02  0.27860966696E+03  0.33060312872E+03  0.17300000000E+03 0.  1.
         -6    1    1    2    0  503 -0.13563058486E+02 -0.39523735153E+02 -0.14320176285E+03  0.22843341935E+03  0.17300000000E+03 0.  1.
<mgrwt>
<rscale>  2 0.17797495E+03</rscale>
<asrwt>0</asrwt>
<pdfrwt beam="1">  1       21 0.53418804E-01 0.17797495E+03</pdfrwt>
<pdfrwt beam="2">  1       21 0.32586819E-01 0.17797495E+03</pdfrwt>
<totfact> 0.30303605E+04</totfact>
</mgrwt>
</event>
<event>
 4    3  0.3905963E+000  0.1743614E+03  0.7546771E-02  0.1173374E+00
         21   -1    0    0  503  502  0.00000000000E+00  0.00000000000E+00  0.31956860233E+03  0.31956860233E+03  0.00000000000E+00 0. -1.
         21   -1    0    0  501  503 -0.00000000000E+00 -0.00000000000E+00 -0.95185504739E+02  0.95185504739E+02  0.00000000000E+00 0. -1.
          6    1    1    2  501    0  0.21614501721E+02  0.23900387820E+01  0.10737637748E+03  0.20477203279E+03  0.17300000000E+03 0. -1.
         -6    1    1    2    0  502 -0.21614501721E+02 -0.23900387820E+01  0.11700672011E+03  0.20998207428E+03  0.17300000000E+03 0. -1.
<mgrwt>
<rscale>  2 0.17436140E+03</rscale>
<asrwt>0</asrwt>
<pdfrwt beam="1">  1       21 0.49164400E-01 0.17436140E+03</pdfrwt>
<pdfrwt beam="2">  1       21 0.14643924E-01 0.17436140E+03</pdfrwt>
<totfact> 0.16267560E+05</totfact>
</mgrwt>
</event>
<event>
 4    3  0.3905963E+000  0.2407473E+03  0.7546771E-02  0.1119296E+00
         21   -1    0    0  501  502  0.00000000000E+00  0.00000000000E+00  0.50050941325E+03  0.50050941325E+03  0.00000000000E+00 0.  1.
         21   -1    0    0  502  503 -0.00000000000E+00 -0.00000000000E+00 -0.31873605913E+03  0.31873605913E+03  0.00000000000E+00 0. -1.
          6    1    1    2  501    0 -0.16709745078E+03  0.10425888663E+02  0.41773592872E+03  0.48214371649E+03  0.17300000000E+03 0.  1.
         -6    1    1    2    0  503  0.16709745078E+03 -0.10425888663E+02 -0.23596257460E+03  0.33710175589E+03  0.17300000000E+03 0. -1.
<mgrwt>
<rscale>  2 0.24074729E+03</rscale>
<asrwt>0</asrwt>
<pdfrwt beam="1">  1       21 0.77001448E-01 0.24074729E+03</pdfrwt>
<pdfrwt beam="2">  1       21 0.49036317E-01 0.24074729E+03</pdfrwt>
<totfact> 0.57499722E+03</totfact>
</mgrwt>
</event>
<event>
 4    3  0.3905963E+000  0.2223874E+03  0.7546771E-02  0.1132116E+00
         21   -1    0    0  503  502  0.00000000000E+00  0.00000000000E+00  0.18027670749E+03  0.18027670749E+03  0.00000000000E+00 0.  1.
         21   -1    0    0  501  503 -0.00000000000E+00 -0.00000000000E+00 -0.39503240187E+03  0.39503240187E+03  0.00000000000E+00 0. -1.
          6    1    1    2  501    0  0.91865468330E+02 -0.10529905152E+03 -0.26638051649E+03  0.34700826227E+03  0.17300000000E+03 0. -1.
         -6    1    1    2    0  502 -0.91865468330E+02  0.10529905152E+03  0.51624822102E+02  0.22830084708E+03  0.17300000000E+03 0.  1.
<mgrwt>
<rscale>  2 0.22238740E+03</rscale>
<asrwt>0</asrwt>
<pdfrwt beam="1">  1       21 0.27734878E-01 0.22238740E+03</pdfrwt>
<pdfrwt beam="2">  1       21 0.60774215E-01 0.22238740E+03</pdfrwt>
<totfact> 0.30792026E+04</totfact>
</mgrwt>
</event>
<event>
 4    3  0.3905963E+000  0.2296243E+03  0.7546771E-02  0.1126904E+00
         21   -1    0    0  501  502  0.00000000000E+00  0.00000000000E+00  0.18472253812E+03  0.18472253812E+03  0.00000000000E+00 0.  1.
         21   -1    0    0  502  503 -0.00000000000E+00 -0.00000000000E+00 -0.35275113676E+03  0.35275113676E+03  0.00000000000E+00 0.  1.
          6    1    1    2  501    0 -0.14033868929E+03 -0.55707785158E+02  0.33376657237E+02  0.23203729504E+03  0.17300000000E+03 0.  1.
         -6    1    1    2    0  503  0.14033868929E+03  0.55707785158E+02 -0.20140525588E+03  0.30543637985E+03  0.17300000000E+03 0.  1.
<mgrwt>
<rscale>  2 0.22962427E+03</rscale>
<asrwt>0</asrwt>
<pdfrwt beam="1">  1       21 0.28418852E-01 0.22962427E+03</pdfrwt>
<pdfrwt beam="2">  1       21 0.54269406E-01 0.22962427E+03</pdfrwt>
<totfact> 0.37289744E+04</totfact>
</mgrwt>
</event>
<event>
 4    3  0.3905963E+000  0.2048616E+03  0.7546771E-02  0.1145701E+00
         21   -1    0    0  501  502  0.00000000000E+00  0.00000000000E+00  0.31482910366E+03  0.31482910366E+03  0.00000000000E+00 0. -1.
         21   -1    0    0  502  503 -0.00000000000E+00 -0.00000000000E+00 -0.14898741831E+03  0.14898741831E+03  0.00000000000E+00 0. -1.
          6    1    1    2  501    0 -0.66317624896E+02 -0.87414304423E+02  0.15816073900E+03  0.25881094905E+03  0.17300000000E+03 0. -1.
         -6    1    1    2    0  503  0.66317624896E+02  0.87414304423E+02  0.76809463449E+01  0.20500557292E+03  0.17300000000E+03 0. -1.
<mgrwt>
<rscale>  2 0.20486163E+03</rscale>
<asrwt>0</asrwt>
<pdfrwt beam="1">  1       21 0.48435247E-01 0.20486163E+03</pdfrwt>
<pdfrwt beam="2">  1       21 0.22921141E-01 0.20486163E+03</pdfrwt>
<totfact> 0.72332247E+04</totfact>
</mgrwt>
</event>
<event>
 4    3  0.3905963E+000  0.1993163E+03  0.7546771E-02  0.1150317E+00
         21   -1    0    0  503  502  0.00000000000E+00  0.00000000000E+00  0.26505087559E+03  0.26505087559E+03  0.00000000000E+00 0.  1.
         21   -1    0    0  501  503 -0.00000000000E+00 -0.00000000000E+00 -0.24008322507E+03  0.24008322507E+03  0.00000000000E+00 0. -1.
          6    1    1    2  501    0  0.24406167510E+02  0.95928688812E+02 -0.14232523690E+03  0.24491518411E+03  0.17300000000E+03 0. -1.
         -6    1    1    2    0  502 -0.24406167510E+02 -0.95928688812E+02  0.16729288742E+03  0.26021891655E+03  0.17300000000E+03 0.  1.
<mgrwt>
<rscale>  2 0.19931627E+03</rscale>
<asrwt>0</asrwt>
<pdfrwt beam="1">  1       21 0.40777058E-01 0.19931627E+03</pdfrwt>
<pdfrwt beam="2">  1       21 0.36935881E-01 0.19931627E+03</pdfrwt>
<totfact> 0.40816916E+04</totfact>
</mgrwt>
</event>
<event>
 4    3  0.3905963E+000  0.2866685E+03  0.7546771E-02  0.1092101E+00
         21   -1    0    0  501  502  0.00000000000E+00  0.00000000000E+00  0.23101480842E+03  0.23101480842E+03  0.00000000000E+00 0. -1.
         21   -1    0    0  502  503 -0.00000000000E+00 -0.00000000000E+00 -0.41374084323E+03  0.41374084323E+03  0.00000000000E+00 0.  1.
          6    1    1    2  501    0  0.20843971230E+03 -0.93822887853E+02  0.29350626883E+02  0.28816715157E+03  0.17300000000E+03 0. -1.
         -6    1    1    2    0  503 -0.20843971230E+03  0.93822887853E+02 -0.21207666170E+03  0.35658850008E+03  0.17300000000E+03 0.  1.
<mgrwt>
<rscale>  2 0.28666853E+03</rscale>
<asrwt>0</asrwt>
<pdfrwt beam="1">  1       21 0.35540740E-01 0.28666853E+03</pdfrwt>
<pdfrwt beam="2">  1       21 0.63652436E-01 0.28666853E+03</pdfrwt>
<totfact> 0.16570444E+04</totfact>
</mgrwt>
</event>
<event>
 4    3  0.3905963E+000  0.2046540E+03  0.7546771E-02  0.1145871E+00
         21   -1    0    0  501  502  0.00000000000E+00  0.00000000000E+00  0.39777801299E+03  0.39777801299E+03  0.00000000000E+00 0.  1.
         21   -1    0    0  502  503 -0.00000000000E+00 -0.00000000000E+00 -0.10530439139E+03  0.10530439139E+03  0.00000000000E+00 0. -1.
          6    1    1    2  501    0  0.18138747277E+02 -0.10782052525E+03  0.14884160353E+03  0.25305553296E+03  0.17300000000E+03 0. -1.
         -6    1    1    2    0  503 -0.18138747277E+02  0.10782052525E+03  0.14363201807E+03  0.25002687142E+03  0.17300000000E+03 0.  1.
<mgrwt>
<rscale>  2 0.20465405E+03</rscale>
<asrwt>0</asrwt>
<pdfrwt beam="1">  1       21 0.61196617E-01 0.20465405E+03</pdfrwt>
<pdfrwt beam="2">  1       21 0.16200676E-01 0.20465405E+03</pdfrwt>
<totfact> 0.84204373E+04</totfact>
</mgrwt>
</event>
<event>
 4    3  0.3905963E+000  0.2178300E+03  0.7546771E-02  0.1135511E+00
         21   -1    0    0  501  502  0.00000000000E+00  0.00000000000E+00  0.81849562831E+02  0.81849562831E+02  0.00000000000E+00 0. -1.
         21   -1    0    0  502  503 -0.00000000000E+00 -0.00000000000E+00 -0.76494732317E+03  0.76494732317E+03  0.00000000000E+00 0. -1.
          6    1    1    2  501    0 -0.10598531494E+03  0.79296962650E+02 -0.13320293057E+03  0.25532903474E+03  0.17300000000E+03 0. -1.
         -6    1    1    2    0  503  0.10598531494E+03 -0.79296962650E+02 -0.54989482976E+03  0.59146785126E+03  0.17300000000E+03 0. -1.
<mgrwt>
<rscale>  2 0.21782997E+03</rscale>
<asrwt>0</asrwt>
<pdfrwt beam="1">  1       21 0.12592240E-01 0.21782997E+03</pdfrwt>
<pdfrwt beam="2">  1       21 0.11768420E+00 0.21782997E+03</pdfrwt>
<totfact> 0.29398508E+04</totfact>
</mgrwt>
</event>
<event>
 4    3  0.3905963E+000  0.2137390E+03  0.7546771E-02  0.1138639E+00
         21   -1    0    0  503  502  0.00000000000E+00  0.00000000000E+00  0.24099784742E+03  0.24099784742E+03  0.00000000000E+00 0. -1.
         21   -1    0    0  501  503 -0.00000000000E+00 -0.00000000000E+00 -0.33290254820E+03  0.33290254820E+03  0.00000000000E+00 0. -1.
          6    1    1    2  501    0 -0.23270144287E+02 -0.12334456565E+03 -0.23424367673E+03  0.31710326643E+03  0.17300000000E+03 0. -1.
         -6    1    1    2    0  502  0.23270144287E+02  0.12334456565E+03  0.14233897595E+03  0.25679712920E+03  0.17300000000E+03 0. -1.
<mgrwt>
<rscale>  2 0.21373905E+03</rscale>
<asrwt>0</asrwt>
<pdfrwt beam="1">  1       21 0.37076592E-01 0.21373905E+03</pdfrwt>
<pdfrwt beam="2">  1       21 0.51215776E-01 0.21373905E+03</pdfrwt>
<totfact> 0.25124913E+04</totfact>
</mgrwt>
</event>
<event>
 4    3  0.3905963E+000  0.2124811E+03  0.7546771E-02  0.1139616E+00
         21   -1    0    0  503  502  0.00000000000E+00  0.00000000000E+00  0.13666851355E+03  0.13666851355E+03  0.00000000000E+00 0. -1.
         21   -1    0    0  501  503 -0.00000000000E+00 -0.00000000000E+00 -0.33042702394E+03  0.33042702394E+03  0.00000000000E+00 0.  1.
          6    1    1    2  501    0 -0.37392369460E+02  0.11756293149E+03 -0.93277897221E+02  0.23205386932E+03  0.17300000000E+03 0.  1.
         -6    1    1    2    0  502  0.37392369460E+02 -0.11756293149E+03 -0.10048061317E+03  0.23504166817E+03  0.17300000000E+03 0.  1.
<mgrwt>
<rscale>  2 0.21248113E+03</rscale>
<asrwt>0</asrwt>
<pdfrwt beam="1">  1       21 0.21025925E-01 0.21248113E+03</pdfrwt>
<pdfrwt beam="2">  1       21 0.50834926E-01 0.21248113E+03</pdfrwt>
<totfact> 0.76711432E+04</totfact>
</mgrwt>
</event>
<event>
 4    3  0.3905963E+000  0.2652478E+03  0.7546771E-02  0.1104031E+00
         21   -1    0    0  501  502  0.00000000000E+00  0.00000000000E+00  0.12700492714E+04  0.12700492714E+04  0.00000000000E+00 0.  1.
         21   -1    0    0  502  503 -0.00000000000E+00 -0.00000000000E+00 -0.10006477562E+03  0.10006477562E+03  0.00000000000E+00 0.  1.
          6    1    1    2  501    0  0.95963568003E+02 -0.17668726070E+03  0.10426968539E+04  0.10759057225E+04  0.17300000000E+03 0.  1.
         -6    1    1    2    0  503 -0.95963568003E+02  0.17668726070E+03  0.12728764189E+03  0.29420832459E+03  0.17300000000E+03 0.  1.
<mgrwt>
<rscale>  2 0.26524780E+03</rscale>
<asrwt>0</asrwt>
<pdfrwt beam="1">  1       21 0.19539218E+00 0.26524780E+03</pdfrwt>
<pdfrwt beam="2">  1       21 0.15394582E-01 0.26524780E+03</pdfrwt>
<totfact> 0.50791705E+03</totfact>
</mgrwt>
</event>
<event>
 4    3  0.3905963E+000  0.1785340E+03  0.7546771E-02  0.1169229E+00
         21   -1    0    0  503  502  0.00000000000E+00  0.00000000000E+00  0.53853327507E+03  0.53853327507E+03  0.00000000000E+00 0. -1.
         21   -1    0    0  501  503 -0.00000000000E+00 -0.00000000000E+00 -0.62038228036E+02  0.62038228036E+02  0.00000000000E+00 0. -1.
          6    1    1    2  501    0 -0.13191150000E+02 -0.42087753646E+02  0.30261854353E+03  0.35135789209E+03  0.17300000000E+03 0. -1.
         -6    1    1    2    0  502  0.13191150000E+02  0.42087753646E+02  0.17387650351E+03  0.24921361102E+03  0.17300000000E+03 0. -1.
<mgrwt>
<rscale>  2 0.17853399E+03</rscale>
<asrwt>0</asrwt>
<pdfrwt beam="1">  1       21 0.82851270E-01 0.17853399E+03</pdfrwt>
<pdfrwt beam="2">  1       21 0.95443431E-02 0.17853399E+03</pdfrwt>
<totfact> 0.11252594E+05</totfact>
</mgrwt>
</event>
<event>
 4    3  0.3905963E+000  0.2459415E+03  0.7546771E-02  0.1115897E+00
         21   -1    0    0  503  502  0.00000000000E+00  0.00000000000E+00  0.65064503695E+02  0.65064503695E+02  0.00000000000E+00 0.  1.
         21   -1    0    0  501  503 -0.00000000000E+00 -0.00000000000E+00 -0.11177218936E+04  0.11177218936E+04  0.00000000000E+00 0.  1.
          6    1    1    2  501    0  0.38659502944E+02 -0.17048075280E+03 -0.76891757625E+03  0.80729268751E+03  0.17300000000E+03 0.  1.
         -6    1    1    2    0  502 -0.38659502944E+02  0.17048075280E+03 -0.28373981371E+03  0.37549370984E+03  0.17300000000E+03 0.  1.
<mgrwt>
<rscale>  2 0.24594155E+03</rscale>
<asrwt>0</asrwt>
<pdfrwt beam="1">  1       21 0.10009924E-01 0.24594155E+03</pdfrwt>
<pdfrwt beam="2">  1       21 0.17195721E+00 0.24594155E+03</pdfrwt>
<totfact> 0.16160858E+04</totfact>
</mgrwt>
</event>
<event>
 4    3  0.3905963E+000  0.2229994E+03  0.7546771E-02  0.1131666E+00
         21   -1    0    0  501  502  0.00000000000E+00  0.00000000000E+00  0.11637756114E+03  0.11637756114E+03  0.00000000000E+00 0.  1.
         21   -1    0    0  502  503 -0.00000000000E+00 -0.00000000000E+00 -0.42743498236E+03  0.42743498236E+03  0.00000000000E+00 0.  1.
          6    1    1    2  501    0  0.79920658896E+02  0.11581200932E+03 -0.15079014496E+03  0.26919584142E+03  0.17300000000E+03 0.  1.
         -6    1    1    2    0  503 -0.79920658896E+02 -0.11581200932E+03 -0.16026727627E+03  0.27461670208E+03  0.17300000000E+03 0.  1.
<mgrwt>
<rscale>  2 0.22299940E+03</rscale>
<asrwt>0</asrwt>
<pdfrwt beam="1">  1       21 0.17904240E-01 0.22299940E+03</pdfrwt>
<pdfrwt beam="2">  1       21 0.65759227E-01 0.22299940E+03</pdfrwt>
<totfact> 0.59424574E+04</totfact>
</mgrwt>
</event>
<event>
 4    3  0.3905963E+000  0.1778901E+03  0.7546771E-02  0.1169861E+00
         21   -1    0    0  503  502  0.00000000000E+00  0.00000000000E+00  0.26264071472E+03  0.26264071472E+03  0.00000000000E+00 0. -1.
         21   -1    0    0  501  503 -0.00000000000E+00 -0.00000000000E+00 -0.12534603383E+03  0.12534603383E+03  0.00000000000E+00 0. -1.
          6    1    1    2  501    0  0.41365008120E+02  0.21935217428E+01  0.10684109282E+03  0.20750878186E+03  0.17300000000E+03 0. -1.
         -6    1    1    2    0  502 -0.41365008120E+02 -0.21935217428E+01  0.30453588074E+02  0.18047796669E+03  0.17300000000E+03 0. -1.
<mgrwt>
<rscale>  2 0.17789007E+03</rscale>
<asrwt>0</asrwt>
<pdfrwt beam="1">  1       21 0.40406264E-01 0.17789007E+03</pdfrwt>
<pdfrwt beam="2">  1       21 0.19284005E-01 0.17789007E+03</pdfrwt>
<totfact> 0.14651687E+05</totfact>
</mgrwt>
</event>
<event>
 4    3  0.3905963E+000  0.1860468E+03  0.7546771E-02  0.1162076E+00
         21   -1    0    0  503  502  0.00000000000E+00  0.00000000000E+00  0.12592155079E+03  0.12592155079E+03  0.00000000000E+00 0. -1.
         21   -1    0    0  501  503 -0.00000000000E+00 -0.00000000000E+00 -0.34461637818E+03  0.34461637818E+03  0.00000000000E+00 0. -1.
          6    1    1    2  501    0 -0.49327355559E+01 -0.68264813080E+02 -0.21518109137E+03  0.28445793831E+03  0.17300000000E+03 0. -1.
         -6    1    1    2    0  502  0.49327355559E+01  0.68264813080E+02 -0.35137360247E+01  0.18607999066E+03  0.17300000000E+03 0. -1.
<mgrwt>
<rscale>  2 0.18604681E+03</rscale>
<asrwt>0</asrwt>
<pdfrwt beam="1">  1       21 0.19372547E-01 0.18604681E+03</pdfrwt>
<pdfrwt beam="2">  1       21 0.53017904E-01 0.18604681E+03</pdfrwt>
<totfact> 0.82782208E+04</totfact>
</mgrwt>
</event>
<event>
 4    3  0.3905963E+000  0.1832061E+03  0.7546771E-02  0.1164736E+00
         21   -1    0    0  503  502  0.00000000000E+00  0.00000000000E+00  0.85870426881E+02  0.85870426881E+02  0.00000000000E+00 0. -1.
         21   -1    0    0  501  503 -0.00000000000E+00 -0.00000000000E+00 -0.54172441981E+03  0.54172441981E+03  0.00000000000E+00 0. -1.
          6    1    1    2  501    0  0.23087825780E+02  0.55699321165E+02 -0.39351709053E+03  0.43407391377E+03  0.17300000000E+03 0. -1.
         -6    1    1    2    0  502 -0.23087825780E+02 -0.55699321165E+02 -0.62336902399E+02  0.19352093292E+03  0.17300000000E+03 0. -1.
<mgrwt>
<rscale>  2 0.18320606E+03</rscale>
<asrwt>0</asrwt>
<pdfrwt beam="1">  1       21 0.13210835E-01 0.18320606E+03</pdfrwt>
<pdfrwt beam="2">  1       21 0.83342219E-01 0.18320606E+03</pdfrwt>
<totfact> 0.62156704E+04</totfact>
</mgrwt>
</event>
<event>
 4    3  0.3905963E+000  0.1991147E+03  0.7546771E-02  0.1150488E+00
         21   -1    0    0  503  502  0.00000000000E+00  0.00000000000E+00  0.16474258537E+04  0.16474258537E+04  0.00000000000E+00 0.  1.
         21   -1    0    0  501  503 -0.00000000000E+00 -0.00000000000E+00 -0.31225839195E+02  0.31225839195E+02  0.00000000000E+00 0.  1.
          6    1    1    2  501    0  0.86195300832E+02 -0.47833209590E+02  0.40618818374E+03  0.45236653992E+03  0.17300000000E+03 0.  1.
         -6    1    1    2    0  502 -0.86195300832E+02  0.47833209590E+02  0.12100118308E+04  0.12262851530E+04  0.17300000000E+03 0.  1.
<mgrwt>
<rscale>  2 0.19911465E+03</rscale>
<asrwt>0</asrwt>
<pdfrwt beam="1">  1       21 0.25345006E+00 0.19911465E+03</pdfrwt>
<pdfrwt beam="2">  1       21 0.48039766E-02 0.19911465E+03</pdfrwt>
<totfact> 0.18162673E+04</totfact>
</mgrwt>
</event>
<event>
 4    3  0.3905963E+000  0.2018147E+03  0.7546771E-02  0.1148217E+00
         21   -1    0    0  501  502  0.00000000000E+00  0.00000000000E+00  0.13941321903E+03  0.13941321903E+03  0.00000000000E+00 0.  1.
         21   -1    0    0  502  503 -0.00000000000E+00 -0.00000000000E+00 -0.32544572018E+03  0.32544572018E+03  0.00000000000E+00 0.  1.
          6    1    1    2  501    0 -0.68960359591E+02 -0.77747216318E+02 -0.18668925830E+02  0.20267631739E+03  0.17300000000E+03 0.  1.
         -6    1    1    2    0  503  0.68960359591E+02  0.77747216318E+02 -0.16736357532E+03  0.26218262182E+03  0.17300000000E+03 0.  1.
<mgrwt>
<rscale>  2 0.20181467E+03</rscale>
<asrwt>0</asrwt>
<pdfrwt beam="1">  1       21 0.21448188E-01 0.20181467E+03</pdfrwt>
<pdfrwt beam="2">  1       21 0.50068572E-01 0.20181467E+03</pdfrwt>
<totfact> 0.76627929E+04</totfact>
</mgrwt>
</event>
<event>
 4    3  0.3905963E+000  0.2502365E+03  0.7546771E-02  0.1113155E+00
         21   -1    0    0  503  502  0.00000000000E+00  0.00000000000E+00  0.32841349292E+03  0.32841349292E+03  0.00000000000E+00 0.  1.
         21   -1    0    0  501  503 -0.00000000000E+00 -0.00000000000E+00 -0.20275775005E+03  0.20275775005E+03  0.00000000000E+00 0.  1.
          6    1    1    2  501    0  0.17664166943E+03  0.38561774527E+02 -0.20214694593E+01  0.25024463266E+03  0.17300000000E+03 0.  1.
         -6    1    1    2    0  502 -0.17664166943E+03 -0.38561774527E+02  0.12767721233E+03  0.28092661032E+03  0.17300000000E+03 0.  1.
<mgrwt>
<rscale>  2 0.25023647E+03</rscale>
<asrwt>0</asrwt>
<pdfrwt beam="1">  1       21 0.50525153E-01 0.25023647E+03</pdfrwt>
<pdfrwt beam="2">  1       21 0.31193500E-01 0.25023647E+03</pdfrwt>
<totfact> 0.35808285E+04</totfact>
</mgrwt>
</event>
<event>
 4    3  0.3905963E+000  0.5448788E+03  0.7546771E-02  0.1002686E+00
         21   -1    0    0  501  502  0.00000000000E+00  0.00000000000E+00  0.19528833041E+04  0.19528833041E+04  0.00000000000E+00 0.  1.
         21   -1    0    0  502  503 -0.00000000000E+00 -0.00000000000E+00 -0.74139256182E+03  0.74139256182E+03  0.00000000000E+00 0. -1.
          6    1    1    2  501    0 -0.23206476399E+03 -0.46163824672E+03  0.18068475794E+04  0.18872178202E+04  0.17300000000E+03 0.  1.
         -6    1    1    2    0  503  0.23206476399E+03  0.46163824672E+03 -0.59535683720E+03  0.80705804569E+03  0.17300000000E+03 0. -1.
<mgrwt>
<rscale>  2 0.54487882E+03</rscale>
<asrwt>0</asrwt>
<pdfrwt beam="1">  1       21 0.30044358E+00 0.54487882E+03</pdfrwt>
<pdfrwt beam="2">  1       21 0.11406039E+00 0.54487882E+03</pdfrwt>
<totfact> 0.14118871E+01</totfact>
</mgrwt>
</event>
<event>
 4    3  0.3905963E+000  0.2442292E+03  0.7546771E-02  0.1117007E+00
         21   -1    0    0  503  502  0.00000000000E+00  0.00000000000E+00  0.50302635379E+03  0.50302635379E+03  0.00000000000E+00 0.  1.
         21   -1    0    0  501  503 -0.00000000000E+00 -0.00000000000E+00 -0.12410937457E+03  0.12410937457E+03  0.00000000000E+00 0.  1.
          6    1    1    2  501    0 -0.16701209220E+03  0.42729994416E+02  0.12326073458E+03  0.27357101464E+03  0.17300000000E+03 0.  1.
         -6    1    1    2    0  502  0.16701209220E+03 -0.42729994416E+02  0.25565624464E+03  0.35356471372E+03  0.17300000000E+03 0.  1.
<mgrwt>
<rscale>  2 0.24422918E+03</rscale>
<asrwt>0</asrwt>
<pdfrwt beam="1">  1       21 0.77388669E-01 0.24422918E+03</pdfrwt>
<pdfrwt beam="2">  1       21 0.19093750E-01 0.24422918E+03</pdfrwt>
<totfact> 0.36362748E+04</totfact>
</mgrwt>
</event>
<event>
 4    3  0.3905963E+000  0.1974546E+03  0.7546771E-02  0.1151904E+00
         21   -1    0    0  501  502  0.00000000000E+00  0.00000000000E+00  0.36593843827E+03  0.36593843827E+03  0.00000000000E+00 0. -1.
         21   -1    0    0  502  503 -0.00000000000E+00 -0.00000000000E+00 -0.18483266911E+03  0.18483266911E+03  0.00000000000E+00 0. -1.
          6    1    1    2  501    0 -0.95096592255E+02  0.39968129631E+01  0.26977963174E+03  0.33431928762E+03  0.17300000000E+03 0. -1.
         -6    1    1    2    0  503  0.95096592255E+02 -0.39968129631E+01 -0.88673862584E+02  0.21645181976E+03  0.17300000000E+03 0. -1.
<mgrwt>
<rscale>  2 0.19745464E+03</rscale>
<asrwt>0</asrwt>
<pdfrwt beam="1">  1       21 0.56298221E-01 0.19745464E+03</pdfrwt>
<pdfrwt beam="2">  1       21 0.28435795E-01 0.19745464E+03</pdfrwt>
<totfact> 0.35014573E+04</totfact>
</mgrwt>
</event>
<event>
 4    3  0.3905963E+000  0.2031978E+03  0.7546771E-02  0.1147069E+00
         21   -1    0    0  501  502  0.00000000000E+00  0.00000000000E+00  0.69990872600E+02  0.69990872600E+02  0.00000000000E+00 0.  1.
         21   -1    0    0  502  503 -0.00000000000E+00 -0.00000000000E+00 -0.20701097402E+04  0.20701097402E+04  0.00000000000E+00 0. -1.
          6    1    1    2  501    0  0.69482366869E+02 -0.80824116706E+02 -0.95232474160E+02  0.22440713287E+03  0.17300000000E+03 0.  1.
         -6    1    1    2    0  503 -0.69482366869E+02  0.80824116706E+02 -0.19048863934E+04  0.19156934799E+04  0.17300000000E+03 0. -1.
<mgrwt>
<rscale>  2 0.20319778E+03</rscale>
<asrwt>0</asrwt>
<pdfrwt beam="1">  1       21 0.10767826E-01 0.20319778E+03</pdfrwt>
<pdfrwt beam="2">  1       21 0.31847843E+00 0.20319778E+03</pdfrwt>
<totfact> 0.18755467E+03</totfact>
</mgrwt>
</event>
<event>
 4    3  0.3905963E+000  0.2456735E+03  0.7546771E-02  0.1116070E+00
         21   -1    0    0  501  502  0.00000000000E+00  0.00000000000E+00  0.20851850281E+04  0.20851850281E+04  0.00000000000E+00 0. -1.
         21   -1    0    0  502  503 -0.00000000000E+00 -0.00000000000E+00 -0.32540780266E+02  0.32540780266E+02  0.00000000000E+00 0. -1.
          6    1    1    2  501    0  0.48001211159E+02  0.16769714417E+03  0.67433315792E+03  0.71769119843E+03  0.17300000000E+03 0. -1.
         -6    1    1    2    0  503 -0.48001211159E+02 -0.16769714417E+03  0.13783110899E+04  0.14000346099E+04  0.17300000000E+03 0. -1.
<mgrwt>
<rscale>  2 0.24567346E+03</rscale>
<asrwt>0</asrwt>
<pdfrwt beam="1">  1       21 0.32079759E+00 0.24567346E+03</pdfrwt>
<pdfrwt beam="2">  1       21 0.50062755E-02 0.24567346E+03</pdfrwt>
<totfact> 0.65756820E+03</totfact>
</mgrwt>
</event>
<event>
 4    3  0.3905963E+000  0.1949784E+03  0.7546771E-02  0.1154046E+00
         21   -1    0    0  503  502  0.00000000000E+00  0.00000000000E+00  0.11738265607E+03  0.11738265607E+03  0.00000000000E+00 0. -1.
         21   -1    0    0  501  503 -0.00000000000E+00 -0.00000000000E+00 -0.33584120293E+03  0.33584120293E+03  0.00000000000E+00 0. -1.
          6    1    1    2  501    0  0.39486624865E+02  0.80798369177E+02 -0.66442653326E+02  0.20598833993E+03  0.17300000000E+03 0. -1.
         -6    1    1    2    0  502 -0.39486624865E+02 -0.80798369177E+02 -0.15201589354E+03  0.24723551908E+03  0.17300000000E+03 0. -1.
<mgrwt>
<rscale>  2 0.19497838E+03</rscale>
<asrwt>0</asrwt>
<pdfrwt beam="1">  1       21 0.18058870E-01 0.19497838E+03</pdfrwt>
<pdfrwt beam="2">  1       21 0.51667877E-01 0.19497838E+03</pdfrwt>
<totfact> 0.99198469E+04</totfact>
</mgrwt>
</event>
<event>
 4    3  0.3905963E+000  0.2176403E+03  0.7546771E-02  0.1135655E+00
         21   -1    0    0  501  502  0.00000000000E+00  0.00000000000E+00  0.20894155256E+03  0.20894155256E+03  0.00000000000E+00 0. -1.
         21   -1    0    0  502  503 -0.00000000000E+00 -0.00000000000E+00 -0.22797463792E+03  0.22797463792E+03  0.00000000000E+00 0.  1.
          6    1    1    2  501    0 -0.53239925782E+02  0.12084615402E+03  0.68112884557E+01  0.21774681694E+03  0.17300000000E+03 0. -1.
         -6    1    1    2    0  503  0.53239925782E+02 -0.12084615402E+03 -0.25844373817E+02  0.21916937354E+03  0.17300000000E+03 0.  1.
<mgrwt>
<rscale>  2 0.21764026E+03</rscale>
<asrwt>0</asrwt>
<pdfrwt beam="1">  1       21 0.32144854E-01 0.21764026E+03</pdfrwt>
<pdfrwt beam="2">  1       21 0.35073021E-01 0.21764026E+03</pdfrwt>
<totfact> 0.72173237E+04</totfact>
</mgrwt>
</event>
<event>
 4    3  0.3905963E+000  0.1735568E+03  0.7546771E-02  0.1174189E+00
         21   -1    0    0  503  502  0.00000000000E+00  0.00000000000E+00  0.51461878762E+03  0.51461878762E+03  0.00000000000E+00 0.  1.
         21   -1    0    0  501  503 -0.00000000000E+00 -0.00000000000E+00 -0.14563671727E+03  0.14563671727E+03  0.00000000000E+00 0.  1.
          6    1    1    2  501    0 -0.11935864249E+02  0.71059657709E+01 -0.70817899975E+02  0.18744901857E+03  0.17300000000E+03 0.  1.
         -6    1    1    2    0  502  0.11935864249E+02 -0.71059657709E+01  0.43979997033E+03  0.47280648632E+03  0.17300000000E+03 0.  1.
<mgrwt>
<rscale>  2 0.17355679E+03</rscale>
<asrwt>0</asrwt>
<pdfrwt beam="1">  1       21 0.79172121E-01 0.17355679E+03</pdfrwt>
<pdfrwt beam="2">  1       21 0.22405649E-01 0.17355679E+03</pdfrwt>
<totfact> 0.26548881E+04</totfact>
</mgrwt>
</event>
<event>
 4    3  0.3905963E+000  0.2894124E+03  0.7546771E-02  0.1090656E+00
         21   -1    0    0  501  502  0.00000000000E+00  0.00000000000E+00  0.12507710140E+03  0.12507710140E+03  0.00000000000E+00 0.  1.
         21   -1    0    0  502  503 -0.00000000000E+00 -0.00000000000E+00 -0.73363974867E+03  0.73363974867E+03  0.00000000000E+00 0. -1.
          6    1    1    2  501    0  0.16746457548E+02 -0.23140886986E+03 -0.17748998334E+03  0.33950287639E+03  0.17300000000E+03 0. -1.
         -6    1    1    2    0  503 -0.16746457548E+02  0.23140886986E+03 -0.43107266392E+03  0.51921397369E+03  0.17300000000E+03 0.  1.
<mgrwt>
<rscale>  2 0.28941235E+03</rscale>
<asrwt>0</asrwt>
<pdfrwt beam="1">  1       21 0.19242631E-01 0.28941235E+03</pdfrwt>
<pdfrwt beam="2">  1       21 0.11286765E+00 0.28941235E+03</pdfrwt>
<totfact> 0.14416451E+04</totfact>
</mgrwt>
</event>
<event>
 4    3  0.3905963E+000  0.1791400E+03  0.7546771E-02  0.1168638E+00
         21   -1    0    0  501  502  0.00000000000E+00  0.00000000000E+00  0.69306350219E+02  0.69306350219E+02  0.00000000000E+00 0.  1.
         21   -1    0    0  502  503 -0.00000000000E+00 -0.00000000000E+00 -0.48588385850E+03  0.48588385850E+03  0.00000000000E+00 0. -1.
          6    1    1    2  501    0  0.46085946588E+02 -0.61822432898E+01 -0.14808884713E+03  0.23242513042E+03  0.17300000000E+03 0.  1.
         -6    1    1    2    0  503 -0.46085946588E+02  0.61822432898E+01 -0.26848866115E+03  0.32276507830E+03  0.17300000000E+03 0. -1.
<mgrwt>
<rscale>  2 0.17913999E+03</rscale>
<asrwt>0</asrwt>
<pdfrwt beam="1">  1       21 0.10662516E-01 0.17913999E+03</pdfrwt>
<pdfrwt beam="2">  1       21 0.74751361E-01 0.17913999E+03</pdfrwt>
<totfact> 0.11660420E+05</totfact>
</mgrwt>
</event>
<event>
 4    3  0.3905963E+000  0.2006530E+03  0.7546771E-02  0.1149189E+00
         21   -1    0    0  503  502  0.00000000000E+00  0.00000000000E+00  0.34170122715E+03  0.34170122715E+03  0.00000000000E+00 0.  1.
         21   -1    0    0  501  503 -0.00000000000E+00 -0.00000000000E+00 -0.12425334557E+03  0.12425334557E+03  0.00000000000E+00 0. -1.
          6    1    1    2  501    0  0.69336250690E+02 -0.74331099562E+02  0.55740297415E+02  0.20825131159E+03  0.17300000000E+03 0. -1.
         -6    1    1    2    0  502 -0.69336250690E+02  0.74331099562E+02  0.16170758417E+03  0.25770326113E+03  0.17300000000E+03 0.  1.
<mgrwt>
<rscale>  2 0.20065300E+03</rscale>
<asrwt>0</asrwt>
<pdfrwt beam="1">  1       21 0.52569419E-01 0.20065300E+03</pdfrwt>
<pdfrwt beam="2">  1       21 0.19115899E-01 0.20065300E+03</pdfrwt>
<totfact> 0.85870224E+04</totfact>
</mgrwt>
</event>
<event>
 4    3  0.3905963E+000  0.1748595E+03  0.7546771E-02  0.1172873E+00
         21   -1    0    0  501  502  0.00000000000E+00  0.00000000000E+00  0.62155817065E+03  0.62155817065E+03  0.00000000000E+00 0. -1.
         21   -1    0    0  502  503 -0.00000000000E+00 -0.00000000000E+00 -0.56190214319E+02  0.56190214319E+02  0.00000000000E+00 0. -1.
          6    1    1    2  501    0  0.20129066769E+02  0.15545988850E+02  0.16309438035E+03  0.23911426976E+03  0.17300000000E+03 0. -1.
         -6    1    1    2    0  503 -0.20129066769E+02 -0.15545988850E+02  0.40227357598E+03  0.43863411521E+03  0.17300000000E+03 0. -1.
<mgrwt>
<rscale>  2 0.17485954E+03</rscale>
<asrwt>0</asrwt>
<pdfrwt beam="1">  1       21 0.95624329E-01 0.17485954E+03</pdfrwt>
<pdfrwt beam="2">  1       21 0.86446488E-02 0.17485954E+03</pdfrwt>
<totfact> 0.96334783E+04</totfact>
</mgrwt>
</event>
<event>
 4    3  0.3905963E+000  0.3366348E+03  0.7546771E-02  0.1068238E+00
         21   -1    0    0  503  502  0.00000000000E+00  0.00000000000E+00  0.38933204727E+03  0.38933204727E+03  0.00000000000E+00 0. -1.
         21   -1    0    0  501  503 -0.00000000000E+00 -0.00000000000E+00 -0.71881459849E+03  0.71881459849E+03  0.00000000000E+00 0.  1.
          6    1    1    2  501    0  0.11379220136E+02 -0.28855594460E+03 -0.59215737798E+03  0.68115591468E+03  0.17300000000E+03 0.  1.
         -6    1    1    2    0  502 -0.11379220136E+02  0.28855594460E+03  0.26267482676E+03  0.42699073108E+03  0.17300000000E+03 0. -1.
<mgrwt>
<rscale>  2 0.33663485E+03</rscale>
<asrwt>0</asrwt>
<pdfrwt beam="1">  1       21 0.59897239E-01 0.33663485E+03</pdfrwt>
<pdfrwt beam="2">  1       21 0.11058686E+00 0.33663485E+03</pdfrwt>
<totfact> 0.15120659E+03</totfact>
</mgrwt>
</event>
<event>
 4    3  0.3905963E+000  0.2074670E+03  0.7546771E-02  0.1143588E+00
         21   -1    0    0  503  502  0.00000000000E+00  0.00000000000E+00  0.41184908172E+02  0.41184908172E+02  0.00000000000E+00 0.  1.
         21   -1    0    0  501  503 -0.00000000000E+00 -0.00000000000E+00 -0.13808238909E+04  0.13808238909E+04  0.00000000000E+00 0.  1.
          6    1    1    2  501    0  0.94367397270E+02 -0.64871778878E+02 -0.10204026367E+04  0.10412800269E+04  0.17300000000E+03 0.  1.
         -6    1    1    2    0  502 -0.94367397270E+02  0.64871778878E+02 -0.31923634603E+03  0.38072877221E+03  0.17300000000E+03 0.  1.
<mgrwt>
<rscale>  2 0.20746699E+03</rscale>
<asrwt>0</asrwt>
<pdfrwt beam="1">  1       21 0.63361388E-02 0.20746699E+03</pdfrwt>
<pdfrwt beam="2">  1       21 0.21243448E+00 0.20746699E+03</pdfrwt>
<totfact> 0.19891582E+04</totfact>
</mgrwt>
</event>
<event>
 4    3  0.3905963E+000  0.2276296E+03  0.7546771E-02  0.1128319E+00
         21   -1    0    0  501  502  0.00000000000E+00  0.00000000000E+00  0.55391003865E+03  0.55391003865E+03  0.00000000000E+00 0. -1.
         21   -1    0    0  502  503 -0.00000000000E+00 -0.00000000000E+00 -0.10092342864E+03  0.10092342864E+03  0.00000000000E+00 0. -1.
          6    1    1    2  501    0 -0.11598031887E+03 -0.91841287254E+02  0.31502535692E+03  0.38865953213E+03  0.17300000000E+03 0. -1.
         -6    1    1    2    0  503  0.11598031887E+03  0.91841287254E+02  0.13796125308E+03  0.26617393516E+03  0.17300000000E+03 0. -1.
<mgrwt>
<rscale>  2 0.22762965E+03</rscale>
<asrwt>0</asrwt>
<pdfrwt beam="1">  1       21 0.85216927E-01 0.22762965E+03</pdfrwt>
<pdfrwt beam="2">  1       21 0.15526682E-01 0.22762965E+03</pdfrwt>
<totfact> 0.43125510E+04</totfact>
</mgrwt>
</event>
<event>
 4    3  0.3905963E+000  0.3265268E+03  0.7546771E-02  0.1072684E+00
         21   -1    0    0  503  502  0.00000000000E+00  0.00000000000E+00  0.30959249097E+03  0.30959249097E+03  0.00000000000E+00 0. -1.
         21   -1    0    0  501  503 -0.00000000000E+00 -0.00000000000E+00 -0.34620610837E+03  0.34620610837E+03  0.00000000000E+00 0.  1.
          6    1    1    2  501    0 -0.11379071897E+03 -0.25247268344E+03 -0.42072084792E+02  0.32922612886E+03  0.17300000000E+03 0.  1.
         -6    1    1    2    0  502  0.11379071897E+03  0.25247268344E+03  0.54584673931E+01  0.32657247048E+03  0.17300000000E+03 0. -1.
<mgrwt>
<rscale>  2 0.32652685E+03</rscale>
<asrwt>0</asrwt>
<pdfrwt beam="1">  1       21 0.47629614E-01 0.32652685E+03</pdfrwt>
<pdfrwt beam="2">  1       21 0.53262478E-01 0.32652685E+03</pdfrwt>
<totfact> 0.13141885E+04</totfact>
</mgrwt>
</event>
<event>
 4    3  0.3905963E+000  0.2816904E+03  0.7546771E-02  0.1094769E+00
         21   -1    0    0  501  502  0.00000000000E+00  0.00000000000E+00  0.14151794147E+03  0.14151794147E+03  0.00000000000E+00 0.  1.
         21   -1    0    0  502  503 -0.00000000000E+00 -0.00000000000E+00 -0.57774275165E+03  0.57774275165E+03  0.00000000000E+00 0. -1.
          6    1    1    2  501    0 -0.21946118685E+03  0.35458043494E+02 -0.27987494074E+03  0.39708874051E+03  0.17300000000E+03 0. -1.
         -6    1    1    2    0  503  0.21946118685E+03 -0.35458043494E+02 -0.15634986943E+03  0.32217195261E+03  0.17300000000E+03 0.  1.
<mgrwt>
<rscale>  2 0.28169041E+03</rscale>
<asrwt>0</asrwt>
<pdfrwt beam="1">  1       21 0.21771991E-01 0.28169041E+03</pdfrwt>
<pdfrwt beam="2">  1       21 0.88883501E-01 0.28169041E+03</pdfrwt>
<totfact> 0.20322479E+04</totfact>
</mgrwt>
</event>
<event>
 4    3  0.3905963E+000  0.2051853E+03  0.7546771E-02  0.1145436E+00
         21   -1    0    0  503  502  0.00000000000E+00  0.00000000000E+00  0.65353833995E+03  0.65353833995E+03  0.00000000000E+00 0. -1.
         21   -1    0    0  501  503 -0.00000000000E+00 -0.00000000000E+00 -0.87799542189E+02  0.87799542189E+02  0.00000000000E+00 0. -1.
          6    1    1    2  501    0 -0.77219079122E+01 -0.11005622054E+03  0.91594833065E+02  0.22470116374E+03  0.17300000000E+03 0. -1.
         -6    1    1    2    0  502  0.77219079122E+01  0.11005622054E+03  0.47414396469E+03  0.51663671840E+03  0.17300000000E+03 0. -1.
<mgrwt>
<rscale>  2 0.20518528E+03</rscale>
<asrwt>0</asrwt>
<pdfrwt beam="1">  1       21 0.10054436E+00 0.20518528E+03</pdfrwt>
<pdfrwt beam="2">  1       21 0.13507622E-01 0.20518528E+03</pdfrwt>
<totfact> 0.38184514E+04</totfact>
</mgrwt>
</event>
<event>
 4    3  0.3905963E+000  0.1815034E+03  0.7546771E-02  0.1166356E+00
         21   -1    0    0  503  502  0.00000000000E+00  0.00000000000E+00  0.92855994189E+02  0.92855994189E+02  0.00000000000E+00 0. -1.
         21   -1    0    0  501  503 -0.00000000000E+00 -0.00000000000E+00 -0.91398739081E+03  0.91398739081E+03  0.00000000000E+00 0. -1.
          6    1    1    2  501    0  0.17120847329E+02 -0.52166674868E+02 -0.80434068458E+03  0.82456498971E+03  0.17300000000E+03 0. -1.
         -6    1    1    2    0  502 -0.17120847329E+02  0.52166674868E+02 -0.16790712042E+02  0.18227839529E+03  0.17300000000E+03 0. -1.
<mgrwt>
<rscale>  2 0.18150340E+03</rscale>
<asrwt>0</asrwt>
<pdfrwt beam="1">  1       21 0.14285537E-01 0.18150340E+03</pdfrwt>
<pdfrwt beam="2">  1       21 0.14061345E+00 0.18150340E+03</pdfrwt>
<totfact> 0.15284722E+04</totfact>
</mgrwt>
</event>
<event>
 4    3  0.3905963E+000  0.2046558E+03  0.7546771E-02  0.1145869E+00
         21   -1    0    0  503  502  0.00000000000E+00  0.00000000000E+00  0.57415221694E+03  0.57415221694E+03  0.00000000000E+00 0.  1.
         21   -1    0    0  501  503 -0.00000000000E+00 -0.00000000000E+00 -0.80448249915E+02  0.80448249915E+02  0.00000000000E+00 0.  1.
          6    1    1    2  501    0  0.54687755673E+02 -0.94679792914E+02  0.34678009083E+03  0.40266666761E+03  0.17300000000E+03 0.  1.
         -6    1    1    2    0  502 -0.54687755673E+02  0.94679792914E+02  0.14692387620E+03  0.25193379925E+03  0.17300000000E+03 0.  1.
<mgrwt>
<rscale>  2 0.20465584E+03</rscale>
<asrwt>0</asrwt>
<pdfrwt beam="1">  1       21 0.88331108E-01 0.20465584E+03</pdfrwt>
<pdfrwt beam="2">  1       21 0.12376654E-01 0.20465584E+03</pdfrwt>
<totfact> 0.60556840E+04</totfact>
</mgrwt>
</event>
<event>
 4    3  0.3905963E+000  0.2021786E+03  0.7546771E-02  0.1147914E+00
         21   -1    0    0  503  502  0.00000000000E+00  0.00000000000E+00  0.14667123217E+02  0.14667123217E+02  0.00000000000E+00 0.  1.
         21   -1    0    0  501  503 -0.00000000000E+00 -0.00000000000E+00 -0.32084169869E+04  0.32084169869E+04  0.00000000000E+00 0. -1.
          6    1    1    2  501    0  0.95341682569E+02 -0.43094687365E+02 -0.21809791387E+04  0.21903301559E+04  0.17300000000E+03 0. -1.
         -6    1    1    2    0  502 -0.95341682569E+02  0.43094687365E+02 -0.10127707250E+04  0.10327539542E+04  0.17300000000E+03 0.  1.
<mgrwt>
<rscale>  2 0.20217861E+03</rscale>
<asrwt>0</asrwt>
<pdfrwt beam="1">  1       21 0.22564823E-02 0.20217861E+03</pdfrwt>
<pdfrwt beam="2">  1       21 0.49360222E+00 0.20217861E+03</pdfrwt>
<totfact> 0.20928704E+03</totfact>
</mgrwt>
</event>
<event>
 4    3  0.3905963E+000  0.1730577E+03  0.7546771E-02  0.1174696E+00
         21   -1    0    0  503  502  0.00000000000E+00  0.00000000000E+00  0.34786107375E+03  0.34786107375E+03  0.00000000000E+00 0.  1.
         21   -1    0    0  501  503 -0.00000000000E+00 -0.00000000000E+00 -0.89600536077E+02  0.89600536077E+02  0.00000000000E+00 0.  1.
          6    1    1    2  501    0  0.27874742416E+01 -0.34930491312E+01  0.17239705260E+03  0.24427385277E+03  0.17300000000E+03 0.  1.
         -6    1    1    2    0  502 -0.27874742416E+01  0.34930491312E+01  0.85863485073E+02  0.19318775705E+03  0.17300000000E+03 0.  1.
<mgrwt>
<rscale>  2 0.17305771E+03</rscale>
<asrwt>0</asrwt>
<pdfrwt beam="1">  1       21 0.53517087E-01 0.17305771E+03</pdfrwt>
<pdfrwt beam="2">  1       21 0.13784698E-01 0.17305771E+03</pdfrwt>
<totfact> 0.15208876E+05</totfact>
</mgrwt>
</event>
<event>
 4    3  0.3905963E+000  0.1973645E+03  0.7546771E-02  0.1151982E+00
         21   -1    0    0  503  502  0.00000000000E+00  0.00000000000E+00  0.13313218986E+03  0.13313218986E+03  0.00000000000E+00 0.  1.
         21   -1    0    0  501  503 -0.00000000000E+00 -0.00000000000E+00 -0.29813854244E+03  0.29813854244E+03  0.00000000000E+00 0.  1.
          6    1    1    2  501    0  0.77797539305E+01 -0.94674394408E+02 -0.53078437185E+02  0.20437731288E+03  0.17300000000E+03 0.  1.
         -6    1    1    2    0  502 -0.77797539305E+01  0.94674394408E+02 -0.11192791539E+03  0.22689341941E+03  0.17300000000E+03 0.  1.
<mgrwt>
<rscale>  2 0.19736455E+03</rscale>
<asrwt>0</asrwt>
<pdfrwt beam="1">  1       21 0.20481875E-01 0.19736455E+03</pdfrwt>
<pdfrwt beam="2">  1       21 0.45867468E-01 0.19736455E+03</pdfrwt>
<totfact> 0.10040236E+05</totfact>
</mgrwt>
</event>
<event>
 4    3  0.3905963E+000  0.2134582E+03  0.7546771E-02  0.1138856E+00
         21   -1    0    0  503  502  0.00000000000E+00  0.00000000000E+00  0.43177890875E+02  0.43177890875E+02  0.00000000000E+00 0. -1.
         21   -1    0    0  501  503 -0.00000000000E+00 -0.00000000000E+00 -0.10841730107E+04  0.10841730107E+04  0.00000000000E+00 0. -1.
          6    1    1    2  501    0 -0.12276734947E+03 -0.23739632063E+02 -0.42846509694E+03  0.47869273184E+03  0.17300000000E+03 0. -1.
         -6    1    1    2    0  502  0.12276734947E+03  0.23739632063E+02 -0.61253002293E+03  0.64865816977E+03  0.17300000000E+03 0. -1.
<mgrwt>
<rscale>  2 0.21345817E+03</rscale>
<asrwt>0</asrwt>
<pdfrwt beam="1">  1       21 0.66427532E-02 0.21345817E+03</pdfrwt>
<pdfrwt beam="2">  1       21 0.16679583E+00 0.21345817E+03</pdfrwt>
<totfact> 0.36746070E+04</totfact>
</mgrwt>
</event>
<event>
 4    3  0.3905963E+000  0.1936026E+03  0.7546771E-02  0.1155252E+00
         21   -1    0    0  503  502  0.00000000000E+00  0.00000000000E+00  0.10149208471E+04  0.10149208471E+04  0.00000000000E+00 0. -1.
         21   -1    0    0  501  503 -0.00000000000E+00 -0.00000000000E+00 -0.26137151185E+03  0.26137151185E+03  0.00000000000E+00 0. -1.
          6    1    1    2  501    0 -0.87320068272E+01  0.86467940135E+02 -0.21457146211E+03  0.28900322657E+03  0.17300000000E+03 0. -1.
         -6    1    1    2    0  502  0.87320068272E+01 -0.86467940135E+02  0.96812079742E+03  0.98728913243E+03  0.17300000000E+03 0. -1.
<mgrwt>
<rscale>  2 0.19360256E+03</rscale>
<asrwt>0</asrwt>
<pdfrwt beam="1">  1       21 0.15614167E+00 0.19360256E+03</pdfrwt>
<pdfrwt beam="2">  1       21 0.40211002E-01 0.19360256E+03</pdfrwt>
<totfact> 0.16002842E+03</totfact>
</mgrwt>
</event>
<event>
 4    3  0.3905963E+000  0.2863868E+03  0.7546771E-02  0.1092251E+00
         21   -1    0    0  501  502  0.00000000000E+00  0.00000000000E+00  0.12475726333E+04  0.12475726333E+04  0.00000000000E+00 0. -1.
         21   -1    0    0  502  503 -0.00000000000E+00 -0.00000000000E+00 -0.97985908382E+02  0.97985908382E+02  0.00000000000E+00 0.  1.
          6    1    1    2  501    0 -0.20745836035E+03  0.95128513610E+02  0.96073124327E+03  0.10025078190E+04  0.17300000000E+03 0.  1.
         -6    1    1    2    0  503  0.20745836035E+03 -0.95128513610E+02  0.18885548166E+03  0.34305072268E+03  0.17300000000E+03 0.  1.
<mgrwt>
<rscale>  2 0.28638681E+03</rscale>
<asrwt>0</asrwt>
<pdfrwt beam="1">  1       21 0.19193424E+00 0.28638681E+03</pdfrwt>
<pdfrwt beam="2">  1       21 0.15074756E-01 0.28638681E+03</pdfrwt>
<totfact> 0.54902370E+03</totfact>
</mgrwt>
</event>
<event>
 4    3  0.3905963E+000  0.2692364E+03  0.7546771E-02  0.1101717E+00
         21   -1    0    0  501  502  0.00000000000E+00  0.00000000000E+00  0.18385179895E+03  0.18385179895E+03  0.00000000000E+00 0. -1.
         21   -1    0    0  502  503 -0.00000000000E+00 -0.00000000000E+00 -0.67605828316E+03  0.67605828316E+03  0.00000000000E+00 0.  1.
          6    1    1    2  501    0  0.16219663614E+03  0.12748135447E+03  0.31476819654E+02  0.27107016562E+03  0.17300000000E+03 0. -1.
         -6    1    1    2    0  503 -0.16219663614E+03 -0.12748135447E+03 -0.52368330386E+03  0.58883991650E+03  0.17300000000E+03 0.  1.
<mgrwt>
<rscale>  2 0.26923641E+03</rscale>
<asrwt>0</asrwt>
<pdfrwt beam="1">  1       21 0.28284892E-01 0.26923641E+03</pdfrwt>
<pdfrwt beam="2">  1       21 0.10400897E+00 0.26923641E+03</pdfrwt>
<totfact> 0.85078723E+03</totfact>
</mgrwt>
</event>
<event>
 4    3  0.3905963E+000  0.2366666E+03  0.7546771E-02  0.1122034E+00
         21   -1    0    0  503  502  0.00000000000E+00  0.00000000000E+00  0.62262286803E+03  0.62262286803E+03  0.00000000000E+00 0. -1.
         21   -1    0    0  501  503 -0.00000000000E+00 -0.00000000000E+00 -0.10645333589E+03  0.10645333589E+03  0.00000000000E+00 0.  1.
          6    1    1    2  501    0  0.10479044079E+02 -0.16115920488E+03  0.11459574457E+03  0.26295110640E+03  0.17300000000E+03 0.  1.
         -6    1    1    2    0  502 -0.10479044079E+02  0.16115920488E+03  0.40157378757E+03  0.46612509753E+03  0.17300000000E+03 0.  1.
<mgrwt>
<rscale>  2 0.23666664E+03</rscale>
<asrwt>0</asrwt>
<pdfrwt beam="1">  1       21 0.95788131E-01 0.23666664E+03</pdfrwt>
<pdfrwt beam="2">  1       21 0.16377437E-01 0.23666664E+03</pdfrwt>
<totfact> 0.29649080E+04</totfact>
</mgrwt>
</event>
<event>
 4    3  0.3905963E+000  0.1732196E+03  0.7546771E-02  0.1174531E+00
         21   -1    0    0  503  502  0.00000000000E+00  0.00000000000E+00  0.13083863533E+03  0.13083863533E+03  0.00000000000E+00 0.  1.
         21   -1    0    0  501  503 -0.00000000000E+00 -0.00000000000E+00 -0.27448572195E+03  0.27448572195E+03  0.00000000000E+00 0.  1.
          6    1    1    2  501    0  0.73952212973E+01  0.46213829586E+01 -0.15402428881E+03  0.23179415010E+03  0.17300000000E+03 0.  1.
         -6    1    1    2    0  502 -0.73952212973E+01 -0.46213829586E+01  0.10377202193E+02  0.17353020718E+03  0.17300000000E+03 0.  1.
<mgrwt>
<rscale>  2 0.17321965E+03</rscale>
<asrwt>0</asrwt>
<pdfrwt beam="1">  1       21 0.20129021E-01 0.17321965E+03</pdfrwt>
<pdfrwt beam="2">  1       21 0.42228572E-01 0.17321965E+03</pdfrwt>
<totfact> 0.12392273E+05</totfact>
</mgrwt>
</event>
<event>
 4    3  0.3905963E+000  0.1935851E+03  0.7546771E-02  0.1155267E+00
         21   -1    0    0  501  502  0.00000000000E+00  0.00000000000E+00  0.68517352669E+03  0.68517352669E+03  0.00000000000E+00 0.  1.
         21   -1    0    0  502  503 -0.00000000000E+00 -0.00000000000E+00 -0.70092145269E+02  0.70092145269E+02  0.00000000000E+00 0.  1.
          6    1    1    2  501    0  0.58881484068E+02  0.63868295041E+02  0.48453648749E+03  0.52177657669E+03  0.17300000000E+03 0.  1.
         -6    1    1    2    0  503 -0.58881484068E+02 -0.63868295041E+02  0.13054489394E+03  0.23348909527E+03  0.17300000000E+03 0.  1.
<mgrwt>
<rscale>  2 0.19358509E+03</rscale>
<asrwt>0</asrwt>
<pdfrwt beam="1">  1       21 0.10541131E+00 0.19358509E+03</pdfrwt>
<pdfrwt beam="2">  1       21 0.10783407E-01 0.19358509E+03</pdfrwt>
<totfact> 0.51365779E+04</totfact>
</mgrwt>
</event>
<event>
 4    3  0.3905963E+000  0.2044141E+03  0.7546771E-02  0.1146067E+00
         21   -1    0    0  501  502  0.00000000000E+00  0.00000000000E+00  0.76030695791E+02  0.76030695791E+02  0.00000000000E+00 0.  1.
         21   -1    0    0  502  503 -0.00000000000E+00 -0.00000000000E+00 -0.61505977914E+03  0.61505977914E+03  0.00000000000E+00 0.  1.
          6    1    1    2  501    0  0.10525726208E+03 -0.27875426691E+02 -0.15677092492E+03  0.25760872178E+03  0.17300000000E+03 0.  1.
         -6    1    1    2    0  503 -0.10525726208E+03  0.27875426691E+02 -0.38225815843E+03  0.43348175316E+03  0.17300000000E+03 0.  1.
<mgrwt>
<rscale>  2 0.20441412E+03</rscale>
<asrwt>0</asrwt>
<pdfrwt beam="1">  1       21 0.11697030E-01 0.20441412E+03</pdfrwt>
<pdfrwt beam="2">  1       21 0.94624582E-01 0.20441412E+03</pdfrwt>
<totfact> 0.57099783E+04</totfact>
</mgrwt>
</event>
<event>
 4    3  0.3905963E+000  0.2158404E+03  0.7546771E-02  0.1137023E+00
         21   -1    0    0  501  502  0.00000000000E+00  0.00000000000E+00  0.29327025745E+03  0.29327025745E+03  0.00000000000E+00 0.  1.
         21   -1    0    0  502  503 -0.00000000000E+00 -0.00000000000E+00 -0.42140159117E+03  0.42140159117E+03  0.00000000000E+00 0. -1.
          6    1    1    2  501    0 -0.91870320074E+02 -0.90652809342E+02  0.21798868118E+03  0.30676726141E+03  0.17300000000E+03 0.  1.
         -6    1    1    2    0  503  0.91870320074E+02  0.90652809342E+02 -0.34612001490E+03  0.40790458721E+03  0.17300000000E+03 0. -1.
<mgrwt>
<rscale>  2 0.21584042E+03</rscale>
<asrwt>0</asrwt>
<pdfrwt beam="1">  1       21 0.45118501E-01 0.21584042E+03</pdfrwt>
<pdfrwt beam="2">  1       21 0.64831014E-01 0.21584042E+03</pdfrwt>
<totfact> 0.10171082E+04</totfact>
</mgrwt>
</event>
<event>
 4    3  0.3905963E+000  0.2152694E+03  0.7546771E-02  0.1137460E+00
         21   -1    0    0  503  502  0.00000000000E+00  0.00000000000E+00  0.21726571504E+03  0.21726571504E+03  0.00000000000E+00 0.  1.
         21   -1    0    0  501  503 -0.00000000000E+00 -0.00000000000E+00 -0.28486881918E+03  0.28486881918E+03  0.00000000000E+00 0.  1.
          6    1    1    2  501    0 -0.12804588972E+03  0.40203798623E+01 -0.15965223837E+03  0.26801072842E+03  0.17300000000E+03 0.  1.
         -6    1    1    2    0  502  0.12804588972E+03 -0.40203798623E+01  0.92049134236E+02  0.23412380580E+03  0.17300000000E+03 0.  1.
<mgrwt>
<rscale>  2 0.21526940E+03</rscale>
<asrwt>0</asrwt>
<pdfrwt beam="1">  1       21 0.33425495E-01 0.21526940E+03</pdfrwt>
<pdfrwt beam="2">  1       21 0.43825972E-01 0.21526940E+03</pdfrwt>
<totfact> 0.42639800E+04</totfact>
</mgrwt>
</event>
<event>
 4    3  0.3905963E+000  0.2478146E+03  0.7546771E-02  0.1114694E+00
         21   -1    0    0  503  502  0.00000000000E+00  0.00000000000E+00  0.73568078628E+03  0.73568078628E+03  0.00000000000E+00 0. -1.
         21   -1    0    0  501  503 -0.00000000000E+00 -0.00000000000E+00 -0.90590783305E+02  0.90590783305E+02  0.00000000000E+00 0.  1.
          6    1    1    2  501    0 -0.63800365817E+02  0.16556744002E+03  0.20676965060E+03  0.32274719562E+03  0.17300000000E+03 0.  1.
         -6    1    1    2    0  502  0.63800365817E+02 -0.16556744002E+03  0.43832035237E+03  0.50352437397E+03  0.17300000000E+03 0. -1.
<mgrwt>
<rscale>  2 0.24781458E+03</rscale>
<asrwt>0</asrwt>
<pdfrwt beam="1">  1       21 0.11318166E+00 0.24781458E+03</pdfrwt>
<pdfrwt beam="2">  1       21 0.13937044E-01 0.24781458E+03</pdfrwt>
<totfact> 0.26509586E+04</totfact>
</mgrwt>
</event>
<event>
 4    3  0.3905963E+000  0.2394403E+03  0.7546771E-02  0.1120166E+00
         21   -1    0    0  501  502  0.00000000000E+00  0.00000000000E+00  0.43215529870E+02  0.43215529870E+02  0.00000000000E+00 0. -1.
         21   -1    0    0  502  503 -0.00000000000E+00 -0.00000000000E+00 -0.17845349396E+04  0.17845349396E+04  0.00000000000E+00 0. -1.
          6    1    1    2  501    0  0.16539178468E+03  0.69420762824E+01 -0.40774041299E+03  0.47284657052E+03  0.17300000000E+03 0. -1.
         -6    1    1    2    0  503 -0.16539178468E+03 -0.69420762824E+01 -0.13335789967E+04  0.13549038989E+04  0.17300000000E+03 0. -1.
<mgrwt>
<rscale>  2 0.23944025E+03</rscale>
<asrwt>0</asrwt>
<pdfrwt beam="1">  1       21 0.66485437E-02 0.23944025E+03</pdfrwt>
<pdfrwt beam="2">  1       21 0.27454381E+00 0.23944025E+03</pdfrwt>
<totfact> 0.75648815E+03</totfact>
</mgrwt>
</event>
<event>
 4    3  0.3905963E+000  0.1759030E+03  0.7546771E-02  0.1171828E+00
         21   -1    0    0  503  502  0.00000000000E+00  0.00000000000E+00  0.18781627453E+03  0.18781627453E+03  0.00000000000E+00 0.  1.
         21   -1    0    0  501  503 -0.00000000000E+00 -0.00000000000E+00 -0.18465851721E+03  0.18465851721E+03  0.00000000000E+00 0.  1.
          6    1    1    2  501    0 -0.30140684704E+02  0.10217445581E+02 -0.59579003232E+02  0.18571891313E+03  0.17300000000E+03 0. -1.
         -6    1    1    2    0  502  0.30140684704E+02 -0.10217445581E+02  0.62736760551E+02  0.18675587860E+03  0.17300000000E+03 0. -1.
<mgrwt>
<rscale>  2 0.17590298E+03</rscale>
<asrwt>0</asrwt>
<pdfrwt beam="1">  1       21 0.28894811E-01 0.17590298E+03</pdfrwt>
<pdfrwt beam="2">  1       21 0.28409003E-01 0.17590298E+03</pdfrwt>
<totfact> 0.13656223E+05</totfact>
</mgrwt>
</event>
<event>
 4    3  0.3905963E+000  0.3152562E+03  0.7546771E-02  0.1077853E+00
         21   -1    0    0  503  502  0.00000000000E+00  0.00000000000E+00  0.63344306061E+03  0.63344306061E+03  0.00000000000E+00 0. -1.
         21   -1    0    0  501  503 -0.00000000000E+00 -0.00000000000E+00 -0.20184199395E+03  0.20184199395E+03  0.00000000000E+00 0. -1.
          6    1    1    2  501    0 -0.16210713292E+03  0.20779491140E+03  0.18725784737E+02  0.31581181542E+03  0.17300000000E+03 0. -1.
         -6    1    1    2    0  502  0.16210713292E+03 -0.20779491140E+03  0.41287528193E+03  0.51947323913E+03  0.17300000000E+03 0. -1.
<mgrwt>
<rscale>  2 0.31525616E+03</rscale>
<asrwt>0</asrwt>
<pdfrwt beam="1">  1       21 0.97452777E-01 0.31525616E+03</pdfrwt>
<pdfrwt beam="2">  1       21 0.31052615E-01 0.31525616E+03</pdfrwt>
<totfact> 0.80975610E+03</totfact>
</mgrwt>
</event>
<event>
 4    3  0.3905963E+000  0.1737786E+03  0.7546771E-02  0.1173964E+00
         21   -1    0    0  501  502  0.00000000000E+00  0.00000000000E+00  0.35500184520E+02  0.35500184520E+02  0.00000000000E+00 0.  1.
         21   -1    0    0  502  503 -0.00000000000E+00 -0.00000000000E+00 -0.85407205372E+03  0.85407205372E+03  0.00000000000E+00 0. -1.
          6    1    1    2  501    0 -0.12617679760E+02 -0.10525824532E+02 -0.38122046604E+03  0.41896066946E+03  0.17300000000E+03 0.  1.
         -6    1    1    2    0  503  0.12617679760E+02  0.10525824532E+02 -0.43735140316E+03  0.47061156878E+03  0.17300000000E+03 0. -1.
<mgrwt>
<rscale>  2 0.17377859E+03</rscale>
<asrwt>0</asrwt>
<pdfrwt beam="1">  1       21 0.54615669E-02 0.17377859E+03</pdfrwt>
<pdfrwt beam="2">  1       21 0.13139570E+00 0.17377859E+03</pdfrwt>
<totfact> 0.98250101E+04</totfact>
</mgrwt>
</event>
<event>
 4    3  0.3905963E+000  0.2432737E+03  0.7546771E-02  0.1117631E+00
         21   -1    0    0  503  502  0.00000000000E+00  0.00000000000E+00  0.30411412537E+03  0.30411412537E+03  0.00000000000E+00 0. -1.
         21   -1    0    0  501  503 -0.00000000000E+00 -0.00000000000E+00 -0.23719837762E+03  0.23719837762E+03  0.00000000000E+00 0.  1.
          6    1    1    2  501    0  0.55515523110E+02 -0.16177495848E+03 -0.81234241322E+02  0.25647828848E+03  0.17300000000E+03 0.  1.
         -6    1    1    2    0  502 -0.55515523110E+02  0.16177495848E+03  0.14814998907E+03  0.28483421452E+03  0.17300000000E+03 0. -1.
<mgrwt>
<rscale>  2 0.24327374E+03</rscale>
<asrwt>0</asrwt>
<pdfrwt beam="1">  1       21 0.46786788E-01 0.24327374E+03</pdfrwt>
<pdfrwt beam="2">  1       21 0.36492058E-01 0.24327374E+03</pdfrwt>
<totfact> 0.30875048E+04</totfact>
</mgrwt>
</event>
<event>
 4    3  0.3905963E+000  0.2650320E+03  0.7546771E-02  0.1104157E+00
         21   -1    0    0  501  502  0.00000000000E+00  0.00000000000E+00  0.86404607620E+02  0.86404607620E+02  0.00000000000E+00 0. -1.
         21   -1    0    0  502  503 -0.00000000000E+00 -0.00000000000E+00 -0.93916079922E+03  0.93916079922E+03  0.00000000000E+00 0.  1.
          6    1    1    2  501    0  0.88657463036E+02  0.18014660811E+03 -0.23839223747E+03  0.35647272694E+03  0.17300000000E+03 0. -1.
         -6    1    1    2    0  503 -0.88657463036E+02 -0.18014660811E+03 -0.61436395413E+03  0.66909267990E+03  0.17300000000E+03 0. -1.
<mgrwt>
<rscale>  2 0.26503197E+03</rscale>
<asrwt>0</asrwt>
<pdfrwt beam="1">  1       21 0.13293016E-01 0.26503197E+03</pdfrwt>
<pdfrwt beam="2">  1       21 0.14448628E+00 0.26503197E+03</pdfrwt>
<totfact> 0.15401830E+04</totfact>
</mgrwt>
</event>
<event>
 4    3  0.3905963E+000  0.1944445E+03  0.7546771E-02  0.1154513E+00
         21   -1    0    0  501  502  0.00000000000E+00  0.00000000000E+00  0.10532512564E+03  0.10532512564E+03  0.00000000000E+00 0.  1.
         21   -1    0    0  502  503 -0.00000000000E+00 -0.00000000000E+00 -0.43109590636E+03  0.43109590636E+03  0.00000000000E+00 0.  1.
          6    1    1    2  501    0  0.59822712863E+02 -0.65581220980E+02 -0.53179023981E+02  0.20158537177E+03  0.17300000000E+03 0. -1.
         -6    1    1    2    0  503 -0.59822712863E+02  0.65581220980E+02 -0.27259175675E+03  0.33483566023E+03  0.17300000000E+03 0. -1.
<mgrwt>
<rscale>  2 0.19444447E+03</rscale>
<asrwt>0</asrwt>
<pdfrwt beam="1">  1       21 0.16203866E-01 0.19444447E+03</pdfrwt>
<pdfrwt beam="2">  1       21 0.66322447E-01 0.19444447E+03</pdfrwt>
<totfact> 0.71009327E+04</totfact>
</mgrwt>
</event>
<event>
 4    3  0.3905963E+000  0.1737478E+03  0.7546771E-02  0.1173995E+00
         21   -1    0    0  501  502  0.00000000000E+00  0.00000000000E+00  0.36803575158E+03  0.36803575158E+03  0.00000000000E+00 0. -1.
         21   -1    0    0  502  503 -0.00000000000E+00 -0.00000000000E+00 -0.16503855039E+03  0.16503855039E+03  0.00000000000E+00 0. -1.
          6    1    1    2  501    0  0.12876530231E+02 -0.96692438845E+01  0.29053191971E+03  0.33852192791E+03  0.17300000000E+03 0. -1.
         -6    1    1    2    0  503 -0.12876530231E+02  0.96692438845E+01 -0.87534718519E+02  0.19455237406E+03  0.17300000000E+03 0. -1.
<mgrwt>
<rscale>  2 0.17374780E+03</rscale>
<asrwt>0</asrwt>
<pdfrwt beam="1">  1       21 0.56620885E-01 0.17374780E+03</pdfrwt>
<pdfrwt beam="2">  1       21 0.25390546E-01 0.17374780E+03</pdfrwt>
<totfact> 0.43535404E+04</totfact>
</mgrwt>
</event>
<event>
 4    3  0.3905963E+000  0.2316506E+03  0.7546771E-02  0.1125483E+00
         21   -1    0    0  503  502  0.00000000000E+00  0.00000000000E+00  0.16434406484E+02  0.16434406484E+02  0.00000000000E+00 0.  1.
         21   -1    0    0  501  503 -0.00000000000E+00 -0.00000000000E+00 -0.33514968016E+04  0.33514968016E+04  0.00000000000E+00 0.  1.
          6    1    1    2  501    0 -0.45533761754E+02 -0.14717221911E+03 -0.19377128214E+04  0.19515104314E+04  0.17300000000E+03 0.  1.
         -6    1    1    2    0  502  0.45533761754E+02  0.14717221911E+03 -0.13973495737E+04  0.14164207767E+04  0.17300000000E+03 0.  1.
<mgrwt>
<rscale>  2 0.23165057E+03</rscale>
<asrwt>0</asrwt>
<pdfrwt beam="1">  1       21 0.25283679E-02 0.23165057E+03</pdfrwt>
<pdfrwt beam="2">  1       21 0.51561538E+00 0.23165057E+03</pdfrwt>
<totfact> 0.11623056E+03</totfact>
</mgrwt>
</event>
<event>
 4    3  0.3905963E+000  0.2798959E+03  0.7546771E-02  0.1095746E+00
         21   -1    0    0  501  502  0.00000000000E+00  0.00000000000E+00  0.32038825683E+03  0.32038825683E+03  0.00000000000E+00 0.  1.
         21   -1    0    0  502  503 -0.00000000000E+00 -0.00000000000E+00 -0.43796457084E+03  0.43796457084E+03  0.00000000000E+00 0.  1.
          6    1    1    2  501    0  0.14897318163E+03  0.16192495579E+03  0.19321084670E+03  0.34010605910E+03  0.17300000000E+03 0.  1.
         -6    1    1    2    0  503 -0.14897318163E+03 -0.16192495579E+03 -0.31078716071E+03  0.41824676857E+03  0.17300000000E+03 0.  1.
<mgrwt>
<rscale>  2 0.27989587E+03</rscale>
<asrwt>0</asrwt>
<pdfrwt beam="1">  1       21 0.49290501E-01 0.27989587E+03</pdfrwt>
<pdfrwt beam="2">  1       21 0.67379165E-01 0.27989587E+03</pdfrwt>
<totfact> 0.74956563E+03</totfact>
</mgrwt>
</event>
<event>
 4    3  0.3905963E+000  0.1878646E+03  0.7546771E-02  0.1160402E+00
         21   -1    0    0  503  502  0.00000000000E+00  0.00000000000E+00  0.74667082080E+03  0.74667082080E+03  0.00000000000E+00 0.  1.
         21   -1    0    0  501  503 -0.00000000000E+00 -0.00000000000E+00 -0.98825223577E+02  0.98825223577E+02  0.00000000000E+00 0.  1.
          6    1    1    2  501    0  0.43731064618E+02 -0.58751167263E+02  0.18574548047E+02  0.18878061209E+03  0.17300000000E+03 0.  1.
         -6    1    1    2    0  502 -0.43731064618E+02  0.58751167263E+02  0.62927104918E+03  0.65671543229E+03  0.17300000000E+03 0.  1.
<mgrwt>
<rscale>  2 0.18786459E+03</rscale>
<asrwt>0</asrwt>
<pdfrwt beam="1">  1       21 0.11487243E+00 0.18786459E+03</pdfrwt>
<pdfrwt beam="2">  1       21 0.15203881E-01 0.18786459E+03</pdfrwt>
<totfact> 0.22566089E+04</totfact>
</mgrwt>
</event>
<event>
 4    3  0.3905963E+000  0.1842405E+03  0.7546771E-02  0.1163761E+00
         21   -1    0    0  503  502  0.00000000000E+00  0.00000000000E+00  0.34803286801E+03  0.34803286801E+03  0.00000000000E+00 0. -1.
         21   -1    0    0  501  503 -0.00000000000E+00 -0.00000000000E+00 -0.17796074994E+03  0.17796074994E+03  0.00000000000E+00 0. -1.
          6    1    1    2  501    0 -0.40795607260E+02 -0.48490139700E+02 -0.91767992644E+02  0.20582988047E+03  0.17300000000E+03 0. -1.
         -6    1    1    2    0  502  0.40795607260E+02  0.48490139700E+02  0.26184011072E+03  0.32016373748E+03  0.17300000000E+03 0. -1.
<mgrwt>
<rscale>  2 0.18424054E+03</rscale>
<asrwt>0</asrwt>
<pdfrwt beam="1">  1       21 0.53543518E-01 0.18424054E+03</pdfrwt>
<pdfrwt beam="2">  1       21 0.27378577E-01 0.18424054E+03</pdfrwt>
<totfact> 0.42174000E+04</totfact>
</mgrwt>
</event>
<event>
 4    3  0.3905963E+000  0.2644250E+03  0.7546771E-02  0.1104513E+00
         21   -1    0    0  501  502  0.00000000000E+00  0.00000000000E+00  0.19707679603E+03  0.19707679603E+03  0.00000000000E+00 0.  1.
         21   -1    0    0  502  503 -0.00000000000E+00 -0.00000000000E+00 -0.36445709950E+03  0.36445709950E+03  0.00000000000E+00 0. -1.
          6    1    1    2  501    0  0.19386572572E+03 -0.49068075871E+02 -0.12942032733E+03  0.29439805843E+03  0.17300000000E+03 0. -1.
         -6    1    1    2    0  503 -0.19386572572E+03  0.49068075871E+02 -0.37959976133E+02  0.26713583711E+03  0.17300000000E+03 0.  1.
<mgrwt>
<rscale>  2 0.26442503E+03</rscale>
<asrwt>0</asrwt>
<pdfrwt beam="1">  1       21 0.30319507E-01 0.26442503E+03</pdfrwt>
<pdfrwt beam="2">  1       21 0.56070323E-01 0.26442503E+03</pdfrwt>
<totfact> 0.30185050E+04</totfact>
</mgrwt>
</event>
<event>
 4    3  0.3905963E+000  0.2057499E+03  0.7546771E-02  0.1144977E+00
         21   -1    0    0  503  502  0.00000000000E+00  0.00000000000E+00  0.13403382136E+04  0.13403382136E+04  0.00000000000E+00 0. -1.
         21   -1    0    0  501  503 -0.00000000000E+00 -0.00000000000E+00 -0.31857750682E+02  0.31857750682E+02  0.00000000000E+00 0. -1.
          6    1    1    2  501    0  0.10736600429E+01  0.11136813195E+03  0.59062055938E+03  0.62543237741E+03  0.17300000000E+03 0. -1.
         -6    1    1    2    0  502 -0.10736600429E+01 -0.11136813195E+03  0.71785990354E+03  0.74676358686E+03  0.17300000000E+03 0. -1.
<mgrwt>
<rscale>  2 0.20574988E+03</rscale>
<asrwt>0</asrwt>
<pdfrwt beam="1">  1       21 0.20620584E+00 0.20574988E+03</pdfrwt>
<pdfrwt beam="2">  1       21 0.49011934E-02 0.20574988E+03</pdfrwt>
<totfact> 0.33796429E+04</totfact>
</mgrwt>
</event>
<event>
 4    3  0.3905963E+000  0.1741386E+03  0.7546771E-02  0.1173599E+00
         21   -1    0    0  501  502  0.00000000000E+00  0.00000000000E+00  0.60341325893E+03  0.60341325893E+03  0.00000000000E+00 0. -1.
         21   -1    0    0  502  503 -0.00000000000E+00 -0.00000000000E+00 -0.50484848065E+02  0.50484848065E+02  0.00000000000E+00 0. -1.
          6    1    1    2  501    0  0.15165598264E+02  0.12855854618E+02  0.25438240786E+03  0.30827694983E+03  0.17300000000E+03 0. -1.
         -6    1    1    2    0  503 -0.15165598264E+02 -0.12855854618E+02  0.29854600300E+03  0.34562115716E+03  0.17300000000E+03 0. -1.
<mgrwt>
<rscale>  2 0.17413865E+03</rscale>
<asrwt>0</asrwt>
<pdfrwt beam="1">  1       21 0.92832804E-01 0.17413865E+03</pdfrwt>
<pdfrwt beam="2">  1       21 0.77669001E-02 0.17413865E+03</pdfrwt>
<totfact> 0.12438521E+05</totfact>
</mgrwt>
</event>
<event>
 4    3  0.3905963E+000  0.2074790E+03  0.7546771E-02  0.1143578E+00
         21   -1    0    0  503  502  0.00000000000E+00  0.00000000000E+00  0.97700348264E+02  0.97700348264E+02  0.00000000000E+00 0.  1.
         21   -1    0    0  501  503 -0.00000000000E+00 -0.00000000000E+00 -0.48040482401E+03  0.48040482401E+03  0.00000000000E+00 0. -1.
          6    1    1    2  501    0  0.10088680516E+03  0.54225382770E+02 -0.27454743400E+03  0.34412764072E+03  0.17300000000E+03 0. -1.
         -6    1    1    2    0  502 -0.10088680516E+03 -0.54225382770E+02 -0.10815704174E+03  0.23397753155E+03  0.17300000000E+03 0.  1.
<mgrwt>
<rscale>  2 0.20747901E+03</rscale>
<asrwt>0</asrwt>
<pdfrwt beam="1">  1       21 0.15030823E-01 0.20747901E+03</pdfrwt>
<pdfrwt beam="2">  1       21 0.73908433E-01 0.20747901E+03</pdfrwt>
<totfact> 0.63760520E+04</totfact>
</mgrwt>
</event>
<event>
 4    3  0.3905963E+000  0.1799935E+03  0.7546771E-02  0.1167809E+00
         21   -1    0    0  503  502  0.00000000000E+00  0.00000000000E+00  0.16466905779E+03  0.16466905779E+03  0.00000000000E+00 0. -1.
         21   -1    0    0  501  503 -0.00000000000E+00 -0.00000000000E+00 -0.34124809767E+03  0.34124809767E+03  0.00000000000E+00 0. -1.
          6    1    1    2  501    0  0.20348563251E+02  0.45327605178E+02 -0.25289879839E+03  0.31041175565E+03  0.17300000000E+03 0. -1.
         -6    1    1    2    0  502 -0.20348563251E+02 -0.45327605178E+02  0.76319758502E+02  0.19550539981E+03  0.17300000000E+03 0. -1.
<mgrwt>
<rscale>  2 0.17999349E+03</rscale>
<asrwt>0</asrwt>
<pdfrwt beam="1">  1       21 0.25333701E-01 0.17999349E+03</pdfrwt>
<pdfrwt beam="2">  1       21 0.52499707E-01 0.17999349E+03</pdfrwt>
<totfact> 0.51112936E+04</totfact>
</mgrwt>
</event>
<event>
 4    3  0.3905963E+000  0.3257646E+03  0.7546771E-02  0.1073026E+00
         21   -1    0    0  503  502  0.00000000000E+00  0.00000000000E+00  0.11601214456E+03  0.11601214456E+03  0.00000000000E+00 0.  1.
         21   -1    0    0  501  503 -0.00000000000E+00 -0.00000000000E+00 -0.10160286305E+04  0.10160286305E+04  0.00000000000E+00 0.  1.
          6    1    1    2  501    0 -0.14422631565E+03  0.23535572723E+03 -0.27130604519E+03  0.42394518351E+03  0.17300000000E+03 0.  1.
         -6    1    1    2    0  502  0.14422631565E+03 -0.23535572723E+03 -0.62871044075E+03  0.70809559155E+03  0.17300000000E+03 0.  1.
<mgrwt>
<rscale>  2 0.32576456E+03</rscale>
<asrwt>0</asrwt>
<pdfrwt beam="1">  1       21 0.17848023E-01 0.32576456E+03</pdfrwt>
<pdfrwt beam="2">  1       21 0.15631209E+00 0.32576456E+03</pdfrwt>
<totfact> 0.70305197E+03</totfact>
</mgrwt>
</event>
<event>
 4    3  0.3905963E+000  0.1808076E+03  0.7546771E-02  0.1167024E+00
         21   -1    0    0  503  502  0.00000000000E+00  0.00000000000E+00  0.10790053143E+04  0.10790053143E+04  0.00000000000E+00 0.  1.
         21   -1    0    0  501  503 -0.00000000000E+00 -0.00000000000E+00 -0.32600263573E+02  0.32600263573E+02  0.00000000000E+00 0.  1.
          6    1    1    2  501    0 -0.35832486054E+02 -0.38450199486E+02  0.67091442820E+03  0.69485074286E+03  0.17300000000E+03 0.  1.
         -6    1    1    2    0  502  0.35832486054E+02  0.38450199486E+02  0.37549062257E+03  0.41675483504E+03  0.17300000000E+03 0.  1.
<mgrwt>
<rscale>  2 0.18080759E+03</rscale>
<asrwt>0</asrwt>
<pdfrwt beam="1">  1       21 0.16600079E+00 0.18080759E+03</pdfrwt>
<pdfrwt beam="2">  1       21 0.50154260E-02 0.18080759E+03</pdfrwt>
<totfact> 0.61356010E+04</totfact>
</mgrwt>
</event>
<event>
 4    3  0.3905963E+000  0.1879512E+03  0.7546771E-02  0.1160322E+00
         21   -1    0    0  503  502  0.00000000000E+00  0.00000000000E+00  0.22623756804E+03  0.22623756804E+03  0.00000000000E+00 0. -1.
         21   -1    0    0  501  503 -0.00000000000E+00 -0.00000000000E+00 -0.25962260609E+03  0.25962260609E+03  0.00000000000E+00 0.  1.
          6    1    1    2  501    0  0.91432373918E+00  0.73456151871E+02 -0.17006071411E+03  0.25346851623E+03  0.17300000000E+03 0.  1.
         -6    1    1    2    0  502 -0.91432373918E+00 -0.73456151871E+02  0.13667567606E+03  0.23239165790E+03  0.17300000000E+03 0.  1.
<mgrwt>
<rscale>  2 0.18795117E+03</rscale>
<asrwt>0</asrwt>
<pdfrwt beam="1">  1       21 0.34805780E-01 0.18795117E+03</pdfrwt>
<pdfrwt beam="2">  1       21 0.39941939E-01 0.18795117E+03</pdfrwt>
<totfact> 0.48175713E+04</totfact>
</mgrwt>
</event>
<event>
 4    3  0.3905963E+000  0.1978048E+03  0.7546771E-02  0.1151604E+00
         21   -1    0    0  503  502  0.00000000000E+00  0.00000000000E+00  0.28732085470E+04  0.28732085470E+04  0.00000000000E+00 0.  1.
         21   -1    0    0  501  503 -0.00000000000E+00 -0.00000000000E+00 -0.15160824370E+02  0.15160824370E+02  0.00000000000E+00 0.  1.
          6    1    1    2  501    0 -0.90286625761E+02 -0.32343132863E+02  0.96829119135E+03  0.98828871505E+03  0.17300000000E+03 0.  1.
         -6    1    1    2    0  502  0.90286625761E+02  0.32343132863E+02  0.18897565313E+04  0.19000806563E+04  0.17300000000E+03 0.  1.
<mgrwt>
<rscale>  2 0.19780484E+03</rscale>
<asrwt>0</asrwt>
<pdfrwt beam="1">  1       21 0.44203165E+00 0.19780484E+03</pdfrwt>
<pdfrwt beam="2">  1       21 0.23324368E-02 0.19780484E+03</pdfrwt>
<totfact> 0.44640517E+03</totfact>
</mgrwt>
</event>
<event>
 4    3  0.3905963E+000  0.1851471E+03  0.7546771E-02  0.1162913E+00
         21   -1    0    0  501  502  0.00000000000E+00  0.00000000000E+00  0.10960838067E+03  0.10960838067E+03  0.00000000000E+00 0. -1.
         21   -1    0    0  502  503 -0.00000000000E+00 -0.00000000000E+00 -0.35443455918E+03  0.35443455918E+03  0.00000000000E+00 0. -1.
          6    1    1    2  501    0  0.48431362149E+02  0.44775502590E+02 -0.20198783251E+03  0.27400461119E+03  0.17300000000E+03 0. -1.
         -6    1    1    2    0  503 -0.48431362149E+02 -0.44775502590E+02 -0.42838346001E+02  0.19003832866E+03  0.17300000000E+03 0. -1.
<mgrwt>
<rscale>  2 0.18514708E+03</rscale>
<asrwt>0</asrwt>
<pdfrwt beam="1">  1       21 0.16862828E-01 0.18514708E+03</pdfrwt>
<pdfrwt beam="2">  1       21 0.54528393E-01 0.18514708E+03</pdfrwt>
<totfact> 0.10087007E+05</totfact>
</mgrwt>
</event>
<event>
 4    3  0.3905963E+000  0.2046858E+03  0.7546771E-02  0.1145845E+00
         21   -1    0    0  501  502  0.00000000000E+00  0.00000000000E+00  0.78428768798E+03  0.78428768798E+03  0.00000000000E+00 0.  1.
         21   -1    0    0  502  503 -0.00000000000E+00 -0.00000000000E+00 -0.53916606565E+02  0.53916606565E+02  0.00000000000E+00 0. -1.
          6    1    1    2  501    0  0.45638209920E+02 -0.99420400117E+02  0.40542758264E+03  0.45416713546E+03  0.17300000000E+03 0.  1.
         -6    1    1    2    0  503 -0.45638209920E+02  0.99420400117E+02  0.32494349877E+03  0.38403715908E+03  0.17300000000E+03 0.  1.
<mgrwt>
<rscale>  2 0.20468576E+03</rscale>
<asrwt>0</asrwt>
<pdfrwt beam="1">  1       21 0.12065964E+00 0.20468576E+03</pdfrwt>
<pdfrwt beam="2">  1       21 0.82948631E-02 0.20468576E+03</pdfrwt>
<totfact> 0.58333653E+04</totfact>
</mgrwt>
</event>
<event>
 4    3  0.3905963E+000  0.1888912E+03  0.7546771E-02  0.1159465E+00
         21   -1    0    0  501  502  0.00000000000E+00  0.00000000000E+00  0.40004523922E+02  0.40004523922E+02  0.00000000000E+00 0. -1.
         21   -1    0    0  502  503 -0.00000000000E+00 -0.00000000000E+00 -0.90445687240E+03  0.90445687240E+03  0.00000000000E+00 0. -1.
          6    1    1    2  501    0  0.52083986830E+02  0.55119407968E+02 -0.37657641459E+03  0.42129524902E+03  0.17300000000E+03 0. -1.
         -6    1    1    2    0  503 -0.52083986830E+02 -0.55119407968E+02 -0.48787593389E+03  0.52316614731E+03  0.17300000000E+03 0. -1.
<mgrwt>
<rscale>  2 0.18889121E+03</rscale>
<asrwt>0</asrwt>
<pdfrwt beam="1">  1       21 0.61545420E-02 0.18889121E+03</pdfrwt>
<pdfrwt beam="2">  1       21 0.13914721E+00 0.18889121E+03</pdfrwt>
<totfact> 0.68753487E+04</totfact>
</mgrwt>
</event>
<event>
 4    3  0.3905963E+000  0.1851678E+03  0.7546771E-02  0.1162893E+00
         21   -1    0    0  503  502  0.00000000000E+00  0.00000000000E+00  0.22192101754E+03  0.22192101754E+03  0.00000000000E+00 0.  1.
         21   -1    0    0  501  503 -0.00000000000E+00 -0.00000000000E+00 -0.27352876652E+03  0.27352876652E+03  0.00000000000E+00 0.  1.
          6    1    1    2  501    0 -0.53958195200E+02 -0.38034590091E+02 -0.18921871070E+03  0.26474674191E+03  0.17300000000E+03 0.  1.
         -6    1    1    2    0  502  0.53958195200E+02  0.38034590091E+02  0.13761096172E+03  0.23070304215E+03  0.17300000000E+03 0.  1.
<mgrwt>
<rscale>  2 0.18516781E+03</rscale>
<asrwt>0</asrwt>
<pdfrwt beam="1">  1       21 0.34141695E-01 0.18516781E+03</pdfrwt>
<pdfrwt beam="2">  1       21 0.42081349E-01 0.18516781E+03</pdfrwt>
<totfact> 0.45087661E+04</totfact>
</mgrwt>
</event>
<event>
 4    3  0.3905963E+000  0.1839327E+03  0.7546771E-02  0.1164050E+00
         21   -1    0    0  501  502  0.00000000000E+00  0.00000000000E+00  0.10296047356E+04  0.10296047356E+04  0.00000000000E+00 0. -1.
         21   -1    0    0  502  503 -0.00000000000E+00 -0.00000000000E+00 -0.18727015070E+03  0.18727015070E+03  0.00000000000E+00 0. -1.
          6    1    1    2  501    0 -0.24109157133E+02  0.57628094093E+02  0.97365384369E+03  0.99087489423E+03  0.17300000000E+03 0. -1.
         -6    1    1    2    0  503  0.24109157133E+02 -0.57628094093E+02 -0.13131925879E+03  0.22599999207E+03  0.17300000000E+03 0. -1.
<mgrwt>
<rscale>  2 0.18393273E+03</rscale>
<asrwt>0</asrwt>
<pdfrwt beam="1">  1       21 0.15840073E+00 0.18393273E+03</pdfrwt>
<pdfrwt beam="2">  1       21 0.28810793E-01 0.18393273E+03</pdfrwt>
<totfact> 0.30055108E+03</totfact>
</mgrwt>
</event>
<event>
 4    3  0.3905963E+000  0.2347785E+03  0.7546771E-02  0.1123321E+00
         21   -1    0    0  501  502  0.00000000000E+00  0.00000000000E+00  0.12092802478E+03  0.12092802478E+03  0.00000000000E+00 0. -1.
         21   -1    0    0  502  503 -0.00000000000E+00 -0.00000000000E+00 -0.49190639740E+03  0.49190639740E+03  0.00000000000E+00 0. -1.
          6    1    1    2  501    0  0.13956338573E+03 -0.75591155129E+02 -0.10249147459E+03  0.25617467426E+03  0.17300000000E+03 0. -1.
         -6    1    1    2    0  503 -0.13956338573E+03  0.75591155129E+02 -0.26848689803E+03  0.35665974791E+03  0.17300000000E+03 0. -1.
<mgrwt>
<rscale>  2 0.23477854E+03</rscale>
<asrwt>0</asrwt>
<pdfrwt beam="1">  1       21 0.18604311E-01 0.23477854E+03</pdfrwt>
<pdfrwt beam="2">  1       21 0.75677909E-01 0.23477854E+03</pdfrwt>
<totfact> 0.40310222E+04</totfact>
</mgrwt>
</event>
<event>
 4    3  0.3905963E+000  0.1840672E+03  0.7546771E-02  0.1163924E+00
         21   -1    0    0  501  502  0.00000000000E+00  0.00000000000E+00  0.84231615902E+03  0.84231615902E+03  0.00000000000E+00 0.  1.
         21   -1    0    0  502  503 -0.00000000000E+00 -0.00000000000E+00 -0.14853217260E+03  0.14853217260E+03  0.00000000000E+00 0.  1.
          6    1    1    2  501    0  0.16497289020E+02  0.60659456882E+02  0.76994905640E+03  0.79164529917E+03  0.17300000000E+03 0.  1.
         -6    1    1    2    0  503 -0.16497289020E+02 -0.60659456882E+02 -0.76165069969E+02  0.19920303245E+03  0.17300000000E+03 0.  1.
<mgrwt>
<rscale>  2 0.18406719E+03</rscale>
<asrwt>0</asrwt>
<pdfrwt beam="1">  1       21 0.12958710E+00 0.18406719E+03</pdfrwt>
<pdfrwt beam="2">  1       21 0.22851104E-01 0.18406719E+03</pdfrwt>
<totfact> 0.78809447E+03</totfact>
</mgrwt>
</event>
<event>
 4    3  0.3905963E+000  0.1918850E+03  0.7546771E-02  0.1156772E+00
         21   -1    0    0  503  502  0.00000000000E+00  0.00000000000E+00  0.41302408145E+03  0.41302408145E+03  0.00000000000E+00 0. -1.
         21   -1    0    0  501  503 -0.00000000000E+00 -0.00000000000E+00 -0.89981339165E+02  0.89981339165E+02  0.00000000000E+00 0. -1.
          6    1    1    2  501    0 -0.11941723039E+01  0.83002606535E+02  0.13730343332E+03  0.23594934105E+03  0.17300000000E+03 0. -1.
         -6    1    1    2    0  502  0.11941723039E+01 -0.83002606535E+02  0.18573930896E+03  0.26705607956E+03  0.17300000000E+03 0. -1.
<mgrwt>
<rscale>  2 0.19188501E+03</rscale>
<asrwt>0</asrwt>
<pdfrwt beam="1">  1       21 0.63542165E-01 0.19188501E+03</pdfrwt>
<pdfrwt beam="2">  1       21 0.13843283E-01 0.19188501E+03</pdfrwt>
<totfact> 0.10393501E+05</totfact>
</mgrwt>
</event>
<event>
 4    3  0.3905963E+000  0.2618276E+03  0.7546771E-02  0.1106050E+00
         21   -1    0    0  501  502  0.00000000000E+00  0.00000000000E+00  0.63816700606E+03  0.63816700606E+03  0.00000000000E+00 0.  1.
         21   -1    0    0  502  503 -0.00000000000E+00 -0.00000000000E+00 -0.45333537063E+03  0.45333537063E+03  0.00000000000E+00 0. -1.
          6    1    1    2  501    0  0.66786596595E+02  0.18483567296E+03  0.56914097502E+03  0.62647835153E+03  0.17300000000E+03 0.  1.
         -6    1    1    2    0  503 -0.66786596595E+02 -0.18483567296E+03 -0.38430933959E+03  0.46502402517E+03  0.17300000000E+03 0. -1.
<mgrwt>
<rscale>  2 0.26182757E+03</rscale>
<asrwt>0</asrwt>
<pdfrwt beam="1">  1       21 0.98179540E-01 0.26182757E+03</pdfrwt>
<pdfrwt beam="2">  1       21 0.69743903E-01 0.26182757E+03</pdfrwt>
<totfact> 0.15126330E+03</totfact>
</mgrwt>
</event>
<event>
 4    3  0.3905963E+000  0.1974014E+03  0.7546771E-02  0.1151950E+00
         21   -1    0    0  501  502  0.00000000000E+00  0.00000000000E+00  0.15964289525E+03  0.15964289525E+03  0.00000000000E+00 0. -1.
         21   -1    0    0  502  503 -0.00000000000E+00 -0.00000000000E+00 -0.99587233355E+03  0.99587233355E+03  0.00000000000E+00 0. -1.
          6    1    1    2  501    0 -0.46003103099E+02 -0.83198835488E+02  0.83869108582E+02  0.21447927428E+03  0.17300000000E+03 0. -1.
         -6    1    1    2    0  503  0.46003103099E+02  0.83198835488E+02 -0.92009854689E+03  0.94103595452E+03  0.17300000000E+03 0. -1.
<mgrwt>
<rscale>  2 0.19740145E+03</rscale>
<asrwt>0</asrwt>
<pdfrwt beam="1">  1       21 0.24560445E-01 0.19740145E+03</pdfrwt>
<pdfrwt beam="2">  1       21 0.15321113E+00 0.19740145E+03</pdfrwt>
<totfact> 0.44104295E+03</totfact>
</mgrwt>
</event>
<event>
 4    3  0.3905963E+000  0.1985252E+03  0.7546771E-02  0.1150989E+00
         21   -1    0    0  503  502  0.00000000000E+00  0.00000000000E+00  0.40887199917E+03  0.40887199917E+03  0.00000000000E+00 0.  1.
         21   -1    0    0  501  503 -0.00000000000E+00 -0.00000000000E+00 -0.96844510028E+02  0.96844510028E+02  0.00000000000E+00 0. -1.
          6    1    1    2  501    0  0.68900259172E+02  0.68818726959E+02  0.13874213085E+03  0.24220165517E+03  0.17300000000E+03 0. -1.
         -6    1    1    2    0  502 -0.68900259172E+02 -0.68818726959E+02  0.17328535830E+03  0.26351485403E+03  0.17300000000E+03 0.  1.
<mgrwt>
<rscale>  2 0.19852522E+03</rscale>
<asrwt>0</asrwt>
<pdfrwt beam="1">  1       21 0.62903384E-01 0.19852522E+03</pdfrwt>
<pdfrwt beam="2">  1       21 0.14899156E-01 0.19852522E+03</pdfrwt>
<totfact> 0.92710320E+04</totfact>
</mgrwt>
</event>
<event>
 4    3  0.3905963E+000  0.2657000E+03  0.7546771E-02  0.1103766E+00
         21   -1    0    0  503  502  0.00000000000E+00  0.00000000000E+00  0.91742801864E+02  0.91742801864E+02  0.00000000000E+00 0. -1.
         21   -1    0    0  501  503 -0.00000000000E+00 -0.00000000000E+00 -0.83607266186E+03  0.83607266186E+03  0.00000000000E+00 0.  1.
          6    1    1    2  501    0  0.12415276976E+03  0.15891372787E+03 -0.50306607377E+03  0.56892175009E+03  0.17300000000E+03 0.  1.
         -6    1    1    2    0  502 -0.12415276976E+03 -0.15891372787E+03 -0.24126378623E+03  0.35889371364E+03  0.17300000000E+03 0. -1.
<mgrwt>
<rscale>  2 0.26569999E+03</rscale>
<asrwt>0</asrwt>
<pdfrwt beam="1">  1       21 0.14114278E-01 0.26569999E+03</pdfrwt>
<pdfrwt beam="2">  1       21 0.12862656E+00 0.26569999E+03</pdfrwt>
<totfact> 0.18651985E+04</totfact>
</mgrwt>
</event>
<event>
 4    3  0.3905963E+000  0.1935180E+03  0.7546771E-02  0.1155326E+00
         21   -1    0    0  503  502  0.00000000000E+00  0.00000000000E+00  0.16456106519E+03  0.16456106519E+03  0.00000000000E+00 0. -1.
         21   -1    0    0  501  503 -0.00000000000E+00 -0.00000000000E+00 -0.22968798894E+03  0.22968798894E+03  0.00000000000E+00 0.  1.
          6    1    1    2  501    0  0.79256384257E+02  0.35194443218E+02 -0.51491035279E+02  0.20025121721E+03  0.17300000000E+03 0. -1.
         -6    1    1    2    0  502 -0.79256384257E+02 -0.35194443218E+02 -0.13635888473E+02  0.19399783693E+03  0.17300000000E+03 0.  1.
<mgrwt>
<rscale>  2 0.19351802E+03</rscale>
<asrwt>0</asrwt>
<pdfrwt beam="1">  1       21 0.25317087E-01 0.19351802E+03</pdfrwt>
<pdfrwt beam="2">  1       21 0.35336613E-01 0.19351802E+03</pdfrwt>
<totfact> 0.11413944E+05</totfact>
</mgrwt>
</event>
<event>
 4    3  0.3905963E+000  0.2004129E+03  0.7546771E-02  0.1149391E+00
         21   -1    0    0  503  502  0.00000000000E+00  0.00000000000E+00  0.26941567259E+03  0.26941567259E+03  0.00000000000E+00 0.  1.
         21   -1    0    0  501  503 -0.00000000000E+00 -0.00000000000E+00 -0.33444038631E+03  0.33444038631E+03  0.00000000000E+00 0. -1.
          6    1    1    2  501    0  0.69634287932E+02 -0.73398990984E+02 -0.25728777219E+03  0.32613240203E+03  0.17300000000E+03 0. -1.
         -6    1    1    2    0  502 -0.69634287932E+02  0.73398990984E+02  0.19226305847E+03  0.27772365687E+03  0.17300000000E+03 0.  1.
<mgrwt>
<rscale>  2 0.20041294E+03</rscale>
<asrwt>0</asrwt>
<pdfrwt beam="1">  1       21 0.41448565E-01 0.20041294E+03</pdfrwt>
<pdfrwt beam="2">  1       21 0.51452367E-01 0.20041294E+03</pdfrwt>
<totfact> 0.20022414E+04</totfact>
</mgrwt>
</event>
<event>
 4    3  0.3905963E+000  0.2546414E+03  0.7546771E-02  0.1110406E+00
         21   -1    0    0  501  502  0.00000000000E+00  0.00000000000E+00  0.20394550587E+03  0.20394550587E+03  0.00000000000E+00 0.  1.
         21   -1    0    0  502  503 -0.00000000000E+00 -0.00000000000E+00 -0.64461315097E+03  0.64461315097E+03  0.00000000000E+00 0.  1.
          6    1    1    2  501    0  0.18183489199E+03 -0.43003629620E+02  0.81702827812E+02  0.26742773263E+03  0.17300000000E+03 0.  1.
         -6    1    1    2    0  503 -0.18183489199E+03  0.43003629620E+02 -0.52237047292E+03  0.58113092422E+03  0.17300000000E+03 0.  1.
<mgrwt>
<rscale>  2 0.25464140E+03</rscale>
<asrwt>0</asrwt>
<pdfrwt beam="1">  1       21 0.31376232E-01 0.25464140E+03</pdfrwt>
<pdfrwt beam="2">  1       21 0.99171254E-01 0.25464140E+03</pdfrwt>
<totfact> 0.78475301E+03</totfact>
</mgrwt>
</event>
<event>
 4    3  0.3905963E+000  0.1749689E+03  0.7546771E-02  0.1172763E+00
         21   -1    0    0  501  502  0.00000000000E+00  0.00000000000E+00  0.10109768352E+03  0.10109768352E+03  0.00000000000E+00 0.  1.
         21   -1    0    0  502  503 -0.00000000000E+00 -0.00000000000E+00 -0.82170118866E+03  0.82170118866E+03  0.00000000000E+00 0.  1.
          6    1    1    2  501    0 -0.25783138923E+02  0.45094656271E+01  0.63512839034E+01  0.17508410648E+03  0.17300000000E+03 0.  1.
         -6    1    1    2    0  503  0.25783138923E+02 -0.45094656271E+01 -0.72695478904E+03  0.74771476570E+03  0.17300000000E+03 0.  1.
<mgrwt>
<rscale>  2 0.17496887E+03</rscale>
<asrwt>0</asrwt>
<pdfrwt beam="1">  1       21 0.15553490E-01 0.17496887E+03</pdfrwt>
<pdfrwt beam="2">  1       21 0.12641556E+00 0.17496887E+03</pdfrwt>
<totfact> 0.17232753E+04</totfact>
</mgrwt>
</event>
<event>
 4    3  0.3905963E+000  0.2766983E+03  0.7546771E-02  0.1097506E+00
         21   -1    0    0  501  502  0.00000000000E+00  0.00000000000E+00  0.90996795279E+03  0.90996795279E+03  0.00000000000E+00 0.  1.
         21   -1    0    0  502  503 -0.00000000000E+00 -0.00000000000E+00 -0.24044966858E+03  0.24044966858E+03  0.00000000000E+00 0. -1.
          6    1    1    2  501    0 -0.95966260664E+02 -0.19345129951E+03  0.79853762541E+03  0.84511790163E+03  0.17300000000E+03 0.  1.
         -6    1    1    2    0  503  0.95966260664E+02  0.19345129951E+03 -0.12901934119E+03  0.30529971973E+03  0.17300000000E+03 0. -1.
<mgrwt>
<rscale>  2 0.27669826E+03</rscale>
<asrwt>0</asrwt>
<pdfrwt beam="1">  1       21 0.13999507E+00 0.27669826E+03</pdfrwt>
<pdfrwt beam="2">  1       21 0.36992257E-01 0.27669826E+03</pdfrwt>
<totfact> 0.23617688E+03</totfact>
</mgrwt>
</event>
<event>
 4    3  0.3905963E+000  0.2037634E+03  0.7546771E-02  0.1146602E+00
         21   -1    0    0  503  502  0.00000000000E+00  0.00000000000E+00  0.15787991105E+04  0.15787991105E+04  0.00000000000E+00 0. -1.
         21   -1    0    0  501  503 -0.00000000000E+00 -0.00000000000E+00 -0.30685685671E+02  0.30685685671E+02  0.00000000000E+00 0. -1.
          6    1    1    2  501    0  0.94465590397E+02 -0.51640773460E+02  0.46975904353E+03  0.51204792376E+03  0.17300000000E+03 0. -1.
         -6    1    1    2    0  502 -0.94465590397E+02  0.51640773460E+02  0.10783543813E+04  0.10974368724E+04  0.17300000000E+03 0. -1.
<mgrwt>
<rscale>  2 0.20376339E+03</rscale>
<asrwt>0</asrwt>
<pdfrwt beam="1">  1       21 0.24289211E+00 0.20376339E+03</pdfrwt>
<pdfrwt beam="2">  1       21 0.47208759E-02 0.20376339E+03</pdfrwt>
<totfact> 0.21510574E+04</totfact>
</mgrwt>
</event>
<event>
 4    3  0.3905963E+000  0.1937050E+03  0.7546771E-02  0.1155161E+00
         21   -1    0    0  501  502  0.00000000000E+00  0.00000000000E+00  0.81610771722E+02  0.81610771722E+02  0.00000000000E+00 0.  1.
         21   -1    0    0  502  503 -0.00000000000E+00 -0.00000000000E+00 -0.53720277867E+03  0.53720277867E+03  0.00000000000E+00 0.  1.
          6    1    1    2  501    0 -0.86500119026E+02 -0.10505033611E+02 -0.11032185757E+03  0.22291823295E+03  0.17300000000E+03 0.  1.
         -6    1    1    2    0  503  0.86500119026E+02  0.10505033611E+02 -0.34527014938E+03  0.39589531744E+03  0.17300000000E+03 0.  1.
<mgrwt>
<rscale>  2 0.19370500E+03</rscale>
<asrwt>0</asrwt>
<pdfrwt beam="1">  1       21 0.12555503E-01 0.19370500E+03</pdfrwt>
<pdfrwt beam="2">  1       21 0.82646581E-01 0.19370500E+03</pdfrwt>
<totfact> 0.69098579E+04</totfact>
</mgrwt>
</event>
<event>
 4    3  0.3905963E+000  0.3650054E+03  0.7546771E-02  0.1056619E+00
         21   -1    0    0  501  502  0.00000000000E+00  0.00000000000E+00  0.11022646862E+04  0.11022646862E+04  0.00000000000E+00 0. -1.
         21   -1    0    0  502  503 -0.00000000000E+00 -0.00000000000E+00 -0.21108999639E+03  0.21108999639E+03  0.00000000000E+00 0. -1.
          6    1    1    2  501    0 -0.21473596426E+03 -0.23914096955E+03  0.87489983821E+03  0.94798663734E+03  0.17300000000E+03 0. -1.
         -6    1    1    2    0  503  0.21473596426E+03  0.23914096955E+03  0.16274851552E+02  0.36536804521E+03  0.17300000000E+03 0. -1.
<mgrwt>
<rscale>  2 0.36500539E+03</rscale>
<asrwt>0</asrwt>
<pdfrwt beam="1">  1       21 0.16957918E+00 0.36500539E+03</pdfrwt>
<pdfrwt beam="2">  1       21 0.32475385E-01 0.36500539E+03</pdfrwt>
<totfact> 0.17320891E+03</totfact>
</mgrwt>
</event>
<event>
 4    3  0.3905963E+000  0.2030511E+03  0.7546771E-02  0.1147190E+00
         21   -1    0    0  503  502  0.00000000000E+00  0.00000000000E+00  0.18679611803E+03  0.18679611803E+03  0.00000000000E+00 0.  1.
         21   -1    0    0  501  503 -0.00000000000E+00 -0.00000000000E+00 -0.22072187426E+03  0.22072187426E+03  0.00000000000E+00 0.  1.
          6    1    1    2  501    0 -0.56603272137E+02  0.89982418490E+02 -0.16488768502E+02  0.20371952666E+03  0.17300000000E+03 0.  1.
         -6    1    1    2    0  502  0.56603272137E+02 -0.89982418490E+02 -0.17436987725E+02  0.20379846563E+03  0.17300000000E+03 0.  1.
<mgrwt>
<rscale>  2 0.20305114E+03</rscale>
<asrwt>0</asrwt>
<pdfrwt beam="1">  1       21 0.28737864E-01 0.20305114E+03</pdfrwt>
<pdfrwt beam="2">  1       21 0.33957211E-01 0.20305114E+03</pdfrwt>
<totfact> 0.96387994E+04</totfact>
</mgrwt>
</event>
<event>
 4    3  0.3905963E+000  0.1908857E+03  0.7546771E-02  0.1157665E+00
         21   -1    0    0  501  502  0.00000000000E+00  0.00000000000E+00  0.37403870872E+02  0.37403870872E+02  0.00000000000E+00 0. -1.
         21   -1    0    0  502  503 -0.00000000000E+00 -0.00000000000E+00 -0.10804092421E+04  0.10804092421E+04  0.00000000000E+00 0. -1.
          6    1    1    2  501    0  0.77633763797E+02  0.21939303414E+02 -0.69677329693E+03  0.72244748019E+03  0.17300000000E+03 0. -1.
         -6    1    1    2    0  503 -0.77633763797E+02 -0.21939303414E+02 -0.34623207431E+03  0.39536563280E+03  0.17300000000E+03 0. -1.
<mgrwt>
<rscale>  2 0.19088566E+03</rscale>
<asrwt>0</asrwt>
<pdfrwt beam="1">  1       21 0.57544414E-02 0.19088566E+03</pdfrwt>
<pdfrwt beam="2">  1       21 0.16621681E+00 0.19088566E+03</pdfrwt>
<totfact> 0.48116326E+04</totfact>
</mgrwt>
</event>
<event>
 4    3  0.3905963E+000  0.2211218E+03  0.7546771E-02  0.1133049E+00
         21   -1    0    0  501  502  0.00000000000E+00  0.00000000000E+00  0.58796999122E+03  0.58796999122E+03  0.00000000000E+00 0.  1.
         21   -1    0    0  502  503 -0.00000000000E+00 -0.00000000000E+00 -0.10890677278E+03  0.10890677278E+03  0.00000000000E+00 0.  1.
          6    1    1    2  501    0  0.10233330747E+02 -0.13733580404E+03  0.40895390541E+03  0.46490659371E+03  0.17300000000E+03 0.  1.
         -6    1    1    2    0  503 -0.10233330747E+02  0.13733580404E+03  0.70109313042E+02  0.23197017029E+03  0.17300000000E+03 0.  1.
<mgrwt>
<rscale>  2 0.22112179E+03</rscale>
<asrwt>0</asrwt>
<pdfrwt beam="1">  1       21 0.90456920E-01 0.22112179E+03</pdfrwt>
<pdfrwt beam="2">  1       21 0.16754888E-01 0.22112179E+03</pdfrwt>
<totfact> 0.32763655E+04</totfact>
</mgrwt>
</event>
<event>
 4    3  0.3905963E+000  0.3152208E+03  0.7546771E-02  0.1077870E+00
         21   -1    0    0  501  502  0.00000000000E+00  0.00000000000E+00  0.23000804596E+03  0.23000804596E+03  0.00000000000E+00 0.  1.
         21   -1    0    0  502  503 -0.00000000000E+00 -0.00000000000E+00 -0.20638527928E+04  0.20638527928E+04  0.00000000000E+00 0. -1.
          6    1    1    2  501    0 -0.81049141852E+01  0.26338087378E+03  0.10293114425E+03  0.33160065555E+03  0.17300000000E+03 0.  1.
         -6    1    1    2    0  503  0.81049141852E+01 -0.26338087378E+03 -0.19367758911E+04  0.19622601832E+04  0.17300000000E+03 0. -1.
<mgrwt>
<rscale>  2 0.31522083E+03</rscale>
<asrwt>0</asrwt>
<pdfrwt beam="1">  1       21 0.35385852E-01 0.31522083E+03</pdfrwt>
<pdfrwt beam="2">  1       21 0.31751582E+00 0.31522083E+03</pdfrwt>
<totfact> 0.17930003E+02</totfact>
</mgrwt>
</event>
<event>
 4    3  0.3905963E+000  0.1994168E+03  0.7546771E-02  0.1150232E+00
         21   -1    0    0  503  502  0.00000000000E+00  0.00000000000E+00  0.43314455687E+03  0.43314455687E+03  0.00000000000E+00 0.  1.
         21   -1    0    0  501  503 -0.00000000000E+00 -0.00000000000E+00 -0.18805161568E+03  0.18805161568E+03  0.00000000000E+00 0.  1.
          6    1    1    2  501    0  0.98904429551E+02  0.74811494215E+01 -0.99652182810E+02  0.22292961069E+03  0.17300000000E+03 0.  1.
         -6    1    1    2    0  502 -0.98904429551E+02 -0.74811494215E+01  0.34474512400E+03  0.39826656187E+03  0.17300000000E+03 0.  1.
<mgrwt>
<rscale>  2 0.19941678E+03</rscale>
<asrwt>0</asrwt>
<pdfrwt beam="1">  1       21 0.66637624E-01 0.19941678E+03</pdfrwt>
<pdfrwt beam="2">  1       21 0.28931018E-01 0.19941678E+03</pdfrwt>
<totfact> 0.23513476E+04</totfact>
</mgrwt>
</event>
<event>
 4    3  0.3905963E+000  0.1798883E+03  0.7546771E-02  0.1167911E+00
         21   -1    0    0  503  502  0.00000000000E+00  0.00000000000E+00  0.30230413090E+02  0.30230413090E+02  0.00000000000E+00 0. -1.
         21   -1    0    0  501  503 -0.00000000000E+00 -0.00000000000E+00 -0.11299234669E+04  0.11299234669E+04  0.00000000000E+00 0. -1.
          6    1    1    2  501    0  0.14065303159E+02  0.47254260176E+02 -0.68294244035E+03  0.70623662797E+03  0.17300000000E+03 0. -1.
         -6    1    1    2    0  502 -0.14065303159E+02 -0.47254260176E+02 -0.41675061342E+03  0.45391725198E+03  0.17300000000E+03 0. -1.
<mgrwt>
<rscale>  2 0.17988829E+03</rscale>
<asrwt>0</asrwt>
<pdfrwt beam="1">  1       21 0.46508331E-02 0.17988829E+03</pdfrwt>
<pdfrwt beam="2">  1       21 0.17383437E+00 0.17988829E+03</pdfrwt>
<totfact> 0.61452973E+04</totfact>
</mgrwt>
</event>
<event>
 4    3  0.3905963E+000  0.2151928E+03  0.7546771E-02  0.1137519E+00
         21   -1    0    0  503  502  0.00000000000E+00  0.00000000000E+00  0.38092703140E+03  0.38092703140E+03  0.00000000000E+00 0. -1.
         21   -1    0    0  501  503 -0.00000000000E+00 -0.00000000000E+00 -0.13158198401E+03  0.13158198401E+03  0.00000000000E+00 0.  1.
          6    1    1    2  501    0 -0.77215883015E+02 -0.10206190744E+03  0.53973800573E+02  0.22185828064E+03  0.17300000000E+03 0.  1.
         -6    1    1    2    0  502  0.77215883015E+02  0.10206190744E+03  0.19537124682E+03  0.29065073477E+03  0.17300000000E+03 0.  1.
<mgrwt>
<rscale>  2 0.21519276E+03</rscale>
<asrwt>0</asrwt>
<pdfrwt beam="1">  1       21 0.58604158E-01 0.21519276E+03</pdfrwt>
<pdfrwt beam="2">  1       21 0.20243382E-01 0.21519276E+03</pdfrwt>
<totfact> 0.60869419E+04</totfact>
</mgrwt>
</event>
<event>
 4    3  0.3905963E+000  0.3289921E+03  0.7546771E-02  0.1071584E+00
         21   -1    0    0  503  502  0.00000000000E+00  0.00000000000E+00  0.12324473467E+03  0.12324473467E+03  0.00000000000E+00 0. -1.
         21   -1    0    0  501  503 -0.00000000000E+00 -0.00000000000E+00 -0.93400386399E+03  0.93400386399E+03  0.00000000000E+00 0.  1.
          6    1    1    2  501    0  0.27706917505E+03  0.39236436102E+02 -0.53457057673E+03  0.62769540956E+03  0.17300000000E+03 0.  1.
         -6    1    1    2    0  502 -0.27706917505E+03 -0.39236436102E+02 -0.27618855259E+03  0.42955318910E+03  0.17300000000E+03 0. -1.
<mgrwt>
<rscale>  2 0.32899214E+03</rscale>
<asrwt>0</asrwt>
<pdfrwt beam="1">  1       21 0.18960728E-01 0.32899214E+03</pdfrwt>
<pdfrwt beam="2">  1       21 0.14369290E+00 0.32899214E+03</pdfrwt>
<totfact> 0.78571985E+03</totfact>
</mgrwt>
</event>
<event>
 4    3  0.3905963E+000  0.1852021E+03  0.7546771E-02  0.1162861E+00
         21   -1    0    0  501  502  0.00000000000E+00  0.00000000000E+00  0.74774913366E+03  0.74774913366E+03  0.00000000000E+00 0.  1.
         21   -1    0    0  502  503 -0.00000000000E+00 -0.00000000000E+00 -0.12444384977E+03  0.12444384977E+03  0.00000000000E+00 0.  1.
          6    1    1    2  501    0 -0.22089191767E+02 -0.62312905119E+02  0.65817619170E+03  0.68373659392E+03  0.17300000000E+03 0.  1.
         -6    1    1    2    0  503  0.22089191767E+02  0.62312905119E+02 -0.34870907804E+02  0.18845638951E+03  0.17300000000E+03 0.  1.
<mgrwt>
<rscale>  2 0.18520213E+03</rscale>
<asrwt>0</asrwt>
<pdfrwt beam="1">  1       21 0.11503833E+00 0.18520213E+03</pdfrwt>
<pdfrwt beam="2">  1       21 0.19145208E-01 0.18520213E+03</pdfrwt>
<totfact> 0.14741892E+04</totfact>
</mgrwt>
</event>
<event>
 4    3  0.3905963E+000  0.2404772E+03  0.7546771E-02  0.1119475E+00
         21   -1    0    0  501  502  0.00000000000E+00  0.00000000000E+00  0.78081428004E+03  0.78081428004E+03  0.00000000000E+00 0.  1.
         21   -1    0    0  502  503 -0.00000000000E+00 -0.00000000000E+00 -0.94378798166E+02  0.94378798166E+02  0.00000000000E+00 0.  1.
          6    1    1    2  501    0 -0.34713197101E+02  0.16338682886E+03  0.54624584069E+03  0.59683647708E+03  0.17300000000E+03 0.  1.
         -6    1    1    2    0  503  0.34713197101E+02 -0.16338682886E+03  0.14018964118E+03  0.27835660113E+03  0.17300000000E+03 0.  1.
<mgrwt>
<rscale>  2 0.24047715E+03</rscale>
<asrwt>0</asrwt>
<pdfrwt beam="1">  1       21 0.12012527E+00 0.24047715E+03</pdfrwt>
<pdfrwt beam="2">  1       21 0.14519816E-01 0.24047715E+03</pdfrwt>
<totfact> 0.21317552E+04</totfact>
</mgrwt>
</event>
<event>
 4    3  0.3905963E+000  0.1905255E+03  0.7546771E-02  0.1157988E+00
         21   -1    0    0  501  502  0.00000000000E+00  0.00000000000E+00  0.38210902309E+03  0.38210902309E+03  0.00000000000E+00 0. -1.
         21   -1    0    0  502  503 -0.00000000000E+00 -0.00000000000E+00 -0.32988878699E+03  0.32988878699E+03  0.00000000000E+00 0.  1.
          6    1    1    2  501    0  0.76797117048E+02 -0.21752274094E+02  0.32650808706E+03  0.37803106953E+03  0.17300000000E+03 0. -1.
         -6    1    1    2    0  503 -0.76797117048E+02  0.21752274094E+02 -0.27428785096E+03  0.33396674056E+03  0.17300000000E+03 0.  1.
<mgrwt>
<rscale>  2 0.19052548E+03</rscale>
<asrwt>0</asrwt>
<pdfrwt beam="1">  1       21 0.58786004E-01 0.19052548E+03</pdfrwt>
<pdfrwt beam="2">  1       21 0.50752121E-01 0.19052548E+03</pdfrwt>
<totfact> 0.10014174E+04</totfact>
</mgrwt>
</event>
<event>
 4    3  0.3905963E+000  0.1911934E+03  0.7546771E-02  0.1157389E+00
         21   -1    0    0  501  502  0.00000000000E+00  0.00000000000E+00  0.31980389888E+02  0.31980389888E+02  0.00000000000E+00 0. -1.
         21   -1    0    0  502  503 -0.00000000000E+00 -0.00000000000E+00 -0.11501239491E+04  0.11501239491E+04  0.00000000000E+00 0. -1.
          6    1    1    2  501    0  0.64947898793E+02  0.49068277983E+02 -0.51269152691E+03  0.54718143903E+03  0.17300000000E+03 0. -1.
         -6    1    1    2    0  503 -0.64947898793E+02 -0.49068277983E+02 -0.60545203227E+03  0.63492289992E+03  0.17300000000E+03 0. -1.
<mgrwt>
<rscale>  2 0.19119342E+03</rscale>
<asrwt>0</asrwt>
<pdfrwt beam="1">  1       21 0.49200596E-02 0.19119342E+03</pdfrwt>
<pdfrwt beam="2">  1       21 0.17694216E+00 0.19119342E+03</pdfrwt>
<totfact> 0.52830021E+04</totfact>
</mgrwt>
</event>
<event>
 4    3  0.3905963E+000  0.2920552E+03  0.7546771E-02  0.1089281E+00
         21   -1    0    0  503  502  0.00000000000E+00  0.00000000000E+00  0.43611168803E+03  0.43611168803E+03  0.00000000000E+00 0.  1.
         21   -1    0    0  501  503 -0.00000000000E+00 -0.00000000000E+00 -0.19578349567E+03  0.19578349567E+03  0.00000000000E+00 0.  1.
          6    1    1    2  501    0 -0.14728989063E+03 -0.18350182124E+03  0.11006489027E+03  0.31210656890E+03  0.17300000000E+03 0.  1.
         -6    1    1    2    0  502  0.14728989063E+03  0.18350182124E+03  0.13026330209E+03  0.31978861480E+03  0.17300000000E+03 0.  1.
<mgrwt>
<rscale>  2 0.29205518E+03</rscale>
<asrwt>0</asrwt>
<pdfrwt beam="1">  1       21 0.67094106E-01 0.29205518E+03</pdfrwt>
<pdfrwt beam="2">  1       21 0.30120538E-01 0.29205518E+03</pdfrwt>
<totfact> 0.20458949E+04</totfact>
</mgrwt>
</event>
<event>
 4    3  0.3905963E+000  0.1879804E+03  0.7546771E-02  0.1160296E+00
         21   -1    0    0  503  502  0.00000000000E+00  0.00000000000E+00  0.84322619942E+03  0.84322619942E+03  0.00000000000E+00 0.  1.
         21   -1    0    0  501  503 -0.00000000000E+00 -0.00000000000E+00 -0.42993098684E+02  0.42993098684E+02  0.00000000000E+00 0. -1.
          6    1    1    2  501    0 -0.68403244497E+02 -0.26993128942E+02  0.32967116504E+03  0.37949928844E+03  0.17300000000E+03 0.  1.
         -6    1    1    2    0  502  0.68403244497E+02  0.26993128942E+02  0.47056193570E+03  0.50672000967E+03  0.17300000000E+03 0.  1.
<mgrwt>
<rscale>  2 0.18798041E+03</rscale>
<asrwt>0</asrwt>
<pdfrwt beam="1">  1       21 0.12972709E+00 0.18798041E+03</pdfrwt>
<pdfrwt beam="2">  1       21 0.66143235E-02 0.18798041E+03</pdfrwt>
<totfact> 0.72644499E+04</totfact>
</mgrwt>
</event>
<event>
 4    3  0.3905963E+000  0.2323342E+03  0.7546771E-02  0.1125008E+00
         21   -1    0    0  503  502  0.00000000000E+00  0.00000000000E+00  0.90020921833E+03  0.90020921833E+03  0.00000000000E+00 0.  1.
         21   -1    0    0  501  503 -0.00000000000E+00 -0.00000000000E+00 -0.63741237085E+02  0.63741237085E+02  0.00000000000E+00 0.  1.
          6    1    1    2  501    0 -0.91906183881E+02 -0.12491378835E+03  0.53557826360E+03  0.58380071737E+03  0.17300000000E+03 0.  1.
         -6    1    1    2    0  502  0.91906183881E+02  0.12491378835E+03  0.30088971765E+03  0.38014973805E+03  0.17300000000E+03 0.  1.
<mgrwt>
<rscale>  2 0.23233424E+03</rscale>
<asrwt>0</asrwt>
<pdfrwt beam="1">  1       21 0.13849372E+00 0.23233424E+03</pdfrwt>
<pdfrwt beam="2">  1       21 0.98063448E-02 0.23233424E+03</pdfrwt>
<totfact> 0.30205904E+04</totfact>
</mgrwt>
</event>
<event>
 4    3  0.3905963E+000  0.1800602E+03  0.7546771E-02  0.1167745E+00
         21   -1    0    0  501  502  0.00000000000E+00  0.00000000000E+00  0.99955816416E+02  0.99955816416E+02  0.00000000000E+00 0.  1.
         21   -1    0    0  502  503 -0.00000000000E+00 -0.00000000000E+00 -0.32685137327E+03  0.32685137327E+03  0.00000000000E+00 0. -1.
          6    1    1    2  501    0 -0.49393964006E+02  0.72751020560E+01 -0.94817187299E+02  0.20349936068E+03  0.17300000000E+03 0.  1.
         -6    1    1    2    0  503  0.49393964006E+02 -0.72751020560E+01 -0.13207836955E+03  0.22330782900E+03  0.17300000000E+03 0.  1.
<mgrwt>
<rscale>  2 0.18006024E+03</rscale>
<asrwt>0</asrwt>
<pdfrwt beam="1">  1       21 0.15377818E-01 0.18006024E+03</pdfrwt>
<pdfrwt beam="2">  1       21 0.50284826E-01 0.18006024E+03</pdfrwt>
<totfact> 0.14176103E+05</totfact>
</mgrwt>
</event>
<event>
 4    3  0.3905963E+000  0.1799445E+03  0.7546771E-02  0.1167857E+00
         21   -1    0    0  501  502  0.00000000000E+00  0.00000000000E+00  0.41897010526E+03  0.41897010526E+03  0.00000000000E+00 0.  1.
         21   -1    0    0  502  503 -0.00000000000E+00 -0.00000000000E+00 -0.91729562016E+02  0.91729562016E+02  0.00000000000E+00 0.  1.
          6    1    1    2  501    0  0.46663804720E+02 -0.16537712534E+02  0.62290602676E+02  0.19042091741E+03  0.17300000000E+03 0.  1.
         -6    1    1    2    0  503 -0.46663804720E+02  0.16537712534E+02  0.26494994057E+03  0.32027874986E+03  0.17300000000E+03 0.  1.
<mgrwt>
<rscale>  2 0.17994445E+03</rscale>
<asrwt>0</asrwt>
<pdfrwt beam="1">  1       21 0.64456938E-01 0.17994445E+03</pdfrwt>
<pdfrwt beam="2">  1       21 0.14112241E-01 0.17994445E+03</pdfrwt>
<totfact> 0.97757170E+04</totfact>
</mgrwt>
</event>
<event>
 4    3  0.3905963E+000  0.1883016E+03  0.7546771E-02  0.1160002E+00
         21   -1    0    0  503  502  0.00000000000E+00  0.00000000000E+00  0.12382738117E+03  0.12382738117E+03  0.00000000000E+00 0. -1.
         21   -1    0    0  501  503 -0.00000000000E+00 -0.00000000000E+00 -0.43047001972E+03  0.43047001972E+03  0.00000000000E+00 0. -1.
          6    1    1    2  501    0  0.32111994116E+02 -0.67061867823E+02 -0.31368631864E+03  0.36586415619E+03  0.17300000000E+03 0. -1.
         -6    1    1    2    0  502 -0.32111994116E+02  0.67061867823E+02  0.70436800909E+01  0.18843324471E+03  0.17300000000E+03 0. -1.
<mgrwt>
<rscale>  2 0.18830155E+03</rscale>
<asrwt>0</asrwt>
<pdfrwt beam="1">  1       21 0.19050367E-01 0.18830155E+03</pdfrwt>
<pdfrwt beam="2">  1       21 0.66226155E-01 0.18830155E+03</pdfrwt>
<totfact> 0.52992611E+04</totfact>
</mgrwt>
</event>
<event>
 4    3  0.3905963E+000  0.2213389E+03  0.7546771E-02  0.1132889E+00
         21   -1    0    0  503  502  0.00000000000E+00  0.00000000000E+00  0.11529878688E+03  0.11529878688E+03  0.00000000000E+00 0. -1.
         21   -1    0    0  501  503 -0.00000000000E+00 -0.00000000000E+00 -0.46301194936E+03  0.46301194936E+03  0.00000000000E+00 0. -1.
          6    1    1    2  501    0 -0.13713639293E+03  0.15985179086E+02 -0.25681164966E+03  0.33903265273E+03  0.17300000000E+03 0. -1.
         -6    1    1    2    0  502  0.13713639293E+03 -0.15985179086E+02 -0.90901512816E+02  0.23927808351E+03  0.17300000000E+03 0. -1.
<mgrwt>
<rscale>  2 0.22133892E+03</rscale>
<asrwt>0</asrwt>
<pdfrwt beam="1">  1       21 0.17738275E-01 0.22133892E+03</pdfrwt>
<pdfrwt beam="2">  1       21 0.71232607E-01 0.22133892E+03</pdfrwt>
<totfact> 0.50727144E+04</totfact>
</mgrwt>
</event>
<event>
 4    3  0.3905963E+000  0.4446108E+03  0.7546771E-02  0.1029341E+00
         21   -1    0    0  503  502  0.00000000000E+00  0.00000000000E+00  0.65870499551E+03  0.65870499551E+03  0.00000000000E+00 0. -1.
         21   -1    0    0  501  503 -0.00000000000E+00 -0.00000000000E+00 -0.30069872479E+03  0.30069872479E+03  0.00000000000E+00 0.  1.
          6    1    1    2  501    0 -0.13673799272E+03  0.38607311735E+03  0.20037135416E+03  0.48767551729E+03  0.17300000000E+03 0. -1.
         -6    1    1    2    0  502  0.13673799272E+03 -0.38607311735E+03  0.15763491655E+03  0.47172820301E+03  0.17300000000E+03 0.  1.
<mgrwt>
<rscale>  2 0.44461076E+03</rscale>
<asrwt>0</asrwt>
<pdfrwt beam="1">  1       21 0.10133923E+00 0.44461076E+03</pdfrwt>
<pdfrwt beam="2">  1       21 0.46261342E-01 0.44461076E+03</pdfrwt>
<totfact> 0.31033428E+03</totfact>
</mgrwt>
</event>
<event>
 4    3  0.3905963E+000  0.1916656E+03  0.7546771E-02  0.1156968E+00
         21   -1    0    0  501  502  0.00000000000E+00  0.00000000000E+00  0.71742718449E+03  0.71742718449E+03  0.00000000000E+00 0.  1.
         21   -1    0    0  502  503 -0.00000000000E+00 -0.00000000000E+00 -0.52847046755E+02  0.52847046755E+02  0.00000000000E+00 0.  1.
          6    1    1    2  501    0 -0.75898896861E+02  0.32342723795E+02  0.26439658103E+03  0.32655971336E+03  0.17300000000E+03 0.  1.
         -6    1    1    2    0  503  0.75898896861E+02 -0.32342723795E+02  0.40018355670E+03  0.44371451788E+03  0.17300000000E+03 0.  1.
<mgrwt>
<rscale>  2 0.19166558E+03</rscale>
<asrwt>0</asrwt>
<pdfrwt beam="1">  1       21 0.11037341E+00 0.19166558E+03</pdfrwt>
<pdfrwt beam="2">  1       21 0.81303154E-02 0.19166558E+03</pdfrwt>
<totfact> 0.75613470E+04</totfact>
</mgrwt>
</event>
<event>
 4    3  0.3905963E+000  0.2118313E+03  0.7546771E-02  0.1140124E+00
         21   -1    0    0  503  502  0.00000000000E+00  0.00000000000E+00  0.78010742384E+02  0.78010742384E+02  0.00000000000E+00 0.  1.
         21   -1    0    0  501  503 -0.00000000000E+00 -0.00000000000E+00 -0.57555375839E+03  0.57555375839E+03  0.00000000000E+00 0.  1.
          6    1    1    2  501    0  0.69406345217E+02 -0.10062924706E+03 -0.24077440788E+03  0.32069424942E+03  0.17300000000E+03 0.  1.
         -6    1    1    2    0  502 -0.69406345217E+02  0.10062924706E+03 -0.25676860812E+03  0.33287025135E+03  0.17300000000E+03 0.  1.
<mgrwt>
<rscale>  2 0.21183127E+03</rscale>
<asrwt>0</asrwt>
<pdfrwt beam="1">  1       21 0.12001652E-01 0.21183127E+03</pdfrwt>
<pdfrwt beam="2">  1       21 0.88546735E-01 0.21183127E+03</pdfrwt>
<totfact> 0.63422212E+04</totfact>
</mgrwt>
</event>
<event>
 4    3  0.3905963E+000  0.2292389E+03  0.7546771E-02  0.1127177E+00
         21   -1    0    0  501  502  0.00000000000E+00  0.00000000000E+00  0.15058407442E+03  0.15058407442E+03  0.00000000000E+00 0. -1.
         21   -1    0    0  502  503 -0.00000000000E+00 -0.00000000000E+00 -0.56659178227E+03  0.56659178227E+03  0.00000000000E+00 0. -1.
          6    1    1    2  501    0  0.13608641905E+03 -0.64046646644E+02  0.14226824122E+02  0.22967997065E+03  0.17300000000E+03 0. -1.
         -6    1    1    2    0  503 -0.13608641905E+03  0.64046646644E+02 -0.43023453197E+03  0.48749588603E+03  0.17300000000E+03 0. -1.
<mgrwt>
<rscale>  2 0.22923893E+03</rscale>
<asrwt>0</asrwt>
<pdfrwt beam="1">  1       21 0.23166781E-01 0.22923893E+03</pdfrwt>
<pdfrwt beam="2">  1       21 0.87167964E-01 0.22923893E+03</pdfrwt>
<totfact> 0.19380441E+04</totfact>
</mgrwt>
</event>
<event>
 4    3  0.3905963E+000  0.1768850E+03  0.7546771E-02  0.1170852E+00
         21   -1    0    0  501  502  0.00000000000E+00  0.00000000000E+00  0.11947929036E+04  0.11947929036E+04  0.00000000000E+00 0.  1.
         21   -1    0    0  502  503 -0.00000000000E+00 -0.00000000000E+00 -0.69870472253E+02  0.69870472253E+02  0.00000000000E+00 0.  1.
          6    1    1    2  501    0  0.36755893915E+02  0.28799382597E+01  0.10624446908E+04  0.10770687122E+04  0.17300000000E+03 0.  1.
         -6    1    1    2    0  503 -0.36755893915E+02 -0.28799382597E+01  0.62477740601E+02  0.18759466371E+03  0.17300000000E+03 0.  1.
<mgrwt>
<rscale>  2 0.17688496E+03</rscale>
<asrwt>0</asrwt>
<pdfrwt beam="1">  1       21 0.18381428E+00 0.17688496E+03</pdfrwt>
<pdfrwt beam="2">  1       21 0.10749304E-01 0.17688496E+03</pdfrwt>
<totfact> 0.12398993E+04</totfact>
</mgrwt>
</event>
<event>
 4    3  0.3905963E+000  0.2455727E+03  0.7546771E-02  0.1116135E+00
         21   -1    0    0  501  502  0.00000000000E+00  0.00000000000E+00  0.72251910013E+03  0.72251910013E+03  0.00000000000E+00 0.  1.
         21   -1    0    0  502  503 -0.00000000000E+00 -0.00000000000E+00 -0.13685967604E+03  0.13685967604E+03  0.00000000000E+00 0. -1.
          6    1    1    2  501    0  0.12716525211E+03  0.11918864753E+03  0.56121636127E+03  0.61259263724E+03  0.17300000000E+03 0.  1.
         -6    1    1    2    0  503 -0.12716525211E+03 -0.11918864753E+03  0.24443062819E+02  0.24678613893E+03  0.17300000000E+03 0. -1.
<mgrwt>
<rscale>  2 0.24557267E+03</rscale>
<asrwt>0</asrwt>
<pdfrwt beam="1">  1       21 0.11115678E+00 0.24557267E+03</pdfrwt>
<pdfrwt beam="2">  1       21 0.21055335E-01 0.24557267E+03</pdfrwt>
<totfact> 0.12915278E+04</totfact>
</mgrwt>
</event>
<event>
 4    3  0.3905963E+000  0.1760004E+03  0.7546771E-02  0.1171731E+00
         21   -1    0    0  503  502  0.00000000000E+00  0.00000000000E+00  0.85177776069E+03  0.85177776069E+03  0.00000000000E+00 0. -1.
         21   -1    0    0  501  503 -0.00000000000E+00 -0.00000000000E+00 -0.60231729031E+02  0.60231729031E+02  0.00000000000E+00 0. -1.
          6    1    1    2  501    0 -0.31985787021E+02 -0.49046047176E+01  0.10873473348E+03  0.20688012951E+03  0.17300000000E+03 0. -1.
         -6    1    1    2    0  502  0.31985787021E+02  0.49046047176E+01  0.68281129818E+03  0.70512936022E+03  0.17300000000E+03 0. -1.
<mgrwt>
<rscale>  2 0.17600041E+03</rscale>
<asrwt>0</asrwt>
<pdfrwt beam="1">  1       21 0.13104272E+00 0.17600041E+03</pdfrwt>
<pdfrwt beam="2">  1       21 0.92664204E-02 0.17600041E+03</pdfrwt>
<totfact> 0.39687151E+04</totfact>
</mgrwt>
</event>
<event>
 4    3  0.3905963E+000  0.1958068E+03  0.7546771E-02  0.1153326E+00
         21   -1    0    0  501  502  0.00000000000E+00  0.00000000000E+00  0.14358431553E+03  0.14358431553E+03  0.00000000000E+00 0. -1.
         21   -1    0    0  502  503 -0.00000000000E+00 -0.00000000000E+00 -0.26706745715E+03  0.26706745715E+03  0.00000000000E+00 0.  1.
          6    1    1    2  501    0  0.56527639271E+02 -0.72221347833E+02 -0.59088786138E+02  0.20452819300E+03  0.17300000000E+03 0.  1.
         -6    1    1    2    0  503 -0.56527639271E+02  0.72221347833E+02 -0.64394355485E+02  0.20612357969E+03  0.17300000000E+03 0.  1.
<mgrwt>
<rscale>  2 0.19580679E+03</rscale>
<asrwt>0</asrwt>
<pdfrwt beam="1">  1       21 0.22089895E-01 0.19580679E+03</pdfrwt>
<pdfrwt beam="2">  1       21 0.41087301E-01 0.19580679E+03</pdfrwt>
<totfact> 0.10915418E+05</totfact>
</mgrwt>
</event>
<event>
 4    3  0.3905963E+000  0.1960739E+03  0.7546771E-02  0.1153094E+00
         21   -1    0    0  503  502  0.00000000000E+00  0.00000000000E+00  0.47895467524E+02  0.47895467524E+02  0.00000000000E+00 0.  1.
         21   -1    0    0  501  503 -0.00000000000E+00 -0.00000000000E+00 -0.92915006172E+03  0.92915006172E+03  0.00000000000E+00 0.  1.
          6    1    1    2  501    0 -0.78007554429E+02  0.49303114277E+02 -0.62085729377E+03  0.65108275576E+03  0.17300000000E+03 0.  1.
         -6    1    1    2    0  502  0.78007554429E+02 -0.49303114277E+02 -0.26039730043E+03  0.32596277348E+03  0.17300000000E+03 0.  1.
<mgrwt>
<rscale>  2 0.19607390E+03</rscale>
<asrwt>0</asrwt>
<pdfrwt beam="1">  1       21 0.73685339E-02 0.19607390E+03</pdfrwt>
<pdfrwt beam="2">  1       21 0.14294616E+00 0.19607390E+03</pdfrwt>
<totfact> 0.46838030E+04</totfact>
</mgrwt>
</event>
<event>
 4    3  0.3905963E+000  0.1842573E+03  0.7546771E-02  0.1163745E+00
         21   -1    0    0  501  502  0.00000000000E+00  0.00000000000E+00  0.31122116006E+03  0.31122116006E+03  0.00000000000E+00 0.  1.
         21   -1    0    0  502  503 -0.00000000000E+00 -0.00000000000E+00 -0.11499725337E+03  0.11499725337E+03  0.00000000000E+00 0.  1.
          6    1    1    2  501    0 -0.44033474704E+02 -0.45637847840E+02  0.14641709477E+03  0.23534809472E+03  0.17300000000E+03 0. -1.
         -6    1    1    2    0  503  0.44033474704E+02  0.45637847840E+02  0.49806811918E+02  0.19087031871E+03  0.17300000000E+03 0. -1.
<mgrwt>
<rscale>  2 0.18425732E+03</rscale>
<asrwt>0</asrwt>
<pdfrwt beam="1">  1       21 0.47880178E-01 0.18425732E+03</pdfrwt>
<pdfrwt beam="2">  1       21 0.17691885E-01 0.18425732E+03</pdfrwt>
<totfact> 0.12121136E+05</totfact>
</mgrwt>
</event>
<event>
 4    3  0.3905963E+000  0.2015047E+03  0.7546771E-02  0.1148476E+00
         21   -1    0    0  501  502  0.00000000000E+00  0.00000000000E+00  0.25327069979E+03  0.25327069979E+03  0.00000000000E+00 0. -1.
         21   -1    0    0  502  503 -0.00000000000E+00 -0.00000000000E+00 -0.16042916958E+03  0.16042916958E+03  0.00000000000E+00 0. -1.
          6    1    1    2  501    0  0.13433204761E+02 -0.10244355811E+03  0.51838583767E+02  0.20806578853E+03  0.17300000000E+03 0. -1.
         -6    1    1    2    0  503 -0.13433204761E+02  0.10244355811E+03  0.41002946447E+02  0.20563408085E+03  0.17300000000E+03 0. -1.
<mgrwt>
<rscale>  2 0.20150467E+03</rscale>
<asrwt>0</asrwt>
<pdfrwt beam="1">  1       21 0.38964723E-01 0.20150467E+03</pdfrwt>
<pdfrwt beam="2">  1       21 0.24681411E-01 0.20150467E+03</pdfrwt>
<totfact> 0.98220585E+04</totfact>
</mgrwt>
</event>
<event>
 4    3  0.3905963E+000  0.2099261E+03  0.7546771E-02  0.1141624E+00
         21   -1    0    0  501  502  0.00000000000E+00  0.00000000000E+00  0.21238589593E+04  0.21238589593E+04  0.00000000000E+00 0.  1.
         21   -1    0    0  502  503 -0.00000000000E+00 -0.00000000000E+00 -0.20764930156E+02  0.20764930156E+02  0.00000000000E+00 0.  1.
          6    1    1    2  501    0  0.38902953375E+01 -0.11884800135E+03  0.10223029684E+04  0.10436341989E+04  0.17300000000E+03 0.  1.
         -6    1    1    2    0  503 -0.38902953375E+01  0.11884800135E+03  0.10807910607E+04  0.11009896905E+04  0.17300000000E+03 0.  1.
<mgrwt>
<rscale>  2 0.20992613E+03</rscale>
<asrwt>0</asrwt>
<pdfrwt beam="1">  1       21 0.32674736E+00 0.20992613E+03</pdfrwt>
<pdfrwt beam="2">  1       21 0.31946063E-02 0.20992613E+03</pdfrwt>
<totfact> 0.13388162E+04</totfact>
</mgrwt>
</event>
<event>
 4    3  0.3905963E+000  0.1971841E+03  0.7546771E-02  0.1152137E+00
         21   -1    0    0  501  502  0.00000000000E+00  0.00000000000E+00  0.11892071040E+04  0.11892071040E+04  0.00000000000E+00 0. -1.
         21   -1    0    0  502  503 -0.00000000000E+00 -0.00000000000E+00 -0.13392286025E+03  0.13392286025E+03  0.00000000000E+00 0. -1.
          6    1    1    2  501    0 -0.86641168199E+02 -0.38024440084E+02  0.11028097237E+04  0.11202994406E+04  0.17300000000E+03 0. -1.
         -6    1    1    2    0  503  0.86641168199E+02  0.38024440084E+02 -0.47525479916E+02  0.20283052362E+03  0.17300000000E+03 0. -1.
<mgrwt>
<rscale>  2 0.19718405E+03</rscale>
<asrwt>0</asrwt>
<pdfrwt beam="1">  1       21 0.18295493E+00 0.19718405E+03</pdfrwt>
<pdfrwt beam="2">  1       21 0.20603518E-01 0.19718405E+03</pdfrwt>
<totfact> 0.37782193E+03</totfact>
</mgrwt>
</event>
<event>
 4    3  0.3905963E+000  0.2124245E+03  0.7546771E-02  0.1139660E+00
         21   -1    0    0  501  502  0.00000000000E+00  0.00000000000E+00  0.38608802120E+02  0.38608802120E+02  0.00000000000E+00 0. -1.
         21   -1    0    0  502  503 -0.00000000000E+00 -0.00000000000E+00 -0.16129829600E+04  0.16129829600E+04  0.00000000000E+00 0.  1.
          6    1    1    2  501    0  0.91012538317E+02 -0.83137673699E+02 -0.35381420432E+03  0.41268468120E+03  0.17300000000E+03 0. -1.
         -6    1    1    2    0  503 -0.91012538317E+02  0.83137673699E+02 -0.12205599536E+04  0.12389070810E+04  0.17300000000E+03 0. -1.
<mgrwt>
<rscale>  2 0.21242447E+03</rscale>
<asrwt>0</asrwt>
<pdfrwt beam="1">  1       21 0.59398153E-02 0.21242447E+03</pdfrwt>
<pdfrwt beam="2">  1       21 0.24815124E+00 0.21242447E+03</pdfrwt>
<totfact> 0.13439942E+04</totfact>
</mgrwt>
</event>
<event>
 4    3  0.3905963E+000  0.2571194E+03  0.7546771E-02  0.1108886E+00
         21   -1    0    0  501  502  0.00000000000E+00  0.00000000000E+00  0.20192510329E+03  0.20192510329E+03  0.00000000000E+00 0. -1.
         21   -1    0    0  502  503 -0.00000000000E+00 -0.00000000000E+00 -0.32765322632E+03  0.32765322632E+03  0.00000000000E+00 0.  1.
          6    1    1    2  501    0 -0.13537507060E+03 -0.13362257038E+03 -0.55511686187E+02  0.26304362444E+03  0.17300000000E+03 0. -1.
         -6    1    1    2    0  503  0.13537507060E+03  0.13362257038E+03 -0.70216436842E+02  0.26653470517E+03  0.17300000000E+03 0.  1.
<mgrwt>
<rscale>  2 0.25711943E+03</rscale>
<asrwt>0</asrwt>
<pdfrwt beam="1">  1       21 0.31065401E-01 0.25711943E+03</pdfrwt>
<pdfrwt beam="2">  1       21 0.50408188E-01 0.25711943E+03</pdfrwt>
<totfact> 0.36171751E+04</totfact>
</mgrwt>
</event>
<event>
 4    3  0.3905963E+000  0.2151476E+03  0.7546771E-02  0.1137553E+00
         21   -1    0    0  503  502  0.00000000000E+00  0.00000000000E+00  0.39516664246E+03  0.39516664246E+03  0.00000000000E+00 0. -1.
         21   -1    0    0  501  503 -0.00000000000E+00 -0.00000000000E+00 -0.11821515891E+03  0.11821515891E+03  0.00000000000E+00 0. -1.
          6    1    1    2  501    0 -0.10351512946E+03  0.75127220111E+02  0.11395725662E+03  0.24346403752E+03  0.17300000000E+03 0. -1.
         -6    1    1    2    0  502  0.10351512946E+03 -0.75127220111E+02  0.16299422693E+03  0.26991776385E+03  0.17300000000E+03 0. -1.
<mgrwt>
<rscale>  2 0.21514758E+03</rscale>
<asrwt>0</asrwt>
<pdfrwt beam="1">  1       21 0.60794868E-01 0.21514758E+03</pdfrwt>
<pdfrwt beam="2">  1       21 0.18186948E-01 0.21514758E+03</pdfrwt>
<totfact> 0.68690572E+04</totfact>
</mgrwt>
</event>
<event>
 4    3  0.3905963E+000  0.1826629E+03  0.7546771E-02  0.1165251E+00
         21   -1    0    0  501  502  0.00000000000E+00  0.00000000000E+00  0.54684167018E+03  0.54684167018E+03  0.00000000000E+00 0. -1.
         21   -1    0    0  502  503 -0.00000000000E+00 -0.00000000000E+00 -0.65435177840E+02  0.65435177840E+02  0.00000000000E+00 0. -1.
          6    1    1    2  501    0 -0.49321486019E+02 -0.31687722819E+02  0.32026717778E+03  0.36869606172E+03  0.17300000000E+03 0. -1.
         -6    1    1    2    0  503  0.49321486019E+02  0.31687722819E+02  0.16113931456E+03  0.24358078631E+03  0.17300000000E+03 0. -1.
<mgrwt>
<rscale>  2 0.18266286E+03</rscale>
<asrwt>0</asrwt>
<pdfrwt beam="1">  1       21 0.84129484E-01 0.18266286E+03</pdfrwt>
<pdfrwt beam="2">  1       21 0.10066951E-01 0.18266286E+03</pdfrwt>
<totfact> 0.98771397E+04</totfact>
</mgrwt>
</event>
<event>
 4    3  0.3905963E+000  0.2137616E+03  0.7546771E-02  0.1138621E+00
         21   -1    0    0  503  502  0.00000000000E+00  0.00000000000E+00  0.62148920235E+03  0.62148920235E+03  0.00000000000E+00 0. -1.
         21   -1    0    0  501  503 -0.00000000000E+00 -0.00000000000E+00 -0.12236015740E+03  0.12236015740E+03  0.00000000000E+00 0.  1.
          6    1    1    2  501    0  0.77582159755E+02  0.98722042558E+02  0.14596830173E+02  0.21425942371E+03  0.17300000000E+03 0.  1.
         -6    1    1    2    0  502 -0.77582159755E+02 -0.98722042558E+02  0.48453221478E+03  0.52958993604E+03  0.17300000000E+03 0. -1.
<mgrwt>
<rscale>  2 0.21376163E+03</rscale>
<asrwt>0</asrwt>
<pdfrwt beam="1">  1       21 0.95613722E-01 0.21376163E+03</pdfrwt>
<pdfrwt beam="2">  1       21 0.18824640E-01 0.21376163E+03</pdfrwt>
<totfact> 0.23286729E+04</totfact>
</mgrwt>
</event>
<event>
 4    3  0.3905963E+000  0.1865717E+03  0.7546771E-02  0.1161590E+00
         21   -1    0    0  501  502  0.00000000000E+00  0.00000000000E+00  0.99356953141E+02  0.99356953141E+02  0.00000000000E+00 0.  1.
         21   -1    0    0  502  503 -0.00000000000E+00 -0.00000000000E+00 -0.57293265094E+03  0.57293265094E+03  0.00000000000E+00 0.  1.
          6    1    1    2  501    0  0.43801898772E+02 -0.54418781374E+02 -0.27267057207E+02  0.18855371254E+03  0.17300000000E+03 0.  1.
         -6    1    1    2    0  503 -0.43801898772E+02  0.54418781374E+02 -0.44630864059E+03  0.48373589155E+03  0.17300000000E+03 0.  1.
<mgrwt>
<rscale>  2 0.18657173E+03</rscale>
<asrwt>0</asrwt>
<pdfrwt beam="1">  1       21 0.15285685E-01 0.18657173E+03</pdfrwt>
<pdfrwt beam="2">  1       21 0.88143486E-01 0.18657173E+03</pdfrwt>
<totfact> 0.41913167E+04</totfact>
</mgrwt>
</event>
<event>
 4    3  0.3905963E+000  0.2092507E+03  0.7546771E-02  0.1142161E+00
         21   -1    0    0  501  502  0.00000000000E+00  0.00000000000E+00  0.20626364534E+03  0.20626364534E+03  0.00000000000E+00 0. -1.
         21   -1    0    0  502  503 -0.00000000000E+00 -0.00000000000E+00 -0.35558731026E+03  0.35558731026E+03  0.00000000000E+00 0.  1.
          6    1    1    2  501    0 -0.94216759691E+02  0.70569447766E+02  0.10367897065E+03  0.23352767228E+03  0.17300000000E+03 0.  1.
         -6    1    1    2    0  503  0.94216759691E+02 -0.70569447766E+02 -0.25300263557E+03  0.32832328332E+03  0.17300000000E+03 0. -1.
<mgrwt>
<rscale>  2 0.20925067E+03</rscale>
<asrwt>0</asrwt>
<pdfrwt beam="1">  1       21 0.31732869E-01 0.20925067E+03</pdfrwt>
<pdfrwt beam="2">  1       21 0.54705740E-01 0.20925067E+03</pdfrwt>
<totfact> 0.29849604E+04</totfact>
</mgrwt>
</event>
<event>
 4    3  0.3905963E+000  0.2044698E+03  0.7546771E-02  0.1146022E+00
         21   -1    0    0  503  502  0.00000000000E+00  0.00000000000E+00  0.31713119353E+03  0.31713119353E+03  0.00000000000E+00 0. -1.
         21   -1    0    0  501  503 -0.00000000000E+00 -0.00000000000E+00 -0.14948852348E+03  0.14948852348E+03  0.00000000000E+00 0.  1.
          6    1    1    2  501    0  0.22326451394E+01  0.10896744402E+03  0.36373537675E+01  0.20450212444E+03  0.17300000000E+03 0. -1.
         -6    1    1    2    0  502 -0.22326451394E+01 -0.10896744402E+03  0.16400531629E+03  0.26211759256E+03  0.17300000000E+03 0.  1.
<mgrwt>
<rscale>  2 0.20446977E+03</rscale>
<asrwt>0</asrwt>
<pdfrwt beam="1">  1       21 0.48789414E-01 0.20446977E+03</pdfrwt>
<pdfrwt beam="2">  1       21 0.22998234E-01 0.20446977E+03</pdfrwt>
<totfact> 0.70804764E+04</totfact>
</mgrwt>
</event>
<event>
 4    3  0.3905963E+000  0.2190971E+03  0.7546771E-02  0.1134558E+00
         21   -1    0    0  501  502  0.00000000000E+00  0.00000000000E+00  0.29494473669E+03  0.29494473669E+03  0.00000000000E+00 0. -1.
         21   -1    0    0  502  503 -0.00000000000E+00 -0.00000000000E+00 -0.19515432528E+03  0.19515432528E+03  0.00000000000E+00 0.  1.
          6    1    1    2  501    0  0.23271117183E+02 -0.13241216986E+03  0.14974274835E+03  0.26537976243E+03  0.17300000000E+03 0.  1.
         -6    1    1    2    0  503 -0.23271117183E+02  0.13241216986E+03 -0.49952336937E+02  0.22471929954E+03  0.17300000000E+03 0. -1.
<mgrwt>
<rscale>  2 0.21909707E+03</rscale>
<asrwt>0</asrwt>
<pdfrwt beam="1">  1       21 0.45376113E-01 0.21909707E+03</pdfrwt>
<pdfrwt beam="2">  1       21 0.30023742E-01 0.21909707E+03</pdfrwt>
<totfact> 0.48941897E+04</totfact>
</mgrwt>
</event>
<event>
 4    3  0.3905963E+000  0.1925328E+03  0.7546771E-02  0.1156197E+00
         21   -1    0    0  503  502  0.00000000000E+00  0.00000000000E+00  0.15181234962E+03  0.15181234962E+03  0.00000000000E+00 0.  1.
         21   -1    0    0  501  503 -0.00000000000E+00 -0.00000000000E+00 -0.24449392503E+03  0.24449392503E+03  0.00000000000E+00 0. -1.
          6    1    1    2  501    0 -0.45810550982E+02  0.71001820298E+02 -0.53491206260E+02  0.19982535929E+03  0.17300000000E+03 0. -1.
         -6    1    1    2    0  502  0.45810550982E+02 -0.71001820298E+02 -0.39190369144E+02  0.19648091536E+03  0.17300000000E+03 0. -1.
<mgrwt>
<rscale>  2 0.19253276E+03</rscale>
<asrwt>0</asrwt>
<pdfrwt beam="1">  1       21 0.23355746E-01 0.19253276E+03</pdfrwt>
<pdfrwt beam="2">  1       21 0.37614450E-01 0.19253276E+03</pdfrwt>
<totfact> 0.11752737E+05</totfact>
</mgrwt>
</event>
<event>
 4    3  0.3905963E+000  0.2028766E+03  0.7546771E-02  0.1147334E+00
         21   -1    0    0  501  502  0.00000000000E+00  0.00000000000E+00  0.26288424666E+03  0.26288424666E+03  0.00000000000E+00 0.  1.
         21   -1    0    0  502  503 -0.00000000000E+00 -0.00000000000E+00 -0.21217212285E+03  0.21217212285E+03  0.00000000000E+00 0. -1.
          6    1    1    2  501    0 -0.10039731929E+03  0.33915771565E+02  0.14695501215E+03  0.25050883593E+03  0.17300000000E+03 0.  1.
         -6    1    1    2    0  503  0.10039731929E+03 -0.33915771565E+02 -0.96242888343E+02  0.22454753358E+03  0.17300000000E+03 0. -1.
<mgrwt>
<rscale>  2 0.20287657E+03</rscale>
<asrwt>0</asrwt>
<pdfrwt beam="1">  1       21 0.40443730E-01 0.20287657E+03</pdfrwt>
<pdfrwt beam="2">  1       21 0.32641865E-01 0.20287657E+03</pdfrwt>
<totfact> 0.52947261E+04</totfact>
</mgrwt>
</event>
<event>
 4    3  0.3905963E+000  0.2802645E+03  0.7546771E-02  0.1095545E+00
         21   -1    0    0  503  502  0.00000000000E+00  0.00000000000E+00  0.53616510742E+03  0.53616510742E+03  0.00000000000E+00 0. -1.
         21   -1    0    0  501  503 -0.00000000000E+00 -0.00000000000E+00 -0.17881282579E+03  0.17881282579E+03  0.00000000000E+00 0. -1.
          6    1    1    2  501    0 -0.15879628323E+03  0.15298015000E+03  0.26708609466E+02  0.28153425312E+03  0.17300000000E+03 0. -1.
         -6    1    1    2    0  502  0.15879628323E+03 -0.15298015000E+03  0.33064367216E+03  0.43344368008E+03  0.17300000000E+03 0. -1.
<mgrwt>
<rscale>  2 0.28026449E+03</rscale>
<asrwt>0</asrwt>
<pdfrwt beam="1">  1       21 0.82486939E-01 0.28026449E+03</pdfrwt>
<pdfrwt beam="2">  1       21 0.27509666E-01 0.28026449E+03</pdfrwt>
<totfact> 0.15419558E+04</totfact>
</mgrwt>
</event>
<event>
 4    3  0.3905963E+000  0.2644698E+03  0.7546771E-02  0.1104487E+00
         21   -1    0    0  503  502  0.00000000000E+00  0.00000000000E+00  0.26118105541E+03  0.26118105541E+03  0.00000000000E+00 0.  1.
         21   -1    0    0  501  503 -0.00000000000E+00 -0.00000000000E+00 -0.33672901751E+03  0.33672901751E+03  0.00000000000E+00 0. -1.
          6    1    1    2  501    0  0.13190405018E+03 -0.15038813219E+03 -0.17303319603E+03  0.31604549623E+03  0.17300000000E+03 0. -1.
         -6    1    1    2    0  502 -0.13190405018E+03  0.15038813219E+03  0.97485233929E+02  0.28186457669E+03  0.17300000000E+03 0.  1.
<mgrwt>
<rscale>  2 0.26446979E+03</rscale>
<asrwt>0</asrwt>
<pdfrwt beam="1">  1       21 0.40181701E-01 0.26446979E+03</pdfrwt>
<pdfrwt beam="2">  1       21 0.51804464E-01 0.26446979E+03</pdfrwt>
<totfact> 0.20334075E+04</totfact>
</mgrwt>
</event>
<event>
 4    3  0.3905963E+000  0.2940224E+03  0.7546771E-02  0.1088268E+00
         21   -1    0    0  501  502  0.00000000000E+00  0.00000000000E+00  0.55017926790E+03  0.55017926790E+03  0.00000000000E+00 0.  1.
         21   -1    0    0  502  503 -0.00000000000E+00 -0.00000000000E+00 -0.10953258356E+04  0.10953258356E+04  0.00000000000E+00 0.  1.
          6    1    1    2  501    0  0.13093751747E+03 -0.19843266458E+03  0.48888223415E+03  0.57048662974E+03  0.17300000000E+03 0.  1.
         -6    1    1    2    0  503 -0.13093751747E+03  0.19843266458E+03 -0.10340288018E+04  0.10750184737E+04  0.17300000000E+03 0.  1.
<mgrwt>
<rscale>  2 0.29402237E+03</rscale>
<asrwt>0</asrwt>
<pdfrwt beam="1">  1       21 0.84642964E-01 0.29402237E+03</pdfrwt>
<pdfrwt beam="2">  1       21 0.16851167E+00 0.29402237E+03</pdfrwt>
<totfact> 0.23847351E+02</totfact>
</mgrwt>
</event>
<event>
 4    3  0.3905963E+000  0.2388514E+03  0.7546771E-02  0.1120560E+00
         21   -1    0    0  503  502  0.00000000000E+00  0.00000000000E+00  0.13024302324E+04  0.13024302324E+04  0.00000000000E+00 0.  1.
         21   -1    0    0  501  503 -0.00000000000E+00 -0.00000000000E+00 -0.57354861737E+02  0.57354861737E+02  0.00000000000E+00 0. -1.
          6    1    1    2  501    0  0.15314737977E+03  0.60554521923E+02  0.29204691504E+03  0.37728155354E+03  0.17300000000E+03 0. -1.
         -6    1    1    2    0  502 -0.15314737977E+03 -0.60554521923E+02  0.95302845558E+03  0.98250354055E+03  0.17300000000E+03 0.  1.
<mgrwt>
<rscale>  2 0.23885136E+03</rscale>
<asrwt>0</asrwt>
<pdfrwt beam="1">  1       21 0.20037386E+00 0.23885136E+03</pdfrwt>
<pdfrwt beam="2">  1       21 0.88238259E-02 0.23885136E+03</pdfrwt>
<totfact> 0.13043696E+04</totfact>
</mgrwt>
</event>
<event>
 4    3  0.3905963E+000  0.1957201E+03  0.7546771E-02  0.1153401E+00
         21   -1    0    0  503  502  0.00000000000E+00  0.00000000000E+00  0.63238735583E+03  0.63238735583E+03  0.00000000000E+00 0.  1.
         21   -1    0    0  501  503 -0.00000000000E+00 -0.00000000000E+00 -0.87386012573E+02  0.87386012573E+02  0.00000000000E+00 0. -1.
          6    1    1    2  501    0  0.59339058579E+02 -0.69686782016E+02  0.73154576115E+02  0.20894488141E+03  0.17300000000E+03 0. -1.
         -6    1    1    2    0  502 -0.59339058579E+02  0.69686782016E+02  0.47184676714E+03  0.51082848699E+03  0.17300000000E+03 0.  1.
<mgrwt>
<rscale>  2 0.19572014E+03</rscale>
<asrwt>0</asrwt>
<pdfrwt beam="1">  1       21 0.97290359E-01 0.19572014E+03</pdfrwt>
<pdfrwt beam="2">  1       21 0.13444002E-01 0.19572014E+03</pdfrwt>
<totfact> 0.41843122E+04</totfact>
</mgrwt>
</event>
<event>
 4    3  0.3905963E+000  0.1999988E+03  0.7546771E-02  0.1149740E+00
         21   -1    0    0  503  502  0.00000000000E+00  0.00000000000E+00  0.39795211008E+03  0.39795211008E+03  0.00000000000E+00 0. -1.
         21   -1    0    0  501  503 -0.00000000000E+00 -0.00000000000E+00 -0.10282491356E+03  0.10282491356E+03  0.00000000000E+00 0.  1.
          6    1    1    2  501    0  0.97539694295E+01 -0.99876761808E+02  0.11002169260E+03  0.22826362021E+03  0.17300000000E+03 0. -1.
         -6    1    1    2    0  502 -0.97539694295E+01  0.99876761808E+02  0.18510550393E+03  0.27251340344E+03  0.17300000000E+03 0.  1.
<mgrwt>
<rscale>  2 0.19999877E+03</rscale>
<asrwt>0</asrwt>
<pdfrwt beam="1">  1       21 0.61223401E-01 0.19999877E+03</pdfrwt>
<pdfrwt beam="2">  1       21 0.15819218E-01 0.19999877E+03</pdfrwt>
<totfact> 0.88054456E+04</totfact>
</mgrwt>
</event>
<event>
 4    3  0.3905963E+000  0.4278865E+03  0.7546771E-02  0.1034530E+00
         21   -1    0    0  503  502  0.00000000000E+00  0.00000000000E+00  0.24316585325E+03  0.24316585325E+03  0.00000000000E+00 0.  1.
         21   -1    0    0  501  503 -0.00000000000E+00 -0.00000000000E+00 -0.92471440952E+03  0.92471440952E+03  0.00000000000E+00 0.  1.
          6    1    1    2  501    0  0.38622411172E+03  0.63157069755E+02 -0.59245868572E+03  0.73081746984E+03  0.17300000000E+03 0.  1.
         -6    1    1    2    0  502 -0.38622411172E+03 -0.63157069755E+02 -0.89089870554E+02  0.43706279294E+03  0.17300000000E+03 0.  1.
<mgrwt>
<rscale>  2 0.42788653E+03</rscale>
<asrwt>0</asrwt>
<pdfrwt beam="1">  1       21 0.37410131E-01 0.42788653E+03</pdfrwt>
<pdfrwt beam="2">  1       21 0.14226376E+00 0.42788653E+03</pdfrwt>
<totfact> 0.20470144E+03</totfact>
</mgrwt>
</event>
<event>
 4    3  0.3905963E+000  0.1876501E+03  0.7546771E-02  0.1160598E+00
         21   -1    0    0  503  502  0.00000000000E+00  0.00000000000E+00  0.26401643734E+02  0.26401643734E+02  0.00000000000E+00 0. -1.
         21   -1    0    0  501  503 -0.00000000000E+00 -0.00000000000E+00 -0.16733940422E+04  0.16733940422E+04  0.00000000000E+00 0. -1.
          6    1    1    2  501    0  0.44237483548E+02 -0.57676585267E+02 -0.12064049848E+04  0.12209117621E+04  0.17300000000E+03 0. -1.
         -6    1    1    2    0  502 -0.44237483548E+02  0.57676585267E+02 -0.44058741360E+03  0.47888392379E+03  0.17300000000E+03 0. -1.
<mgrwt>
<rscale>  2 0.18765006E+03</rscale>
<asrwt>0</asrwt>
<pdfrwt beam="1">  1       21 0.40617904E-02 0.18765006E+03</pdfrwt>
<pdfrwt beam="2">  1       21 0.25744530E+00 0.18765006E+03</pdfrwt>
<totfact> 0.23068598E+04</totfact>
</mgrwt>
</event>
<event>
 4    3  0.3905963E+000  0.1856817E+03  0.7546771E-02  0.1162415E+00
         21   -1    0    0  501  502  0.00000000000E+00  0.00000000000E+00  0.18162458275E+03  0.18162458275E+03  0.00000000000E+00 0.  1.
         21   -1    0    0  502  503 -0.00000000000E+00 -0.00000000000E+00 -0.35370005436E+03  0.35370005436E+03  0.00000000000E+00 0.  1.
          6    1    1    2  501    0  0.64294407578E+02  0.20369661382E+02  0.96150447442E+02  0.20909950381E+03  0.17300000000E+03 0.  1.
         -6    1    1    2    0  503 -0.64294407578E+02 -0.20369661382E+02 -0.26822591905E+03  0.32622513330E+03  0.17300000000E+03 0.  1.
<mgrwt>
<rscale>  2 0.18568170E+03</rscale>
<asrwt>0</asrwt>
<pdfrwt beam="1">  1       21 0.27942244E-01 0.18568170E+03</pdfrwt>
<pdfrwt beam="2">  1       21 0.54415393E-01 0.18568170E+03</pdfrwt>
<totfact> 0.39163054E+04</totfact>
</mgrwt>
</event>
<event>
 4    3  0.3905963E+000  0.2183809E+03  0.7546771E-02  0.1135096E+00
         21   -1    0    0  501  502  0.00000000000E+00  0.00000000000E+00  0.65432203860E+02  0.65432203860E+02  0.00000000000E+00 0.  1.
         21   -1    0    0  502  503 -0.00000000000E+00 -0.00000000000E+00 -0.78504076932E+03  0.78504076932E+03  0.00000000000E+00 0.  1.
          6    1    1    2  501    0 -0.11450649008E+03 -0.68187227826E+02 -0.24603670087E+03  0.32897460766E+03  0.17300000000E+03 0.  1.
         -6    1    1    2    0  503  0.11450649008E+03  0.68187227826E+02 -0.47357186459E+03  0.52149836552E+03  0.17300000000E+03 0.  1.
<mgrwt>
<rscale>  2 0.21838094E+03</rscale>
<asrwt>0</asrwt>
<pdfrwt beam="1">  1       21 0.10066493E-01 0.21838094E+03</pdfrwt>
<pdfrwt beam="2">  1       21 0.12077550E+00 0.21838094E+03</pdfrwt>
<totfact> 0.41106480E+04</totfact>
</mgrwt>
</event>
<event>
 4    3  0.3905963E+000  0.1906983E+03  0.7546771E-02  0.1157833E+00
         21   -1    0    0  501  502  0.00000000000E+00  0.00000000000E+00  0.57731028689E+02  0.57731028689E+02  0.00000000000E+00 0.  1.
         21   -1    0    0  502  503 -0.00000000000E+00 -0.00000000000E+00 -0.11359126238E+04  0.11359126238E+04  0.00000000000E+00 0.  1.
          6    1    1    2  501    0 -0.20369595674E+02  0.77601058679E+02 -0.14075901668E+03  0.23702098117E+03  0.17300000000E+03 0.  1.
         -6    1    1    2    0  503  0.20369595674E+02 -0.77601058679E+02 -0.93742257841E+03  0.95662267130E+03  0.17300000000E+03 0.  1.
<mgrwt>
<rscale>  2 0.19069831E+03</rscale>
<asrwt>0</asrwt>
<pdfrwt beam="1">  1       21 0.88816971E-02 0.19069831E+03</pdfrwt>
<pdfrwt beam="2">  1       21 0.17475578E+00 0.19069831E+03</pdfrwt>
<totfact> 0.19792289E+04</totfact>
</mgrwt>
</event>
<event>
 4    3  0.3905963E+000  0.1810967E+03  0.7546771E-02  0.1166746E+00
         21   -1    0    0  503  502  0.00000000000E+00  0.00000000000E+00  0.26471166568E+03  0.26471166568E+03  0.00000000000E+00 0.  1.
         21   -1    0    0  501  503 -0.00000000000E+00 -0.00000000000E+00 -0.16969166491E+03  0.16969166491E+03  0.00000000000E+00 0.  1.
          6    1    1    2  501    0  0.46395028422E+02  0.26730136905E+02  0.16034866409E+03  0.24188363516E+03  0.17300000000E+03 0.  1.
         -6    1    1    2    0  502 -0.46395028422E+02 -0.26730136905E+02 -0.65328663317E+02  0.19251969544E+03  0.17300000000E+03 0.  1.
<mgrwt>
<rscale>  2 0.18109666E+03</rscale>
<asrwt>0</asrwt>
<pdfrwt beam="1">  1       21 0.40724872E-01 0.18109666E+03</pdfrwt>
<pdfrwt beam="2">  1       21 0.26106410E-01 0.18109666E+03</pdfrwt>
<totfact> 0.81363129E+04</totfact>
</mgrwt>
</event>
<event>
 4    3  0.3905963E+000  0.1874972E+03  0.7546771E-02  0.1160738E+00
         21   -1    0    0  503  502  0.00000000000E+00  0.00000000000E+00  0.10493093296E+04  0.10493093296E+04  0.00000000000E+00 0. -1.
         21   -1    0    0  501  503 -0.00000000000E+00 -0.00000000000E+00 -0.22383808390E+03  0.22383808390E+03  0.00000000000E+00 0. -1.
          6    1    1    2  501    0 -0.68412427787E+02 -0.23365565922E+02 -0.17426817854E+03  0.25597774903E+03  0.17300000000E+03 0. -1.
         -6    1    1    2    0  502  0.68412427787E+02  0.23365565922E+02  0.99973942425E+03  0.10171696645E+04  0.17300000000E+03 0. -1.
<mgrwt>
<rscale>  2 0.18749723E+03</rscale>
<asrwt>0</asrwt>
<pdfrwt beam="1">  1       21 0.16143220E+00 0.18749723E+03</pdfrwt>
<pdfrwt beam="2">  1       21 0.34436629E-01 0.18749723E+03</pdfrwt>
<totfact> 0.20069993E+03</totfact>
</mgrwt>
</event>
<event>
 4    3  0.3905963E+000  0.1860954E+03  0.7546771E-02  0.1162031E+00
         21   -1    0    0  503  502  0.00000000000E+00  0.00000000000E+00  0.99803600399E+03  0.99803600399E+03  0.00000000000E+00 0. -1.
         21   -1    0    0  501  503 -0.00000000000E+00 -0.00000000000E+00 -0.42400561507E+02  0.42400561507E+02  0.00000000000E+00 0. -1.
          6    1    1    2  501    0  0.65324962048E+02  0.20860168739E+02  0.25611503746E+03  0.31658554882E+03  0.17300000000E+03 0. -1.
         -6    1    1    2    0  502 -0.65324962048E+02 -0.20860168739E+02  0.69952040502E+03  0.72385101668E+03  0.17300000000E+03 0. -1.
<mgrwt>
<rscale>  2 0.18609540E+03</rscale>
<asrwt>0</asrwt>
<pdfrwt beam="1">  1       21 0.15354398E+00 0.18609540E+03</pdfrwt>
<pdfrwt beam="2">  1       21 0.65231641E-02 0.18609540E+03</pdfrwt>
<totfact> 0.48185821E+04</totfact>
</mgrwt>
</event>
<event>
 4    3  0.3905963E+000  0.1925390E+03  0.7546771E-02  0.1156191E+00
         21   -1    0    0  501  502  0.00000000000E+00  0.00000000000E+00  0.93924800631E+03  0.93924800631E+03  0.00000000000E+00 0.  1.
         21   -1    0    0  502  503 -0.00000000000E+00 -0.00000000000E+00 -0.47601950285E+02  0.47601950285E+02  0.00000000000E+00 0.  1.
          6    1    1    2  501    0 -0.80708713993E+02  0.25067321756E+02  0.64977613554E+03  0.67770221591E+03  0.17300000000E+03 0.  1.
         -6    1    1    2    0  503  0.80708713993E+02 -0.25067321756E+02  0.24186992048E+03  0.30914774068E+03  0.17300000000E+03 0.  1.
<mgrwt>
<rscale>  2 0.19253900E+03</rscale>
<asrwt>0</asrwt>
<pdfrwt beam="1">  1       21 0.14449968E+00 0.19253900E+03</pdfrwt>
<pdfrwt beam="2">  1       21 0.73233777E-02 0.19253900E+03</pdfrwt>
<totfact> 0.46119821E+04</totfact>
</mgrwt>
</event>
<event>
 4    3  0.3905963E+000  0.1731822E+03  0.7546771E-02  0.1174569E+00
         21   -1    0    0  501  502  0.00000000000E+00  0.00000000000E+00  0.23673599385E+02  0.23673599385E+02  0.00000000000E+00 0. -1.
         21   -1    0    0  502  503 -0.00000000000E+00 -0.00000000000E+00 -0.12693503976E+04  0.12693503976E+04  0.00000000000E+00 0. -1.
          6    1    1    2  501    0  0.25773606230E+01  0.75126071582E+01 -0.59443254320E+03  0.61914629166E+03  0.17300000000E+03 0. -1.
         -6    1    1    2    0  503 -0.25773606230E+01 -0.75126071582E+01 -0.65124425504E+03  0.67387770536E+03  0.17300000000E+03 0. -1.
<mgrwt>
<rscale>  2 0.17318222E+03</rscale>
<asrwt>0</asrwt>
<pdfrwt beam="1">  1       21 0.36420915E-02 0.17318222E+03</pdfrwt>
<pdfrwt beam="2">  1       21 0.19528472E+00 0.17318222E+03</pdfrwt>
<totfact> 0.66823327E+04</totfact>
</mgrwt>
</event>
<event>
 4    3  0.3905963E+000  0.1752994E+03  0.7546771E-02  0.1172431E+00
         21   -1    0    0  501  502  0.00000000000E+00  0.00000000000E+00  0.14761451617E+04  0.14761451617E+04  0.00000000000E+00 0. -1.
         21   -1    0    0  502  503 -0.00000000000E+00 -0.00000000000E+00 -0.49292209510E+02  0.49292209510E+02  0.00000000000E+00 0. -1.
          6    1    1    2  501    0 -0.16293597887E+02  0.23139006988E+02  0.12931269277E+04  0.13049548445E+04  0.17300000000E+03 0. -1.
         -6    1    1    2    0  503  0.16293597887E+02 -0.23139006988E+02  0.13372602453E+03  0.22048252677E+03  0.17300000000E+03 0. -1.
<mgrwt>
<rscale>  2 0.17529944E+03</rscale>
<asrwt>0</asrwt>
<pdfrwt beam="1">  1       21 0.22709922E+00 0.17529944E+03</pdfrwt>
<pdfrwt beam="2">  1       21 0.75834180E-02 0.17529944E+03</pdfrwt>
<totfact> 0.12181677E+04</totfact>
</mgrwt>
</event>
<event>
 4    3  0.3905963E+000  0.2332359E+03  0.7546771E-02  0.1124383E+00
         21   -1    0    0  503  502  0.00000000000E+00  0.00000000000E+00  0.22056316197E+03  0.22056316197E+03  0.00000000000E+00 0.  1.
         21   -1    0    0  501  503 -0.00000000000E+00 -0.00000000000E+00 -0.41191871149E+03  0.41191871149E+03  0.00000000000E+00 0.  1.
          6    1    1    2  501    0  0.13441291212E+03 -0.80019654632E+02 -0.29599813321E+03  0.37684727800E+03  0.17300000000E+03 0.  1.
         -6    1    1    2    0  502 -0.13441291212E+03  0.80019654632E+02  0.10464258369E+03  0.25563459546E+03  0.17300000000E+03 0.  1.
<mgrwt>
<rscale>  2 0.23323588E+03</rscale>
<asrwt>0</asrwt>
<pdfrwt beam="1">  1       21 0.33932795E-01 0.23323588E+03</pdfrwt>
<pdfrwt beam="2">  1       21 0.63372109E-01 0.23323588E+03</pdfrwt>
<totfact> 0.18824334E+04</totfact>
</mgrwt>
</event>
<event>
 4    3  0.3905963E+000  0.1763307E+03  0.7546771E-02  0.1171402E+00
         21   -1    0    0  501  502  0.00000000000E+00  0.00000000000E+00  0.51080789763E+02  0.51080789763E+02  0.00000000000E+00 0. -1.
         21   -1    0    0  502  503 -0.00000000000E+00 -0.00000000000E+00 -0.70111307484E+03  0.70111307484E+03  0.00000000000E+00 0. -1.
          6    1    1    2  501    0 -0.21087239681E+02  0.26811500958E+02 -0.18846715090E+03  0.25809377216E+03  0.17300000000E+03 0. -1.
         -6    1    1    2    0  503  0.21087239681E+02 -0.26811500958E+02 -0.46156513418E+03  0.49410009244E+03  0.17300000000E+03 0. -1.
<mgrwt>
<rscale>  2 0.17633074E+03</rscale>
<asrwt>0</asrwt>
<pdfrwt beam="1">  1       21 0.78585836E-02 0.17633074E+03</pdfrwt>
<pdfrwt beam="2">  1       21 0.10786354E+00 0.17633074E+03</pdfrwt>
<totfact> 0.85381658E+04</totfact>
</mgrwt>
</event>
<event>
 4    3  0.3905963E+000  0.2382829E+03  0.7546771E-02  0.1120942E+00
         21   -1    0    0  501  502  0.00000000000E+00  0.00000000000E+00  0.24834842380E+03  0.24834842380E+03  0.00000000000E+00 0.  1.
         21   -1    0    0  502  503 -0.00000000000E+00 -0.00000000000E+00 -0.23168660013E+03  0.23168660013E+03  0.00000000000E+00 0. -1.
          6    1    1    2  501    0 -0.16256159047E+03  0.20578720777E+02 -0.19258298591E+02  0.23905990151E+03  0.17300000000E+03 0. -1.
         -6    1    1    2    0  503  0.16256159047E+03 -0.20578720777E+02  0.35920122257E+02  0.24097512242E+03  0.17300000000E+03 0. -1.
<mgrwt>
<rscale>  2 0.23828293E+03</rscale>
<asrwt>0</asrwt>
<pdfrwt beam="1">  1       21 0.38207450E-01 0.23828293E+03</pdfrwt>
<pdfrwt beam="2">  1       21 0.35644092E-01 0.23828293E+03</pdfrwt>
<totfact> 0.49101173E+04</totfact>
</mgrwt>
</event>
<event>
 4    3  0.3905963E+000  0.2328670E+03  0.7546771E-02  0.1124638E+00
         21   -1    0    0  501  502  0.00000000000E+00  0.00000000000E+00  0.37728426271E+03  0.37728426271E+03  0.00000000000E+00 0.  1.
         21   -1    0    0  502  503 -0.00000000000E+00 -0.00000000000E+00 -0.15415245463E+03  0.15415245463E+03  0.00000000000E+00 0. -1.
          6    1    1    2  501    0 -0.10024403873E+03 -0.11936983088E+03  0.18065885380E+03  0.29472808702E+03  0.17300000000E+03 0.  1.
         -6    1    1    2    0  503  0.10024403873E+03  0.11936983088E+03  0.42472954280E+02  0.23670863032E+03  0.17300000000E+03 0. -1.
<mgrwt>
<rscale>  2 0.23286697E+03</rscale>
<asrwt>0</asrwt>
<pdfrwt beam="1">  1       21 0.58043732E-01 0.23286697E+03</pdfrwt>
<pdfrwt beam="2">  1       21 0.23715762E-01 0.23286697E+03</pdfrwt>
<totfact> 0.45706596E+04</totfact>
</mgrwt>
</event>
<event>
 4    3  0.3905963E+000  0.2151474E+03  0.7546771E-02  0.1137553E+00
         21   -1    0    0  501  502  0.00000000000E+00  0.00000000000E+00  0.16903350210E+03  0.16903350210E+03  0.00000000000E+00 0. -1.
         21   -1    0    0  502  503 -0.00000000000E+00 -0.00000000000E+00 -0.27389211409E+03  0.27389211409E+03  0.00000000000E+00 0. -1.
          6    1    1    2  501    0  0.47734752516E+02  0.11866252255E+03 -0.55437558174E+02  0.22217498444E+03  0.17300000000E+03 0. -1.
         -6    1    1    2    0  503 -0.47734752516E+02 -0.11866252255E+03 -0.49421053817E+02  0.22075063175E+03  0.17300000000E+03 0. -1.
<mgrwt>
<rscale>  2 0.21514739E+03</rscale>
<asrwt>0</asrwt>
<pdfrwt beam="1">  1       21 0.26005155E-01 0.21514739E+03</pdfrwt>
<pdfrwt beam="2">  1       21 0.42137247E-01 0.21514739E+03</pdfrwt>
<totfact> 0.75402243E+04</totfact>
</mgrwt>
</event>
<event>
 4    3  0.3905963E+000  0.2690403E+03  0.7546771E-02  0.1101830E+00
         21   -1    0    0  501  502  0.00000000000E+00  0.00000000000E+00  0.11237095976E+04  0.11237095976E+04  0.00000000000E+00 0.  1.
         21   -1    0    0  502  503 -0.00000000000E+00 -0.00000000000E+00 -0.12116457218E+03  0.12116457218E+03  0.00000000000E+00 0. -1.
          6    1    1    2  501    0  0.40955025655E+02 -0.20193165021E+03  0.92725573931E+03  0.96549775327E+03  0.17300000000E+03 0.  1.
         -6    1    1    2    0  503 -0.40955025655E+02  0.20193165021E+03  0.75289286061E+02  0.27937641647E+03  0.17300000000E+03 0. -1.
<mgrwt>
<rscale>  2 0.26904034E+03</rscale>
<asrwt>0</asrwt>
<pdfrwt beam="1">  1       21 0.17287839E+00 0.26904034E+03</pdfrwt>
<pdfrwt beam="2">  1       21 0.18640704E-01 0.26904034E+03</pdfrwt>
<totfact> 0.50607566E+03</totfact>
</mgrwt>
</event>
<event>
 4    3  0.3905963E+000  0.2669318E+03  0.7546771E-02  0.1103049E+00
         21   -1    0    0  501  502  0.00000000000E+00  0.00000000000E+00  0.12776104602E+04  0.12776104602E+04  0.00000000000E+00 0. -1.
         21   -1    0    0  502  503 -0.00000000000E+00 -0.00000000000E+00 -0.57019061604E+02  0.57019061604E+02  0.00000000000E+00 0.  1.
          6    1    1    2  501    0 -0.15985431702E+03  0.12557943215E+03  0.70905479374E+03  0.75763533245E+03  0.17300000000E+03 0.  1.
         -6    1    1    2    0  503  0.15985431702E+03 -0.12557943215E+03  0.51153660490E+03  0.57699418940E+03  0.17300000000E+03 0. -1.
<mgrwt>
<rscale>  2 0.26693182E+03</rscale>
<asrwt>0</asrwt>
<pdfrwt beam="1">  1       21 0.19655543E+00 0.26693182E+03</pdfrwt>
<pdfrwt beam="2">  1       21 0.87721643E-02 0.26693182E+03</pdfrwt>
<totfact> 0.13713961E+04</totfact>
</mgrwt>
</event>
<event>
 4    3  0.3905963E+000  0.2391982E+03  0.7546771E-02  0.1120328E+00
         21   -1    0    0  501  502  0.00000000000E+00  0.00000000000E+00  0.49889726701E+03  0.49889726701E+03  0.00000000000E+00 0.  1.
         21   -1    0    0  502  503 -0.00000000000E+00 -0.00000000000E+00 -0.39281448600E+03  0.39281448600E+03  0.00000000000E+00 0. -1.
          6    1    1    2  501    0  0.12011323371E+03 -0.11340013926E+03  0.42820841552E+03  0.49048774462E+03  0.17300000000E+03 0.  1.
         -6    1    1    2    0  503 -0.12011323371E+03  0.11340013926E+03 -0.32212563452E+03  0.40122400839E+03  0.17300000000E+03 0. -1.
<mgrwt>
<rscale>  2 0.23919820E+03</rscale>
<asrwt>0</asrwt>
<pdfrwt beam="1">  1       21 0.76753426E-01 0.23919820E+03</pdfrwt>
<pdfrwt beam="2">  1       21 0.60432998E-01 0.23919820E+03</pdfrwt>
<totfact> 0.37189600E+03</totfact>
</mgrwt>
</event>
<event>
 4    3  0.3905963E+000  0.1744319E+03  0.7546771E-02  0.1173303E+00
         21   -1    0    0  501  502  0.00000000000E+00  0.00000000000E+00  0.16074944252E+03  0.16074944252E+03  0.00000000000E+00 0. -1.
         21   -1    0    0  502  503 -0.00000000000E+00 -0.00000000000E+00 -0.27884555423E+03  0.27884555423E+03  0.00000000000E+00 0. -1.
          6    1    1    2  501    0  0.21659051024E+02 -0.53250232476E+01  0.65522146093E+02  0.18633202085E+03  0.17300000000E+03 0. -1.
         -6    1    1    2    0  503 -0.21659051024E+02  0.53250232476E+01 -0.18361825781E+03  0.25326297590E+03  0.17300000000E+03 0. -1.
<mgrwt>
<rscale>  2 0.17443185E+03</rscale>
<asrwt>0</asrwt>
<pdfrwt beam="1">  1       21 0.24730683E-01 0.17443185E+03</pdfrwt>
<pdfrwt beam="2">  1       21 0.42899316E-01 0.17443185E+03</pdfrwt>
<totfact> 0.81410725E+04</totfact>
</mgrwt>
</event>
<event>
 4    3  0.3905963E+000  0.2025097E+03  0.7546771E-02  0.1147639E+00
         21   -1    0    0  501  502  0.00000000000E+00  0.00000000000E+00  0.45875484052E+02  0.45875484052E+02  0.00000000000E+00 0. -1.
         21   -1    0    0  502  503 -0.00000000000E+00 -0.00000000000E+00 -0.10021727628E+04  0.10021727628E+04  0.00000000000E+00 0.  1.
          6    1    1    2  501    0  0.56017108233E+02 -0.89125000882E+02 -0.30594261741E+03  0.36689380936E+03  0.17300000000E+03 0. -1.
         -6    1    1    2    0  503 -0.56017108233E+02  0.89125000882E+02 -0.65035466137E+03  0.68115443753E+03  0.17300000000E+03 0.  1.
<mgrwt>
<rscale>  2 0.20250971E+03</rscale>
<asrwt>0</asrwt>
<pdfrwt beam="1">  1       21 0.70577672E-02 0.20250971E+03</pdfrwt>
<pdfrwt beam="2">  1       21 0.15418042E+00 0.20250971E+03</pdfrwt>
<totfact> 0.41210194E+04</totfact>
</mgrwt>
</event>
<event>
 4    3  0.3905963E+000  0.1929118E+03  0.7546771E-02  0.1155861E+00
         21   -1    0    0  501  502  0.00000000000E+00  0.00000000000E+00  0.34581699865E+03  0.34581699865E+03  0.00000000000E+00 0. -1.
         21   -1    0    0  502  503 -0.00000000000E+00 -0.00000000000E+00 -0.10761466165E+03  0.10761466165E+03  0.00000000000E+00 0. -1.
          6    1    1    2  501    0  0.42397614739E+02  0.74083778922E+02  0.11924637447E+03  0.22679211155E+03  0.17300000000E+03 0. -1.
         -6    1    1    2    0  503 -0.42397614739E+02 -0.74083778922E+02  0.11895596254E+03  0.22663954875E+03  0.17300000000E+03 0. -1.
<mgrwt>
<rscale>  2 0.19291180E+03</rscale>
<asrwt>0</asrwt>
<pdfrwt beam="1">  1       21 0.53202615E-01 0.19291180E+03</pdfrwt>
<pdfrwt beam="2">  1       21 0.16556102E-01 0.19291180E+03</pdfrwt>
<totfact> 0.10957384E+05</totfact>
</mgrwt>
</event>
<event>
 4    3  0.3905963E+000  0.1769465E+03  0.7546771E-02  0.1170791E+00
         21   -1    0    0  501  502  0.00000000000E+00  0.00000000000E+00  0.50761818313E+03  0.50761818313E+03  0.00000000000E+00 0.  1.
         21   -1    0    0  502  503 -0.00000000000E+00 -0.00000000000E+00 -0.64331435255E+02  0.64331435255E+02  0.00000000000E+00 0.  1.
          6    1    1    2  501    0  0.91242798640E+01 -0.36025181124E+02  0.27969684264E+03  0.33096886551E+03  0.17300000000E+03 0. -1.
         -6    1    1    2    0  503 -0.91242798640E+01  0.36025181124E+02  0.16358990523E+03  0.24098075287E+03  0.17300000000E+03 0. -1.
<mgrwt>
<rscale>  2 0.17694651E+03</rscale>
<asrwt>0</asrwt>
<pdfrwt beam="1">  1       21 0.78095103E-01 0.17694651E+03</pdfrwt>
<pdfrwt beam="2">  1       21 0.98971442E-02 0.17694651E+03</pdfrwt>
<totfact> 0.12070807E+05</totfact>
</mgrwt>
</event>
<event>
 4    3  0.3905963E+000  0.1796274E+03  0.7546771E-02  0.1168164E+00
         21   -1    0    0  503  502  0.00000000000E+00  0.00000000000E+00  0.32806799772E+03  0.32806799772E+03  0.00000000000E+00 0. -1.
         21   -1    0    0  501  503 -0.00000000000E+00 -0.00000000000E+00 -0.13756086500E+03  0.13756086500E+03  0.00000000000E+00 0. -1.
          6    1    1    2  501    0 -0.48276671434E+02  0.25245251029E+01 -0.29042343238E+02  0.18196007236E+03  0.17300000000E+03 0. -1.
         -6    1    1    2    0  502  0.48276671434E+02 -0.25245251029E+01  0.21954947596E+03  0.28366879036E+03  0.17300000000E+03 0. -1.
<mgrwt>
<rscale>  2 0.17962742E+03</rscale>
<asrwt>0</asrwt>
<pdfrwt beam="1">  1       21 0.50472000E-01 0.17962742E+03</pdfrwt>
<pdfrwt beam="2">  1       21 0.21163210E-01 0.17962742E+03</pdfrwt>
<totfact> 0.78001518E+04</totfact>
</mgrwt>
</event>
<event>
 4    3  0.3905963E+000  0.1943803E+03  0.7546771E-02  0.1154569E+00
         21   -1    0    0  503  502  0.00000000000E+00  0.00000000000E+00  0.46878010472E+03  0.46878010472E+03  0.00000000000E+00 0. -1.
         21   -1    0    0  501  503 -0.00000000000E+00 -0.00000000000E+00 -0.13116410636E+03  0.13116410636E+03  0.00000000000E+00 0.  1.
          6    1    1    2  501    0  0.88492254665E+02  0.48819233503E+01 -0.17441111879E+02  0.19516122744E+03  0.17300000000E+03 0.  1.
         -6    1    1    2    0  502 -0.88492254665E+02 -0.48819233503E+01  0.35505711024E+03  0.40478298364E+03  0.17300000000E+03 0. -1.
<mgrwt>
<rscale>  2 0.19438033E+03</rscale>
<asrwt>0</asrwt>
<pdfrwt beam="1">  1       21 0.72120015E-01 0.19438033E+03</pdfrwt>
<pdfrwt beam="2">  1       21 0.20179094E-01 0.19438033E+03</pdfrwt>
<totfact> 0.39345551E+04</totfact>
</mgrwt>
</event>
<event>
 4    3  0.3905963E+000  0.1865921E+03  0.7546771E-02  0.1161571E+00
         21   -1    0    0  501  502  0.00000000000E+00  0.00000000000E+00  0.90075675471E+02  0.90075675471E+02  0.00000000000E+00 0. -1.
         21   -1    0    0  502  503 -0.00000000000E+00 -0.00000000000E+00 -0.80334455266E+03  0.80334455266E+03  0.00000000000E+00 0. -1.
          6    1    1    2  501    0  0.66289797670E+02  0.22209813774E+02 -0.34862439216E+02  0.18982097558E+03  0.17300000000E+03 0. -1.
         -6    1    1    2    0  503 -0.66289797670E+02 -0.22209813774E+02 -0.67840643798E+03  0.70359925255E+03  0.17300000000E+03 0. -1.
<mgrwt>
<rscale>  2 0.18659210E+03</rscale>
<asrwt>0</asrwt>
<pdfrwt beam="1">  1       21 0.13857797E-01 0.18659210E+03</pdfrwt>
<pdfrwt beam="2">  1       21 0.12359147E+00 0.18659210E+03</pdfrwt>
<totfact> 0.22310908E+04</totfact>
</mgrwt>
</event>
<event>
 4    3  0.3905963E+000  0.1959331E+03  0.7546771E-02  0.1153216E+00
         21   -1    0    0  503  502  0.00000000000E+00  0.00000000000E+00  0.91983041878E+03  0.91983041878E+03  0.00000000000E+00 0. -1.
         21   -1    0    0  501  503 -0.00000000000E+00 -0.00000000000E+00 -0.73231836332E+02  0.73231836332E+02  0.00000000000E+00 0.  1.
          6    1    1    2  501    0 -0.31167621609E+02  0.86541056952E+02  0.97668778902E+02  0.21892684976E+03  0.17300000000E+03 0.  1.
         -6    1    1    2    0  502  0.31167621609E+02 -0.86541056952E+02  0.74892980355E+03  0.77413540535E+03  0.17300000000E+03 0. -1.
<mgrwt>
<rscale>  2 0.19593309E+03</rscale>
<asrwt>0</asrwt>
<pdfrwt beam="1">  1       21 0.14151236E+00 0.19593309E+03</pdfrwt>
<pdfrwt beam="2">  1       21 0.11266437E-01 0.19593309E+03</pdfrwt>
<totfact> 0.22807954E+04</totfact>
</mgrwt>
</event>
<event>
 4    3  0.3905963E+000  0.2295701E+03  0.7546771E-02  0.1126943E+00
         21   -1    0    0  501  502  0.00000000000E+00  0.00000000000E+00  0.18906882085E+03  0.18906882085E+03  0.00000000000E+00 0. -1.
         21   -1    0    0  502  503 -0.00000000000E+00 -0.00000000000E+00 -0.27977067555E+03  0.27977067555E+03  0.00000000000E+00 0.  1.
          6    1    1    2  501    0  0.12200371108E+03 -0.88817259185E+02 -0.31172619599E+02  0.23167680777E+03  0.17300000000E+03 0.  1.
         -6    1    1    2    0  503 -0.12200371108E+03  0.88817259185E+02 -0.59529235101E+02  0.23716268863E+03  0.17300000000E+03 0. -1.
<mgrwt>
<rscale>  2 0.22957006E+03</rscale>
<asrwt>0</asrwt>
<pdfrwt beam="1">  1       21 0.29087511E-01 0.22957006E+03</pdfrwt>
<pdfrwt beam="2">  1       21 0.43041642E-01 0.22957006E+03</pdfrwt>
<totfact> 0.57775545E+04</totfact>
</mgrwt>
</event>
<event>
 4    3  0.3905963E+000  0.3272916E+03  0.7546771E-02  0.1072342E+00
         21   -1    0    0  503  502  0.00000000000E+00  0.00000000000E+00  0.26350715203E+03  0.26350715203E+03  0.00000000000E+00 0. -1.
         21   -1    0    0  501  503 -0.00000000000E+00 -0.00000000000E+00 -0.60032185146E+03  0.60032185146E+03  0.00000000000E+00 0.  1.
          6    1    1    2  501    0  0.23943896927E+03  0.14092465155E+03  0.77001127644E+02  0.33622752873E+03  0.17300000000E+03 0. -1.
         -6    1    1    2    0  502 -0.23943896927E+03 -0.14092465155E+03 -0.41381582707E+03  0.52760147475E+03  0.17300000000E+03 0.  1.
<mgrwt>
<rscale>  2 0.32729158E+03</rscale>
<asrwt>0</asrwt>
<pdfrwt beam="1">  1       21 0.40539562E-01 0.32729158E+03</pdfrwt>
<pdfrwt beam="2">  1       21 0.92357208E-01 0.32729158E+03</pdfrwt>
<totfact> 0.53489743E+03</totfact>
</mgrwt>
</event>
<event>
 4    3  0.3905963E+000  0.4803126E+03  0.7546771E-02  0.1019049E+00
         21   -1    0    0  503  502  0.00000000000E+00  0.00000000000E+00  0.16019962292E+04  0.16019962292E+04  0.00000000000E+00 0.  1.
         21   -1    0    0  501  503 -0.00000000000E+00 -0.00000000000E+00 -0.25155895627E+03  0.25155895627E+03  0.00000000000E+00 0. -1.
          6    1    1    2  501    0  0.15748534460E+02 -0.44779810046E+03  0.69232177738E+02  0.48527646712E+03  0.17300000000E+03 0. -1.
         -6    1    1    2    0  502 -0.15748534460E+02  0.44779810046E+03  0.12812050952E+04  0.13682787183E+04  0.17300000000E+03 0.  1.
<mgrwt>
<rscale>  2 0.48031256E+03</rscale>
<asrwt>0</asrwt>
<pdfrwt beam="1">  1       21 0.24646095E+00 0.48031256E+03</pdfrwt>
<pdfrwt beam="2">  1       21 0.38701379E-01 0.48031256E+03</pdfrwt>
<totfact> 0.35651280E+02</totfact>
</mgrwt>
</event>
<event>
 4    3  0.3905963E+000  0.1755503E+03  0.7546771E-02  0.1172180E+00
         21   -1    0    0  503  502  0.00000000000E+00  0.00000000000E+00  0.17801817348E+03  0.17801817348E+03  0.00000000000E+00 0.  1.
         21   -1    0    0  501  503 -0.00000000000E+00 -0.00000000000E+00 -0.17374091294E+03  0.17374091294E+03  0.00000000000E+00 0.  1.
          6    1    1    2  501    0  0.19329256394E+02 -0.22700276717E+02 -0.84033664983E+01  0.17575135642E+03  0.17300000000E+03 0.  1.
         -6    1    1    2    0  502 -0.19329256394E+02  0.22700276717E+02  0.12680627034E+02  0.17600772999E+03  0.17300000000E+03 0.  1.
<mgrwt>
<rscale>  2 0.17555034E+03</rscale>
<asrwt>0</asrwt>
<pdfrwt beam="1">  1       21 0.27387411E-01 0.17555034E+03</pdfrwt>
<pdfrwt beam="2">  1       21 0.26729371E-01 0.17555034E+03</pdfrwt>
<totfact> 0.17032052E+05</totfact>
</mgrwt>
</event>
<event>
 4    3  0.3905963E+000  0.1834783E+03  0.7546771E-02  0.1164479E+00
         21   -1    0    0  503  502  0.00000000000E+00  0.00000000000E+00  0.28810008732E+02  0.28810008732E+02  0.00000000000E+00 0. -1.
         21   -1    0    0  501  503 -0.00000000000E+00 -0.00000000000E+00 -0.12150226102E+04  0.12150226102E+04  0.00000000000E+00 0. -1.
          6    1    1    2  501    0 -0.59193082504E+02 -0.15213865581E+02 -0.71481068530E+03  0.73798279014E+03  0.17300000000E+03 0. -1.
         -6    1    1    2    0  502  0.59193082504E+02  0.15213865581E+02 -0.47140191616E+03  0.50584982879E+03  0.17300000000E+03 0. -1.
<mgrwt>
<rscale>  2 0.18347829E+03</rscale>
<asrwt>0</asrwt>
<pdfrwt beam="1">  1       21 0.44323102E-02 0.18347829E+03</pdfrwt>
<pdfrwt beam="2">  1       21 0.18692651E+00 0.18347829E+03</pdfrwt>
<totfact> 0.54206696E+04</totfact>
</mgrwt>
</event>
<event>
 4    3  0.3905963E+000  0.1840131E+03  0.7546771E-02  0.1163975E+00
         21   -1    0    0  503  502  0.00000000000E+00  0.00000000000E+00  0.12287354847E+03  0.12287354847E+03  0.00000000000E+00 0.  1.
         21   -1    0    0  501  503 -0.00000000000E+00 -0.00000000000E+00 -0.33553837429E+03  0.33553837429E+03  0.00000000000E+00 0.  1.
          6    1    1    2  501    0  0.53699581001E+02 -0.32375341882E+02 -0.20322708925E+03  0.27415699438E+03  0.17300000000E+03 0.  1.
         -6    1    1    2    0  502 -0.53699581001E+02  0.32375341882E+02 -0.94377365780E+01  0.18425492838E+03  0.17300000000E+03 0.  1.
<mgrwt>
<rscale>  2 0.18401306E+03</rscale>
<asrwt>0</asrwt>
<pdfrwt beam="1">  1       21 0.18903623E-01 0.18401306E+03</pdfrwt>
<pdfrwt beam="2">  1       21 0.51621287E-01 0.18401306E+03</pdfrwt>
<totfact> 0.91701484E+04</totfact>
</mgrwt>
</event>
<event>
 4    3  0.3905963E+000  0.1936702E+03  0.7546771E-02  0.1155192E+00
         21   -1    0    0  503  502  0.00000000000E+00  0.00000000000E+00  0.43835397997E+03  0.43835397997E+03  0.00000000000E+00 0. -1.
         21   -1    0    0  501  503 -0.00000000000E+00 -0.00000000000E+00 -0.10885200400E+03  0.10885200400E+03  0.00000000000E+00 0.  1.
          6    1    1    2  501    0 -0.29062247217E+02 -0.82064151301E+02  0.38204139194E+02  0.19740236927E+03  0.17300000000E+03 0.  1.
         -6    1    1    2    0  502  0.29062247217E+02  0.82064151301E+02  0.29129783678E+03  0.34980361469E+03  0.17300000000E+03 0. -1.
<mgrwt>
<rscale>  2 0.19367018E+03</rscale>
<asrwt>0</asrwt>
<pdfrwt beam="1">  1       21 0.67439073E-01 0.19367018E+03</pdfrwt>
<pdfrwt beam="2">  1       21 0.16746462E-01 0.19367018E+03</pdfrwt>
<totfact> 0.64470492E+04</totfact>
</mgrwt>
</event>
<event>
 4    3  0.3905963E+000  0.1790299E+03  0.7546771E-02  0.1168745E+00
         21   -1    0    0  501  502  0.00000000000E+00  0.00000000000E+00  0.12027043472E+03  0.12027043472E+03  0.00000000000E+00 0.  1.
         21   -1    0    0  502  503 -0.00000000000E+00 -0.00000000000E+00 -0.26807042291E+03  0.26807042291E+03  0.00000000000E+00 0.  1.
          6    1    1    2  501    0  0.39623179693E+02 -0.23510038572E+02 -0.88775505979E+02  0.19983195126E+03  0.17300000000E+03 0.  1.
         -6    1    1    2    0  503 -0.39623179693E+02  0.23510038572E+02 -0.59024482207E+02  0.18850890637E+03  0.17300000000E+03 0.  1.
<mgrwt>
<rscale>  2 0.17902994E+03</rscale>
<asrwt>0</asrwt>
<pdfrwt beam="1">  1       21 0.18503144E-01 0.17902994E+03</pdfrwt>
<pdfrwt beam="2">  1       21 0.41241603E-01 0.17902994E+03</pdfrwt>
<totfact> 0.15171858E+05</totfact>
</mgrwt>
</event>
<event>
 4    3  0.3905963E+000  0.1781310E+03  0.7546771E-02  0.1169624E+00
         21   -1    0    0  503  502  0.00000000000E+00  0.00000000000E+00  0.11058754702E+04  0.11058754702E+04  0.00000000000E+00 0.  1.
         21   -1    0    0  501  503 -0.00000000000E+00 -0.00000000000E+00 -0.29888434942E+02  0.29888434942E+02  0.00000000000E+00 0. -1.
          6    1    1    2  501    0  0.33085266297E+02  0.26589805116E+02  0.42441201669E+03  0.46027840759E+03  0.17300000000E+03 0. -1.
         -6    1    1    2    0  502 -0.33085266297E+02 -0.26589805116E+02  0.65157501857E+03  0.67548549755E+03  0.17300000000E+03 0.  1.
<mgrwt>
<rscale>  2 0.17813100E+03</rscale>
<asrwt>0</asrwt>
<pdfrwt beam="1">  1       21 0.17013466E+00 0.17813100E+03</pdfrwt>
<pdfrwt beam="2">  1       21 0.45982216E-02 0.17813100E+03</pdfrwt>
<totfact> 0.66535995E+04</totfact>
</mgrwt>
</event>
<event>
 4    3  0.3905963E+000  0.1854001E+03  0.7546771E-02  0.1162677E+00
         21   -1    0    0  503  502  0.00000000000E+00  0.00000000000E+00  0.14911929957E+03  0.14911929957E+03  0.00000000000E+00 0. -1.
         21   -1    0    0  501  503 -0.00000000000E+00 -0.00000000000E+00 -0.23079371013E+03  0.23079371013E+03  0.00000000000E+00 0. -1.
          6    1    1    2  501    0  0.35724280381E+02 -0.56284765057E+02 -0.34154275970E+02  0.18851979618E+03  0.17300000000E+03 0. -1.
         -6    1    1    2    0  502 -0.35724280381E+02  0.56284765057E+02 -0.47520134588E+02  0.19139321351E+03  0.17300000000E+03 0. -1.
<mgrwt>
<rscale>  2 0.18540011E+03</rscale>
<asrwt>0</asrwt>
<pdfrwt beam="1">  1       21 0.22941431E-01 0.18540011E+03</pdfrwt>
<pdfrwt beam="2">  1       21 0.35506725E-01 0.18540011E+03</pdfrwt>
<totfact> 0.13672359E+05</totfact>
</mgrwt>
</event>
<event>
 4    3  0.3905963E+000  0.1736308E+03  0.7546771E-02  0.1174114E+00
         21   -1    0    0  503  502  0.00000000000E+00  0.00000000000E+00  0.16751712325E+04  0.16751712325E+04  0.00000000000E+00 0.  1.
         21   -1    0    0  501  503 -0.00000000000E+00 -0.00000000000E+00 -0.12841346772E+03  0.12841346772E+03  0.00000000000E+00 0.  1.
          6    1    1    2  501    0 -0.13326237883E+01  0.14727077864E+02 -0.62837453127E+02  0.18465158603E+03  0.17300000000E+03 0.  1.
         -6    1    1    2    0  502  0.13326237883E+01 -0.14727077864E+02  0.16095952179E+04  0.16189331141E+04  0.17300000000E+03 0.  1.
<mgrwt>
<rscale>  2 0.17363082E+03</rscale>
<asrwt>0</asrwt>
<pdfrwt beam="1">  1       21 0.25771864E+00 0.17363082E+03</pdfrwt>
<pdfrwt beam="2">  1       21 0.19755919E-01 0.17363082E+03</pdfrwt>
<totfact> 0.14496708E+03</totfact>
</mgrwt>
</event>
<event>
 4    3  0.3905963E+000  0.1957477E+03  0.7546771E-02  0.1153377E+00
         21   -1    0    0  503  502  0.00000000000E+00  0.00000000000E+00  0.23359061857E+03  0.23359061857E+03  0.00000000000E+00 0.  1.
         21   -1    0    0  501  503 -0.00000000000E+00 -0.00000000000E+00 -0.16763763983E+03  0.16763763983E+03  0.00000000000E+00 0. -1.
          6    1    1    2  501    0 -0.62364412230E+02  0.67073497523E+02  0.35694805498E+01  0.19578027269E+03  0.17300000000E+03 0. -1.
         -6    1    1    2    0  502  0.62364412230E+02 -0.67073497523E+02  0.62383498191E+02  0.20544798570E+03  0.17300000000E+03 0. -1.
<mgrwt>
<rscale>  2 0.19574773E+03</rscale>
<asrwt>0</asrwt>
<pdfrwt beam="1">  1       21 0.35937018E-01 0.19574773E+03</pdfrwt>
<pdfrwt beam="2">  1       21 0.25790406E-01 0.19574773E+03</pdfrwt>
<totfact> 0.10643541E+05</totfact>
</mgrwt>
</event>
<event>
 4    3  0.3905963E+000  0.2601814E+03  0.7546771E-02  0.1107034E+00
         21   -1    0    0  501  502  0.00000000000E+00  0.00000000000E+00  0.73028256699E+03  0.73028256699E+03  0.00000000000E+00 0. -1.
         21   -1    0    0  502  503 -0.00000000000E+00 -0.00000000000E+00 -0.93244449678E+02  0.93244449678E+02  0.00000000000E+00 0. -1.
          6    1    1    2  501    0 -0.86746666483E+02  0.17389763482E+03  0.28694348654E+03  0.38733827078E+03  0.17300000000E+03 0. -1.
         -6    1    1    2    0  503  0.86746666483E+02 -0.17389763482E+03  0.35009463077E+03  0.43618874588E+03  0.17300000000E+03 0. -1.
<mgrwt>
<rscale>  2 0.26018142E+03</rscale>
<asrwt>0</asrwt>
<pdfrwt beam="1">  1       21 0.11235116E+00 0.26018142E+03</pdfrwt>
<pdfrwt beam="2">  1       21 0.14345300E-01 0.26018142E+03</pdfrwt>
<totfact> 0.25458089E+04</totfact>
</mgrwt>
</event>
<event>
 4    3  0.3905963E+000  0.3162059E+03  0.7546771E-02  0.1077409E+00
         21   -1    0    0  503  502  0.00000000000E+00  0.00000000000E+00  0.47908232656E+03  0.47908232656E+03  0.00000000000E+00 0. -1.
         21   -1    0    0  501  503 -0.00000000000E+00 -0.00000000000E+00 -0.28699092715E+03  0.28699092715E+03  0.00000000000E+00 0.  1.
          6    1    1    2  501    0  0.26101536128E+03  0.43910677822E+02 -0.10401057799E+03  0.33287289884E+03  0.17300000000E+03 0.  1.
         -6    1    1    2    0  502 -0.26101536128E+03 -0.43910677822E+02  0.29610197739E+03  0.43320035488E+03  0.17300000000E+03 0. -1.
<mgrwt>
<rscale>  2 0.31620589E+03</rscale>
<asrwt>0</asrwt>
<pdfrwt beam="1">  1       21 0.73704973E-01 0.31620589E+03</pdfrwt>
<pdfrwt beam="2">  1       21 0.44152450E-01 0.31620589E+03</pdfrwt>
<totfact> 0.75860859E+03</totfact>
</mgrwt>
</event>
<event>
 4    3  0.3905963E+000  0.1993505E+03  0.7546771E-02  0.1150288E+00
         21   -1    0    0  501  502  0.00000000000E+00  0.00000000000E+00  0.59132353340E+03  0.59132353340E+03  0.00000000000E+00 0. -1.
         21   -1    0    0  502  503 -0.00000000000E+00 -0.00000000000E+00 -0.14352918345E+03  0.14352918345E+03  0.00000000000E+00 0. -1.
          6    1    1    2  501    0 -0.98048411786E+02 -0.14076230532E+02  0.49183113122E+03  0.53069623416E+03  0.17300000000E+03 0. -1.
         -6    1    1    2    0  503  0.98048411786E+02  0.14076230532E+02 -0.44036781262E+02  0.20415648269E+03  0.17300000000E+03 0. -1.
<mgrwt>
<rscale>  2 0.19935052E+03</rscale>
<asrwt>0</asrwt>
<pdfrwt beam="1">  1       21 0.90972850E-01 0.19935052E+03</pdfrwt>
<pdfrwt beam="2">  1       21 0.22081413E-01 0.19935052E+03</pdfrwt>
<totfact> 0.19562013E+04</totfact>
</mgrwt>
</event>
<event>
 4    3  0.3905963E+000  0.2315675E+03  0.7546771E-02  0.1125541E+00
         21   -1    0    0  503  502  0.00000000000E+00  0.00000000000E+00  0.94464444432E+03  0.94464444432E+03  0.00000000000E+00 0. -1.
         21   -1    0    0  501  503 -0.00000000000E+00 -0.00000000000E+00 -0.57886221872E+02  0.57886221872E+02  0.00000000000E+00 0. -1.
          6    1    1    2  501    0 -0.32060160927E+02  0.15055442188E+03  0.37364057089E+03  0.43958021348E+03  0.17300000000E+03 0. -1.
         -6    1    1    2    0  502  0.32060160927E+02 -0.15055442188E+03  0.51311765155E+03  0.56295045271E+03  0.17300000000E+03 0. -1.
<mgrwt>
<rscale>  2 0.23156746E+03</rscale>
<asrwt>0</asrwt>
<pdfrwt beam="1">  1       21 0.14532990E+00 0.23156746E+03</pdfrwt>
<pdfrwt beam="2">  1       21 0.89055733E-02 0.23156746E+03</pdfrwt>
<totfact> 0.31588597E+04</totfact>
</mgrwt>
</event>
<event>
 4    3  0.3905963E+000  0.1753094E+03  0.7546771E-02  0.1172421E+00
         21   -1    0    0  501  502  0.00000000000E+00  0.00000000000E+00  0.36656787660E+03  0.36656787660E+03  0.00000000000E+00 0. -1.
         21   -1    0    0  502  503 -0.00000000000E+00 -0.00000000000E+00 -0.29924127014E+03  0.29924127014E+03  0.00000000000E+00 0. -1.
          6    1    1    2  501    0  0.11618939440E+02  0.25872676692E+02  0.31610720318E+03  0.36146529440E+03  0.17300000000E+03 0. -1.
         -6    1    1    2    0  503 -0.11618939440E+02 -0.25872676692E+02 -0.24878059672E+03  0.30434385234E+03  0.17300000000E+03 0. -1.
<mgrwt>
<rscale>  2 0.17530943E+03</rscale>
<asrwt>0</asrwt>
<pdfrwt beam="1">  1       21 0.56395058E-01 0.17530943E+03</pdfrwt>
<pdfrwt beam="2">  1       21 0.46037119E-01 0.17530943E+03</pdfrwt>
<totfact> 0.13528103E+04</totfact>
</mgrwt>
</event>
<event>
 4    3  0.3905963E+000  0.1839669E+03  0.7546771E-02  0.1164018E+00
         21   -1    0    0  503  502  0.00000000000E+00  0.00000000000E+00  0.53862847222E+02  0.53862847222E+02  0.00000000000E+00 0. -1.
         21   -1    0    0  501  503 -0.00000000000E+00 -0.00000000000E+00 -0.12145697970E+04  0.12145697970E+04  0.00000000000E+00 0. -1.
          6    1    1    2  501    0 -0.48781590741E+02 -0.39181544648E+02 -0.10209717328E+04  0.10374136669E+04  0.17300000000E+03 0. -1.
         -6    1    1    2    0  502  0.48781590741E+02  0.39181544648E+02 -0.13973521700E+03  0.23101897737E+03  0.17300000000E+03 0. -1.
<mgrwt>
<rscale>  2 0.18396695E+03</rscale>
<asrwt>0</asrwt>
<pdfrwt beam="1">  1       21 0.82865922E-02 0.18396695E+03</pdfrwt>
<pdfrwt beam="2">  1       21 0.18685689E+00 0.18396695E+03</pdfrwt>
<totfact> 0.18587450E+04</totfact>
</mgrwt>
</event>
<event>
 4    3  0.3905963E+000  0.2181308E+03  0.7546771E-02  0.1135284E+00
         21   -1    0    0  501  502  0.00000000000E+00  0.00000000000E+00  0.25292373060E+03  0.25292373060E+03  0.00000000000E+00 0.  1.
         21   -1    0    0  502  503 -0.00000000000E+00 -0.00000000000E+00 -0.19675344965E+03  0.19675344965E+03  0.00000000000E+00 0.  1.
          6    1    1    2  501    0  0.12959177082E+03  0.29292197491E+02  0.75171774186E+02  0.23072029718E+03  0.17300000000E+03 0.  1.
         -6    1    1    2    0  503 -0.12959177082E+03 -0.29292197491E+02 -0.19001493236E+02  0.21895688307E+03  0.17300000000E+03 0.  1.
<mgrwt>
<rscale>  2 0.21813083E+03</rscale>
<asrwt>0</asrwt>
<pdfrwt beam="1">  1       21 0.38911343E-01 0.21813083E+03</pdfrwt>
<pdfrwt beam="2">  1       21 0.30269761E-01 0.21813083E+03</pdfrwt>
<totfact> 0.65938719E+04</totfact>
</mgrwt>
</event>
<event>
 4    3  0.3905963E+000  0.2110545E+03  0.7546771E-02  0.1140734E+00
         21   -1    0    0  501  502  0.00000000000E+00  0.00000000000E+00  0.10429198822E+03  0.10429198822E+03  0.00000000000E+00 0.  1.
         21   -1    0    0  502  503 -0.00000000000E+00 -0.00000000000E+00 -0.93026999375E+03  0.93026999375E+03  0.00000000000E+00 0. -1.
          6    1    1    2  501    0  0.42193647862E+02  0.11329038041E+03 -0.32558237594E+02  0.21355105490E+03  0.17300000000E+03 0.  1.
         -6    1    1    2    0  503 -0.42193647862E+02 -0.11329038041E+03 -0.79341976794E+03  0.82101092707E+03  0.17300000000E+03 0. -1.
<mgrwt>
<rscale>  2 0.21105453E+03</rscale>
<asrwt>0</asrwt>
<pdfrwt beam="1">  1       21 0.16044921E-01 0.21105453E+03</pdfrwt>
<pdfrwt beam="2">  1       21 0.14311846E+00 0.21105453E+03</pdfrwt>
<totfact> 0.11570014E+04</totfact>
</mgrwt>
</event>
<event>
 4    3  0.3905963E+000  0.1755830E+03  0.7546771E-02  0.1172148E+00
         21   -1    0    0  501  502  0.00000000000E+00  0.00000000000E+00  0.34931281011E+02  0.34931281011E+02  0.00000000000E+00 0. -1.
         21   -1    0    0  502  503 -0.00000000000E+00 -0.00000000000E+00 -0.10381575571E+04  0.10381575571E+04  0.00000000000E+00 0. -1.
          6    1    1    2  501    0  0.28820571698E+02 -0.83521867142E+01 -0.29390278974E+03  0.34235688132E+03  0.17300000000E+03 0. -1.
         -6    1    1    2    0  503 -0.28820571698E+02  0.83521867142E+01 -0.70932348634E+03  0.73073195677E+03  0.17300000000E+03 0. -1.
<mgrwt>
<rscale>  2 0.17558298E+03</rscale>
<asrwt>0</asrwt>
<pdfrwt beam="1">  1       21 0.53740434E-02 0.17558298E+03</pdfrwt>
<pdfrwt beam="2">  1       21 0.15971654E+00 0.17558298E+03</pdfrwt>
<totfact> 0.60760046E+04</totfact>
</mgrwt>
</event>
<event>
 4    3  0.3905963E+000  0.1791400E+03  0.7546771E-02  0.1168638E+00
         21   -1    0    0  503  502  0.00000000000E+00  0.00000000000E+00  0.11660118695E+03  0.11660118695E+03  0.00000000000E+00 0.  1.
         21   -1    0    0  501  503 -0.00000000000E+00 -0.00000000000E+00 -0.27545936807E+03  0.27545936807E+03  0.00000000000E+00 0.  1.
          6    1    1    2  501    0  0.46412007605E+02  0.28410165661E+01 -0.85190425305E+02  0.19836470046E+03  0.17300000000E+03 0. -1.
         -6    1    1    2    0  502 -0.46412007605E+02 -0.28410165661E+01 -0.73667755822E+02  0.19369585456E+03  0.17300000000E+03 0. -1.
<mgrwt>
<rscale>  2 0.17914002E+03</rscale>
<asrwt>0</asrwt>
<pdfrwt beam="1">  1       21 0.17938644E-01 0.17914002E+03</pdfrwt>
<pdfrwt beam="2">  1       21 0.42378364E-01 0.17914002E+03</pdfrwt>
<totfact> 0.15202828E+05</totfact>
</mgrwt>
</event>
<event>
 4    3  0.3905963E+000  0.1751130E+03  0.7546771E-02  0.1172618E+00
         21   -1    0    0  501  502  0.00000000000E+00  0.00000000000E+00  0.89642144064E+02  0.89642144064E+02  0.00000000000E+00 0.  1.
         21   -1    0    0  502  503 -0.00000000000E+00 -0.00000000000E+00 -0.50546330445E+03  0.50546330445E+03  0.00000000000E+00 0.  1.
          6    1    1    2  501    0  0.24804946817E+02 -0.10967836480E+02 -0.38739546131E+02  0.17934695776E+03  0.17300000000E+03 0.  1.
         -6    1    1    2    0  503 -0.24804946817E+02  0.10967836480E+02 -0.37708161425E+03  0.41575849075E+03  0.17300000000E+03 0.  1.
<mgrwt>
<rscale>  2 0.17511305E+03</rscale>
<asrwt>0</asrwt>
<pdfrwt beam="1">  1       21 0.13791100E-01 0.17511305E+03</pdfrwt>
<pdfrwt beam="2">  1       21 0.77763581E-01 0.17511305E+03</pdfrwt>
<totfact> 0.67516322E+04</totfact>
</mgrwt>
</event>
<event>
 4    3  0.3905963E+000  0.2645641E+03  0.7546771E-02  0.1104432E+00
         21   -1    0    0  501  502  0.00000000000E+00  0.00000000000E+00  0.16758613832E+03  0.16758613832E+03  0.00000000000E+00 0. -1.
         21   -1    0    0  502  503 -0.00000000000E+00 -0.00000000000E+00 -0.44713609570E+03  0.44713609570E+03  0.00000000000E+00 0.  1.
          6    1    1    2  501    0  0.18278298602E+03  0.81581580965E+02 -0.60860345478E+02  0.27147404293E+03  0.17300000000E+03 0. -1.
         -6    1    1    2    0  503 -0.18278298602E+03 -0.81581580965E+02 -0.21868961190E+03  0.34324819109E+03  0.17300000000E+03 0.  1.
<mgrwt>
<rscale>  2 0.26456412E+03</rscale>
<asrwt>0</asrwt>
<pdfrwt beam="1">  1       21 0.25782483E-01 0.26456412E+03</pdfrwt>
<pdfrwt beam="2">  1       21 0.68790169E-01 0.26456412E+03</pdfrwt>
<totfact> 0.26518822E+04</totfact>
</mgrwt>
</event>
<event>
 4    3  0.3905963E+000  0.3104856E+03  0.7546771E-02  0.1080113E+00
         21   -1    0    0  503  502  0.00000000000E+00  0.00000000000E+00  0.31412576915E+03  0.31412576915E+03  0.00000000000E+00 0. -1.
         21   -1    0    0  501  503 -0.00000000000E+00 -0.00000000000E+00 -0.33554618390E+03  0.33554618390E+03  0.00000000000E+00 0.  1.
          6    1    1    2  501    0  0.47216112462E+02  0.25346188330E+03 -0.10564288181E+03  0.32796601354E+03  0.17300000000E+03 0.  1.
         -6    1    1    2    0  502 -0.47216112462E+02 -0.25346188330E+03  0.84222467055E+02  0.32170593951E+03  0.17300000000E+03 0. -1.
<mgrwt>
<rscale>  2 0.31048557E+03</rscale>
<asrwt>0</asrwt>
<pdfrwt beam="1">  1       21 0.48327042E-01 0.31048557E+03</pdfrwt>
<pdfrwt beam="2">  1       21 0.51622490E-01 0.31048557E+03</pdfrwt>
<totfact> 0.13711937E+04</totfact>
</mgrwt>
</event>
<event>
 4    3  0.3905963E+000  0.1966318E+03  0.7546771E-02  0.1152612E+00
         21   -1    0    0  503  502  0.00000000000E+00  0.00000000000E+00  0.20450842650E+03  0.20450842650E+03  0.00000000000E+00 0.  1.
         21   -1    0    0  501  503 -0.00000000000E+00 -0.00000000000E+00 -0.39491448609E+03  0.39491448609E+03  0.00000000000E+00 0.  1.
          6    1    1    2  501    0 -0.64202990823E+01 -0.93240706702E+02 -0.31159124084E+03  0.36844694461E+03  0.17300000000E+03 0.  1.
         -6    1    1    2    0  502  0.64202990823E+01  0.93240706702E+02  0.12118518125E+03  0.23097596798E+03  0.17300000000E+03 0.  1.
<mgrwt>
<rscale>  2 0.19663176E+03</rscale>
<asrwt>0</asrwt>
<pdfrwt beam="1">  1       21 0.31462835E-01 0.19663176E+03</pdfrwt>
<pdfrwt beam="2">  1       21 0.60756074E-01 0.19663176E+03</pdfrwt>
<totfact> 0.24435023E+04</totfact>
</mgrwt>
</event>
<event>
 4    3  0.3905963E+000  0.1867013E+03  0.7546771E-02  0.1161471E+00
         21   -1    0    0  503  502  0.00000000000E+00  0.00000000000E+00  0.41881124899E+02  0.41881124899E+02  0.00000000000E+00 0. -1.
         21   -1    0    0  501  503 -0.00000000000E+00 -0.00000000000E+00 -0.21584591261E+04  0.21584591261E+04  0.00000000000E+00 0.  1.
          6    1    1    2  501    0 -0.63517935627E+02 -0.29897394057E+02 -0.19206454963E+04  0.19296985528E+04  0.17300000000E+03 0.  1.
         -6    1    1    2    0  502  0.63517935627E+02  0.29897394057E+02 -0.19593250493E+03  0.27064169820E+03  0.17300000000E+03 0. -1.
<mgrwt>
<rscale>  2 0.18670132E+03</rscale>
<asrwt>0</asrwt>
<pdfrwt beam="1">  1       21 0.64432501E-02 0.18670132E+03</pdfrwt>
<pdfrwt beam="2">  1       21 0.33207063E+00 0.18670132E+03</pdfrwt>
<totfact> 0.39163324E+03</totfact>
</mgrwt>
</event>
<event>
 4    3  0.3905963E+000  0.1765407E+03  0.7546771E-02  0.1171194E+00
         21   -1    0    0  503  502  0.00000000000E+00  0.00000000000E+00  0.14734915319E+02  0.14734915319E+02  0.00000000000E+00 0. -1.
         21   -1    0    0  501  503 -0.00000000000E+00 -0.00000000000E+00 -0.23040042077E+04  0.23040042077E+04  0.00000000000E+00 0. -1.
          6    1    1    2  501    0 -0.33299190991E+02  0.11348584507E+02 -0.14765582238E+04  0.14870745828E+04  0.17300000000E+03 0. -1.
         -6    1    1    2    0  502  0.33299190991E+02 -0.11348584507E+02 -0.81271106863E+03  0.83166454028E+03  0.17300000000E+03 0. -1.
<mgrwt>
<rscale>  2 0.17654072E+03</rscale>
<asrwt>0</asrwt>
<pdfrwt beam="1">  1       21 0.22669094E-02 0.17654072E+03</pdfrwt>
<pdfrwt beam="2">  1       21 0.35446229E+00 0.17654072E+03</pdfrwt>
<totfact> 0.16831890E+04</totfact>
</mgrwt>
</event>
<event>
 4    3  0.3905963E+000  0.1946489E+03  0.7546771E-02  0.1154334E+00
         21   -1    0    0  501  502  0.00000000000E+00  0.00000000000E+00  0.12971921625E+03  0.12971921625E+03  0.00000000000E+00 0.  1.
         21   -1    0    0  502  503 -0.00000000000E+00 -0.00000000000E+00 -0.90550941551E+03  0.90550941551E+03  0.00000000000E+00 0.  1.
          6    1    1    2  501    0 -0.15004468960E+01  0.89201744445E+02  0.38137273030E+02  0.19834982770E+03  0.17300000000E+03 0.  1.
         -6    1    1    2    0  503  0.15004468960E+01 -0.89201744445E+02 -0.81392747229E+03  0.83687880407E+03  0.17300000000E+03 0.  1.
<mgrwt>
<rscale>  2 0.19464892E+03</rscale>
<asrwt>0</asrwt>
<pdfrwt beam="1">  1       21 0.19956802E-01 0.19464892E+03</pdfrwt>
<pdfrwt beam="2">  1       21 0.13930914E+00 0.19464892E+03</pdfrwt>
<totfact> 0.83873141E+03</totfact>
</mgrwt>
</event>
<event>
 4    3  0.3905963E+000  0.1749291E+03  0.7546771E-02  0.1172803E+00
         21   -1    0    0  503  502  0.00000000000E+00  0.00000000000E+00  0.73263896840E+02  0.73263896840E+02  0.00000000000E+00 0. -1.
         21   -1    0    0  501  503 -0.00000000000E+00 -0.00000000000E+00 -0.67968536719E+03  0.67968536719E+03  0.00000000000E+00 0. -1.
          6    1    1    2  501    0 -0.25878140454E+02  0.12363862155E+01 -0.53695679054E+03  0.56473250456E+03  0.17300000000E+03 0. -1.
         -6    1    1    2    0  502  0.25878140454E+02 -0.12363862155E+01 -0.69464679818E+02  0.18821675947E+03  0.17300000000E+03 0. -1.
<mgrwt>
<rscale>  2 0.17492915E+03</rscale>
<asrwt>0</asrwt>
<pdfrwt beam="1">  1       21 0.11271369E-01 0.17492915E+03</pdfrwt>
<pdfrwt beam="2">  1       21 0.10456698E+00 0.17492915E+03</pdfrwt>
<totfact> 0.48865650E+04</totfact>
</mgrwt>
</event>
<event>
 4    3  0.3905963E+000  0.2415744E+03  0.7546771E-02  0.1118748E+00
         21   -1    0    0  503  502  0.00000000000E+00  0.00000000000E+00  0.60244758906E+03  0.60244758906E+03  0.00000000000E+00 0. -1.
         21   -1    0    0  501  503 -0.00000000000E+00 -0.00000000000E+00 -0.97610634766E+02  0.97610634766E+02  0.00000000000E+00 0.  1.
          6    1    1    2  501    0 -0.15855115589E+03 -0.57364893903E+02  0.28293915437E+03  0.37203866084E+03  0.17300000000E+03 0.  1.
         -6    1    1    2    0  502  0.15855115589E+03  0.57364893903E+02  0.22189779993E+03  0.32801956299E+03  0.17300000000E+03 0.  1.
<mgrwt>
<rscale>  2 0.24157442E+03</rscale>
<asrwt>0</asrwt>
<pdfrwt beam="1">  1       21 0.92684242E-01 0.24157442E+03</pdfrwt>
<pdfrwt beam="2">  1       21 0.15017021E-01 0.24157442E+03</pdfrwt>
<totfact> 0.37483216E+04</totfact>
</mgrwt>
</event>
<event>
 4    3  0.3905963E+000  0.2538603E+03  0.7546771E-02  0.1110889E+00
         21   -1    0    0  501  502  0.00000000000E+00  0.00000000000E+00  0.28436323483E+03  0.28436323483E+03  0.00000000000E+00 0.  1.
         21   -1    0    0  502  503 -0.00000000000E+00 -0.00000000000E+00 -0.53303509155E+03  0.53303509155E+03  0.00000000000E+00 0. -1.
          6    1    1    2  501    0 -0.89369079651E+02 -0.16287785671E+03  0.18553038377E+03  0.31443052000E+03  0.17300000000E+03 0.  1.
         -6    1    1    2    0  503  0.89369079651E+02  0.16287785671E+03 -0.43420224049E+03  0.50296780638E+03  0.17300000000E+03 0. -1.
<mgrwt>
<rscale>  2 0.25386025E+03</rscale>
<asrwt>0</asrwt>
<pdfrwt beam="1">  1       21 0.43748191E-01 0.25386025E+03</pdfrwt>
<pdfrwt beam="2">  1       21 0.82005398E-01 0.25386025E+03</pdfrwt>
<totfact> 0.62647523E+03</totfact>
</mgrwt>
</event>
<event>
 4    3  0.3905963E+000  0.2269787E+03  0.7546771E-02  0.1128785E+00
         21   -1    0    0  501  502  0.00000000000E+00  0.00000000000E+00  0.82929842008E+03  0.82929842008E+03  0.00000000000E+00 0.  1.
         21   -1    0    0  502  503 -0.00000000000E+00 -0.00000000000E+00 -0.70210680724E+02  0.70210680724E+02  0.00000000000E+00 0. -1.
          6    1    1    2  501    0  0.11837284805E+02 -0.14645896270E+03  0.53218046445E+03  0.57856321678E+03  0.17300000000E+03 0.  1.
         -6    1    1    2    0  503 -0.11837284805E+02  0.14645896270E+03  0.22690727490E+03  0.32094588402E+03  0.17300000000E+03 0. -1.
<mgrwt>
<rscale>  2 0.22697874E+03</rscale>
<asrwt>0</asrwt>
<pdfrwt beam="1">  1       21 0.12758437E+00 0.22697874E+03</pdfrwt>
<pdfrwt beam="2">  1       21 0.10801644E-01 0.22697874E+03</pdfrwt>
<totfact> 0.31458202E+04</totfact>
</mgrwt>
</event>
<event>
 4    3  0.3905963E+000  0.1755914E+03  0.7546771E-02  0.1172139E+00
         21   -1    0    0  501  502  0.00000000000E+00  0.00000000000E+00  0.23638335053E+02  0.23638335053E+02  0.00000000000E+00 0.  1.
         21   -1    0    0  502  503 -0.00000000000E+00 -0.00000000000E+00 -0.17225410875E+04  0.17225410875E+04  0.00000000000E+00 0.  1.
          6    1    1    2  501    0 -0.77350056517E+01 -0.29043004440E+02 -0.41925292699E+03  0.45453860476E+03  0.17300000000E+03 0.  1.
         -6    1    1    2    0  503  0.77350056517E+01  0.29043004440E+02 -0.12796498254E+04  0.12916408178E+04  0.17300000000E+03 0.  1.
<mgrwt>
<rscale>  2 0.17559136E+03</rscale>
<asrwt>0</asrwt>
<pdfrwt beam="1">  1       21 0.36366667E-02 0.17559136E+03</pdfrwt>
<pdfrwt beam="2">  1       21 0.26500633E+00 0.17559136E+03</pdfrwt>
<totfact> 0.25363484E+04</totfact>
</mgrwt>
</event>
<event>
 4    3  0.3905963E+000  0.1753500E+03  0.7546771E-02  0.1172381E+00
         21   -1    0    0  501  502  0.00000000000E+00  0.00000000000E+00  0.21546981010E+03  0.21546981010E+03  0.00000000000E+00 0.  1.
         21   -1    0    0  502  503 -0.00000000000E+00 -0.00000000000E+00 -0.53315050961E+03  0.53315050961E+03  0.00000000000E+00 0.  1.
          6    1    1    2  501    0  0.21707662769E+02 -0.18638362711E+02  0.16148367981E+03  0.23837908892E+03  0.17300000000E+03 0.  1.
         -6    1    1    2    0  503 -0.21707662769E+02  0.18638362711E+02 -0.47916437932E+03  0.51024123079E+03  0.17300000000E+03 0.  1.
<mgrwt>
<rscale>  2 0.17534997E+03</rscale>
<asrwt>0</asrwt>
<pdfrwt beam="1">  1       21 0.33149202E-01 0.17534997E+03</pdfrwt>
<pdfrwt beam="2">  1       21 0.82023154E-01 0.17534997E+03</pdfrwt>
<totfact> 0.11524763E+04</totfact>
</mgrwt>
</event>
<event>
 4    3  0.3905963E+000  0.1902284E+03  0.7546771E-02  0.1158255E+00
         21   -1    0    0  501  502  0.00000000000E+00  0.00000000000E+00  0.20581421276E+03  0.20581421276E+03  0.00000000000E+00 0.  1.
         21   -1    0    0  502  503 -0.00000000000E+00 -0.00000000000E+00 -0.17691975658E+03  0.17691975658E+03  0.00000000000E+00 0.  1.
          6    1    1    2  501    0  0.14116121802E+02  0.77836968722E+02  0.29514935749E+02  0.19250451950E+03  0.17300000000E+03 0.  1.
         -6    1    1    2    0  503 -0.14116121802E+02 -0.77836968722E+02 -0.62047957319E+00  0.19022944985E+03  0.17300000000E+03 0.  1.
<mgrwt>
<rscale>  2 0.19022844E+03</rscale>
<asrwt>0</asrwt>
<pdfrwt beam="1">  1       21 0.31663725E-01 0.19022844E+03</pdfrwt>
<pdfrwt beam="2">  1       21 0.27218424E-01 0.19022844E+03</pdfrwt>
<totfact> 0.12349945E+05</totfact>
</mgrwt>
</event>
<event>
 4    3  0.3905963E+000  0.1744438E+03  0.7546771E-02  0.1173291E+00
         21   -1    0    0  501  502  0.00000000000E+00  0.00000000000E+00  0.32113564261E+03  0.32113564261E+03  0.00000000000E+00 0. -1.
         21   -1    0    0  502  503 -0.00000000000E+00 -0.00000000000E+00 -0.94868052897E+02  0.94868052897E+02  0.00000000000E+00 0. -1.
          6    1    1    2  501    0 -0.74689611702E+01  0.21115597306E+02  0.10609785244E+03  0.20417494489E+03  0.17300000000E+03 0. -1.
         -6    1    1    2    0  503  0.74689611702E+01 -0.21115597306E+02  0.12016973728E+03  0.21182875062E+03  0.17300000000E+03 0. -1.
<mgrwt>
<rscale>  2 0.17444384E+03</rscale>
<asrwt>0</asrwt>
<pdfrwt beam="1">  1       21 0.49405483E-01 0.17444384E+03</pdfrwt>
<pdfrwt beam="2">  1       21 0.14595085E-01 0.17444384E+03</pdfrwt>
<totfact> 0.16200626E+05</totfact>
</mgrwt>
</event>
<event>
 4    3  0.3905963E+000  0.1944792E+03  0.7546771E-02  0.1154482E+00
         21   -1    0    0  501  502  0.00000000000E+00  0.00000000000E+00  0.11020069014E+03  0.11020069014E+03  0.00000000000E+00 0.  1.
         21   -1    0    0  502  503 -0.00000000000E+00 -0.00000000000E+00 -0.57482262226E+03  0.57482262226E+03  0.00000000000E+00 0. -1.
          6    1    1    2  501    0  0.88001334588E+02  0.12203985012E+02 -0.14896770232E+02  0.19504893207E+03  0.17300000000E+03 0.  1.
         -6    1    1    2    0  503 -0.88001334588E+02 -0.12203985012E+02 -0.44972516189E+03  0.48997438032E+03  0.17300000000E+03 0. -1.
<mgrwt>
<rscale>  2 0.19447923E+03</rscale>
<asrwt>0</asrwt>
<pdfrwt beam="1">  1       21 0.16953953E-01 0.19447923E+03</pdfrwt>
<pdfrwt beam="2">  1       21 0.88434248E-01 0.19447923E+03</pdfrwt>
<totfact> 0.34269209E+04</totfact>
</mgrwt>
</event>
<event>
 4    3  0.3905963E+000  0.1734559E+03  0.7546771E-02  0.1174291E+00
         21   -1    0    0  503  502  0.00000000000E+00  0.00000000000E+00  0.15821944298E+03  0.15821944298E+03  0.00000000000E+00 0.  1.
         21   -1    0    0  501  503 -0.00000000000E+00 -0.00000000000E+00 -0.25791544583E+03  0.25791544583E+03  0.00000000000E+00 0.  1.
          6    1    1    2  501    0 -0.34789181607E+01  0.12076258816E+02 -0.15649263009E+03  0.23361695609E+03  0.17300000000E+03 0. -1.
         -6    1    1    2    0  502  0.34789181607E+01 -0.12076258816E+02  0.56796627242E+02  0.18251793272E+03  0.17300000000E+03 0. -1.
<mgrwt>
<rscale>  2 0.17345587E+03</rscale>
<asrwt>0</asrwt>
<pdfrwt beam="1">  1       21 0.24341453E-01 0.17345587E+03</pdfrwt>
<pdfrwt beam="2">  1       21 0.39679299E-01 0.17345587E+03</pdfrwt>
<totfact> 0.98295042E+04</totfact>
</mgrwt>
</event>
<event>
 4    3  0.3905963E+000  0.2501382E+03  0.7546771E-02  0.1113218E+00
         21   -1    0    0  501  502  0.00000000000E+00  0.00000000000E+00  0.45194148147E+03  0.45194148147E+03  0.00000000000E+00 0.  1.
         21   -1    0    0  502  503 -0.00000000000E+00 -0.00000000000E+00 -0.70430477900E+03  0.70430477900E+03  0.00000000000E+00 0. -1.
          6    1    1    2  501    0  0.17521011627E+03 -0.44062863985E+02  0.39201472635E+03  0.46502114629E+03  0.17300000000E+03 0.  1.
         -6    1    1    2    0  503 -0.17521011627E+03  0.44062863985E+02 -0.64437802387E+03  0.69122511418E+03  0.17300000000E+03 0. -1.
<mgrwt>
<rscale>  2 0.25013820E+03</rscale>
<asrwt>0</asrwt>
<pdfrwt beam="1">  1       21 0.69529459E-01 0.25013820E+03</pdfrwt>
<pdfrwt beam="2">  1       21 0.10835458E+00 0.25013820E+03</pdfrwt>
<totfact> 0.12111202E+03</totfact>
</mgrwt>
</event>
<event>
 4    3  0.3905963E+000  0.1902764E+03  0.7546771E-02  0.1158212E+00
         21   -1    0    0  501  502  0.00000000000E+00  0.00000000000E+00  0.79196758214E+03  0.79196758214E+03  0.00000000000E+00 0.  1.
         21   -1    0    0  502  503 -0.00000000000E+00 -0.00000000000E+00 -0.47917423211E+02  0.47917423211E+02  0.00000000000E+00 0.  1.
          6    1    1    2  501    0 -0.67443243430E+02 -0.41563510446E+02  0.46204815402E+03  0.49969351919E+03  0.17300000000E+03 0. -1.
         -6    1    1    2    0  503  0.67443243430E+02  0.41563510446E+02  0.28200200491E+03  0.34019148617E+03  0.17300000000E+03 0. -1.
<mgrwt>
<rscale>  2 0.19027642E+03</rscale>
<asrwt>0</asrwt>
<pdfrwt beam="1">  1       21 0.12184116E+00 0.19027642E+03</pdfrwt>
<pdfrwt beam="2">  1       21 0.73719119E-02 0.19027642E+03</pdfrwt>
<totfact> 0.70410627E+04</totfact>
</mgrwt>
</event>
<event>
 4    3  0.3905963E+000  0.4215511E+03  0.7546771E-02  0.1036563E+00
         21   -1    0    0  503  502  0.00000000000E+00  0.00000000000E+00  0.67609714133E+02  0.67609714133E+02  0.00000000000E+00 0.  1.
         21   -1    0    0  501  503 -0.00000000000E+00 -0.00000000000E+00 -0.29590432306E+04  0.29590432306E+04  0.00000000000E+00 0.  1.
          6    1    1    2  501    0 -0.37379788215E+03 -0.89730080498E+02 -0.19515845972E+04  0.19965940458E+04  0.17300000000E+03 0.  1.
         -6    1    1    2    0  502  0.37379788215E+03  0.89730080498E+02 -0.93984891932E+03  0.10300588989E+04  0.17300000000E+03 0.  1.
<mgrwt>
<rscale>  2 0.42155112E+03</rscale>
<asrwt>0</asrwt>
<pdfrwt beam="1">  1       21 0.10401495E-01 0.42155112E+03</pdfrwt>
<pdfrwt beam="2">  1       21 0.45523741E+00 0.42155112E+03</pdfrwt>
<totfact> 0.22529379E+02</totfact>
</mgrwt>
</event>
<event>
 4    3  0.3905963E+000  0.1897244E+03  0.7546771E-02  0.1158710E+00
         21   -1    0    0  503  502  0.00000000000E+00  0.00000000000E+00  0.44413015011E+02  0.44413015011E+02  0.00000000000E+00 0. -1.
         21   -1    0    0  501  503 -0.00000000000E+00 -0.00000000000E+00 -0.13323260251E+04  0.13323260251E+04  0.00000000000E+00 0.  1.
          6    1    1    2  501    0  0.37788826160E+02 -0.68105573051E+02 -0.10747728908E+04  0.10913899996E+04  0.17300000000E+03 0.  1.
         -6    1    1    2    0  502 -0.37788826160E+02  0.68105573051E+02 -0.21314011931E+03  0.28534904051E+03  0.17300000000E+03 0. -1.
<mgrwt>
<rscale>  2 0.18972444E+03</rscale>
<asrwt>0</asrwt>
<pdfrwt beam="1">  1       21 0.68327716E-02 0.18972444E+03</pdfrwt>
<pdfrwt beam="2">  1       21 0.20497323E+00 0.18972444E+03</pdfrwt>
<totfact> 0.19729406E+04</totfact>
</mgrwt>
</event>
<event>
 4    3  0.3905963E+000  0.2415589E+03  0.7546771E-02  0.1118759E+00
         21   -1    0    0  503  502  0.00000000000E+00  0.00000000000E+00  0.31345591190E+03  0.31345591190E+03  0.00000000000E+00 0. -1.
         21   -1    0    0  501  503 -0.00000000000E+00 -0.00000000000E+00 -0.23600945510E+03  0.23600945510E+03  0.00000000000E+00 0. -1.
          6    1    1    2  501    0  0.15665648641E+03 -0.62293073545E+02 -0.87548867714E+02  0.25693478936E+03  0.17300000000E+03 0. -1.
         -6    1    1    2    0  502 -0.15665648641E+03  0.62293073545E+02  0.16499532451E+03  0.29253057764E+03  0.17300000000E+03 0. -1.
<mgrwt>
<rscale>  2 0.24155886E+03</rscale>
<asrwt>0</asrwt>
<pdfrwt beam="1">  1       21 0.48223987E-01 0.24155886E+03</pdfrwt>
<pdfrwt beam="2">  1       21 0.36309147E-01 0.24155886E+03</pdfrwt>
<totfact> 0.29307200E+04</totfact>
</mgrwt>
</event>
<event>
 4    3  0.3905963E+000  0.1943846E+03  0.7546771E-02  0.1154565E+00
         21   -1    0    0  501  502  0.00000000000E+00  0.00000000000E+00  0.40228474491E+03  0.40228474491E+03  0.00000000000E+00 0.  1.
         21   -1    0    0  502  503 -0.00000000000E+00 -0.00000000000E+00 -0.96062616133E+02  0.96062616133E+02  0.00000000000E+00 0. -1.
          6    1    1    2  501    0  0.87223696213E+02 -0.15760612035E+02  0.19026406797E+03  0.27200328240E+03  0.17300000000E+03 0. -1.
         -6    1    1    2    0  503 -0.87223696213E+02  0.15760612035E+02  0.11595806080E+03  0.22634407865E+03  0.17300000000E+03 0. -1.
<mgrwt>
<rscale>  2 0.19438459E+03</rscale>
<asrwt>0</asrwt>
<pdfrwt beam="1">  1       21 0.61889960E-01 0.19438459E+03</pdfrwt>
<pdfrwt beam="2">  1       21 0.14778864E-01 0.19438459E+03</pdfrwt>
<totfact> 0.97624195E+04</totfact>
</mgrwt>
</event>
<event>
 4    3  0.3905963E+000  0.2263445E+03  0.7546771E-02  0.1129239E+00
         21   -1    0    0  503  502  0.00000000000E+00  0.00000000000E+00  0.61843475636E+03  0.61843475636E+03  0.00000000000E+00 0. -1.
         21   -1    0    0  501  503 -0.00000000000E+00 -0.00000000000E+00 -0.14112407444E+03  0.14112407444E+03  0.00000000000E+00 0. -1.
          6    1    1    2  501    0  0.91924299622E+02 -0.11336991619E+03 -0.54075361452E+01  0.22640904621E+03  0.17300000000E+03 0. -1.
         -6    1    1    2    0  502 -0.91924299622E+02  0.11336991619E+03  0.48271821806E+03  0.53314978459E+03  0.17300000000E+03 0. -1.
<mgrwt>
<rscale>  2 0.22634446E+03</rscale>
<asrwt>0</asrwt>
<pdfrwt beam="1">  1       21 0.95143807E-01 0.22634446E+03</pdfrwt>
<pdfrwt beam="2">  1       21 0.21711397E-01 0.22634446E+03</pdfrwt>
<totfact> 0.17899085E+04</totfact>
</mgrwt>
</event>
<event>
 4    3  0.3905963E+000  0.1991045E+03  0.7546771E-02  0.1150497E+00
         21   -1    0    0  501  502  0.00000000000E+00  0.00000000000E+00  0.48486300503E+03  0.48486300503E+03  0.00000000000E+00 0. -1.
         21   -1    0    0  502  503 -0.00000000000E+00 -0.00000000000E+00 -0.39713808668E+03  0.39713808668E+03  0.00000000000E+00 0. -1.
          6    1    1    2  501    0 -0.77287158422E+02  0.61157826793E+02  0.43685458732E+03  0.48008802849E+03  0.17300000000E+03 0. -1.
         -6    1    1    2    0  503  0.77287158422E+02 -0.61157826793E+02 -0.34912966897E+03  0.40191306322E+03  0.17300000000E+03 0. -1.
<mgrwt>
<rscale>  2 0.19910446E+03</rscale>
<asrwt>0</asrwt>
<pdfrwt beam="1">  1       21 0.74594308E-01 0.19910446E+03</pdfrwt>
<pdfrwt beam="2">  1       21 0.61098168E-01 0.19910446E+03</pdfrwt>
<totfact> 0.39895447E+03</totfact>
</mgrwt>
</event>
<event>
 4    3  0.3905963E+000  0.3180804E+03  0.7546771E-02  0.1076536E+00
         21   -1    0    0  503  502  0.00000000000E+00  0.00000000000E+00  0.41838042933E+03  0.41838042933E+03  0.00000000000E+00 0.  1.
         21   -1    0    0  501  503 -0.00000000000E+00 -0.00000000000E+00 -0.24232921718E+03  0.24232921718E+03  0.00000000000E+00 0. -1.
          6    1    1    2  501    0 -0.16148913850E+03 -0.21252624634E+03  0.10308396494E+03  0.33436723982E+03  0.17300000000E+03 0.  1.
         -6    1    1    2    0  502  0.16148913850E+03  0.21252624634E+03  0.72967247206E+02  0.32634240669E+03  0.17300000000E+03 0. -1.
<mgrwt>
<rscale>  2 0.31808041E+03</rscale>
<asrwt>0</asrwt>
<pdfrwt beam="1">  1       21 0.64366220E-01 0.31808041E+03</pdfrwt>
<pdfrwt beam="2">  1       21 0.37281418E-01 0.31808041E+03</pdfrwt>
<totfact> 0.14493865E+04</totfact>
</mgrwt>
</event>
<event>
 4    3  0.3905963E+000  0.2169756E+03  0.7546771E-02  0.1136158E+00
         21   -1    0    0  503  502  0.00000000000E+00  0.00000000000E+00  0.45982173140E+03  0.45982173140E+03  0.00000000000E+00 0. -1.
         21   -1    0    0  501  503 -0.00000000000E+00 -0.00000000000E+00 -0.12496530080E+03  0.12496530080E+03  0.00000000000E+00 0.  1.
          6    1    1    2  501    0  0.12428679708E+03  0.41257525550E+02  0.43134998088E+02  0.22122165220E+03  0.17300000000E+03 0.  1.
         -6    1    1    2    0  502 -0.12428679708E+03 -0.41257525550E+02  0.29172143252E+03  0.36356538000E+03  0.17300000000E+03 0. -1.
<mgrwt>
<rscale>  2 0.21697555E+03</rscale>
<asrwt>0</asrwt>
<pdfrwt beam="1">  1       21 0.70741804E-01 0.21697555E+03</pdfrwt>
<pdfrwt beam="2">  1       21 0.19225431E-01 0.21697555E+03</pdfrwt>
<totfact> 0.44439887E+04</totfact>
</mgrwt>
</event>
<event>
 4    3  0.3905963E+000  0.2235660E+03  0.7546771E-02  0.1131252E+00
         21   -1    0    0  503  502  0.00000000000E+00  0.00000000000E+00  0.42709561582E+02  0.42709561582E+02  0.00000000000E+00 0. -1.
         21   -1    0    0  501  503 -0.00000000000E+00 -0.00000000000E+00 -0.11758337653E+04  0.11758337653E+04  0.00000000000E+00 0. -1.
          6    1    1    2  501    0  0.12173473651E+03 -0.72342278849E+02 -0.60846967256E+03  0.64824153971E+03  0.17300000000E+03 0. -1.
         -6    1    1    2    0  502 -0.12173473651E+03  0.72342278849E+02 -0.52465453114E+03  0.57030178716E+03  0.17300000000E+03 0. -1.
<mgrwt>
<rscale>  2 0.22356599E+03</rscale>
<asrwt>0</asrwt>
<pdfrwt beam="1">  1       21 0.65707025E-02 0.22356599E+03</pdfrwt>
<pdfrwt beam="2">  1       21 0.18089748E+00 0.22356599E+03</pdfrwt>
<totfact> 0.29665532E+04</totfact>
</mgrwt>
</event>
<event>
 4    3  0.3905963E+000  0.1782714E+03  0.7546771E-02  0.1169487E+00
         21   -1    0    0  501  502  0.00000000000E+00  0.00000000000E+00  0.45446655415E+03  0.45446655415E+03  0.00000000000E+00 0.  1.
         21   -1    0    0  502  503 -0.00000000000E+00 -0.00000000000E+00 -0.88773312837E+02  0.88773312837E+02  0.00000000000E+00 0.  1.
          6    1    1    2  501    0  0.41951344022E+02  0.95805703673E+01  0.30798850604E+03  0.35586180245E+03  0.17300000000E+03 0. -1.
         -6    1    1    2    0  503 -0.41951344022E+02 -0.95805703673E+01  0.57704735270E+02  0.18737806453E+03  0.17300000000E+03 0. -1.
<mgrwt>
<rscale>  2 0.17827143E+03</rscale>
<asrwt>0</asrwt>
<pdfrwt beam="1">  1       21 0.69917930E-01 0.17827143E+03</pdfrwt>
<pdfrwt beam="2">  1       21 0.13657433E-01 0.17827143E+03</pdfrwt>
<totfact> 0.86895475E+04</totfact>
</mgrwt>
</event>
<event>
 4    3  0.3905963E+000  0.1821301E+03  0.7546771E-02  0.1165757E+00
         21   -1    0    0  503  502  0.00000000000E+00  0.00000000000E+00  0.30365578772E+03  0.30365578772E+03  0.00000000000E+00 0.  1.
         21   -1    0    0  501  503 -0.00000000000E+00 -0.00000000000E+00 -0.20800517044E+03  0.20800517044E+03  0.00000000000E+00 0.  1.
          6    1    1    2  501    0  0.43431552298E+02 -0.36825026394E+02 -0.12846033819E+03  0.22287539297E+03  0.17300000000E+03 0.  1.
         -6    1    1    2    0  502 -0.43431552298E+02  0.36825026394E+02  0.22411095547E+03  0.28878556520E+03  0.17300000000E+03 0.  1.
<mgrwt>
<rscale>  2 0.18213012E+03</rscale>
<asrwt>0</asrwt>
<pdfrwt beam="1">  1       21 0.46716275E-01 0.18213012E+03</pdfrwt>
<pdfrwt beam="2">  1       21 0.32000796E-01 0.18213012E+03</pdfrwt>
<totfact> 0.41418261E+04</totfact>
</mgrwt>
</event>
<event>
 4    3  0.3905963E+000  0.2757496E+03  0.7546771E-02  0.1098033E+00
         21   -1    0    0  503  502  0.00000000000E+00  0.00000000000E+00  0.16413746414E+04  0.16413746414E+04  0.00000000000E+00 0.  1.
         21   -1    0    0  501  503 -0.00000000000E+00 -0.00000000000E+00 -0.59212505422E+02  0.59212505422E+02  0.00000000000E+00 0. -1.
          6    1    1    2  501    0 -0.10888322475E+03  0.18507647529E+03  0.11877557795E+04  0.12193447626E+04  0.17300000000E+03 0.  1.
         -6    1    1    2    0  502  0.10888322475E+03 -0.18507647529E+03  0.39440635643E+03  0.48124238418E+03  0.17300000000E+03 0. -1.
<mgrwt>
<rscale>  2 0.27574963E+03</rscale>
<asrwt>0</asrwt>
<pdfrwt beam="1">  1       21 0.25251914E+00 0.27574963E+03</pdfrwt>
<pdfrwt beam="2">  1       21 0.91096174E-02 0.27574963E+03</pdfrwt>
<totfact> 0.57194181E+03</totfact>
</mgrwt>
</event>
<event>
 4    3  0.3905963E+000  0.2025250E+03  0.7546771E-02  0.1147626E+00
         21   -1    0    0  503  502  0.00000000000E+00  0.00000000000E+00  0.12009760971E+03  0.12009760971E+03  0.00000000000E+00 0. -1.
         21   -1    0    0  501  503 -0.00000000000E+00 -0.00000000000E+00 -0.35560152808E+03  0.35560152808E+03  0.00000000000E+00 0. -1.
          6    1    1    2  501    0 -0.51080179213E+02 -0.92077059988E+02 -0.16507406129E+03  0.26127727685E+03  0.17300000000E+03 0. -1.
         -6    1    1    2    0  502  0.51080179213E+02  0.92077059988E+02 -0.70429857069E+02  0.21442186095E+03  0.17300000000E+03 0. -1.
<mgrwt>
<rscale>  2 0.20252499E+03</rscale>
<asrwt>0</asrwt>
<pdfrwt beam="1">  1       21 0.18476555E-01 0.20252499E+03</pdfrwt>
<pdfrwt beam="2">  1       21 0.54707927E-01 0.20252499E+03</pdfrwt>
<totfact> 0.84027435E+04</totfact>
</mgrwt>
</event>
<event>
 4    3  0.3905963E+000  0.2609399E+03  0.7546771E-02  0.1106580E+00
         21   -1    0    0  503  502  0.00000000000E+00  0.00000000000E+00  0.88466742042E+03  0.88466742042E+03  0.00000000000E+00 0.  1.
         21   -1    0    0  501  503 -0.00000000000E+00 -0.00000000000E+00 -0.77412352249E+02  0.77412352249E+02  0.00000000000E+00 0. -1.
          6    1    1    2  501    0 -0.11347953663E+03  0.15900642998E+03  0.44013899732E+03  0.51167566580E+03  0.17300000000E+03 0. -1.
         -6    1    1    2    0  502  0.11347953663E+03 -0.15900642998E+03  0.36711607084E+03  0.45040410687E+03  0.17300000000E+03 0.  1.
<mgrwt>
<rscale>  2 0.26093994E+03</rscale>
<asrwt>0</asrwt>
<pdfrwt beam="1">  1       21 0.13610267E+00 0.26093994E+03</pdfrwt>
<pdfrwt beam="2">  1       21 0.11909593E-01 0.26093994E+03</pdfrwt>
<totfact> 0.22011122E+04</totfact>
</mgrwt>
</event>
<event>
 4    3  0.3905963E+000  0.1812608E+03  0.7546771E-02  0.1166588E+00
         21   -1    0    0  503  502  0.00000000000E+00  0.00000000000E+00  0.87448532022E+03  0.87448532022E+03  0.00000000000E+00 0.  1.
         21   -1    0    0  501  503 -0.00000000000E+00 -0.00000000000E+00 -0.56652783913E+02  0.56652783913E+02  0.00000000000E+00 0.  1.
          6    1    1    2  501    0 -0.52909588118E+02 -0.11271077727E+02  0.13871915698E+03  0.22825088438E+03  0.17300000000E+03 0.  1.
         -6    1    1    2    0  502  0.52909588118E+02  0.11271077727E+02  0.67911337933E+03  0.70288721975E+03  0.17300000000E+03 0.  1.
<mgrwt>
<rscale>  2 0.18126076E+03</rscale>
<asrwt>0</asrwt>
<pdfrwt beam="1">  1       21 0.13453619E+00 0.18126076E+03</pdfrwt>
<pdfrwt beam="2">  1       21 0.87158136E-02 0.18126076E+03</pdfrwt>
<totfact> 0.41211953E+04</totfact>
</mgrwt>
</event>
<event>
 4    3  0.3905963E+000  0.1971100E+03  0.7546771E-02  0.1152200E+00
         21   -1    0    0  501  502  0.00000000000E+00  0.00000000000E+00  0.20161569607E+02  0.20161569607E+02  0.00000000000E+00 0.  1.
         21   -1    0    0  502  503 -0.00000000000E+00 -0.00000000000E+00 -0.22342042874E+04  0.22342042874E+04  0.00000000000E+00 0. -1.
          6    1    1    2  501    0 -0.49692681748E+02 -0.80336623023E+02 -0.15249593515E+04  0.15376453945E+04  0.17300000000E+03 0. -1.
         -6    1    1    2    0  503  0.49692681748E+02  0.80336623023E+02 -0.68908336629E+03  0.71672046247E+03  0.17300000000E+03 0. -1.
<mgrwt>
<rscale>  2 0.19710996E+03</rscale>
<asrwt>0</asrwt>
<pdfrwt beam="1">  1       21 0.31017816E-02 0.19710996E+03</pdfrwt>
<pdfrwt beam="2">  1       21 0.34372355E+00 0.19710996E+03</pdfrwt>
<totfact> 0.11340841E+04</totfact>
</mgrwt>
</event>
<event>
 4    3  0.3905963E+000  0.1827138E+03  0.7546771E-02  0.1165202E+00
         21   -1    0    0  503  502  0.00000000000E+00  0.00000000000E+00  0.66030134086E+02  0.66030134086E+02  0.00000000000E+00 0.  1.
         21   -1    0    0  501  503 -0.00000000000E+00 -0.00000000000E+00 -0.56845142872E+03  0.56845142872E+03  0.00000000000E+00 0.  1.
          6    1    1    2  501    0 -0.90047490378E+01  0.58088161539E+02 -0.35670443668E+03  0.40077721387E+03  0.17300000000E+03 0.  1.
         -6    1    1    2    0  502  0.90047490378E+01 -0.58088161539E+02 -0.14571685796E+03  0.23370434893E+03  0.17300000000E+03 0.  1.
<mgrwt>
<rscale>  2 0.18271377E+03</rscale>
<asrwt>0</asrwt>
<pdfrwt beam="1">  1       21 0.10158482E-01 0.18271377E+03</pdfrwt>
<pdfrwt beam="2">  1       21 0.87454069E-01 0.18271377E+03</pdfrwt>
<totfact> 0.88953974E+04</totfact>
</mgrwt>
</event>
<event>
 4    3  0.3905963E+000  0.2619411E+03  0.7546771E-02  0.1105983E+00
         21   -1    0    0  503  502  0.00000000000E+00  0.00000000000E+00  0.10043779180E+04  0.10043779180E+04  0.00000000000E+00 0. -1.
         21   -1    0    0  501  503 -0.00000000000E+00 -0.00000000000E+00 -0.77631058216E+02  0.77631058216E+02  0.00000000000E+00 0. -1.
          6    1    1    2  501    0 -0.17500900322E+03 -0.89755244919E+02  0.27595140999E+03  0.38047645903E+03  0.17300000000E+03 0. -1.
         -6    1    1    2    0  502  0.17500900322E+03  0.89755244919E+02  0.65079544976E+03  0.70153251715E+03  0.17300000000E+03 0. -1.
<mgrwt>
<rscale>  2 0.26194113E+03</rscale>
<asrwt>0</asrwt>
<pdfrwt beam="1">  1       21 0.15451967E+00 0.26194113E+03</pdfrwt>
<pdfrwt beam="2">  1       21 0.11943240E-01 0.26194113E+03</pdfrwt>
<totfact> 0.15660282E+04</totfact>
</mgrwt>
</event>
<event>
 4    3  0.3905963E+000  0.3491975E+03  0.7546771E-02  0.1062945E+00
         21   -1    0    0  503  502  0.00000000000E+00  0.00000000000E+00  0.21951936765E+03  0.21951936765E+03  0.00000000000E+00 0. -1.
         21   -1    0    0  501  503 -0.00000000000E+00 -0.00000000000E+00 -0.93149982258E+03  0.93149982258E+03  0.00000000000E+00 0.  1.
          6    1    1    2  501    0  0.11923484988E+03  0.27891391231E+03 -0.72164037859E+03  0.80168806647E+03  0.17300000000E+03 0.  1.
         -6    1    1    2    0  502 -0.11923484988E+03 -0.27891391231E+03  0.96599236542E+01  0.34933112377E+03  0.17300000000E+03 0. -1.
<mgrwt>
<rscale>  2 0.34919754E+03</rscale>
<asrwt>0</asrwt>
<pdfrwt beam="1">  1       21 0.33772211E-01 0.34919754E+03</pdfrwt>
<pdfrwt beam="2">  1       21 0.14330766E+00 0.34919754E+03</pdfrwt>
<totfact> 0.25585931E+03</totfact>
</mgrwt>
</event>
<event>
 4    3  0.3905963E+000  0.1811722E+03  0.7546771E-02  0.1166673E+00
         21   -1    0    0  501  502  0.00000000000E+00  0.00000000000E+00  0.13494367177E+02  0.13494367177E+02  0.00000000000E+00 0.  1.
         21   -1    0    0  502  503 -0.00000000000E+00 -0.00000000000E+00 -0.24340099723E+04  0.24340099723E+04  0.00000000000E+00 0.  1.
          6    1    1    2  501    0 -0.49693045533E+02  0.20615051375E+02 -0.11785539028E+04  0.11923978702E+04  0.17300000000E+03 0.  1.
         -6    1    1    2    0  503  0.49693045533E+02 -0.20615051375E+02 -0.12419617024E+04  0.12551064693E+04  0.17300000000E+03 0.  1.
<mgrwt>
<rscale>  2 0.18117224E+03</rscale>
<asrwt>0</asrwt>
<pdfrwt beam="1">  1       21 0.20760579E-02 0.18117224E+03</pdfrwt>
<pdfrwt beam="2">  1       21 0.37446282E+00 0.18117224E+03</pdfrwt>
<totfact> 0.14679039E+04</totfact>
</mgrwt>
</event>
<event>
 4    3  0.3905963E+000  0.1884335E+03  0.7546771E-02  0.1159882E+00
         21   -1    0    0  503  502  0.00000000000E+00  0.00000000000E+00  0.29170006214E+03  0.29170006214E+03  0.00000000000E+00 0.  1.
         21   -1    0    0  501  503 -0.00000000000E+00 -0.00000000000E+00 -0.16964478051E+03  0.16964478051E+03  0.00000000000E+00 0.  1.
          6    1    1    2  501    0 -0.68354947841E+02  0.30096168073E+02 -0.61570255256E+02  0.19823741967E+03  0.17300000000E+03 0.  1.
         -6    1    1    2    0  502  0.68354947841E+02 -0.30096168073E+02  0.18362553689E+03  0.26310742298E+03  0.17300000000E+03 0.  1.
<mgrwt>
<rscale>  2 0.18843348E+03</rscale>
<asrwt>0</asrwt>
<pdfrwt beam="1">  1       21 0.44876933E-01 0.18843348E+03</pdfrwt>
<pdfrwt beam="2">  1       21 0.26099197E-01 0.18843348E+03</pdfrwt>
<totfact> 0.66596644E+04</totfact>
</mgrwt>
</event>
<event>
 4    3  0.3905963E+000  0.1983838E+03  0.7546771E-02  0.1151110E+00
         21   -1    0    0  501  502  0.00000000000E+00  0.00000000000E+00  0.11254421766E+04  0.11254421766E+04  0.00000000000E+00 0.  1.
         21   -1    0    0  502  503 -0.00000000000E+00 -0.00000000000E+00 -0.53289964260E+02  0.53289964260E+02  0.00000000000E+00 0.  1.
          6    1    1    2  501    0  0.26085439288E+02 -0.93523650097E+02  0.19051016136E+03  0.27504589590E+03  0.17300000000E+03 0.  1.
         -6    1    1    2    0  503 -0.26085439288E+02  0.93523650097E+02  0.88164205095E+03  0.90368624493E+03  0.17300000000E+03 0.  1.
<mgrwt>
<rscale>  2 0.19838378E+03</rscale>
<asrwt>0</asrwt>
<pdfrwt beam="1">  1       21 0.17314493E+00 0.19838378E+03</pdfrwt>
<pdfrwt beam="2">  1       21 0.81984569E-02 0.19838378E+03</pdfrwt>
<totfact> 0.23232728E+04</totfact>
</mgrwt>
</event>
<event>
 4    3  0.3905963E+000  0.1971758E+03  0.7546771E-02  0.1152144E+00
         21   -1    0    0  503  502  0.00000000000E+00  0.00000000000E+00  0.94222893777E+03  0.94222893777E+03  0.00000000000E+00 0. -1.
         21   -1    0    0  501  503 -0.00000000000E+00 -0.00000000000E+00 -0.57209216330E+02  0.57209216330E+02  0.00000000000E+00 0.  1.
          6    1    1    2  501    0  0.45705691409E+02  0.82826915806E+02  0.17867356692E+03  0.26608748885E+03  0.17300000000E+03 0.  1.
         -6    1    1    2    0  502 -0.45705691409E+02 -0.82826915806E+02  0.70634615452E+03  0.73335066525E+03  0.17300000000E+03 0. -1.
<mgrwt>
<rscale>  2 0.19717583E+03</rscale>
<asrwt>0</asrwt>
<pdfrwt beam="1">  1       21 0.14495829E+00 0.19717583E+03</pdfrwt>
<pdfrwt beam="2">  1       21 0.88014186E-02 0.19717583E+03</pdfrwt>
<totfact> 0.33115904E+04</totfact>
</mgrwt>
</event>
<event>
 4    3  0.3905963E+000  0.2056118E+03  0.7546771E-02  0.1145089E+00
         21   -1    0    0  503  502  0.00000000000E+00  0.00000000000E+00  0.24949697108E+03  0.24949697108E+03  0.00000000000E+00 0.  1.
         21   -1    0    0  501  503 -0.00000000000E+00 -0.00000000000E+00 -0.31819958986E+03  0.31819958986E+03  0.00000000000E+00 0.  1.
          6    1    1    2  501    0 -0.10662089075E+02  0.11060539055E+03 -0.22842665583E+03  0.30733527239E+03  0.17300000000E+03 0.  1.
         -6    1    1    2    0  502  0.10662089075E+02 -0.11060539055E+03  0.15972403706E+03  0.26036128855E+03  0.17300000000E+03 0.  1.
<mgrwt>
<rscale>  2 0.20561185E+03</rscale>
<asrwt>0</asrwt>
<pdfrwt beam="1">  1       21 0.38384150E-01 0.20561185E+03</pdfrwt>
<pdfrwt beam="2">  1       21 0.48953783E-01 0.20561185E+03</pdfrwt>
<totfact> 0.25871364E+04</totfact>
</mgrwt>
</event>
<event>
 4    3  0.3905963E+000  0.1899810E+03  0.7546771E-02  0.1158479E+00
         21   -1    0    0  501  502  0.00000000000E+00  0.00000000000E+00  0.98013606120E+02  0.98013606120E+02  0.00000000000E+00 0. -1.
         21   -1    0    0  502  503 -0.00000000000E+00 -0.00000000000E+00 -0.41477568956E+03  0.41477568956E+03  0.00000000000E+00 0.  1.
          6    1    1    2  501    0 -0.21392813226E+02  0.75538823794E+02 -0.72502601631E+02  0.20334550303E+03  0.17300000000E+03 0. -1.
         -6    1    1    2    0  503  0.21392813226E+02 -0.75538823794E+02 -0.24425948181E+03  0.30944379265E+03  0.17300000000E+03 0.  1.
<mgrwt>
<rscale>  2 0.18998096E+03</rscale>
<asrwt>0</asrwt>
<pdfrwt beam="1">  1       21 0.15079016E-01 0.18998096E+03</pdfrwt>
<pdfrwt beam="2">  1       21 0.63811644E-01 0.18998096E+03</pdfrwt>
<totfact> 0.88244344E+04</totfact>
</mgrwt>
</event>
<event>
 4    3  0.3905963E+000  0.1957169E+03  0.7546771E-02  0.1153404E+00
         21   -1    0    0  501  502  0.00000000000E+00  0.00000000000E+00  0.72823838430E+03  0.72823838430E+03  0.00000000000E+00 0. -1.
         21   -1    0    0  502  503 -0.00000000000E+00 -0.00000000000E+00 -0.53691956196E+02  0.53691956196E+02  0.00000000000E+00 0. -1.
          6    1    1    2  501    0  0.30200915829E+02  0.86394612092E+02  0.39303602836E+03  0.43906997609E+03  0.17300000000E+03 0. -1.
         -6    1    1    2    0  503 -0.30200915829E+02 -0.86394612092E+02  0.28151039974E+03  0.34286036440E+03  0.17300000000E+03 0. -1.
<mgrwt>
<rscale>  2 0.19571695E+03</rscale>
<asrwt>0</asrwt>
<pdfrwt beam="1">  1       21 0.11203667E+00 0.19571695E+03</pdfrwt>
<pdfrwt beam="2">  1       21 0.82603015E-02 0.19571695E+03</pdfrwt>
<totfact> 0.70794289E+04</totfact>
</mgrwt>
</event>
<event>
 4    3  0.3905963E+000  0.2128106E+03  0.7546771E-02  0.1139359E+00
         21   -1    0    0  503  502  0.00000000000E+00  0.00000000000E+00  0.57580162150E+03  0.57580162150E+03  0.00000000000E+00 0. -1.
         21   -1    0    0  501  503 -0.00000000000E+00 -0.00000000000E+00 -0.18408237921E+03  0.18408237921E+03  0.00000000000E+00 0.  1.
          6    1    1    2  501    0  0.11775936018E+03 -0.38627705029E+02 -0.91676617210E+02  0.23171743277E+03  0.17300000000E+03 0.  1.
         -6    1    1    2    0  502 -0.11775936018E+03  0.38627705029E+02  0.48339585950E+03  0.52816656793E+03  0.17300000000E+03 0. -1.
<mgrwt>
<rscale>  2 0.21281064E+03</rscale>
<asrwt>0</asrwt>
<pdfrwt beam="1">  1       21 0.88584864E-01 0.21281064E+03</pdfrwt>
<pdfrwt beam="2">  1       21 0.28320366E-01 0.21281064E+03</pdfrwt>
<totfact> 0.12817476E+04</totfact>
</mgrwt>
</event>
<event>
 4    3  0.3905963E+000  0.1868567E+03  0.7546771E-02  0.1161327E+00
         21   -1    0    0  501  502  0.00000000000E+00  0.00000000000E+00  0.43997437305E+03  0.43997437305E+03  0.00000000000E+00 0.  1.
         21   -1    0    0  502  503 -0.00000000000E+00 -0.00000000000E+00 -0.86033965682E+02  0.86033965682E+02  0.00000000000E+00 0. -1.
          6    1    1    2  501    0  0.58183617020E+02  0.40013866050E+02  0.25023374857E+03  0.31230173180E+03  0.17300000000E+03 0.  1.
         -6    1    1    2    0  503 -0.58183617020E+02 -0.40013866050E+02  0.10370665880E+03  0.21370660693E+03  0.17300000000E+03 0. -1.
<mgrwt>
<rscale>  2 0.18685674E+03</rscale>
<asrwt>0</asrwt>
<pdfrwt beam="1">  1       21 0.67688364E-01 0.18685674E+03</pdfrwt>
<pdfrwt beam="2">  1       21 0.13235995E-01 0.18685674E+03</pdfrwt>
<totfact> 0.98387473E+04</totfact>
</mgrwt>
</event>
<event>
 4    3  0.3905963E+000  0.2035784E+03  0.7546771E-02  0.1146755E+00
         21   -1    0    0  501  502  0.00000000000E+00  0.00000000000E+00  0.14643499510E+03  0.14643499510E+03  0.00000000000E+00 0.  1.
         21   -1    0    0  502  503 -0.00000000000E+00 -0.00000000000E+00 -0.32310094700E+03  0.32310094700E+03  0.00000000000E+00 0. -1.
          6    1    1    2  501    0 -0.61589782126E+02 -0.87874245487E+02 -0.56467641196E+01  0.20365674609E+03  0.17300000000E+03 0.  1.
         -6    1    1    2    0  503  0.61589782126E+02  0.87874245487E+02 -0.17101918778E+03  0.26587919601E+03  0.17300000000E+03 0. -1.
<mgrwt>
<rscale>  2 0.20357845E+03</rscale>
<asrwt>0</asrwt>
<pdfrwt beam="1">  1       21 0.22528461E-01 0.20357845E+03</pdfrwt>
<pdfrwt beam="2">  1       21 0.49707838E-01 0.20357845E+03</pdfrwt>
<totfact> 0.70848883E+04</totfact>
</mgrwt>
</event>
<event>
 4    3  0.3905963E+000  0.1744393E+03  0.7546771E-02  0.1173296E+00
         21   -1    0    0  501  502  0.00000000000E+00  0.00000000000E+00  0.11714262605E+03  0.11714262605E+03  0.00000000000E+00 0. -1.
         21   -1    0    0  502  503 -0.00000000000E+00 -0.00000000000E+00 -0.39434002596E+03  0.39434002596E+03  0.00000000000E+00 0. -1.
          6    1    1    2  501    0 -0.19663232607E+02  0.10649481618E+02  0.10802679242E+02  0.17477343063E+03  0.17300000000E+03 0. -1.
         -6    1    1    2    0  503  0.19663232607E+02 -0.10649481618E+02 -0.28800007915E+03  0.33670922139E+03  0.17300000000E+03 0. -1.
<mgrwt>
<rscale>  2 0.17443926E+03</rscale>
<asrwt>0</asrwt>
<pdfrwt beam="1">  1       21 0.18021942E-01 0.17443926E+03</pdfrwt>
<pdfrwt beam="2">  1       21 0.60667697E-01 0.17443926E+03</pdfrwt>
<totfact> 0.71440154E+04</totfact>
</mgrwt>
</event>
<event>
 4    3  0.3905963E+000  0.2213464E+03  0.7546771E-02  0.1132883E+00
         21   -1    0    0  501  502  0.00000000000E+00  0.00000000000E+00  0.21351966121E+03  0.21351966121E+03  0.00000000000E+00 0.  1.
         21   -1    0    0  502  503 -0.00000000000E+00 -0.00000000000E+00 -0.32007205742E+03  0.32007205742E+03  0.00000000000E+00 0.  1.
          6    1    1    2  501    0  0.13095258323E+03  0.43779425622E+02  0.88678002461E+02  0.23844916709E+03  0.17300000000E+03 0.  1.
         -6    1    1    2    0  503 -0.13095258323E+03 -0.43779425622E+02 -0.19523039868E+03  0.29514255154E+03  0.17300000000E+03 0.  1.
<mgrwt>
<rscale>  2 0.22134637E+03</rscale>
<asrwt>0</asrwt>
<pdfrwt beam="1">  1       21 0.32849179E-01 0.22134637E+03</pdfrwt>
<pdfrwt beam="2">  1       21 0.49241855E-01 0.22134637E+03</pdfrwt>
<totfact> 0.34575167E+04</totfact>
</mgrwt>
</event>
<event>
 4    3  0.3905963E+000  0.1974460E+03  0.7546771E-02  0.1151912E+00
         21   -1    0    0  503  502  0.00000000000E+00  0.00000000000E+00  0.84264378568E+02  0.84264378568E+02  0.00000000000E+00 0.  1.
         21   -1    0    0  501  503 -0.00000000000E+00 -0.00000000000E+00 -0.50670086775E+03  0.50670086775E+03  0.00000000000E+00 0.  1.
          6    1    1    2  501    0 -0.26481287656E+02  0.91403866156E+02 -0.12409526181E+03  0.23320497282E+03  0.17300000000E+03 0.  1.
         -6    1    1    2    0  502  0.26481287656E+02 -0.91403866156E+02 -0.29834122736E+03  0.35776027349E+03  0.17300000000E+03 0.  1.
<mgrwt>
<rscale>  2 0.19744601E+03</rscale>
<asrwt>0</asrwt>
<pdfrwt beam="1">  1       21 0.12963750E-01 0.19744601E+03</pdfrwt>
<pdfrwt beam="2">  1       21 0.77953980E-01 0.19744601E+03</pdfrwt>
<totfact> 0.74329223E+04</totfact>
</mgrwt>
</event>
<event>
 4    3  0.3905963E+000  0.1930367E+03  0.7546771E-02  0.1155751E+00
         21   -1    0    0  503  502  0.00000000000E+00  0.00000000000E+00  0.27187452231E+03  0.27187452231E+03  0.00000000000E+00 0. -1.
         21   -1    0    0  501  503 -0.00000000000E+00 -0.00000000000E+00 -0.17298036007E+03  0.17298036007E+03  0.00000000000E+00 0. -1.
          6    1    1    2  501    0  0.26762978198E+02  0.81350569141E+02 -0.51911190121E+02  0.19989483175E+03  0.17300000000E+03 0. -1.
         -6    1    1    2    0  502 -0.26762978198E+02 -0.81350569141E+02  0.15080535237E+03  0.24496005063E+03  0.17300000000E+03 0. -1.
<mgrwt>
<rscale>  2 0.19303671E+03</rscale>
<asrwt>0</asrwt>
<pdfrwt beam="1">  1       21 0.41826849E-01 0.19303671E+03</pdfrwt>
<pdfrwt beam="2">  1       21 0.26612363E-01 0.19303671E+03</pdfrwt>
<totfact> 0.73932085E+04</totfact>
</mgrwt>
</event>
<event>
 4    3  0.3905963E+000  0.2047824E+03  0.7546771E-02  0.1145766E+00
         21   -1    0    0  501  502  0.00000000000E+00  0.00000000000E+00  0.16407434379E+03  0.16407434379E+03  0.00000000000E+00 0. -1.
         21   -1    0    0  502  503 -0.00000000000E+00 -0.00000000000E+00 -0.43131132902E+03  0.43131132902E+03  0.00000000000E+00 0.  1.
          6    1    1    2  501    0  0.80182676879E+02 -0.74683120023E+02  0.56395102265E+02  0.21240583242E+03  0.17300000000E+03 0.  1.
         -6    1    1    2    0  503 -0.80182676879E+02  0.74683120023E+02 -0.32363208750E+03  0.38297984039E+03  0.17300000000E+03 0.  1.
<mgrwt>
<rscale>  2 0.20478240E+03</rscale>
<asrwt>0</asrwt>
<pdfrwt beam="1">  1       21 0.25242207E-01 0.20478240E+03</pdfrwt>
<pdfrwt beam="2">  1       21 0.66355588E-01 0.20478240E+03</pdfrwt>
<totfact> 0.30777357E+04</totfact>
</mgrwt>
</event>
<event>
 4    3  0.3905963E+000  0.1985959E+03  0.7546771E-02  0.1150929E+00
         21   -1    0    0  501  502  0.00000000000E+00  0.00000000000E+00  0.37869817608E+03  0.37869817608E+03  0.00000000000E+00 0.  1.
         21   -1    0    0  502  503 -0.00000000000E+00 -0.00000000000E+00 -0.15510811067E+03  0.15510811067E+03  0.00000000000E+00 0.  1.
          6    1    1    2  501    0 -0.42544697813E+02 -0.87756979363E+02  0.26478227076E+03  0.33098336763E+03  0.17300000000E+03 0.  1.
         -6    1    1    2    0  503  0.42544697813E+02  0.87756979363E+02 -0.41192205353E+02  0.20282291912E+03  0.17300000000E+03 0.  1.
<mgrwt>
<rscale>  2 0.19859592E+03</rscale>
<asrwt>0</asrwt>
<pdfrwt beam="1">  1       21 0.58261258E-01 0.19859592E+03</pdfrwt>
<pdfrwt beam="2">  1       21 0.23862786E-01 0.19859592E+03</pdfrwt>
<totfact> 0.45539910E+04</totfact>
</mgrwt>
</event>
<event>
 4    3  0.3905963E+000  0.2000899E+03  0.7546771E-02  0.1149663E+00
         21   -1    0    0  501  502  0.00000000000E+00  0.00000000000E+00  0.43226206286E+02  0.43226206286E+02  0.00000000000E+00 0. -1.
         21   -1    0    0  502  503 -0.00000000000E+00 -0.00000000000E+00 -0.13128111856E+04  0.13128111856E+04  0.00000000000E+00 0. -1.
          6    1    1    2  501    0 -0.97514099964E+02  0.24453014973E+02 -0.26685007349E+03  0.33353397331E+03  0.17300000000E+03 0.  1.
         -6    1    1    2    0  503  0.97514099964E+02 -0.24453014973E+02 -0.10027349059E+04  0.10225034186E+04  0.17300000000E+03 0.  1.
<mgrwt>
<rscale>  2 0.20008985E+03</rscale>
<asrwt>0</asrwt>
<pdfrwt beam="1">  1       21 0.66501860E-02 0.20008985E+03</pdfrwt>
<pdfrwt beam="2">  1       21 0.20197094E+00 0.20008985E+03</pdfrwt>
<totfact> 0.21431651E+04</totfact>
</mgrwt>
</event>
<event>
 4    3  0.3905963E+000  0.2681461E+03  0.7546771E-02  0.1102345E+00
         21   -1    0    0  503  502  0.00000000000E+00  0.00000000000E+00  0.86645938494E+03  0.86645938494E+03  0.00000000000E+00 0.  1.
         21   -1    0    0  501  503 -0.00000000000E+00 -0.00000000000E+00 -0.77844985615E+03  0.77844985615E+03  0.00000000000E+00 0.  1.
          6    1    1    2  501    0 -0.21729681922E+02 -0.20371834334E+03 -0.73337727473E+03  0.78086142790E+03  0.17300000000E+03 0.  1.
         -6    1    1    2    0  502  0.21729681922E+02  0.20371834334E+03  0.82138680352E+03  0.86404781319E+03  0.17300000000E+03 0.  1.
<mgrwt>
<rscale>  2 0.26814612E+03</rscale>
<asrwt>0</asrwt>
<pdfrwt beam="1">  1       21 0.13330144E+00 0.26814612E+03</pdfrwt>
<pdfrwt beam="2">  1       21 0.11976152E+00 0.26814612E+03</pdfrwt>
<totfact> 0.19846126E+02</totfact>
</mgrwt>
</event>
<event>
 4    3  0.3905963E+000  0.2220859E+03  0.7546771E-02  0.1132337E+00
         21   -1    0    0  503  502  0.00000000000E+00  0.00000000000E+00  0.18436999391E+03  0.18436999391E+03  0.00000000000E+00 0.  1.
         21   -1    0    0  501  503 -0.00000000000E+00 -0.00000000000E+00 -0.41563586583E+03  0.41563586583E+03  0.00000000000E+00 0. -1.
          6    1    1    2  501    0  0.66034040221E+01 -0.13910260907E+03 -0.29472399862E+03  0.36903167365E+03  0.17300000000E+03 0. -1.
         -6    1    1    2    0  502 -0.66034040221E+01  0.13910260907E+03  0.63458126704E+02  0.23097418609E+03  0.17300000000E+03 0.  1.
<mgrwt>
<rscale>  2 0.22208589E+03</rscale>
<asrwt>0</asrwt>
<pdfrwt beam="1">  1       21 0.28364614E-01 0.22208589E+03</pdfrwt>
<pdfrwt beam="2">  1       21 0.63943979E-01 0.22208589E+03</pdfrwt>
<totfact> 0.26405071E+04</totfact>
</mgrwt>
</event>
<event>
 4    3  0.3905963E+000  0.2968349E+03  0.7546771E-02  0.1086834E+00
         21   -1    0    0  501  502  0.00000000000E+00  0.00000000000E+00  0.75600005644E+03  0.75600005644E+03  0.00000000000E+00 0. -1.
         21   -1    0    0  502  503 -0.00000000000E+00 -0.00000000000E+00 -0.16355573443E+03  0.16355573443E+03  0.00000000000E+00 0.  1.
          6    1    1    2  501    0 -0.22463540365E+03  0.87868777416E+02  0.54271007643E+03  0.61858323100E+03  0.17300000000E+03 0. -1.
         -6    1    1    2    0  503  0.22463540365E+03 -0.87868777416E+02  0.49734245585E+02  0.30097255988E+03  0.17300000000E+03 0.  1.
<mgrwt>
<rscale>  2 0.29683495E+03</rscale>
<asrwt>0</asrwt>
<pdfrwt beam="1">  1       21 0.11630770E+00 0.29683495E+03</pdfrwt>
<pdfrwt beam="2">  1       21 0.25162421E-01 0.29683495E+03</pdfrwt>
<totfact> 0.80054617E+03</totfact>
</mgrwt>
</event>
<event>
 4    3  0.3905963E+000  0.1816251E+03  0.7546771E-02  0.1166239E+00
         21   -1    0    0  501  502  0.00000000000E+00  0.00000000000E+00  0.38251355553E+03  0.38251355553E+03  0.00000000000E+00 0. -1.
         21   -1    0    0  502  503 -0.00000000000E+00 -0.00000000000E+00 -0.14604466451E+03  0.14604466451E+03  0.00000000000E+00 0. -1.
          6    1    1    2  501    0 -0.55024071662E+02 -0.55706007923E+01  0.28735261145E+03  0.33993999965E+03  0.17300000000E+03 0. -1.
         -6    1    1    2    0  503  0.55024071662E+02  0.55706007923E+01 -0.50883720428E+02  0.18861822038E+03  0.17300000000E+03 0. -1.
<mgrwt>
<rscale>  2 0.18162511E+03</rscale>
<asrwt>0</asrwt>
<pdfrwt beam="1">  1       21 0.58848239E-01 0.18162511E+03</pdfrwt>
<pdfrwt beam="2">  1       21 0.22468410E-01 0.18162511E+03</pdfrwt>
<totfact> 0.50369741E+04</totfact>
</mgrwt>
</event>
<event>
 4    3  0.3905963E+000  0.1843207E+03  0.7546771E-02  0.1163686E+00
         21   -1    0    0  501  502  0.00000000000E+00  0.00000000000E+00  0.55987078319E+02  0.55987078319E+02  0.00000000000E+00 0.  1.
         21   -1    0    0  502  503 -0.00000000000E+00 -0.00000000000E+00 -0.61491393861E+03  0.61491393861E+03  0.00000000000E+00 0.  1.
          6    1    1    2  501    0 -0.19221908509E+02 -0.60627179045E+02 -0.31794684201E+03  0.36751099433E+03  0.17300000000E+03 0.  1.
         -6    1    1    2    0  503  0.19221908509E+02  0.60627179045E+02 -0.24098001828E+03  0.30339002261E+03  0.17300000000E+03 0.  1.
<mgrwt>
<rscale>  2 0.18432074E+03</rscale>
<asrwt>0</asrwt>
<pdfrwt beam="1">  1       21 0.86133968E-02 0.18432074E+03</pdfrwt>
<pdfrwt beam="2">  1       21 0.94602143E-01 0.18432074E+03</pdfrwt>
<totfact> 0.99018664E+04</totfact>
</mgrwt>
</event>
<event>
 4    3  0.3905963E+000  0.2258549E+03  0.7546771E-02  0.1129592E+00
         21   -1    0    0  503  502  0.00000000000E+00  0.00000000000E+00  0.24122750382E+03  0.24122750382E+03  0.00000000000E+00 0.  1.
         21   -1    0    0  501  503 -0.00000000000E+00 -0.00000000000E+00 -0.35554096624E+03  0.35554096624E+03  0.00000000000E+00 0.  1.
          6    1    1    2  501    0 -0.11259727799E+03  0.91669390309E+02 -0.24710332308E+03  0.33476928833E+03  0.17300000000E+03 0.  1.
         -6    1    1    2    0  502  0.11259727799E+03 -0.91669390309E+02  0.13278986067E+03  0.26199918173E+03  0.17300000000E+03 0.  1.
<mgrwt>
<rscale>  2 0.22585487E+03</rscale>
<asrwt>0</asrwt>
<pdfrwt beam="1">  1       21 0.37111924E-01 0.22585487E+03</pdfrwt>
<pdfrwt beam="2">  1       21 0.54698610E-01 0.22585487E+03</pdfrwt>
<totfact> 0.21685736E+04</totfact>
</mgrwt>
</event>
<event>
 4    3  0.3905963E+000  0.1741250E+03  0.7546771E-02  0.1173613E+00
         21   -1    0    0  503  502  0.00000000000E+00  0.00000000000E+00  0.12605820148E+03  0.12605820148E+03  0.00000000000E+00 0.  1.
         21   -1    0    0  501  503 -0.00000000000E+00 -0.00000000000E+00 -0.56908259805E+03  0.56908259805E+03  0.00000000000E+00 0.  1.
          6    1    1    2  501    0 -0.12198975904E+02 -0.15547019529E+02 -0.48560961921E+03  0.51588392793E+03  0.17300000000E+03 0.  1.
         -6    1    1    2    0  502  0.12198975904E+02  0.15547019529E+02  0.42585222642E+02  0.17925687160E+03  0.17300000000E+03 0.  1.
<mgrwt>
<rscale>  2 0.17412503E+03</rscale>
<asrwt>0</asrwt>
<pdfrwt beam="1">  1       21 0.19393569E-01 0.17412503E+03</pdfrwt>
<pdfrwt beam="2">  1       21 0.87551169E-01 0.17412503E+03</pdfrwt>
<totfact> 0.27665463E+04</totfact>
</mgrwt>
</event>
<event>
 4    3  0.3905963E+000  0.1826064E+03  0.7546771E-02  0.1165304E+00
         21   -1    0    0  501  502  0.00000000000E+00  0.00000000000E+00  0.54816398882E+02  0.54816398882E+02  0.00000000000E+00 0.  1.
         21   -1    0    0  502  503 -0.00000000000E+00 -0.00000000000E+00 -0.84981743194E+03  0.84981743194E+03  0.00000000000E+00 0.  1.
          6    1    1    2  501    0  0.54864123988E+02  0.20149929928E+02 -0.15637136367E+03  0.24041026424E+03  0.17300000000E+03 0.  1.
         -6    1    1    2    0  503 -0.54864123988E+02 -0.20149929928E+02 -0.63862966939E+03  0.66422356658E+03  0.17300000000E+03 0.  1.
<mgrwt>
<rscale>  2 0.18260638E+03</rscale>
<asrwt>0</asrwt>
<pdfrwt beam="1">  1       21 0.84332925E-02 0.18260638E+03</pdfrwt>
<pdfrwt beam="2">  1       21 0.13074114E+00 0.18260638E+03</pdfrwt>
<totfact> 0.46892776E+04</totfact>
</mgrwt>
</event>
<event>
 4    3  0.3905963E+000  0.2562842E+03  0.7546771E-02  0.1109397E+00
         21   -1    0    0  501  502  0.00000000000E+00  0.00000000000E+00  0.13659325802E+03  0.13659325802E+03  0.00000000000E+00 0. -1.
         21   -1    0    0  502  503 -0.00000000000E+00 -0.00000000000E+00 -0.71734273804E+03  0.71734273804E+03  0.00000000000E+00 0. -1.
          6    1    1    2  501    0 -0.63693265377E+02  0.17803299946E+03 -0.45222376305E+02  0.26024343271E+03  0.17300000000E+03 0. -1.
         -6    1    1    2    0  503  0.63693265377E+02 -0.17803299946E+03 -0.53552710372E+03  0.59369256335E+03  0.17300000000E+03 0. -1.
<mgrwt>
<rscale>  2 0.25628418E+03</rscale>
<asrwt>0</asrwt>
<pdfrwt beam="1">  1       21 0.21014347E-01 0.25628418E+03</pdfrwt>
<pdfrwt beam="2">  1       21 0.11036042E+00 0.25628418E+03</pdfrwt>
<totfact> 0.13116424E+04</totfact>
</mgrwt>
</event>
<event>
 4    3  0.3905963E+000  0.2499239E+03  0.7546771E-02  0.1113353E+00
         21   -1    0    0  503  502  0.00000000000E+00  0.00000000000E+00  0.23364224452E+04  0.23364224452E+04  0.00000000000E+00 0.  1.
         21   -1    0    0  501  503 -0.00000000000E+00 -0.00000000000E+00 -0.28088243478E+02  0.28088243478E+02  0.00000000000E+00 0. -1.
          6    1    1    2  501    0 -0.27673069211E+02  0.17823348162E+03  0.89457373371E+03  0.92882944493E+03  0.17300000000E+03 0. -1.
         -6    1    1    2    0  502  0.27673069211E+02 -0.17823348162E+03  0.14137604680E+04  0.14356812438E+04  0.17300000000E+03 0.  1.
<mgrwt>
<rscale>  2 0.24992393E+03</rscale>
<asrwt>0</asrwt>
<pdfrwt beam="1">  1       21 0.35944945E+00 0.24992393E+03</pdfrwt>
<pdfrwt beam="2">  1       21 0.43212701E-02 0.24992393E+03</pdfrwt>
<totfact> 0.49576535E+03</totfact>
</mgrwt>
</event>
<event>
 4    3  0.3905963E+000  0.1775686E+03  0.7546771E-02  0.1170177E+00
         21   -1    0    0  503  502  0.00000000000E+00  0.00000000000E+00  0.83899473794E+02  0.83899473794E+02  0.00000000000E+00 0.  1.
         21   -1    0    0  501  503 -0.00000000000E+00 -0.00000000000E+00 -0.11631275955E+04  0.11631275955E+04  0.00000000000E+00 0.  1.
          6    1    1    2  501    0 -0.37414234484E+02  0.14204974297E+02 -0.10526006953E+04  0.10674731050E+04  0.17300000000E+03 0.  1.
         -6    1    1    2    0  502  0.37414234484E+02 -0.14204974297E+02 -0.26627426387E+02  0.17955396424E+03  0.17300000000E+03 0.  1.
<mgrwt>
<rscale>  2 0.17756860E+03</rscale>
<asrwt>0</asrwt>
<pdfrwt beam="1">  1       21 0.12907612E-01 0.17756860E+03</pdfrwt>
<pdfrwt beam="2">  1       21 0.17894270E+00 0.17756860E+03</pdfrwt>
<totfact> 0.96450181E+03</totfact>
</mgrwt>
</event>
<event>
 4    3  0.3905963E+000  0.1952216E+03  0.7546771E-02  0.1153834E+00
         21   -1    0    0  501  502  0.00000000000E+00  0.00000000000E+00  0.60679255231E+03  0.60679255231E+03  0.00000000000E+00 0. -1.
         21   -1    0    0  502  503 -0.00000000000E+00 -0.00000000000E+00 -0.62961983119E+02  0.62961983119E+02  0.00000000000E+00 0.  1.
          6    1    1    2  501    0  0.80742531964E+02 -0.40781282733E+02  0.28847235079E+03  0.34832135544E+03  0.17300000000E+03 0. -1.
         -6    1    1    2    0  503 -0.80742531964E+02  0.40781282733E+02  0.25535821841E+03  0.32143317999E+03  0.17300000000E+03 0.  1.
<mgrwt>
<rscale>  2 0.19522159E+03</rscale>
<asrwt>0</asrwt>
<pdfrwt beam="1">  1       21 0.93352697E-01 0.19522159E+03</pdfrwt>
<pdfrwt beam="2">  1       21 0.96864593E-02 0.19522159E+03</pdfrwt>
<totfact> 0.82740322E+04</totfact>
</mgrwt>
</event>
<event>
 4    3  0.3905963E+000  0.1758022E+03  0.7546771E-02  0.1171929E+00
         21   -1    0    0  501  502  0.00000000000E+00  0.00000000000E+00  0.77253048343E+02  0.77253048343E+02  0.00000000000E+00 0.  1.
         21   -1    0    0  502  503 -0.00000000000E+00 -0.00000000000E+00 -0.41825452743E+03  0.41825452743E+03  0.00000000000E+00 0.  1.
          6    1    1    2  501    0  0.31243857888E+02 -0.11181082553E+01 -0.22216397803E+03  0.28330771602E+03  0.17300000000E+03 0.  1.
         -6    1    1    2    0  503 -0.31243857888E+02  0.11181082553E+01 -0.11883750105E+03  0.21219985975E+03  0.17300000000E+03 0.  1.
<mgrwt>
<rscale>  2 0.17580224E+03</rscale>
<asrwt>0</asrwt>
<pdfrwt beam="1">  1       21 0.11885085E-01 0.17580224E+03</pdfrwt>
<pdfrwt beam="2">  1       21 0.64346849E-01 0.17580224E+03</pdfrwt>
<totfact> 0.13379261E+05</totfact>
</mgrwt>
</event>
<event>
 4    3  0.3905963E+000  0.2254716E+03  0.7546771E-02  0.1129868E+00
         21   -1    0    0  503  502  0.00000000000E+00  0.00000000000E+00  0.61913208475E+02  0.61913208475E+02  0.00000000000E+00 0.  1.
         21   -1    0    0  501  503 -0.00000000000E+00 -0.00000000000E+00 -0.82522083552E+03  0.82522083552E+03  0.00000000000E+00 0.  1.
          6    1    1    2  501    0  0.91554227330E+02  0.11192071110E+03 -0.35033882752E+03  0.41662299046E+03  0.17300000000E+03 0.  1.
         -6    1    1    2    0  502 -0.91554227330E+02 -0.11192071110E+03 -0.41296879953E+03  0.47051105354E+03  0.17300000000E+03 0.  1.
<mgrwt>
<rscale>  2 0.22547156E+03</rscale>
<asrwt>0</asrwt>
<pdfrwt beam="1">  1       21 0.95251088E-02 0.22547156E+03</pdfrwt>
<pdfrwt beam="2">  1       21 0.12695705E+00 0.22547156E+03</pdfrwt>
<totfact> 0.39849559E+04</totfact>
</mgrwt>
</event>
<event>
 4    3  0.3905963E+000  0.1886852E+03  0.7546771E-02  0.1159653E+00
         21   -1    0    0  503  502  0.00000000000E+00  0.00000000000E+00  0.26547575258E+03  0.26547575258E+03  0.00000000000E+00 0. -1.
         21   -1    0    0  501  503 -0.00000000000E+00 -0.00000000000E+00 -0.21220088368E+03  0.21220088368E+03  0.00000000000E+00 0.  1.
          6    1    1    2  501    0 -0.14497204595E+02 -0.73911755515E+02 -0.11825287566E+03  0.22267882510E+03  0.17300000000E+03 0.  1.
         -6    1    1    2    0  502  0.14497204595E+02  0.73911755515E+02  0.17152774456E+03  0.25499781116E+03  0.17300000000E+03 0. -1.
<mgrwt>
<rscale>  2 0.18868523E+03</rscale>
<asrwt>0</asrwt>
<pdfrwt beam="1">  1       21 0.40842423E-01 0.18868523E+03</pdfrwt>
<pdfrwt beam="2">  1       21 0.32646290E-01 0.18868523E+03</pdfrwt>
<totfact> 0.52243742E+04</totfact>
</mgrwt>
</event>
<event>
 4    3  0.3905963E+000  0.2112819E+03  0.7546771E-02  0.1140555E+00
         21   -1    0    0  501  502  0.00000000000E+00  0.00000000000E+00  0.79176165757E+03  0.79176165757E+03  0.00000000000E+00 0.  1.
         21   -1    0    0  502  503 -0.00000000000E+00 -0.00000000000E+00 -0.39684623507E+03  0.39684623507E+03  0.00000000000E+00 0.  1.
          6    1    1    2  501    0  0.89501071102E+02 -0.81857084494E+02  0.74792827708E+03  0.77719800030E+03  0.17300000000E+03 0.  1.
         -6    1    1    2    0  503 -0.89501071102E+02  0.81857084494E+02 -0.35301285459E+03  0.41140989234E+03  0.17300000000E+03 0.  1.
<mgrwt>
<rscale>  2 0.21128186E+03</rscale>
<asrwt>0</asrwt>
<pdfrwt beam="1">  1       21 0.12180949E+00 0.21128186E+03</pdfrwt>
<pdfrwt beam="2">  1       21 0.61053267E-01 0.21128186E+03</pdfrwt>
<totfact> 0.12474266E+03</totfact>
</mgrwt>
</event>
<event>
 4    3  0.3905963E+000  0.2168999E+03  0.7546771E-02  0.1136216E+00
         21   -1    0    0  503  502  0.00000000000E+00  0.00000000000E+00  0.73827066175E+03  0.73827066175E+03  0.00000000000E+00 0. -1.
         21   -1    0    0  501  503 -0.00000000000E+00 -0.00000000000E+00 -0.10730181671E+03  0.10730181671E+03  0.00000000000E+00 0.  1.
          6    1    1    2  501    0  0.53627376242E+02 -0.11933425736E+03  0.46051889250E+02  0.22173483481E+03  0.17300000000E+03 0.  1.
         -6    1    1    2    0  502 -0.53627376242E+02  0.11933425736E+03  0.58491695579E+03  0.62383764365E+03  0.17300000000E+03 0. -1.
<mgrwt>
<rscale>  2 0.21689989E+03</rscale>
<asrwt>0</asrwt>
<pdfrwt beam="1">  1       21 0.11358010E+00 0.21689989E+03</pdfrwt>
<pdfrwt beam="2">  1       21 0.16507972E-01 0.21689989E+03</pdfrwt>
<totfact> 0.19600231E+04</totfact>
</mgrwt>
</event>
<event>
 4    3  0.3905963E+000  0.1821234E+03  0.7546771E-02  0.1165764E+00
         21   -1    0    0  503  502  0.00000000000E+00  0.00000000000E+00  0.22776943328E+03  0.22776943328E+03  0.00000000000E+00 0.  1.
         21   -1    0    0  501  503 -0.00000000000E+00 -0.00000000000E+00 -0.15989197707E+03  0.15989197707E+03  0.00000000000E+00 0.  1.
          6    1    1    2  501    0  0.54476686870E+02  0.16498938424E+02 -0.23960820367E+02  0.18369280142E+03  0.17300000000E+03 0.  1.
         -6    1    1    2    0  502 -0.54476686870E+02 -0.16498938424E+02  0.91838276584E+02  0.20396860893E+03  0.17300000000E+03 0.  1.
<mgrwt>
<rscale>  2 0.18212338E+03</rscale>
<asrwt>0</asrwt>
<pdfrwt beam="1">  1       21 0.35041451E-01 0.18212338E+03</pdfrwt>
<pdfrwt beam="2">  1       21 0.24598766E-01 0.18212338E+03</pdfrwt>
<totfact> 0.12309171E+05</totfact>
</mgrwt>
</event>
<event>
 4    3  0.3905963E+000  0.2462347E+03  0.7546771E-02  0.1115708E+00
         21   -1    0    0  503  502  0.00000000000E+00  0.00000000000E+00  0.17332046163E+03  0.17332046163E+03  0.00000000000E+00 0. -1.
         21   -1    0    0  501  503 -0.00000000000E+00 -0.00000000000E+00 -0.88228863983E+03  0.88228863983E+03  0.00000000000E+00 0.  1.
          6    1    1    2  501    0  0.16232099221E+03 -0.65988193421E+02 -0.76451201274E+03  0.80318750227E+03  0.17300000000E+03 0.  1.
         -6    1    1    2    0  502 -0.16232099221E+03  0.65988193421E+02  0.55543834539E+02  0.25242159919E+03  0.17300000000E+03 0. -1.
<mgrwt>
<rscale>  2 0.24623474E+03</rscale>
<asrwt>0</asrwt>
<pdfrwt beam="1">  1       21 0.26664687E-01 0.24623474E+03</pdfrwt>
<pdfrwt beam="2">  1       21 0.13573671E+00 0.24623474E+03</pdfrwt>
<totfact> 0.49828536E+03</totfact>
</mgrwt>
</event>
<event>
 4    3  0.3905963E+000  0.1757424E+03  0.7546771E-02  0.1171988E+00
         21   -1    0    0  503  502  0.00000000000E+00  0.00000000000E+00  0.15272926761E+03  0.15272926761E+03  0.00000000000E+00 0. -1.
         21   -1    0    0  501  503 -0.00000000000E+00 -0.00000000000E+00 -0.29843536789E+03  0.29843536789E+03  0.00000000000E+00 0. -1.
          6    1    1    2  501    0 -0.27694320289E+02  0.13762919914E+02 -0.20093709264E+03  0.26694776369E+03  0.17300000000E+03 0. -1.
         -6    1    1    2    0  502  0.27694320289E+02 -0.13762919914E+02  0.55230992367E+02  0.18421687181E+03  0.17300000000E+03 0. -1.
<mgrwt>
<rscale>  2 0.17574241E+03</rscale>
<asrwt>0</asrwt>
<pdfrwt beam="1">  1       21 0.23496811E-01 0.17574241E+03</pdfrwt>
<pdfrwt beam="2">  1       21 0.45913133E-01 0.17574241E+03</pdfrwt>
<totfact> 0.78041697E+04</totfact>
</mgrwt>
</event>
<event>
 4    3  0.3905963E+000  0.1756657E+03  0.7546771E-02  0.1172065E+00
         21   -1    0    0  503  502  0.00000000000E+00  0.00000000000E+00  0.61301040087E+03  0.61301040087E+03  0.00000000000E+00 0.  1.
         21   -1    0    0  501  503 -0.00000000000E+00 -0.00000000000E+00 -0.71613467360E+02  0.71613467360E+02  0.00000000000E+00 0.  1.
          6    1    1    2  501    0 -0.30081779033E+02 -0.49516286597E+01  0.84123940543E+02  0.19476978572E+03  0.17300000000E+03 0.  1.
         -6    1    1    2    0  502  0.30081779033E+02  0.49516286597E+01  0.45727299297E+03  0.48985408251E+03  0.17300000000E+03 0.  1.
<mgrwt>
<rscale>  2 0.17566568E+03</rscale>
<asrwt>0</asrwt>
<pdfrwt beam="1">  1       21 0.94309289E-01 0.17566568E+03</pdfrwt>
<pdfrwt beam="2">  1       21 0.11017457E-01 0.17566568E+03</pdfrwt>
<totfact> 0.64907441E+04</totfact>
</mgrwt>
</event>
<event>
 4    3  0.3905963E+000  0.2856399E+03  0.7546771E-02  0.1092648E+00
         21   -1    0    0  501  502  0.00000000000E+00  0.00000000000E+00  0.90769875553E+02  0.90769875553E+02  0.00000000000E+00 0. -1.
         21   -1    0    0  502  503 -0.00000000000E+00 -0.00000000000E+00 -0.89887741422E+03  0.89887741422E+03  0.00000000000E+00 0.  1.
          6    1    1    2  501    0  0.22695904000E+03 -0.12277644830E+02 -0.40564583579E+03  0.49612366452E+03  0.17300000000E+03 0. -1.
         -6    1    1    2    0  503 -0.22695904000E+03  0.12277644830E+02 -0.40246170288E+03  0.49352362526E+03  0.17300000000E+03 0. -1.
<mgrwt>
<rscale>  2 0.28563989E+03</rscale>
<asrwt>0</asrwt>
<pdfrwt beam="1">  1       21 0.13964596E-01 0.28563989E+03</pdfrwt>
<pdfrwt beam="2">  1       21 0.13828884E+00 0.28563989E+03</pdfrwt>
<totfact> 0.15633515E+04</totfact>
</mgrwt>
</event>
<event>
 4    3  0.3905963E+000  0.2859943E+03  0.7546771E-02  0.1092459E+00
         21   -1    0    0  501  502  0.00000000000E+00  0.00000000000E+00  0.61365117707E+03  0.61365117707E+03  0.00000000000E+00 0.  1.
         21   -1    0    0  502  503 -0.00000000000E+00 -0.00000000000E+00 -0.21312870436E+03  0.21312870436E+03  0.00000000000E+00 0.  1.
          6    1    1    2  501    0  0.12572288210E+03  0.18988817567E+03  0.45327796224E+03  0.53596051478E+03  0.17300000000E+03 0.  1.
         -6    1    1    2    0  503 -0.12572288210E+03 -0.18988817567E+03 -0.52755489536E+02  0.29081936665E+03  0.17300000000E+03 0.  1.
<mgrwt>
<rscale>  2 0.28599434E+03</rscale>
<asrwt>0</asrwt>
<pdfrwt beam="1">  1       21 0.94407873E-01 0.28599434E+03</pdfrwt>
<pdfrwt beam="2">  1       21 0.32789032E-01 0.28599434E+03</pdfrwt>
<totfact> 0.79483785E+03</totfact>
</mgrwt>
</event>
<event>
 4    3  0.3905963E+000  0.1767001E+03  0.7546771E-02  0.1171035E+00
         21   -1    0    0  503  502  0.00000000000E+00  0.00000000000E+00  0.29339240637E+03  0.29339240637E+03  0.00000000000E+00 0. -1.
         21   -1    0    0  501  503 -0.00000000000E+00 -0.00000000000E+00 -0.17403380592E+03  0.17403380592E+03  0.00000000000E+00 0. -1.
          6    1    1    2  501    0  0.10020920040E+02 -0.34547005703E+02 -0.85994991357E+02  0.19651476530E+03  0.17300000000E+03 0. -1.
         -6    1    1    2    0  502 -0.10020920040E+02  0.34547005703E+02  0.20535359181E+03  0.27091144699E+03  0.17300000000E+03 0. -1.
<mgrwt>
<rscale>  2 0.17670007E+03</rscale>
<asrwt>0</asrwt>
<pdfrwt beam="1">  1       21 0.45137293E-01 0.17670007E+03</pdfrwt>
<pdfrwt beam="2">  1       21 0.26774432E-01 0.17670007E+03</pdfrwt>
<totfact> 0.62988468E+04</totfact>
</mgrwt>
</event>
<event>
 4    3  0.3905963E+000  0.3289131E+03  0.7546771E-02  0.1071619E+00
         21   -1    0    0  503  502  0.00000000000E+00  0.00000000000E+00  0.24112214803E+03  0.24112214803E+03  0.00000000000E+00 0.  1.
         21   -1    0    0  501  503 -0.00000000000E+00 -0.00000000000E+00 -0.46748385830E+03  0.46748385830E+03  0.00000000000E+00 0.  1.
          6    1    1    2  501    0 -0.23332830267E+03  0.15431372645E+03 -0.42100096799E+02  0.33159650353E+03  0.17300000000E+03 0.  1.
         -6    1    1    2    0  502  0.23332830267E+03 -0.15431372645E+03 -0.18426161347E+03  0.37700950280E+03  0.17300000000E+03 0.  1.
<mgrwt>
<rscale>  2 0.32891309E+03</rscale>
<asrwt>0</asrwt>
<pdfrwt beam="1">  1       21 0.37095715E-01 0.32891309E+03</pdfrwt>
<pdfrwt beam="2">  1       21 0.71920593E-01 0.32891309E+03</pdfrwt>
<totfact> 0.11390495E+04</totfact>
</mgrwt>
</event>
<event>
 4    3  0.3905963E+000  0.2458560E+03  0.7546771E-02  0.1115952E+00
         21   -1    0    0  501  502  0.00000000000E+00  0.00000000000E+00  0.44514011856E+03  0.44514011856E+03  0.00000000000E+00 0.  1.
         21   -1    0    0  502  503 -0.00000000000E+00 -0.00000000000E+00 -0.15098197650E+03  0.15098197650E+03  0.00000000000E+00 0. -1.
          6    1    1    2  501    0  0.11945402365E+03  0.12746329008E+03  0.24162947311E+03  0.34471721216E+03  0.17300000000E+03 0. -1.
         -6    1    1    2    0  503 -0.11945402365E+03 -0.12746329008E+03  0.52528668949E+02  0.25140488290E+03  0.17300000000E+03 0. -1.
<mgrwt>
<rscale>  2 0.24585596E+03</rscale>
<asrwt>0</asrwt>
<pdfrwt beam="1">  1       21 0.68483095E-01 0.24585596E+03</pdfrwt>
<pdfrwt beam="2">  1       21 0.23227997E-01 0.24585596E+03</pdfrwt>
<totfact> 0.32984371E+04</totfact>
</mgrwt>
</event>
<event>
 4    3  0.3905963E+000  0.1800440E+03  0.7546771E-02  0.1167760E+00
         21   -1    0    0  503  502  0.00000000000E+00  0.00000000000E+00  0.79610164410E+03  0.79610164410E+03  0.00000000000E+00 0.  1.
         21   -1    0    0  501  503 -0.00000000000E+00 -0.00000000000E+00 -0.53390496496E+02  0.53390496496E+02  0.00000000000E+00 0.  1.
          6    1    1    2  501    0  0.38088992753E+02  0.32187934310E+02  0.16442490129E+03  0.24382654213E+03  0.17300000000E+03 0.  1.
         -6    1    1    2    0  502 -0.38088992753E+02 -0.32187934310E+02  0.57828624632E+03  0.60566559847E+03  0.17300000000E+03 0.  1.
<mgrwt>
<rscale>  2 0.18004398E+03</rscale>
<asrwt>0</asrwt>
<pdfrwt beam="1">  1       21 0.12247717E+00 0.18004398E+03</pdfrwt>
<pdfrwt beam="2">  1       21 0.82139232E-02 0.18004398E+03</pdfrwt>
<totfact> 0.57894681E+04</totfact>
</mgrwt>
</event>
<event>
 4    3  0.3905963E+000  0.2482393E+03  0.7546771E-02  0.1114423E+00
         21   -1    0    0  501  502  0.00000000000E+00  0.00000000000E+00  0.13474953836E+03  0.13474953836E+03  0.00000000000E+00 0.  1.
         21   -1    0    0  502  503 -0.00000000000E+00 -0.00000000000E+00 -0.45744169674E+03  0.45744169674E+03  0.00000000000E+00 0.  1.
          6    1    1    2  501    0  0.34629243759E+02 -0.17462690579E+03 -0.16630895227E+03  0.29879994704E+03  0.17300000000E+03 0.  1.
         -6    1    1    2    0  503 -0.34629243759E+02  0.17462690579E+03 -0.15638320611E+03  0.29339128805E+03  0.17300000000E+03 0.  1.
<mgrwt>
<rscale>  2 0.24823928E+03</rscale>
<asrwt>0</asrwt>
<pdfrwt beam="1">  1       21 0.20730698E-01 0.24823928E+03</pdfrwt>
<pdfrwt beam="2">  1       21 0.70375645E-01 0.24823928E+03</pdfrwt>
<totfact> 0.38482275E+04</totfact>
</mgrwt>
</event>
<event>
 4    3  0.3905963E+000  0.2017799E+03  0.7546771E-02  0.1148246E+00
         21   -1    0    0  503  502  0.00000000000E+00  0.00000000000E+00  0.17451719390E+03  0.17451719390E+03  0.00000000000E+00 0.  1.
         21   -1    0    0  501  503 -0.00000000000E+00 -0.00000000000E+00 -0.23656118745E+03  0.23656118745E+03  0.00000000000E+00 0. -1.
          6    1    1    2  501    0  0.28528431629E+02 -0.99861253533E+02 -0.55149029220E+02  0.20918067978E+03  0.17300000000E+03 0.  1.
         -6    1    1    2    0  502 -0.28528431629E+02  0.99861253533E+02 -0.68949643255E+01  0.20189770158E+03  0.17300000000E+03 0. -1.
<mgrwt>
<rscale>  2 0.20177993E+03</rscale>
<asrwt>0</asrwt>
<pdfrwt beam="1">  1       21 0.26848799E-01 0.20177993E+03</pdfrwt>
<pdfrwt beam="2">  1       21 0.36394028E-01 0.20177993E+03</pdfrwt>
<totfact> 0.95833853E+04</totfact>
</mgrwt>
</event>
<event>
 4    3  0.3905963E+000  0.1737158E+03  0.7546771E-02  0.1174027E+00
         21   -1    0    0  503  502  0.00000000000E+00  0.00000000000E+00  0.98826561663E+02  0.98826561663E+02  0.00000000000E+00 0. -1.
         21   -1    0    0  501  503 -0.00000000000E+00 -0.00000000000E+00 -0.35426126162E+03  0.35426126162E+03  0.00000000000E+00 0. -1.
          6    1    1    2  501    0 -0.15513821272E+02 -0.27379046310E+01 -0.21189043478E+03  0.27399768452E+03  0.17300000000E+03 0. -1.
         -6    1    1    2    0  502  0.15513821272E+02  0.27379046310E+01 -0.43544265180E+02  0.17909013876E+03  0.17300000000E+03 0. -1.
<mgrwt>
<rscale>  2 0.17371579E+03</rscale>
<asrwt>0</asrwt>
<pdfrwt beam="1">  1       21 0.15204086E-01 0.17371579E+03</pdfrwt>
<pdfrwt beam="2">  1       21 0.54501732E-01 0.17371579E+03</pdfrwt>
<totfact> 0.12253209E+05</totfact>
</mgrwt>
</event>
<event>
 4    3  0.3905963E+000  0.2995533E+03  0.7546771E-02  0.1085464E+00
         21   -1    0    0  501  502  0.00000000000E+00  0.00000000000E+00  0.25670593029E+03  0.25670593029E+03  0.00000000000E+00 0.  1.
         21   -1    0    0  502  503 -0.00000000000E+00 -0.00000000000E+00 -0.64867862116E+03  0.64867862116E+03  0.00000000000E+00 0. -1.
          6    1    1    2  501    0 -0.68793466036E+02 -0.23467132120E+03 -0.50339461451E+03  0.58578008491E+03  0.17300000000E+03 0. -1.
         -6    1    1    2    0  503  0.68793466036E+02  0.23467132120E+03  0.11142192364E+03  0.31960446654E+03  0.17300000000E+03 0.  1.
<mgrwt>
<rscale>  2 0.29955328E+03</rscale>
<asrwt>0</asrwt>
<pdfrwt beam="1">  1       21 0.39493220E-01 0.29955328E+03</pdfrwt>
<pdfrwt beam="2">  1       21 0.99796710E-01 0.29955328E+03</pdfrwt>
<totfact> 0.47571016E+03</totfact>
</mgrwt>
</event>
<event>
 4    3  0.3905963E+000  0.1838619E+03  0.7546771E-02  0.1164117E+00
         21   -1    0    0  501  502  0.00000000000E+00  0.00000000000E+00  0.27984444884E+02  0.27984444884E+02  0.00000000000E+00 0. -1.
         21   -1    0    0  502  503 -0.00000000000E+00 -0.00000000000E+00 -0.15906059869E+04  0.15906059869E+04  0.00000000000E+00 0. -1.
          6    1    1    2  501    0 -0.41932321108E+02 -0.46020374826E+02 -0.38439180533E+03  0.42610122560E+03  0.17300000000E+03 0. -1.
         -6    1    1    2    0  503  0.41932321108E+02  0.46020374826E+02 -0.11782297367E+04  0.11924892062E+04  0.17300000000E+03 0. -1.
<mgrwt>
<rscale>  2 0.18386189E+03</rscale>
<asrwt>0</asrwt>
<pdfrwt beam="1">  1       21 0.43052984E-02 0.18386189E+03</pdfrwt>
<pdfrwt beam="2">  1       21 0.24470866E+00 0.18386189E+03</pdfrwt>
<totfact> 0.24928062E+04</totfact>
</mgrwt>
</event>
<event>
 4    3  0.3905963E+000  0.2713618E+03  0.7546771E-02  0.1100503E+00
         21   -1    0    0  501  502  0.00000000000E+00  0.00000000000E+00  0.20128126937E+03  0.20128126937E+03  0.00000000000E+00 0.  1.
         21   -1    0    0  502  503 -0.00000000000E+00 -0.00000000000E+00 -0.36612585348E+03  0.36612585348E+03  0.00000000000E+00 0.  1.
          6    1    1    2  501    0  0.10989130667E+03 -0.17785422412E+03 -0.90316056657E+02  0.28599687832E+03  0.17300000000E+03 0.  1.
         -6    1    1    2    0  503 -0.10989130667E+03  0.17785422412E+03 -0.74528527455E+02  0.28141024453E+03  0.17300000000E+03 0.  1.
<mgrwt>
<rscale>  2 0.27136180E+03</rscale>
<asrwt>0</asrwt>
<pdfrwt beam="1">  1       21 0.30966349E-01 0.27136180E+03</pdfrwt>
<pdfrwt beam="2">  1       21 0.56327054E-01 0.27136180E+03</pdfrwt>
<totfact> 0.28591744E+04</totfact>
</mgrwt>
</event>
<event>
 4    3  0.3905963E+000  0.2486495E+03  0.7546771E-02  0.1114161E+00
         21   -1    0    0  501  502  0.00000000000E+00  0.00000000000E+00  0.18997123240E+03  0.18997123240E+03  0.00000000000E+00 0.  1.
         21   -1    0    0  502  503 -0.00000000000E+00 -0.00000000000E+00 -0.36000322692E+03  0.36000322692E+03  0.00000000000E+00 0. -1.
          6    1    1    2  501    0 -0.11966616342E+03 -0.13258053697E+03  0.17401610920E+00  0.24864959226E+03  0.17300000000E+03 0.  1.
         -6    1    1    2    0  503  0.11966616342E+03  0.13258053697E+03 -0.17020601064E+03  0.30132486706E+03  0.17300000000E+03 0. -1.
<mgrwt>
<rscale>  2 0.24864953E+03</rscale>
<asrwt>0</asrwt>
<pdfrwt beam="1">  1       21 0.29226344E-01 0.24864953E+03</pdfrwt>
<pdfrwt beam="2">  1       21 0.55385111E-01 0.24864953E+03</pdfrwt>
<totfact> 0.33525888E+04</totfact>
</mgrwt>
</event>
<event>
 4    3  0.3905963E+000  0.3228164E+03  0.7546771E-02  0.1074360E+00
         21   -1    0    0  501  502  0.00000000000E+00  0.00000000000E+00  0.94008732180E+03  0.94008732180E+03  0.00000000000E+00 0. -1.
         21   -1    0    0  502  503 -0.00000000000E+00 -0.00000000000E+00 -0.24923035232E+03  0.24923035232E+03  0.00000000000E+00 0.  1.
          6    1    1    2  501    0  0.24130589125E+03  0.12669991285E+03  0.78852848879E+03  0.85204904712E+03  0.17300000000E+03 0. -1.
         -6    1    1    2    0  503 -0.24130589125E+03 -0.12669991285E+03 -0.97671519313E+02  0.33726862699E+03  0.17300000000E+03 0.  1.
<mgrwt>
<rscale>  2 0.32281636E+03</rscale>
<asrwt>0</asrwt>
<pdfrwt beam="1">  1       21 0.14462882E+00 0.32281636E+03</pdfrwt>
<pdfrwt beam="2">  1       21 0.38343131E-01 0.32281636E+03</pdfrwt>
<totfact> 0.19601570E+03</totfact>
</mgrwt>
</event>
<event>
 4    3  0.3905963E+000  0.2079192E+03  0.7546771E-02  0.1143224E+00
         21   -1    0    0  503  502  0.00000000000E+00  0.00000000000E+00  0.50599849327E+03  0.50599849327E+03  0.00000000000E+00 0.  1.
         21   -1    0    0  501  503 -0.00000000000E+00 -0.00000000000E+00 -0.11486761105E+03  0.11486761105E+03  0.00000000000E+00 0.  1.
          6    1    1    2  501    0  0.21962302516E+02 -0.11322126154E+03  0.38428788514E+02  0.21144069756E+03  0.17300000000E+03 0.  1.
         -6    1    1    2    0  502 -0.21962302516E+02  0.11322126154E+03  0.35270209371E+03  0.40942540676E+03  0.17300000000E+03 0.  1.
<mgrwt>
<rscale>  2 0.20791921E+03</rscale>
<asrwt>0</asrwt>
<pdfrwt beam="1">  1       21 0.77845921E-01 0.20791921E+03</pdfrwt>
<pdfrwt beam="2">  1       21 0.17671940E-01 0.20791921E+03</pdfrwt>
<totfact> 0.42150936E+04</totfact>
</mgrwt>
</event>
<event>
 4    3  0.3905963E+000  0.3117894E+03  0.7546771E-02  0.1079491E+00
         21   -1    0    0  503  502  0.00000000000E+00  0.00000000000E+00  0.26467705104E+03  0.26467705104E+03  0.00000000000E+00 0. -1.
         21   -1    0    0  501  503 -0.00000000000E+00 -0.00000000000E+00 -0.39551696921E+03  0.39551696921E+03  0.00000000000E+00 0.  1.
          6    1    1    2  501    0 -0.63196786810E+02  0.25157460248E+03 -0.15360789197E+03  0.34757445095E+03  0.17300000000E+03 0.  1.
         -6    1    1    2    0  502  0.63196786810E+02 -0.25157460248E+03  0.22767973798E+02  0.31261956930E+03  0.17300000000E+03 0. -1.
<mgrwt>
<rscale>  2 0.31178938E+03</rscale>
<asrwt>0</asrwt>
<pdfrwt beam="1">  1       21 0.40719546E-01 0.31178938E+03</pdfrwt>
<pdfrwt beam="2">  1       21 0.60848764E-01 0.31178938E+03</pdfrwt>
<totfact> 0.13731264E+04</totfact>
</mgrwt>
</event>
<event>
 4    3  0.3905963E+000  0.2029975E+03  0.7546771E-02  0.1147234E+00
         21   -1    0    0  501  502  0.00000000000E+00  0.00000000000E+00  0.17206325013E+03  0.17206325013E+03  0.00000000000E+00 0.  1.
         21   -1    0    0  502  503 -0.00000000000E+00 -0.00000000000E+00 -0.92470552657E+03  0.92470552657E+03  0.00000000000E+00 0.  1.
          6    1    1    2  501    0 -0.74198302116E+02  0.75984160751E+02  0.95737484776E+02  0.22444074210E+03  0.17300000000E+03 0.  1.
         -6    1    1    2    0  503  0.74198302116E+02 -0.75984160751E+02 -0.84837976122E+03  0.87232803461E+03  0.17300000000E+03 0.  1.
<mgrwt>
<rscale>  2 0.20299749E+03</rscale>
<asrwt>0</asrwt>
<pdfrwt beam="1">  1       21 0.26471269E-01 0.20299749E+03</pdfrwt>
<pdfrwt beam="2">  1       21 0.14226239E+00 0.20299749E+03</pdfrwt>
<totfact> 0.46200421E+03</totfact>
</mgrwt>
</event>
<event>
 4    3  0.3905963E+000  0.1986741E+03  0.7546771E-02  0.1150863E+00
         21   -1    0    0  501  502  0.00000000000E+00  0.00000000000E+00  0.82929883574E+03  0.82929883574E+03  0.00000000000E+00 0. -1.
         21   -1    0    0  502  503 -0.00000000000E+00 -0.00000000000E+00 -0.49034730271E+02  0.49034730271E+02  0.00000000000E+00 0. -1.
          6    1    1    2  501    0 -0.86169909998E+02 -0.46012284705E+02  0.46535552638E+03  0.50599125453E+03  0.17300000000E+03 0. -1.
         -6    1    1    2    0  503  0.86169909998E+02  0.46012284705E+02  0.31490857909E+03  0.37234231148E+03  0.17300000000E+03 0. -1.
<mgrwt>
<rscale>  2 0.19867406E+03</rscale>
<asrwt>0</asrwt>
<pdfrwt beam="1">  1       21 0.12758443E+00 0.19867406E+03</pdfrwt>
<pdfrwt beam="2">  1       21 0.75438053E-02 0.19867406E+03</pdfrwt>
<totfact> 0.60033424E+04</totfact>
</mgrwt>
</event>
<event>
 4    3  0.3905963E+000  0.1920579E+03  0.7546771E-02  0.1156618E+00
         21   -1    0    0  501  502  0.00000000000E+00  0.00000000000E+00  0.92532995929E+03  0.92532995929E+03  0.00000000000E+00 0.  1.
         21   -1    0    0  502  503 -0.00000000000E+00 -0.00000000000E+00 -0.40346312062E+02  0.40346312062E+02  0.00000000000E+00 0.  1.
          6    1    1    2  501    0 -0.83220876107E+02 -0.56146986775E+01  0.38963448894E+03  0.43439759902E+03  0.17300000000E+03 0.  1.
         -6    1    1    2    0  503  0.83220876107E+02  0.56146986775E+01  0.49534915829E+03  0.53127867234E+03  0.17300000000E+03 0.  1.
<mgrwt>
<rscale>  2 0.19205791E+03</rscale>
<asrwt>0</asrwt>
<pdfrwt beam="1">  1       21 0.14235844E+00 0.19205791E+03</pdfrwt>
<pdfrwt beam="2">  1       21 0.62071257E-02 0.19205791E+03</pdfrwt>
<totfact> 0.63773247E+04</totfact>
</mgrwt>
</event>
<event>
 4    3  0.3905963E+000  0.2270740E+03  0.7546771E-02  0.1128716E+00
         21   -1    0    0  501  502  0.00000000000E+00  0.00000000000E+00  0.43228797173E+03  0.43228797173E+03  0.00000000000E+00 0. -1.
         21   -1    0    0  502  503 -0.00000000000E+00 -0.00000000000E+00 -0.15680707970E+03  0.15680707970E+03  0.00000000000E+00 0. -1.
          6    1    1    2  501    0  0.13402605309E+03 -0.60585788316E+02  0.28183718336E+03  0.36193206348E+03  0.17300000000E+03 0. -1.
         -6    1    1    2    0  503 -0.13402605309E+03  0.60585788316E+02 -0.63562913249E+01  0.22716298795E+03  0.17300000000E+03 0. -1.
<mgrwt>
<rscale>  2 0.22707404E+03</rscale>
<asrwt>0</asrwt>
<pdfrwt beam="1">  1       21 0.66505842E-01 0.22707404E+03</pdfrwt>
<pdfrwt beam="2">  1       21 0.24124166E-01 0.22707404E+03</pdfrwt>
<totfact> 0.33016777E+04</totfact>
</mgrwt>
</event>
<event>
 4    3  0.3905963E+000  0.2004413E+03  0.7546771E-02  0.1149367E+00
         21   -1    0    0  501  502  0.00000000000E+00  0.00000000000E+00  0.36482546273E+02  0.36482546273E+02  0.00000000000E+00 0. -1.
         21   -1    0    0  502  503 -0.00000000000E+00 -0.00000000000E+00 -0.15214316039E+04  0.15214316039E+04  0.00000000000E+00 0. -1.
          6    1    1    2  501    0 -0.98103894640E+02  0.24966467752E+02 -0.33311806345E+03  0.38877286795E+03  0.17300000000E+03 0. -1.
         -6    1    1    2    0  503  0.98103894640E+02 -0.24966467752E+02 -0.11518309942E+04  0.11691412822E+04  0.17300000000E+03 0. -1.
<mgrwt>
<rscale>  2 0.20044126E+03</rscale>
<asrwt>0</asrwt>
<pdfrwt beam="1">  1       21 0.56126982E-02 0.20044126E+03</pdfrwt>
<pdfrwt beam="2">  1       21 0.23406645E+00 0.20044126E+03</pdfrwt>
<totfact> 0.18148408E+04</totfact>
</mgrwt>
</event>
<event>
 4    3  0.3905963E+000  0.3256105E+03  0.7546771E-02  0.1073096E+00
         21   -1    0    0  501  502  0.00000000000E+00  0.00000000000E+00  0.96835746786E+03  0.96835746786E+03  0.00000000000E+00 0.  1.
         21   -1    0    0  502  503 -0.00000000000E+00 -0.00000000000E+00 -0.16492084661E+03  0.16492084661E+03  0.00000000000E+00 0. -1.
          6    1    1    2  501    0  0.10866021549E+03 -0.25354709510E+03  0.73023531887E+03  0.79954098882E+03  0.17300000000E+03 0.  1.
         -6    1    1    2    0  503 -0.10866021549E+03  0.25354709510E+03  0.73201302372E+02  0.33373732565E+03  0.17300000000E+03 0. -1.
<mgrwt>
<rscale>  2 0.32561046E+03</rscale>
<asrwt>0</asrwt>
<pdfrwt beam="1">  1       21 0.14897807E+00 0.32561046E+03</pdfrwt>
<pdfrwt beam="2">  1       21 0.25372439E-01 0.32561046E+03</pdfrwt>
<totfact> 0.41002355E+03</totfact>
</mgrwt>
</event>
<event>
 4    3  0.3905963E+000  0.1830603E+03  0.7546771E-02  0.1164874E+00
         21   -1    0    0  501  502  0.00000000000E+00  0.00000000000E+00  0.26705838160E+02  0.26705838160E+02  0.00000000000E+00 0. -1.
         21   -1    0    0  502  503 -0.00000000000E+00 -0.00000000000E+00 -0.19247823458E+04  0.19247823458E+04  0.00000000000E+00 0. -1.
          6    1    1    2  501    0 -0.34627606611E+02  0.48815917587E+02 -0.37337333156E+03  0.41583495485E+03  0.17300000000E+03 0. -1.
         -6    1    1    2    0  503  0.34627606611E+02 -0.48815917587E+02 -0.15247031761E+04  0.15356532292E+04  0.17300000000E+03 0. -1.
<mgrwt>
<rscale>  2 0.18306028E+03</rscale>
<asrwt>0</asrwt>
<pdfrwt beam="1">  1       21 0.41085902E-02 0.18306028E+03</pdfrwt>
<pdfrwt beam="2">  1       21 0.29612038E+00 0.18306028E+03</pdfrwt>
<totfact> 0.13600397E+04</totfact>
</mgrwt>
</event>
<event>
 4    3  0.3905963E+000  0.2107347E+03  0.7546771E-02  0.1140986E+00
         21   -1    0    0  501  502  0.00000000000E+00  0.00000000000E+00  0.23391727668E+03  0.23391727668E+03  0.00000000000E+00 0. -1.
         21   -1    0    0  502  503 -0.00000000000E+00 -0.00000000000E+00 -0.23429721051E+03  0.23429721051E+03  0.00000000000E+00 0. -1.
          6    1    1    2  501    0  0.18080413501E+02 -0.11896720523E+03  0.10177608130E+03  0.23402450299E+03  0.17300000000E+03 0. -1.
         -6    1    1    2    0  503 -0.18080413501E+02  0.11896720523E+03 -0.10215601513E+03  0.23418998420E+03  0.17300000000E+03 0. -1.
<mgrwt>
<rscale>  2 0.21073466E+03</rscale>
<asrwt>0</asrwt>
<pdfrwt beam="1">  1       21 0.35987273E-01 0.21073466E+03</pdfrwt>
<pdfrwt beam="2">  1       21 0.36045725E-01 0.21073466E+03</pdfrwt>
<totfact> 0.54794957E+04</totfact>
</mgrwt>
</event>
<event>
 4    3  0.3905963E+000  0.2383378E+03  0.7546771E-02  0.1120905E+00
         21   -1    0    0  501  502  0.00000000000E+00  0.00000000000E+00  0.97600767352E+02  0.97600767352E+02  0.00000000000E+00 0.  1.
         21   -1    0    0  502  503 -0.00000000000E+00 -0.00000000000E+00 -0.86932919176E+03  0.86932919176E+03  0.00000000000E+00 0.  1.
          6    1    1    2  501    0  0.43896162854E+02 -0.15795263096E+03 -0.10792296178E+03  0.26163385183E+03  0.17300000000E+03 0.  1.
         -6    1    1    2    0  503 -0.43896162854E+02  0.15795263096E+03 -0.66380546262E+03  0.70529610728E+03  0.17300000000E+03 0.  1.
<mgrwt>
<rscale>  2 0.23833780E+03</rscale>
<asrwt>0</asrwt>
<pdfrwt beam="1">  1       21 0.15015504E-01 0.23833780E+03</pdfrwt>
<pdfrwt beam="2">  1       21 0.13374294E+00 0.23833780E+03</pdfrwt>
<totfact> 0.15299375E+04</totfact>
</mgrwt>
</event>
<event>
 4    3  0.3905963E+000  0.2043285E+03  0.7546771E-02  0.1146138E+00
         21   -1    0    0  503  502  0.00000000000E+00  0.00000000000E+00  0.64502221214E+03  0.64502221214E+03  0.00000000000E+00 0.  1.
         21   -1    0    0  501  503 -0.00000000000E+00 -0.00000000000E+00 -0.13952656509E+03  0.13952656509E+03  0.00000000000E+00 0. -1.
          6    1    1    2  501    0 -0.14932404604E+02 -0.10769468539E+03 -0.34470456900E+02  0.20721567114E+03  0.17300000000E+03 0. -1.
         -6    1    1    2    0  502  0.14932404604E+02  0.10769468539E+03  0.53996610395E+03  0.57733310608E+03  0.17300000000E+03 0.  1.
<mgrwt>
<rscale>  2 0.20432847E+03</rscale>
<asrwt>0</asrwt>
<pdfrwt beam="1">  1       21 0.99234184E-01 0.20432847E+03</pdfrwt>
<pdfrwt beam="2">  1       21 0.21465626E-01 0.20432847E+03</pdfrwt>
<totfact> 0.16776817E+04</totfact>
</mgrwt>
</event>
<event>
 4    3  0.3905963E+000  0.1740493E+03  0.7546771E-02  0.1173690E+00
         21   -1    0    0  503  502  0.00000000000E+00  0.00000000000E+00  0.62083605589E+03  0.62083605589E+03  0.00000000000E+00 0. -1.
         21   -1    0    0  501  503 -0.00000000000E+00 -0.00000000000E+00 -0.13357767583E+03  0.13357767583E+03  0.00000000000E+00 0. -1.
          6    1    1    2  501    0 -0.18316665065E+02 -0.53542417658E+01 -0.56887351645E+02  0.18311018241E+03  0.17300000000E+03 0. -1.
         -6    1    1    2    0  502  0.18316665065E+02  0.53542417658E+01  0.54414573170E+03  0.57130354931E+03  0.17300000000E+03 0. -1.
<mgrwt>
<rscale>  2 0.17404933E+03</rscale>
<asrwt>0</asrwt>
<pdfrwt beam="1">  1       21 0.95513238E-01 0.17404933E+03</pdfrwt>
<pdfrwt beam="2">  1       21 0.20550412E-01 0.17404933E+03</pdfrwt>
<totfact> 0.20302989E+04</totfact>
</mgrwt>
</event>
<event>
 4    3  0.3905963E+000  0.1888615E+03  0.7546771E-02  0.1159492E+00
         21   -1    0    0  503  502  0.00000000000E+00  0.00000000000E+00  0.16871532000E+04  0.16871532000E+04  0.00000000000E+00 0.  1.
         21   -1    0    0  501  503 -0.00000000000E+00 -0.00000000000E+00 -0.21255945580E+02  0.21255945580E+02  0.00000000000E+00 0. -1.
          6    1    1    2  501    0 -0.72572712967E+02 -0.21745697374E+02  0.77022507643E+03  0.79304182890E+03  0.17300000000E+03 0. -1.
         -6    1    1    2    0  502  0.72572712967E+02  0.21745697374E+02  0.89567217799E+03  0.91536731669E+03  0.17300000000E+03 0.  1.
<mgrwt>
<rscale>  2 0.18886152E+03</rscale>
<asrwt>0</asrwt>
<pdfrwt beam="1">  1       21 0.25956193E+00 0.18886152E+03</pdfrwt>
<pdfrwt beam="2">  1       21 0.32701468E-02 0.18886152E+03</pdfrwt>
<totfact> 0.32160478E+04</totfact>
</mgrwt>
</event>
<event>
 4    3  0.3905963E+000  0.1746927E+03  0.7546771E-02  0.1173041E+00
         21   -1    0    0  503  502  0.00000000000E+00  0.00000000000E+00  0.53017469163E+02  0.53017469163E+02  0.00000000000E+00 0. -1.
         21   -1    0    0  501  503 -0.00000000000E+00 -0.00000000000E+00 -0.67907586158E+03  0.67907586158E+03  0.00000000000E+00 0. -1.
          6    1    1    2  501    0  0.16505526077E+02 -0.17779082245E+02 -0.45590878685E+03  0.48823186099E+03  0.17300000000E+03 0.  1.
         -6    1    1    2    0  502 -0.16505526077E+02  0.17779082245E+02 -0.17014960556E+03  0.24386146975E+03  0.17300000000E+03 0.  1.
<mgrwt>
<rscale>  2 0.17469267E+03</rscale>
<asrwt>0</asrwt>
<pdfrwt beam="1">  1       21 0.81565345E-02 0.17469267E+03</pdfrwt>
<pdfrwt beam="2">  1       21 0.10447320E+00 0.17469267E+03</pdfrwt>
<totfact> 0.86473177E+04</totfact>
</mgrwt>
</event>
<event>
 4    3  0.3905963E+000  0.1962106E+03  0.7546771E-02  0.1152976E+00
         21   -1    0    0  501  502  0.00000000000E+00  0.00000000000E+00  0.20718197307E+03  0.20718197307E+03  0.00000000000E+00 0.  1.
         21   -1    0    0  502  503 -0.00000000000E+00 -0.00000000000E+00 -0.25418113654E+03  0.25418113654E+03  0.00000000000E+00 0.  1.
          6    1    1    2  501    0  0.54411341453E+02 -0.74893276172E+02  0.96131820845E+02  0.21849467699E+03  0.17300000000E+03 0.  1.
         -6    1    1    2    0  503 -0.54411341453E+02  0.74893276172E+02 -0.14313098431E+03  0.24286843262E+03  0.17300000000E+03 0.  1.
<mgrwt>
<rscale>  2 0.19621059E+03</rscale>
<asrwt>0</asrwt>
<pdfrwt beam="1">  1       21 0.31874150E-01 0.19621059E+03</pdfrwt>
<pdfrwt beam="2">  1       21 0.39104790E-01 0.19621059E+03</pdfrwt>
<totfact> 0.59580193E+04</totfact>
</mgrwt>
</event>
<event>
 4    3  0.3905963E+000  0.1838431E+03  0.7546771E-02  0.1164135E+00
         21   -1    0    0  503  502  0.00000000000E+00  0.00000000000E+00  0.99427795588E+02  0.99427795588E+02  0.00000000000E+00 0.  1.
         21   -1    0    0  501  503 -0.00000000000E+00 -0.00000000000E+00 -0.53125374517E+03  0.53125374517E+03  0.00000000000E+00 0.  1.
          6    1    1    2  501    0  0.35038648950E+01 -0.62104751590E+02 -0.40515430570E+03  0.44491379914E+03  0.17300000000E+03 0.  1.
         -6    1    1    2    0  502 -0.35038648950E+01  0.62104751590E+02 -0.26671643886E+02  0.18576774162E+03  0.17300000000E+03 0.  1.
<mgrwt>
<rscale>  2 0.18384308E+03</rscale>
<asrwt>0</asrwt>
<pdfrwt beam="1">  1       21 0.15296584E-01 0.18384308E+03</pdfrwt>
<pdfrwt beam="2">  1       21 0.81731347E-01 0.18384308E+03</pdfrwt>
<totfact> 0.49808807E+04</totfact>
</mgrwt>
</event>
<event>
 4    3  0.3905963E+000  0.1787014E+03  0.7546771E-02  0.1169066E+00
         21   -1    0    0  503  502  0.00000000000E+00  0.00000000000E+00  0.69806787186E+03  0.69806787186E+03  0.00000000000E+00 0.  1.
         21   -1    0    0  501  503 -0.00000000000E+00 -0.00000000000E+00 -0.48898515745E+02  0.48898515745E+02  0.00000000000E+00 0.  1.
          6    1    1    2  501    0  0.40600313663E+02  0.18889527353E+02  0.22976167990E+03  0.29107495472E+03  0.17300000000E+03 0.  1.
         -6    1    1    2    0  502 -0.40600313663E+02 -0.18889527353E+02  0.41940767621E+03  0.45589143289E+03  0.17300000000E+03 0.  1.
<mgrwt>
<rscale>  2 0.17870143E+03</rscale>
<asrwt>0</asrwt>
<pdfrwt beam="1">  1       21 0.10739505E+00 0.17870143E+03</pdfrwt>
<pdfrwt beam="2">  1       21 0.75228491E-02 0.17870143E+03</pdfrwt>
<totfact> 0.92964603E+04</totfact>
</mgrwt>
</event>
<event>
 4    3  0.3905963E+000  0.2242926E+03  0.7546771E-02  0.1130723E+00
         21   -1    0    0  503  502  0.00000000000E+00  0.00000000000E+00  0.73915221993E+03  0.73915221993E+03  0.00000000000E+00 0.  1.
         21   -1    0    0  501  503 -0.00000000000E+00 -0.00000000000E+00 -0.79117951622E+02  0.79117951622E+02  0.00000000000E+00 0.  1.
          6    1    1    2  501    0  0.14027491342E+03  0.26478487833E+02  0.48296882665E+03  0.53250920101E+03  0.17300000000E+03 0.  1.
         -6    1    1    2    0  502 -0.14027491342E+03 -0.26478487833E+02  0.17706544166E+03  0.28576097054E+03  0.17300000000E+03 0.  1.
<mgrwt>
<rscale>  2 0.22429258E+03</rscale>
<asrwt>0</asrwt>
<pdfrwt beam="1">  1       21 0.11371572E+00 0.22429258E+03</pdfrwt>
<pdfrwt beam="2">  1       21 0.12171993E-01 0.22429258E+03</pdfrwt>
<totfact> 0.33874247E+04</totfact>
</mgrwt>
</event>
<event>
 4    3  0.3905963E+000  0.1765700E+03  0.7546771E-02  0.1171164E+00
         21   -1    0    0  503  502  0.00000000000E+00  0.00000000000E+00  0.14953719035E+03  0.14953719035E+03  0.00000000000E+00 0.  1.
         21   -1    0    0  501  503 -0.00000000000E+00 -0.00000000000E+00 -0.23577688870E+03  0.23577688870E+03  0.00000000000E+00 0.  1.
          6    1    1    2  501    0 -0.26027601975E+02  0.23885900449E+02 -0.10866087264E+03  0.20732621047E+03  0.17300000000E+03 0.  1.
         -6    1    1    2    0  502  0.26027601975E+02 -0.23885900449E+02  0.22421174290E+02  0.17798786858E+03  0.17300000000E+03 0.  1.
<mgrwt>
<rscale>  2 0.17657002E+03</rscale>
<asrwt>0</asrwt>
<pdfrwt beam="1">  1       21 0.23005722E-01 0.17657002E+03</pdfrwt>
<pdfrwt beam="2">  1       21 0.36273367E-01 0.17657002E+03</pdfrwt>
<totfact> 0.13074100E+05</totfact>
</mgrwt>
</event>
<event>
 4    3  0.3905963E+000  0.2884005E+03  0.7546771E-02  0.1091187E+00
         21   -1    0    0  503  502  0.00000000000E+00  0.00000000000E+00  0.21732511517E+04  0.21732511517E+04  0.00000000000E+00 0. -1.
         21   -1    0    0  501  503 -0.00000000000E+00 -0.00000000000E+00 -0.10023178778E+03  0.10023178778E+03  0.00000000000E+00 0. -1.
          6    1    1    2  501    0 -0.48673813500E+02 -0.22555866475E+03  0.14276467050E+03  0.32180211701E+03  0.17300000000E+03 0. -1.
         -6    1    1    2    0  502  0.48673813500E+02  0.22555866475E+03  0.19302546934E+04  0.19516808225E+04  0.17300000000E+03 0. -1.
<mgrwt>
<rscale>  2 0.28840051E+03</rscale>
<asrwt>0</asrwt>
<pdfrwt beam="1">  1       21 0.33434629E+00 0.28840051E+03</pdfrwt>
<pdfrwt beam="2">  1       21 0.15420277E-01 0.28840051E+03</pdfrwt>
<totfact> 0.71941567E+02</totfact>
</mgrwt>
</event>
<event>
 4    3  0.3905963E+000  0.1762260E+03  0.7546771E-02  0.1171506E+00
         21   -1    0    0  503  502  0.00000000000E+00  0.00000000000E+00  0.37191992280E+03  0.37191992280E+03  0.00000000000E+00 0. -1.
         21   -1    0    0  501  503 -0.00000000000E+00 -0.00000000000E+00 -0.12298273569E+03  0.12298273569E+03  0.00000000000E+00 0. -1.
          6    1    1    2  501    0  0.32277849745E+02 -0.92048983412E+01  0.26467480378E+03  0.31797537875E+03  0.17300000000E+03 0. -1.
         -6    1    1    2    0  502 -0.32277849745E+02  0.92048983412E+01 -0.15737616666E+02  0.17692727974E+03  0.17300000000E+03 0. -1.
<mgrwt>
<rscale>  2 0.17622596E+03</rscale>
<asrwt>0</asrwt>
<pdfrwt beam="1">  1       21 0.57218449E-01 0.17622596E+03</pdfrwt>
<pdfrwt beam="2">  1       21 0.18920421E-01 0.17622596E+03</pdfrwt>
<totfact> 0.73929155E+04</totfact>
</mgrwt>
</event>
<event>
 4    3  0.3905963E+000  0.2686609E+03  0.7546771E-02  0.1102048E+00
         21   -1    0    0  501  502  0.00000000000E+00  0.00000000000E+00  0.74812429451E+03  0.74812429451E+03  0.00000000000E+00 0. -1.
         21   -1    0    0  502  503 -0.00000000000E+00 -0.00000000000E+00 -0.12826144132E+03  0.12826144132E+03  0.00000000000E+00 0.  1.
          6    1    1    2  501    0 -0.17993638979E+03 -0.99360818418E+02  0.52805735175E+03  0.59247214562E+03  0.17300000000E+03 0. -1.
         -6    1    1    2    0  503  0.17993638979E+03  0.99360818418E+02  0.91805501445E+02  0.28391359020E+03  0.17300000000E+03 0.  1.
<mgrwt>
<rscale>  2 0.26866090E+03</rscale>
<asrwt>0</asrwt>
<pdfrwt beam="1">  1       21 0.11509604E+00 0.26866090E+03</pdfrwt>
<pdfrwt beam="2">  1       21 0.19732530E-01 0.26866090E+03</pdfrwt>
<totfact> 0.13236652E+04</totfact>
</mgrwt>
</event>
<event>
 4    3  0.3905963E+000  0.2812939E+03  0.7546771E-02  0.1094984E+00
         21   -1    0    0  503  502  0.00000000000E+00  0.00000000000E+00  0.19965406804E+03  0.19965406804E+03  0.00000000000E+00 0. -1.
         21   -1    0    0  501  503 -0.00000000000E+00 -0.00000000000E+00 -0.91656792575E+03  0.91656792575E+03  0.00000000000E+00 0. -1.
          6    1    1    2  501    0 -0.22180455000E+03 -0.42740280778E-02 -0.77893637601E+03  0.82817156211E+03  0.17300000000E+03 0. -1.
         -6    1    1    2    0  502  0.22180455000E+03  0.42740280778E-02  0.62022518288E+02  0.28805043168E+03  0.17300000000E+03 0. -1.
<mgrwt>
<rscale>  2 0.28129390E+03</rscale>
<asrwt>0</asrwt>
<pdfrwt beam="1">  1       21 0.30716010E-01 0.28129390E+03</pdfrwt>
<pdfrwt beam="2">  1       21 0.14101045E+00 0.28129390E+03</pdfrwt>
<totfact> 0.33473799E+03</totfact>
</mgrwt>
</event>
<event>
 4    3  0.3905963E+000  0.2313755E+03  0.7546771E-02  0.1125675E+00
         21   -1    0    0  501  502  0.00000000000E+00  0.00000000000E+00  0.92086782968E+02  0.92086782968E+02  0.00000000000E+00 0.  1.
         21   -1    0    0  502  503 -0.00000000000E+00 -0.00000000000E+00 -0.72140174571E+03  0.72140174571E+03  0.00000000000E+00 0.  1.
          6    1    1    2  501    0  0.67899780392E+02 -0.13782315352E+03 -0.49387395969E+03  0.54538618417E+03  0.17300000000E+03 0.  1.
         -6    1    1    2    0  503 -0.67899780392E+02  0.13782315352E+03 -0.13544100305E+03  0.26810234450E+03  0.17300000000E+03 0.  1.
<mgrwt>
<rscale>  2 0.23137546E+03</rscale>
<asrwt>0</asrwt>
<pdfrwt beam="1">  1       21 0.14167197E-01 0.23137546E+03</pdfrwt>
<pdfrwt beam="2">  1       21 0.11098488E+00 0.23137546E+03</pdfrwt>
<totfact> 0.27215037E+04</totfact>
</mgrwt>
</event>
<event>
 4    3  0.3905963E+000  0.2319857E+03  0.7546771E-02  0.1125250E+00
         21   -1    0    0  501  502  0.00000000000E+00  0.00000000000E+00  0.16133733361E+04  0.16133733361E+04  0.00000000000E+00 0. -1.
         21   -1    0    0  502  503 -0.00000000000E+00 -0.00000000000E+00 -0.12259503733E+03  0.12259503733E+03  0.00000000000E+00 0. -1.
          6    1    1    2  501    0 -0.14657190290E+03  0.49041146668E+02  0.14859321456E+04  0.15039320789E+04  0.17300000000E+03 0. -1.
         -6    1    1    2    0  503  0.14657190290E+03 -0.49041146668E+02  0.48461532445E+01  0.23203629455E+03  0.17300000000E+03 0. -1.
<mgrwt>
<rscale>  2 0.23198568E+03</rscale>
<asrwt>0</asrwt>
<pdfrwt beam="1">  1       21 0.24821127E+00 0.23198568E+03</pdfrwt>
<pdfrwt beam="2">  1       21 0.18860776E-01 0.23198568E+03</pdfrwt>
<totfact> 0.16810680E+03</totfact>
</mgrwt>
</event>
<event>
 4    3  0.3905963E+000  0.2574268E+03  0.7546771E-02  0.1108699E+00
         21   -1    0    0  501  502  0.00000000000E+00  0.00000000000E+00  0.15178768063E+03  0.15178768063E+03  0.00000000000E+00 0.  1.
         21   -1    0    0  502  503 -0.00000000000E+00 -0.00000000000E+00 -0.82378079579E+03  0.82378079579E+03  0.00000000000E+00 0. -1.
          6    1    1    2  501    0  0.87357601006E+02  0.16943489998E+03 -0.15812892369E+01  0.25743161473E+03  0.17300000000E+03 0.  1.
         -6    1    1    2    0  503 -0.87357601006E+02 -0.16943489998E+03 -0.67041182592E+03  0.71813686169E+03  0.17300000000E+03 0. -1.
<mgrwt>
<rscale>  2 0.25742676E+03</rscale>
<asrwt>0</asrwt>
<pdfrwt beam="1">  1       21 0.23351952E-01 0.25742676E+03</pdfrwt>
<pdfrwt beam="2">  1       21 0.12673550E+00 0.25742676E+03</pdfrwt>
<totfact> 0.76061461E+03</totfact>
</mgrwt>
</event>
<event>
 4    3  0.3905963E+000  0.1822240E+03  0.7546771E-02  0.1165668E+00
         21   -1    0    0  503  502  0.00000000000E+00  0.00000000000E+00  0.15573328804E+03  0.15573328804E+03  0.00000000000E+00 0.  1.
         21   -1    0    0  501  503 -0.00000000000E+00 -0.00000000000E+00 -0.21428420449E+03  0.21428420449E+03  0.00000000000E+00 0.  1.
          6    1    1    2  501    0 -0.56548459868E+02 -0.88799519651E+01 -0.16242617558E+02  0.18294645251E+03  0.17300000000E+03 0.  1.
         -6    1    1    2    0  502  0.56548459868E+02  0.88799519651E+01 -0.42308298886E+02  0.18707104002E+03  0.17300000000E+03 0.  1.
<mgrwt>
<rscale>  2 0.18222399E+03</rscale>
<asrwt>0</asrwt>
<pdfrwt beam="1">  1       21 0.23958967E-01 0.18222399E+03</pdfrwt>
<pdfrwt beam="2">  1       21 0.32966801E-01 0.18222399E+03</pdfrwt>
<totfact> 0.14598782E+05</totfact>
</mgrwt>
</event>
<event>
 4    3  0.3905963E+000  0.2072729E+03  0.7546771E-02  0.1143744E+00
         21   -1    0    0  503  502  0.00000000000E+00  0.00000000000E+00  0.14362881511E+04  0.14362881511E+04  0.00000000000E+00 0. -1.
         21   -1    0    0  501  503 -0.00000000000E+00 -0.00000000000E+00 -0.58178386816E+02  0.58178386816E+02  0.00000000000E+00 0.  1.
          6    1    1    2  501    0  0.11296177663E+03 -0.16513388035E+02  0.16820621080E+03  0.26693704186E+03  0.17300000000E+03 0.  1.
         -6    1    1    2    0  502 -0.11296177663E+03  0.16513388035E+02  0.12099035535E+04  0.12275294961E+04  0.17300000000E+03 0. -1.
<mgrwt>
<rscale>  2 0.20727290E+03</rscale>
<asrwt>0</asrwt>
<pdfrwt beam="1">  1       21 0.22096738E+00 0.20727290E+03</pdfrwt>
<pdfrwt beam="2">  1       21 0.89505221E-02 0.20727290E+03</pdfrwt>
<totfact> 0.96631278E+03</totfact>
</mgrwt>
</event>
<event>
 4    3  0.3905963E+000  0.2274191E+03  0.7546771E-02  0.1128470E+00
         21   -1    0    0  503  502  0.00000000000E+00  0.00000000000E+00  0.16405162362E+03  0.16405162362E+03  0.00000000000E+00 0.  1.
         21   -1    0    0  501  503 -0.00000000000E+00 -0.00000000000E+00 -0.45154903072E+03  0.45154903072E+03  0.00000000000E+00 0. -1.
          6    1    1    2  501    0 -0.14548784339E+03 -0.24975061999E+02 -0.31284796691E+03  0.38677295239E+03  0.17300000000E+03 0. -1.
         -6    1    1    2    0  502  0.14548784339E+03  0.24975061999E+02  0.25350559814E+02  0.22882770195E+03  0.17300000000E+03 0.  1.
<mgrwt>
<rscale>  2 0.22741914E+03</rscale>
<asrwt>0</asrwt>
<pdfrwt beam="1">  1       21 0.25238711E-01 0.22741914E+03</pdfrwt>
<pdfrwt beam="2">  1       21 0.69469082E-01 0.22741914E+03</pdfrwt>
<totfact> 0.27504933E+04</totfact>
</mgrwt>
</event>
<event>
 4    3  0.3905963E+000  0.2287216E+03  0.7546771E-02  0.1127543E+00
         21   -1    0    0  501  502  0.00000000000E+00  0.00000000000E+00  0.92958323490E+03  0.92958323490E+03  0.00000000000E+00 0. -1.
         21   -1    0    0  502  503 -0.00000000000E+00 -0.00000000000E+00 -0.62416477224E+02  0.62416477224E+02  0.00000000000E+00 0. -1.
          6    1    1    2  501    0 -0.12240997021E+03 -0.86025346545E+02  0.58915137023E+03  0.63199121679E+03  0.17300000000E+03 0.  1.
         -6    1    1    2    0  503  0.12240997021E+03  0.86025346545E+02  0.27801538745E+03  0.36000849533E+03  0.17300000000E+03 0.  1.
<mgrwt>
<rscale>  2 0.22872158E+03</rscale>
<asrwt>0</asrwt>
<pdfrwt beam="1">  1       21 0.14301280E+00 0.22872158E+03</pdfrwt>
<pdfrwt beam="2">  1       21 0.96025356E-02 0.22872158E+03</pdfrwt>
<totfact> 0.28890954E+04</totfact>
</mgrwt>
</event>
<event>
 4    3  0.3905963E+000  0.1942198E+03  0.7546771E-02  0.1154709E+00
         21   -1    0    0  503  502  0.00000000000E+00  0.00000000000E+00  0.36203861690E+03  0.36203861690E+03  0.00000000000E+00 0. -1.
         21   -1    0    0  501  503 -0.00000000000E+00 -0.00000000000E+00 -0.13011671211E+03  0.13011671211E+03  0.00000000000E+00 0.  1.
          6    1    1    2  501    0 -0.14273891101E+02  0.87112469450E+02  0.61192428236E+01  0.19431616359E+03  0.17300000000E+03 0.  1.
         -6    1    1    2    0  502  0.14273891101E+02 -0.87112469450E+02  0.22580266197E+03  0.29783916541E+03  0.17300000000E+03 0. -1.
<mgrwt>
<rscale>  2 0.19421979E+03</rscale>
<asrwt>0</asrwt>
<pdfrwt beam="1">  1       21 0.55698248E-01 0.19421979E+03</pdfrwt>
<pdfrwt beam="2">  1       21 0.20017956E-01 0.19421979E+03</pdfrwt>
<totfact> 0.69939627E+04</totfact>
</mgrwt>
</event>
<event>
 4    3  0.3905963E+000  0.2127241E+03  0.7546771E-02  0.1139427E+00
         21   -1    0    0  503  502  0.00000000000E+00  0.00000000000E+00  0.35785312969E+03  0.35785312969E+03  0.00000000000E+00 0. -1.
         21   -1    0    0  501  503 -0.00000000000E+00 -0.00000000000E+00 -0.12813227949E+03  0.12813227949E+03  0.00000000000E+00 0. -1.
          6    1    1    2  501    0  0.61207139298E+02 -0.10759293288E+03  0.87041326857E+02  0.22984287174E+03  0.17300000000E+03 0. -1.
         -6    1    1    2    0  502 -0.61207139298E+02  0.10759293288E+03  0.14267952335E+03  0.25614253745E+03  0.17300000000E+03 0. -1.
<mgrwt>
<rscale>  2 0.21272412E+03</rscale>
<asrwt>0</asrwt>
<pdfrwt beam="1">  1       21 0.55054327E-01 0.21272412E+03</pdfrwt>
<pdfrwt beam="2">  1       21 0.19712659E-01 0.21272412E+03</pdfrwt>
<totfact> 0.73171334E+04</totfact>
</mgrwt>
</event>
<event>
 4    3  0.3905963E+000  0.1866077E+03  0.7546771E-02  0.1161557E+00
         21   -1    0    0  501  502  0.00000000000E+00  0.00000000000E+00  0.24271247568E+02  0.24271247568E+02  0.00000000000E+00 0. -1.
         21   -1    0    0  502  503 -0.00000000000E+00 -0.00000000000E+00 -0.14642821632E+04  0.14642821632E+04  0.00000000000E+00 0. -1.
          6    1    1    2  501    0  0.69492952154E+02  0.80104145929E+01 -0.61425255053E+03  0.64197245500E+03  0.17300000000E+03 0. -1.
         -6    1    1    2    0  503 -0.69492952154E+02 -0.80104145929E+01 -0.82575836514E+03  0.84658095581E+03  0.17300000000E+03 0. -1.
<mgrwt>
<rscale>  2 0.18660771E+03</rscale>
<asrwt>0</asrwt>
<pdfrwt beam="1">  1       21 0.37340385E-02 0.18660771E+03</pdfrwt>
<pdfrwt beam="2">  1       21 0.22527415E+00 0.18660771E+03</pdfrwt>
<totfact> 0.41252799E+04</totfact>
</mgrwt>
</event>
<event>
 4    3  0.3905963E+000  0.1926390E+03  0.7546771E-02  0.1156102E+00
         21   -1    0    0  501  502  0.00000000000E+00  0.00000000000E+00  0.53207193422E+03  0.53207193422E+03  0.00000000000E+00 0.  1.
         21   -1    0    0  502  503 -0.00000000000E+00 -0.00000000000E+00 -0.14174485321E+03  0.14174485321E+03  0.00000000000E+00 0.  1.
          6    1    1    2  501    0  0.24858675657E+02  0.81011285628E+02  0.43527980464E+03  0.47600240597E+03  0.17300000000E+03 0. -1.
         -6    1    1    2    0  503 -0.24858675657E+02 -0.81011285628E+02 -0.44952723629E+02  0.19781438147E+03  0.17300000000E+03 0. -1.
<mgrwt>
<rscale>  2 0.19263899E+03</rscale>
<asrwt>0</asrwt>
<pdfrwt beam="1">  1       21 0.81857220E-01 0.19263899E+03</pdfrwt>
<pdfrwt beam="2">  1       21 0.21806901E-01 0.19263899E+03</pdfrwt>
<totfact> 0.25627667E+04</totfact>
</mgrwt>
</event>
<event>
 4    3  0.3905963E+000  0.1804278E+03  0.7546771E-02  0.1167390E+00
         21   -1    0    0  503  502  0.00000000000E+00  0.00000000000E+00  0.56739706415E+02  0.56739706415E+02  0.00000000000E+00 0.  1.
         21   -1    0    0  501  503 -0.00000000000E+00 -0.00000000000E+00 -0.57732605819E+03  0.57732605819E+03  0.00000000000E+00 0.  1.
          6    1    1    2  501    0  0.33157395099E+02  0.39061244013E+02 -0.28525772726E+03  0.33752950181E+03  0.17300000000E+03 0.  1.
         -6    1    1    2    0  502 -0.33157395099E+02 -0.39061244013E+02 -0.23532862452E+03  0.29653626279E+03  0.17300000000E+03 0.  1.
<mgrwt>
<rscale>  2 0.18042781E+03</rscale>
<asrwt>0</asrwt>
<pdfrwt beam="1">  1       21 0.87291857E-02 0.18042781E+03</pdfrwt>
<pdfrwt beam="2">  1       21 0.88819393E-01 0.18042781E+03</pdfrwt>
<totfact> 0.11215075E+05</totfact>
</mgrwt>
</event>
<event>
 4    3  0.3905963E+000  0.2494019E+03  0.7546771E-02  0.1113683E+00
         21   -1    0    0  503  502  0.00000000000E+00  0.00000000000E+00  0.71736766888E+03  0.71736766888E+03  0.00000000000E+00 0. -1.
         21   -1    0    0  501  503 -0.00000000000E+00 -0.00000000000E+00 -0.91245752813E+02  0.91245752813E+02  0.00000000000E+00 0.  1.
          6    1    1    2  501    0 -0.10786409635E+03 -0.14365815596E+03  0.22289605976E+03  0.33449063143E+03  0.17300000000E+03 0.  1.
         -6    1    1    2    0  502  0.10786409635E+03  0.14365815596E+03  0.40322585630E+03  0.47412279026E+03  0.17300000000E+03 0. -1.
<mgrwt>
<rscale>  2 0.24940194E+03</rscale>
<asrwt>0</asrwt>
<pdfrwt beam="1">  1       21 0.11036425E+00 0.24940194E+03</pdfrwt>
<pdfrwt beam="2">  1       21 0.14037809E-01 0.24940194E+03</pdfrwt>
<totfact> 0.27806635E+04</totfact>
</mgrwt>
</event>
<event>
 4    3  0.3905963E+000  0.2026446E+03  0.7546771E-02  0.1147527E+00
         21   -1    0    0  501  502  0.00000000000E+00  0.00000000000E+00  0.28293599454E+03  0.28293599454E+03  0.00000000000E+00 0.  1.
         21   -1    0    0  502  503 -0.00000000000E+00 -0.00000000000E+00 -0.14597224480E+03  0.14597224480E+03  0.00000000000E+00 0.  1.
          6    1    1    2  501    0  0.41445601629E+02 -0.97046795713E+02  0.52271380840E+02  0.20927760441E+03  0.17300000000E+03 0.  1.
         -6    1    1    2    0  503 -0.41445601629E+02  0.97046795713E+02  0.84692368901E+02  0.21963063494E+03  0.17300000000E+03 0.  1.
<mgrwt>
<rscale>  2 0.20264456E+03</rscale>
<asrwt>0</asrwt>
<pdfrwt beam="1">  1       21 0.43528615E-01 0.20264456E+03</pdfrwt>
<pdfrwt beam="2">  1       21 0.22457268E-01 0.20264456E+03</pdfrwt>
<totfact> 0.93803609E+04</totfact>
</mgrwt>
</event>
<event>
 4    3  0.3905963E+000  0.2645673E+03  0.7546771E-02  0.1104430E+00
         21   -1    0    0  503  502  0.00000000000E+00  0.00000000000E+00  0.24591114952E+03  0.24591114952E+03  0.00000000000E+00 0.  1.
         21   -1    0    0  501  503 -0.00000000000E+00 -0.00000000000E+00 -0.49384251752E+03  0.49384251752E+03  0.00000000000E+00 0.  1.
          6    1    1    2  501    0  0.19936028155E+03  0.17954117828E+02 -0.36470527379E+03  0.45056165941E+03  0.17300000000E+03 0.  1.
         -6    1    1    2    0  502 -0.19936028155E+03 -0.17954117828E+02  0.11677390578E+03  0.28919200763E+03  0.17300000000E+03 0.  1.
<mgrwt>
<rscale>  2 0.26456733E+03</rscale>
<asrwt>0</asrwt>
<pdfrwt beam="1">  1       21 0.37832485E-01 0.26456733E+03</pdfrwt>
<pdfrwt beam="2">  1       21 0.75975771E-01 0.26456733E+03</pdfrwt>
<totfact> 0.99629713E+03</totfact>
</mgrwt>
</event>
<event>
 4    3  0.3905963E+000  0.2195412E+03  0.7546771E-02  0.1134226E+00
         21   -1    0    0  503  502  0.00000000000E+00  0.00000000000E+00  0.15092592801E+04  0.15092592801E+04  0.00000000000E+00 0.  1.
         21   -1    0    0  501  503 -0.00000000000E+00 -0.00000000000E+00 -0.78734675821E+02  0.78734675821E+02  0.00000000000E+00 0.  1.
          6    1    1    2  501    0  0.29368783144E+00 -0.13516382433E+03  0.10311380564E+03  0.24255061858E+03  0.17300000000E+03 0.  1.
         -6    1    1    2    0  502 -0.29368783144E+00  0.13516382433E+03  0.13274107986E+04  0.13454433373E+04  0.17300000000E+03 0.  1.
<mgrwt>
<rscale>  2 0.21954122E+03</rscale>
<asrwt>0</asrwt>
<pdfrwt beam="1">  1       21 0.23219371E+00 0.21954122E+03</pdfrwt>
<pdfrwt beam="2">  1       21 0.12113028E-01 0.21954122E+03</pdfrwt>
<totfact> 0.47711138E+03</totfact>
</mgrwt>
</event>
<event>
 4    3  0.3905963E+000  0.1990335E+03  0.7546771E-02  0.1150557E+00
         21   -1    0    0  503  502  0.00000000000E+00  0.00000000000E+00  0.69316348845E+03  0.69316348845E+03  0.00000000000E+00 0. -1.
         21   -1    0    0  501  503 -0.00000000000E+00 -0.00000000000E+00 -0.13176307710E+03  0.13176307710E+03  0.00000000000E+00 0.  1.
          6    1    1    2  501    0  0.20619427029E+02  0.96229835554E+02 -0.29681203780E+02  0.20123447985E+03  0.17300000000E+03 0.  1.
         -6    1    1    2    0  502 -0.20619427029E+02 -0.96229835554E+02  0.59108161513E+03  0.62369208570E+03  0.17300000000E+03 0. -1.
<mgrwt>
<rscale>  2 0.19903352E+03</rscale>
<asrwt>0</asrwt>
<pdfrwt beam="1">  1       21 0.10664053E+00 0.19903352E+03</pdfrwt>
<pdfrwt beam="2">  1       21 0.20271243E-01 0.19903352E+03</pdfrwt>
<totfact> 0.15777483E+04</totfact>
</mgrwt>
</event>
<event>
 4    3  0.3905963E+000  0.1826054E+03  0.7546771E-02  0.1165305E+00
         21   -1    0    0  501  502  0.00000000000E+00  0.00000000000E+00  0.10650678553E+04  0.10650678553E+04  0.00000000000E+00 0. -1.
         21   -1    0    0  502  503 -0.00000000000E+00 -0.00000000000E+00 -0.10532118983E+03  0.10532118983E+03  0.00000000000E+00 0.  1.
          6    1    1    2  501    0  0.57834258126E+02  0.84225009382E+01  0.97044001531E+03  0.98747079109E+03  0.17300000000E+03 0. -1.
         -6    1    1    2    0  503 -0.57834258126E+02 -0.84225009382E+01 -0.10693349834E+02  0.18291825405E+03  0.17300000000E+03 0.  1.
<mgrwt>
<rscale>  2 0.18260542E+03</rscale>
<asrwt>0</asrwt>
<pdfrwt beam="1">  1       21 0.16385659E+00 0.18260542E+03</pdfrwt>
<pdfrwt beam="2">  1       21 0.16203261E-01 0.18260542E+03</pdfrwt>
<totfact> 0.81059746E+03</totfact>
</mgrwt>
</event>
<event>
 4    3  0.3905963E+000  0.1926274E+03  0.7546771E-02  0.1156113E+00
         21   -1    0    0  503  502  0.00000000000E+00  0.00000000000E+00  0.30712130672E+04  0.30712130672E+04  0.00000000000E+00 0.  1.
         21   -1    0    0  501  503 -0.00000000000E+00 -0.00000000000E+00 -0.13734835091E+02  0.13734835091E+02  0.00000000000E+00 0. -1.
          6    1    1    2  501    0  0.82672322808E+02 -0.18482747593E+02  0.99359999447E+03  0.10120999328E+04  0.17300000000E+03 0. -1.
         -6    1    1    2    0  502 -0.82672322808E+02  0.18482747593E+02  0.20638782376E+04  0.20728479695E+04  0.17300000000E+03 0.  1.
<mgrwt>
<rscale>  2 0.19262743E+03</rscale>
<asrwt>0</asrwt>
<pdfrwt beam="1">  1       21 0.47249377E+00 0.19262743E+03</pdfrwt>
<pdfrwt beam="2">  1       21 0.21130540E-02 0.19262743E+03</pdfrwt>
<totfact> 0.33050675E+03</totfact>
</mgrwt>
</event>
<event>
 4    3  0.3905963E+000  0.2137849E+03  0.7546771E-02  0.1138603E+00
         21   -1    0    0  501  502  0.00000000000E+00  0.00000000000E+00  0.15333782648E+03  0.15333782648E+03  0.00000000000E+00 0.  1.
         21   -1    0    0  502  503 -0.00000000000E+00 -0.00000000000E+00 -0.65013093045E+03  0.65013093045E+03  0.00000000000E+00 0.  1.
          6    1    1    2  501    0  0.34789225245E+02  0.12068423787E+03  0.47236681854E+02  0.21894126970E+03  0.17300000000E+03 0.  1.
         -6    1    1    2    0  503 -0.34789225245E+02 -0.12068423787E+03 -0.54402978582E+03  0.58452748723E+03  0.17300000000E+03 0.  1.
<mgrwt>
<rscale>  2 0.21378488E+03</rscale>
<asrwt>0</asrwt>
<pdfrwt beam="1">  1       21 0.23590435E-01 0.21378488E+03</pdfrwt>
<pdfrwt beam="2">  1       21 0.10002014E+00 0.21378488E+03</pdfrwt>
<totfact> 0.13690226E+04</totfact>
</mgrwt>
</event>
<event>
 4    3  0.3905963E+000  0.1784545E+03  0.7546771E-02  0.1169307E+00
         21   -1    0    0  503  502  0.00000000000E+00  0.00000000000E+00  0.40671666046E+03  0.40671666046E+03  0.00000000000E+00 0. -1.
         21   -1    0    0  501  503 -0.00000000000E+00 -0.00000000000E+00 -0.12281428378E+03  0.12281428378E+03  0.00000000000E+00 0. -1.
          6    1    1    2  501    0  0.10644151798E+02 -0.42469911630E+02  0.30135022112E+03  0.35022556607E+03  0.17300000000E+03 0. -1.
         -6    1    1    2    0  502 -0.10644151798E+02  0.42469911630E+02 -0.17447844441E+02  0.17930537816E+03  0.17300000000E+03 0. -1.
<mgrwt>
<rscale>  2 0.17845445E+03</rscale>
<asrwt>0</asrwt>
<pdfrwt beam="1">  1       21 0.62571794E-01 0.17845445E+03</pdfrwt>
<pdfrwt beam="2">  1       21 0.18894505E-01 0.17845445E+03</pdfrwt>
<totfact> 0.61136247E+04</totfact>
</mgrwt>
</event>
<event>
 4    3  0.3905963E+000  0.1775573E+03  0.7546771E-02  0.1170188E+00
         21   -1    0    0  501  502  0.00000000000E+00  0.00000000000E+00  0.17918763610E+04  0.17918763610E+04  0.00000000000E+00 0. -1.
         21   -1    0    0  502  503 -0.00000000000E+00 -0.00000000000E+00 -0.25482566705E+02  0.25482566705E+02  0.00000000000E+00 0. -1.
          6    1    1    2  501    0 -0.64211633374E+01  0.39450589895E+02  0.13887694084E+04  0.14000739445E+04  0.17300000000E+03 0. -1.
         -6    1    1    2    0  503  0.64211633374E+01 -0.39450589895E+02  0.37762438592E+03  0.41728498322E+03  0.17300000000E+03 0. -1.
<mgrwt>
<rscale>  2 0.17755726E+03</rscale>
<asrwt>0</asrwt>
<pdfrwt beam="1">  1       21 0.27567319E+00 0.17755726E+03</pdfrwt>
<pdfrwt beam="2">  1       21 0.39203963E-02 0.17755726E+03</pdfrwt>
<totfact> 0.19385106E+04</totfact>
</mgrwt>
</event>
<event>
 4    3  0.3905963E+000  0.1846120E+03  0.7546771E-02  0.1163413E+00
         21   -1    0    0  503  502  0.00000000000E+00  0.00000000000E+00  0.35298231271E+02  0.35298231271E+02  0.00000000000E+00 0. -1.
         21   -1    0    0  501  503 -0.00000000000E+00 -0.00000000000E+00 -0.98113306169E+03  0.98113306169E+03  0.00000000000E+00 0. -1.
          6    1    1    2  501    0 -0.56793084912E+02  0.30449208821E+02 -0.53700096677E+03  0.56784826065E+03  0.17300000000E+03 0. -1.
         -6    1    1    2    0  502  0.56793084912E+02 -0.30449208821E+02 -0.40883386366E+03  0.44858303232E+03  0.17300000000E+03 0. -1.
<mgrwt>
<rscale>  2 0.18461205E+03</rscale>
<asrwt>0</asrwt>
<pdfrwt beam="1">  1       21 0.54304971E-02 0.18461205E+03</pdfrwt>
<pdfrwt beam="2">  1       21 0.15094355E+00 0.18461205E+03</pdfrwt>
<totfact> 0.69018548E+04</totfact>
</mgrwt>
</event>
<event>
 4    3  0.3905963E+000  0.2414082E+03  0.7546771E-02  0.1118858E+00
         21   -1    0    0  503  502  0.00000000000E+00  0.00000000000E+00  0.15287984015E+03  0.15287984015E+03  0.00000000000E+00 0. -1.
         21   -1    0    0  501  503 -0.00000000000E+00 -0.00000000000E+00 -0.15457616978E+04  0.15457616978E+04  0.00000000000E+00 0. -1.
          6    1    1    2  501    0  0.84883421315E+02  0.14540879142E+03 -0.14336345727E+04  0.14538177327E+04  0.17300000000E+03 0. -1.
         -6    1    1    2    0  502 -0.84883421315E+02 -0.14540879142E+03  0.40752715055E+02  0.24482380526E+03  0.17300000000E+03 0. -1.
<mgrwt>
<rscale>  2 0.24140819E+03</rscale>
<asrwt>0</asrwt>
<pdfrwt beam="1">  1       21 0.23519975E-01 0.24140819E+03</pdfrwt>
<pdfrwt beam="2">  1       21 0.23780949E+00 0.24140819E+03</pdfrwt>
<totfact> 0.12681058E+03</totfact>
</mgrwt>
</event>
<event>
 4    3  0.3905963E+000  0.1928346E+03  0.7546771E-02  0.1155929E+00
         21   -1    0    0  501  502  0.00000000000E+00  0.00000000000E+00  0.14675159151E+03  0.14675159151E+03  0.00000000000E+00 0.  1.
         21   -1    0    0  502  503 -0.00000000000E+00 -0.00000000000E+00 -0.39009960894E+03  0.39009960894E+03  0.00000000000E+00 0.  1.
          6    1    1    2  501    0  0.44751307009E+02 -0.72481161355E+02  0.37231050981E+02  0.19639589962E+03  0.17300000000E+03 0.  1.
         -6    1    1    2    0  503 -0.44751307009E+02  0.72481161355E+02 -0.28057906841E+03  0.34045530083E+03  0.17300000000E+03 0.  1.
<mgrwt>
<rscale>  2 0.19283464E+03</rscale>
<asrwt>0</asrwt>
<pdfrwt beam="1">  1       21 0.22577168E-01 0.19283464E+03</pdfrwt>
<pdfrwt beam="2">  1       21 0.60015324E-01 0.19283464E+03</pdfrwt>
<totfact> 0.47605422E+04</totfact>
</mgrwt>
</event>
<event>
 4    3  0.3905963E+000  0.1924809E+03  0.7546771E-02  0.1156243E+00
         21   -1    0    0  503  502  0.00000000000E+00  0.00000000000E+00  0.34988892133E+02  0.34988892133E+02  0.00000000000E+00 0.  1.
         21   -1    0    0  501  503 -0.00000000000E+00 -0.00000000000E+00 -0.11979890690E+04  0.11979890690E+04  0.00000000000E+00 0.  1.
          6    1    1    2  501    0 -0.52216607512E+02  0.66282090024E+02 -0.79157937780E+03  0.81464519940E+03  0.17300000000E+03 0.  1.
         -6    1    1    2    0  502  0.52216607512E+02 -0.66282090024E+02 -0.37142079911E+03  0.41833276177E+03  0.17300000000E+03 0.  1.
<mgrwt>
<rscale>  2 0.19248088E+03</rscale>
<asrwt>0</asrwt>
<pdfrwt beam="1">  1       21 0.53829067E-02 0.19248088E+03</pdfrwt>
<pdfrwt beam="2">  1       21 0.18430600E+00 0.19248088E+03</pdfrwt>
<totfact> 0.40387571E+04</totfact>
</mgrwt>
</event>
<event>
 4    3  0.3905963E+000  0.2202118E+03  0.7546771E-02  0.1133725E+00
         21   -1    0    0  503  502  0.00000000000E+00  0.00000000000E+00  0.68324524812E+03  0.68324524812E+03  0.00000000000E+00 0.  1.
         21   -1    0    0  501  503 -0.00000000000E+00 -0.00000000000E+00 -0.14736893443E+03  0.14736893443E+03  0.00000000000E+00 0.  1.
          6    1    1    2  501    0  0.66630162290E+02 -0.11884714255E+03 -0.31079111721E+02  0.22239409391E+03  0.17300000000E+03 0.  1.
         -6    1    1    2    0  502 -0.66630162290E+02  0.11884714255E+03  0.56695542541E+03  0.60822008864E+03  0.17300000000E+03 0.  1.
<mgrwt>
<rscale>  2 0.22021177E+03</rscale>
<asrwt>0</asrwt>
<pdfrwt beam="1">  1       21 0.10511465E+00 0.22021177E+03</pdfrwt>
<pdfrwt beam="2">  1       21 0.22672144E-01 0.22021177E+03</pdfrwt>
<totfact> 0.13051655E+04</totfact>
</mgrwt>
</event>
<event>
 4    3  0.3905963E+000  0.1912646E+03  0.7546771E-02  0.1157326E+00
         21   -1    0    0  501  502  0.00000000000E+00  0.00000000000E+00  0.34598761599E+02  0.34598761599E+02  0.00000000000E+00 0. -1.
         21   -1    0    0  502  503 -0.00000000000E+00 -0.00000000000E+00 -0.12179545716E+04  0.12179545716E+04  0.00000000000E+00 0. -1.
          6    1    1    2  501    0  0.61696834056E+02 -0.53353873277E+02 -0.36423968082E+03  0.41140330603E+03  0.17300000000E+03 0. -1.
         -6    1    1    2    0  503 -0.61696834056E+02  0.53353873277E+02 -0.81911612918E+03  0.84115002717E+03  0.17300000000E+03 0. -1.
<mgrwt>
<rscale>  2 0.19126457E+03</rscale>
<asrwt>0</asrwt>
<pdfrwt beam="1">  1       21 0.53228871E-02 0.19126457E+03</pdfrwt>
<pdfrwt beam="2">  1       21 0.18737760E+00 0.19126457E+03</pdfrwt>
<totfact> 0.39298191E+04</totfact>
</mgrwt>
</event>
<event>
 4    3  0.3905963E+000  0.2326778E+03  0.7546771E-02  0.1124769E+00
         21   -1    0    0  501  502  0.00000000000E+00  0.00000000000E+00  0.28490164907E+03  0.28490164907E+03  0.00000000000E+00 0.  1.
         21   -1    0    0  502  503 -0.00000000000E+00 -0.00000000000E+00 -0.29812441705E+03  0.29812441705E+03  0.00000000000E+00 0. -1.
          6    1    1    2  501    0 -0.15138182371E+03 -0.35965403502E+02  0.16892499483E+03  0.28753194723E+03  0.17300000000E+03 0.  1.
         -6    1    1    2    0  503  0.15138182371E+03  0.35965403502E+02 -0.18214776281E+03  0.29549411889E+03  0.17300000000E+03 0. -1.
<mgrwt>
<rscale>  2 0.23267782E+03</rscale>
<asrwt>0</asrwt>
<pdfrwt beam="1">  1       21 0.43831022E-01 0.23267782E+03</pdfrwt>
<pdfrwt beam="2">  1       21 0.45865295E-01 0.23267782E+03</pdfrwt>
<totfact> 0.22289413E+04</totfact>
</mgrwt>
</event>
<event>
 4    3  0.3905963E+000  0.1739262E+03  0.7546771E-02  0.1173814E+00
         21   -1    0    0  501  502  0.00000000000E+00  0.00000000000E+00  0.33060383245E+03  0.33060383245E+03  0.00000000000E+00 0. -1.
         21   -1    0    0  502  503 -0.00000000000E+00 -0.00000000000E+00 -0.36093737234E+03  0.36093737234E+03  0.00000000000E+00 0. -1.
          6    1    1    2  501    0 -0.17550950747E+02  0.36464387899E+01  0.28357837660E+03  0.33266654184E+03  0.17300000000E+03 0. -1.
         -6    1    1    2    0  503  0.17550950747E+02 -0.36464387899E+01 -0.31391191649E+03  0.35887466294E+03  0.17300000000E+03 0. -1.
<mgrwt>
<rscale>  2 0.17392623E+03</rscale>
<asrwt>0</asrwt>
<pdfrwt beam="1">  1       21 0.50862128E-01 0.17392623E+03</pdfrwt>
<pdfrwt beam="2">  1       21 0.55528826E-01 0.17392623E+03</pdfrwt>
<totfact> 0.11383683E+04</totfact>
</mgrwt>
</event>
<event>
 4    3  0.3905963E+000  0.2122404E+03  0.7546771E-02  0.1139804E+00
         21   -1    0    0  503  502  0.00000000000E+00  0.00000000000E+00  0.30920720432E+03  0.30920720432E+03  0.00000000000E+00 0.  1.
         21   -1    0    0  501  503 -0.00000000000E+00 -0.00000000000E+00 -0.26531755154E+03  0.26531755154E+03  0.00000000000E+00 0. -1.
          6    1    1    2  501    0  0.10336684225E+03  0.66575534456E+02 -0.17095214454E+03  0.27252640530E+03  0.17300000000E+03 0. -1.
         -6    1    1    2    0  502 -0.10336684225E+03 -0.66575534456E+02  0.21484179732E+03  0.30199835056E+03  0.17300000000E+03 0.  1.
<mgrwt>
<rscale>  2 0.21224044E+03</rscale>
<asrwt>0</asrwt>
<pdfrwt beam="1">  1       21 0.47570339E-01 0.21224044E+03</pdfrwt>
<pdfrwt beam="2">  1       21 0.40818085E-01 0.21224044E+03</pdfrwt>
<totfact> 0.24162394E+04</totfact>
</mgrwt>
</event>
<event>
 4    3  0.3905963E+000  0.3833217E+03  0.7546771E-02  0.1049713E+00
         21   -1    0    0  501  502  0.00000000000E+00  0.00000000000E+00  0.93479754520E+02  0.93479754520E+02  0.00000000000E+00 0. -1.
         21   -1    0    0  502  503 -0.00000000000E+00 -0.00000000000E+00 -0.16159197668E+04  0.16159197668E+04  0.00000000000E+00 0. -1.
          6    1    1    2  501    0  0.17732463719E+03  0.29251062284E+03 -0.90237910776E+03  0.98042008626E+03  0.17300000000E+03 0. -1.
         -6    1    1    2    0  503 -0.17732463719E+03 -0.29251062284E+03 -0.62006090457E+03  0.72897943510E+03  0.17300000000E+03 0. -1.
<mgrwt>
<rscale>  2 0.38332166E+03</rscale>
<asrwt>0</asrwt>
<pdfrwt beam="1">  1       21 0.14381500E-01 0.38332166E+03</pdfrwt>
<pdfrwt beam="2">  1       21 0.24860305E+00 0.38332166E+03</pdfrwt>
<totfact> 0.24778673E+03</totfact>
</mgrwt>
</event>
<event>
 4    3  0.3905963E+000  0.2083760E+03  0.7546771E-02  0.1142858E+00
         21   -1    0    0  501  502  0.00000000000E+00  0.00000000000E+00  0.65065223368E+03  0.65065223368E+03  0.00000000000E+00 0. -1.
         21   -1    0    0  502  503 -0.00000000000E+00 -0.00000000000E+00 -0.68434632770E+02  0.68434632770E+02  0.00000000000E+00 0.  1.
          6    1    1    2  501    0  0.63263657148E+02 -0.97412924621E+02  0.34778882596E+03  0.40543511893E+03  0.17300000000E+03 0. -1.
         -6    1    1    2    0  503 -0.63263657148E+02  0.97412924621E+02  0.23442877496E+03  0.31365174753E+03  0.17300000000E+03 0.  1.
<mgrwt>
<rscale>  2 0.20837603E+03</rscale>
<asrwt>0</asrwt>
<pdfrwt beam="1">  1       21 0.10010034E+00 0.20837603E+03</pdfrwt>
<pdfrwt beam="2">  1       21 0.10528405E-01 0.20837603E+03</pdfrwt>
<totfact> 0.60206768E+04</totfact>
</mgrwt>
</event>
<event>
 4    3  0.3905963E+000  0.1858299E+03  0.7546771E-02  0.1162277E+00
         21   -1    0    0  501  502  0.00000000000E+00  0.00000000000E+00  0.13316908496E+04  0.13316908496E+04  0.00000000000E+00 0. -1.
         21   -1    0    0  502  503 -0.00000000000E+00 -0.00000000000E+00 -0.26010567118E+02  0.26010567118E+02  0.00000000000E+00 0. -1.
          6    1    1    2  501    0 -0.62851034800E+02  0.25563783009E+02  0.61541533544E+03  0.64285985616E+03  0.17300000000E+03 0. -1.
         -6    1    1    2    0  503  0.62851034800E+02 -0.25563783009E+02  0.69026494708E+03  0.71484156059E+03  0.17300000000E+03 0. -1.
<mgrwt>
<rscale>  2 0.18582992E+03</rscale>
<asrwt>0</asrwt>
<pdfrwt beam="1">  1       21 0.20487546E+00 0.18582992E+03</pdfrwt>
<pdfrwt beam="2">  1       21 0.40016267E-02 0.18582992E+03</pdfrwt>
<totfact> 0.49168052E+04</totfact>
</mgrwt>
</event>
<event>
 4    3  0.3905963E+000  0.1786574E+03  0.7546771E-02  0.1169109E+00
         21   -1    0    0  501  502  0.00000000000E+00  0.00000000000E+00  0.43309253125E+03  0.43309253125E+03  0.00000000000E+00 0. -1.
         21   -1    0    0  502  503 -0.00000000000E+00 -0.00000000000E+00 -0.14592124092E+03  0.14592124092E+03  0.00000000000E+00 0. -1.
          6    1    1    2  501    0 -0.85446157381E+01 -0.43777439080E+02  0.34725946238E+03  0.39052222580E+03  0.17300000000E+03 0. -1.
         -6    1    1    2    0  503  0.85446157381E+01  0.43777439080E+02 -0.60088172048E+02  0.18849154636E+03  0.17300000000E+03 0. -1.
<mgrwt>
<rscale>  2 0.17865742E+03</rscale>
<asrwt>0</asrwt>
<pdfrwt beam="1">  1       21 0.66629620E-01 0.17865742E+03</pdfrwt>
<pdfrwt beam="2">  1       21 0.22449422E-01 0.17865742E+03</pdfrwt>
<totfact> 0.38643239E+04</totfact>
</mgrwt>
</event>
<event>
 4    3  0.3905963E+000  0.1904874E+03  0.7546771E-02  0.1158022E+00
         21   -1    0    0  503  502  0.00000000000E+00  0.00000000000E+00  0.50808591685E+03  0.50808591685E+03  0.00000000000E+00 0. -1.
         21   -1    0    0  501  503 -0.00000000000E+00 -0.00000000000E+00 -0.13672079224E+03  0.13672079224E+03  0.00000000000E+00 0. -1.
          6    1    1    2  501    0  0.55880854325E+02 -0.56866327688E+02 -0.37137807790E+02  0.19407386705E+03  0.17300000000E+03 0. -1.
         -6    1    1    2    0  502 -0.55880854325E+02  0.56866327688E+02  0.40850293240E+03  0.45073284203E+03  0.17300000000E+03 0. -1.
<mgrwt>
<rscale>  2 0.19048740E+03</rscale>
<asrwt>0</asrwt>
<pdfrwt beam="1">  1       21 0.78167063E-01 0.19048740E+03</pdfrwt>
<pdfrwt beam="2">  1       21 0.21033968E-01 0.19048740E+03</pdfrwt>
<totfact> 0.30475150E+04</totfact>
</mgrwt>
</event>
<event>
 4    3  0.3905963E+000  0.2696587E+03  0.7546771E-02  0.1101475E+00
         21   -1    0    0  503  502  0.00000000000E+00  0.00000000000E+00  0.53777205399E+02  0.53777205399E+02  0.00000000000E+00 0. -1.
         21   -1    0    0  501  503 -0.00000000000E+00 -0.00000000000E+00 -0.13757887515E+04  0.13757887515E+04  0.00000000000E+00 0. -1.
          6    1    1    2  501    0  0.13623501070E+02  0.20640064354E+03 -0.56734804626E+03  0.62817165730E+03  0.17300000000E+03 0. -1.
         -6    1    1    2    0  502 -0.13623501070E+02 -0.20640064354E+03 -0.75466349979E+03  0.80139429955E+03  0.17300000000E+03 0. -1.
<mgrwt>
<rscale>  2 0.26965872E+03</rscale>
<asrwt>0</asrwt>
<pdfrwt beam="1">  1       21 0.82734159E-02 0.26965872E+03</pdfrwt>
<pdfrwt beam="2">  1       21 0.21165982E+00 0.26965872E+03</pdfrwt>
<totfact> 0.12124907E+04</totfact>
</mgrwt>
</event>
<event>
 4    3  0.3905963E+000  0.2511743E+03  0.7546771E-02  0.1112565E+00
         21   -1    0    0  503  502  0.00000000000E+00  0.00000000000E+00  0.92353420129E+02  0.92353420129E+02  0.00000000000E+00 0.  1.
         21   -1    0    0  501  503 -0.00000000000E+00 -0.00000000000E+00 -0.11977304561E+04  0.11977304561E+04  0.00000000000E+00 0. -1.
          6    1    1    2  501    0  0.16692626207E+03  0.72767917453E+02 -0.97550056209E+03  0.10073181689E+04  0.17300000000E+03 0. -1.
         -6    1    1    2    0  502 -0.16692626207E+03 -0.72767917453E+02 -0.12987647392E+03  0.28276570735E+03  0.17300000000E+03 0.  1.
<mgrwt>
<rscale>  2 0.25117434E+03</rscale>
<asrwt>0</asrwt>
<pdfrwt beam="1">  1       21 0.14208219E-01 0.25117434E+03</pdfrwt>
<pdfrwt beam="2">  1       21 0.18426622E+00 0.25117434E+03</pdfrwt>
<totfact> 0.70484336E+03</totfact>
</mgrwt>
</event>
<event>
 4    3  0.3905963E+000  0.1847630E+03  0.7546771E-02  0.1163271E+00
         21   -1    0    0  501  502  0.00000000000E+00  0.00000000000E+00  0.19881137076E+02  0.19881137076E+02  0.00000000000E+00 0. -1.
         21   -1    0    0  502  503 -0.00000000000E+00 -0.00000000000E+00 -0.19460502201E+04  0.19460502201E+04  0.00000000000E+00 0. -1.
          6    1    1    2  501    0  0.42029571483E+02  0.49415217149E+02 -0.62590734699E+03  0.65260811793E+03  0.17300000000E+03 0. -1.
         -6    1    1    2    0  503 -0.42029571483E+02 -0.49415217149E+02 -0.13002617360E+04  0.13133232392E+04  0.17300000000E+03 0. -1.
<mgrwt>
<rscale>  2 0.18476295E+03</rscale>
<asrwt>0</asrwt>
<pdfrwt beam="1">  1       21 0.30586368E-02 0.18476295E+03</pdfrwt>
<pdfrwt beam="2">  1       21 0.29939231E+00 0.18476295E+03</pdfrwt>
<totfact> 0.21255762E+04</totfact>
</mgrwt>
</event>
<event>
 4    3  0.3905963E+000  0.1991027E+03  0.7546771E-02  0.1150498E+00
         21   -1    0    0  501  502  0.00000000000E+00  0.00000000000E+00  0.43443703433E+03  0.43443703433E+03  0.00000000000E+00 0. -1.
         21   -1    0    0  502  503 -0.00000000000E+00 -0.00000000000E+00 -0.99797913919E+02  0.99797913919E+02  0.00000000000E+00 0.  1.
          6    1    1    2  501    0 -0.83878409812E+02  0.51742777864E+02  0.24550025219E+03  0.31608903258E+03  0.17300000000E+03 0. -1.
         -6    1    1    2    0  503  0.83878409812E+02 -0.51742777864E+02  0.89138868221E+02  0.21814591567E+03  0.17300000000E+03 0.  1.
<mgrwt>
<rscale>  2 0.19910274E+03</rscale>
<asrwt>0</asrwt>
<pdfrwt beam="1">  1       21 0.66836466E-01 0.19910274E+03</pdfrwt>
<pdfrwt beam="2">  1       21 0.15353525E-01 0.19910274E+03</pdfrwt>
<totfact> 0.76891741E+04</totfact>
</mgrwt>
</event>
<event>
 4    3  0.3905963E+000  0.1834452E+03  0.7546771E-02  0.1164510E+00
         21   -1    0    0  503  502  0.00000000000E+00  0.00000000000E+00  0.72667773000E+02  0.72667773000E+02  0.00000000000E+00 0.  1.
         21   -1    0    0  501  503 -0.00000000000E+00 -0.00000000000E+00 -0.49491366069E+03  0.49491366069E+03  0.00000000000E+00 0.  1.
          6    1    1    2  501    0 -0.31430247332E+02  0.52300011083E+02 -0.28307909187E+03  0.33732169195E+03  0.17300000000E+03 0.  1.
         -6    1    1    2    0  502  0.31430247332E+02 -0.52300011083E+02 -0.13916679582E+03  0.23025974174E+03  0.17300000000E+03 0.  1.
<mgrwt>
<rscale>  2 0.18344523E+03</rscale>
<asrwt>0</asrwt>
<pdfrwt beam="1">  1       21 0.11179657E-01 0.18344523E+03</pdfrwt>
<pdfrwt beam="2">  1       21 0.76140563E-01 0.18344523E+03</pdfrwt>
<totfact> 0.10271892E+05</totfact>
</mgrwt>
</event>
<event>
 4    3  0.3905963E+000  0.1981160E+03  0.7546771E-02  0.1151338E+00
         21   -1    0    0  501  502  0.00000000000E+00  0.00000000000E+00  0.10628308430E+03  0.10628308430E+03  0.00000000000E+00 0. -1.
         21   -1    0    0  502  503 -0.00000000000E+00 -0.00000000000E+00 -0.49432040523E+03  0.49432040523E+03  0.00000000000E+00 0. -1.
          6    1    1    2  501    0  0.88927789680E+02  0.37587345622E+02 -0.42993157216E+02  0.20272733386E+03  0.17300000000E+03 0. -1.
         -6    1    1    2    0  503 -0.88927789680E+02 -0.37587345622E+02 -0.34504416371E+03  0.39787615566E+03  0.17300000000E+03 0. -1.
<mgrwt>
<rscale>  2 0.19811603E+03</rscale>
<asrwt>0</asrwt>
<pdfrwt beam="1">  1       21 0.16351244E-01 0.19811603E+03</pdfrwt>
<pdfrwt beam="2">  1       21 0.76049291E-01 0.19811603E+03</pdfrwt>
<totfact> 0.51507164E+04</totfact>
</mgrwt>
</event>
<event>
 4    3  0.3905963E+000  0.1938898E+03  0.7546771E-02  0.1154999E+00
         21   -1    0    0  501  502  0.00000000000E+00  0.00000000000E+00  0.29589222916E+03  0.29589222916E+03  0.00000000000E+00 0.  1.
         21   -1    0    0  502  503 -0.00000000000E+00 -0.00000000000E+00 -0.13051839353E+03  0.13051839353E+03  0.00000000000E+00 0. -1.
          6    1    1    2  501    0 -0.30404052640E+02  0.82096466799E+02  0.11744046508E+03  0.22668369839E+03  0.17300000000E+03 0. -1.
         -6    1    1    2    0  503  0.30404052640E+02 -0.82096466799E+02  0.47933370556E+02  0.19972692430E+03  0.17300000000E+03 0. -1.
<mgrwt>
<rscale>  2 0.19388975E+03</rscale>
<asrwt>0</asrwt>
<pdfrwt beam="1">  1       21 0.45521881E-01 0.19388975E+03</pdfrwt>
<pdfrwt beam="2">  1       21 0.20079753E-01 0.19388975E+03</pdfrwt>
<totfact> 0.10598471E+05</totfact>
</mgrwt>
</event>
<event>
 4    3  0.3905963E+000  0.1884096E+03  0.7546771E-02  0.1159904E+00
         21   -1    0    0  501  502  0.00000000000E+00  0.00000000000E+00  0.18331669093E+03  0.18331669093E+03  0.00000000000E+00 0.  1.
         21   -1    0    0  502  503 -0.00000000000E+00 -0.00000000000E+00 -0.36456630094E+03  0.36456630094E+03  0.00000000000E+00 0.  1.
          6    1    1    2  501    0  0.68300556485E+02  0.30070065617E+02  0.96947598917E+02  0.21188914979E+03  0.17300000000E+03 0.  1.
         -6    1    1    2    0  503 -0.68300556485E+02 -0.30070065617E+02 -0.27819720893E+03  0.33599384208E+03  0.17300000000E+03 0.  1.
<mgrwt>
<rscale>  2 0.18840959E+03</rscale>
<asrwt>0</asrwt>
<pdfrwt beam="1">  1       21 0.28202568E-01 0.18840959E+03</pdfrwt>
<pdfrwt beam="2">  1       21 0.56087123E-01 0.18840959E+03</pdfrwt>
<totfact> 0.36032575E+04</totfact>
</mgrwt>
</event>
<event>
 4    3  0.3905963E+000  0.2474629E+03  0.7546771E-02  0.1114919E+00
         21   -1    0    0  503  502  0.00000000000E+00  0.00000000000E+00  0.21590708830E+03  0.21590708830E+03  0.00000000000E+00 0. -1.
         21   -1    0    0  501  503 -0.00000000000E+00 -0.00000000000E+00 -0.36689043819E+03  0.36689043819E+03  0.00000000000E+00 0.  1.
          6    1    1    2  501    0 -0.10641138897E+03  0.14137010286E+03 -0.21430683364E+03  0.32736112877E+03  0.17300000000E+03 0.  1.
         -6    1    1    2    0  502  0.10641138897E+03 -0.14137010286E+03  0.63323483745E+02  0.25543639772E+03  0.17300000000E+03 0. -1.
<mgrwt>
<rscale>  2 0.24746291E+03</rscale>
<asrwt>0</asrwt>
<pdfrwt beam="1">  1       21 0.33216475E-01 0.24746291E+03</pdfrwt>
<pdfrwt beam="2">  1       21 0.56444683E-01 0.24746291E+03</pdfrwt>
<totfact> 0.25036927E+04</totfact>
</mgrwt>
</event>
<event>
 4    3  0.3905963E+000  0.2078758E+03  0.7546771E-02  0.1143259E+00
         21   -1    0    0  501  502  0.00000000000E+00  0.00000000000E+00  0.14701583271E+03  0.14701583271E+03  0.00000000000E+00 0.  1.
         21   -1    0    0  502  503 -0.00000000000E+00 -0.00000000000E+00 -0.29436132211E+03  0.29436132211E+03  0.00000000000E+00 0. -1.
          6    1    1    2  501    0 -0.66397958314E+01 -0.11506207194E+03 -0.65225246943E+02  0.21786853864E+03  0.17300000000E+03 0. -1.
         -6    1    1    2    0  503  0.66397958314E+01  0.11506207194E+03 -0.82120242458E+02  0.22350861619E+03  0.17300000000E+03 0.  1.
<mgrwt>
<rscale>  2 0.20787585E+03</rscale>
<asrwt>0</asrwt>
<pdfrwt beam="1">  1       21 0.22617821E-01 0.20787585E+03</pdfrwt>
<pdfrwt beam="2">  1       21 0.45286357E-01 0.20787585E+03</pdfrwt>
<totfact> 0.85140198E+04</totfact>
</mgrwt>
</event>
<event>
 4    3  0.3905963E+000  0.1768285E+03  0.7546771E-02  0.1170908E+00
         21   -1    0    0  503  502  0.00000000000E+00  0.00000000000E+00  0.12553742428E+03  0.12553742428E+03  0.00000000000E+00 0. -1.
         21   -1    0    0  501  503 -0.00000000000E+00 -0.00000000000E+00 -0.40505522911E+03  0.40505522911E+03  0.00000000000E+00 0. -1.
          6    1    1    2  501    0  0.25392212440E+02 -0.26354347496E+02 -0.30438852454E+03  0.35202370653E+03  0.17300000000E+03 0. -1.
         -6    1    1    2    0  502 -0.25392212440E+02  0.26354347496E+02  0.24870719713E+02  0.17856894686E+03  0.17300000000E+03 0. -1.
<mgrwt>
<rscale>  2 0.17682849E+03</rscale>
<asrwt>0</asrwt>
<pdfrwt beam="1">  1       21 0.19313450E-01 0.17682849E+03</pdfrwt>
<pdfrwt beam="2">  1       21 0.62316190E-01 0.17682849E+03</pdfrwt>
<totfact> 0.59262837E+04</totfact>
</mgrwt>
</event>
<event>
 4    3  0.3905963E+000  0.2314009E+03  0.7546771E-02  0.1125658E+00
         21   -1    0    0  503  502  0.00000000000E+00  0.00000000000E+00  0.11556084922E+03  0.11556084922E+03  0.00000000000E+00 0. -1.
         21   -1    0    0  501  503 -0.00000000000E+00 -0.00000000000E+00 -0.76784865944E+03  0.76784865944E+03  0.00000000000E+00 0.  1.
          6    1    1    2  501    0 -0.50914323107E+02 -0.14500030626E+03 -0.60429406477E+03  0.64708397742E+03  0.17300000000E+03 0.  1.
         -6    1    1    2    0  502  0.50914323107E+02  0.14500030626E+03 -0.47993745445E+02  0.23632553124E+03  0.17300000000E+03 0.  1.
<mgrwt>
<rscale>  2 0.23140086E+03</rscale>
<asrwt>0</asrwt>
<pdfrwt beam="1">  1       21 0.17778593E-01 0.23140086E+03</pdfrwt>
<pdfrwt beam="2">  1       21 0.11813056E+00 0.23140086E+03</pdfrwt>
<totfact> 0.15389068E+04</totfact>
</mgrwt>
</event>
<event>
 4    3  0.3905963E+000  0.1746753E+03  0.7546771E-02  0.1173058E+00
         21   -1    0    0  503  502  0.00000000000E+00  0.00000000000E+00  0.23013511823E+03  0.23013511823E+03  0.00000000000E+00 0. -1.
         21   -1    0    0  501  503 -0.00000000000E+00 -0.00000000000E+00 -0.32088631481E+03  0.32088631481E+03  0.00000000000E+00 0. -1.
          6    1    1    2  501    0  0.23677848433E+02 -0.46709352449E+01 -0.25643009913E+03  0.31027061395E+03  0.17300000000E+03 0. -1.
         -6    1    1    2    0  502 -0.23677848433E+02  0.46709352449E+01  0.16567890255E+03  0.24075081909E+03  0.17300000000E+03 0. -1.
<mgrwt>
<rscale>  2 0.17467529E+03</rscale>
<asrwt>0</asrwt>
<pdfrwt beam="1">  1       21 0.35405403E-01 0.17467529E+03</pdfrwt>
<pdfrwt beam="2">  1       21 0.49367125E-01 0.17467529E+03</pdfrwt>
<totfact> 0.30392061E+04</totfact>
</mgrwt>
</event>
<event>
 4    3  0.3905963E+000  0.3210004E+03  0.7546771E-02  0.1075190E+00
         21   -1    0    0  501  502  0.00000000000E+00  0.00000000000E+00  0.60835730591E+03  0.60835730591E+03  0.00000000000E+00 0.  1.
         21   -1    0    0  502  503 -0.00000000000E+00 -0.00000000000E+00 -0.39659748258E+03  0.39659748258E+03  0.00000000000E+00 0.  1.
          6    1    1    2  501    0  0.70378167264E+02  0.26107311226E+03 -0.27445486963E+03  0.42233485747E+03  0.17300000000E+03 0.  1.
         -6    1    1    2    0  503 -0.70378167264E+02 -0.26107311226E+03  0.48621469296E+03  0.58261993102E+03  0.17300000000E+03 0.  1.
<mgrwt>
<rscale>  2 0.32100040E+03</rscale>
<asrwt>0</asrwt>
<pdfrwt beam="1">  1       21 0.93593432E-01 0.32100040E+03</pdfrwt>
<pdfrwt beam="2">  1       21 0.61014997E-01 0.32100040E+03</pdfrwt>
<totfact> 0.21929559E+03</totfact>
</mgrwt>
</event>
<event>
 4    3  0.3905963E+000  0.2115954E+03  0.7546771E-02  0.1140309E+00
         21   -1    0    0  501  502  0.00000000000E+00  0.00000000000E+00  0.38713701535E+03  0.38713701535E+03  0.00000000000E+00 0.  1.
         21   -1    0    0  502  503 -0.00000000000E+00 -0.00000000000E+00 -0.18137304841E+03  0.18137304841E+03  0.00000000000E+00 0. -1.
          6    1    1    2  501    0 -0.11282106138E+03 -0.45989511817E+02  0.27399327167E+03  0.34618627935E+03  0.17300000000E+03 0.  1.
         -6    1    1    2    0  503  0.11282106138E+03  0.45989511817E+02 -0.68229304730E+02  0.22232378441E+03  0.17300000000E+03 0. -1.
<mgrwt>
<rscale>  2 0.21159543E+03</rscale>
<asrwt>0</asrwt>
<pdfrwt beam="1">  1       21 0.59559541E-01 0.21159543E+03</pdfrwt>
<pdfrwt beam="2">  1       21 0.27903546E-01 0.21159543E+03</pdfrwt>
<totfact> 0.31960565E+04</totfact>
</mgrwt>
</event>
<event>
 4    3  0.3905963E+000  0.1970255E+03  0.7546771E-02  0.1152273E+00
         21   -1    0    0  501  502  0.00000000000E+00  0.00000000000E+00  0.10464550869E+03  0.10464550869E+03  0.00000000000E+00 0. -1.
         21   -1    0    0  502  503 -0.00000000000E+00 -0.00000000000E+00 -0.10354074228E+04  0.10354074228E+04  0.00000000000E+00 0.  1.
          6    1    1    2  501    0 -0.54689708358E+02 -0.76805500674E+02 -0.87446170983E+01  0.19721946522E+03  0.17300000000E+03 0. -1.
         -6    1    1    2    0  503  0.54689708358E+02  0.76805500674E+02 -0.92201729701E+03  0.94283346627E+03  0.17300000000E+03 0.  1.
<mgrwt>
<rscale>  2 0.19702550E+03</rscale>
<asrwt>0</asrwt>
<pdfrwt beam="1">  1       21 0.16099309E-01 0.19702550E+03</pdfrwt>
<pdfrwt beam="2">  1       21 0.15929345E+00 0.19702550E+03</pdfrwt>
<totfact> 0.87512456E+03</totfact>
</mgrwt>
</event>
<event>
 4    3  0.3905963E+000  0.2445159E+03  0.7546771E-02  0.1116820E+00
         21   -1    0    0  503  502  0.00000000000E+00  0.00000000000E+00  0.16055660535E+03  0.16055660535E+03  0.00000000000E+00 0.  1.
         21   -1    0    0  501  503 -0.00000000000E+00 -0.00000000000E+00 -0.45906377894E+03  0.45906377894E+03  0.00000000000E+00 0.  1.
          6    1    1    2  501    0 -0.17279768215E+03 -0.34961828468E-01 -0.28387946532E+03  0.37466730710E+03  0.17300000000E+03 0.  1.
         -6    1    1    2    0  502  0.17279768215E+03  0.34961828468E-01 -0.14627708271E+02  0.24495307720E+03  0.17300000000E+03 0.  1.
<mgrwt>
<rscale>  2 0.24451593E+03</rscale>
<asrwt>0</asrwt>
<pdfrwt beam="1">  1       21 0.24701016E-01 0.24451593E+03</pdfrwt>
<pdfrwt beam="2">  1       21 0.70625197E-01 0.24451593E+03</pdfrwt>
<totfact> 0.27408106E+04</totfact>
</mgrwt>
</event>
<event>
 4    3  0.3905963E+000  0.1810383E+03  0.7546771E-02  0.1166802E+00
         21   -1    0    0  503  502  0.00000000000E+00  0.00000000000E+00  0.10639926203E+03  0.10639926203E+03  0.00000000000E+00 0.  1.
         21   -1    0    0  501  503 -0.00000000000E+00 -0.00000000000E+00 -0.41341902492E+03  0.41341902492E+03  0.00000000000E+00 0.  1.
          6    1    1    2  501    0 -0.53064978325E+02 -0.54756142768E+01 -0.28473297752E+03  0.33741331148E+03  0.17300000000E+03 0.  1.
         -6    1    1    2    0  502  0.53064978325E+02  0.54756142768E+01 -0.22286785377E+02  0.18240497548E+03  0.17300000000E+03 0.  1.
<mgrwt>
<rscale>  2 0.18103832E+03</rscale>
<asrwt>0</asrwt>
<pdfrwt beam="1">  1       21 0.16369118E-01 0.18103832E+03</pdfrwt>
<pdfrwt beam="2">  1       21 0.63602926E-01 0.18103832E+03</pdfrwt>
<totfact> 0.76779545E+04</totfact>
</mgrwt>
</event>
<event>
 4    3  0.3905963E+000  0.2403025E+03  0.7546771E-02  0.1119591E+00
         21   -1    0    0  501  502  0.00000000000E+00  0.00000000000E+00  0.71637515201E+03  0.71637515201E+03  0.00000000000E+00 0.  1.
         21   -1    0    0  502  503 -0.00000000000E+00 -0.00000000000E+00 -0.17013643724E+03  0.17013643724E+03  0.00000000000E+00 0. -1.
          6    1    1    2  501    0 -0.15223584821E+03 -0.68121604412E+02  0.59466093844E+03  0.64137893493E+03  0.17300000000E+03 0.  1.
         -6    1    1    2    0  503  0.15223584821E+03  0.68121604412E+02 -0.48422223665E+02  0.24513265432E+03  0.17300000000E+03 0. -1.
<mgrwt>
<rscale>  2 0.24030253E+03</rscale>
<asrwt>0</asrwt>
<pdfrwt beam="1">  1       21 0.11021156E+00 0.24030253E+03</pdfrwt>
<pdfrwt beam="2">  1       21 0.26174837E-01 0.24030253E+03</pdfrwt>
<totfact> 0.87328878E+03</totfact>
</mgrwt>
</event>
<event>
 4    3  0.3905963E+000  0.2073530E+03  0.7546771E-02  0.1143679E+00
         21   -1    0    0  501  502  0.00000000000E+00  0.00000000000E+00  0.75454860439E+03  0.75454860439E+03  0.00000000000E+00 0.  1.
         21   -1    0    0  502  503 -0.00000000000E+00 -0.00000000000E+00 -0.91259266600E+02  0.91259266600E+02  0.00000000000E+00 0.  1.
          6    1    1    2  501    0  0.11386386810E+03  0.10065050819E+02  0.59082957900E+03  0.62615882740E+03  0.17300000000E+03 0.  1.
         -6    1    1    2    0  503 -0.11386386810E+03 -0.10065050819E+02  0.72459758788E+02  0.21964904359E+03  0.17300000000E+03 0.  1.
<mgrwt>
<rscale>  2 0.20735305E+03</rscale>
<asrwt>0</asrwt>
<pdfrwt beam="1">  1       21 0.11608440E+00 0.20735305E+03</pdfrwt>
<pdfrwt beam="2">  1       21 0.14039888E-01 0.20735305E+03</pdfrwt>
<totfact> 0.25122398E+04</totfact>
</mgrwt>
</event>
<event>
 4    3  0.3905963E+000  0.2288611E+03  0.7546771E-02  0.1127444E+00
         21   -1    0    0  501  502  0.00000000000E+00  0.00000000000E+00  0.16298530923E+04  0.16298530923E+04  0.00000000000E+00 0. -1.
         21   -1    0    0  502  503 -0.00000000000E+00 -0.00000000000E+00 -0.39752833811E+02  0.39752833811E+02  0.00000000000E+00 0.  1.
          6    1    1    2  501    0 -0.12868436912E+03  0.76738123923E+02  0.11604592193E+04  0.11828114838E+04  0.17300000000E+03 0. -1.
         -6    1    1    2    0  503  0.12868436912E+03 -0.76738123923E+02  0.42964103918E+03  0.48679444231E+03  0.17300000000E+03 0.  1.
<mgrwt>
<rscale>  2 0.22886111E+03</rscale>
<asrwt>0</asrwt>
<pdfrwt beam="1">  1       21 0.25074658E+00 0.22886111E+03</pdfrwt>
<pdfrwt beam="2">  1       21 0.61158219E-02 0.22886111E+03</pdfrwt>
<totfact> 0.12168477E+04</totfact>
</mgrwt>
</event>
<event>
 4    3  0.3905963E+000  0.1881593E+03  0.7546771E-02  0.1160132E+00
         21   -1    0    0  501  502  0.00000000000E+00  0.00000000000E+00  0.16679634715E+04  0.16679634715E+04  0.00000000000E+00 0. -1.
         21   -1    0    0  502  503 -0.00000000000E+00 -0.00000000000E+00 -0.21714053693E+02  0.21714053693E+02  0.00000000000E+00 0.  1.
          6    1    1    2  501    0 -0.36291745417E+02  0.64481163241E+02  0.94980593043E+03  0.96826402220E+03  0.17300000000E+03 0.  1.
         -6    1    1    2    0  503  0.36291745417E+02 -0.64481163241E+02  0.69644348740E+03  0.72141350302E+03  0.17300000000E+03 0.  1.
<mgrwt>
<rscale>  2 0.18815927E+03</rscale>
<asrwt>0</asrwt>
<pdfrwt beam="1">  1       21 0.25660966E+00 0.18815927E+03</pdfrwt>
<pdfrwt beam="2">  1       21 0.33406250E-02 0.18815927E+03</pdfrwt>
<totfact> 0.32315184E+04</totfact>
</mgrwt>
</event>
<event>
 4    3  0.3905963E+000  0.2223341E+03  0.7546771E-02  0.1132155E+00
         21   -1    0    0  503  502  0.00000000000E+00  0.00000000000E+00  0.19969178888E+03  0.19969178888E+03  0.00000000000E+00 0.  1.
         21   -1    0    0  501  503 -0.00000000000E+00 -0.00000000000E+00 -0.26169356737E+03  0.26169356737E+03  0.00000000000E+00 0.  1.
          6    1    1    2  501    0  0.11834509656E+03 -0.74147664588E+02 -0.84643999537E+02  0.23790133396E+03  0.17300000000E+03 0.  1.
         -6    1    1    2    0  502 -0.11834509656E+03  0.74147664588E+02  0.22642221039E+02  0.22348402229E+03  0.17300000000E+03 0.  1.
<mgrwt>
<rscale>  2 0.22233407E+03</rscale>
<asrwt>0</asrwt>
<pdfrwt beam="1">  1       21 0.30721814E-01 0.22233407E+03</pdfrwt>
<pdfrwt beam="2">  1       21 0.40260549E-01 0.22233407E+03</pdfrwt>
<totfact> 0.59675903E+04</totfact>
</mgrwt>
</event>
<event>
 4    3  0.3905963E+000  0.2075065E+03  0.7546771E-02  0.1143556E+00
         21   -1    0    0  501  502  0.00000000000E+00  0.00000000000E+00  0.11305989996E+03  0.11305989996E+03  0.00000000000E+00 0. -1.
         21   -1    0    0  502  503 -0.00000000000E+00 -0.00000000000E+00 -0.11209025388E+04  0.11209025388E+04  0.00000000000E+00 0. -1.
          6    1    1    2  501    0  0.96115343714E+02 -0.62384261539E+02 -0.25966749412E+01  0.20752276527E+03  0.17300000000E+03 0. -1.
         -6    1    1    2    0  503 -0.96115343714E+02  0.62384261539E+02 -0.10052459639E+04  0.10264396735E+04  0.17300000000E+03 0. -1.
<mgrwt>
<rscale>  2 0.20750652E+03</rscale>
<asrwt>0</asrwt>
<pdfrwt beam="1">  1       21 0.17393831E-01 0.20750652E+03</pdfrwt>
<pdfrwt beam="2">  1       21 0.17244654E+00 0.20750652E+03</pdfrwt>
<totfact> 0.60591356E+03</totfact>
</mgrwt>
</event>
<event>
 4    3  0.3905963E+000  0.1778140E+03  0.7546771E-02  0.1169936E+00
         21   -1    0    0  501  502  0.00000000000E+00  0.00000000000E+00  0.25422617396E+03  0.25422617396E+03  0.00000000000E+00 0.  1.
         21   -1    0    0  502  503 -0.00000000000E+00 -0.00000000000E+00 -0.14146896342E+03  0.14146896342E+03  0.00000000000E+00 0.  1.
          6    1    1    2  501    0 -0.60219959938E+01  0.40651756341E+02  0.12516443596E+03  0.21744876583E+03  0.17300000000E+03 0.  1.
         -6    1    1    2    0  503  0.60219959938E+01 -0.40651756341E+02 -0.12407225419E+02  0.17824637155E+03  0.17300000000E+03 0.  1.
<mgrwt>
<rscale>  2 0.17781403E+03</rscale>
<asrwt>0</asrwt>
<pdfrwt beam="1">  1       21 0.39111719E-01 0.17781403E+03</pdfrwt>
<pdfrwt beam="2">  1       21 0.21764456E-01 0.17781403E+03</pdfrwt>
<totfact> 0.12479537E+05</totfact>
</mgrwt>
</event>
<event>
 4    3  0.3905963E+000  0.2045150E+03  0.7546771E-02  0.1145985E+00
         21   -1    0    0  501  502  0.00000000000E+00  0.00000000000E+00  0.14388747098E+03  0.14388747098E+03  0.00000000000E+00 0. -1.
         21   -1    0    0  502  503 -0.00000000000E+00 -0.00000000000E+00 -0.32238223369E+03  0.32238223369E+03  0.00000000000E+00 0. -1.
          6    1    1    2  501    0  0.53432407999E+02 -0.95091281236E+02 -0.16148426093E+02  0.20515151878E+03  0.17300000000E+03 0. -1.
         -6    1    1    2    0  503 -0.53432407999E+02  0.95091281236E+02 -0.16234633662E+03  0.26111818589E+03  0.17300000000E+03 0. -1.
<mgrwt>
<rscale>  2 0.20451497E+03</rscale>
<asrwt>0</asrwt>
<pdfrwt beam="1">  1       21 0.22136534E-01 0.20451497E+03</pdfrwt>
<pdfrwt beam="2">  1       21 0.49597266E-01 0.20451497E+03</pdfrwt>
<totfact> 0.73549286E+04</totfact>
</mgrwt>
</event>
<event>
 4    3  0.3905963E+000  0.2362230E+03  0.7546771E-02  0.1122335E+00
         21   -1    0    0  501  502  0.00000000000E+00  0.00000000000E+00  0.35830700998E+03  0.35830700998E+03  0.00000000000E+00 0.  1.
         21   -1    0    0  502  503 -0.00000000000E+00 -0.00000000000E+00 -0.76024241858E+03  0.76024241858E+03  0.00000000000E+00 0. -1.
          6    1    1    2  501    0 -0.94229736245E+02 -0.13035743391E+03  0.29774403425E+03  0.38006948536E+03  0.17300000000E+03 0.  1.
         -6    1    1    2    0  503  0.94229736245E+02  0.13035743391E+03 -0.69967944285E+03  0.73847994321E+03  0.17300000000E+03 0. -1.
<mgrwt>
<rscale>  2 0.23622300E+03</rscale>
<asrwt>0</asrwt>
<pdfrwt beam="1">  1       21 0.55124156E-01 0.23622300E+03</pdfrwt>
<pdfrwt beam="2">  1       21 0.11696037E+00 0.23622300E+03</pdfrwt>
<totfact> 0.16810809E+03</totfact>
</mgrwt>
</event>
<event>
 4    3  0.3905963E+000  0.1761252E+03  0.7546771E-02  0.1171607E+00
         21   -1    0    0  501  502  0.00000000000E+00  0.00000000000E+00  0.30812068395E+03  0.30812068395E+03  0.00000000000E+00 0.  1.
         21   -1    0    0  502  503 -0.00000000000E+00 -0.00000000000E+00 -0.10838059555E+03  0.10838059555E+03  0.00000000000E+00 0.  1.
          6    1    1    2  501    0  0.26648286834E+02 -0.19517644551E+02  0.44342064402E+02  0.18162127716E+03  0.17300000000E+03 0.  1.
         -6    1    1    2    0  503 -0.26648286834E+02  0.19517644551E+02  0.15539802400E+03  0.23488000235E+03  0.17300000000E+03 0.  1.
<mgrwt>
<rscale>  2 0.17612515E+03</rscale>
<asrwt>0</asrwt>
<pdfrwt beam="1">  1       21 0.47403182E-01 0.17612515E+03</pdfrwt>
<pdfrwt beam="2">  1       21 0.16673938E-01 0.17612515E+03</pdfrwt>
<totfact> 0.13838171E+05</totfact>
</mgrwt>
</event>
<event>
 4    3  0.3905963E+000  0.1819334E+03  0.7546771E-02  0.1165945E+00
         21   -1    0    0  503  502  0.00000000000E+00  0.00000000000E+00  0.63992442919E+02  0.63992442919E+02  0.00000000000E+00 0.  1.
         21   -1    0    0  501  503 -0.00000000000E+00 -0.00000000000E+00 -0.71373200873E+03  0.71373200873E+03  0.00000000000E+00 0.  1.
          6    1    1    2  501    0 -0.45289803210E+02 -0.33460274151E+02 -0.52890040272E+03  0.55931689785E+03  0.17300000000E+03 0.  1.
         -6    1    1    2    0  502  0.45289803210E+02  0.33460274151E+02 -0.12083916309E+03  0.21840755380E+03  0.17300000000E+03 0.  1.
<mgrwt>
<rscale>  2 0.18193338E+03</rscale>
<asrwt>0</asrwt>
<pdfrwt beam="1">  1       21 0.98449916E-02 0.18193338E+03</pdfrwt>
<pdfrwt beam="2">  1       21 0.10980492E+00 0.18193338E+03</pdfrwt>
<totfact> 0.55004155E+04</totfact>
</mgrwt>
</event>
<event>
 4    3  0.3905963E+000  0.1786332E+03  0.7546771E-02  0.1169132E+00
         21   -1    0    0  503  502  0.00000000000E+00  0.00000000000E+00  0.21077337013E+03  0.21077337013E+03  0.00000000000E+00 0.  1.
         21   -1    0    0  501  503 -0.00000000000E+00 -0.00000000000E+00 -0.19775384679E+03  0.19775384679E+03  0.00000000000E+00 0.  1.
          6    1    1    2  501    0 -0.42366815798E+02 -0.13633130731E+02 -0.92391046984E+02  0.20111169756E+03  0.17300000000E+03 0.  1.
         -6    1    1    2    0  502  0.42366815798E+02  0.13633130731E+02  0.10541057032E+03  0.20741551936E+03  0.17300000000E+03 0.  1.
<mgrwt>
<rscale>  2 0.17863317E+03</rscale>
<asrwt>0</asrwt>
<pdfrwt beam="1">  1       21 0.32426672E-01 0.17863317E+03</pdfrwt>
<pdfrwt beam="2">  1       21 0.30423669E-01 0.17863317E+03</pdfrwt>
<totfact> 0.95393579E+04</totfact>
</mgrwt>
</event>
<event>
 4    3  0.3905963E+000  0.1930609E+03  0.7546771E-02  0.1155729E+00
         21   -1    0    0  503  502  0.00000000000E+00  0.00000000000E+00  0.49117626171E+03  0.49117626171E+03  0.00000000000E+00 0.  1.
         21   -1    0    0  501  503 -0.00000000000E+00 -0.00000000000E+00 -0.10079881540E+03  0.10079881540E+03  0.00000000000E+00 0. -1.
          6    1    1    2  501    0 -0.32515189658E+02  0.79285981854E+02  0.48034394760E+02  0.19894674553E+03  0.17300000000E+03 0. -1.
         -6    1    1    2    0  502  0.32515189658E+02 -0.79285981854E+02  0.34234305155E+03  0.39302833158E+03  0.17300000000E+03 0. -1.
<mgrwt>
<rscale>  2 0.19306088E+03</rscale>
<asrwt>0</asrwt>
<pdfrwt beam="1">  1       21 0.75565577E-01 0.19306088E+03</pdfrwt>
<pdfrwt beam="2">  1       21 0.15507510E-01 0.19306088E+03</pdfrwt>
<totfact> 0.57714528E+04</totfact>
</mgrwt>
</event>
<event>
 4    3  0.3905963E+000  0.2090213E+03  0.7546771E-02  0.1142343E+00
         21   -1    0    0  501  502  0.00000000000E+00  0.00000000000E+00  0.26911214116E+03  0.26911214116E+03  0.00000000000E+00 0.  1.
         21   -1    0    0  502  503 -0.00000000000E+00 -0.00000000000E+00 -0.22853488716E+03  0.22853488716E+03  0.00000000000E+00 0.  1.
          6    1    1    2  501    0  0.10248082631E+03 -0.57083921425E+02  0.15419468277E+03  0.25974197589E+03  0.17300000000E+03 0.  1.
         -6    1    1    2    0  503 -0.10248082631E+03  0.57083921425E+02 -0.11361742877E+03  0.23790505242E+03  0.17300000000E+03 0.  1.
<mgrwt>
<rscale>  2 0.20902128E+03</rscale>
<asrwt>0</asrwt>
<pdfrwt beam="1">  1       21 0.41401868E-01 0.20902128E+03</pdfrwt>
<pdfrwt beam="2">  1       21 0.35159213E-01 0.20902128E+03</pdfrwt>
<totfact> 0.43453163E+04</totfact>
</mgrwt>
</event>
<event>
 4    3  0.3905963E+000  0.1912969E+03  0.7546771E-02  0.1157297E+00
         21   -1    0    0  501  502  0.00000000000E+00  0.00000000000E+00  0.30874620115E+03  0.30874620115E+03  0.00000000000E+00 0.  1.
         21   -1    0    0  502  503 -0.00000000000E+00 -0.00000000000E+00 -0.14873491193E+03  0.14873491193E+03  0.00000000000E+00 0.  1.
          6    1    1    2  501    0  0.72382745098E+02 -0.37765804932E+02 -0.23081076929E+02  0.19268433751E+03  0.17300000000E+03 0.  1.
         -6    1    1    2    0  503 -0.72382745098E+02  0.37765804932E+02  0.18309236615E+03  0.26479677557E+03  0.17300000000E+03 0.  1.
<mgrwt>
<rscale>  2 0.19129694E+03</rscale>
<asrwt>0</asrwt>
<pdfrwt beam="1">  1       21 0.47499415E-01 0.19129694E+03</pdfrwt>
<pdfrwt beam="2">  1       21 0.22882294E-01 0.19129694E+03</pdfrwt>
<totfact> 0.76014868E+04</totfact>
</mgrwt>
</event>
<event>
 4    3  0.3905963E+000  0.2028557E+03  0.7546771E-02  0.1147352E+00
         21   -1    0    0  501  502  0.00000000000E+00  0.00000000000E+00  0.22041580274E+03  0.22041580274E+03  0.00000000000E+00 0.  1.
         21   -1    0    0  502  503 -0.00000000000E+00 -0.00000000000E+00 -0.18834179566E+03  0.18834179566E+03  0.00000000000E+00 0.  1.
          6    1    1    2  501    0 -0.10369706102E+03  0.21641547037E+02 -0.30763521229E+01  0.20287903037E+03  0.17300000000E+03 0.  1.
         -6    1    1    2    0  503  0.10369706102E+03 -0.21641547037E+02  0.35150359201E+02  0.20587856803E+03  0.17300000000E+03 0.  1.
<mgrwt>
<rscale>  2 0.20285570E+03</rscale>
<asrwt>0</asrwt>
<pdfrwt beam="1">  1       21 0.33910124E-01 0.20285570E+03</pdfrwt>
<pdfrwt beam="2">  1       21 0.28975661E-01 0.20285570E+03</pdfrwt>
<totfact> 0.95125603E+04</totfact>
</mgrwt>
</event>
<event>
 4    3  0.3905963E+000  0.2338277E+03  0.7546771E-02  0.1123974E+00
         21   -1    0    0  501  502  0.00000000000E+00  0.00000000000E+00  0.85683016202E+02  0.85683016202E+02  0.00000000000E+00 0. -1.
         21   -1    0    0  502  503 -0.00000000000E+00 -0.00000000000E+00 -0.65480564120E+03  0.65480564120E+03  0.00000000000E+00 0.  1.
          6    1    1    2  501    0  0.15712457802E+03 -0.76341400340E+01 -0.34367660049E+03  0.41567898532E+03  0.17300000000E+03 0.  1.
         -6    1    1    2    0  503 -0.15712457802E+03  0.76341400340E+01 -0.22544602450E+03  0.32480967208E+03  0.17300000000E+03 0. -1.
<mgrwt>
<rscale>  2 0.23382774E+03</rscale>
<asrwt>0</asrwt>
<pdfrwt beam="1">  1       21 0.13182003E-01 0.23382774E+03</pdfrwt>
<pdfrwt beam="2">  1       21 0.10073933E+00 0.23382774E+03</pdfrwt>
<totfact> 0.39157063E+04</totfact>
</mgrwt>
</event>
<event>
 4    3  0.3905963E+000  0.2283177E+03  0.7546771E-02  0.1127829E+00
         21   -1    0    0  503  502  0.00000000000E+00  0.00000000000E+00  0.92293806380E+02  0.92293806380E+02  0.00000000000E+00 0. -1.
         21   -1    0    0  501  503 -0.00000000000E+00 -0.00000000000E+00 -0.56482034502E+03  0.56482034502E+03  0.00000000000E+00 0.  1.
          6    1    1    2  501    0  0.86727411859E+02 -0.12115412751E+03 -0.23723179286E+03  0.32925353472E+03  0.17300000000E+03 0.  1.
         -6    1    1    2    0  502 -0.86727411859E+02  0.12115412751E+03 -0.23529474578E+03  0.32786061669E+03  0.17300000000E+03 0.  1.
<mgrwt>
<rscale>  2 0.22831769E+03</rscale>
<asrwt>0</asrwt>
<pdfrwt beam="1">  1       21 0.14199047E-01 0.22831769E+03</pdfrwt>
<pdfrwt beam="2">  1       21 0.86895438E-01 0.22831769E+03</pdfrwt>
<totfact> 0.48527227E+04</totfact>
</mgrwt>
</event>
<event>
 4    3  0.3905963E+000  0.2184423E+03  0.7546771E-02  0.1135050E+00
         21   -1    0    0  503  502  0.00000000000E+00  0.00000000000E+00  0.22898476418E+03  0.22898476418E+03  0.00000000000E+00 0.  1.
         21   -1    0    0  501  503 -0.00000000000E+00 -0.00000000000E+00 -0.67415977915E+03  0.67415977915E+03  0.00000000000E+00 0.  1.
          6    1    1    2  501    0  0.11783298505E+03 -0.62477519832E+02 -0.59793515981E+03  0.63658739242E+03  0.17300000000E+03 0.  1.
         -6    1    1    2    0  502 -0.11783298505E+03  0.62477519832E+02  0.15276014484E+03  0.26655715091E+03  0.17300000000E+03 0.  1.
<mgrwt>
<rscale>  2 0.21844233E+03</rscale>
<asrwt>0</asrwt>
<pdfrwt beam="1">  1       21 0.35228425E-01 0.21844233E+03</pdfrwt>
<pdfrwt beam="2">  1       21 0.10371689E+00 0.21844233E+03</pdfrwt>
<totfact> 0.57331692E+03</totfact>
</mgrwt>
</event>
<event>
 4    3  0.3905963E+000  0.1732420E+03  0.7546771E-02  0.1174509E+00
         21   -1    0    0  503  502  0.00000000000E+00  0.00000000000E+00  0.27389380501E+03  0.27389380501E+03  0.00000000000E+00 0. -1.
         21   -1    0    0  501  503 -0.00000000000E+00 -0.00000000000E+00 -0.13912240669E+03  0.13912240669E+03  0.00000000000E+00 0. -1.
          6    1    1    2  501    0  0.80912069305E+01  0.42791682145E+01 -0.27778814003E+02  0.17545495552E+03  0.17300000000E+03 0. -1.
         -6    1    1    2    0  502 -0.80912069305E+01 -0.42791682145E+01  0.16255021232E+03  0.23756125618E+03  0.17300000000E+03 0. -1.
<mgrwt>
<rscale>  2 0.17324197E+03</rscale>
<asrwt>0</asrwt>
<pdfrwt beam="1">  1       21 0.42137508E-01 0.17324197E+03</pdfrwt>
<pdfrwt beam="2">  1       21 0.21403447E-01 0.17324197E+03</pdfrwt>
<totfact> 0.11097040E+05</totfact>
</mgrwt>
</event>
<event>
 4    3  0.3905963E+000  0.1879138E+03  0.7546771E-02  0.1160356E+00
         21   -1    0    0  503  502  0.00000000000E+00  0.00000000000E+00  0.64169102398E+02  0.64169102398E+02  0.00000000000E+00 0. -1.
         21   -1    0    0  501  503 -0.00000000000E+00 -0.00000000000E+00 -0.90644379189E+03  0.90644379189E+03  0.00000000000E+00 0. -1.
          6    1    1    2  501    0 -0.40361537151E+02 -0.61266247729E+02 -0.72534104265E+03  0.74928715120E+03  0.17300000000E+03 0. -1.
         -6    1    1    2    0  502  0.40361537151E+02  0.61266247729E+02 -0.11693364684E+03  0.22132574309E+03  0.17300000000E+03 0. -1.
<mgrwt>
<rscale>  2 0.18791383E+03</rscale>
<asrwt>0</asrwt>
<pdfrwt beam="1">  1       21 0.98721694E-02 0.18791383E+03</pdfrwt>
<pdfrwt beam="2">  1       21 0.13945289E+00 0.18791383E+03</pdfrwt>
<totfact> 0.30091379E+04</totfact>
</mgrwt>
</event>
<event>
 4    3  0.3905963E+000  0.1820278E+03  0.7546771E-02  0.1165855E+00
         21   -1    0    0  503  502  0.00000000000E+00  0.00000000000E+00  0.76095243954E+03  0.76095243954E+03  0.00000000000E+00 0. -1.
         21   -1    0    0  501  503 -0.00000000000E+00 -0.00000000000E+00 -0.76605918277E+02  0.76605918277E+02  0.00000000000E+00 0. -1.
          6    1    1    2  501    0  0.54781403375E+02 -0.14286452304E+02  0.67051514724E+02  0.19398456254E+03  0.17300000000E+03 0. -1.
         -6    1    1    2    0  502 -0.54781403375E+02  0.14286452304E+02  0.61729500654E+03  0.64357379528E+03  0.17300000000E+03 0. -1.
<mgrwt>
<rscale>  2 0.18202776E+03</rscale>
<asrwt>0</asrwt>
<pdfrwt beam="1">  1       21 0.11706960E+00 0.18202776E+03</pdfrwt>
<pdfrwt beam="2">  1       21 0.11785526E-01 0.18202776E+03</pdfrwt>
<totfact> 0.34220013E+04</totfact>
</mgrwt>
</event>
<event>
 4    3  0.3905963E+000  0.1794973E+03  0.7546771E-02  0.1168290E+00
         21   -1    0    0  501  502  0.00000000000E+00  0.00000000000E+00  0.14726212892E+03  0.14726212892E+03  0.00000000000E+00 0.  1.
         21   -1    0    0  502  503 -0.00000000000E+00 -0.00000000000E+00 -0.28940154640E+03  0.28940154640E+03  0.00000000000E+00 0. -1.
          6    1    1    2  501    0 -0.18308181739E+02  0.44216451330E+02  0.36777429085E+02  0.18322626279E+03  0.17300000000E+03 0.  1.
         -6    1    1    2    0  503  0.18308181739E+02 -0.44216451330E+02 -0.17891684656E+03  0.25343741253E+03  0.17300000000E+03 0. -1.
<mgrwt>
<rscale>  2 0.17949731E+03</rscale>
<asrwt>0</asrwt>
<pdfrwt beam="1">  1       21 0.22655712E-01 0.17949731E+03</pdfrwt>
<pdfrwt beam="2">  1       21 0.44523315E-01 0.17949731E+03</pdfrwt>
<totfact> 0.88908655E+04</totfact>
</mgrwt>
</event>
<event>
 4    3  0.3905963E+000  0.2059469E+03  0.7546771E-02  0.1144816E+00
         21   -1    0    0  503  502  0.00000000000E+00  0.00000000000E+00  0.24195464849E+04  0.24195464849E+04  0.00000000000E+00 0. -1.
         21   -1    0    0  501  503 -0.00000000000E+00 -0.00000000000E+00 -0.18673086847E+02  0.18673086847E+02  0.00000000000E+00 0. -1.
          6    1    1    2  501    0 -0.98571621826E+00 -0.11173257057E+03  0.89877895244E+03  0.92207252660E+03  0.17300000000E+03 0. -1.
         -6    1    1    2    0  502  0.98571621826E+00  0.11173257057E+03  0.15020944456E+04  0.15161470452E+04  0.17300000000E+03 0. -1.
<mgrwt>
<rscale>  2 0.20594693E+03</rscale>
<asrwt>0</asrwt>
<pdfrwt beam="1">  1       21 0.37223767E+00 0.20594693E+03</pdfrwt>
<pdfrwt beam="2">  1       21 0.28727845E-02 0.20594693E+03</pdfrwt>
<totfact> 0.86189500E+03</totfact>
</mgrwt>
</event>
<event>
 4    3  0.3905963E+000  0.2296990E+03  0.7546771E-02  0.1126852E+00
         21   -1    0    0  503  502  0.00000000000E+00  0.00000000000E+00  0.13681227539E+03  0.13681227539E+03  0.00000000000E+00 0.  1.
         21   -1    0    0  501  503 -0.00000000000E+00 -0.00000000000E+00 -0.69330535354E+03  0.69330535354E+03  0.00000000000E+00 0.  1.
          6    1    1    2  501    0 -0.52573037341E+02  0.14166407572E+03 -0.55473671371E+03  0.60041190540E+03  0.17300000000E+03 0.  1.
         -6    1    1    2    0  502  0.52573037341E+02 -0.14166407572E+03 -0.17563644362E+01  0.22970572353E+03  0.17300000000E+03 0.  1.
<mgrwt>
<rscale>  2 0.22969901E+03</rscale>
<asrwt>0</asrwt>
<pdfrwt beam="1">  1       21 0.21048042E-01 0.22969901E+03</pdfrwt>
<pdfrwt beam="2">  1       21 0.10666236E+00 0.22969901E+03</pdfrwt>
<totfact> 0.14416966E+04</totfact>
</mgrwt>
</event>
<event>
 4    3  0.3905963E+000  0.2132434E+03  0.7546771E-02  0.1139023E+00
         21   -1    0    0  503  502  0.00000000000E+00  0.00000000000E+00  0.74290780537E+02  0.74290780537E+02  0.00000000000E+00 0. -1.
         21   -1    0    0  501  503 -0.00000000000E+00 -0.00000000000E+00 -0.64391072793E+03  0.64391072793E+03  0.00000000000E+00 0. -1.
          6    1    1    2  501    0  0.11984528735E+03  0.34363672936E+02 -0.36463670388E+03  0.42241292681E+03  0.17300000000E+03 0. -1.
         -6    1    1    2    0  502 -0.11984528735E+03 -0.34363672936E+02 -0.20498324351E+03  0.29578858165E+03  0.17300000000E+03 0. -1.
<mgrwt>
<rscale>  2 0.21324342E+03</rscale>
<asrwt>0</asrwt>
<pdfrwt beam="1">  1       21 0.11429351E-01 0.21324342E+03</pdfrwt>
<pdfrwt beam="2">  1       21 0.99063191E-01 0.21324342E+03</pdfrwt>
<totfact> 0.53191623E+04</totfact>
</mgrwt>
</event>
<event>
 4    3  0.3905963E+000  0.2010345E+03  0.7546771E-02  0.1148869E+00
         21   -1    0    0  501  502  0.00000000000E+00  0.00000000000E+00  0.13818557233E+04  0.13818557233E+04  0.00000000000E+00 0. -1.
         21   -1    0    0  502  503 -0.00000000000E+00 -0.00000000000E+00 -0.29262882851E+02  0.29262882851E+02  0.00000000000E+00 0. -1.
          6    1    1    2  501    0  0.40426511101E+02 -0.94082839995E+02  0.65976515549E+03  0.68971366811E+03  0.17300000000E+03 0. -1.
         -6    1    1    2    0  503 -0.40426511101E+02  0.94082839995E+02  0.69282768494E+03  0.72140493802E+03  0.17300000000E+03 0. -1.
<mgrwt>
<rscale>  2 0.20103453E+03</rscale>
<asrwt>0</asrwt>
<pdfrwt beam="1">  1       21 0.21259314E+00 0.20103453E+03</pdfrwt>
<pdfrwt beam="2">  1       21 0.45019831E-02 0.20103453E+03</pdfrwt>
<totfact> 0.35691991E+04</totfact>
</mgrwt>
</event>
<event>
 4    3  0.3905963E+000  0.2739356E+03  0.7546771E-02  0.1099048E+00
         21   -1    0    0  501  502  0.00000000000E+00  0.00000000000E+00  0.99954828827E+02  0.99954828827E+02  0.00000000000E+00 0.  1.
         21   -1    0    0  502  503 -0.00000000000E+00 -0.00000000000E+00 -0.27743802015E+04  0.27743802015E+04  0.00000000000E+00 0. -1.
          6    1    1    2  501    0  0.15382301789E+03  0.14645886115E+03 -0.10980065492E+03  0.29512184376E+03  0.17300000000E+03 0.  1.
         -6    1    1    2    0  503 -0.15382301789E+03 -0.14645886115E+03 -0.25646247178E+04  0.25792131866E+04  0.17300000000E+03 0. -1.
<mgrwt>
<rscale>  2 0.27393561E+03</rscale>
<asrwt>0</asrwt>
<pdfrwt beam="1">  1       21 0.15377665E-01 0.27393561E+03</pdfrwt>
<pdfrwt beam="2">  1       21 0.42682774E+00 0.27393561E+03</pdfrwt>
<totfact> 0.19620193E+02</totfact>
</mgrwt>
</event>
<event>
 4    3  0.3905963E+000  0.2780177E+03  0.7546771E-02  0.1096777E+00
         21   -1    0    0  501  502  0.00000000000E+00  0.00000000000E+00  0.58656397880E+03  0.58656397880E+03  0.00000000000E+00 0.  1.
         21   -1    0    0  502  503 -0.00000000000E+00 -0.00000000000E+00 -0.13782980149E+03  0.13782980149E+03  0.00000000000E+00 0.  1.
          6    1    1    2  501    0  0.17932692060E+02 -0.21689459518E+03  0.30028794521E+03  0.40922695036E+03  0.17300000000E+03 0. -1.
         -6    1    1    2    0  503 -0.17932692060E+02  0.21689459518E+03  0.14844623211E+03  0.31516682993E+03  0.17300000000E+03 0. -1.
<mgrwt>
<rscale>  2 0.27801771E+03</rscale>
<asrwt>0</asrwt>
<pdfrwt beam="1">  1       21 0.90240611E-01 0.27801771E+03</pdfrwt>
<pdfrwt beam="2">  1       21 0.21204585E-01 0.27801771E+03</pdfrwt>
<totfact> 0.20656414E+04</totfact>
</mgrwt>
</event>
<event>
 4    3  0.3905963E+000  0.1847433E+03  0.7546771E-02  0.1163290E+00
         21   -1    0    0  503  502  0.00000000000E+00  0.00000000000E+00  0.34092260106E+03  0.34092260106E+03  0.00000000000E+00 0.  1.
         21   -1    0    0  501  503 -0.00000000000E+00 -0.00000000000E+00 -0.13044066146E+03  0.13044066146E+03  0.00000000000E+00 0.  1.
          6    1    1    2  501    0  0.60450281000E+02  0.23385065882E+02  0.21888669911E+03  0.28642884776E+03  0.17300000000E+03 0.  1.
         -6    1    1    2    0  502 -0.60450281000E+02 -0.23385065882E+02 -0.84047595104E+01  0.18493441476E+03  0.17300000000E+03 0.  1.
<mgrwt>
<rscale>  2 0.18474333E+03</rscale>
<asrwt>0</asrwt>
<pdfrwt beam="1">  1       21 0.52449630E-01 0.18474333E+03</pdfrwt>
<pdfrwt beam="2">  1       21 0.20067794E-01 0.18474333E+03</pdfrwt>
<totfact> 0.79333190E+04</totfact>
</mgrwt>
</event>
<event>
 4    3  0.3905963E+000  0.1859966E+03  0.7546771E-02  0.1162123E+00
         21   -1    0    0  503  502  0.00000000000E+00  0.00000000000E+00  0.30664602591E+03  0.30664602591E+03  0.00000000000E+00 0. -1.
         21   -1    0    0  501  503 -0.00000000000E+00 -0.00000000000E+00 -0.91983514204E+03  0.91983514204E+03  0.00000000000E+00 0. -1.
          6    1    1    2  501    0 -0.66883966934E+02 -0.13866000861E+02 -0.88099884636E+03  0.90041862392E+03  0.17300000000E+03 0. -1.
         -6    1    1    2    0  502  0.66883966934E+02  0.13866000861E+02  0.26780973023E+03  0.32606254403E+03  0.17300000000E+03 0. -1.
<mgrwt>
<rscale>  2 0.18599659E+03</rscale>
<asrwt>0</asrwt>
<pdfrwt beam="1">  1       21 0.47176312E-01 0.18599659E+03</pdfrwt>
<pdfrwt beam="2">  1       21 0.14151310E+00 0.18599659E+03</pdfrwt>
<totfact> 0.15061744E+03</totfact>
</mgrwt>
</event>
<event>
 4    3  0.3905963E+000  0.2380202E+03  0.7546771E-02  0.1121119E+00
         21   -1    0    0  503  502  0.00000000000E+00  0.00000000000E+00  0.24608245651E+03  0.24608245651E+03  0.00000000000E+00 0. -1.
         21   -1    0    0  501  503 -0.00000000000E+00 -0.00000000000E+00 -0.23408938310E+03  0.23408938310E+03  0.00000000000E+00 0. -1.
          6    1    1    2  501    0 -0.11471186570E+03  0.11647241186E+03  0.36855078847E+02  0.24085666213E+03  0.17300000000E+03 0.  1.
         -6    1    1    2    0  502  0.11471186570E+03 -0.11647241186E+03 -0.24862005428E+02  0.23931517748E+03  0.17300000000E+03 0.  1.
<mgrwt>
<rscale>  2 0.23802024E+03</rscale>
<asrwt>0</asrwt>
<pdfrwt beam="1">  1       21 0.37858839E-01 0.23802024E+03</pdfrwt>
<pdfrwt beam="2">  1       21 0.36013751E-01 0.23802024E+03</pdfrwt>
<totfact> 0.49000330E+04</totfact>
</mgrwt>
</event>
<event>
 4    3  0.3905963E+000  0.2059676E+03  0.7546771E-02  0.1144800E+00
         21   -1    0    0  501  502  0.00000000000E+00  0.00000000000E+00  0.37755462385E+03  0.37755462385E+03  0.00000000000E+00 0.  1.
         21   -1    0    0  502  503 -0.00000000000E+00 -0.00000000000E+00 -0.24269676707E+03  0.24269676707E+03  0.00000000000E+00 0.  1.
          6    1    1    2  501    0  0.10704170331E+03  0.32182489098E+02  0.29469603052E+03  0.35953913453E+03  0.17300000000E+03 0.  1.
         -6    1    1    2    0  503 -0.10704170331E+03 -0.32182489098E+02 -0.15983817373E+03  0.26071225639E+03  0.17300000000E+03 0.  1.
<mgrwt>
<rscale>  2 0.20596757E+03</rscale>
<asrwt>0</asrwt>
<pdfrwt beam="1">  1       21 0.58085327E-01 0.20596757E+03</pdfrwt>
<pdfrwt beam="2">  1       21 0.37337964E-01 0.20596757E+03</pdfrwt>
<totfact> 0.19060696E+04</totfact>
</mgrwt>
</event>
<event>
 4    3  0.3905963E+000  0.1910123E+03  0.7546771E-02  0.1157551E+00
         21   -1    0    0  501  502  0.00000000000E+00  0.00000000000E+00  0.21817851215E+02  0.21817851215E+02  0.00000000000E+00 0. -1.
         21   -1    0    0  502  503 -0.00000000000E+00 -0.00000000000E+00 -0.18378564156E+04  0.18378564156E+04  0.00000000000E+00 0. -1.
          6    1    1    2  501    0  0.58702428906E+02 -0.55773785962E+02 -0.62893056962E+03  0.65729700422E+03  0.17300000000E+03 0. -1.
         -6    1    1    2    0  503 -0.58702428906E+02  0.55773785962E+02 -0.11871079948E+04  0.12023772626E+04  0.17300000000E+03 0. -1.
<mgrwt>
<rscale>  2 0.19101228E+03</rscale>
<asrwt>0</asrwt>
<pdfrwt beam="1">  1       21 0.33565910E-02 0.19101228E+03</pdfrwt>
<pdfrwt beam="2">  1       21 0.28274727E+00 0.19101228E+03</pdfrwt>
<totfact> 0.22568656E+04</totfact>
</mgrwt>
</event>
<event>
 4    3  0.3905963E+000  0.1782723E+03  0.7546771E-02  0.1169486E+00
         21   -1    0    0  501  502  0.00000000000E+00  0.00000000000E+00  0.25597379057E+03  0.25597379057E+03  0.00000000000E+00 0.  1.
         21   -1    0    0  502  503 -0.00000000000E+00 -0.00000000000E+00 -0.14427160732E+03  0.14427160732E+03  0.00000000000E+00 0.  1.
          6    1    1    2  501    0 -0.55897668055E+01 -0.42670461512E+02  0.13057481363E+03  0.22097691222E+03  0.17300000000E+03 0.  1.
         -6    1    1    2    0  503  0.55897668055E+01  0.42670461512E+02 -0.18872630379E+02  0.17926848567E+03  0.17300000000E+03 0.  1.
<mgrwt>
<rscale>  2 0.17827230E+03</rscale>
<asrwt>0</asrwt>
<pdfrwt beam="1">  1       21 0.39380583E-01 0.17827230E+03</pdfrwt>
<pdfrwt beam="2">  1       21 0.22195632E-01 0.17827230E+03</pdfrwt>
<totfact> 0.11860994E+05</totfact>
</mgrwt>
</event>
<event>
 4    3  0.3905963E+000  0.2527055E+03  0.7546771E-02  0.1111607E+00
         21   -1    0    0  503  502  0.00000000000E+00  0.00000000000E+00  0.30870317249E+03  0.30870317249E+03  0.00000000000E+00 0. -1.
         21   -1    0    0  501  503 -0.00000000000E+00 -0.00000000000E+00 -0.30725350356E+03  0.30725350356E+03  0.00000000000E+00 0.  1.
          6    1    1    2  501    0  0.13366023304E+03 -0.12675180558E+03 -0.17531557240E+03  0.30756402267E+03  0.17300000000E+03 0. -1.
         -6    1    1    2    0  502 -0.13366023304E+03  0.12675180558E+03  0.17676524132E+03  0.30839265337E+03  0.17300000000E+03 0.  1.
<mgrwt>
<rscale>  2 0.25270552E+03</rscale>
<asrwt>0</asrwt>
<pdfrwt beam="1">  1       21 0.47492796E-01 0.25270552E+03</pdfrwt>
<pdfrwt beam="2">  1       21 0.47269769E-01 0.25270552E+03</pdfrwt>
<totfact> 0.17558868E+04</totfact>
</mgrwt>
</event>
<event>
 4    3  0.3905963E+000  0.1886317E+03  0.7546771E-02  0.1159701E+00
         21   -1    0    0  501  502  0.00000000000E+00  0.00000000000E+00  0.63583239495E+02  0.63583239495E+02  0.00000000000E+00 0.  1.
         21   -1    0    0  502  503 -0.00000000000E+00 -0.00000000000E+00 -0.79431471395E+03  0.79431471395E+03  0.00000000000E+00 0.  1.
          6    1    1    2  501    0  0.73582423609E+02 -0.15444532872E+02 -0.13219774727E+03  0.23034355004E+03  0.17300000000E+03 0.  1.
         -6    1    1    2    0  503 -0.73582423609E+02  0.15444532872E+02 -0.59853372718E+03  0.62755440341E+03  0.17300000000E+03 0.  1.
<mgrwt>
<rscale>  2 0.18863167E+03</rscale>
<asrwt>0</asrwt>
<pdfrwt beam="1">  1       21 0.97820360E-02 0.18863167E+03</pdfrwt>
<pdfrwt beam="2">  1       21 0.12220227E+00 0.18863167E+03</pdfrwt>
<totfact> 0.42676174E+04</totfact>
</mgrwt>
</event>
<event>
 4    3  0.3905963E+000  0.1747580E+03  0.7546771E-02  0.1172975E+00
         21   -1    0    0  501  502  0.00000000000E+00  0.00000000000E+00  0.81275325250E+03  0.81275325250E+03  0.00000000000E+00 0.  1.
         21   -1    0    0  502  503 -0.00000000000E+00 -0.00000000000E+00 -0.40584445405E+02  0.40584445405E+02  0.00000000000E+00 0.  1.
          6    1    1    2  501    0  0.24471960402E+02 -0.35307843922E+01  0.50224347921E+03  0.53177895379E+03  0.17300000000E+03 0. -1.
         -6    1    1    2    0  503 -0.24471960402E+02  0.35307843922E+01  0.26992532789E+03  0.32155874412E+03  0.17300000000E+03 0. -1.
<mgrwt>
<rscale>  2 0.17475796E+03</rscale>
<asrwt>0</asrwt>
<pdfrwt beam="1">  1       21 0.12503895E+00 0.17475796E+03</pdfrwt>
<pdfrwt beam="2">  1       21 0.62437615E-02 0.17475796E+03</pdfrwt>
<totfact> 0.88509833E+04</totfact>
</mgrwt>
</event>
<event>
 4    3  0.3905963E+000  0.2233917E+03  0.7546771E-02  0.1131379E+00
         21   -1    0    0  503  502  0.00000000000E+00  0.00000000000E+00  0.11231148475E+03  0.11231148475E+03  0.00000000000E+00 0.  1.
         21   -1    0    0  501  503 -0.00000000000E+00 -0.00000000000E+00 -0.53949461783E+03  0.53949461783E+03  0.00000000000E+00 0.  1.
          6    1    1    2  501    0 -0.10036219032E+03 -0.99510184759E+02 -0.35046614252E+03  0.41560842529E+03  0.17300000000E+03 0.  1.
         -6    1    1    2    0  502  0.10036219032E+03  0.99510184759E+02 -0.76716990560E+02  0.23619767729E+03  0.17300000000E+03 0.  1.
<mgrwt>
<rscale>  2 0.22339169E+03</rscale>
<asrwt>0</asrwt>
<pdfrwt beam="1">  1       21 0.17278690E-01 0.22339169E+03</pdfrwt>
<pdfrwt beam="2">  1       21 0.82999173E-01 0.22339169E+03</pdfrwt>
<totfact> 0.37704267E+04</totfact>
</mgrwt>
</event>
<event>
 4    3  0.3905963E+000  0.2824180E+03  0.7546771E-02  0.1094376E+00
         21   -1    0    0  503  502  0.00000000000E+00  0.00000000000E+00  0.92228890185E+02  0.92228890185E+02  0.00000000000E+00 0.  1.
         21   -1    0    0  501  503 -0.00000000000E+00 -0.00000000000E+00 -0.10465035115E+04  0.10465035115E+04  0.00000000000E+00 0.  1.
          6    1    1    2  501    0 -0.99956303661E+02 -0.19959872887E+03 -0.71438292388E+03  0.76818153918E+03  0.17300000000E+03 0.  1.
         -6    1    1    2    0  502  0.99956303661E+02  0.19959872887E+03 -0.23989169746E+03  0.37055086253E+03  0.17300000000E+03 0.  1.
<mgrwt>
<rscale>  2 0.28241798E+03</rscale>
<asrwt>0</asrwt>
<pdfrwt beam="1">  1       21 0.14189060E-01 0.28241798E+03</pdfrwt>
<pdfrwt beam="2">  1       21 0.16100054E+00 0.28241798E+03</pdfrwt>
<totfact> 0.10130191E+04</totfact>
</mgrwt>
</event>
<event>
 4    3  0.3905963E+000  0.2366674E+03  0.7546771E-02  0.1122033E+00
         21   -1    0    0  501  502  0.00000000000E+00  0.00000000000E+00  0.16825525268E+03  0.16825525268E+03  0.00000000000E+00 0. -1.
         21   -1    0    0  502  503 -0.00000000000E+00 -0.00000000000E+00 -0.52351431747E+03  0.52351431747E+03  0.00000000000E+00 0.  1.
          6    1    1    2  501    0 -0.87985938036E+02 -0.13542866396E+03  0.31083633903E+02  0.23869989655E+03  0.17300000000E+03 0. -1.
         -6    1    1    2    0  503  0.87985938036E+02  0.13542866396E+03 -0.38634269869E+03  0.45306967361E+03  0.17300000000E+03 0.  1.
<mgrwt>
<rscale>  2 0.23666738E+03</rscale>
<asrwt>0</asrwt>
<pdfrwt beam="1">  1       21 0.25885424E-01 0.23666738E+03</pdfrwt>
<pdfrwt beam="2">  1       21 0.80540664E-01 0.23666738E+03</pdfrwt>
<totfact> 0.18714404E+04</totfact>
</mgrwt>
</event>
<event>
 4    3  0.3905963E+000  0.2111176E+03  0.7546771E-02  0.1140684E+00
         21   -1    0    0  501  502  0.00000000000E+00  0.00000000000E+00  0.26654653478E+03  0.26654653478E+03  0.00000000000E+00 0.  1.
         21   -1    0    0  502  503 -0.00000000000E+00 -0.00000000000E+00 -0.19212335235E+03  0.19212335235E+03  0.00000000000E+00 0.  1.
          6    1    1    2  501    0 -0.11872510514E+03  0.23366698038E+02  0.11978690319E+03  0.24273350684E+03  0.17300000000E+03 0.  1.
         -6    1    1    2    0  503  0.11872510514E+03 -0.23366698038E+02 -0.45363720760E+02  0.21593638028E+03  0.17300000000E+03 0.  1.
<mgrwt>
<rscale>  2 0.21111763E+03</rscale>
<asrwt>0</asrwt>
<pdfrwt beam="1">  1       21 0.41007159E-01 0.21111763E+03</pdfrwt>
<pdfrwt beam="2">  1       21 0.29557439E-01 0.21111763E+03</pdfrwt>
<totfact> 0.62303410E+04</totfact>
</mgrwt>
</event>
<event>
 4    3  0.3905963E+000  0.2513873E+03  0.7546771E-02  0.1112431E+00
         21   -1    0    0  503  502  0.00000000000E+00  0.00000000000E+00  0.15093022258E+03  0.15093022258E+03  0.00000000000E+00 0. -1.
         21   -1    0    0  501  503 -0.00000000000E+00 -0.00000000000E+00 -0.42220577203E+03  0.42220577203E+03  0.00000000000E+00 0. -1.
          6    1    1    2  501    0  0.15557775220E+03  0.95195335404E+02 -0.16172354261E+03  0.29891485928E+03  0.17300000000E+03 0. -1.
         -6    1    1    2    0  502 -0.15557775220E+03 -0.95195335404E+02 -0.10955200684E+03  0.27422113533E+03  0.17300000000E+03 0. -1.
<mgrwt>
<rscale>  2 0.25138733E+03</rscale>
<asrwt>0</asrwt>
<pdfrwt beam="1">  1       21 0.23220034E-01 0.25138733E+03</pdfrwt>
<pdfrwt beam="2">  1       21 0.64954734E-01 0.25138733E+03</pdfrwt>
<totfact> 0.36991850E+04</totfact>
</mgrwt>
</event>
<event>
 4    3  0.3905963E+000  0.2169755E+03  0.7546771E-02  0.1136158E+00
         21   -1    0    0  501  502  0.00000000000E+00  0.00000000000E+00  0.45854998973E+02  0.45854998973E+02  0.00000000000E+00 0. -1.
         21   -1    0    0  502  503 -0.00000000000E+00 -0.00000000000E+00 -0.17369141910E+04  0.17369141910E+04  0.00000000000E+00 0. -1.
          6    1    1    2  501    0  0.10344149018E+03  0.80307020159E+02 -0.27552668951E+03  0.35070402908E+03  0.17300000000E+03 0. -1.
         -6    1    1    2    0  503 -0.10344149018E+03 -0.80307020159E+02 -0.14155325025E+04  0.14320651609E+04  0.17300000000E+03 0. -1.
<mgrwt>
<rscale>  2 0.21697548E+03</rscale>
<asrwt>0</asrwt>
<pdfrwt beam="1">  1       21 0.70546163E-02 0.21697548E+03</pdfrwt>
<pdfrwt beam="2">  1       21 0.26721753E+00 0.21697548E+03</pdfrwt>
<totfact> 0.76880591E+03</totfact>
</mgrwt>
</event>
<event>
 4    3  0.3905963E+000  0.2129986E+03  0.7546771E-02  0.1139213E+00
         21   -1    0    0  503  502  0.00000000000E+00  0.00000000000E+00  0.30744863292E+03  0.30744863292E+03  0.00000000000E+00 0. -1.
         21   -1    0    0  501  503 -0.00000000000E+00 -0.00000000000E+00 -0.18342067062E+03  0.18342067062E+03  0.00000000000E+00 0. -1.
          6    1    1    2  501    0 -0.11724743082E+03  0.41139261904E+02 -0.46502514154E+02  0.21801578550E+03  0.17300000000E+03 0. -1.
         -6    1    1    2    0  502  0.11724743082E+03 -0.41139261904E+02  0.17053047645E+03  0.27285351804E+03  0.17300000000E+03 0. -1.
<mgrwt>
<rscale>  2 0.21299859E+03</rscale>
<asrwt>0</asrwt>
<pdfrwt beam="1">  1       21 0.47299790E-01 0.21299859E+03</pdfrwt>
<pdfrwt beam="2">  1       21 0.28218565E-01 0.21299859E+03</pdfrwt>
<totfact> 0.50821991E+04</totfact>
</mgrwt>
</event>
<event>
 4    3  0.3905963E+000  0.2433063E+03  0.7546771E-02  0.1117610E+00
         21   -1    0    0  501  502  0.00000000000E+00  0.00000000000E+00  0.12194524247E+04  0.12194524247E+04  0.00000000000E+00 0.  1.
         21   -1    0    0  502  503 -0.00000000000E+00 -0.00000000000E+00 -0.59072299896E+02  0.59072299896E+02  0.00000000000E+00 0.  1.
          6    1    1    2  501    0 -0.97741943361E+02  0.14041171026E+03  0.31032158679E+03  0.39433161565E+03  0.17300000000E+03 0.  1.
         -6    1    1    2    0  503  0.97741943361E+02 -0.14041171026E+03  0.85005853805E+03  0.88419310899E+03  0.17300000000E+03 0.  1.
<mgrwt>
<rscale>  2 0.24330626E+03</rscale>
<asrwt>0</asrwt>
<pdfrwt beam="1">  1       21 0.18760805E+00 0.24330626E+03</pdfrwt>
<pdfrwt beam="2">  1       21 0.90880471E-02 0.24330626E+03</pdfrwt>
<totfact> 0.14987635E+04</totfact>
</mgrwt>
</event>
<event>
 4    3  0.3905963E+000  0.1775999E+03  0.7546771E-02  0.1170146E+00
         21   -1    0    0  503  502  0.00000000000E+00  0.00000000000E+00  0.41080036004E+03  0.41080036004E+03  0.00000000000E+00 0. -1.
         21   -1    0    0  501  503 -0.00000000000E+00 -0.00000000000E+00 -0.13991590162E+03  0.13991590162E+03  0.00000000000E+00 0. -1.
          6    1    1    2  501    0 -0.24087950804E+02  0.32132406955E+02 -0.49526635678E+02  0.18437626906E+03  0.17300000000E+03 0. -1.
         -6    1    1    2    0  502  0.24087950804E+02 -0.32132406955E+02  0.32041109410E+03  0.36633999259E+03  0.17300000000E+03 0. -1.
<mgrwt>
<rscale>  2 0.17759989E+03</rscale>
<asrwt>0</asrwt>
<pdfrwt beam="1">  1       21 0.63200055E-01 0.17759989E+03</pdfrwt>
<pdfrwt beam="2">  1       21 0.21525524E-01 0.17759989E+03</pdfrwt>
<totfact> 0.46932241E+04</totfact>
</mgrwt>
</event>
<event>
 4    3  0.3905963E+000  0.1776850E+03  0.7546771E-02  0.1170062E+00
         21   -1    0    0  503  502  0.00000000000E+00  0.00000000000E+00  0.79454220617E+03  0.79454220617E+03  0.00000000000E+00 0.  1.
         21   -1    0    0  501  503 -0.00000000000E+00 -0.00000000000E+00 -0.70895390621E+02  0.70895390621E+02  0.00000000000E+00 0.  1.
          6    1    1    2  501    0 -0.38099208702E+02  0.13835464091E+02  0.74949609418E+02  0.19284556962E+03  0.17300000000E+03 0.  1.
         -6    1    1    2    0  502  0.38099208702E+02 -0.13835464091E+02  0.64869720613E+03  0.67259202717E+03  0.17300000000E+03 0.  1.
<mgrwt>
<rscale>  2 0.17768503E+03</rscale>
<asrwt>0</asrwt>
<pdfrwt beam="1">  1       21 0.12223726E+00 0.17768503E+03</pdfrwt>
<pdfrwt beam="2">  1       21 0.10906984E-01 0.17768503E+03</pdfrwt>
<totfact> 0.35394322E+04</totfact>
</mgrwt>
</event>
<event>
 4    3  0.3905963E+000  0.2041478E+03  0.7546771E-02  0.1146286E+00
         21   -1    0    0  503  502  0.00000000000E+00  0.00000000000E+00  0.38159643921E+02  0.38159643921E+02  0.00000000000E+00 0.  1.
         21   -1    0    0  501  503 -0.00000000000E+00 -0.00000000000E+00 -0.16401631745E+04  0.16401631745E+04  0.00000000000E+00 0. -1.
          6    1    1    2  501    0  0.10625749786E+03  0.21369331412E+02 -0.12860611243E+04  0.13021633998E+04  0.17300000000E+03 0. -1.
         -6    1    1    2    0  502 -0.10625749786E+03 -0.21369331412E+02 -0.31594240624E+03  0.37615941865E+03  0.17300000000E+03 0.  1.
<mgrwt>
<rscale>  2 0.20414775E+03</rscale>
<asrwt>0</asrwt>
<pdfrwt beam="1">  1       21 0.58707132E-02 0.20414775E+03</pdfrwt>
<pdfrwt beam="2">  1       21 0.25233285E+00 0.20414775E+03</pdfrwt>
<totfact> 0.13048183E+04</totfact>
</mgrwt>
</event>
<event>
 4    3  0.3905963E+000  0.2063881E+03  0.7546771E-02  0.1144459E+00
         21   -1    0    0  503  502  0.00000000000E+00  0.00000000000E+00  0.57209492404E+02  0.57209492404E+02  0.00000000000E+00 0.  1.
         21   -1    0    0  501  503 -0.00000000000E+00 -0.00000000000E+00 -0.78243799762E+03  0.78243799762E+03  0.00000000000E+00 0.  1.
          6    1    1    2  501    0  0.15817857092E+02 -0.11143086302E+03 -0.45498219959E+03  0.49960468751E+03  0.17300000000E+03 0.  1.
         -6    1    1    2    0  502 -0.15817857092E+02  0.11143086302E+03 -0.27024630563E+03  0.34004280252E+03  0.17300000000E+03 0.  1.
<mgrwt>
<rscale>  2 0.20638809E+03</rscale>
<asrwt>0</asrwt>
<pdfrwt beam="1">  1       21 0.88014602E-02 0.20638809E+03</pdfrwt>
<pdfrwt beam="2">  1       21 0.12037508E+00 0.20638809E+03</pdfrwt>
<totfact> 0.52848090E+04</totfact>
</mgrwt>
</event>
<event>
 4    3  0.3905963E+000  0.1902357E+03  0.7546771E-02  0.1158249E+00
         21   -1    0    0  503  502  0.00000000000E+00  0.00000000000E+00  0.26062864970E+03  0.26062864970E+03  0.00000000000E+00 0. -1.
         21   -1    0    0  501  503 -0.00000000000E+00 -0.00000000000E+00 -0.29676039682E+03  0.29676039682E+03  0.00000000000E+00 0. -1.
          6    1    1    2  501    0  0.38274588743E+02 -0.69250925489E+02 -0.22135947938E+03  0.29187266733E+03  0.17300000000E+03 0. -1.
         -6    1    1    2    0  502 -0.38274588743E+02  0.69250925489E+02  0.18522773225E+03  0.26551637919E+03  0.17300000000E+03 0. -1.
<mgrwt>
<rscale>  2 0.19023573E+03</rscale>
<asrwt>0</asrwt>
<pdfrwt beam="1">  1       21 0.40096716E-01 0.19023573E+03</pdfrwt>
<pdfrwt beam="2">  1       21 0.45655445E-01 0.19023573E+03</pdfrwt>
<totfact> 0.27609717E+04</totfact>
</mgrwt>
</event>
<event>
 4    3  0.3905963E+000  0.1780399E+03  0.7546771E-02  0.1169714E+00
         21   -1    0    0  501  502  0.00000000000E+00  0.00000000000E+00  0.21765086123E+03  0.21765086123E+03  0.00000000000E+00 0.  1.
         21   -1    0    0  502  503 -0.00000000000E+00 -0.00000000000E+00 -0.19350507777E+03  0.19350507777E+03  0.00000000000E+00 0.  1.
          6    1    1    2  501    0  0.23940592785E+02 -0.34583974218E+02  0.11431964633E+03  0.21158257204E+03  0.17300000000E+03 0.  1.
         -6    1    1    2    0  503 -0.23940592785E+02  0.34583974218E+02 -0.90173862869E+02  0.19957336696E+03  0.17300000000E+03 0.  1.
<mgrwt>
<rscale>  2 0.17803989E+03</rscale>
<asrwt>0</asrwt>
<pdfrwt beam="1">  1       21 0.33484748E-01 0.17803989E+03</pdfrwt>
<pdfrwt beam="2">  1       21 0.29770012E-01 0.17803989E+03</pdfrwt>
<totfact> 0.93444123E+04</totfact>
</mgrwt>
</event>
<event>
 4    3  0.3905963E+000  0.1911216E+03  0.7546771E-02  0.1157454E+00
         21   -1    0    0  501  502  0.00000000000E+00  0.00000000000E+00  0.21893494699E+03  0.21893494699E+03  0.00000000000E+00 0.  1.
         21   -1    0    0  502  503 -0.00000000000E+00 -0.00000000000E+00 -0.17665703787E+03  0.17665703787E+03  0.00000000000E+00 0. -1.
          6    1    1    2  501    0 -0.73624113359E+02  0.34321382048E+02 -0.25484644562E+02  0.19281321127E+03  0.17300000000E+03 0. -1.
         -6    1    1    2    0  503  0.73624113359E+02 -0.34321382048E+02  0.67762553684E+02  0.20277877358E+03  0.17300000000E+03 0.  1.
<mgrwt>
<rscale>  2 0.19112160E+03</rscale>
<asrwt>0</asrwt>
<pdfrwt beam="1">  1       21 0.33682300E-01 0.19112160E+03</pdfrwt>
<pdfrwt beam="2">  1       21 0.27178006E-01 0.19112160E+03</pdfrwt>
<totfact> 0.10963767E+05</totfact>
</mgrwt>
</event>
<event>
 4    3  0.3905963E+000  0.1868543E+03  0.7546771E-02  0.1161330E+00
         21   -1    0    0  501  502  0.00000000000E+00  0.00000000000E+00  0.70728707539E+02  0.70728707539E+02  0.00000000000E+00 0.  1.
         21   -1    0    0  502  503 -0.00000000000E+00 -0.00000000000E+00 -0.93377107635E+03  0.93377107635E+03  0.00000000000E+00 0.  1.
          6    1    1    2  501    0  0.29106290040E+02  0.64330115925E+02 -0.86702718397E+02  0.20599005149E+03  0.17300000000E+03 0.  1.
         -6    1    1    2    0  503 -0.29106290040E+02 -0.64330115925E+02 -0.77633965042E+03  0.79850973241E+03  0.17300000000E+03 0.  1.
<mgrwt>
<rscale>  2 0.18685433E+03</rscale>
<asrwt>0</asrwt>
<pdfrwt beam="1">  1       21 0.10881340E-01 0.18685433E+03</pdfrwt>
<pdfrwt beam="2">  1       21 0.14365708E+00 0.18685433E+03</pdfrwt>
<totfact> 0.23470535E+04</totfact>
</mgrwt>
</event>
<event>
 4    3  0.3905963E+000  0.2490426E+03  0.7546771E-02  0.1113911E+00
         21   -1    0    0  501  502  0.00000000000E+00  0.00000000000E+00  0.12378674393E+04  0.12378674393E+04  0.00000000000E+00 0.  1.
         21   -1    0    0  502  503 -0.00000000000E+00 -0.00000000000E+00 -0.67015572691E+02  0.67015572691E+02  0.00000000000E+00 0. -1.
          6    1    1    2  501    0 -0.96497154917E+02  0.15093542652E+03  0.91317747351E+03  0.94652802495E+03  0.17300000000E+03 0.  1.
         -6    1    1    2    0  503  0.96497154917E+02 -0.15093542652E+03  0.25767439314E+03  0.35835498708E+03  0.17300000000E+03 0. -1.
<mgrwt>
<rscale>  2 0.24904257E+03</rscale>
<asrwt>0</asrwt>
<pdfrwt beam="1">  1       21 0.19044113E+00 0.24904257E+03</pdfrwt>
<pdfrwt beam="2">  1       21 0.10310089E-01 0.24904257E+03</pdfrwt>
<totfact> 0.11431534E+04</totfact>
</mgrwt>
</event>
<event>
 4    3  0.3905963E+000  0.3035671E+03  0.7546771E-02  0.1083471E+00
         21   -1    0    0  503  502  0.00000000000E+00  0.00000000000E+00  0.13156372478E+03  0.13156372478E+03  0.00000000000E+00 0.  1.
         21   -1    0    0  501  503 -0.00000000000E+00 -0.00000000000E+00 -0.78374132167E+03  0.78374132167E+03  0.00000000000E+00 0.  1.
          6    1    1    2  501    0  0.24767973052E+03  0.29643560184E+02 -0.47528770586E+03  0.56396045332E+03  0.17300000000E+03 0.  1.
         -6    1    1    2    0  502 -0.24767973052E+03 -0.29643560184E+02 -0.17688989103E+03  0.35134459313E+03  0.17300000000E+03 0.  1.
<mgrwt>
<rscale>  2 0.30356711E+03</rscale>
<asrwt>0</asrwt>
<pdfrwt beam="1">  1       21 0.20240573E-01 0.30356711E+03</pdfrwt>
<pdfrwt beam="2">  1       21 0.12057559E+00 0.30356711E+03</pdfrwt>
<totfact> 0.11050769E+04</totfact>
</mgrwt>
</event>
<event>
 4    3  0.3905963E+000  0.2602515E+03  0.7546771E-02  0.1106992E+00
         21   -1    0    0  501  502  0.00000000000E+00  0.00000000000E+00  0.39596153404E+03  0.39596153404E+03  0.00000000000E+00 0. -1.
         21   -1    0    0  502  503 -0.00000000000E+00 -0.00000000000E+00 -0.27897085449E+03  0.27897085449E+03  0.00000000000E+00 0.  1.
          6    1    1    2  501    0 -0.17617139140E+03 -0.82252634412E+02  0.26838702697E+03  0.37384816605E+03  0.17300000000E+03 0. -1.
         -6    1    1    2    0  503  0.17617139140E+03  0.82252634412E+02 -0.15139634742E+03  0.30108422248E+03  0.17300000000E+03 0.  1.
<mgrwt>
<rscale>  2 0.26025152E+03</rscale>
<asrwt>0</asrwt>
<pdfrwt beam="1">  1       21 0.60917159E-01 0.26025152E+03</pdfrwt>
<pdfrwt beam="2">  1       21 0.42918593E-01 0.26025152E+03</pdfrwt>
<totfact> 0.12587434E+04</totfact>
</mgrwt>
</event>
<event>
 4    3  0.3905963E+000  0.1965237E+03  0.7546771E-02  0.1152706E+00
         21   -1    0    0  501  502  0.00000000000E+00  0.00000000000E+00  0.76146818973E+03  0.76146818973E+03  0.00000000000E+00 0.  1.
         21   -1    0    0  502  503 -0.00000000000E+00 -0.00000000000E+00 -0.50719891845E+02  0.50719891845E+02  0.00000000000E+00 0.  1.
          6    1    1    2  501    0  0.45948927043E+02  0.81125048729E+02  0.35520375741E+03  0.40594493063E+03  0.17300000000E+03 0.  1.
         -6    1    1    2    0  503 -0.45948927043E+02 -0.81125048729E+02  0.35554454048E+03  0.40624315095E+03  0.17300000000E+03 0.  1.
<mgrwt>
<rscale>  2 0.19652373E+03</rscale>
<asrwt>0</asrwt>
<pdfrwt beam="1">  1       21 0.11714894E+00 0.19652373E+03</pdfrwt>
<pdfrwt beam="2">  1       21 0.78030608E-02 0.19652373E+03</pdfrwt>
<totfact> 0.70090125E+04</totfact>
</mgrwt>
</event>
<event>
 4    3  0.3905963E+000  0.1852344E+03  0.7546771E-02  0.1162831E+00
         21   -1    0    0  503  502  0.00000000000E+00  0.00000000000E+00  0.15944110507E+03  0.15944110507E+03  0.00000000000E+00 0. -1.
         21   -1    0    0  501  503 -0.00000000000E+00 -0.00000000000E+00 -0.48711087001E+03  0.48711087001E+03  0.00000000000E+00 0. -1.
          6    1    1    2  501    0 -0.89030115441E+01  0.65601082805E+02 -0.40536573904E+03  0.44568278861E+03  0.17300000000E+03 0. -1.
         -6    1    1    2    0  502  0.89030115441E+01 -0.65601082805E+02  0.77695974105E+02  0.20086918647E+03  0.17300000000E+03 0. -1.
<mgrwt>
<rscale>  2 0.18523435E+03</rscale>
<asrwt>0</asrwt>
<pdfrwt beam="1">  1       21 0.24529401E-01 0.18523435E+03</pdfrwt>
<pdfrwt beam="2">  1       21 0.74940134E-01 0.18523435E+03</pdfrwt>
<totfact> 0.25121246E+04</totfact>
</mgrwt>
</event>
<event>
 4    3  0.3905963E+000  0.1734871E+03  0.7546771E-02  0.1174259E+00
         21   -1    0    0  503  502  0.00000000000E+00  0.00000000000E+00  0.42729334568E+02  0.42729334568E+02  0.00000000000E+00 0. -1.
         21   -1    0    0  501  503 -0.00000000000E+00 -0.00000000000E+00 -0.82594185463E+03  0.82594185463E+03  0.00000000000E+00 0. -1.
          6    1    1    2  501    0 -0.12390570254E+02 -0.39047941281E+01 -0.55823341971E+03  0.58457020496E+03  0.17300000000E+03 0. -1.
         -6    1    1    2    0  502  0.12390570254E+02  0.39047941281E+01 -0.22497910035E+03  0.28410098423E+03  0.17300000000E+03 0. -1.
<mgrwt>
<rscale>  2 0.17348710E+03</rscale>
<asrwt>0</asrwt>
<pdfrwt beam="1">  1       21 0.65737440E-02 0.17348710E+03</pdfrwt>
<pdfrwt beam="2">  1       21 0.12706797E+00 0.17348710E+03</pdfrwt>
<totfact> 0.77884137E+04</totfact>
</mgrwt>
</event>
<event>
 4    3  0.3905963E+000  0.1740522E+03  0.7546771E-02  0.1173687E+00
         21   -1    0    0  501  502  0.00000000000E+00  0.00000000000E+00  0.66514874620E+02  0.66514874620E+02  0.00000000000E+00 0. -1.
         21   -1    0    0  502  503 -0.00000000000E+00 -0.00000000000E+00 -0.90040348349E+03  0.90040348349E+03  0.00000000000E+00 0. -1.
          6    1    1    2  501    0 -0.68329115862E+01  0.17845535102E+02 -0.77085219629E+02  0.19035830134E+03  0.17300000000E+03 0. -1.
         -6    1    1    2    0  503  0.68329115862E+01 -0.17845535102E+02 -0.75680338924E+03  0.77656005677E+03  0.17300000000E+03 0. -1.
<mgrwt>
<rscale>  2 0.17405215E+03</rscale>
<asrwt>0</asrwt>
<pdfrwt beam="1">  1       21 0.10233057E-01 0.17405215E+03</pdfrwt>
<pdfrwt beam="2">  1       21 0.13852362E+00 0.17405215E+03</pdfrwt>
<totfact> 0.28983452E+04</totfact>
</mgrwt>
</event>
<event>
 4    3  0.3905963E+000  0.1854199E+03  0.7546771E-02  0.1162658E+00
         21   -1    0    0  503  502  0.00000000000E+00  0.00000000000E+00  0.30150329804E+04  0.30150329804E+04  0.00000000000E+00 0.  1.
         21   -1    0    0  501  503 -0.00000000000E+00 -0.00000000000E+00 -0.12988223867E+03  0.12988223867E+03  0.00000000000E+00 0.  1.
          6    1    1    2  501    0 -0.59392667548E+02  0.30398054828E+02 -0.59269668847E+02  0.19466233416E+03  0.17300000000E+03 0.  1.
         -6    1    1    2    0  502  0.59392667548E+02 -0.30398054828E+02  0.29444204106E+04  0.29502528849E+04  0.17300000000E+03 0.  1.
<mgrwt>
<rscale>  2 0.18541988E+03</rscale>
<asrwt>0</asrwt>
<pdfrwt beam="1">  1       21 0.46385117E+00 0.18541988E+03</pdfrwt>
<pdfrwt beam="2">  1       21 0.19981885E-01 0.18541988E+03</pdfrwt>
<totfact> 0.78849656E+01</totfact>
</mgrwt>
</event>
<event>
 4    3  0.3905963E+000  0.2306326E+03  0.7546771E-02  0.1126195E+00
         21   -1    0    0  503  502  0.00000000000E+00  0.00000000000E+00  0.57413486878E+02  0.57413486878E+02  0.00000000000E+00 0. -1.
         21   -1    0    0  501  503 -0.00000000000E+00 -0.00000000000E+00 -0.13694195543E+04  0.13694195543E+04  0.00000000000E+00 0. -1.
          6    1    1    2  501    0  0.91604085019E+02 -0.12194697735E+03 -0.10617509509E+04  0.10865111391E+04  0.17300000000E+03 0. -1.
         -6    1    1    2    0  502 -0.91604085019E+02  0.12194697735E+03 -0.25025511649E+03  0.34032190204E+03  0.17300000000E+03 0. -1.
<mgrwt>
<rscale>  2 0.23063255E+03</rscale>
<asrwt>0</asrwt>
<pdfrwt beam="1">  1       21 0.88328437E-02 0.23063255E+03</pdfrwt>
<pdfrwt beam="2">  1       21 0.21067994E+00 0.23063255E+03</pdfrwt>
<totfact> 0.11252436E+04</totfact>
</mgrwt>
</event>
<event>
 4    3  0.3905963E+000  0.1756345E+03  0.7546771E-02  0.1172096E+00
         21   -1    0    0  503  502  0.00000000000E+00  0.00000000000E+00  0.22378276385E+03  0.22378276385E+03  0.00000000000E+00 0.  1.
         21   -1    0    0  501  503 -0.00000000000E+00 -0.00000000000E+00 -0.18389478572E+03  0.18389478572E+03  0.00000000000E+00 0.  1.
          6    1    1    2  501    0  0.28935886101E+02 -0.90110361038E+01 -0.82058966499E+02  0.19385860378E+03  0.17300000000E+03 0.  1.
         -6    1    1    2    0  502 -0.28935886101E+02  0.90110361038E+01  0.12194694463E+03  0.21381894580E+03  0.17300000000E+03 0.  1.
<mgrwt>
<rscale>  2 0.17563452E+03</rscale>
<asrwt>0</asrwt>
<pdfrwt beam="1">  1       21 0.34428118E-01 0.17563452E+03</pdfrwt>
<pdfrwt beam="2">  1       21 0.28291505E-01 0.17563452E+03</pdfrwt>
<totfact> 0.97727919E+04</totfact>
</mgrwt>
</event>
<event>
 4    3  0.3905963E+000  0.2390367E+03  0.7546771E-02  0.1120436E+00
         21   -1    0    0  501  502  0.00000000000E+00  0.00000000000E+00  0.64643874981E+03  0.64643874981E+03  0.00000000000E+00 0.  1.
         21   -1    0    0  502  503 -0.00000000000E+00 -0.00000000000E+00 -0.15545865809E+03  0.15545865809E+03  0.00000000000E+00 0. -1.
          6    1    1    2  501    0 -0.15851461507E+03  0.45636180616E+02  0.50884533884E+03  0.56219402614E+03  0.17300000000E+03 0.  1.
         -6    1    1    2    0  503  0.15851461507E+03 -0.45636180616E+02 -0.17865247118E+02  0.23970338176E+03  0.17300000000E+03 0. -1.
<mgrwt>
<rscale>  2 0.23903670E+03</rscale>
<asrwt>0</asrwt>
<pdfrwt beam="1">  1       21 0.99452114E-01 0.23903670E+03</pdfrwt>
<pdfrwt beam="2">  1       21 0.23916717E-01 0.23903670E+03</pdfrwt>
<totfact> 0.13316939E+04</totfact>
</mgrwt>
</event>
<event>
 4    3  0.3905963E+000  0.2041380E+03  0.7546771E-02  0.1146294E+00
         21   -1    0    0  503  502  0.00000000000E+00  0.00000000000E+00  0.12037018619E+04  0.12037018619E+04  0.00000000000E+00 0.  1.
         21   -1    0    0  501  503 -0.00000000000E+00 -0.00000000000E+00 -0.39936713384E+02  0.39936713384E+02  0.00000000000E+00 0.  1.
          6    1    1    2  501    0 -0.97910425011E+02 -0.46442183297E+02  0.80876137067E+03  0.83412665849E+03  0.17300000000E+03 0.  1.
         -6    1    1    2    0  502  0.97910425011E+02  0.46442183297E+02  0.35500377788E+03  0.40951191683E+03  0.17300000000E+03 0.  1.
<mgrwt>
<rscale>  2 0.20413801E+03</rscale>
<asrwt>0</asrwt>
<pdfrwt beam="1">  1       21 0.18518487E+00 0.20413801E+03</pdfrwt>
<pdfrwt beam="2">  1       21 0.61441107E-02 0.20413801E+03</pdfrwt>
<totfact> 0.31537776E+04</totfact>
</mgrwt>
</event>
<event>
 4    3  0.3905963E+000  0.1745138E+03  0.7546771E-02  0.1173221E+00
         21   -1    0    0  503  502  0.00000000000E+00  0.00000000000E+00  0.67345765627E+03  0.67345765627E+03  0.00000000000E+00 0. -1.
         21   -1    0    0  501  503 -0.00000000000E+00 -0.00000000000E+00 -0.48013527551E+02  0.48013527551E+02  0.00000000000E+00 0. -1.
          6    1    1    2  501    0 -0.20057197847E+02  0.11125741434E+02  0.22573964659E+03  0.28533044238E+03  0.17300000000E+03 0. -1.
         -6    1    1    2    0  502  0.20057197847E+02 -0.11125741434E+02  0.39970448213E+03  0.43614074144E+03  0.17300000000E+03 0. -1.
<mgrwt>
<rscale>  2 0.17451382E+03</rscale>
<asrwt>0</asrwt>
<pdfrwt beam="1">  1       21 0.10360886E+00 0.17451382E+03</pdfrwt>
<pdfrwt beam="2">  1       21 0.73866970E-02 0.17451382E+03</pdfrwt>
<totfact> 0.10475628E+05</totfact>
</mgrwt>
</event>
<event>
 4    3  0.3905963E+000  0.1731019E+03  0.7546771E-02  0.1174651E+00
         21   -1    0    0  501  502  0.00000000000E+00  0.00000000000E+00  0.90719581615E+03  0.90719581615E+03  0.00000000000E+00 0.  1.
         21   -1    0    0  502  503 -0.00000000000E+00 -0.00000000000E+00 -0.45152937946E+02  0.45152937946E+02  0.00000000000E+00 0.  1.
          6    1    1    2  501    0 -0.25110160630E+01 -0.53811176676E+01  0.67775894682E+03  0.69951515467E+03  0.17300000000E+03 0.  1.
         -6    1    1    2    0  503  0.25110160630E+01  0.53811176676E+01  0.18428393139E+03  0.25283359942E+03  0.17300000000E+03 0.  1.
<mgrwt>
<rscale>  2 0.17310188E+03</rscale>
<asrwt>0</asrwt>
<pdfrwt beam="1">  1       21 0.13956857E+00 0.17310188E+03</pdfrwt>
<pdfrwt beam="2">  1       21 0.69466065E-02 0.17310188E+03</pdfrwt>
<totfact> 0.55873262E+04</totfact>
</mgrwt>
</event>
<event>
 4    3  0.3905963E+000  0.1791856E+03  0.7546771E-02  0.1168594E+00
         21   -1    0    0  503  502  0.00000000000E+00  0.00000000000E+00  0.11238034077E+04  0.11238034077E+04  0.00000000000E+00 0. -1.
         21   -1    0    0  501  503 -0.00000000000E+00 -0.00000000000E+00 -0.34152129954E+02  0.34152129954E+02  0.00000000000E+00 0. -1.
          6    1    1    2  501    0 -0.25243486186E+02  0.39258557708E+02  0.31075930270E+03  0.35871829081E+03  0.17300000000E+03 0. -1.
         -6    1    1    2    0  502  0.25243486186E+02 -0.39258557708E+02  0.77889197506E+03  0.79923724685E+03  0.17300000000E+03 0. -1.
<mgrwt>
<rscale>  2 0.17918557E+03</rscale>
<asrwt>0</asrwt>
<pdfrwt beam="1">  1       21 0.17289280E+00 0.17918557E+03</pdfrwt>
<pdfrwt beam="2">  1       21 0.52541747E-02 0.17918557E+03</pdfrwt>
<totfact> 0.50772978E+04</totfact>
</mgrwt>
</event>
<event>
 4    3  0.3905963E+000  0.2135953E+03  0.7546771E-02  0.1138750E+00
         21   -1    0    0  503  502  0.00000000000E+00  0.00000000000E+00  0.24906065858E+03  0.24906065858E+03  0.00000000000E+00 0. -1.
         21   -1    0    0  501  503 -0.00000000000E+00 -0.00000000000E+00 -0.19323515879E+03  0.19323515879E+03  0.00000000000E+00 0. -1.
          6    1    1    2  501    0 -0.95562727640E+02  0.81004455257E+02  0.78359366050E+02  0.22751515759E+03  0.17300000000E+03 0. -1.
         -6    1    1    2    0  502  0.95562727640E+02 -0.81004455257E+02 -0.22533866259E+02  0.21478065978E+03  0.17300000000E+03 0. -1.
<mgrwt>
<rscale>  2 0.21359531E+03</rscale>
<asrwt>0</asrwt>
<pdfrwt beam="1">  1       21 0.38317025E-01 0.21359531E+03</pdfrwt>
<pdfrwt beam="2">  1       21 0.29728486E-01 0.21359531E+03</pdfrwt>
<totfact> 0.70591889E+04</totfact>
</mgrwt>
</event>
<event>
 4    3  0.3905963E+000  0.1761202E+03  0.7546771E-02  0.1171612E+00
         21   -1    0    0  501  502  0.00000000000E+00  0.00000000000E+00  0.59866756457E+03  0.59866756457E+03  0.00000000000E+00 0. -1.
         21   -1    0    0  502  503 -0.00000000000E+00 -0.00000000000E+00 -0.52990749453E+02  0.52990749453E+02  0.00000000000E+00 0. -1.
          6    1    1    2  501    0  0.29924930462E+02  0.13921983691E+02  0.32142894034E+03  0.36651723940E+03  0.17300000000E+03 0.  1.
         -6    1    1    2    0  503 -0.29924930462E+02 -0.13921983691E+02  0.22424787478E+03  0.28514107463E+03  0.17300000000E+03 0.  1.
<mgrwt>
<rscale>  2 0.17612020E+03</rscale>
<asrwt>0</asrwt>
<pdfrwt beam="1">  1       21 0.92102697E-01 0.17612020E+03</pdfrwt>
<pdfrwt beam="2">  1       21 0.81524234E-02 0.17612020E+03</pdfrwt>
<totfact> 0.11637376E+05</totfact>
</mgrwt>
</event>
<event>
 4    3  0.3905963E+000  0.1928980E+03  0.7546771E-02  0.1155873E+00
         21   -1    0    0  503  502  0.00000000000E+00  0.00000000000E+00  0.19404368663E+03  0.19404368663E+03  0.00000000000E+00 0. -1.
         21   -1    0    0  501  503 -0.00000000000E+00 -0.00000000000E+00 -0.23122852061E+03  0.23122852061E+03  0.00000000000E+00 0. -1.
          6    1    1    2  501    0 -0.85156421519E+02 -0.53862586953E+01 -0.10644349611E+03  0.22031760205E+03  0.17300000000E+03 0. -1.
         -6    1    1    2    0  502  0.85156421519E+02  0.53862586953E+01  0.69258662135E+02  0.20495460519E+03  0.17300000000E+03 0. -1.
<mgrwt>
<rscale>  2 0.19289797E+03</rscale>
<asrwt>0</asrwt>
<pdfrwt beam="1">  1       21 0.29852875E-01 0.19289797E+03</pdfrwt>
<pdfrwt beam="2">  1       21 0.35573619E-01 0.19289797E+03</pdfrwt>
<totfact> 0.81971659E+04</totfact>
</mgrwt>
</event>
<event>
 4    3  0.3905963E+000  0.2071379E+03  0.7546771E-02  0.1143853E+00
         21   -1    0    0  503  502  0.00000000000E+00  0.00000000000E+00  0.42647806541E+03  0.42647806541E+03  0.00000000000E+00 0.  1.
         21   -1    0    0  501  503 -0.00000000000E+00 -0.00000000000E+00 -0.14222138558E+03  0.14222138558E+03  0.00000000000E+00 0.  1.
          6    1    1    2  501    0  0.47307836379E+02 -0.10362954644E+03 -0.11686773522E+02  0.20746733467E+03  0.17300000000E+03 0.  1.
         -6    1    1    2    0  502 -0.47307836379E+02  0.10362954644E+03  0.29594345335E+03  0.36123211632E+03  0.17300000000E+03 0.  1.
<mgrwt>
<rscale>  2 0.20713791E+03</rscale>
<asrwt>0</asrwt>
<pdfrwt beam="1">  1       21 0.65612010E-01 0.20713791E+03</pdfrwt>
<pdfrwt beam="2">  1       21 0.21880213E-01 0.20713791E+03</pdfrwt>
<totfact> 0.41338693E+04</totfact>
</mgrwt>
</event>
<event>
 4    3  0.3905963E+000  0.1992087E+03  0.7546771E-02  0.1150408E+00
         21   -1    0    0  501  502  0.00000000000E+00  0.00000000000E+00  0.12171225409E+03  0.12171225409E+03  0.00000000000E+00 0. -1.
         21   -1    0    0  502  503 -0.00000000000E+00 -0.00000000000E+00 -0.62381280840E+03  0.62381280840E+03  0.00000000000E+00 0.  1.
          6    1    1    2  501    0  0.59081516778E+02 -0.79148567173E+02  0.64877045166E+01  0.19931435377E+03  0.17300000000E+03 0. -1.
         -6    1    1    2    0  503 -0.59081516778E+02  0.79148567173E+02 -0.50858825883E+03  0.54621070873E+03  0.17300000000E+03 0.  1.
<mgrwt>
<rscale>  2 0.19920874E+03</rscale>
<asrwt>0</asrwt>
<pdfrwt beam="1">  1       21 0.18724962E-01 0.19920874E+03</pdfrwt>
<pdfrwt beam="2">  1       21 0.95971201E-01 0.19920874E+03</pdfrwt>
<totfact> 0.23511547E+04</totfact>
</mgrwt>
</event>
<event>
 4    3  0.3905963E+000  0.3441858E+03  0.7546771E-02  0.1065027E+00
         21   -1    0    0  503  502  0.00000000000E+00  0.00000000000E+00  0.11959043648E+04  0.11959043648E+04  0.00000000000E+00 0.  1.
         21   -1    0    0  501  503 -0.00000000000E+00 -0.00000000000E+00 -0.11939129940E+03  0.11939129940E+03  0.00000000000E+00 0. -1.
          6    1    1    2  501    0  0.43394677680E+02 -0.29436674494E+03  0.80965733293E+03  0.87977774201E+03  0.17300000000E+03 0.  1.
         -6    1    1    2    0  502 -0.43394677680E+02  0.29436674494E+03  0.26685573243E+03  0.43551792214E+03  0.17300000000E+03 0. -1.
<mgrwt>
<rscale>  2 0.34418582E+03</rscale>
<asrwt>0</asrwt>
<pdfrwt beam="1">  1       21 0.18398528E+00 0.34418582E+03</pdfrwt>
<pdfrwt beam="2">  1       21 0.18367893E-01 0.34418582E+03</pdfrwt>
<totfact> 0.41694111E+03</totfact>
</mgrwt>
</event>
<event>
 4    3  0.3905963E+000  0.2246189E+03  0.7546771E-02  0.1130486E+00
         21   -1    0    0  501  502  0.00000000000E+00  0.00000000000E+00  0.65114234901E+03  0.65114234901E+03  0.00000000000E+00 0.  1.
         21   -1    0    0  502  503 -0.00000000000E+00 -0.00000000000E+00 -0.93372024370E+02  0.93372024370E+02  0.00000000000E+00 0.  1.
          6    1    1    2  501    0  0.13423290704E+03 -0.50061519032E+02  0.43243835010E+03  0.48729514225E+03  0.17300000000E+03 0.  1.
         -6    1    1    2    0  503 -0.13423290704E+03  0.50061519032E+02  0.12533197453E+03  0.25721923113E+03  0.17300000000E+03 0.  1.
<mgrwt>
<rscale>  2 0.22461885E+03</rscale>
<asrwt>0</asrwt>
<pdfrwt beam="1">  1       21 0.10017574E+00 0.22461885E+03</pdfrwt>
<pdfrwt beam="2">  1       21 0.14364927E-01 0.22461885E+03</pdfrwt>
<totfact> 0.34104766E+04</totfact>
</mgrwt>
</event>
<event>
 4    3  0.3905963E+000  0.2661463E+03  0.7546771E-02  0.1103506E+00
         21   -1    0    0  503  502  0.00000000000E+00  0.00000000000E+00  0.41574102990E+04  0.41574102990E+04  0.00000000000E+00 0.  1.
         21   -1    0    0  501  503 -0.00000000000E+00 -0.00000000000E+00 -0.18786741246E+02  0.18786741246E+02  0.00000000000E+00 0.  1.
          6    1    1    2  501    0 -0.20142344890E+03  0.18259862946E+02  0.27063886931E+04  0.27194436171E+04  0.17300000000E+03 0.  1.
         -6    1    1    2    0  502  0.20142344890E+03 -0.18259862946E+02  0.14322348646E+04  0.14567534231E+04  0.17300000000E+03 0.  1.
<mgrwt>
<rscale>  2 0.26614625E+03</rscale>
<asrwt>0</asrwt>
<pdfrwt beam="1">  1       21 0.63960085E+00 0.26614625E+03</pdfrwt>
<pdfrwt beam="2">  1       21 0.28902712E-02 0.26614625E+03</pdfrwt>
<totfact> 0.99668984E+01</totfact>
</mgrwt>
</event>
<event>
 4    3  0.3905963E+000  0.2451529E+03  0.7546771E-02  0.1116407E+00
         21   -1    0    0  503  502  0.00000000000E+00  0.00000000000E+00  0.24852240605E+03  0.24852240605E+03  0.00000000000E+00 0.  1.
         21   -1    0    0  501  503 -0.00000000000E+00 -0.00000000000E+00 -0.66977952898E+03  0.66977952898E+03  0.00000000000E+00 0. -1.
          6    1    1    2  501    0  0.46358341525E+02 -0.16739724422E+03 -0.57764569233E+03  0.62751452499E+03  0.17300000000E+03 0. -1.
         -6    1    1    2    0  502 -0.46358341525E+02  0.16739724422E+03  0.15638856940E+03  0.29078741005E+03  0.17300000000E+03 0.  1.
<mgrwt>
<rscale>  2 0.24515288E+03</rscale>
<asrwt>0</asrwt>
<pdfrwt beam="1">  1       21 0.38234217E-01 0.24515288E+03</pdfrwt>
<pdfrwt beam="2">  1       21 0.10304300E+00 0.24515288E+03</pdfrwt>
<totfact> 0.48533083E+03</totfact>
</mgrwt>
</event>
<event>
 4    3  0.3905963E+000  0.2084872E+03  0.7546771E-02  0.1142770E+00
         21   -1    0    0  501  502  0.00000000000E+00  0.00000000000E+00  0.12820379609E+03  0.12820379609E+03  0.00000000000E+00 0.  1.
         21   -1    0    0  502  503 -0.00000000000E+00 -0.00000000000E+00 -0.35301779752E+03  0.35301779752E+03  0.00000000000E+00 0.  1.
          6    1    1    2  501    0  0.95232443228E+02  0.66848302812E+02 -0.64538316664E+02  0.21824781362E+03  0.17300000000E+03 0.  1.
         -6    1    1    2    0  503 -0.95232443228E+02 -0.66848302812E+02 -0.16027568477E+03  0.26297377998E+03  0.17300000000E+03 0.  1.
<mgrwt>
<rscale>  2 0.20848720E+03</rscale>
<asrwt>0</asrwt>
<pdfrwt beam="1">  1       21 0.19723661E-01 0.20848720E+03</pdfrwt>
<pdfrwt beam="2">  1       21 0.54310430E-01 0.20848720E+03</pdfrwt>
<totfact> 0.75367756E+04</totfact>
</mgrwt>
</event>
<event>
 4    3  0.3905963E+000  0.2364679E+03  0.7546771E-02  0.1122168E+00
         21   -1    0    0  501  502  0.00000000000E+00  0.00000000000E+00  0.85579026987E+03  0.85579026987E+03  0.00000000000E+00 0.  1.
         21   -1    0    0  502  503 -0.00000000000E+00 -0.00000000000E+00 -0.19419177654E+03  0.19419177654E+03  0.00000000000E+00 0.  1.
          6    1    1    2  501    0 -0.15290921868E+03  0.51057051048E+02  0.75844309189E+03  0.79445136745E+03  0.17300000000E+03 0.  1.
         -6    1    1    2    0  503  0.15290921868E+03 -0.51057051048E+02 -0.96844598554E+02  0.25553067896E+03  0.17300000000E+03 0.  1.
<mgrwt>
<rscale>  2 0.23646787E+03</rscale>
<asrwt>0</asrwt>
<pdfrwt beam="1">  1       21 0.13166004E+00 0.23646787E+03</pdfrwt>
<pdfrwt beam="2">  1       21 0.29875658E-01 0.23646787E+03</pdfrwt>
<totfact> 0.43464889E+03</totfact>
</mgrwt>
</event>
<event>
 4    3  0.3905963E+000  0.1919010E+03  0.7546771E-02  0.1156758E+00
         21   -1    0    0  503  502  0.00000000000E+00  0.00000000000E+00  0.12984566693E+03  0.12984566693E+03  0.00000000000E+00 0.  1.
         21   -1    0    0  501  503 -0.00000000000E+00 -0.00000000000E+00 -0.30158227365E+03  0.30158227365E+03  0.00000000000E+00 0.  1.
          6    1    1    2  501    0  0.71638353723E+02  0.42011099584E+02 -0.13852266904E+03  0.23667386009E+03  0.17300000000E+03 0.  1.
         -6    1    1    2    0  502 -0.71638353723E+02 -0.42011099584E+02 -0.33213937685E+02  0.19475408049E+03  0.17300000000E+03 0.  1.
<mgrwt>
<rscale>  2 0.19190098E+03</rscale>
<asrwt>0</asrwt>
<pdfrwt beam="1">  1       21 0.19976257E-01 0.19190098E+03</pdfrwt>
<pdfrwt beam="2">  1       21 0.46397272E-01 0.19190098E+03</pdfrwt>
<totfact> 0.10297344E+05</totfact>
</mgrwt>
</event>
<event>
 4    3  0.3905963E+000  0.1792216E+03  0.7546771E-02  0.1168559E+00
         21   -1    0    0  501  502  0.00000000000E+00  0.00000000000E+00  0.13017154853E+04  0.13017154853E+04  0.00000000000E+00 0. -1.
         21   -1    0    0  502  503 -0.00000000000E+00 -0.00000000000E+00 -0.14592878909E+03  0.14592878909E+03  0.00000000000E+00 0. -1.
          6    1    1    2  501    0  0.70336147325E+01  0.46280763482E+02  0.12376872133E+04  0.12505958654E+04  0.17300000000E+03 0. -1.
         -6    1    1    2    0  503 -0.70336147325E+01 -0.46280763482E+02 -0.81900517002E+02  0.19704840900E+03  0.17300000000E+03 0. -1.
<mgrwt>
<rscale>  2 0.17922160E+03</rscale>
<asrwt>0</asrwt>
<pdfrwt beam="1">  1       21 0.20026391E+00 0.17922160E+03</pdfrwt>
<pdfrwt beam="2">  1       21 0.22450584E-01 0.17922160E+03</pdfrwt>
<totfact> 0.25198765E+03</totfact>
</mgrwt>
</event>
<event>
 4    3  0.3905963E+000  0.1940994E+03  0.7546771E-02  0.1154815E+00
         21   -1    0    0  501  502  0.00000000000E+00  0.00000000000E+00  0.15891837777E+04  0.15891837777E+04  0.00000000000E+00 0.  1.
         21   -1    0    0  502  503 -0.00000000000E+00 -0.00000000000E+00 -0.36607429773E+02  0.36607429773E+02  0.00000000000E+00 0.  1.
          6    1    1    2  501    0  0.87709982387E+02  0.72483698599E+01  0.12588515554E+04  0.12737275291E+04  0.17300000000E+03 0.  1.
         -6    1    1    2    0  503 -0.87709982387E+02 -0.72483698599E+01  0.29372479250E+03  0.35206367834E+03  0.17300000000E+03 0.  1.
<mgrwt>
<rscale>  2 0.19409941E+03</rscale>
<asrwt>0</asrwt>
<pdfrwt beam="1">  1       21 0.24448976E+00 0.19409941E+03</pdfrwt>
<pdfrwt beam="2">  1       21 0.56319135E-02 0.19409941E+03</pdfrwt>
<totfact> 0.15723692E+04</totfact>
</mgrwt>
</event>
<event>
 4    3  0.3905963E+000  0.2074552E+03  0.7546771E-02  0.1143597E+00
         21   -1    0    0  501  502  0.00000000000E+00  0.00000000000E+00  0.24925960758E+03  0.24925960758E+03  0.00000000000E+00 0. -1.
         21   -1    0    0  502  503 -0.00000000000E+00 -0.00000000000E+00 -0.19021142974E+03  0.19021142974E+03  0.00000000000E+00 0. -1.
          6    1    1    2  501    0  0.11132295409E+03  0.26755892302E+02  0.96268159897E+02  0.22870338102E+03  0.17300000000E+03 0. -1.
         -6    1    1    2    0  503 -0.11132295409E+03 -0.26755892302E+02 -0.37219982049E+02  0.21076765630E+03  0.17300000000E+03 0. -1.
<mgrwt>
<rscale>  2 0.20745524E+03</rscale>
<asrwt>0</asrwt>
<pdfrwt beam="1">  1       21 0.38347632E-01 0.20745524E+03</pdfrwt>
<pdfrwt beam="2">  1       21 0.29263297E-01 0.20745524E+03</pdfrwt>
<totfact> 0.72869254E+04</totfact>
</mgrwt>
</event>
<event>
 4    3  0.3905963E+000  0.3650857E+03  0.7546771E-02  0.1056588E+00
         21   -1    0    0  503  502  0.00000000000E+00  0.00000000000E+00  0.18208452771E+03  0.18208452771E+03  0.00000000000E+00 0. -1.
         21   -1    0    0  501  503 -0.00000000000E+00 -0.00000000000E+00 -0.13659316976E+04  0.13659316976E+04  0.00000000000E+00 0.  1.
          6    1    1    2  501    0 -0.22270598736E+03 -0.23186327414E+03 -0.11192130947E+04  0.11772533653E+04  0.17300000000E+03 0.  1.
         -6    1    1    2    0  502  0.22270598736E+03  0.23186327414E+03 -0.64634075177E+02  0.37076286003E+03  0.17300000000E+03 0. -1.
<mgrwt>
<rscale>  2 0.36508565E+03</rscale>
<asrwt>0</asrwt>
<pdfrwt beam="1">  1       21 0.28013003E-01 0.36508565E+03</pdfrwt>
<pdfrwt beam="2">  1       21 0.21014335E+00 0.36508565E+03</pdfrwt>
<totfact> 0.12288617E+03</totfact>
</mgrwt>
</event>
<event>
 4    3  0.3905963E+000  0.2526547E+03  0.7546771E-02  0.1111638E+00
         21   -1    0    0  503  502  0.00000000000E+00  0.00000000000E+00  0.14054000239E+04  0.14054000239E+04  0.00000000000E+00 0. -1.
         21   -1    0    0  501  503 -0.00000000000E+00 -0.00000000000E+00 -0.58044893069E+02  0.58044893069E+02  0.00000000000E+00 0. -1.
          6    1    1    2  501    0  0.15226397640E+03 -0.10354271498E+03  0.10149209488E+04  0.10458962399E+04  0.17300000000E+03 0. -1.
         -6    1    1    2    0  502 -0.15226397640E+03  0.10354271498E+03  0.33243418203E+03  0.41754867706E+03  0.17300000000E+03 0. -1.
<mgrwt>
<rscale>  2 0.25265473E+03</rscale>
<asrwt>0</asrwt>
<pdfrwt beam="1">  1       21 0.21621536E+00 0.25265473E+03</pdfrwt>
<pdfrwt beam="2">  1       21 0.89299847E-02 0.25265473E+03</pdfrwt>
<totfact> 0.10030905E+04</totfact>
</mgrwt>
</event>
<event>
 4    3  0.3905963E+000  0.1975774E+03  0.7546771E-02  0.1151799E+00
         21   -1    0    0  501  502  0.00000000000E+00  0.00000000000E+00  0.17154448159E+04  0.17154448159E+04  0.00000000000E+00 0. -1.
         21   -1    0    0  502  503 -0.00000000000E+00 -0.00000000000E+00 -0.36898905951E+02  0.36898905951E+02  0.00000000000E+00 0. -1.
          6    1    1    2  501    0  0.29855335175E+02 -0.90644877062E+02  0.13817112458E+04  0.13957660268E+04  0.17300000000E+03 0. -1.
         -6    1    1    2    0  503 -0.29855335175E+02  0.90644877062E+02  0.29683466417E+03  0.35657769508E+03  0.17300000000E+03 0. -1.
<mgrwt>
<rscale>  2 0.19757741E+03</rscale>
<asrwt>0</asrwt>
<pdfrwt beam="1">  1       21 0.26391453E+00 0.19757741E+03</pdfrwt>
<pdfrwt beam="2">  1       21 0.56767561E-02 0.19757741E+03</pdfrwt>
<totfact> 0.11895152E+04</totfact>
</mgrwt>
</event>
<event>
 4    3  0.3905963E+000  0.1866853E+03  0.7546771E-02  0.1161485E+00
         21   -1    0    0  503  502  0.00000000000E+00  0.00000000000E+00  0.10786544673E+04  0.10786544673E+04  0.00000000000E+00 0. -1.
         21   -1    0    0  501  503 -0.00000000000E+00 -0.00000000000E+00 -0.38985207174E+02  0.38985207174E+02  0.00000000000E+00 0. -1.
          6    1    1    2  501    0 -0.47223787094E+02  0.51887497939E+02  0.28860042652E+03  0.34371733256E+03  0.17300000000E+03 0. -1.
         -6    1    1    2    0  502  0.47223787094E+02 -0.51887497939E+02  0.75106883357E+03  0.77392234188E+03  0.17300000000E+03 0. -1.
<mgrwt>
<rscale>  2 0.18668529E+03</rscale>
<asrwt>0</asrwt>
<pdfrwt beam="1">  1       21 0.16594682E+00 0.18668529E+03</pdfrwt>
<pdfrwt beam="2">  1       21 0.59977250E-02 0.18668529E+03</pdfrwt>
<totfact> 0.45140055E+04</totfact>
</mgrwt>
</event>
<event>
 4    3  0.3905963E+000  0.2027913E+03  0.7546771E-02  0.1147405E+00
         21   -1    0    0  503  502  0.00000000000E+00  0.00000000000E+00  0.56299993990E+03  0.56299993990E+03  0.00000000000E+00 0.  1.
         21   -1    0    0  501  503 -0.00000000000E+00 -0.00000000000E+00 -0.95392603523E+02  0.95392603523E+02  0.00000000000E+00 0.  1.
          6    1    1    2  501    0 -0.19535781252E+02 -0.10398885772E+03  0.74467980595E+02  0.21603196387E+03  0.17300000000E+03 0.  1.
         -6    1    1    2    0  502  0.19535781252E+02  0.10398885772E+03  0.39313935578E+03  0.44236057956E+03  0.17300000000E+03 0.  1.
<mgrwt>
<rscale>  2 0.20279134E+03</rscale>
<asrwt>0</asrwt>
<pdfrwt beam="1">  1       21 0.86615373E-01 0.20279134E+03</pdfrwt>
<pdfrwt beam="2">  1       21 0.14675785E-01 0.20279134E+03</pdfrwt>
<totfact> 0.46603538E+04</totfact>
</mgrwt>
</event>
<event>
 4    3  0.3905963E+000  0.2191918E+03  0.7546771E-02  0.1134487E+00
         21   -1    0    0  503  502  0.00000000000E+00  0.00000000000E+00  0.20368698594E+02  0.20368698594E+02  0.00000000000E+00 0. -1.
         21   -1    0    0  501  503 -0.00000000000E+00 -0.00000000000E+00 -0.25102593141E+04  0.25102593141E+04  0.00000000000E+00 0.  1.
          6    1    1    2  501    0  0.55275236191E+02 -0.12272197917E+03 -0.15557823626E+04  0.15711472864E+04  0.17300000000E+03 0.  1.
         -6    1    1    2    0  502 -0.55275236191E+02  0.12272197917E+03 -0.93410825289E+03  0.95948072624E+03  0.17300000000E+03 0. -1.
<mgrwt>
<rscale>  2 0.21919178E+03</rscale>
<asrwt>0</asrwt>
<pdfrwt beam="1">  1       21 0.31336469E-02 0.21919178E+03</pdfrwt>
<pdfrwt beam="2">  1       21 0.38619362E+00 0.21919178E+03</pdfrwt>
<totfact> 0.60378891E+03</totfact>
</mgrwt>
</event>
<event>
 4    3  0.3905963E+000  0.2037271E+03  0.7546771E-02  0.1146632E+00
         21   -1    0    0  501  502  0.00000000000E+00  0.00000000000E+00  0.18042810106E+02  0.18042810106E+02  0.00000000000E+00 0.  1.
         21   -1    0    0  502  503 -0.00000000000E+00 -0.00000000000E+00 -0.23198443040E+04  0.23198443040E+04  0.00000000000E+00 0. -1.
          6    1    1    2  501    0  0.10221922643E+03  0.33570063738E+02 -0.12580660717E+04  0.12744547697E+04  0.17300000000E+03 0. -1.
         -6    1    1    2    0  503 -0.10221922643E+03 -0.33570063738E+02 -0.10437354222E+04  0.10634323444E+04  0.17300000000E+03 0. -1.
<mgrwt>
<rscale>  2 0.20372707E+03</rscale>
<asrwt>0</asrwt>
<pdfrwt beam="1">  1       21 0.27758168E-02 0.20372707E+03</pdfrwt>
<pdfrwt beam="2">  1       21 0.35689914E+00 0.20372707E+03</pdfrwt>
<totfact> 0.11304460E+04</totfact>
</mgrwt>
</event>
<event>
 4    3  0.3905963E+000  0.2346543E+03  0.7546771E-02  0.1123406E+00
         21   -1    0    0  501  502  0.00000000000E+00  0.00000000000E+00  0.39152582250E+03  0.39152582250E+03  0.00000000000E+00 0. -1.
         21   -1    0    0  502  503 -0.00000000000E+00 -0.00000000000E+00 -0.25247581480E+03  0.25247581480E+03  0.00000000000E+00 0.  1.
          6    1    1    2  501    0 -0.69454996215E+01  0.15838374486E+03  0.28383635784E+03  0.36827398582E+03  0.17300000000E+03 0. -1.
         -6    1    1    2    0  503  0.69454996215E+01 -0.15838374486E+03 -0.14478635014E+03  0.27572765147E+03  0.17300000000E+03 0.  1.
<mgrwt>
<rscale>  2 0.23465432E+03</rscale>
<asrwt>0</asrwt>
<pdfrwt beam="1">  1       21 0.60234742E-01 0.23465432E+03</pdfrwt>
<pdfrwt beam="2">  1       21 0.38842433E-01 0.23465432E+03</pdfrwt>
<totfact> 0.16019067E+04</totfact>
</mgrwt>
</event>
<event>
 4    3  0.3905963E+000  0.2256230E+03  0.7546771E-02  0.1129759E+00
         21   -1    0    0  503  502  0.00000000000E+00  0.00000000000E+00  0.35456929806E+03  0.35456929806E+03  0.00000000000E+00 0. -1.
         21   -1    0    0  501  503 -0.00000000000E+00 -0.00000000000E+00 -0.37651670891E+03  0.37651670891E+03  0.00000000000E+00 0.  1.
          6    1    1    2  501    0  0.11509906443E+03 -0.87914495859E+02 -0.29849764468E+03  0.37417455431E+03  0.17300000000E+03 0.  1.
         -6    1    1    2    0  502 -0.11509906443E+03  0.87914495859E+02  0.27655023383E+03  0.35691145267E+03  0.17300000000E+03 0. -1.
<mgrwt>
<rscale>  2 0.22562303E+03</rscale>
<asrwt>0</asrwt>
<pdfrwt beam="1">  1       21 0.54549123E-01 0.22562303E+03</pdfrwt>
<pdfrwt beam="2">  1       21 0.57925647E-01 0.22562303E+03</pdfrwt>
<totfact> 0.86724976E+03</totfact>
</mgrwt>
</event>
<event>
 4    3  0.3905963E+000  0.1879096E+03  0.7546771E-02  0.1160360E+00
         21   -1    0    0  501  502  0.00000000000E+00  0.00000000000E+00  0.44492286367E+03  0.44492286367E+03  0.00000000000E+00 0. -1.
         21   -1    0    0  502  503 -0.00000000000E+00 -0.00000000000E+00 -0.11067608764E+03  0.11067608764E+03  0.00000000000E+00 0.  1.
          6    1    1    2  501    0 -0.58334225212E+02 -0.44476356863E+02  0.31488903206E+03  0.36669487406E+03  0.17300000000E+03 0. -1.
         -6    1    1    2    0  503  0.58334225212E+02  0.44476356863E+02  0.19357743970E+02  0.18890407725E+03  0.17300000000E+03 0.  1.
<mgrwt>
<rscale>  2 0.18790963E+03</rscale>
<asrwt>0</asrwt>
<pdfrwt beam="1">  1       21 0.68449670E-01 0.18790963E+03</pdfrwt>
<pdfrwt beam="2">  1       21 0.17027091E-01 0.18790963E+03</pdfrwt>
<totfact> 0.60677509E+04</totfact>
</mgrwt>
</event>
<event>
 4    3  0.3905963E+000  0.1757024E+03  0.7546771E-02  0.1172028E+00
         21   -1    0    0  501  502  0.00000000000E+00  0.00000000000E+00  0.20365173040E+02  0.20365173040E+02  0.00000000000E+00 0.  1.
         21   -1    0    0  502  503 -0.00000000000E+00 -0.00000000000E+00 -0.27268872862E+04  0.27268872862E+04  0.00000000000E+00 0.  1.
          6    1    1    2  501    0  0.96951360495E+01 -0.29126137927E+02 -0.43786956566E+03  0.47180619338E+03  0.17300000000E+03 0.  1.
         -6    1    1    2    0  503 -0.96951360495E+01  0.29126137927E+02 -0.22686525475E+04  0.22754462659E+04  0.17300000000E+03 0.  1.
<mgrwt>
<rscale>  2 0.17570238E+03</rscale>
<asrwt>0</asrwt>
<pdfrwt beam="1">  1       21 0.31331066E-02 0.17570238E+03</pdfrwt>
<pdfrwt beam="2">  1       21 0.41952072E+00 0.17570238E+03</pdfrwt>
<totfact> 0.39648379E+03</totfact>
</mgrwt>
</event>
<event>
 4    3  0.3905963E+000  0.5819894E+03  0.7546771E-02  0.9943493E-01
         21   -1    0    0  501  502  0.00000000000E+00  0.00000000000E+00  0.47277129176E+03  0.47277129176E+03  0.00000000000E+00 0.  1.
         21   -1    0    0  502  503 -0.00000000000E+00 -0.00000000000E+00 -0.99558440642E+03  0.99558440642E+03  0.00000000000E+00 0. -1.
          6    1    1    2  501    0  0.50084124022E+03  0.24070877708E+03  0.12734996474E+03  0.59575974754E+03  0.17300000000E+03 0. -1.
         -6    1    1    2    0  503 -0.50084124022E+03 -0.24070877708E+03 -0.65016307940E+03  0.87259595065E+03  0.17300000000E+03 0.  1.
<mgrwt>
<rscale>  2 0.58198940E+03</rscale>
<asrwt>0</asrwt>
<pdfrwt beam="1">  1       21 0.72734044E-01 0.58198940E+03</pdfrwt>
<pdfrwt beam="2">  1       21 0.15316683E+00 0.58198940E+03</pdfrwt>
<totfact> 0.37768902E+02</totfact>
</mgrwt>
</event>
<event>
 4    3  0.3905963E+000  0.2721982E+03  0.7546771E-02  0.1100028E+00
         21   -1    0    0  503  502  0.00000000000E+00  0.00000000000E+00  0.78824164424E+03  0.78824164424E+03  0.00000000000E+00 0. -1.
         21   -1    0    0  501  503 -0.00000000000E+00 -0.00000000000E+00 -0.14770248344E+03  0.14770248344E+03  0.00000000000E+00 0. -1.
          6    1    1    2  501    0  0.68504815260E+02 -0.19867051947E+03  0.38082108473E+02  0.27484928962E+03  0.17300000000E+03 0. -1.
         -6    1    1    2    0  502 -0.68504815260E+02  0.19867051947E+03  0.60245705232E+03  0.66109483806E+03  0.17300000000E+03 0. -1.
<mgrwt>
<rscale>  2 0.27219825E+03</rscale>
<asrwt>0</asrwt>
<pdfrwt beam="1">  1       21 0.12126794E+00 0.27219825E+03</pdfrwt>
<pdfrwt beam="2">  1       21 0.22723459E-01 0.27219825E+03</pdfrwt>
<totfact> 0.88819982E+03</totfact>
</mgrwt>
</event>
<event>
 4    3  0.3905963E+000  0.2099768E+03  0.7546771E-02  0.1141584E+00
         21   -1    0    0  503  502  0.00000000000E+00  0.00000000000E+00  0.10274676332E+03  0.10274676332E+03  0.00000000000E+00 0. -1.
         21   -1    0    0  501  503 -0.00000000000E+00 -0.00000000000E+00 -0.63613139711E+03  0.63613139711E+03  0.00000000000E+00 0. -1.
          6    1    1    2  501    0 -0.11620427766E+03  0.25647642320E+02 -0.47744406994E+03  0.52157748765E+03  0.17300000000E+03 0. -1.
         -6    1    1    2    0  502  0.11620427766E+03 -0.25647642320E+02 -0.55940563849E+02  0.21730067277E+03  0.17300000000E+03 0. -1.
<mgrwt>
<rscale>  2 0.20997675E+03</rscale>
<asrwt>0</asrwt>
<pdfrwt beam="1">  1       21 0.15807194E-01 0.20997675E+03</pdfrwt>
<pdfrwt beam="2">  1       21 0.97866371E-01 0.20997675E+03</pdfrwt>
<totfact> 0.30498121E+04</totfact>
</mgrwt>
</event>
<event>
 4    3  0.3905963E+000  0.1875475E+03  0.7546771E-02  0.1160692E+00
         21   -1    0    0  501  502  0.00000000000E+00  0.00000000000E+00  0.26465743690E+03  0.26465743690E+03  0.00000000000E+00 0.  1.
         21   -1    0    0  502  503 -0.00000000000E+00 -0.00000000000E+00 -0.13516953541E+03  0.13516953541E+03  0.00000000000E+00 0.  1.
          6    1    1    2  501    0  0.30799850573E+02 -0.65547254101E+02  0.90624479411E+02  0.20829515017E+03  0.17300000000E+03 0.  1.
         -6    1    1    2    0  503 -0.30799850573E+02  0.65547254101E+02  0.38863422083E+02  0.19153182214E+03  0.17300000000E+03 0.  1.
<mgrwt>
<rscale>  2 0.18754752E+03</rscale>
<asrwt>0</asrwt>
<pdfrwt beam="1">  1       21 0.40716529E-01 0.18754752E+03</pdfrwt>
<pdfrwt beam="2">  1       21 0.20795313E-01 0.18754752E+03</pdfrwt>
<totfact> 0.12491743E+05</totfact>
</mgrwt>
</event>
<event>
 4    3  0.3905963E+000  0.2250259E+03  0.7546771E-02  0.1130191E+00
         21   -1    0    0  503  502  0.00000000000E+00  0.00000000000E+00  0.98332757815E+02  0.98332757815E+02  0.00000000000E+00 0. -1.
         21   -1    0    0  501  503 -0.00000000000E+00 -0.00000000000E+00 -0.51496523729E+03  0.51496523729E+03  0.00000000000E+00 0.  1.
          6    1    1    2  501    0 -0.44562261537E+02 -0.13682789255E+03 -0.20986075461E+03  0.30769823473E+03  0.17300000000E+03 0. -1.
         -6    1    1    2    0  502  0.44562261537E+02  0.13682789255E+03 -0.20677172486E+03  0.30559976037E+03  0.17300000000E+03 0.  1.
<mgrwt>
<rscale>  2 0.22502593E+03</rscale>
<asrwt>0</asrwt>
<pdfrwt beam="1">  1       21 0.15128117E-01 0.22502593E+03</pdfrwt>
<pdfrwt beam="2">  1       21 0.79225419E-01 0.22502593E+03</pdfrwt>
<totfact> 0.53479255E+04</totfact>
</mgrwt>
</event>
<event>
 4    3  0.3905963E+000  0.2229833E+03  0.7546771E-02  0.1131678E+00
         21   -1    0    0  503  502  0.00000000000E+00  0.00000000000E+00  0.21722203895E+03  0.21722203895E+03  0.00000000000E+00 0.  1.
         21   -1    0    0  501  503 -0.00000000000E+00 -0.00000000000E+00 -0.25675967688E+03  0.25675967688E+03  0.00000000000E+00 0.  1.
          6    1    1    2  501    0 -0.31719588033E+02  0.13706354716E+03 -0.97837511327E+02  0.24350303252E+03  0.17300000000E+03 0.  1.
         -6    1    1    2    0  502  0.31719588033E+02 -0.13706354716E+03  0.58299873398E+02  0.23047868331E+03  0.17300000000E+03 0.  1.
<mgrwt>
<rscale>  2 0.22298329E+03</rscale>
<asrwt>0</asrwt>
<pdfrwt beam="1">  1       21 0.33418775E-01 0.22298329E+03</pdfrwt>
<pdfrwt beam="2">  1       21 0.39501489E-01 0.22298329E+03</pdfrwt>
<totfact> 0.52530493E+04</totfact>
</mgrwt>
</event>
<event>
 4    3  0.3905963E+000  0.1758782E+03  0.7546771E-02  0.1171853E+00
         21   -1    0    0  501  502  0.00000000000E+00  0.00000000000E+00  0.39023328969E+02  0.39023328969E+02  0.00000000000E+00 0.  1.
         21   -1    0    0  502  503 -0.00000000000E+00 -0.00000000000E+00 -0.13380566477E+04  0.13380566477E+04  0.00000000000E+00 0.  1.
          6    1    1    2  501    0 -0.98996540562E+01  0.30102357003E+02 -0.20993584273E+03  0.27387262205E+03  0.17300000000E+03 0.  1.
         -6    1    1    2    0  503  0.98996540562E+01 -0.30102357003E+02 -0.10890974760E+04  0.11032073546E+04  0.17300000000E+03 0.  1.
<mgrwt>
<rscale>  2 0.17587824E+03</rscale>
<asrwt>0</asrwt>
<pdfrwt beam="1">  1       21 0.60035896E-02 0.17587824E+03</pdfrwt>
<pdfrwt beam="2">  1       21 0.20585485E+00 0.17587824E+03</pdfrwt>
<totfact> 0.24585612E+04</totfact>
</mgrwt>
</event>
<event>
 4    3  0.3905963E+000  0.1919800E+03  0.7546771E-02  0.1156687E+00
         21   -1    0    0  501  502  0.00000000000E+00  0.00000000000E+00  0.63965790350E+03  0.63965790350E+03  0.00000000000E+00 0. -1.
         21   -1    0    0  502  503 -0.00000000000E+00 -0.00000000000E+00 -0.88259071515E+02  0.88259071515E+02  0.00000000000E+00 0. -1.
          6    1    1    2  501    0  0.37182604892E+02  0.74463359140E+02  0.49014558349E+03  0.52640196711E+03  0.17300000000E+03 0. -1.
         -6    1    1    2    0  503 -0.37182604892E+02 -0.74463359140E+02  0.61253248496E+02  0.20151500791E+03  0.17300000000E+03 0. -1.
<mgrwt>
<rscale>  2 0.19198005E+03</rscale>
<asrwt>0</asrwt>
<pdfrwt beam="1">  1       21 0.98408905E-01 0.19198005E+03</pdfrwt>
<pdfrwt beam="2">  1       21 0.13578319E-01 0.19198005E+03</pdfrwt>
<totfact> 0.40086581E+04</totfact>
</mgrwt>
</event>
<event>
 4    3  0.3905963E+000  0.2445700E+03  0.7546771E-02  0.1116785E+00
         21   -1    0    0  501  502  0.00000000000E+00  0.00000000000E+00  0.51764728953E+03  0.51764728953E+03  0.00000000000E+00 0. -1.
         21   -1    0    0  502  503 -0.00000000000E+00 -0.00000000000E+00 -0.35780911539E+03  0.35780911539E+03  0.00000000000E+00 0.  1.
          6    1    1    2  501    0 -0.16897904406E+03  0.36490345263E+02  0.44009804807E+03  0.50348858432E+03  0.17300000000E+03 0. -1.
         -6    1    1    2    0  503  0.16897904406E+03 -0.36490345263E+02 -0.28025987393E+03  0.37196782060E+03  0.17300000000E+03 0.  1.
<mgrwt>
<rscale>  2 0.24456995E+03</rscale>
<asrwt>0</asrwt>
<pdfrwt beam="1">  1       21 0.79638044E-01 0.24456995E+03</pdfrwt>
<pdfrwt beam="2">  1       21 0.55047556E-01 0.24456995E+03</pdfrwt>
<totfact> 0.41644636E+03</totfact>
</mgrwt>
</event>
<event>
 4    3  0.3905963E+000  0.1943877E+03  0.7546771E-02  0.1154562E+00
         21   -1    0    0  501  502  0.00000000000E+00  0.00000000000E+00  0.40687183235E+03  0.40687183235E+03  0.00000000000E+00 0. -1.
         21   -1    0    0  502  503 -0.00000000000E+00 -0.00000000000E+00 -0.27123910002E+03  0.27123910002E+03  0.00000000000E+00 0.  1.
          6    1    1    2  501    0  0.79657803734E+02  0.38887004253E+02  0.34276608718E+03  0.39404968635E+03  0.17300000000E+03 0. -1.
         -6    1    1    2    0  503 -0.79657803734E+02 -0.38887004253E+02 -0.20713335485E+03  0.28406124601E+03  0.17300000000E+03 0.  1.
<mgrwt>
<rscale>  2 0.19438767E+03</rscale>
<asrwt>0</asrwt>
<pdfrwt beam="1">  1       21 0.62595667E-01 0.19438767E+03</pdfrwt>
<pdfrwt beam="2">  1       21 0.41729092E-01 0.19438767E+03</pdfrwt>
<totfact> 0.13061717E+04</totfact>
</mgrwt>
</event>
<event>
 4    3  0.3905963E+000  0.3753181E+03  0.7546771E-02  0.1052678E+00
         21   -1    0    0  501  502  0.00000000000E+00  0.00000000000E+00  0.19010367649E+03  0.19010367649E+03  0.00000000000E+00 0.  1.
         21   -1    0    0  502  503 -0.00000000000E+00 -0.00000000000E+00 -0.75591018506E+03  0.75591018506E+03  0.00000000000E+00 0. -1.
          6    1    1    2  501    0  0.32724615808E+03  0.62005278072E+02 -0.34937130601E+03  0.51276116463E+03  0.17300000000E+03 0.  1.
         -6    1    1    2    0  503 -0.32724615808E+03 -0.62005278072E+02 -0.21643520256E+03  0.43325269693E+03  0.17300000000E+03 0. -1.
<mgrwt>
<rscale>  2 0.37531814E+03</rscale>
<asrwt>0</asrwt>
<pdfrwt beam="1">  1       21 0.29246720E-01 0.37531814E+03</pdfrwt>
<pdfrwt beam="2">  1       21 0.11629387E+00 0.37531814E+03</pdfrwt>
<totfact> 0.57660219E+03</totfact>
</mgrwt>
</event>
<event>
 4    3  0.3905963E+000  0.2331105E+03  0.7546771E-02  0.1124469E+00
         21   -1    0    0  501  502  0.00000000000E+00  0.00000000000E+00  0.17997803605E+03  0.17997803605E+03  0.00000000000E+00 0. -1.
         21   -1    0    0  502  503 -0.00000000000E+00 -0.00000000000E+00 -0.31527501463E+03  0.31527501463E+03  0.00000000000E+00 0. -1.
          6    1    1    2  501    0 -0.15541843058E+03 -0.16019557766E+02 -0.16699585670E+02  0.23370791805E+03  0.17300000000E+03 0. -1.
         -6    1    1    2    0  503  0.15541843058E+03  0.16019557766E+02 -0.11859739291E+03  0.26154513263E+03  0.17300000000E+03 0. -1.
<mgrwt>
<rscale>  2 0.23311052E+03</rscale>
<asrwt>0</asrwt>
<pdfrwt beam="1">  1       21 0.27688928E-01 0.23311052E+03</pdfrwt>
<pdfrwt beam="2">  1       21 0.48503849E-01 0.23311052E+03</pdfrwt>
<totfact> 0.49596495E+04</totfact>
</mgrwt>
</event>
<event>
 4    3  0.3905963E+000  0.2258348E+03  0.7546771E-02  0.1129606E+00
         21   -1    0    0  501  502  0.00000000000E+00  0.00000000000E+00  0.17322572598E+03  0.17322572598E+03  0.00000000000E+00 0.  1.
         21   -1    0    0  502  503 -0.00000000000E+00 -0.00000000000E+00 -0.83140757077E+03  0.83140757077E+03  0.00000000000E+00 0.  1.
          6    1    1    2  501    0 -0.88127736614E+02 -0.11535112206E+03  0.74602889403E+02  0.23783811812E+03  0.17300000000E+03 0.  1.
         -6    1    1    2    0  503  0.88127736614E+02  0.11535112206E+03 -0.73278473418E+03  0.76679517863E+03  0.17300000000E+03 0.  1.
<mgrwt>
<rscale>  2 0.22583485E+03</rscale>
<asrwt>0</asrwt>
<pdfrwt beam="1">  1       21 0.26650112E-01 0.22583485E+03</pdfrwt>
<pdfrwt beam="2">  1       21 0.12790886E+00 0.22583485E+03</pdfrwt>
<totfact> 0.58844690E+03</totfact>
</mgrwt>
</event>
<event>
 4    3  0.3905963E+000  0.2087761E+03  0.7546771E-02  0.1142539E+00
         21   -1    0    0  503  502  0.00000000000E+00  0.00000000000E+00  0.13789183497E+03  0.13789183497E+03  0.00000000000E+00 0. -1.
         21   -1    0    0  501  503 -0.00000000000E+00 -0.00000000000E+00 -0.33162458017E+03  0.33162458017E+03  0.00000000000E+00 0. -1.
          6    1    1    2  501    0 -0.74176442774E+02  0.90312421019E+02 -0.14766133538E+03  0.25571732053E+03  0.17300000000E+03 0. -1.
         -6    1    1    2    0  502  0.74176442774E+02 -0.90312421019E+02 -0.46071409825E+02  0.21379909461E+03  0.17300000000E+03 0. -1.
<mgrwt>
<rscale>  2 0.20877614E+03</rscale>
<asrwt>0</asrwt>
<pdfrwt beam="1">  1       21 0.21214129E-01 0.20877614E+03</pdfrwt>
<pdfrwt beam="2">  1       21 0.51019166E-01 0.20877614E+03</pdfrwt>
<totfact> 0.74983240E+04</totfact>
</mgrwt>
</event>
<event>
 4    3  0.3905963E+000  0.2034500E+03  0.7546771E-02  0.1146860E+00
         21   -1    0    0  501  502  0.00000000000E+00  0.00000000000E+00  0.34662399704E+03  0.34662399704E+03  0.00000000000E+00 0.  1.
         21   -1    0    0  502  503 -0.00000000000E+00 -0.00000000000E+00 -0.34844354604E+03  0.34844354604E+03  0.00000000000E+00 0.  1.
          6    1    1    2  501    0 -0.99293467427E+02 -0.40046228370E+02  0.28084818124E+03  0.34679618508E+03  0.17300000000E+03 0.  1.
         -6    1    1    2    0  503  0.99293467427E+02  0.40046228370E+02 -0.28266773025E+03  0.34827135800E+03  0.17300000000E+03 0.  1.
<mgrwt>
<rscale>  2 0.20344998E+03</rscale>
<asrwt>0</asrwt>
<pdfrwt beam="1">  1       21 0.53326769E-01 0.20344998E+03</pdfrwt>
<pdfrwt beam="2">  1       21 0.53606699E-01 0.20344998E+03</pdfrwt>
<totfact> 0.10883077E+04</totfact>
</mgrwt>
</event>
<event>
 4    3  0.3905963E+000  0.2358483E+03  0.7546771E-02  0.1122590E+00
         21   -1    0    0  503  502  0.00000000000E+00  0.00000000000E+00  0.53985519974E+03  0.53985519974E+03  0.00000000000E+00 0.  1.
         21   -1    0    0  501  503 -0.00000000000E+00 -0.00000000000E+00 -0.17654819463E+03  0.17654819463E+03  0.00000000000E+00 0.  1.
          6    1    1    2  501    0 -0.12386388207E+03  0.10175048904E+03 -0.49487090927E+02  0.24098422245E+03  0.17300000000E+03 0.  1.
         -6    1    1    2    0  502  0.12386388207E+03 -0.10175048904E+03  0.41279409604E+03  0.47541917191E+03  0.17300000000E+03 0.  1.
<mgrwt>
<rscale>  2 0.23584831E+03</rscale>
<asrwt>0</asrwt>
<pdfrwt beam="1">  1       21 0.83054646E-01 0.23584831E+03</pdfrwt>
<pdfrwt beam="2">  1       21 0.27161261E-01 0.23584831E+03</pdfrwt>
<totfact> 0.15905936E+04</totfact>
</mgrwt>
</event>
<event>
 4    3  0.3905963E+000  0.1936519E+03  0.7546771E-02  0.1155208E+00
         21   -1    0    0  503  502  0.00000000000E+00  0.00000000000E+00  0.94328370248E+02  0.94328370248E+02  0.00000000000E+00 0. -1.
         21   -1    0    0  501  503 -0.00000000000E+00 -0.00000000000E+00 -0.49403580707E+03  0.49403580707E+03  0.00000000000E+00 0. -1.
          6    1    1    2  501    0  0.86922927302E+02 -0.40560298148E+01 -0.32985557936E+03  0.38249934628E+03  0.17300000000E+03 0. -1.
         -6    1    1    2    0  502 -0.86922927302E+02  0.40560298148E+01 -0.69851857466E+02  0.20586483104E+03  0.17300000000E+03 0. -1.
<mgrwt>
<rscale>  2 0.19365187E+03</rscale>
<asrwt>0</asrwt>
<pdfrwt beam="1">  1       21 0.14512057E-01 0.19365187E+03</pdfrwt>
<pdfrwt beam="2">  1       21 0.76005511E-01 0.19365187E+03</pdfrwt>
<totfact> 0.64267135E+04</totfact>
</mgrwt>
</event>
<event>
 4    3  0.3905963E+000  0.2109221E+03  0.7546771E-02  0.1140838E+00
         21   -1    0    0  501  502  0.00000000000E+00  0.00000000000E+00  0.86310681259E+02  0.86310681259E+02  0.00000000000E+00 0. -1.
         21   -1    0    0  502  503 -0.00000000000E+00 -0.00000000000E+00 -0.51557338944E+03  0.51557338944E+03  0.00000000000E+00 0. -1.
          6    1    1    2  501    0 -0.12043602839E+03  0.73675947338E+01 -0.20982046219E+03  0.29751091533E+03  0.17300000000E+03 0. -1.
         -6    1    1    2    0  503  0.12043602839E+03 -0.73675947338E+01 -0.21944224599E+03  0.30437315537E+03  0.17300000000E+03 0. -1.
<mgrwt>
<rscale>  2 0.21092207E+03</rscale>
<asrwt>0</asrwt>
<pdfrwt beam="1">  1       21 0.13278567E-01 0.21092207E+03</pdfrwt>
<pdfrwt beam="2">  1       21 0.79318982E-01 0.21092207E+03</pdfrwt>
<totfact> 0.68029973E+04</totfact>
</mgrwt>
</event>
<event>
 4    3  0.3905963E+000  0.1736875E+03  0.7546771E-02  0.1174056E+00
         21   -1    0    0  501  502  0.00000000000E+00  0.00000000000E+00  0.32670363486E+03  0.32670363486E+03  0.00000000000E+00 0. -1.
         21   -1    0    0  502  503 -0.00000000000E+00 -0.00000000000E+00 -0.11246688870E+03  0.11246688870E+03  0.00000000000E+00 0. -1.
          6    1    1    2  501    0 -0.12320537722E+02 -0.93026043304E+01  0.20001394339E+03  0.26490170186E+03  0.17300000000E+03 0.  1.
         -6    1    1    2    0  503  0.12320537722E+02  0.93026043304E+01  0.14222802775E+02  0.17426882170E+03  0.17300000000E+03 0.  1.
<mgrwt>
<rscale>  2 0.17368746E+03</rscale>
<asrwt>0</asrwt>
<pdfrwt beam="1">  1       21 0.50262097E-01 0.17368746E+03</pdfrwt>
<pdfrwt beam="2">  1       21 0.17302598E-01 0.17368746E+03</pdfrwt>
<totfact> 0.11461819E+05</totfact>
</mgrwt>
</event>
<event>
 4    3  0.3905963E+000  0.2164208E+03  0.7546771E-02  0.1136580E+00
         21   -1    0    0  503  502  0.00000000000E+00  0.00000000000E+00  0.17552546098E+04  0.17552546098E+04  0.00000000000E+00 0.  1.
         21   -1    0    0  501  503 -0.00000000000E+00 -0.00000000000E+00 -0.65724789168E+02  0.65724789168E+02  0.00000000000E+00 0.  1.
          6    1    1    2  501    0 -0.10090889006E+03  0.82014321909E+02  0.14303920129E+03  0.25941890100E+03  0.17300000000E+03 0.  1.
         -6    1    1    2    0  502  0.10090889006E+03 -0.82014321909E+02  0.15464906193E+04  0.15615604979E+04  0.17300000000E+03 0.  1.
<mgrwt>
<rscale>  2 0.21642078E+03</rscale>
<asrwt>0</asrwt>
<pdfrwt beam="1">  1       21 0.27003913E+00 0.21642078E+03</pdfrwt>
<pdfrwt beam="2">  1       21 0.10111507E-01 0.21642078E+03</pdfrwt>
<totfact> 0.39418035E+03</totfact>
</mgrwt>
</event>
<event>
 4    3  0.3905963E+000  0.2035275E+03  0.7546771E-02  0.1146797E+00
         21   -1    0    0  503  502  0.00000000000E+00  0.00000000000E+00  0.24769163711E+03  0.24769163711E+03  0.00000000000E+00 0. -1.
         21   -1    0    0  501  503 -0.00000000000E+00 -0.00000000000E+00 -0.17366538418E+03  0.17366538418E+03  0.00000000000E+00 0. -1.
          6    1    1    2  501    0 -0.11008088336E+02  0.10664550689E+03 -0.35174103822E+01  0.20355788937E+03  0.17300000000E+03 0. -1.
         -6    1    1    2    0  502  0.11008088336E+02 -0.10664550689E+03  0.77543663304E+02  0.21779913192E+03  0.17300000000E+03 0. -1.
<mgrwt>
<rscale>  2 0.20352750E+03</rscale>
<asrwt>0</asrwt>
<pdfrwt beam="1">  1       21 0.38106406E-01 0.20352750E+03</pdfrwt>
<pdfrwt beam="2">  1       21 0.26717751E-01 0.20352750E+03</pdfrwt>
<totfact> 0.88166956E+04</totfact>
</mgrwt>
</event>
<event>
 4    3  0.3905963E+000  0.1894005E+03  0.7546771E-02  0.1159003E+00
         21   -1    0    0  503  502  0.00000000000E+00  0.00000000000E+00  0.56913132228E+03  0.56913132228E+03  0.00000000000E+00 0.  1.
         21   -1    0    0  501  503 -0.00000000000E+00 -0.00000000000E+00 -0.64928715308E+02  0.64928715308E+02  0.00000000000E+00 0.  1.
          6    1    1    2  501    0  0.29714066940E+01 -0.77037207504E+02  0.30631000820E+03  0.36013661536E+03  0.17300000000E+03 0.  1.
         -6    1    1    2    0  502 -0.29714066940E+01  0.77037207504E+02  0.19789259877E+03  0.27392342223E+03  0.17300000000E+03 0.  1.
<mgrwt>
<rscale>  2 0.18940053E+03</rscale>
<asrwt>0</asrwt>
<pdfrwt beam="1">  1       21 0.87558662E-01 0.18940053E+03</pdfrwt>
<pdfrwt beam="2">  1       21 0.99890335E-02 0.18940053E+03</pdfrwt>
<totfact> 0.91135101E+04</totfact>
</mgrwt>
</event>
<event>
 4    3  0.3905963E+000  0.2587323E+03  0.7546771E-02  0.1107907E+00
         21   -1    0    0  503  502  0.00000000000E+00  0.00000000000E+00  0.53682698898E+03  0.53682698898E+03  0.00000000000E+00 0.  1.
         21   -1    0    0  501  503 -0.00000000000E+00 -0.00000000000E+00 -0.14771468962E+03  0.14771468962E+03  0.00000000000E+00 0.  1.
          6    1    1    2  501    0 -0.90099602366E+02  0.16998667030E+03  0.32965734638E+03  0.41906607170E+03  0.17300000000E+03 0.  1.
         -6    1    1    2    0  502  0.90099602366E+02 -0.16998667030E+03  0.59454952979E+02  0.26547560690E+03  0.17300000000E+03 0.  1.
<mgrwt>
<rscale>  2 0.25873231E+03</rscale>
<asrwt>0</asrwt>
<pdfrwt beam="1">  1       21 0.82588766E-01 0.25873231E+03</pdfrwt>
<pdfrwt beam="2">  1       21 0.22725337E-01 0.25873231E+03</pdfrwt>
<totfact> 0.22430397E+04</totfact>
</mgrwt>
</event>
<event>
 4    3  0.3905963E+000  0.2335939E+03  0.7546771E-02  0.1124135E+00
         21   -1    0    0  503  502  0.00000000000E+00  0.00000000000E+00  0.35924342252E+03  0.35924342252E+03  0.00000000000E+00 0.  1.
         21   -1    0    0  501  503 -0.00000000000E+00 -0.00000000000E+00 -0.16657821276E+03  0.16657821276E+03  0.00000000000E+00 0. -1.
          6    1    1    2  501    0 -0.10307942006E+03  0.11837122696E+03  0.18267333277E+02  0.23430708414E+03  0.17300000000E+03 0. -1.
         -6    1    1    2    0  502  0.10307942006E+03 -0.11837122696E+03  0.17439787648E+03  0.29151455115E+03  0.17300000000E+03 0.  1.
<mgrwt>
<rscale>  2 0.23359391E+03</rscale>
<asrwt>0</asrwt>
<pdfrwt beam="1">  1       21 0.55268219E-01 0.23359391E+03</pdfrwt>
<pdfrwt beam="2">  1       21 0.25627417E-01 0.23359391E+03</pdfrwt>
<totfact> 0.43734461E+04</totfact>
</mgrwt>
</event>
<event>
 4    3  0.3905963E+000  0.1955593E+03  0.7546771E-02  0.1153541E+00
         21   -1    0    0  503  502  0.00000000000E+00  0.00000000000E+00  0.93352508921E+02  0.93352508921E+02  0.00000000000E+00 0. -1.
         21   -1    0    0  501  503 -0.00000000000E+00 -0.00000000000E+00 -0.56676656204E+03  0.56676656204E+03  0.00000000000E+00 0. -1.
          6    1    1    2  501    0  0.90838483093E+02 -0.79249130612E+01 -0.41047821846E+03  0.45468208904E+03  0.17300000000E+03 0. -1.
         -6    1    1    2    0  502 -0.90838483093E+02  0.79249130612E+01 -0.62935834655E+02  0.20543698192E+03  0.17300000000E+03 0. -1.
<mgrwt>
<rscale>  2 0.19555929E+03</rscale>
<asrwt>0</asrwt>
<pdfrwt beam="1">  1       21 0.14361924E-01 0.19555929E+03</pdfrwt>
<pdfrwt beam="2">  1       21 0.87194857E-01 0.19555929E+03</pdfrwt>
<totfact> 0.47911759E+04</totfact>
</mgrwt>
</event>
<event>
 4    3  0.3905963E+000  0.2132555E+03  0.7546771E-02  0.1139014E+00
         21   -1    0    0  501  502  0.00000000000E+00  0.00000000000E+00  0.24800190191E+03  0.24800190191E+03  0.00000000000E+00 0.  1.
         21   -1    0    0  502  503 -0.00000000000E+00 -0.00000000000E+00 -0.21506997046E+03  0.21506997046E+03  0.00000000000E+00 0. -1.
          6    1    1    2  501    0  0.10328994953E+03 -0.69857760353E+02 -0.72414823716E+02  0.22521506843E+03  0.17300000000E+03 0. -1.
         -6    1    1    2    0  503 -0.10328994953E+03  0.69857760353E+02  0.10534675516E+03  0.23785680394E+03  0.17300000000E+03 0.  1.
<mgrwt>
<rscale>  2 0.21325553E+03</rscale>
<asrwt>0</asrwt>
<pdfrwt beam="1">  1       21 0.38154139E-01 0.21325553E+03</pdfrwt>
<pdfrwt beam="2">  1       21 0.33087688E-01 0.21325553E+03</pdfrwt>
<totfact> 0.57707390E+04</totfact>
</mgrwt>
</event>
<event>
 4    3  0.3905963E+000  0.1941958E+03  0.7546771E-02  0.1154730E+00
         21   -1    0    0  501  502  0.00000000000E+00  0.00000000000E+00  0.20390406985E+02  0.20390406985E+02  0.00000000000E+00 0.  1.
         21   -1    0    0  502  503 -0.00000000000E+00 -0.00000000000E+00 -0.18498818103E+04  0.18498818103E+04  0.00000000000E+00 0. -1.
          6    1    1    2  501    0 -0.31868011670E+02  0.82264558569E+02 -0.90128522114E+03  0.92196913051E+03  0.17300000000E+03 0. -1.
         -6    1    1    2    0  503  0.31868011670E+02 -0.82264558569E+02 -0.92820618219E+03  0.94830308679E+03  0.17300000000E+03 0.  1.
<mgrwt>
<rscale>  2 0.19419585E+03</rscale>
<asrwt>0</asrwt>
<pdfrwt beam="1">  1       21 0.31369846E-02 0.19419585E+03</pdfrwt>
<pdfrwt beam="2">  1       21 0.28459730E+00 0.19419585E+03</pdfrwt>
<totfact> 0.24566688E+04</totfact>
</mgrwt>
</event>
<event>
 4    3  0.3905963E+000  0.3697683E+03  0.7546771E-02  0.1054782E+00
         21   -1    0    0  503  502  0.00000000000E+00  0.00000000000E+00  0.11646192123E+04  0.11646192123E+04  0.00000000000E+00 0. -1.
         21   -1    0    0  501  503 -0.00000000000E+00 -0.00000000000E+00 -0.27311969080E+03  0.27311969080E+03  0.00000000000E+00 0. -1.
          6    1    1    2  501    0  0.55631222971E+02  0.32203225065E+03 -0.97053596949E+02  0.38229308666E+03  0.17300000000E+03 0. -1.
         -6    1    1    2    0  502 -0.55631222971E+02 -0.32203225065E+03  0.98855311840E+03  0.10554458164E+04  0.17300000000E+03 0. -1.
<mgrwt>
<rscale>  2 0.36976831E+03</rscale>
<asrwt>0</asrwt>
<pdfrwt beam="1">  1       21 0.17917218E+00 0.36976831E+03</pdfrwt>
<pdfrwt beam="2">  1       21 0.42018415E-01 0.36976831E+03</pdfrwt>
<totfact> 0.87511904E+02</totfact>
</mgrwt>
</event>
<event>
 4    3  0.3905963E+000  0.2369206E+03  0.7546771E-02  0.1121861E+00
         21   -1    0    0  503  502  0.00000000000E+00  0.00000000000E+00  0.67612852453E+03  0.67612852453E+03  0.00000000000E+00 0. -1.
         21   -1    0    0  501  503 -0.00000000000E+00 -0.00000000000E+00 -0.84931704755E+02  0.84931704755E+02  0.00000000000E+00 0. -1.
          6    1    1    2  501    0  0.15231722468E+03 -0.54789011285E+02  0.23848977194E+03  0.33616773196E+03  0.17300000000E+03 0. -1.
         -6    1    1    2    0  502 -0.15231722468E+03  0.54789011285E+02  0.35270704784E+03  0.42489249733E+03  0.17300000000E+03 0. -1.
<mgrwt>
<rscale>  2 0.23692060E+03</rscale>
<asrwt>0</asrwt>
<pdfrwt beam="1">  1       21 0.10401977E+00 0.23692060E+03</pdfrwt>
<pdfrwt beam="2">  1       21 0.13066417E-01 0.23692060E+03</pdfrwt>
<totfact> 0.36783358E+04</totfact>
</mgrwt>
</event>
<event>
 4    3  0.3905963E+000  0.2025507E+03  0.7546771E-02  0.1147605E+00
         21   -1    0    0  503  502  0.00000000000E+00  0.00000000000E+00  0.84656460763E+02  0.84656460763E+02  0.00000000000E+00 0. -1.
         21   -1    0    0  501  503 -0.00000000000E+00 -0.00000000000E+00 -0.84671716536E+03  0.84671716536E+03  0.00000000000E+00 0. -1.
          6    1    1    2  501    0 -0.78919478057E+02 -0.69781709207E+02 -0.68556266115E+03  0.71485868066E+03  0.17300000000E+03 0. -1.
         -6    1    1    2    0  502  0.78919478057E+02  0.69781709207E+02 -0.76498043448E+02  0.21651494546E+03  0.17300000000E+03 0. -1.
<mgrwt>
<rscale>  2 0.20255066E+03</rscale>
<asrwt>0</asrwt>
<pdfrwt beam="1">  1       21 0.13024071E-01 0.20255066E+03</pdfrwt>
<pdfrwt beam="2">  1       21 0.13026418E+00 0.20255066E+03</pdfrwt>
<totfact> 0.21649217E+04</totfact>
</mgrwt>
</event>
<event>
 4    3  0.3905963E+000  0.3737193E+03  0.7546771E-02  0.1053280E+00
         21   -1    0    0  503  502  0.00000000000E+00  0.00000000000E+00  0.93208011980E+02  0.93208011980E+02  0.00000000000E+00 0.  1.
         21   -1    0    0  501  503 -0.00000000000E+00 -0.00000000000E+00 -0.15794683471E+04  0.15794683471E+04  0.00000000000E+00 0. -1.
          6    1    1    2  501    0 -0.26704619419E+03 -0.19601895256E+03 -0.93256495007E+03  0.10046608809E+04  0.17300000000E+03 0.  1.
         -6    1    1    2    0  502  0.26704619419E+03  0.19601895256E+03 -0.55369538503E+03  0.66801547811E+03  0.17300000000E+03 0. -1.
<mgrwt>
<rscale>  2 0.37371928E+03</rscale>
<asrwt>0</asrwt>
<pdfrwt beam="1">  1       21 0.14339694E-01 0.37371928E+03</pdfrwt>
<pdfrwt beam="2">  1       21 0.24299512E+00 0.37371928E+03</pdfrwt>
<totfact> 0.27101214E+03</totfact>
</mgrwt>
</event>
<event>
 4    3  0.3905963E+000  0.1784139E+03  0.7546771E-02  0.1169347E+00
         21   -1    0    0  503  502  0.00000000000E+00  0.00000000000E+00  0.26823759449E+03  0.26823759449E+03  0.00000000000E+00 0. -1.
         21   -1    0    0  501  503 -0.00000000000E+00 -0.00000000000E+00 -0.12417921770E+03  0.12417921770E+03  0.00000000000E+00 0. -1.
          6    1    1    2  501    0  0.23143350862E+02  0.36971510905E+02  0.30698317182E+02  0.18103561524E+03  0.17300000000E+03 0. -1.
         -6    1    1    2    0  502 -0.23143350862E+02 -0.36971510905E+02  0.11336005961E+03  0.21138119695E+03  0.17300000000E+03 0. -1.
<mgrwt>
<rscale>  2 0.17841387E+03</rscale>
<asrwt>0</asrwt>
<pdfrwt beam="1">  1       21 0.41267322E-01 0.17841387E+03</pdfrwt>
<pdfrwt beam="2">  1       21 0.19104495E-01 0.17841387E+03</pdfrwt>
<totfact> 0.14283540E+05</totfact>
</mgrwt>
</event>
<event>
 4    3  0.3905963E+000  0.1996846E+03  0.7546771E-02  0.1150005E+00
         21   -1    0    0  501  502  0.00000000000E+00  0.00000000000E+00  0.52079231245E+03  0.52079231245E+03  0.00000000000E+00 0. -1.
         21   -1    0    0  502  503 -0.00000000000E+00 -0.00000000000E+00 -0.78745154641E+02  0.78745154641E+02  0.00000000000E+00 0.  1.
          6    1    1    2  501    0  0.33467533851E+02 -0.93940775034E+02  0.27091400098E+03  0.33655362272E+03  0.17300000000E+03 0.  1.
         -6    1    1    2    0  503 -0.33467533851E+02  0.93940775034E+02  0.17113315682E+03  0.26298384437E+03  0.17300000000E+03 0.  1.
<mgrwt>
<rscale>  2 0.19968461E+03</rscale>
<asrwt>0</asrwt>
<pdfrwt beam="1">  1       21 0.80121892E-01 0.19968461E+03</pdfrwt>
<pdfrwt beam="2">  1       21 0.12114640E-01 0.19968461E+03</pdfrwt>
<totfact> 0.78826501E+04</totfact>
</mgrwt>
</event>
<event>
 4    3  0.3905963E+000  0.2290183E+03  0.7546771E-02  0.1127333E+00
         21   -1    0    0  503  502  0.00000000000E+00  0.00000000000E+00  0.25327667080E+04  0.25327667080E+04  0.00000000000E+00 0.  1.
         21   -1    0    0  501  503 -0.00000000000E+00 -0.00000000000E+00 -0.20719183382E+02  0.20719183382E+02  0.00000000000E+00 0. -1.
          6    1    1    2  501    0 -0.11398150073E+03 -0.97614488121E+02  0.12268035138E+04  0.12479968879E+04  0.17300000000E+03 0. -1.
         -6    1    1    2    0  502  0.11398150073E+03  0.97614488121E+02  0.12852440109E+04  0.13054890035E+04  0.17300000000E+03 0.  1.
<mgrwt>
<rscale>  2 0.22901828E+03</rscale>
<asrwt>0</asrwt>
<pdfrwt beam="1">  1       21 0.38965617E+00 0.22901828E+03</pdfrwt>
<pdfrwt beam="2">  1       21 0.31875687E-02 0.22901828E+03</pdfrwt>
<totfact> 0.55226185E+03</totfact>
</mgrwt>
</event>
<event>
 4    3  0.3905963E+000  0.2241158E+03  0.7546771E-02  0.1130851E+00
         21   -1    0    0  501  502  0.00000000000E+00  0.00000000000E+00  0.43241796500E+03  0.43241796500E+03  0.00000000000E+00 0.  1.
         21   -1    0    0  502  503 -0.00000000000E+00 -0.00000000000E+00 -0.17290741762E+03  0.17290741762E+03  0.00000000000E+00 0.  1.
          6    1    1    2  501    0 -0.14240022712E+03 -0.45897325225E+01  0.30315199611E+03  0.37700003060E+03  0.17300000000E+03 0.  1.
         -6    1    1    2    0  503  0.14240022712E+03  0.45897325225E+01 -0.43641448726E+02  0.22832535202E+03  0.17300000000E+03 0.  1.
<mgrwt>
<rscale>  2 0.22411580E+03</rscale>
<asrwt>0</asrwt>
<pdfrwt beam="1">  1       21 0.66525841E-01 0.22411580E+03</pdfrwt>
<pdfrwt beam="2">  1       21 0.26601141E-01 0.22411580E+03</pdfrwt>
<totfact> 0.27392282E+04</totfact>
</mgrwt>
</event>
<event>
 4    3  0.3905963E+000  0.1745369E+03  0.7546771E-02  0.1173197E+00
         21   -1    0    0  501  502  0.00000000000E+00  0.00000000000E+00  0.54236634576E+02  0.54236634576E+02  0.00000000000E+00 0. -1.
         21   -1    0    0  502  503 -0.00000000000E+00 -0.00000000000E+00 -0.57401201466E+03  0.57401201466E+03  0.00000000000E+00 0. -1.
          6    1    1    2  501    0  0.22560058700E+02 -0.50184688412E+01 -0.21382835686E+03  0.27601758545E+03  0.17300000000E+03 0. -1.
         -6    1    1    2    0  503 -0.22560058700E+02  0.50184688412E+01 -0.30594702322E+03  0.35223106379E+03  0.17300000000E+03 0. -1.
<mgrwt>
<rscale>  2 0.17453693E+03</rscale>
<asrwt>0</asrwt>
<pdfrwt beam="1">  1       21 0.83440972E-02 0.17453693E+03</pdfrwt>
<pdfrwt beam="2">  1       21 0.88309546E-01 0.17453693E+03</pdfrwt>
<totfact> 0.12323603E+05</totfact>
</mgrwt>
</event>
<event>
 4    3  0.3905963E+000  0.2192562E+03  0.7546771E-02  0.1134439E+00
         21   -1    0    0  503  502  0.00000000000E+00  0.00000000000E+00  0.29143511177E+02  0.29143511177E+02  0.00000000000E+00 0.  1.
         21   -1    0    0  501  503 -0.00000000000E+00 -0.00000000000E+00 -0.22303713853E+04  0.22303713853E+04  0.00000000000E+00 0.  1.
          6    1    1    2  501    0 -0.11296036957E+03 -0.73377370149E+02 -0.16771453713E+04  0.16914165306E+04  0.17300000000E+03 0.  1.
         -6    1    1    2    0  502  0.11296036957E+03  0.73377370149E+02 -0.52408250290E+03  0.56809836594E+03  0.17300000000E+03 0.  1.
<mgrwt>
<rscale>  2 0.21925621E+03</rscale>
<asrwt>0</asrwt>
<pdfrwt beam="1">  1       21 0.44836162E-02 0.21925621E+03</pdfrwt>
<pdfrwt beam="2">  1       21 0.34313413E+00 0.21925621E+03</pdfrwt>
<totfact> 0.60175749E+03</totfact>
</mgrwt>
</event>
<event>
 4    3  0.3905963E+000  0.2108443E+03  0.7546771E-02  0.1140899E+00
         21   -1    0    0  503  502  0.00000000000E+00  0.00000000000E+00  0.94946296744E+03  0.94946296744E+03  0.00000000000E+00 0. -1.
         21   -1    0    0  501  503 -0.00000000000E+00 -0.00000000000E+00 -0.24410738793E+03  0.24410738793E+03  0.00000000000E+00 0.  1.
          6    1    1    2  501    0  0.47762384183E+02 -0.11065742095E+03 -0.18382939477E+03  0.27972943452E+03  0.17300000000E+03 0.  1.
         -6    1    1    2    0  502 -0.47762384183E+02  0.11065742095E+03  0.88918497428E+03  0.91384092086E+03  0.17300000000E+03 0. -1.
<mgrwt>
<rscale>  2 0.21084428E+03</rscale>
<asrwt>0</asrwt>
<pdfrwt beam="1">  1       21 0.14607122E+00 0.21084428E+03</pdfrwt>
<pdfrwt beam="2">  1       21 0.37554983E-01 0.21084428E+03</pdfrwt>
<totfact> 0.21548497E+03</totfact>
</mgrwt>
</event>
<event>
 4    3  0.3905963E+000  0.2439143E+03  0.7546771E-02  0.1117212E+00
         21   -1    0    0  503  502  0.00000000000E+00  0.00000000000E+00  0.10566772433E+04  0.10566772433E+04  0.00000000000E+00 0.  1.
         21   -1    0    0  501  503 -0.00000000000E+00 -0.00000000000E+00 -0.85578946505E+02  0.85578946505E+02  0.00000000000E+00 0. -1.
          6    1    1    2  501    0  0.14111989027E+03 -0.98236291011E+02  0.15150422743E+03  0.28713711573E+03  0.17300000000E+03 0. -1.
         -6    1    1    2    0  502 -0.14111989027E+03  0.98236291011E+02  0.81959406933E+03  0.85511907404E+03  0.17300000000E+03 0. -1.
<mgrwt>
<rscale>  2 0.24391431E+03</rscale>
<asrwt>0</asrwt>
<pdfrwt beam="1">  1       21 0.16256572E+00 0.24391431E+03</pdfrwt>
<pdfrwt beam="2">  1       21 0.13165993E-01 0.24391431E+03</pdfrwt>
<totfact> 0.11559584E+04</totfact>
</mgrwt>
</event>
<event>
 4    3  0.3905963E+000  0.2088949E+03  0.7546771E-02  0.1142444E+00
         21   -1    0    0  501  502  0.00000000000E+00  0.00000000000E+00  0.94066883173E+03  0.94066883173E+03  0.00000000000E+00 0. -1.
         21   -1    0    0  502  503 -0.00000000000E+00 -0.00000000000E+00 -0.47820008646E+02  0.47820008646E+02  0.00000000000E+00 0.  1.
          6    1    1    2  501    0  0.10949813387E+03 -0.41451426775E+02  0.53191089833E+03  0.57145976749E+03  0.17300000000E+03 0. -1.
         -6    1    1    2    0  503 -0.10949813387E+03  0.41451426775E+02  0.36093792476E+03  0.41702907289E+03  0.17300000000E+03 0.  1.
<mgrwt>
<rscale>  2 0.20889486E+03</rscale>
<asrwt>0</asrwt>
<pdfrwt beam="1">  1       21 0.14471827E+00 0.20889486E+03</pdfrwt>
<pdfrwt beam="2">  1       21 0.73569251E-02 0.20889486E+03</pdfrwt>
<totfact> 0.45153151E+04</totfact>
</mgrwt>
</event>
<event>
 4    3  0.3905963E+000  0.1818630E+03  0.7546771E-02  0.1166012E+00
         21   -1    0    0  503  502  0.00000000000E+00  0.00000000000E+00  0.13568128028E+04  0.13568128028E+04  0.00000000000E+00 0.  1.
         21   -1    0    0  501  503 -0.00000000000E+00 -0.00000000000E+00 -0.27587408346E+02  0.27587408346E+02  0.00000000000E+00 0.  1.
          6    1    1    2  501    0  0.44468180495E+02 -0.34171827530E+02  0.42845568213E+03  0.46545505092E+03  0.17300000000E+03 0.  1.
         -6    1    1    2    0  502 -0.44468180495E+02  0.34171827530E+02  0.90076971235E+03  0.91894516026E+03  0.17300000000E+03 0.  1.
<mgrwt>
<rscale>  2 0.18186295E+03</rscale>
<asrwt>0</asrwt>
<pdfrwt beam="1">  1       21 0.20874038E+00 0.18186295E+03</pdfrwt>
<pdfrwt beam="2">  1       21 0.42442177E-02 0.18186295E+03</pdfrwt>
<totfact> 0.42236752E+04</totfact>
</mgrwt>
</event>
<event>
 4    3  0.3905963E+000  0.2111341E+03  0.7546771E-02  0.1140671E+00
         21   -1    0    0  501  502  0.00000000000E+00  0.00000000000E+00  0.99252273644E+02  0.99252273644E+02  0.00000000000E+00 0. -1.
         21   -1    0    0  502  503 -0.00000000000E+00 -0.00000000000E+00 -0.19217505265E+04  0.19217505265E+04  0.00000000000E+00 0. -1.
          6    1    1    2  501    0  0.94615566131E+02  0.75475070984E+02 -0.26677063703E+02  0.21281272852E+03  0.17300000000E+03 0. -1.
         -6    1    1    2    0  503 -0.94615566131E+02 -0.75475070984E+02 -0.17958211891E+04  0.18081900716E+04  0.17300000000E+03 0. -1.
<mgrwt>
<rscale>  2 0.21113406E+03</rscale>
<asrwt>0</asrwt>
<pdfrwt beam="1">  1       21 0.15269581E-01 0.21113406E+03</pdfrwt>
<pdfrwt beam="2">  1       21 0.29565391E+00 0.21113406E+03</pdfrwt>
<totfact> 0.13416923E+03</totfact>
</mgrwt>
</event>
<event>
 4    3  0.3905963E+000  0.1797376E+03  0.7546771E-02  0.1168057E+00
         21   -1    0    0  503  502  0.00000000000E+00  0.00000000000E+00  0.10342762911E+03  0.10342762911E+03  0.00000000000E+00 0. -1.
         21   -1    0    0  501  503 -0.00000000000E+00 -0.00000000000E+00 -0.67362566232E+03  0.67362566232E+03  0.00000000000E+00 0. -1.
          6    1    1    2  501    0  0.26152372414E+02 -0.41142080646E+02 -0.56718157457E+00  0.17973852975E+03  0.17300000000E+03 0. -1.
         -6    1    1    2    0  502 -0.26152372414E+02  0.41142080646E+02 -0.56963085163E+03  0.59731476167E+03  0.17300000000E+03 0. -1.
<mgrwt>
<rscale>  2 0.17973763E+03</rscale>
<asrwt>0</asrwt>
<pdfrwt beam="1">  1       21 0.15911943E-01 0.17973763E+03</pdfrwt>
<pdfrwt beam="2">  1       21 0.10363472E+00 0.17973763E+03</pdfrwt>
<totfact> 0.26755422E+04</totfact>
</mgrwt>
</event>
<event>
 4    3  0.3905963E+000  0.1802382E+03  0.7546771E-02  0.1167573E+00
         21   -1    0    0  503  502  0.00000000000E+00  0.00000000000E+00  0.22968852183E+03  0.22968852183E+03  0.00000000000E+00 0. -1.
         21   -1    0    0  501  503 -0.00000000000E+00 -0.00000000000E+00 -0.74042284617E+03  0.74042284617E+03  0.00000000000E+00 0. -1.
          6    1    1    2  501    0 -0.75144428144E+01  0.50003536646E+02 -0.69164281299E+03  0.71474163254E+03  0.17300000000E+03 0. -1.
         -6    1    1    2    0  502  0.75144428144E+01 -0.50003536646E+02  0.18090848864E+03  0.25536973546E+03  0.17300000000E+03 0. -1.
<mgrwt>
<rscale>  2 0.18023823E+03</rscale>
<asrwt>0</asrwt>
<pdfrwt beam="1">  1       21 0.35336696E-01 0.18023823E+03</pdfrwt>
<pdfrwt beam="2">  1       21 0.11391121E+00 0.18023823E+03</pdfrwt>
<totfact> 0.46804908E+03</totfact>
</mgrwt>
</event>
<event>
 4    3  0.3905963E+000  0.2502830E+03  0.7546771E-02  0.1113126E+00
         21   -1    0    0  503  502  0.00000000000E+00  0.00000000000E+00  0.39581465196E+03  0.39581465196E+03  0.00000000000E+00 0. -1.
         21   -1    0    0  501  503 -0.00000000000E+00 -0.00000000000E+00 -0.16448371936E+03  0.16448371936E+03  0.00000000000E+00 0.  1.
          6    1    1    2  501    0 -0.11492733557E+03  0.13965775569E+03  0.61170432210E+02  0.25764976802E+03  0.17300000000E+03 0.  1.
         -6    1    1    2    0  502  0.11492733557E+03 -0.13965775569E+03  0.17016050039E+03  0.30264860330E+03  0.17300000000E+03 0. -1.
<mgrwt>
<rscale>  2 0.25028300E+03</rscale>
<asrwt>0</asrwt>
<pdfrwt beam="1">  1       21 0.60894562E-01 0.25028300E+03</pdfrwt>
<pdfrwt beam="2">  1       21 0.25305188E-01 0.25028300E+03</pdfrwt>
<totfact> 0.36130138E+04</totfact>
</mgrwt>
</event>
<event>
 4    3  0.3905963E+000  0.1764075E+03  0.7546771E-02  0.1171326E+00
         21   -1    0    0  503  502  0.00000000000E+00  0.00000000000E+00  0.89162479852E+02  0.89162479852E+02  0.00000000000E+00 0.  1.
         21   -1    0    0  501  503 -0.00000000000E+00 -0.00000000000E+00 -0.39801911860E+03  0.39801911860E+03  0.00000000000E+00 0.  1.
          6    1    1    2  501    0  0.34315666764E+02 -0.36096003402E+01 -0.23989519041E+03  0.29777390178E+03  0.17300000000E+03 0.  1.
         -6    1    1    2    0  502 -0.34315666764E+02  0.36096003402E+01 -0.68961448333E+02  0.18940769667E+03  0.17300000000E+03 0.  1.
<mgrwt>
<rscale>  2 0.17640747E+03</rscale>
<asrwt>0</asrwt>
<pdfrwt beam="1">  1       21 0.13717304E-01 0.17640747E+03</pdfrwt>
<pdfrwt beam="2">  1       21 0.61233711E-01 0.17640747E+03</pdfrwt>
<totfact> 0.11511241E+05</totfact>
</mgrwt>
</event>
<event>
 4    3  0.3905963E+000  0.1860818E+03  0.7546771E-02  0.1162044E+00
         21   -1    0    0  503  502  0.00000000000E+00  0.00000000000E+00  0.10660166483E+03  0.10660166483E+03  0.00000000000E+00 0.  1.
         21   -1    0    0  501  503 -0.00000000000E+00 -0.00000000000E+00 -0.96649458007E+03  0.96649458007E+03  0.00000000000E+00 0.  1.
          6    1    1    2  501    0 -0.50351377083E+02 -0.46499048526E+02 -0.86713237456E+03  0.88687371012E+03  0.17300000000E+03 0.  1.
         -6    1    1    2    0  502  0.50351377083E+02  0.46499048526E+02  0.72394593221E+01  0.18622253478E+03  0.17300000000E+03 0.  1.
<mgrwt>
<rscale>  2 0.18608176E+03</rscale>
<asrwt>0</asrwt>
<pdfrwt beam="1">  1       21 0.16400256E-01 0.18608176E+03</pdfrwt>
<pdfrwt beam="2">  1       21 0.14869147E+00 0.18608176E+03</pdfrwt>
<totfact> 0.10243629E+04</totfact>
</mgrwt>
</event>
<event>
 4    3  0.3905963E+000  0.2104006E+03  0.7546771E-02  0.1141249E+00
         21   -1    0    0  501  502  0.00000000000E+00  0.00000000000E+00  0.62907889100E+03  0.62907889100E+03  0.00000000000E+00 0.  1.
         21   -1    0    0  502  503 -0.00000000000E+00 -0.00000000000E+00 -0.11871069162E+03  0.11871069162E+03  0.00000000000E+00 0.  1.
          6    1    1    2  501    0 -0.10217841462E+03 -0.62441727784E+02  0.49377841793E+03  0.53673599077E+03  0.17300000000E+03 0.  1.
         -6    1    1    2    0  503  0.10217841462E+03  0.62441727784E+02  0.16589781456E+02  0.21105359185E+03  0.17300000000E+03 0.  1.
<mgrwt>
<rscale>  2 0.21040057E+03</rscale>
<asrwt>0</asrwt>
<pdfrwt beam="1">  1       21 0.96781366E-01 0.21040057E+03</pdfrwt>
<pdfrwt beam="2">  1       21 0.18263184E-01 0.21040057E+03</pdfrwt>
<totfact> 0.23986343E+04</totfact>
</mgrwt>
</event>
<event>
 4    3  0.3905963E+000  0.2424934E+03  0.7546771E-02  0.1118143E+00
         21   -1    0    0  503  502  0.00000000000E+00  0.00000000000E+00  0.42294136374E+03  0.42294136374E+03  0.00000000000E+00 0. -1.
         21   -1    0    0  501  503 -0.00000000000E+00 -0.00000000000E+00 -0.22673171663E+03  0.22673171663E+03  0.00000000000E+00 0.  1.
          6    1    1    2  501    0  0.49540380921E+02 -0.16254172090E+03 -0.10391959783E+03  0.26382256004E+03  0.17300000000E+03 0.  1.
         -6    1    1    2    0  502 -0.49540380921E+02  0.16254172090E+03  0.30012924494E+03  0.38585052033E+03  0.17300000000E+03 0. -1.
<mgrwt>
<rscale>  2 0.24249342E+03</rscale>
<asrwt>0</asrwt>
<pdfrwt beam="1">  1       21 0.65067902E-01 0.24249342E+03</pdfrwt>
<pdfrwt beam="2">  1       21 0.34881803E-01 0.24249342E+03</pdfrwt>
<totfact> 0.16739682E+04</totfact>
</mgrwt>
</event>
<event>
 4    3  0.3905963E+000  0.2192997E+03  0.7546771E-02  0.1134406E+00
         21   -1    0    0  503  502  0.00000000000E+00  0.00000000000E+00  0.32269195415E+03  0.32269195415E+03  0.00000000000E+00 0. -1.
         21   -1    0    0  501  503 -0.00000000000E+00 -0.00000000000E+00 -0.40915234114E+03  0.40915234114E+03  0.00000000000E+00 0. -1.
          6    1    1    2  501    0  0.11949125927E+03  0.62331308243E+02 -0.33499367900E+03  0.40039120620E+03  0.17300000000E+03 0. -1.
         -6    1    1    2    0  502 -0.11949125927E+03 -0.62331308243E+02  0.24853329202E+03  0.33145308909E+03  0.17300000000E+03 0. -1.
<mgrwt>
<rscale>  2 0.21929969E+03</rscale>
<asrwt>0</asrwt>
<pdfrwt beam="1">  1       21 0.49644916E-01 0.21929969E+03</pdfrwt>
<pdfrwt beam="2">  1       21 0.62946514E-01 0.21929969E+03</pdfrwt>
<totfact> 0.88744857E+03</totfact>
</mgrwt>
</event>
<event>
 4    3  0.3905963E+000  0.1792667E+03  0.7546771E-02  0.1168515E+00
         21   -1    0    0  501  502  0.00000000000E+00  0.00000000000E+00  0.30456398346E+02  0.30456398346E+02  0.00000000000E+00 0.  1.
         21   -1    0    0  502  503 -0.00000000000E+00 -0.00000000000E+00 -0.11830492321E+04  0.11830492321E+04  0.00000000000E+00 0. -1.
          6    1    1    2  501    0  0.42882207016E+02 -0.19200304262E+02 -0.37680769647E+03  0.41727757606E+03  0.17300000000E+03 0.  1.
         -6    1    1    2    0  503 -0.42882207016E+02  0.19200304262E+02 -0.77578513725E+03  0.79622805435E+03  0.17300000000E+03 0. -1.
<mgrwt>
<rscale>  2 0.17926666E+03</rscale>
<asrwt>0</asrwt>
<pdfrwt beam="1">  1       21 0.46855992E-02 0.17926666E+03</pdfrwt>
<pdfrwt beam="2">  1       21 0.18200759E+00 0.17926666E+03</pdfrwt>
<totfact> 0.53383575E+04</totfact>
</mgrwt>
</event>
<event>
 4    3  0.3905963E+000  0.2467540E+03  0.7546771E-02  0.1115374E+00
         21   -1    0    0  503  502  0.00000000000E+00  0.00000000000E+00  0.51828128480E+03  0.51828128480E+03  0.00000000000E+00 0.  1.
         21   -1    0    0  501  503 -0.00000000000E+00 -0.00000000000E+00 -0.15412378123E+03  0.15412378123E+03  0.00000000000E+00 0.  1.
          6    1    1    2  501    0 -0.16050506158E+03  0.72087910165E+02  0.18145166196E+02  0.24742026724E+03  0.17300000000E+03 0.  1.
         -6    1    1    2    0  502  0.16050506158E+03 -0.72087910165E+02  0.34601233738E+03  0.42498479879E+03  0.17300000000E+03 0.  1.
<mgrwt>
<rscale>  2 0.24675401E+03</rscale>
<asrwt>0</asrwt>
<pdfrwt beam="1">  1       21 0.79735581E-01 0.24675401E+03</pdfrwt>
<pdfrwt beam="2">  1       21 0.23711351E-01 0.24675401E+03</pdfrwt>
<totfact> 0.22541001E+04</totfact>
</mgrwt>
</event>
<event>
 4    3  0.3905963E+000  0.1945237E+03  0.7546771E-02  0.1154443E+00
         21   -1    0    0  501  502  0.00000000000E+00  0.00000000000E+00  0.15660104216E+04  0.15660104216E+04  0.00000000000E+00 0.  1.
         21   -1    0    0  502  503 -0.00000000000E+00 -0.00000000000E+00 -0.29384524321E+02  0.29384524321E+02  0.00000000000E+00 0. -1.
          6    1    1    2  501    0  0.59587733314E+02 -0.66028614745E+02  0.11045754478E+04  0.11215731790E+04  0.17300000000E+03 0.  1.
         -6    1    1    2    0  503 -0.59587733314E+02  0.66028614745E+02  0.43205044941E+03  0.47382176687E+03  0.17300000000E+03 0. -1.
<mgrwt>
<rscale>  2 0.19452372E+03</rscale>
<asrwt>0</asrwt>
<pdfrwt beam="1">  1       21 0.24092461E+00 0.19452372E+03</pdfrwt>
<pdfrwt beam="2">  1       21 0.45206973E-02 0.19452372E+03</pdfrwt>
<totfact> 0.23958789E+04</totfact>
</mgrwt>
</event>
<event>
 4    3  0.3905963E+000  0.1904265E+03  0.7546771E-02  0.1158077E+00
         21   -1    0    0  503  502  0.00000000000E+00  0.00000000000E+00  0.18962808729E+03  0.18962808729E+03  0.00000000000E+00 0.  1.
         21   -1    0    0  501  503 -0.00000000000E+00 -0.00000000000E+00 -0.68016845618E+03  0.68016845618E+03  0.00000000000E+00 0.  1.
          6    1    1    2  501    0  0.63244953769E+02 -0.48304535215E+02 -0.61399919007E+03  0.64285088295E+03  0.17300000000E+03 0.  1.
         -6    1    1    2    0  502 -0.63244953769E+02  0.48304535215E+02  0.12345882119E+03  0.22694566052E+03  0.17300000000E+03 0.  1.
<mgrwt>
<rscale>  2 0.19042650E+03</rscale>
<asrwt>0</asrwt>
<pdfrwt beam="1">  1       21 0.29173552E-01 0.19042650E+03</pdfrwt>
<pdfrwt beam="2">  1       21 0.10464130E+00 0.19042650E+03</pdfrwt>
<totfact> 0.83020043E+03</totfact>
</mgrwt>
</event>
<event>
 4    3  0.3905963E+000  0.2050428E+03  0.7546771E-02  0.1145553E+00
         21   -1    0    0  501  502  0.00000000000E+00  0.00000000000E+00  0.28967263147E+02  0.28967263147E+02  0.00000000000E+00 0. -1.
         21   -1    0    0  502  503 -0.00000000000E+00 -0.00000000000E+00 -0.25768106720E+04  0.25768106720E+04  0.00000000000E+00 0. -1.
          6    1    1    2  501    0  0.68725032355E+02 -0.85967599913E+02 -0.21349653759E+04  0.21447889674E+04  0.17300000000E+03 0. -1.
         -6    1    1    2    0  503 -0.68725032355E+02  0.85967599913E+02 -0.41287803295E+03  0.46098896777E+03  0.17300000000E+03 0. -1.
<mgrwt>
<rscale>  2 0.20504282E+03</rscale>
<asrwt>0</asrwt>
<pdfrwt beam="1">  1       21 0.44565005E-02 0.20504282E+03</pdfrwt>
<pdfrwt beam="2">  1       21 0.39643255E+00 0.20504282E+03</pdfrwt>
<totfact> 0.29453774E+03</totfact>
</mgrwt>
</event>
<event>
 4    3  0.3905963E+000  0.2480508E+03  0.7546771E-02  0.1114543E+00
         21   -1    0    0  501  502  0.00000000000E+00  0.00000000000E+00  0.12492411661E+03  0.12492411661E+03  0.00000000000E+00 0. -1.
         21   -1    0    0  502  503 -0.00000000000E+00 -0.00000000000E+00 -0.51738793144E+03  0.51738793144E+03  0.00000000000E+00 0.  1.
          6    1    1    2  501    0  0.59684262074E+01 -0.17766425421E+03 -0.12584092137E+03  0.27814590924E+03  0.17300000000E+03 0.  1.
         -6    1    1    2    0  503 -0.59684262074E+01  0.17766425421E+03 -0.26662289346E+03  0.36416613880E+03  0.17300000000E+03 0. -1.
<mgrwt>
<rscale>  2 0.24805082E+03</rscale>
<asrwt>0</asrwt>
<pdfrwt beam="1">  1       21 0.19219095E-01 0.24805082E+03</pdfrwt>
<pdfrwt beam="2">  1       21 0.79598142E-01 0.24805082E+03</pdfrwt>
<totfact> 0.33643002E+04</totfact>
</mgrwt>
</event>
<event>
 4    3  0.3905963E+000  0.1816864E+03  0.7546771E-02  0.1166181E+00
         21   -1    0    0  503  502  0.00000000000E+00  0.00000000000E+00  0.80540721970E+02  0.80540721970E+02  0.00000000000E+00 0. -1.
         21   -1    0    0  501  503 -0.00000000000E+00 -0.00000000000E+00 -0.49180483510E+03  0.49180483510E+03  0.00000000000E+00 0. -1.
          6    1    1    2  501    0  0.29921057919E+02 -0.46751318929E+02 -0.32244958337E+03  0.37011307643E+03  0.17300000000E+03 0.  1.
         -6    1    1    2    0  502 -0.29921057919E+02  0.46751318929E+02 -0.88814529754E+02  0.20223248064E+03  0.17300000000E+03 0.  1.
<mgrwt>
<rscale>  2 0.18168642E+03</rscale>
<asrwt>0</asrwt>
<pdfrwt beam="1">  1       21 0.12390880E-01 0.18168642E+03</pdfrwt>
<pdfrwt beam="2">  1       21 0.75662282E-01 0.18168642E+03</pdfrwt>
<totfact> 0.86768237E+04</totfact>
</mgrwt>
</event>
<event>
 4    3  0.3905963E+000  0.2104429E+03  0.7546771E-02  0.1141216E+00
         21   -1    0    0  503  502  0.00000000000E+00  0.00000000000E+00  0.42470687978E+02  0.42470687978E+02  0.00000000000E+00 0. -1.
         21   -1    0    0  501  503 -0.00000000000E+00 -0.00000000000E+00 -0.11506053440E+04  0.11506053440E+04  0.00000000000E+00 0.  1.
          6    1    1    2  501    0  0.28983030273E+02  0.11626355904E+03 -0.37142581499E+03  0.42689971568E+03  0.17300000000E+03 0. -1.
         -6    1    1    2    0  502 -0.28983030273E+02 -0.11626355904E+03 -0.73670884104E+03  0.76617631631E+03  0.17300000000E+03 0.  1.
<mgrwt>
<rscale>  2 0.21044294E+03</rscale>
<asrwt>0</asrwt>
<pdfrwt beam="1">  1       21 0.65339526E-02 0.21044294E+03</pdfrwt>
<pdfrwt beam="2">  1       21 0.17701619E+00 0.21044294E+03</pdfrwt>
<totfact> 0.32111617E+04</totfact>
</mgrwt>
</event>
<event>
 4    3  0.3905963E+000  0.3290653E+03  0.7546771E-02  0.1071551E+00
         21   -1    0    0  501  502  0.00000000000E+00  0.00000000000E+00  0.16255613243E+03  0.16255613243E+03  0.00000000000E+00 0. -1.
         21   -1    0    0  502  503 -0.00000000000E+00 -0.00000000000E+00 -0.12231723867E+04  0.12231723867E+04  0.00000000000E+00 0. -1.
          6    1    1    2  501    0 -0.88031708272E+02 -0.26571678207E+03 -0.99787885171E+03  0.10507360242E+04  0.17300000000E+03 0. -1.
         -6    1    1    2    0  503  0.88031708272E+02  0.26571678207E+03 -0.62737402524E+02  0.33499249486E+03  0.17300000000E+03 0. -1.
<mgrwt>
<rscale>  2 0.32906533E+03</rscale>
<asrwt>0</asrwt>
<pdfrwt beam="1">  1       21 0.25008636E-01 0.32906533E+03</pdfrwt>
<pdfrwt beam="2">  1       21 0.18818036E+00 0.32906533E+03</pdfrwt>
<totfact> 0.21863848E+03</totfact>
</mgrwt>
</event>
<event>
 4    3  0.3905963E+000  0.1785743E+03  0.7546771E-02  0.1169190E+00
         21   -1    0    0  503  502  0.00000000000E+00  0.00000000000E+00  0.12041483211E+03  0.12041483211E+03  0.00000000000E+00 0. -1.
         21   -1    0    0  501  503 -0.00000000000E+00 -0.00000000000E+00 -0.38800330074E+03  0.38800330074E+03  0.00000000000E+00 0. -1.
          6    1    1    2  501    0  0.44106878376E+02  0.37909347416E+01 -0.27702669561E+03  0.32959456608E+03  0.17300000000E+03 0. -1.
         -6    1    1    2    0  502 -0.44106878376E+02 -0.37909347416E+01  0.94382269851E+01  0.17882356678E+03  0.17300000000E+03 0. -1.
<mgrwt>
<rscale>  2 0.17857432E+03</rscale>
<asrwt>0</asrwt>
<pdfrwt beam="1">  1       21 0.18525359E-01 0.17857432E+03</pdfrwt>
<pdfrwt beam="2">  1       21 0.59692815E-01 0.17857432E+03</pdfrwt>
<totfact> 0.70164544E+04</totfact>
</mgrwt>
</event>
<event>
 4    3  0.3905963E+000  0.2288044E+03  0.7546771E-02  0.1127484E+00
         21   -1    0    0  503  502  0.00000000000E+00  0.00000000000E+00  0.16726068361E+03  0.16726068361E+03  0.00000000000E+00 0. -1.
         21   -1    0    0  501  503 -0.00000000000E+00 -0.00000000000E+00 -0.33858747815E+03  0.33858747815E+03  0.00000000000E+00 0. -1.
          6    1    1    2  501    0 -0.29095163565E+02 -0.14688742478E+03 -0.15520213620E+03  0.27647630492E+03  0.17300000000E+03 0. -1.
         -6    1    1    2    0  502  0.29095163565E+02  0.14688742478E+03 -0.16124658335E+02  0.22937185684E+03  0.17300000000E+03 0. -1.
<mgrwt>
<rscale>  2 0.22880438E+03</rscale>
<asrwt>0</asrwt>
<pdfrwt beam="1">  1       21 0.25732413E-01 0.22880438E+03</pdfrwt>
<pdfrwt beam="2">  1       21 0.52090381E-01 0.22880438E+03</pdfrwt>
<totfact> 0.49290912E+04</totfact>
</mgrwt>
</event>
<event>
 4    3  0.3905963E+000  0.2022111E+03  0.7546771E-02  0.1147887E+00
         21   -1    0    0  501  502  0.00000000000E+00  0.00000000000E+00  0.48624248257E+02  0.48624248257E+02  0.00000000000E+00 0.  1.
         21   -1    0    0  502  503 -0.00000000000E+00 -0.00000000000E+00 -0.14731553784E+04  0.14731553784E+04  0.00000000000E+00 0.  1.
          6    1    1    2  501    0  0.48309779833E+02  0.92879023704E+02 -0.21380000391E+03  0.29427842181E+03  0.17300000000E+03 0.  1.
         -6    1    1    2    0  503 -0.48309779833E+02 -0.92879023704E+02 -0.12107311263E+04  0.12275012049E+04  0.17300000000E+03 0.  1.
<mgrwt>
<rscale>  2 0.20221115E+03</rscale>
<asrwt>0</asrwt>
<pdfrwt beam="1">  1       21 0.74806548E-02 0.20221115E+03</pdfrwt>
<pdfrwt beam="2">  1       21 0.22663925E+00 0.20221115E+03</pdfrwt>
<totfact> 0.12255564E+04</totfact>
</mgrwt>
</event>
<event>
 4    3  0.3905963E+000  0.3165738E+03  0.7546771E-02  0.1077237E+00
         21   -1    0    0  503  502  0.00000000000E+00  0.00000000000E+00  0.58594443118E+03  0.58594443118E+03  0.00000000000E+00 0. -1.
         21   -1    0    0  501  503 -0.00000000000E+00 -0.00000000000E+00 -0.19486621007E+03  0.19486621007E+03  0.00000000000E+00 0.  1.
          6    1    1    2  501    0  0.13036602081E+03 -0.23085633890E+03  0.59020992813E+02  0.32202861082E+03  0.17300000000E+03 0.  1.
         -6    1    1    2    0  502 -0.13036602081E+03  0.23085633890E+03  0.33205722830E+03  0.45878203044E+03  0.17300000000E+03 0. -1.
<mgrwt>
<rscale>  2 0.31657376E+03</rscale>
<asrwt>0</asrwt>
<pdfrwt beam="1">  1       21 0.90145296E-01 0.31657376E+03</pdfrwt>
<pdfrwt beam="2">  1       21 0.29979417E-01 0.31657376E+03</pdfrwt>
<totfact> 0.10433232E+04</totfact>
</mgrwt>
</event>
<event>
 4    3  0.3905963E+000  0.1768718E+03  0.7546771E-02  0.1170865E+00
         21   -1    0    0  503  502  0.00000000000E+00  0.00000000000E+00  0.80961811135E+02  0.80961811135E+02  0.00000000000E+00 0. -1.
         21   -1    0    0  501  503 -0.00000000000E+00 -0.00000000000E+00 -0.41293327246E+03  0.41293327246E+03  0.00000000000E+00 0. -1.
          6    1    1    2  501    0  0.33260136383E+01  0.36654965866E+02 -0.10338784499E+03  0.20487238804E+03  0.17300000000E+03 0. -1.
         -6    1    1    2    0  502 -0.33260136383E+01 -0.36654965866E+02 -0.22858361634E+03  0.28902269556E+03  0.17300000000E+03 0. -1.
<mgrwt>
<rscale>  2 0.17687184E+03</rscale>
<asrwt>0</asrwt>
<pdfrwt beam="1">  1       21 0.12455663E-01 0.17687184E+03</pdfrwt>
<pdfrwt beam="2">  1       21 0.63528196E-01 0.17687184E+03</pdfrwt>
<totfact> 0.12644751E+05</totfact>
</mgrwt>
</event>
<event>
 4    3  0.3905963E+000  0.1746600E+03  0.7546771E-02  0.1173074E+00
         21   -1    0    0  503  502  0.00000000000E+00  0.00000000000E+00  0.28597370643E+04  0.28597370643E+04  0.00000000000E+00 0. -1.
         21   -1    0    0  501  503 -0.00000000000E+00 -0.00000000000E+00 -0.11840082134E+02  0.11840082134E+02  0.00000000000E+00 0. -1.
          6    1    1    2  501    0 -0.67398828016E+01  0.23058045061E+02  0.97209857653E+03  0.98766479230E+03  0.17300000000E+03 0. -1.
         -6    1    1    2    0  502  0.67398828016E+01 -0.23058045061E+02  0.18757984056E+04  0.18839123541E+04  0.17300000000E+03 0. -1.
<mgrwt>
<rscale>  2 0.17465995E+03</rscale>
<asrwt>0</asrwt>
<pdfrwt beam="1">  1       21 0.43995900E+00 0.17465995E+03</pdfrwt>
<pdfrwt beam="2">  1       21 0.18215534E-02 0.17465995E+03</pdfrwt>
<totfact> 0.71251259E+03</totfact>
</mgrwt>
</event>
<event>
 4    3  0.3905963E+000  0.1963022E+03  0.7546771E-02  0.1152897E+00
         21   -1    0    0  503  502  0.00000000000E+00  0.00000000000E+00  0.87943390963E+02  0.87943390963E+02  0.00000000000E+00 0. -1.
         21   -1    0    0  501  503 -0.00000000000E+00 -0.00000000000E+00 -0.90396538270E+03  0.90396538270E+03  0.00000000000E+00 0. -1.
          6    1    1    2  501    0  0.63308438153E+02  0.67805639056E+02 -0.76402023278E+03  0.78883552096E+03  0.17300000000E+03 0. -1.
         -6    1    1    2    0  502 -0.63308438153E+02 -0.67805639056E+02 -0.52001758958E+02  0.20307325270E+03  0.17300000000E+03 0. -1.
<mgrwt>
<rscale>  2 0.19630222E+03</rscale>
<asrwt>0</asrwt>
<pdfrwt beam="1">  1       21 0.13529752E-01 0.19630222E+03</pdfrwt>
<pdfrwt beam="2">  1       21 0.13907160E+00 0.19630222E+03</pdfrwt>
<totfact> 0.17175624E+04</totfact>
</mgrwt>
</event>
<event>
 4    3  0.3905963E+000  0.2462478E+03  0.7546771E-02  0.1115699E+00
         21   -1    0    0  503  502  0.00000000000E+00  0.00000000000E+00  0.20637784884E+03  0.20637784884E+03  0.00000000000E+00 0. -1.
         21   -1    0    0  501  503 -0.00000000000E+00 -0.00000000000E+00 -0.29419851602E+03  0.29419851602E+03  0.00000000000E+00 0. -1.
          6    1    1    2  501    0 -0.14840837899E+03  0.93187607560E+02 -0.34934853915E+02  0.24871353235E+03  0.17300000000E+03 0. -1.
         -6    1    1    2    0  502  0.14840837899E+03 -0.93187607560E+02 -0.52885813268E+02  0.25186283251E+03  0.17300000000E+03 0. -1.
<mgrwt>
<rscale>  2 0.24624780E+03</rscale>
<asrwt>0</asrwt>
<pdfrwt beam="1">  1       21 0.31750438E-01 0.24624780E+03</pdfrwt>
<pdfrwt beam="2">  1       21 0.45261310E-01 0.24624780E+03</pdfrwt>
<totfact> 0.43567251E+04</totfact>
</mgrwt>
</event>
<event>
 4    3  0.3905963E+000  0.1772289E+03  0.7546771E-02  0.1170512E+00
         21   -1    0    0  503  502  0.00000000000E+00  0.00000000000E+00  0.65873338270E+03  0.65873338270E+03  0.00000000000E+00 0. -1.
         21   -1    0    0  501  503 -0.00000000000E+00 -0.00000000000E+00 -0.76204354193E+02  0.76204354193E+02  0.00000000000E+00 0. -1.
          6    1    1    2  501    0  0.35182383828E+02 -0.15597004420E+02  0.66452562659E+02  0.18927759974E+03  0.17300000000E+03 0. -1.
         -6    1    1    2    0  502 -0.35182383828E+02  0.15597004420E+02  0.51607646584E+03  0.54566013715E+03  0.17300000000E+03 0. -1.
<mgrwt>
<rscale>  2 0.17722885E+03</rscale>
<asrwt>0</asrwt>
<pdfrwt beam="1">  1       21 0.10134359E+00 0.17722885E+03</pdfrwt>
<pdfrwt beam="2">  1       21 0.11723747E-01 0.17722885E+03</pdfrwt>
<totfact> 0.49034246E+04</totfact>
</mgrwt>
</event>
<event>
 4    3  0.3905963E+000  0.2034537E+03  0.7546771E-02  0.1146857E+00
         21   -1    0    0  501  502  0.00000000000E+00  0.00000000000E+00  0.92524400518E+02  0.92524400518E+02  0.00000000000E+00 0.  1.
         21   -1    0    0  502  503 -0.00000000000E+00 -0.00000000000E+00 -0.48126559839E+03  0.48126559839E+03  0.00000000000E+00 0.  1.
          6    1    1    2  501    0 -0.10023983976E+03 -0.37634848863E+02 -0.27049942969E+03  0.33847207978E+03  0.17300000000E+03 0.  1.
         -6    1    1    2    0  503  0.10023983976E+03  0.37634848863E+02 -0.11824176818E+03  0.23531791914E+03  0.17300000000E+03 0.  1.
<mgrwt>
<rscale>  2 0.20345370E+03</rscale>
<asrwt>0</asrwt>
<pdfrwt beam="1">  1       21 0.14234523E-01 0.20345370E+03</pdfrwt>
<pdfrwt beam="2">  1       21 0.74040862E-01 0.20345370E+03</pdfrwt>
<totfact> 0.70248247E+04</totfact>
</mgrwt>
</event>
<event>
 4    3  0.3905963E+000  0.1768953E+03  0.7546771E-02  0.1170842E+00
         21   -1    0    0  501  502  0.00000000000E+00  0.00000000000E+00  0.67887073617E+03  0.67887073617E+03  0.00000000000E+00 0. -1.
         21   -1    0    0  502  503 -0.00000000000E+00 -0.00000000000E+00 -0.48169746670E+02  0.48169746670E+02  0.00000000000E+00 0. -1.
          6    1    1    2  501    0  0.36665173338E+02 -0.43123009149E+01  0.23989013721E+03  0.29805906932E+03  0.17300000000E+03 0.  1.
         -6    1    1    2    0  503 -0.36665173338E+02  0.43123009149E+01  0.39081085229E+03  0.42898141352E+03  0.17300000000E+03 0.  1.
<mgrwt>
<rscale>  2 0.17689525E+03</rscale>
<asrwt>0</asrwt>
<pdfrwt beam="1">  1       21 0.10444164E+00 0.17689525E+03</pdfrwt>
<pdfrwt beam="2">  1       21 0.74107307E-02 0.17689525E+03</pdfrwt>
<totfact> 0.10209140E+05</totfact>
</mgrwt>
</event>
<event>
 4    3  0.3905963E+000  0.2057879E+03  0.7546771E-02  0.1144946E+00
         21   -1    0    0  503  502  0.00000000000E+00  0.00000000000E+00  0.10506231322E+04  0.10506231322E+04  0.00000000000E+00 0. -1.
         21   -1    0    0  501  503 -0.00000000000E+00 -0.00000000000E+00 -0.50699901985E+02  0.50699901985E+02  0.00000000000E+00 0.  1.
          6    1    1    2  501    0 -0.94953624158E+02  0.58339090394E+02  0.25065934007E+03  0.32431272712E+03  0.17300000000E+03 0.  1.
         -6    1    1    2    0  502  0.94953624158E+02 -0.58339090394E+02  0.74926389017E+03  0.77701030708E+03  0.17300000000E+03 0. -1.
<mgrwt>
<rscale>  2 0.20578785E+03</rscale>
<asrwt>0</asrwt>
<pdfrwt beam="1">  1       21 0.16163431E+00 0.20578785E+03</pdfrwt>
<pdfrwt beam="2">  1       21 0.77999857E-02 0.20578785E+03</pdfrwt>
<totfact> 0.30452175E+04</totfact>
</mgrwt>
</event>
<event>
 4    3  0.3905963E+000  0.1766775E+03  0.7546771E-02  0.1171058E+00
         21   -1    0    0  501  502  0.00000000000E+00  0.00000000000E+00  0.35303824666E+03  0.35303824666E+03  0.00000000000E+00 0. -1.
         21   -1    0    0  502  503 -0.00000000000E+00 -0.00000000000E+00 -0.10447817239E+03  0.10447817239E+03  0.00000000000E+00 0. -1.
          6    1    1    2  501    0  0.45156172551E+01 -0.35574407685E+02  0.21396905165E+03  0.27748456596E+03  0.17300000000E+03 0. -1.
         -6    1    1    2    0  503 -0.45156172551E+01  0.35574407685E+02  0.34591022627E+02  0.18003185309E+03  0.17300000000E+03 0. -1.
<mgrwt>
<rscale>  2 0.17667747E+03</rscale>
<asrwt>0</asrwt>
<pdfrwt beam="1">  1       21 0.54313576E-01 0.17667747E+03</pdfrwt>
<pdfrwt beam="2">  1       21 0.16073565E-01 0.17667747E+03</pdfrwt>
<totfact> 0.11140551E+05</totfact>
</mgrwt>
</event>
<event>
 4    3  0.3905963E+000  0.1947710E+03  0.7546771E-02  0.1154227E+00
         21   -1    0    0  501  502  0.00000000000E+00  0.00000000000E+00  0.17870238123E+04  0.17870238123E+04  0.00000000000E+00 0. -1.
         21   -1    0    0  502  503 -0.00000000000E+00 -0.00000000000E+00 -0.39236880282E+02  0.39236880282E+02  0.00000000000E+00 0.  1.
          6    1    1    2  501    0  0.11955290719E+02  0.88678189248E+02  0.14925127299E+04  0.15051677645E+04  0.17300000000E+03 0. -1.
         -6    1    1    2    0  503 -0.11955290719E+02 -0.88678189248E+02  0.25527420207E+03  0.32109292809E+03  0.17300000000E+03 0.  1.
<mgrwt>
<rscale>  2 0.19477102E+03</rscale>
<asrwt>0</asrwt>
<pdfrwt beam="1">  1       21 0.27492668E+00 0.19477102E+03</pdfrwt>
<pdfrwt beam="2">  1       21 0.60364445E-02 0.19477102E+03</pdfrwt>
<totfact> 0.92697066E+03</totfact>
</mgrwt>
</event>
<event>
 4    3  0.3905963E+000  0.2221778E+03  0.7546771E-02  0.1132270E+00
         21   -1    0    0  503  502  0.00000000000E+00  0.00000000000E+00  0.15836197172E+03  0.15836197172E+03  0.00000000000E+00 0. -1.
         21   -1    0    0  501  503 -0.00000000000E+00 -0.00000000000E+00 -0.38566841589E+03  0.38566841589E+03  0.00000000000E+00 0.  1.
          6    1    1    2  501    0  0.75485373461E+02 -0.11720045439E+03 -0.23277202920E+03  0.32178534102E+03  0.17300000000E+03 0.  1.
         -6    1    1    2    0  502 -0.75485373461E+02  0.11720045439E+03  0.54655850387E+01  0.22224504659E+03  0.17300000000E+03 0. -1.
<mgrwt>
<rscale>  2 0.22217783E+03</rscale>
<asrwt>0</asrwt>
<pdfrwt beam="1">  1       21 0.24363380E-01 0.22217783E+03</pdfrwt>
<pdfrwt beam="2">  1       21 0.59333602E-01 0.22217783E+03</pdfrwt>
<totfact> 0.41612932E+04</totfact>
</mgrwt>
</event>
<event>
 4    3  0.3905963E+000  0.2233811E+03  0.7546771E-02  0.1131387E+00
         21   -1    0    0  503  502  0.00000000000E+00  0.00000000000E+00  0.14111985919E+04  0.14111985919E+04  0.00000000000E+00 0. -1.
         21   -1    0    0  501  503 -0.00000000000E+00 -0.00000000000E+00 -0.66974836899E+02  0.66974836899E+02  0.00000000000E+00 0.  1.
          6    1    1    2  501    0 -0.82521298271E+02  0.11471861249E+03  0.16431595462E+03  0.27730643278E+03  0.17300000000E+03 0.  1.
         -6    1    1    2    0  502  0.82521298271E+02 -0.11471861249E+03  0.11799078003E+04  0.12008669960E+04  0.17300000000E+03 0. -1.
<mgrwt>
<rscale>  2 0.22338112E+03</rscale>
<asrwt>0</asrwt>
<pdfrwt beam="1">  1       21 0.21710745E+00 0.22338112E+03</pdfrwt>
<pdfrwt beam="2">  1       21 0.10303822E-01 0.22338112E+03</pdfrwt>
<totfact> 0.78550385E+03</totfact>
</mgrwt>
</event>
<event>
 4    3  0.3905963E+000  0.1990766E+03  0.7546771E-02  0.1150520E+00
         21   -1    0    0  503  502  0.00000000000E+00  0.00000000000E+00  0.13440366821E+03  0.13440366821E+03  0.00000000000E+00 0.  1.
         21   -1    0    0  501  503 -0.00000000000E+00 -0.00000000000E+00 -0.55977569711E+03  0.55977569711E+03  0.00000000000E+00 0. -1.
          6    1    1    2  501    0 -0.98025243390E+02  0.96726414998E+01 -0.45145666995E+03  0.49340108753E+03  0.17300000000E+03 0. -1.
         -6    1    1    2    0  502  0.98025243390E+02 -0.96726414998E+01  0.26084641051E+02  0.20077827779E+03  0.17300000000E+03 0.  1.
<mgrwt>
<rscale>  2 0.19907664E+03</rscale>
<asrwt>0</asrwt>
<pdfrwt beam="1">  1       21 0.20677488E-01 0.19907664E+03</pdfrwt>
<pdfrwt beam="2">  1       21 0.86119337E-01 0.19907664E+03</pdfrwt>
<totfact> 0.25126193E+04</totfact>
</mgrwt>
</event>
<event>
 4    3  0.3905963E+000  0.1732913E+03  0.7546771E-02  0.1174458E+00
         21   -1    0    0  503  502  0.00000000000E+00  0.00000000000E+00  0.27862725035E+03  0.27862725035E+03  0.00000000000E+00 0.  1.
         21   -1    0    0  501  503 -0.00000000000E+00 -0.00000000000E+00 -0.25063353800E+03  0.25063353800E+03  0.00000000000E+00 0.  1.
          6    1    1    2  501    0 -0.43677890653E+01  0.90441197331E+01 -0.18579084456E+03  0.25406320396E+03  0.17300000000E+03 0.  1.
         -6    1    1    2    0  502  0.43677890653E+01 -0.90441197331E+01  0.21378455690E+03  0.27519758439E+03  0.17300000000E+03 0.  1.
<mgrwt>
<rscale>  2 0.17329130E+03</rscale>
<asrwt>0</asrwt>
<pdfrwt beam="1">  1       21 0.42865731E-01 0.17329130E+03</pdfrwt>
<pdfrwt beam="2">  1       21 0.38559006E-01 0.17329130E+03</pdfrwt>
<totfact> 0.34296432E+04</totfact>
</mgrwt>
</event>
<event>
 4    3  0.3905963E+000  0.1753840E+03  0.7546771E-02  0.1172347E+00
         21   -1    0    0  503  502  0.00000000000E+00  0.00000000000E+00  0.17905779443E+03  0.17905779443E+03  0.00000000000E+00 0. -1.
         21   -1    0    0  501  503 -0.00000000000E+00 -0.00000000000E+00 -0.23828550977E+03  0.23828550977E+03  0.00000000000E+00 0. -1.
          6    1    1    2  501    0  0.17695791962E+02 -0.22746803414E+02 -0.13985025958E+03  0.22431596738E+03  0.17300000000E+03 0. -1.
         -6    1    1    2    0  502 -0.17695791962E+02  0.22746803414E+02  0.80622544236E+02  0.19302733681E+03  0.17300000000E+03 0. -1.
<mgrwt>
<rscale>  2 0.17538403E+03</rscale>
<asrwt>0</asrwt>
<pdfrwt beam="1">  1       21 0.27547353E-01 0.17538403E+03</pdfrwt>
<pdfrwt beam="2">  1       21 0.36659309E-01 0.17538403E+03</pdfrwt>
<totfact> 0.90842188E+04</totfact>
</mgrwt>
</event>
<event>
 4    3  0.3905963E+000  0.2073009E+03  0.7546771E-02  0.1143721E+00
         21   -1    0    0  503  502  0.00000000000E+00  0.00000000000E+00  0.39956733067E+03  0.39956733067E+03  0.00000000000E+00 0. -1.
         21   -1    0    0  501  503 -0.00000000000E+00 -0.00000000000E+00 -0.11355792629E+03  0.11355792629E+03  0.00000000000E+00 0. -1.
          6    1    1    2  501    0  0.50904678172E+02 -0.10224168954E+03  0.83994049259E+02  0.22367085114E+03  0.17300000000E+03 0. -1.
         -6    1    1    2    0  502 -0.50904678172E+02  0.10224168954E+03  0.20201535512E+03  0.28945440581E+03  0.17300000000E+03 0. -1.
<mgrwt>
<rscale>  2 0.20730087E+03</rscale>
<asrwt>0</asrwt>
<pdfrwt beam="1">  1       21 0.61471896E-01 0.20730087E+03</pdfrwt>
<pdfrwt beam="2">  1       21 0.17470450E-01 0.20730087E+03</pdfrwt>
<totfact> 0.72493446E+04</totfact>
</mgrwt>
</event>
<event>
 4    3  0.3905963E+000  0.2409430E+03  0.7546771E-02  0.1119166E+00
         21   -1    0    0  503  502  0.00000000000E+00  0.00000000000E+00  0.45264330315E+02  0.45264330315E+02  0.00000000000E+00 0.  1.
         21   -1    0    0  501  503 -0.00000000000E+00 -0.00000000000E+00 -0.14464078840E+04  0.14464078840E+04  0.00000000000E+00 0. -1.
          6    1    1    2  501    0  0.32592788913E+02  0.16450607152E+03 -0.95160916118E+03  0.98163818849E+03  0.17300000000E+03 0. -1.
         -6    1    1    2    0  502 -0.32592788913E+02 -0.16450607152E+03 -0.44953439250E+03  0.51003402582E+03  0.17300000000E+03 0.  1.
<mgrwt>
<rscale>  2 0.24094302E+03</rscale>
<asrwt>0</asrwt>
<pdfrwt beam="1">  1       21 0.69637440E-02 0.24094302E+03</pdfrwt>
<pdfrwt beam="2">  1       21 0.22252426E+00 0.24094302E+03</pdfrwt>
<totfact> 0.14271135E+04</totfact>
</mgrwt>
</event>
<event>
 4    3  0.3905963E+000  0.1758070E+03  0.7546771E-02  0.1171924E+00
         21   -1    0    0  503  502  0.00000000000E+00  0.00000000000E+00  0.20702826318E+03  0.20702826318E+03  0.00000000000E+00 0. -1.
         21   -1    0    0  501  503 -0.00000000000E+00 -0.00000000000E+00 -0.14950638596E+03  0.14950638596E+03  0.00000000000E+00 0.  1.
          6    1    1    2  501    0  0.31061274459E+02  0.37799603169E+01  0.35478920811E+02  0.17935117700E+03  0.17300000000E+03 0. -1.
         -6    1    1    2    0  502 -0.31061274459E+02 -0.37799603169E+01  0.22042956412E+02  0.17718347214E+03  0.17300000000E+03 0. -1.
<mgrwt>
<rscale>  2 0.17580697E+03</rscale>
<asrwt>0</asrwt>
<pdfrwt beam="1">  1       21 0.31850502E-01 0.17580697E+03</pdfrwt>
<pdfrwt beam="2">  1       21 0.23000982E-01 0.17580697E+03</pdfrwt>
<totfact> 0.16909661E+05</totfact>
</mgrwt>
</event>
<event>
 4    3  0.3905963E+000  0.2437650E+03  0.7546771E-02  0.1117310E+00
         21   -1    0    0  501  502  0.00000000000E+00  0.00000000000E+00  0.66274970853E+02  0.66274970853E+02  0.00000000000E+00 0.  1.
         21   -1    0    0  502  503 -0.00000000000E+00 -0.00000000000E+00 -0.91305517200E+03  0.91305517200E+03  0.00000000000E+00 0. -1.
          6    1    1    2  501    0 -0.89072946295E+02 -0.14682772076E+03 -0.48914906985E+03  0.54652372490E+03  0.17300000000E+03 0. -1.
         -6    1    1    2    0  503  0.89072946295E+02  0.14682772076E+03 -0.35763113130E+03  0.43280641795E+03  0.17300000000E+03 0. -1.
<mgrwt>
<rscale>  2 0.24376499E+03</rscale>
<asrwt>0</asrwt>
<pdfrwt beam="1">  1       21 0.10196150E-01 0.24376499E+03</pdfrwt>
<pdfrwt beam="2">  1       21 0.14047002E+00 0.24376499E+03</pdfrwt>
<totfact> 0.27005896E+04</totfact>
</mgrwt>
</event>
<event>
 4    3  0.3905963E+000  0.2433700E+03  0.7546771E-02  0.1117568E+00
         21   -1    0    0  503  502  0.00000000000E+00  0.00000000000E+00  0.59613700009E+03  0.59613700009E+03  0.00000000000E+00 0.  1.
         21   -1    0    0  501  503 -0.00000000000E+00 -0.00000000000E+00 -0.12870962142E+03  0.12870962142E+03  0.00000000000E+00 0. -1.
          6    1    1    2  501    0  0.31702689032E+00 -0.17117202931E+03  0.60631778156E+02  0.25080904419E+03  0.17300000000E+03 0. -1.
         -6    1    1    2    0  502 -0.31702689032E+00  0.17117202931E+03  0.40679560051E+03  0.47403757732E+03  0.17300000000E+03 0.  1.
<mgrwt>
<rscale>  2 0.24337001E+03</rscale>
<asrwt>0</asrwt>
<pdfrwt beam="1">  1       21 0.91713383E-01 0.24337001E+03</pdfrwt>
<pdfrwt beam="2">  1       21 0.19801481E-01 0.24337001E+03</pdfrwt>
<totfact> 0.22996725E+04</totfact>
</mgrwt>
</event>
<event>
 4    3  0.3905963E+000  0.2067220E+03  0.7546771E-02  0.1144188E+00
         21   -1    0    0  501  502  0.00000000000E+00  0.00000000000E+00  0.81808143592E+03  0.81808143592E+03  0.00000000000E+00 0.  1.
         21   -1    0    0  502  503 -0.00000000000E+00 -0.00000000000E+00 -0.88772160143E+02  0.88772160143E+02  0.00000000000E+00 0.  1.
          6    1    1    2  501    0  0.98531500910E+02 -0.55646527723E+02  0.65554224695E+03  0.68736426315E+03  0.17300000000E+03 0.  1.
         -6    1    1    2    0  503 -0.98531500910E+02  0.55646527723E+02  0.73767028821E+02  0.21948933291E+03  0.17300000000E+03 0.  1.
<mgrwt>
<rscale>  2 0.20672202E+03</rscale>
<asrwt>0</asrwt>
<pdfrwt beam="1">  1       21 0.12585868E+00 0.20672202E+03</pdfrwt>
<pdfrwt beam="2">  1       21 0.13657256E-01 0.20672202E+03</pdfrwt>
<totfact> 0.21613274E+04</totfact>
</mgrwt>
</event>
<event>
 4    3  0.3905963E+000  0.1803510E+03  0.7546771E-02  0.1167464E+00
         21   -1    0    0  503  502  0.00000000000E+00  0.00000000000E+00  0.94774125243E+02  0.94774125243E+02  0.00000000000E+00 0.  1.
         21   -1    0    0  501  503 -0.00000000000E+00 -0.00000000000E+00 -0.12182881402E+04  0.12182881402E+04  0.00000000000E+00 0.  1.
          6    1    1    2  501    0  0.30517276324E+02  0.40818744611E+02 -0.11181814904E+04  0.11326324733E+04  0.17300000000E+03 0.  1.
         -6    1    1    2    0  502 -0.30517276324E+02 -0.40818744611E+02 -0.53325245162E+01  0.18042979212E+03  0.17300000000E+03 0.  1.
<mgrwt>
<rscale>  2 0.18035097E+03</rscale>
<asrwt>0</asrwt>
<pdfrwt beam="1">  1       21 0.14580636E-01 0.18035097E+03</pdfrwt>
<pdfrwt beam="2">  1       21 0.18742893E+00 0.18035097E+03</pdfrwt>
<totfact> 0.67727397E+03</totfact>
</mgrwt>
</event>
<event>
 4    3  0.3905963E+000  0.2327197E+03  0.7546771E-02  0.1124740E+00
         21   -1    0    0  501  502  0.00000000000E+00  0.00000000000E+00  0.26220163579E+03  0.26220163579E+03  0.00000000000E+00 0. -1.
         21   -1    0    0  502  503 -0.00000000000E+00 -0.00000000000E+00 -0.28495622651E+03  0.28495622651E+03  0.00000000000E+00 0. -1.
          6    1    1    2  501    0 -0.57014922721E+02  0.14484051564E+03  0.13212576213E+03  0.26761108610E+03  0.17300000000E+03 0. -1.
         -6    1    1    2    0  503  0.57014922721E+02 -0.14484051564E+03 -0.15488035286E+03  0.27954677620E+03  0.17300000000E+03 0. -1.
<mgrwt>
<rscale>  2 0.23271974E+03</rscale>
<asrwt>0</asrwt>
<pdfrwt beam="1">  1       21 0.40338714E-01 0.23271974E+03</pdfrwt>
<pdfrwt beam="2">  1       21 0.43839419E-01 0.23271974E+03</pdfrwt>
<totfact> 0.28990414E+04</totfact>
</mgrwt>
</event>
<event>
 4    3  0.3905963E+000  0.2117211E+03  0.7546771E-02  0.1140210E+00
         21   -1    0    0  503  502  0.00000000000E+00  0.00000000000E+00  0.14833337465E+04  0.14833337465E+04  0.00000000000E+00 0. -1.
         21   -1    0    0  501  503 -0.00000000000E+00 -0.00000000000E+00 -0.46736382574E+02  0.46736382574E+02  0.00000000000E+00 0.  1.
          6    1    1    2  501    0  0.11652066403E+03 -0.36328665703E+02  0.26350358959E+03  0.33802363649E+03  0.17300000000E+03 0.  1.
         -6    1    1    2    0  502 -0.11652066403E+03  0.36328665703E+02  0.11730937744E+04  0.11920464926E+04  0.17300000000E+03 0. -1.
<mgrwt>
<rscale>  2 0.21172113E+03</rscale>
<asrwt>0</asrwt>
<pdfrwt beam="1">  1       21 0.22820515E+00 0.21172113E+03</pdfrwt>
<pdfrwt beam="2">  1       21 0.71902139E-02 0.21172113E+03</pdfrwt>
<totfact> 0.12740686E+04</totfact>
</mgrwt>
</event>
<event>
 4    3  0.3905963E+000  0.2635500E+03  0.7546771E-02  0.1105029E+00
         21   -1    0    0  503  502  0.00000000000E+00  0.00000000000E+00  0.12252118204E+03  0.12252118204E+03  0.00000000000E+00 0. -1.
         21   -1    0    0  501  503 -0.00000000000E+00 -0.00000000000E+00 -0.66151416160E+03  0.66151416160E+03  0.00000000000E+00 0.  1.
          6    1    1    2  501    0 -0.18722217469E+03 -0.66913741396E+02 -0.41774460008E+03  0.49393232571E+03  0.17300000000E+03 0.  1.
         -6    1    1    2    0  502  0.18722217469E+03  0.66913741396E+02 -0.12124837948E+03  0.29010301793E+03  0.17300000000E+03 0. -1.
<mgrwt>
<rscale>  2 0.26354998E+03</rscale>
<asrwt>0</asrwt>
<pdfrwt beam="1">  1       21 0.18849413E-01 0.26354998E+03</pdfrwt>
<pdfrwt beam="2">  1       21 0.10177141E+00 0.26354998E+03</pdfrwt>
<totfact> 0.19516495E+04</totfact>
</mgrwt>
</event>
<event>
 4    3  0.3905963E+000  0.2398342E+03  0.7546771E-02  0.1119903E+00
         21   -1    0    0  503  502  0.00000000000E+00  0.00000000000E+00  0.73075041436E+02  0.73075041436E+02  0.00000000000E+00 0. -1.
         21   -1    0    0  501  503 -0.00000000000E+00 -0.00000000000E+00 -0.81137396555E+03  0.81137396555E+03  0.00000000000E+00 0.  1.
          6    1    1    2  501    0  0.28101182931E+02  0.16371251037E+03 -0.44557229341E+03  0.50601890398E+03  0.17300000000E+03 0.  1.
         -6    1    1    2    0  502 -0.28101182931E+02 -0.16371251037E+03 -0.29272663071E+03  0.37843010300E+03  0.17300000000E+03 0. -1.
<mgrwt>
<rscale>  2 0.23983424E+03</rscale>
<asrwt>0</asrwt>
<pdfrwt beam="1">  1       21 0.11242314E-01 0.23983424E+03</pdfrwt>
<pdfrwt beam="2">  1       21 0.12482676E+00 0.23983424E+03</pdfrwt>
<totfact> 0.30747784E+04</totfact>
</mgrwt>
</event>
<event>
 4    3  0.3905963E+000  0.1996667E+03  0.7546771E-02  0.1150021E+00
         21   -1    0    0  501  502  0.00000000000E+00  0.00000000000E+00  0.30514324730E+03  0.30514324730E+03  0.00000000000E+00 0. -1.
         21   -1    0    0  502  503 -0.00000000000E+00 -0.00000000000E+00 -0.42744450218E+03  0.42744450218E+03  0.00000000000E+00 0. -1.
          6    1    1    2  501    0 -0.78753683399E+02 -0.61119870015E+02  0.24407300455E+03  0.31533856838E+03  0.17300000000E+03 0. -1.
         -6    1    1    2    0  503  0.78753683399E+02  0.61119870015E+02 -0.36637425942E+03  0.41724918110E+03  0.17300000000E+03 0. -1.
<mgrwt>
<rscale>  2 0.19966668E+03</rscale>
<asrwt>0</asrwt>
<pdfrwt beam="1">  1       21 0.46945115E-01 0.19966668E+03</pdfrwt>
<pdfrwt beam="2">  1       21 0.65760693E-01 0.19966668E+03</pdfrwt>
<totfact> 0.91834973E+03</totfact>
</mgrwt>
</event>
<event>
 4    3  0.3905963E+000  0.2127020E+03  0.7546771E-02  0.1139444E+00
         21   -1    0    0  501  502  0.00000000000E+00  0.00000000000E+00  0.17943599577E+03  0.17943599577E+03  0.00000000000E+00 0.  1.
         21   -1    0    0  502  503 -0.00000000000E+00 -0.00000000000E+00 -0.53739598576E+03  0.53739598576E+03  0.00000000000E+00 0.  1.
          6    1    1    2  501    0  0.12063532940E+03  0.27572813669E+02  0.82152641978E+02  0.22801578747E+03  0.17300000000E+03 0.  1.
         -6    1    1    2    0  503 -0.12063532940E+03 -0.27572813669E+02 -0.44011263196E+03  0.48881619405E+03  0.17300000000E+03 0.  1.
<mgrwt>
<rscale>  2 0.21270200E+03</rscale>
<asrwt>0</asrwt>
<pdfrwt beam="1">  1       21 0.27605538E-01 0.21270200E+03</pdfrwt>
<pdfrwt beam="2">  1       21 0.82676304E-01 0.21270200E+03</pdfrwt>
<totfact> 0.15784046E+04</totfact>
</mgrwt>
</event>
<event>
 4    3  0.3905963E+000  0.2354871E+03  0.7546771E-02  0.1122836E+00
         21   -1    0    0  501  502  0.00000000000E+00  0.00000000000E+00  0.57032126363E+03  0.57032126363E+03  0.00000000000E+00 0.  1.
         21   -1    0    0  502  503 -0.00000000000E+00 -0.00000000000E+00 -0.10415472228E+03  0.10415472228E+03  0.00000000000E+00 0.  1.
          6    1    1    2  501    0 -0.99528918464E+02 -0.12497667825E+03  0.32001874767E+03  0.39732376543E+03  0.17300000000E+03 0.  1.
         -6    1    1    2    0  503  0.99528918464E+02  0.12497667825E+03  0.14614779368E+03  0.27715222047E+03  0.17300000000E+03 0.  1.
<mgrwt>
<rscale>  2 0.23548710E+03</rscale>
<asrwt>0</asrwt>
<pdfrwt beam="1">  1       21 0.87741731E-01 0.23548710E+03</pdfrwt>
<pdfrwt beam="2">  1       21 0.16023804E-01 0.23548710E+03</pdfrwt>
<totfact> 0.37911183E+04</totfact>
</mgrwt>
</event>
<event>
 4    3  0.3905963E+000  0.2053475E+03  0.7546771E-02  0.1145304E+00
         21   -1    0    0  501  502  0.00000000000E+00  0.00000000000E+00  0.24195316610E+02  0.24195316610E+02  0.00000000000E+00 0. -1.
         21   -1    0    0  502  503 -0.00000000000E+00 -0.00000000000E+00 -0.19292200366E+04  0.19292200366E+04  0.00000000000E+00 0.  1.
          6    1    1    2  501    0  0.61940855024E+02 -0.91661984560E+02 -0.12561254137E+04  0.12727995301E+04  0.17300000000E+03 0.  1.
         -6    1    1    2    0  503 -0.61940855024E+02  0.91661984560E+02 -0.64889930627E+03  0.68061582307E+03  0.17300000000E+03 0.  1.
<mgrwt>
<rscale>  2 0.20534748E+03</rscale>
<asrwt>0</asrwt>
<pdfrwt beam="1">  1       21 0.37223557E-02 0.20534748E+03</pdfrwt>
<pdfrwt beam="2">  1       21 0.29680314E+00 0.20534748E+03</pdfrwt>
<totfact> 0.15543043E+04</totfact>
</mgrwt>
</event>
<event>
 4    3  0.3905963E+000  0.1909657E+03  0.7546771E-02  0.1157593E+00
         21   -1    0    0  503  502  0.00000000000E+00  0.00000000000E+00  0.14922517266E+03  0.14922517266E+03  0.00000000000E+00 0.  1.
         21   -1    0    0  501  503 -0.00000000000E+00 -0.00000000000E+00 -0.34395262761E+03  0.34395262761E+03  0.00000000000E+00 0.  1.
          6    1    1    2  501    0 -0.80538683058E+02  0.72409077179E+01 -0.23003911205E+03  0.29897475359E+03  0.17300000000E+03 0.  1.
         -6    1    1    2    0  502  0.80538683058E+02 -0.72409077179E+01  0.35311657099E+02  0.19420304668E+03  0.17300000000E+03 0.  1.
<mgrwt>
<rscale>  2 0.19096573E+03</rscale>
<asrwt>0</asrwt>
<pdfrwt beam="1">  1       21 0.22957719E-01 0.19096573E+03</pdfrwt>
<pdfrwt beam="2">  1       21 0.52915788E-01 0.19096573E+03</pdfrwt>
<totfact> 0.60317625E+04</totfact>
</mgrwt>
</event>
<event>
 4    3  0.3905963E+000  0.2054232E+03  0.7546771E-02  0.1145242E+00
         21   -1    0    0  501  502  0.00000000000E+00  0.00000000000E+00  0.28342996412E+03  0.28342996412E+03  0.00000000000E+00 0.  1.
         21   -1    0    0  502  503 -0.00000000000E+00 -0.00000000000E+00 -0.48488560597E+03  0.48488560597E+03  0.00000000000E+00 0.  1.
          6    1    1    2  501    0  0.56774977094E+02 -0.95112006404E+02  0.21905823135E+03  0.30030850889E+03  0.17300000000E+03 0.  1.
         -6    1    1    2    0  503 -0.56774977094E+02  0.95112006404E+02 -0.42051387320E+03  0.46800706121E+03  0.17300000000E+03 0.  1.
<mgrwt>
<rscale>  2 0.20542320E+03</rscale>
<asrwt>0</asrwt>
<pdfrwt beam="1">  1       21 0.43604610E-01 0.20542320E+03</pdfrwt>
<pdfrwt beam="2">  1       21 0.74597784E-01 0.20542320E+03</pdfrwt>
<totfact> 0.80594121E+03</totfact>
</mgrwt>
</event>
<event>
 4    3  0.3905963E+000  0.1955099E+03  0.7546771E-02  0.1153584E+00
         21   -1    0    0  503  502  0.00000000000E+00  0.00000000000E+00  0.26689948826E+03  0.26689948826E+03  0.00000000000E+00 0. -1.
         21   -1    0    0  501  503 -0.00000000000E+00 -0.00000000000E+00 -0.23438756327E+03  0.23438756327E+03  0.00000000000E+00 0. -1.
          6    1    1    2  501    0 -0.78149100525E+02 -0.46774310593E+02 -0.14006611901E+03  0.24050495991E+03  0.17300000000E+03 0. -1.
         -6    1    1    2    0  502  0.78149100525E+02  0.46774310593E+02  0.17257804400E+03  0.26078209163E+03  0.17300000000E+03 0. -1.
<mgrwt>
<rscale>  2 0.19550989E+03</rscale>
<asrwt>0</asrwt>
<pdfrwt beam="1">  1       21 0.41061460E-01 0.19550989E+03</pdfrwt>
<pdfrwt beam="2">  1       21 0.36059625E-01 0.19550989E+03</pdfrwt>
<totfact> 0.42305356E+04</totfact>
</mgrwt>
</event>
<event>
 4    3  0.3905963E+000  0.2034904E+03  0.7546771E-02  0.1146827E+00
         21   -1    0    0  501  502  0.00000000000E+00  0.00000000000E+00  0.10064802899E+04  0.10064802899E+04  0.00000000000E+00 0. -1.
         21   -1    0    0  502  503 -0.00000000000E+00 -0.00000000000E+00 -0.55806486634E+02  0.55806486634E+02  0.00000000000E+00 0. -1.
          6    1    1    2  501    0  0.10636643870E+03 -0.12866383581E+02  0.74761112873E+03  0.77481014636E+03  0.17300000000E+03 0. -1.
         -6    1    1    2    0  503 -0.10636643870E+03  0.12866383581E+02  0.20306267456E+03  0.28747663020E+03  0.17300000000E+03 0. -1.
<mgrwt>
<rscale>  2 0.20349045E+03</rscale>
<asrwt>0</asrwt>
<pdfrwt beam="1">  1       21 0.15484311E+00 0.20349045E+03</pdfrwt>
<pdfrwt beam="2">  1       21 0.85856141E-02 0.20349045E+03</pdfrwt>
<totfact> 0.28953738E+04</totfact>
</mgrwt>
</event>
<event>
 4    3  0.3905963E+000  0.2355726E+03  0.7546771E-02  0.1122778E+00
         21   -1    0    0  503  502  0.00000000000E+00  0.00000000000E+00  0.83246654920E+02  0.83246654920E+02  0.00000000000E+00 0.  1.
         21   -1    0    0  501  503 -0.00000000000E+00 -0.00000000000E+00 -0.12190262046E+04  0.12190262046E+04  0.00000000000E+00 0. -1.
          6    1    1    2  501    0  0.10465611877E+03  0.12088241726E+03 -0.10062105172E+04  0.10334186310E+04  0.17300000000E+03 0. -1.
         -6    1    1    2    0  502 -0.10465611877E+03 -0.12088241726E+03 -0.12956903245E+03  0.26885422847E+03  0.17300000000E+03 0.  1.
<mgrwt>
<rscale>  2 0.23557263E+03</rscale>
<asrwt>0</asrwt>
<pdfrwt beam="1">  1       21 0.12807178E-01 0.23557263E+03</pdfrwt>
<pdfrwt beam="2">  1       21 0.18754249E+00 0.23557263E+03</pdfrwt>
<totfact> 0.81748003E+03</totfact>
</mgrwt>
</event>
<event>
 4    3  0.3905963E+000  0.2145535E+03  0.7546771E-02  0.1138010E+00
         21   -1    0    0  501  502  0.00000000000E+00  0.00000000000E+00  0.14957277592E+03  0.14957277592E+03  0.00000000000E+00 0. -1.
         21   -1    0    0  502  503 -0.00000000000E+00 -0.00000000000E+00 -0.30815168537E+03  0.30815168537E+03  0.00000000000E+00 0.  1.
          6    1    1    2  501    0  0.14729109636E+02  0.12604471208E+03 -0.87400104015E+02  0.23167216988E+03  0.17300000000E+03 0.  1.
         -6    1    1    2    0  503 -0.14729109636E+02 -0.12604471208E+03 -0.71178805438E+02  0.22605229142E+03  0.17300000000E+03 0.  1.
<mgrwt>
<rscale>  2 0.21455353E+03</rscale>
<asrwt>0</asrwt>
<pdfrwt beam="1">  1       21 0.23011196E-01 0.21455353E+03</pdfrwt>
<pdfrwt beam="2">  1       21 0.47407952E-01 0.21455353E+03</pdfrwt>
<totfact> 0.74755298E+04</totfact>
</mgrwt>
</event>
<event>
 4    3  0.3905963E+000  0.2207701E+03  0.7546771E-02  0.1133310E+00
         21   -1    0    0  503  502  0.00000000000E+00  0.00000000000E+00  0.19343612382E+03  0.19343612382E+03  0.00000000000E+00 0. -1.
         21   -1    0    0  501  503 -0.00000000000E+00 -0.00000000000E+00 -0.71462196050E+03  0.71462196050E+03  0.00000000000E+00 0. -1.
          6    1    1    2  501    0 -0.69351709440E+02 -0.11832493363E+03 -0.62591358085E+03  0.66370720971E+03  0.17300000000E+03 0. -1.
         -6    1    1    2    0  502  0.69351709440E+02  0.11832493363E+03  0.10472774417E+03  0.24435087461E+03  0.17300000000E+03 0. -1.
<mgrwt>
<rscale>  2 0.22077013E+03</rscale>
<asrwt>0</asrwt>
<pdfrwt beam="1">  1       21 0.29759404E-01 0.22077013E+03</pdfrwt>
<pdfrwt beam="2">  1       21 0.10994184E+00 0.22077013E+03</pdfrwt>
<totfact> 0.69346582E+03</totfact>
</mgrwt>
</event>
<event>
 4    3  0.3905963E+000  0.2587865E+03  0.7546771E-02  0.1107875E+00
         21   -1    0    0  503  502  0.00000000000E+00  0.00000000000E+00  0.19362222993E+03  0.19362222993E+03  0.00000000000E+00 0. -1.
         21   -1    0    0  501  503 -0.00000000000E+00 -0.00000000000E+00 -0.50233173849E+03  0.50233173849E+03  0.00000000000E+00 0. -1.
          6    1    1    2  501    0 -0.16856520833E+03 -0.92882795340E+02 -0.34855180882E+03  0.43411842458E+03  0.17300000000E+03 0. -1.
         -6    1    1    2    0  502  0.16856520833E+03  0.92882795340E+02  0.39842300258E+02  0.26183554384E+03  0.17300000000E+03 0. -1.
<mgrwt>
<rscale>  2 0.25878648E+03</rscale>
<asrwt>0</asrwt>
<pdfrwt beam="1">  1       21 0.29788036E-01 0.25878648E+03</pdfrwt>
<pdfrwt beam="2">  1       21 0.77281805E-01 0.25878648E+03</pdfrwt>
<totfact> 0.15470766E+04</totfact>
</mgrwt>
</event>
<event>
 4    3  0.3905963E+000  0.1778704E+03  0.7546771E-02  0.1169880E+00
         21   -1    0    0  501  502  0.00000000000E+00  0.00000000000E+00  0.16442290841E+03  0.16442290841E+03  0.00000000000E+00 0. -1.
         21   -1    0    0  502  503 -0.00000000000E+00 -0.00000000000E+00 -0.35352329003E+03  0.35352329003E+03  0.00000000000E+00 0. -1.
          6    1    1    2  501    0 -0.63648914883E+01 -0.40845666575E+02  0.80273757278E+02  0.19514547504E+03  0.17300000000E+03 0. -1.
         -6    1    1    2    0  503  0.63648914883E+01  0.40845666575E+02 -0.26937413890E+03  0.32280072340E+03  0.17300000000E+03 0. -1.
<mgrwt>
<rscale>  2 0.17787040E+03</rscale>
<asrwt>0</asrwt>
<pdfrwt beam="1">  1       21 0.25295832E-01 0.17787040E+03</pdfrwt>
<pdfrwt beam="2">  1       21 0.54388198E-01 0.17787040E+03</pdfrwt>
<totfact> 0.47638386E+04</totfact>
</mgrwt>
</event>
<event>
 4    3  0.3905963E+000  0.2277549E+03  0.7546771E-02  0.1128230E+00
         21   -1    0    0  503  502  0.00000000000E+00  0.00000000000E+00  0.38562712818E+02  0.38562712818E+02  0.00000000000E+00 0.  1.
         21   -1    0    0  501  503 -0.00000000000E+00 -0.00000000000E+00 -0.14006973082E+04  0.14006973082E+04  0.00000000000E+00 0.  1.
          6    1    1    2  501    0 -0.70372858068E+02 -0.13034933850E+03 -0.82438620636E+03  0.85526890885E+03  0.17300000000E+03 0.  1.
         -6    1    1    2    0  502  0.70372858068E+02  0.13034933850E+03 -0.53774838902E+03  0.58399111217E+03  0.17300000000E+03 0.  1.
<mgrwt>
<rscale>  2 0.22775489E+03</rscale>
<asrwt>0</asrwt>
<pdfrwt beam="1">  1       21 0.59327254E-02 0.22775489E+03</pdfrwt>
<pdfrwt beam="2">  1       21 0.21549188E+00 0.22775489E+03</pdfrwt>
<totfact> 0.21000657E+04</totfact>
</mgrwt>
</event>
<event>
 4    3  0.3905963E+000  0.2534626E+03  0.7546771E-02  0.1111136E+00
         21   -1    0    0  501  502  0.00000000000E+00  0.00000000000E+00  0.94568891782E+03  0.94568891782E+03  0.00000000000E+00 0.  1.
         21   -1    0    0  502  503 -0.00000000000E+00 -0.00000000000E+00 -0.70759544974E+02  0.70759544974E+02  0.00000000000E+00 0.  1.
          6    1    1    2  501    0  0.10644759415E+03 -0.15160209089E+03  0.33588493886E+03  0.42078732920E+03  0.17300000000E+03 0.  1.
         -6    1    1    2    0  503 -0.10644759415E+03  0.15160209089E+03  0.53904443399E+03  0.59566113359E+03  0.17300000000E+03 0.  1.
<mgrwt>
<rscale>  2 0.25346259E+03</rscale>
<asrwt>0</asrwt>
<pdfrwt beam="1">  1       21 0.14549059E+00 0.25346259E+03</pdfrwt>
<pdfrwt beam="2">  1       21 0.10886085E-01 0.25346259E+03</pdfrwt>
<totfact> 0.21805775E+04</totfact>
</mgrwt>
</event>
<event>
 4    3  0.3905963E+000  0.2313517E+03  0.7546771E-02  0.1125692E+00
         21   -1    0    0  503  502  0.00000000000E+00  0.00000000000E+00  0.95587617517E+02  0.95587617517E+02  0.00000000000E+00 0. -1.
         21   -1    0    0  501  503 -0.00000000000E+00 -0.00000000000E+00 -0.55997334021E+03  0.55997334021E+03  0.00000000000E+00 0.  1.
          6    1    1    2  501    0  0.32090264672E+01 -0.15357181279E+03 -0.23461297608E+03  0.32949483772E+03  0.17300000000E+03 0.  1.
         -6    1    1    2    0  502 -0.32090264672E+01  0.15357181279E+03 -0.22977274662E+03  0.32606612002E+03  0.17300000000E+03 0.  1.
<mgrwt>
<rscale>  2 0.23135168E+03</rscale>
<asrwt>0</asrwt>
<pdfrwt beam="1">  1       21 0.14705787E-01 0.23135168E+03</pdfrwt>
<pdfrwt beam="2">  1       21 0.86149745E-01 0.23135168E+03</pdfrwt>
<totfact> 0.46373084E+04</totfact>
</mgrwt>
</event>
<event>
 4    3  0.3905963E+000  0.1966102E+03  0.7546771E-02  0.1152631E+00
         21   -1    0    0  503  502  0.00000000000E+00  0.00000000000E+00  0.95342944765E+02  0.95342944765E+02  0.00000000000E+00 0.  1.
         21   -1    0    0  501  503 -0.00000000000E+00 -0.00000000000E+00 -0.56772192770E+03  0.56772192770E+03  0.00000000000E+00 0.  1.
          6    1    1    2  501    0  0.78650362495E+02 -0.50405140489E+02 -0.41344399609E+03  0.45781163770E+03  0.17300000000E+03 0.  1.
         -6    1    1    2    0  502 -0.78650362495E+02  0.50405140489E+02 -0.58934986846E+02  0.20525323477E+03  0.17300000000E+03 0.  1.
<mgrwt>
<rscale>  2 0.19661017E+03</rscale>
<asrwt>0</asrwt>
<pdfrwt beam="1">  1       21 0.14668145E-01 0.19661017E+03</pdfrwt>
<pdfrwt beam="2">  1       21 0.87341834E-01 0.19661017E+03</pdfrwt>
<totfact> 0.45906339E+04</totfact>
</mgrwt>
</event>
<event>
 4    3  0.3905963E+000  0.1761606E+03  0.7546771E-02  0.1171571E+00
         21   -1    0    0  503  502  0.00000000000E+00  0.00000000000E+00  0.12408503723E+03  0.12408503723E+03  0.00000000000E+00 0.  1.
         21   -1    0    0  501  503 -0.00000000000E+00 -0.00000000000E+00 -0.26337563107E+03  0.26337563107E+03  0.00000000000E+00 0.  1.
          6    1    1    2  501    0 -0.32348454850E+02  0.75582538311E+01 -0.11315486330E+03  0.20937185298E+03  0.17300000000E+03 0.  1.
         -6    1    1    2    0  502  0.32348454850E+02 -0.75582538311E+01 -0.26135730541E+02  0.17808881532E+03  0.17300000000E+03 0.  1.
<mgrwt>
<rscale>  2 0.17616058E+03</rscale>
<asrwt>0</asrwt>
<pdfrwt beam="1">  1       21 0.19090006E-01 0.17616058E+03</pdfrwt>
<pdfrwt beam="2">  1       21 0.40519327E-01 0.17616058E+03</pdfrwt>
<totfact> 0.14853980E+05</totfact>
</mgrwt>
</event>
<event>
 4    3  0.3905963E+000  0.1847403E+03  0.7546771E-02  0.1163293E+00
         21   -1    0    0  501  502  0.00000000000E+00  0.00000000000E+00  0.42425859151E+02  0.42425859151E+02  0.00000000000E+00 0. -1.
         21   -1    0    0  502  503 -0.00000000000E+00 -0.00000000000E+00 -0.97656391014E+03  0.97656391014E+03  0.00000000000E+00 0. -1.
          6    1    1    2  501    0 -0.50918438533E+02  0.40091264224E+02 -0.25316846781E+03  0.31340591880E+03  0.17300000000E+03 0. -1.
         -6    1    1    2    0  503  0.50918438533E+02 -0.40091264224E+02 -0.68096958319E+03  0.70558385049E+03  0.17300000000E+03 0. -1.
<mgrwt>
<rscale>  2 0.18474035E+03</rscale>
<asrwt>0</asrwt>
<pdfrwt beam="1">  1       21 0.65270560E-02 0.18474035E+03</pdfrwt>
<pdfrwt beam="2">  1       21 0.15024059E+00 0.18474035E+03</pdfrwt>
<totfact> 0.51017132E+04</totfact>
</mgrwt>
</event>
<event>
 4    3  0.3905963E+000  0.1835377E+03  0.7546771E-02  0.1164422E+00
         21   -1    0    0  501  502  0.00000000000E+00  0.00000000000E+00  0.58294846161E+02  0.58294846161E+02  0.00000000000E+00 0. -1.
         21   -1    0    0  502  503 -0.00000000000E+00 -0.00000000000E+00 -0.72007788548E+03  0.72007788548E+03  0.00000000000E+00 0. -1.
          6    1    1    2  501    0  0.11302075833E+02  0.60244151170E+02 -0.15793007085E+03  0.24213219932E+03  0.17300000000E+03 0. -1.
         -6    1    1    2    0  503 -0.11302075833E+02 -0.60244151170E+02 -0.50385296847E+03  0.53624053232E+03  0.17300000000E+03 0. -1.
<mgrwt>
<rscale>  2 0.18353772E+03</rscale>
<asrwt>0</asrwt>
<pdfrwt beam="1">  1       21 0.89684384E-02 0.18353772E+03</pdfrwt>
<pdfrwt beam="2">  1       21 0.11078121E+00 0.18353772E+03</pdfrwt>
<totfact> 0.63375825E+04</totfact>
</mgrwt>
</event>
<event>
 4    3  0.3905963E+000  0.1929889E+03  0.7546771E-02  0.1155793E+00
         21   -1    0    0  501  502  0.00000000000E+00  0.00000000000E+00  0.12390015222E+04  0.12390015222E+04  0.00000000000E+00 0. -1.
         21   -1    0    0  502  503 -0.00000000000E+00 -0.00000000000E+00 -0.57967372129E+02  0.57967372129E+02  0.00000000000E+00 0. -1.
          6    1    1    2  501    0 -0.17493485964E+02 -0.83723835093E+02  0.10404680946E+04  0.10582147979E+04  0.17300000000E+03 0. -1.
         -6    1    1    2    0  503  0.17493485964E+02  0.83723835093E+02  0.14056605548E+03  0.23875409644E+03  0.17300000000E+03 0. -1.
<mgrwt>
<rscale>  2 0.19298887E+03</rscale>
<asrwt>0</asrwt>
<pdfrwt beam="1">  1       21 0.19061560E+00 0.19298887E+03</pdfrwt>
<pdfrwt beam="2">  1       21 0.89180581E-02 0.19298887E+03</pdfrwt>
<totfact> 0.15334735E+04</totfact>
</mgrwt>
</event>
<event>
 4    3  0.3905963E+000  0.1881927E+03  0.7546771E-02  0.1160102E+00
         21   -1    0    0  501  502  0.00000000000E+00  0.00000000000E+00  0.25752585837E+03  0.25752585837E+03  0.00000000000E+00 0.  1.
         21   -1    0    0  502  503 -0.00000000000E+00 -0.00000000000E+00 -0.20994184863E+03  0.20994184863E+03  0.00000000000E+00 0.  1.
          6    1    1    2  501    0  0.74049619142E+02 -0.20331716265E+01  0.16106628380E+03  0.24770714091E+03  0.17300000000E+03 0.  1.
         -6    1    1    2    0  503 -0.74049619142E+02  0.20331716265E+01 -0.11348227406E+03  0.21976056609E+03  0.17300000000E+03 0.  1.
<mgrwt>
<rscale>  2 0.18819267E+03</rscale>
<asrwt>0</asrwt>
<pdfrwt beam="1">  1       21 0.39619363E-01 0.18819267E+03</pdfrwt>
<pdfrwt beam="2">  1       21 0.32298746E-01 0.18819267E+03</pdfrwt>
<totfact> 0.56748434E+04</totfact>
</mgrwt>
</event>
<event>
 4    3  0.3905963E+000  0.2946503E+03  0.7546771E-02  0.1087946E+00
         21   -1    0    0  503  502  0.00000000000E+00  0.00000000000E+00  0.25565874366E+03  0.25565874366E+03  0.00000000000E+00 0.  1.
         21   -1    0    0  501  503 -0.00000000000E+00 -0.00000000000E+00 -0.43616190362E+03  0.43616190362E+03  0.00000000000E+00 0.  1.
          6    1    1    2  501    0 -0.12115374459E+03 -0.20545450832E+03 -0.25301930411E+03  0.38837810581E+03  0.17300000000E+03 0.  1.
         -6    1    1    2    0  502  0.12115374459E+03  0.20545450832E+03  0.72516144146E+02  0.30344254148E+03  0.17300000000E+03 0.  1.
<mgrwt>
<rscale>  2 0.29465028E+03</rscale>
<asrwt>0</asrwt>
<pdfrwt beam="1">  1       21 0.39332115E-01 0.29465028E+03</pdfrwt>
<pdfrwt beam="2">  1       21 0.67101831E-01 0.29465028E+03</pdfrwt>
<totfact> 0.11978142E+04</totfact>
</mgrwt>
</event>
<event>
 4    3  0.3905963E+000  0.2954753E+03  0.7546771E-02  0.1087525E+00
         21   -1    0    0  501  502  0.00000000000E+00  0.00000000000E+00  0.27094860967E+03  0.27094860967E+03  0.00000000000E+00 0.  1.
         21   -1    0    0  502  503 -0.00000000000E+00 -0.00000000000E+00 -0.47244601054E+03  0.47244601054E+03  0.00000000000E+00 0. -1.
          6    1    1    2  501    0  0.30497089247E+02  0.23758489952E+03  0.10884716583E+03  0.31488626906E+03  0.17300000000E+03 0.  1.
         -6    1    1    2    0  503 -0.30497089247E+02 -0.23758489952E+03 -0.31034456669E+03  0.42850835116E+03  0.17300000000E+03 0. -1.
<mgrwt>
<rscale>  2 0.29547531E+03</rscale>
<asrwt>0</asrwt>
<pdfrwt beam="1">  1       21 0.41684402E-01 0.29547531E+03</pdfrwt>
<pdfrwt beam="2">  1       21 0.72684001E-01 0.29547531E+03</pdfrwt>
<totfact> 0.88983330E+03</totfact>
</mgrwt>
</event>
<event>
 4    3  0.3905963E+000  0.1991895E+03  0.7546771E-02  0.1150425E+00
         21   -1    0    0  503  502  0.00000000000E+00  0.00000000000E+00  0.20985905593E+03  0.20985905593E+03  0.00000000000E+00 0. -1.
         21   -1    0    0  501  503 -0.00000000000E+00 -0.00000000000E+00 -0.19129034724E+03  0.19129034724E+03  0.00000000000E+00 0. -1.
          6    1    1    2  501    0 -0.75204988730E+02  0.63966019590E+02 -0.12362208364E+02  0.19957270903E+03  0.17300000000E+03 0. -1.
         -6    1    1    2    0  502  0.75204988730E+02 -0.63966019590E+02  0.30930917047E+02  0.20157669414E+03  0.17300000000E+03 0. -1.
<mgrwt>
<rscale>  2 0.19918946E+03</rscale>
<asrwt>0</asrwt>
<pdfrwt beam="1">  1       21 0.32286009E-01 0.19918946E+03</pdfrwt>
<pdfrwt beam="2">  1       21 0.29429284E-01 0.19918946E+03</pdfrwt>
<totfact> 0.10183290E+05</totfact>
</mgrwt>
</event>
<event>
 4    3  0.3905963E+000  0.3208188E+03  0.7546771E-02  0.1075273E+00
         21   -1    0    0  501  502  0.00000000000E+00  0.00000000000E+00  0.22946822078E+04  0.22946822078E+04  0.00000000000E+00 0. -1.
         21   -1    0    0  502  503 -0.00000000000E+00 -0.00000000000E+00 -0.46225562546E+02  0.46225562546E+02  0.00000000000E+00 0. -1.
          6    1    1    2  501    0  0.26773620846E+03  0.36235889022E+02  0.13258731815E+04  0.13641350411E+04  0.17300000000E+03 0. -1.
         -6    1    1    2    0  503 -0.26773620846E+03 -0.36235889022E+02  0.92258346375E+03  0.97677272923E+03  0.17300000000E+03 0. -1.
<mgrwt>
<rscale>  2 0.32081882E+03</rscale>
<asrwt>0</asrwt>
<pdfrwt beam="1">  1       21 0.35302794E+00 0.32081882E+03</pdfrwt>
<pdfrwt beam="2">  1       21 0.71116268E-02 0.32081882E+03</pdfrwt>
<totfact> 0.21617997E+03</totfact>
</mgrwt>
</event>
<event>
 4    3  0.3905963E+000  0.2293734E+03  0.7546771E-02  0.1127082E+00
         21   -1    0    0  503  502  0.00000000000E+00  0.00000000000E+00  0.11775300277E+03  0.11775300277E+03  0.00000000000E+00 0. -1.
         21   -1    0    0  501  503 -0.00000000000E+00 -0.00000000000E+00 -0.48847328635E+03  0.48847328635E+03  0.00000000000E+00 0.  1.
          6    1    1    2  501    0  0.14780980271E+03 -0.28903637633E+02 -0.96826549807E+02  0.24897296800E+03  0.17300000000E+03 0. -1.
         -6    1    1    2    0  502 -0.14780980271E+03  0.28903637633E+02 -0.27389373378E+03  0.35725332112E+03  0.17300000000E+03 0.  1.
<mgrwt>
<rscale>  2 0.22937340E+03</rscale>
<asrwt>0</asrwt>
<pdfrwt beam="1">  1       21 0.18115847E-01 0.22937340E+03</pdfrwt>
<pdfrwt beam="2">  1       21 0.75149736E-01 0.22937340E+03</pdfrwt>
<totfact> 0.43132285E+04</totfact>
</mgrwt>
</event>
<event>
 4    3  0.3905963E+000  0.1794368E+03  0.7546771E-02  0.1168349E+00
         21   -1    0    0  501  502  0.00000000000E+00  0.00000000000E+00  0.53274148241E+02  0.53274148241E+02  0.00000000000E+00 0.  1.
         21   -1    0    0  502  503 -0.00000000000E+00 -0.00000000000E+00 -0.62741968905E+03  0.62741968905E+03  0.00000000000E+00 0.  1.
          6    1    1    2  501    0 -0.47618989318E+02  0.99705480218E+00 -0.35229991526E+03  0.39536412654E+03  0.17300000000E+03 0.  1.
         -6    1    1    2    0  503  0.47618989318E+02 -0.99705480218E+00 -0.22184562555E+03  0.28532971075E+03  0.17300000000E+03 0.  1.
<mgrwt>
<rscale>  2 0.17943679E+03</rscale>
<asrwt>0</asrwt>
<pdfrwt beam="1">  1       21 0.81960225E-02 0.17943679E+03</pdfrwt>
<pdfrwt beam="2">  1       21 0.96526110E-01 0.17943679E+03</pdfrwt>
<totfact> 0.10321380E+05</totfact>
</mgrwt>
</event>
<event>
 4    3  0.3905963E+000  0.2211809E+03  0.7546771E-02  0.1133006E+00
         21   -1    0    0  503  502  0.00000000000E+00  0.00000000000E+00  0.11719606912E+03  0.11719606912E+03  0.00000000000E+00 0.  1.
         21   -1    0    0  501  503 -0.00000000000E+00 -0.00000000000E+00 -0.41804471449E+03  0.41804471449E+03  0.00000000000E+00 0.  1.
          6    1    1    2  501    0  0.78331199209E+02 -0.11338522182E+03 -0.16069870844E+03  0.27339542826E+03  0.17300000000E+03 0.  1.
         -6    1    1    2    0  502 -0.78331199209E+02  0.11338522182E+03 -0.14014993693E+03  0.26184535535E+03  0.17300000000E+03 0.  1.
<mgrwt>
<rscale>  2 0.22118089E+03</rscale>
<asrwt>0</asrwt>
<pdfrwt beam="1">  1       21 0.18030165E-01 0.22118089E+03</pdfrwt>
<pdfrwt beam="2">  1       21 0.64314571E-01 0.22118089E+03</pdfrwt>
<totfact> 0.61621945E+04</totfact>
</mgrwt>
</event>
<event>
 4    3  0.3905963E+000  0.1760905E+03  0.7546771E-02  0.1171641E+00
         21   -1    0    0  501  502  0.00000000000E+00  0.00000000000E+00  0.21112590020E+03  0.21112590020E+03  0.00000000000E+00 0. -1.
         21   -1    0    0  502  503 -0.00000000000E+00 -0.00000000000E+00 -0.15882920796E+03  0.15882920796E+03  0.00000000000E+00 0. -1.
          6    1    1    2  501    0  0.28888568330E+02 -0.15630987892E+02  0.76908258415E+02  0.19215295307E+03  0.17300000000E+03 0. -1.
         -6    1    1    2    0  503 -0.28888568330E+02  0.15630987892E+02 -0.24611566177E+02  0.17780215508E+03  0.17300000000E+03 0. -1.
<mgrwt>
<rscale>  2 0.17609054E+03</rscale>
<asrwt>0</asrwt>
<pdfrwt beam="1">  1       21 0.32480908E-01 0.17609054E+03</pdfrwt>
<pdfrwt beam="2">  1       21 0.24435263E-01 0.17609054E+03</pdfrwt>
<totfact> 0.14508986E+05</totfact>
</mgrwt>
</event>
<event>
 4    3  0.3905963E+000  0.2625335E+03  0.7546771E-02  0.1105631E+00
         21   -1    0    0  503  502  0.00000000000E+00  0.00000000000E+00  0.56843902536E+03  0.56843902536E+03  0.00000000000E+00 0.  1.
         21   -1    0    0  501  503 -0.00000000000E+00 -0.00000000000E+00 -0.19433128222E+03  0.19433128222E+03  0.00000000000E+00 0.  1.
          6    1    1    2  501    0  0.19514220494E+03 -0.30237965355E+02 -0.46825790459E+02  0.26667671318E+03  0.17300000000E+03 0.  1.
         -6    1    1    2    0  502 -0.19514220494E+03  0.30237965355E+02  0.42093353360E+03  0.49609359440E+03  0.17300000000E+03 0.  1.
<mgrwt>
<rscale>  2 0.26253345E+03</rscale>
<asrwt>0</asrwt>
<pdfrwt beam="1">  1       21 0.87452157E-01 0.26253345E+03</pdfrwt>
<pdfrwt beam="2">  1       21 0.29897120E-01 0.26253345E+03</pdfrwt>
<totfact> 0.11548967E+04</totfact>
</mgrwt>
</event>
<event>
 4    3  0.3905963E+000  0.1852566E+03  0.7546771E-02  0.1162811E+00
         21   -1    0    0  503  502  0.00000000000E+00  0.00000000000E+00  0.29501406655E+03  0.29501406655E+03  0.00000000000E+00 0.  1.
         21   -1    0    0  501  503 -0.00000000000E+00 -0.00000000000E+00 -0.14378612168E+03  0.14378612168E+03  0.00000000000E+00 0.  1.
          6    1    1    2  501    0  0.10121515502E+00 -0.66264482965E+02 -0.20253430024E+02  0.18636038574E+03  0.17300000000E+03 0.  1.
         -6    1    1    2    0  502 -0.10121515502E+00  0.66264482965E+02  0.17148137489E+03  0.25243980249E+03  0.17300000000E+03 0.  1.
<mgrwt>
<rscale>  2 0.18525656E+03</rscale>
<asrwt>0</asrwt>
<pdfrwt beam="1">  1       21 0.45386779E-01 0.18525656E+03</pdfrwt>
<pdfrwt beam="2">  1       21 0.22120942E-01 0.18525656E+03</pdfrwt>
<totfact> 0.89209491E+04</totfact>
</mgrwt>
</event>
<event>
 4    3  0.3905963E+000  0.2197466E+03  0.7546771E-02  0.1134072E+00
         21   -1    0    0  503  502  0.00000000000E+00  0.00000000000E+00  0.20997810590E+03  0.20997810590E+03  0.00000000000E+00 0.  1.
         21   -1    0    0  501  503 -0.00000000000E+00 -0.00000000000E+00 -0.24813238038E+03  0.24813238038E+03  0.00000000000E+00 0.  1.
          6    1    1    2  501    0  0.12710684741E+03 -0.46940427207E+02 -0.81048521931E+02  0.23421660332E+03  0.17300000000E+03 0.  1.
         -6    1    1    2    0  502 -0.12710684741E+03  0.46940427207E+02  0.42894247453E+02  0.22389388296E+03  0.17300000000E+03 0.  1.
<mgrwt>
<rscale>  2 0.21974657E+03</rscale>
<asrwt>0</asrwt>
<pdfrwt beam="1">  1       21 0.32304324E-01 0.21974657E+03</pdfrwt>
<pdfrwt beam="2">  1       21 0.38174212E-01 0.21974657E+03</pdfrwt>
<totfact> 0.60267807E+04</totfact>
</mgrwt>
</event>
<event>
 4    3  0.3905963E+000  0.2585641E+03  0.7546771E-02  0.1108009E+00
         21   -1    0    0  503  502  0.00000000000E+00  0.00000000000E+00  0.16967532425E+03  0.16967532425E+03  0.00000000000E+00 0. -1.
         21   -1    0    0  501  503 -0.00000000000E+00 -0.00000000000E+00 -0.42737283367E+03  0.42737283367E+03  0.00000000000E+00 0.  1.
          6    1    1    2  501    0 -0.17730867426E+03 -0.74081291697E+02 -0.21224468745E+03  0.33451937328E+03  0.17300000000E+03 0.  1.
         -6    1    1    2    0  502  0.17730867426E+03  0.74081291697E+02 -0.45452821969E+02  0.26252878465E+03  0.17300000000E+03 0. -1.
<mgrwt>
<rscale>  2 0.25856412E+03</rscale>
<asrwt>0</asrwt>
<pdfrwt beam="1">  1       21 0.26103896E-01 0.25856412E+03</pdfrwt>
<pdfrwt beam="2">  1       21 0.65749667E-01 0.25856412E+03</pdfrwt>
<totfact> 0.28682731E+04</totfact>
</mgrwt>
</event>
<event>
 4    3  0.3905963E+000  0.2087039E+03  0.7546771E-02  0.1142596E+00
         21   -1    0    0  501  502  0.00000000000E+00  0.00000000000E+00  0.60359472422E+03  0.60359472422E+03  0.00000000000E+00 0.  1.
         21   -1    0    0  502  503 -0.00000000000E+00 -0.00000000000E+00 -0.21800582092E+03  0.21800582092E+03  0.00000000000E+00 0. -1.
          6    1    1    2  501    0 -0.10053274184E+03  0.59342229398E+02  0.52879415554E+03  0.56848974600E+03  0.17300000000E+03 0.  1.
         -6    1    1    2    0  503  0.10053274184E+03 -0.59342229398E+02 -0.14320525224E+03  0.25311079914E+03  0.17300000000E+03 0. -1.
<mgrwt>
<rscale>  2 0.20870393E+03</rscale>
<asrwt>0</asrwt>
<pdfrwt beam="1">  1       21 0.92860726E-01 0.20870393E+03</pdfrwt>
<pdfrwt beam="2">  1       21 0.33539357E-01 0.20870393E+03</pdfrwt>
<totfact> 0.82693465E+03</totfact>
</mgrwt>
</event>
<event>
 4    3  0.3905963E+000  0.1944226E+03  0.7546771E-02  0.1154532E+00
         21   -1    0    0  503  502  0.00000000000E+00  0.00000000000E+00  0.13183095324E+03  0.13183095324E+03  0.00000000000E+00 0.  1.
         21   -1    0    0  501  503 -0.00000000000E+00 -0.00000000000E+00 -0.14760238923E+04  0.14760238923E+04  0.00000000000E+00 0.  1.
          6    1    1    2  501    0  0.79074833555E+02 -0.40228339038E+02 -0.13937261453E+04  0.14072216302E+04  0.17300000000E+03 0.  1.
         -6    1    1    2    0  502 -0.79074833555E+02  0.40228339038E+02  0.49533206229E+02  0.20063321530E+03  0.17300000000E+03 0.  1.
<mgrwt>
<rscale>  2 0.19442260E+03</rscale>
<asrwt>0</asrwt>
<pdfrwt beam="1">  1       21 0.20281686E-01 0.19442260E+03</pdfrwt>
<pdfrwt beam="2">  1       21 0.22708059E+00 0.19442260E+03</pdfrwt>
<totfact> 0.20442662E+03</totfact>
</mgrwt>
</event>
<event>
 4    3  0.3905963E+000  0.1779620E+03  0.7546771E-02  0.1169790E+00
         21   -1    0    0  503  502  0.00000000000E+00  0.00000000000E+00  0.40857983559E+03  0.40857983559E+03  0.00000000000E+00 0. -1.
         21   -1    0    0  501  503 -0.00000000000E+00 -0.00000000000E+00 -0.10135536939E+03  0.10135536939E+03  0.00000000000E+00 0. -1.
          6    1    1    2  501    0  0.31816914960E+02 -0.27002974953E+02  0.29951662831E+02  0.18046489642E+03  0.17300000000E+03 0. -1.
         -6    1    1    2    0  502 -0.31816914960E+02  0.27002974953E+02  0.27727280337E+03  0.32947030856E+03  0.17300000000E+03 0. -1.
<mgrwt>
<rscale>  2 0.17796201E+03</rscale>
<asrwt>0</asrwt>
<pdfrwt beam="1">  1       21 0.62858435E-01 0.17796201E+03</pdfrwt>
<pdfrwt beam="2">  1       21 0.15593134E-01 0.17796201E+03</pdfrwt>
<totfact> 0.86178754E+04</totfact>
</mgrwt>
</event>
<event>
 4    3  0.3905963E+000  0.2147303E+03  0.7546771E-02  0.1137874E+00
         21   -1    0    0  501  502  0.00000000000E+00  0.00000000000E+00  0.41513872219E+03  0.41513872219E+03  0.00000000000E+00 0. -1.
         21   -1    0    0  502  503 -0.00000000000E+00 -0.00000000000E+00 -0.11530210817E+03  0.11530210817E+03  0.00000000000E+00 0.  1.
          6    1    1    2  501    0 -0.79514878459E+02  0.99284800114E+02  0.99100901647E+02  0.23649540405E+03  0.17300000000E+03 0.  1.
         -6    1    1    2    0  503  0.79514878459E+02 -0.99284800114E+02  0.20073571237E+03  0.29394542632E+03  0.17300000000E+03 0.  1.
<mgrwt>
<rscale>  2 0.21473027E+03</rscale>
<asrwt>0</asrwt>
<pdfrwt beam="1">  1       21 0.63867495E-01 0.21473027E+03</pdfrwt>
<pdfrwt beam="2">  1       21 0.17738786E-01 0.21473027E+03</pdfrwt>
<totfact> 0.64663070E+04</totfact>
</mgrwt>
</event>
<event>
 4    3  0.3905963E+000  0.1844790E+03  0.7546771E-02  0.1163537E+00
         21   -1    0    0  501  502  0.00000000000E+00  0.00000000000E+00  0.51365998500E+02  0.51365998500E+02  0.00000000000E+00 0.  1.
         21   -1    0    0  502  503 -0.00000000000E+00 -0.00000000000E+00 -0.78991219339E+03  0.78991219339E+03  0.00000000000E+00 0.  1.
          6    1    1    2  501    0 -0.61353169434E+02 -0.18419737060E+02 -0.20036831047E+03  0.27235997862E+03  0.17300000000E+03 0.  1.
         -6    1    1    2    0  503  0.61353169434E+02  0.18419737060E+02 -0.53817788442E+03  0.56891821327E+03  0.17300000000E+03 0.  1.
<mgrwt>
<rscale>  2 0.18447899E+03</rscale>
<asrwt>0</asrwt>
<pdfrwt beam="1">  1       21 0.79024616E-02 0.18447899E+03</pdfrwt>
<pdfrwt beam="2">  1       21 0.12152495E+00 0.18447899E+03</pdfrwt>
<totfact> 0.62992769E+04</totfact>
</mgrwt>
</event>
<event>
 4    3  0.3905963E+000  0.3239632E+03  0.7546771E-02  0.1073840E+00
         21   -1    0    0  501  502  0.00000000000E+00  0.00000000000E+00  0.28070700252E+03  0.28070700252E+03  0.00000000000E+00 0. -1.
         21   -1    0    0  502  503 -0.00000000000E+00 -0.00000000000E+00 -0.39482873697E+03  0.39482873697E+03  0.00000000000E+00 0.  1.
          6    1    1    2  501    0 -0.26595012470E+03 -0.65526412985E+02  0.20731949025E+02  0.32462592832E+03  0.17300000000E+03 0. -1.
         -6    1    1    2    0  503  0.26595012470E+03  0.65526412985E+02 -0.13485368347E+03  0.35090981117E+03  0.17300000000E+03 0.  1.
<mgrwt>
<rscale>  2 0.32396324E+03</rscale>
<asrwt>0</asrwt>
<pdfrwt beam="1">  1       21 0.43185693E-01 0.32396324E+03</pdfrwt>
<pdfrwt beam="2">  1       21 0.60742882E-01 0.32396324E+03</pdfrwt>
<totfact> 0.12151890E+04</totfact>
</mgrwt>
</event>
<event>
 4    3  0.3905963E+000  0.1761632E+03  0.7546771E-02  0.1171569E+00
         21   -1    0    0  501  502  0.00000000000E+00  0.00000000000E+00  0.27137149040E+03  0.27137149040E+03  0.00000000000E+00 0. -1.
         21   -1    0    0  502  503 -0.00000000000E+00 -0.00000000000E+00 -0.13686493048E+03  0.13686493048E+03  0.00000000000E+00 0. -1.
          6    1    1    2  501    0  0.48669463799E+01  0.32875172458E+02  0.15002750120E+03  0.23139082792E+03  0.17300000000E+03 0. -1.
         -6    1    1    2    0  503 -0.48669463799E+01 -0.32875172458E+02 -0.15520941280E+02  0.17684559296E+03  0.17300000000E+03 0. -1.
<mgrwt>
<rscale>  2 0.17616317E+03</rscale>
<asrwt>0</asrwt>
<pdfrwt beam="1">  1       21 0.41749460E-01 0.17616317E+03</pdfrwt>
<pdfrwt beam="2">  1       21 0.21056143E-01 0.17616317E+03</pdfrwt>
<totfact> 0.11646441E+05</totfact>
</mgrwt>
</event>
<event>
 4    3  0.3905963E+000  0.2942952E+03  0.7546771E-02  0.1088128E+00
         21   -1    0    0  501  502  0.00000000000E+00  0.00000000000E+00  0.16830698635E+03  0.16830698635E+03  0.00000000000E+00 0.  1.
         21   -1    0    0  502  503 -0.00000000000E+00 -0.00000000000E+00 -0.97014806121E+03  0.97014806121E+03  0.00000000000E+00 0.  1.
          6    1    1    2  501    0  0.22923073942E+03  0.64295490831E+02 -0.10855350274E+02  0.29449529821E+03  0.17300000000E+03 0.  1.
         -6    1    1    2    0  503 -0.22923073942E+03 -0.64295490831E+02 -0.79098572459E+03  0.84395974936E+03  0.17300000000E+03 0.  1.
<mgrwt>
<rscale>  2 0.29429516E+03</rscale>
<asrwt>0</asrwt>
<pdfrwt beam="1">  1       21 0.25893383E-01 0.29429516E+03</pdfrwt>
<pdfrwt beam="2">  1       21 0.14925354E+00 0.29429516E+03</pdfrwt>
<totfact> 0.39899822E+03</totfact>
</mgrwt>
</event>
<event>
 4    3  0.3905963E+000  0.2193022E+03  0.7546771E-02  0.1134404E+00
         21   -1    0    0  503  502  0.00000000000E+00  0.00000000000E+00  0.63187291820E+02  0.63187291820E+02  0.00000000000E+00 0. -1.
         21   -1    0    0  501  503 -0.00000000000E+00 -0.00000000000E+00 -0.10982984899E+04  0.10982984899E+04  0.00000000000E+00 0.  1.
          6    1    1    2  501    0  0.80617746500E+02 -0.10800561674E+03 -0.83932915500E+03  0.86750611798E+03  0.17300000000E+03 0.  1.
         -6    1    1    2    0  502 -0.80617746500E+02  0.10800561674E+03 -0.19578204306E+03  0.29397966373E+03  0.17300000000E+03 0. -1.
<mgrwt>
<rscale>  2 0.21930215E+03</rscale>
<asrwt>0</asrwt>
<pdfrwt beam="1">  1       21 0.97211222E-02 0.21930215E+03</pdfrwt>
<pdfrwt beam="2">  1       21 0.16896899E+00 0.21930215E+03</pdfrwt>
<totfact> 0.18169776E+04</totfact>
</mgrwt>
</event>
<event>
 4    3  0.3905963E+000  0.1834850E+03  0.7546771E-02  0.1164472E+00
         21   -1    0    0  503  502  0.00000000000E+00  0.00000000000E+00  0.21274278981E+04  0.21274278981E+04  0.00000000000E+00 0.  1.
         21   -1    0    0  501  503 -0.00000000000E+00 -0.00000000000E+00 -0.25121202983E+02  0.25121202983E+02  0.00000000000E+00 0.  1.
          6    1    1    2  501    0 -0.38168038562E+02  0.47759298640E+02  0.39643664302E+03  0.43683951481E+03  0.17300000000E+03 0.  1.
         -6    1    1    2    0  502  0.38168038562E+02 -0.47759298640E+02  0.17058700521E+04  0.17157095863E+04  0.17300000000E+03 0.  1.
<mgrwt>
<rscale>  2 0.18348501E+03</rscale>
<asrwt>0</asrwt>
<pdfrwt beam="1">  1       21 0.32729646E+00 0.18348501E+03</pdfrwt>
<pdfrwt beam="2">  1       21 0.38648021E-02 0.18348501E+03</pdfrwt>
<totfact> 0.99624502E+03</totfact>
</mgrwt>
</event>
<event>
 4    3  0.3905963E+000  0.2794416E+03  0.7546771E-02  0.1095994E+00
         21   -1    0    0  501  502  0.00000000000E+00  0.00000000000E+00  0.73474966071E+02  0.73474966071E+02  0.00000000000E+00 0. -1.
         21   -1    0    0  502  503 -0.00000000000E+00 -0.00000000000E+00 -0.10765087865E+04  0.10765087865E+04  0.00000000000E+00 0.  1.
          6    1    1    2  501    0  0.11008945630E+03 -0.18983922928E+03 -0.56645375520E+03  0.63163080842E+03  0.17300000000E+03 0.  1.
         -6    1    1    2    0  503 -0.11008945630E+03  0.18983922928E+03 -0.43658006526E+03  0.51835294418E+03  0.17300000000E+03 0.  1.
<mgrwt>
<rscale>  2 0.27944162E+03</rscale>
<asrwt>0</asrwt>
<pdfrwt beam="1">  1       21 0.11303841E-01 0.27944162E+03</pdfrwt>
<pdfrwt beam="2">  1       21 0.16561673E+00 0.27944162E+03</pdfrwt>
<totfact> 0.14170050E+04</totfact>
</mgrwt>
</event>
<event>
 4    3  0.3905963E+000  0.1766731E+03  0.7546771E-02  0.1171062E+00
         21   -1    0    0  503  502  0.00000000000E+00  0.00000000000E+00  0.57520037973E+03  0.57520037973E+03  0.00000000000E+00 0.  1.
         21   -1    0    0  501  503 -0.00000000000E+00 -0.00000000000E+00 -0.66949714555E+02  0.66949714555E+02  0.00000000000E+00 0.  1.
          6    1    1    2  501    0  0.62874796613E+01  0.35282688219E+02  0.11437011870E+03  0.21046121861E+03  0.17300000000E+03 0.  1.
         -6    1    1    2    0  502 -0.62874796613E+01 -0.35282688219E+02  0.39388054648E+03  0.43168887567E+03  0.17300000000E+03 0.  1.
<mgrwt>
<rscale>  2 0.17667315E+03</rscale>
<asrwt>0</asrwt>
<pdfrwt beam="1">  1       21 0.88492363E-01 0.17667315E+03</pdfrwt>
<pdfrwt beam="2">  1       21 0.10299956E-01 0.17667315E+03</pdfrwt>
<totfact> 0.84701883E+04</totfact>
</mgrwt>
</event>
<event>
 4    3  0.3905963E+000  0.2116891E+03  0.7546771E-02  0.1140235E+00
         21   -1    0    0  501  502  0.00000000000E+00  0.00000000000E+00  0.17909609455E+03  0.17909609455E+03  0.00000000000E+00 0. -1.
         21   -1    0    0  502  503 -0.00000000000E+00 -0.00000000000E+00 -0.63753589698E+03  0.63753589698E+03  0.00000000000E+00 0. -1.
          6    1    1    2  501    0  0.88711573220E+02  0.83746946213E+02  0.89038790027E+02  0.22965234672E+03  0.17300000000E+03 0. -1.
         -6    1    1    2    0  503 -0.88711573220E+02 -0.83746946213E+02 -0.54747859246E+03  0.58697964481E+03  0.17300000000E+03 0. -1.
<mgrwt>
<rscale>  2 0.21168915E+03</rscale>
<asrwt>0</asrwt>
<pdfrwt beam="1">  1       21 0.27553245E-01 0.21168915E+03</pdfrwt>
<pdfrwt beam="2">  1       21 0.98082448E-01 0.21168915E+03</pdfrwt>
<totfact> 0.10661024E+04</totfact>
</mgrwt>
</event>
<event>
 4    3  0.3905963E+000  0.1810054E+03  0.7546771E-02  0.1166834E+00
         21   -1    0    0  501  502  0.00000000000E+00  0.00000000000E+00  0.72042845443E+03  0.72042845443E+03  0.00000000000E+00 0. -1.
         21   -1    0    0  502  503 -0.00000000000E+00 -0.00000000000E+00 -0.52630811116E+02  0.52630811116E+02  0.00000000000E+00 0. -1.
          6    1    1    2  501    0 -0.53039308985E+02  0.45604318001E+01  0.47640371226E+03  0.50963071227E+03  0.17300000000E+03 0.  1.
         -6    1    1    2    0  503  0.53039308985E+02 -0.45604318001E+01  0.19139393106E+03  0.26342855328E+03  0.17300000000E+03 0.  1.
<mgrwt>
<rscale>  2 0.18100543E+03</rscale>
<asrwt>0</asrwt>
<pdfrwt beam="1">  1       21 0.11083514E+00 0.18100543E+03</pdfrwt>
<pdfrwt beam="2">  1       21 0.80970484E-02 0.18100543E+03</pdfrwt>
<totfact> 0.75754484E+04</totfact>
</mgrwt>
</event>
<event>
 4    3  0.3905963E+000  0.1894291E+03  0.7546771E-02  0.1158977E+00
         21   -1    0    0  503  502  0.00000000000E+00  0.00000000000E+00  0.72159530574E+02  0.72159530574E+02  0.00000000000E+00 0. -1.
         21   -1    0    0  501  503 -0.00000000000E+00 -0.00000000000E+00 -0.49756848669E+03  0.49756848669E+03  0.00000000000E+00 0. -1.
          6    1    1    2  501    0  0.36486944518E+02 -0.67993374837E+02 -0.20582959916E+03  0.27973062048E+03  0.17300000000E+03 0. -1.
         -6    1    1    2    0  502 -0.36486944518E+02  0.67993374837E+02 -0.21957935696E+03  0.28999739679E+03  0.17300000000E+03 0. -1.
<mgrwt>
<rscale>  2 0.18942913E+03</rscale>
<asrwt>0</asrwt>
<pdfrwt beam="1">  1       21 0.11101466E-01 0.18942913E+03</pdfrwt>
<pdfrwt beam="2">  1       21 0.76548999E-01 0.18942913E+03</pdfrwt>
<totfact> 0.10253567E+05</totfact>
</mgrwt>
</event>
<event>
 4    3  0.3905963E+000  0.1865618E+03  0.7546771E-02  0.1161599E+00
         21   -1    0    0  501  502  0.00000000000E+00  0.00000000000E+00  0.16325166311E+04  0.16325166311E+04  0.00000000000E+00 0.  1.
         21   -1    0    0  502  503 -0.00000000000E+00 -0.00000000000E+00 -0.33810155608E+02  0.33810155608E+02  0.00000000000E+00 0.  1.
          6    1    1    2  501    0  0.31268885651E+02  0.62438607462E+02  0.13057486845E+04  0.13190090788E+04  0.17300000000E+03 0.  1.
         -6    1    1    2    0  503 -0.31268885651E+02 -0.62438607462E+02  0.29295779095E+03  0.34731770785E+03  0.17300000000E+03 0.  1.
<mgrwt>
<rscale>  2 0.18656185E+03</rscale>
<asrwt>0</asrwt>
<pdfrwt beam="1">  1       21 0.25115634E+00 0.18656185E+03</pdfrwt>
<pdfrwt beam="2">  1       21 0.52015637E-02 0.18656185E+03</pdfrwt>
<totfact> 0.16557394E+04</totfact>
</mgrwt>
</event>
<event>
 4    3  0.3905963E+000  0.2052700E+03  0.7546771E-02  0.1145367E+00
         21   -1    0    0  503  502  0.00000000000E+00  0.00000000000E+00  0.11491318478E+03  0.11491318478E+03  0.00000000000E+00 0.  1.
         21   -1    0    0  501  503 -0.00000000000E+00 -0.00000000000E+00 -0.51970421384E+03  0.51970421384E+03  0.00000000000E+00 0.  1.
          6    1    1    2  501    0 -0.78004790082E+01  0.11020853044E+03 -0.37457893635E+03  0.42713598211E+03  0.17300000000E+03 0.  1.
         -6    1    1    2    0  502  0.78004790082E+01 -0.11020853044E+03 -0.30212092709E+02  0.20748141652E+03  0.17300000000E+03 0.  1.
<mgrwt>
<rscale>  2 0.20526999E+03</rscale>
<asrwt>0</asrwt>
<pdfrwt beam="1">  1       21 0.17678952E-01 0.20526999E+03</pdfrwt>
<pdfrwt beam="2">  1       21 0.79954494E-01 0.20526999E+03</pdfrwt>
<totfact> 0.39706595E+04</totfact>
</mgrwt>
</event>
<event>
 4    3  0.3905963E+000  0.2050235E+03  0.7546771E-02  0.1145569E+00
         21   -1    0    0  501  502  0.00000000000E+00  0.00000000000E+00  0.17303315670E+03  0.17303315670E+03  0.00000000000E+00 0.  1.
         21   -1    0    0  502  503 -0.00000000000E+00 -0.00000000000E+00 -0.15258488678E+04  0.15258488678E+04  0.00000000000E+00 0. -1.
          6    1    1    2  501    0 -0.10024173741E+03 -0.45356760790E+02  0.10248435081E+03  0.22921100286E+03  0.17300000000E+03 0.  1.
         -6    1    1    2    0  503  0.10024173741E+03  0.45356760790E+02 -0.14553000619E+04  0.14696710216E+04  0.17300000000E+03 0. -1.
<mgrwt>
<rscale>  2 0.20502351E+03</rscale>
<asrwt>0</asrwt>
<pdfrwt beam="1">  1       21 0.26620485E-01 0.20502351E+03</pdfrwt>
<pdfrwt beam="2">  1       21 0.23474599E+00 0.20502351E+03</pdfrwt>
<totfact> 0.10840783E+03</totfact>
</mgrwt>
</event>
<event>
 4    3  0.3905963E+000  0.1796337E+03  0.7546771E-02  0.1168158E+00
         21   -1    0    0  503  502  0.00000000000E+00  0.00000000000E+00  0.27518754984E+02  0.27518754984E+02  0.00000000000E+00 0. -1.
         21   -1    0    0  501  503 -0.00000000000E+00 -0.00000000000E+00 -0.12190221817E+04  0.12190221817E+04  0.00000000000E+00 0. -1.
          6    1    1    2  501    0 -0.94444555561E+01 -0.47434901663E+02 -0.71739038519E+03  0.73953852665E+03  0.17300000000E+03 0.  1.
         -6    1    1    2    0  502  0.94444555561E+01  0.47434901663E+02 -0.47411304155E+03  0.50700241006E+03  0.17300000000E+03 0.  1.
<mgrwt>
<rscale>  2 0.17963370E+03</rscale>
<asrwt>0</asrwt>
<pdfrwt beam="1">  1       21 0.42336549E-02 0.17963370E+03</pdfrwt>
<pdfrwt beam="2">  1       21 0.18754186E+00 0.17963370E+03</pdfrwt>
<totfact> 0.58143902E+04</totfact>
</mgrwt>
</event>
<event>
 4    3  0.3905963E+000  0.2213443E+03  0.7546771E-02  0.1132885E+00
         21   -1    0    0  503  502  0.00000000000E+00  0.00000000000E+00  0.10630890686E+03  0.10630890686E+03  0.00000000000E+00 0.  1.
         21   -1    0    0  501  503 -0.00000000000E+00 -0.00000000000E+00 -0.50916180141E+03  0.50916180141E+03  0.00000000000E+00 0.  1.
          6    1    1    2  501    0  0.11877757301E+03  0.70400204031E+02 -0.29621165097E+03  0.36977647674E+03  0.17300000000E+03 0.  1.
         -6    1    1    2    0  502 -0.11877757301E+03 -0.70400204031E+02 -0.10664124357E+03  0.24569423153E+03  0.17300000000E+03 0.  1.
<mgrwt>
<rscale>  2 0.22134430E+03</rscale>
<asrwt>0</asrwt>
<pdfrwt beam="1">  1       21 0.16355216E-01 0.22134430E+03</pdfrwt>
<pdfrwt beam="2">  1       21 0.78332586E-01 0.22134430E+03</pdfrwt>
<totfact> 0.47633923E+04</totfact>
</mgrwt>
</event>
<event>
 4    3  0.3905963E+000  0.2132187E+03  0.7546771E-02  0.1139042E+00
         21   -1    0    0  503  502  0.00000000000E+00  0.00000000000E+00  0.10035019624E+03  0.10035019624E+03  0.00000000000E+00 0. -1.
         21   -1    0    0  501  503 -0.00000000000E+00 -0.00000000000E+00 -0.74784350776E+03  0.74784350776E+03  0.00000000000E+00 0. -1.
          6    1    1    2  501    0  0.11847464948E+02 -0.12406796294E+03 -0.59002090705E+03  0.62736503936E+03  0.17300000000E+03 0.  1.
         -6    1    1    2    0  502 -0.11847464948E+02  0.12406796294E+03 -0.57472404464E+02  0.22082866464E+03  0.17300000000E+03 0.  1.
<mgrwt>
<rscale>  2 0.21321872E+03</rscale>
<asrwt>0</asrwt>
<pdfrwt beam="1">  1       21 0.15438491E-01 0.21321872E+03</pdfrwt>
<pdfrwt beam="2">  1       21 0.11505285E+00 0.21321872E+03</pdfrwt>
<totfact> 0.21523112E+04</totfact>
</mgrwt>
</event>
<event>
 4    3  0.3905963E+000  0.2321394E+03  0.7546771E-02  0.1125143E+00
         21   -1    0    0  503  502  0.00000000000E+00  0.00000000000E+00  0.13936403220E+03  0.13936403220E+03  0.00000000000E+00 0. -1.
         21   -1    0    0  501  503 -0.00000000000E+00 -0.00000000000E+00 -0.46427191481E+03  0.46427191481E+03  0.00000000000E+00 0. -1.
          6    1    1    2  501    0 -0.10953366704E+03 -0.10937118938E+03 -0.28584373256E+03  0.36823269915E+03  0.17300000000E+03 0. -1.
         -6    1    1    2    0  502  0.10953366704E+03  0.10937118938E+03 -0.39064150041E+02  0.23540324785E+03  0.17300000000E+03 0. -1.
<mgrwt>
<rscale>  2 0.23213936E+03</rscale>
<asrwt>0</asrwt>
<pdfrwt beam="1">  1       21 0.21440620E-01 0.23213936E+03</pdfrwt>
<pdfrwt beam="2">  1       21 0.71426448E-01 0.23213936E+03</pdfrwt>
<totfact> 0.35193803E+04</totfact>
</mgrwt>
</event>
<event>
 4    3  0.3905963E+000  0.1809949E+03  0.7546771E-02  0.1166844E+00
         21   -1    0    0  503  502  0.00000000000E+00  0.00000000000E+00  0.30569219460E+03  0.30569219460E+03  0.00000000000E+00 0.  1.
         21   -1    0    0  501  503 -0.00000000000E+00 -0.00000000000E+00 -0.17102469502E+03  0.17102469502E+03  0.00000000000E+00 0.  1.
          6    1    1    2  501    0 -0.85759632640E+01  0.52503362040E+02 -0.78318932577E+02  0.19721309635E+03  0.17300000000E+03 0.  1.
         -6    1    1    2    0  502  0.85759632640E+01 -0.52503362040E+02  0.21298643215E+03  0.27950379327E+03  0.17300000000E+03 0.  1.
<mgrwt>
<rscale>  2 0.18099489E+03</rscale>
<asrwt>0</asrwt>
<pdfrwt beam="1">  1       21 0.47029568E-01 0.18099489E+03</pdfrwt>
<pdfrwt beam="2">  1       21 0.26311492E-01 0.18099489E+03</pdfrwt>
<totfact> 0.59739034E+04</totfact>
</mgrwt>
</event>
<event>
 4    3  0.3905963E+000  0.1940152E+03  0.7546771E-02  0.1154889E+00
         21   -1    0    0  501  502  0.00000000000E+00  0.00000000000E+00  0.22439649530E+03  0.22439649530E+03  0.00000000000E+00 0.  1.
         21   -1    0    0  502  503 -0.00000000000E+00 -0.00000000000E+00 -0.59913752902E+03  0.59913752902E+03  0.00000000000E+00 0.  1.
          6    1    1    2  501    0  0.86913701002E+02  0.12606284011E+02  0.16202991151E+03  0.25277579402E+03  0.17300000000E+03 0.  1.
         -6    1    1    2    0  503 -0.86913701002E+02 -0.12606284011E+02 -0.53677094522E+03  0.57075823030E+03  0.17300000000E+03 0.  1.
<mgrwt>
<rscale>  2 0.19401523E+03</rscale>
<asrwt>0</asrwt>
<pdfrwt beam="1">  1       21 0.34522538E-01 0.19401523E+03</pdfrwt>
<pdfrwt beam="2">  1       21 0.92175004E-01 0.19401523E+03</pdfrwt>
<totfact> 0.80302768E+03</totfact>
</mgrwt>
</event>
<event>
 4    3  0.3905963E+000  0.1802513E+03  0.7546771E-02  0.1167560E+00
         21   -1    0    0  501  502  0.00000000000E+00  0.00000000000E+00  0.48506699858E+03  0.48506699858E+03  0.00000000000E+00 0. -1.
         21   -1    0    0  502  503 -0.00000000000E+00 -0.00000000000E+00 -0.14349503589E+03  0.14349503589E+03  0.00000000000E+00 0. -1.
          6    1    1    2  501    0 -0.46890164477E+02 -0.19047986773E+02  0.40027867235E+03  0.43899149065E+03  0.17300000000E+03 0. -1.
         -6    1    1    2    0  503  0.46890164477E+02  0.19047986773E+02 -0.58706709668E+02  0.18957054382E+03  0.17300000000E+03 0. -1.
<mgrwt>
<rscale>  2 0.18025125E+03</rscale>
<asrwt>0</asrwt>
<pdfrwt beam="1">  1       21 0.74625691E-01 0.18025125E+03</pdfrwt>
<pdfrwt beam="2">  1       21 0.22076160E-01 0.18025125E+03</pdfrwt>
<totfact> 0.31042199E+04</totfact>
</mgrwt>
</event>
<event>
 4    3  0.3905963E+000  0.2351011E+03  0.7546771E-02  0.1123100E+00
         21   -1    0    0  501  502  0.00000000000E+00  0.00000000000E+00  0.93685034834E+03  0.93685034834E+03  0.00000000000E+00 0. -1.
         21   -1    0    0  502  503 -0.00000000000E+00 -0.00000000000E+00 -0.59684805426E+02  0.59684805426E+02  0.00000000000E+00 0.  1.
          6    1    1    2  501    0  0.11208312045E+03  0.11305269271E+03  0.49202277281E+03  0.54530628658E+03  0.17300000000E+03 0.  1.
         -6    1    1    2    0  503 -0.11208312045E+03 -0.11305269271E+03  0.38514277010E+03  0.45122886718E+03  0.17300000000E+03 0.  1.
<mgrwt>
<rscale>  2 0.23510112E+03</rscale>
<asrwt>0</asrwt>
<pdfrwt beam="1">  1       21 0.14413081E+00 0.23510112E+03</pdfrwt>
<pdfrwt beam="2">  1       21 0.91822784E-02 0.23510112E+03</pdfrwt>
<totfact> 0.30531188E+04</totfact>
</mgrwt>
</event>
<event>
 4    3  0.3905963E+000  0.2545945E+03  0.7546771E-02  0.1110435E+00
         21   -1    0    0  503  502  0.00000000000E+00  0.00000000000E+00  0.24258488406E+03  0.24258488406E+03  0.00000000000E+00 0.  1.
         21   -1    0    0  501  503 -0.00000000000E+00 -0.00000000000E+00 -0.54751312513E+03  0.54751312513E+03  0.00000000000E+00 0.  1.
          6    1    1    2  501    0  0.10290904584E+03 -0.15588162681E+03 -0.43513200442E+03  0.50414106614E+03  0.17300000000E+03 0.  1.
         -6    1    1    2    0  502 -0.10290904584E+03  0.15588162681E+03  0.13020376335E+03  0.28595694306E+03  0.17300000000E+03 0.  1.
<mgrwt>
<rscale>  2 0.25459449E+03</rscale>
<asrwt>0</asrwt>
<pdfrwt beam="1">  1       21 0.37320752E-01 0.25459449E+03</pdfrwt>
<pdfrwt beam="2">  1       21 0.84232787E-01 0.25459449E+03</pdfrwt>
<totfact> 0.81389365E+03</totfact>
</mgrwt>
</event>
<event>
 4    3  0.3905963E+000  0.1840655E+03  0.7546771E-02  0.1163925E+00
         21   -1    0    0  503  502  0.00000000000E+00  0.00000000000E+00  0.51006257920E+03  0.51006257920E+03  0.00000000000E+00 0.  1.
         21   -1    0    0  501  503 -0.00000000000E+00 -0.00000000000E+00 -0.16944904091E+03  0.16944904091E+03  0.00000000000E+00 0.  1.
          6    1    1    2  501    0  0.56102885546E+02 -0.28347698268E+02 -0.94616345510E+02  0.20695984780E+03  0.17300000000E+03 0.  1.
         -6    1    1    2    0  502 -0.56102885546E+02  0.28347698268E+02  0.43522988380E+03  0.47255177231E+03  0.17300000000E+03 0.  1.
<mgrwt>
<rscale>  2 0.18406555E+03</rscale>
<asrwt>0</asrwt>
<pdfrwt beam="1">  1       21 0.78471165E-01 0.18406555E+03</pdfrwt>
<pdfrwt beam="2">  1       21 0.26069083E-01 0.18406555E+03</pdfrwt>
<totfact> 0.20187375E+04</totfact>
</mgrwt>
</event>
<event>
 4    3  0.3905963E+000  0.1863517E+03  0.7546771E-02  0.1161794E+00
         21   -1    0    0  501  502  0.00000000000E+00  0.00000000000E+00  0.78802487063E+02  0.78802487063E+02  0.00000000000E+00 0. -1.
         21   -1    0    0  502  503 -0.00000000000E+00 -0.00000000000E+00 -0.46952062382E+03  0.46952062382E+03  0.00000000000E+00 0. -1.
          6    1    1    2  501    0 -0.58683586937E+02  0.36799288390E+02 -0.26330377832E+03  0.32257686011E+03  0.17300000000E+03 0.  1.
         -6    1    1    2    0  503  0.58683586937E+02 -0.36799288390E+02 -0.12741435844E+03  0.22574625077E+03  0.17300000000E+03 0.  1.
<mgrwt>
<rscale>  2 0.18635169E+03</rscale>
<asrwt>0</asrwt>
<pdfrwt beam="1">  1       21 0.12123459E-01 0.18635169E+03</pdfrwt>
<pdfrwt beam="2">  1       21 0.72233944E-01 0.18635169E+03</pdfrwt>
<totfact> 0.99838602E+04</totfact>
</mgrwt>
</event>
<event>
 4    3  0.3905963E+000  0.2142727E+03  0.7546771E-02  0.1138226E+00
         21   -1    0    0  503  502  0.00000000000E+00  0.00000000000E+00  0.86736837251E+03  0.86736837251E+03  0.00000000000E+00 0. -1.
         21   -1    0    0  501  503 -0.00000000000E+00 -0.00000000000E+00 -0.54829141844E+02  0.54829141844E+02  0.00000000000E+00 0.  1.
          6    1    1    2  501    0 -0.12520972093E+03 -0.17501567352E+02  0.32053130680E+03  0.38555557020E+03  0.17300000000E+03 0. -1.
         -6    1    1    2    0  502  0.12520972093E+03  0.17501567352E+02  0.49200792386E+03  0.53664194415E+03  0.17300000000E+03 0. -1.
<mgrwt>
<rscale>  2 0.21427267E+03</rscale>
<asrwt>0</asrwt>
<pdfrwt beam="1">  1       21 0.13344128E+00 0.21427267E+03</pdfrwt>
<pdfrwt beam="2">  1       21 0.84352532E-02 0.21427267E+03</pdfrwt>
<totfact> 0.43744306E+04</totfact>
</mgrwt>
</event>
<event>
 4    3  0.3905963E+000  0.2561000E+03  0.7546771E-02  0.1109509E+00
         21   -1    0    0  501  502  0.00000000000E+00  0.00000000000E+00  0.11807464606E+04  0.11807464606E+04  0.00000000000E+00 0.  1.
         21   -1    0    0  502  503 -0.00000000000E+00 -0.00000000000E+00 -0.75859904283E+02  0.75859904283E+02  0.00000000000E+00 0. -1.
          6    1    1    2  501    0 -0.12250618602E+03 -0.14370265420E+03  0.87756535185E+03  0.91417075276E+03  0.17300000000E+03 0.  1.
         -6    1    1    2    0  503  0.12250618602E+03  0.14370265420E+03  0.22732120442E+03  0.34243561207E+03  0.17300000000E+03 0. -1.
<mgrwt>
<rscale>  2 0.25610002E+03</rscale>
<asrwt>0</asrwt>
<pdfrwt beam="1">  1       21 0.18165329E+00 0.25610002E+03</pdfrwt>
<pdfrwt beam="2">  1       21 0.11670755E-01 0.25610002E+03</pdfrwt>
<totfact> 0.10452406E+04</totfact>
</mgrwt>
</event>
<event>
 4    3  0.3905963E+000  0.2360045E+03  0.7546771E-02  0.1122483E+00
         21   -1    0    0  503  502  0.00000000000E+00  0.00000000000E+00  0.78092238493E+03  0.78092238493E+03  0.00000000000E+00 0. -1.
         21   -1    0    0  501  503 -0.00000000000E+00 -0.00000000000E+00 -0.18802471766E+03  0.18802471766E+03  0.00000000000E+00 0. -1.
          6    1    1    2  501    0  0.11800587995E+03 -0.10882899723E+03 -0.85231905662E+02  0.25092352637E+03  0.17300000000E+03 0. -1.
         -6    1    1    2    0  502 -0.11800587995E+03  0.10882899723E+03  0.67812957293E+03  0.71802357623E+03  0.17300000000E+03 0. -1.
<mgrwt>
<rscale>  2 0.23600453E+03</rscale>
<asrwt>0</asrwt>
<pdfrwt beam="1">  1       21 0.12014190E+00 0.23600453E+03</pdfrwt>
<pdfrwt beam="2">  1       21 0.28926880E-01 0.23600453E+03</pdfrwt>
<totfact> 0.58342347E+03</totfact>
</mgrwt>
</event>
<event>
 4    3  0.3905963E+000  0.3105604E+03  0.7546771E-02  0.1080078E+00
         21   -1    0    0  501  502  0.00000000000E+00  0.00000000000E+00  0.29565231155E+03  0.29565231155E+03  0.00000000000E+00 0. -1.
         21   -1    0    0  502  503 -0.00000000000E+00 -0.00000000000E+00 -0.85675210568E+03  0.85675210568E+03  0.00000000000E+00 0.  1.
          6    1    1    2  501    0 -0.20833406906E+03  0.15203831344E+03  0.17287265177E+03  0.35543309752E+03  0.17300000000E+03 0. -1.
         -6    1    1    2    0  503  0.20833406906E+03 -0.15203831344E+03 -0.73397244590E+03  0.79697131970E+03  0.17300000000E+03 0.  1.
<mgrwt>
<rscale>  2 0.31056035E+03</rscale>
<asrwt>0</asrwt>
<pdfrwt beam="1">  1       21 0.45484971E-01 0.31056035E+03</pdfrwt>
<pdfrwt beam="2">  1       21 0.13180802E+00 0.31056035E+03</pdfrwt>
<totfact> 0.17709950E+03</totfact>
</mgrwt>
</event>
<event>
 4    3  0.3905963E+000  0.2309353E+03  0.7546771E-02  0.1125983E+00
         21   -1    0    0  501  502  0.00000000000E+00  0.00000000000E+00  0.59905364213E+03  0.59905364213E+03  0.00000000000E+00 0. -1.
         21   -1    0    0  502  503 -0.00000000000E+00 -0.00000000000E+00 -0.96143678483E+02  0.96143678483E+02  0.00000000000E+00 0. -1.
          6    1    1    2  501    0  0.82969897820E+02 -0.12852285332E+03  0.34603474105E+03  0.41601823251E+03  0.17300000000E+03 0. -1.
         -6    1    1    2    0  503 -0.82969897820E+02  0.12852285332E+03  0.15687522260E+03  0.27917908810E+03  0.17300000000E+03 0. -1.
<mgrwt>
<rscale>  2 0.23093533E+03</rscale>
<asrwt>0</asrwt>
<pdfrwt beam="1">  1       21 0.92162096E-01 0.23093533E+03</pdfrwt>
<pdfrwt beam="2">  1       21 0.14791336E-01 0.23093533E+03</pdfrwt>
<totfact> 0.39239403E+04</totfact>
</mgrwt>
</event>
<event>
 4    3  0.3905963E+000  0.1952541E+03  0.7546771E-02  0.1153806E+00
         21   -1    0    0  503  502  0.00000000000E+00  0.00000000000E+00  0.80077139870E+02  0.80077139870E+02  0.00000000000E+00 0.  1.
         21   -1    0    0  501  503 -0.00000000000E+00 -0.00000000000E+00 -0.76978775870E+03  0.76978775870E+03  0.00000000000E+00 0.  1.
          6    1    1    2  501    0 -0.59796320579E+02 -0.67967449988E+02 -0.60732696836E+03  0.63794217662E+03  0.17300000000E+03 0.  1.
         -6    1    1    2    0  502  0.59796320579E+02  0.67967449988E+02 -0.82383650464E+02  0.21192272194E+03  0.17300000000E+03 0.  1.
<mgrwt>
<rscale>  2 0.19525413E+03</rscale>
<asrwt>0</asrwt>
<pdfrwt beam="1">  1       21 0.12319561E-01 0.19525413E+03</pdfrwt>
<pdfrwt beam="2">  1       21 0.11842888E+00 0.19525413E+03</pdfrwt>
<totfact> 0.30500382E+04</totfact>
</mgrwt>
</event>
<event>
 4    3  0.3905963E+000  0.2548520E+03  0.7546771E-02  0.1110276E+00
         21   -1    0    0  503  502  0.00000000000E+00  0.00000000000E+00  0.11125448927E+03  0.11125448927E+03  0.00000000000E+00 0.  1.
         21   -1    0    0  501  503 -0.00000000000E+00 -0.00000000000E+00 -0.82381190492E+03  0.82381190492E+03  0.00000000000E+00 0.  1.
          6    1    1    2  501    0  0.17734089147E+03  0.59755659198E+02 -0.60863936299E+03  0.65984195439E+03  0.17300000000E+03 0.  1.
         -6    1    1    2    0  502 -0.17734089147E+03 -0.59755659198E+02 -0.10391805266E+03  0.27522443980E+03  0.17300000000E+03 0.  1.
<mgrwt>
<rscale>  2 0.25485198E+03</rscale>
<asrwt>0</asrwt>
<pdfrwt beam="1">  1       21 0.17116075E-01 0.25485198E+03</pdfrwt>
<pdfrwt beam="2">  1       21 0.12674029E+00 0.25485198E+03</pdfrwt>
<totfact> 0.13659916E+04</totfact>
</mgrwt>
</event>
<event>
 4    3  0.3905963E+000  0.2029161E+03  0.7546771E-02  0.1147302E+00
         21   -1    0    0  501  502  0.00000000000E+00  0.00000000000E+00  0.69577025274E+03  0.69577025274E+03  0.00000000000E+00 0. -1.
         21   -1    0    0  502  503 -0.00000000000E+00 -0.00000000000E+00 -0.59488568916E+02  0.59488568916E+02  0.00000000000E+00 0.  1.
          6    1    1    2  501    0 -0.52836361671E+02 -0.91947140690E+02  0.34538403181E+03  0.40058093718E+03  0.17300000000E+03 0. -1.
         -6    1    1    2    0  503  0.52836361671E+02  0.91947140690E+02  0.29089765201E+03  0.35467788448E+03  0.17300000000E+03 0.  1.
<mgrwt>
<rscale>  2 0.20291613E+03</rscale>
<asrwt>0</asrwt>
<pdfrwt beam="1">  1       21 0.10704157E+00 0.20291613E+03</pdfrwt>
<pdfrwt beam="2">  1       21 0.91520880E-02 0.20291613E+03</pdfrwt>
<totfact> 0.65832578E+04</totfact>
</mgrwt>
</event>
<event>
 4    3  0.3905963E+000  0.1776915E+03  0.7546771E-02  0.1170056E+00
         21   -1    0    0  503  502  0.00000000000E+00  0.00000000000E+00  0.33579553933E+02  0.33579553933E+02  0.00000000000E+00 0.  1.
         21   -1    0    0  501  503 -0.00000000000E+00 -0.00000000000E+00 -0.10476810446E+04  0.10476810446E+04  0.00000000000E+00 0.  1.
          6    1    1    2  501    0  0.40561955241E+02  0.10503328177E+00 -0.68014555823E+03  0.70297387122E+03  0.17300000000E+03 0.  1.
         -6    1    1    2    0  502 -0.40561955241E+02 -0.10503328177E+00 -0.33395593241E+03  0.37828672728E+03  0.17300000000E+03 0.  1.
<mgrwt>
<rscale>  2 0.17769154E+03</rscale>
<asrwt>0</asrwt>
<pdfrwt beam="1">  1       21 0.51660858E-02 0.17769154E+03</pdfrwt>
<pdfrwt beam="2">  1       21 0.16118168E+00 0.17769154E+03</pdfrwt>
<totfact> 0.63314634E+04</totfact>
</mgrwt>
</event>
<event>
 4    3  0.3905963E+000  0.2378787E+03  0.7546771E-02  0.1121214E+00
         21   -1    0    0  503  502  0.00000000000E+00  0.00000000000E+00  0.56760652624E+02  0.56760652624E+02  0.00000000000E+00 0.  1.
         21   -1    0    0  501  503 -0.00000000000E+00 -0.00000000000E+00 -0.12821174363E+04  0.12821174363E+04  0.00000000000E+00 0.  1.
          6    1    1    2  501    0  0.74626187757E+02  0.14521781001E+03 -0.92840697584E+03  0.95839751305E+03  0.17300000000E+03 0.  1.
         -6    1    1    2    0  502 -0.74626187757E+02 -0.14521781001E+03 -0.29694980786E+03  0.38048057589E+03  0.17300000000E+03 0.  1.
<mgrwt>
<rscale>  2 0.23787871E+03</rscale>
<asrwt>0</asrwt>
<pdfrwt beam="1">  1       21 0.87324079E-02 0.23787871E+03</pdfrwt>
<pdfrwt beam="2">  1       21 0.19724884E+00 0.23787871E+03</pdfrwt>
<totfact> 0.13930563E+04</totfact>
</mgrwt>
</event>
<event>
 4    3  0.3905963E+000  0.1737585E+03  0.7546771E-02  0.1173984E+00
         21   -1    0    0  503  502  0.00000000000E+00  0.00000000000E+00  0.74116769255E+02  0.74116769255E+02  0.00000000000E+00 0. -1.
         21   -1    0    0  501  503 -0.00000000000E+00 -0.00000000000E+00 -0.49065893826E+03  0.49065893826E+03  0.00000000000E+00 0. -1.
          6    1    1    2  501    0 -0.24414445757E+01  0.16033054119E+02 -0.91916771017E+02  0.19657240974E+03  0.17300000000E+03 0. -1.
         -6    1    1    2    0  502  0.24414445757E+01 -0.16033054119E+02 -0.32462539799E+03  0.36820329778E+03  0.17300000000E+03 0. -1.
<mgrwt>
<rscale>  2 0.17375851E+03</rscale>
<asrwt>0</asrwt>
<pdfrwt beam="1">  1       21 0.11402580E-01 0.17375851E+03</pdfrwt>
<pdfrwt beam="2">  1       21 0.75485990E-01 0.17375851E+03</pdfrwt>
<totfact> 0.10149723E+05</totfact>
</mgrwt>
</event>
<event>
 4    3  0.3905963E+000  0.1955940E+03  0.7546771E-02  0.1153511E+00
         21   -1    0    0  501  502  0.00000000000E+00  0.00000000000E+00  0.17829614550E+04  0.17829614550E+04  0.00000000000E+00 0.  1.
         21   -1    0    0  502  503 -0.00000000000E+00 -0.00000000000E+00 -0.79246917057E+02  0.79246917057E+02  0.00000000000E+00 0.  1.
          6    1    1    2  501    0  0.76635665594E+02 -0.49547755137E+02  0.16469780862E+04  0.16585517242E+04  0.17300000000E+03 0.  1.
         -6    1    1    2    0  503 -0.76635665594E+02  0.49547755137E+02  0.56736451752E+02  0.20365664791E+03  0.17300000000E+03 0.  1.
<mgrwt>
<rscale>  2 0.19559398E+03</rscale>
<asrwt>0</asrwt>
<pdfrwt beam="1">  1       21 0.27430173E+00 0.19559398E+03</pdfrwt>
<pdfrwt beam="2">  1       21 0.12191835E-01 0.19559398E+03</pdfrwt>
<totfact> 0.27286711E+03</totfact>
</mgrwt>
</event>
<event>
 4    3  0.3905963E+000  0.2183445E+03  0.7546771E-02  0.1135123E+00
         21   -1    0    0  501  502  0.00000000000E+00  0.00000000000E+00  0.47822834894E+02  0.47822834894E+02  0.00000000000E+00 0. -1.
         21   -1    0    0  502  503 -0.00000000000E+00 -0.00000000000E+00 -0.11882599579E+04  0.11882599579E+04  0.00000000000E+00 0.  1.
          6    1    1    2  501    0 -0.93449988596E+02  0.94933724747E+02 -0.32219450127E+03  0.38920895302E+03  0.17300000000E+03 0.  1.
         -6    1    1    2    0  503  0.93449988596E+02 -0.94933724747E+02 -0.81824262172E+03  0.84687383975E+03  0.17300000000E+03 0. -1.
<mgrwt>
<rscale>  2 0.21834448E+03</rscale>
<asrwt>0</asrwt>
<pdfrwt beam="1">  1       21 0.73573586E-02 0.21834448E+03</pdfrwt>
<pdfrwt beam="2">  1       21 0.18280924E+00 0.21834448E+03</pdfrwt>
<totfact> 0.23748363E+04</totfact>
</mgrwt>
</event>
<event>
 4    3  0.3905963E+000  0.1799961E+03  0.7546771E-02  0.1167807E+00
         21   -1    0    0  503  502  0.00000000000E+00  0.00000000000E+00  0.54032323621E+03  0.54032323621E+03  0.00000000000E+00 0.  1.
         21   -1    0    0  501  503 -0.00000000000E+00 -0.00000000000E+00 -0.24143147887E+03  0.24143147887E+03  0.00000000000E+00 0. -1.
          6    1    1    2  501    0 -0.17589230625E+02  0.46478195171E+02 -0.18943411808E+03  0.26131186110E+03  0.17300000000E+03 0. -1.
         -6    1    1    2    0  502  0.17589230625E+02 -0.46478195171E+02  0.48832587542E+03  0.52044285399E+03  0.17300000000E+03 0.  1.
<mgrwt>
<rscale>  2 0.17999612E+03</rscale>
<asrwt>0</asrwt>
<pdfrwt beam="1">  1       21 0.83126652E-01 0.17999612E+03</pdfrwt>
<pdfrwt beam="2">  1       21 0.37143304E-01 0.17999612E+03</pdfrwt>
<totfact> 0.88940361E+03</totfact>
</mgrwt>
</event>
<event>
 4    3  0.3905963E+000  0.2160962E+03  0.7546771E-02  0.1136827E+00
         21   -1    0    0  501  502  0.00000000000E+00  0.00000000000E+00  0.57888129862E+03  0.57888129862E+03  0.00000000000E+00 0.  1.
         21   -1    0    0  502  503 -0.00000000000E+00 -0.00000000000E+00 -0.24239120380E+03  0.24239120380E+03  0.00000000000E+00 0. -1.
          6    1    1    2  501    0  0.11094471225E+03 -0.66782140886E+02  0.50366132077E+03  0.54806232269E+03  0.17300000000E+03 0.  1.
         -6    1    1    2    0  503 -0.11094471225E+03  0.66782140886E+02 -0.16717122595E+03  0.27321017972E+03  0.17300000000E+03 0. -1.
<mgrwt>
<rscale>  2 0.21609624E+03</rscale>
<asrwt>0</asrwt>
<pdfrwt beam="1">  1       21 0.89058661E-01 0.21609624E+03</pdfrwt>
<pdfrwt beam="2">  1       21 0.37290955E-01 0.21609624E+03</pdfrwt>
<totfact> 0.73408741E+03</totfact>
</mgrwt>
</event>
<event>
 4    3  0.3905963E+000  0.1777802E+03  0.7546771E-02  0.1169969E+00
         21   -1    0    0  503  502  0.00000000000E+00  0.00000000000E+00  0.43825324438E+03  0.43825324438E+03  0.00000000000E+00 0. -1.
         21   -1    0    0  501  503 -0.00000000000E+00 -0.00000000000E+00 -0.13260400464E+03  0.13260400464E+03  0.00000000000E+00 0. -1.
          6    1    1    2  501    0  0.14857853073E+02  0.38158295340E+02 -0.39949074054E+02  0.18221344577E+03  0.17300000000E+03 0. -1.
         -6    1    1    2    0  502 -0.14857853073E+02 -0.38158295340E+02  0.34559831380E+03  0.38864380324E+03  0.17300000000E+03 0. -1.
<mgrwt>
<rscale>  2 0.17778023E+03</rscale>
<asrwt>0</asrwt>
<pdfrwt beam="1">  1       21 0.67423575E-01 0.17778023E+03</pdfrwt>
<pdfrwt beam="2">  1       21 0.20400616E-01 0.17778023E+03</pdfrwt>
<totfact> 0.45083767E+04</totfact>
</mgrwt>
</event>
<event>
 4    3  0.3905963E+000  0.1865386E+03  0.7546771E-02  0.1161621E+00
         21   -1    0    0  503  502  0.00000000000E+00  0.00000000000E+00  0.35816861368E+03  0.35816861368E+03  0.00000000000E+00 0.  1.
         21   -1    0    0  501  503 -0.00000000000E+00 -0.00000000000E+00 -0.18155166085E+03  0.18155166085E+03  0.00000000000E+00 0.  1.
          6    1    1    2  501    0  0.65867336604E+02  0.23003035352E+02 -0.95688235783E+02  0.20964943151E+03  0.17300000000E+03 0.  1.
         -6    1    1    2    0  502 -0.65867336604E+02 -0.23003035352E+02  0.27230518861E+03  0.33007084302E+03  0.17300000000E+03 0.  1.
<mgrwt>
<rscale>  2 0.18653859E+03</rscale>
<asrwt>0</asrwt>
<pdfrwt beam="1">  1       21 0.55102863E-01 0.18653859E+03</pdfrwt>
<pdfrwt beam="2">  1       21 0.27931025E-01 0.18653859E+03</pdfrwt>
<totfact> 0.38151352E+04</totfact>
</mgrwt>
</event>
<event>
 4    3  0.3905963E+000  0.1864364E+03  0.7546771E-02  0.1161715E+00
         21   -1    0    0  501  502  0.00000000000E+00  0.00000000000E+00  0.10454022825E+03  0.10454022825E+03  0.00000000000E+00 0.  1.
         21   -1    0    0  502  503 -0.00000000000E+00 -0.00000000000E+00 -0.45339387281E+03  0.45339387281E+03  0.00000000000E+00 0. -1.
          6    1    1    2  501    0  0.54564208791E+02  0.43038282351E+02 -0.31848428967E+03  0.36904036282E+03  0.17300000000E+03 0. -1.
         -6    1    1    2    0  503 -0.54564208791E+02 -0.43038282351E+02 -0.30369354886E+02  0.18889373824E+03  0.17300000000E+03 0. -1.
<mgrwt>
<rscale>  2 0.18643644E+03</rscale>
<asrwt>0</asrwt>
<pdfrwt beam="1">  1       21 0.16083112E-01 0.18643644E+03</pdfrwt>
<pdfrwt beam="2">  1       21 0.69752902E-01 0.18643644E+03</pdfrwt>
<totfact> 0.64675938E+04</totfact>
</mgrwt>
</event>
<event>
 4    3  0.3905963E+000  0.1814721E+03  0.7546771E-02  0.1166386E+00
         21   -1    0    0  501  502  0.00000000000E+00  0.00000000000E+00  0.68417068522E+02  0.68417068522E+02  0.00000000000E+00 0. -1.
         21   -1    0    0  502  503 -0.00000000000E+00 -0.00000000000E+00 -0.49246369910E+03  0.49246369910E+03  0.00000000000E+00 0. -1.
          6    1    1    2  501    0 -0.88010774176E+01  0.54089562905E+02 -0.25416399849E+03  0.31230030084E+03  0.17300000000E+03 0. -1.
         -6    1    1    2    0  503  0.88010774176E+01 -0.54089562905E+02 -0.16988263209E+03  0.24858046678E+03  0.17300000000E+03 0. -1.
<mgrwt>
<rscale>  2 0.18147215E+03</rscale>
<asrwt>0</asrwt>
<pdfrwt beam="1">  1       21 0.10525703E-01 0.18147215E+03</pdfrwt>
<pdfrwt beam="2">  1       21 0.75763648E-01 0.18147215E+03</pdfrwt>
<totfact> 0.11567383E+05</totfact>
</mgrwt>
</event>
<event>
 4    3  0.3905963E+000  0.2003112E+03  0.7546771E-02  0.1149477E+00
         21   -1    0    0  501  502  0.00000000000E+00  0.00000000000E+00  0.66157228687E+02  0.66157228687E+02  0.00000000000E+00 0. -1.
         21   -1    0    0  502  503 -0.00000000000E+00 -0.00000000000E+00 -0.84396861011E+03  0.84396861011E+03  0.00000000000E+00 0. -1.
          6    1    1    2  501    0  0.10046398651E+03  0.10127364569E+02 -0.14752173017E+03  0.24877145529E+03  0.17300000000E+03 0.  1.
         -6    1    1    2    0  503 -0.10046398651E+03 -0.10127364569E+02 -0.63028965125E+03  0.66135438350E+03  0.17300000000E+03 0.  1.
<mgrwt>
<rscale>  2 0.20031120E+03</rscale>
<asrwt>0</asrwt>
<pdfrwt beam="1">  1       21 0.10178037E-01 0.20031120E+03</pdfrwt>
<pdfrwt beam="2">  1       21 0.12984130E+00 0.20031120E+03</pdfrwt>
<totfact> 0.33949548E+04</totfact>
</mgrwt>
</event>
<event>
 4    3  0.3905963E+000  0.3205623E+03  0.7546771E-02  0.1075391E+00
         21   -1    0    0  501  502  0.00000000000E+00  0.00000000000E+00  0.14644648549E+04  0.14644648549E+04  0.00000000000E+00 0.  1.
         21   -1    0    0  502  503 -0.00000000000E+00 -0.00000000000E+00 -0.70987924515E+02  0.70987924515E+02  0.00000000000E+00 0.  1.
          6    1    1    2  501    0  0.26250937524E+03 -0.62610274462E+02  0.77919077375E+03  0.84255473440E+03  0.17300000000E+03 0.  1.
         -6    1    1    2    0  503 -0.26250937524E+03  0.62610274462E+02  0.61428615665E+03  0.69289804503E+03  0.17300000000E+03 0.  1.
<mgrwt>
<rscale>  2 0.32056235E+03</rscale>
<asrwt>0</asrwt>
<pdfrwt beam="1">  1       21 0.22530226E+00 0.32056235E+03</pdfrwt>
<pdfrwt beam="2">  1       21 0.10921220E-01 0.32056235E+03</pdfrwt>
<totfact> 0.58939313E+03</totfact>
</mgrwt>
</event>
<event>
 4    3  0.3905963E+000  0.1760659E+03  0.7546771E-02  0.1171666E+00
         21   -1    0    0  501  502  0.00000000000E+00  0.00000000000E+00  0.17737294160E+04  0.17737294160E+04  0.00000000000E+00 0. -1.
         21   -1    0    0  502  503 -0.00000000000E+00 -0.00000000000E+00 -0.18184528701E+02  0.18184528701E+02  0.00000000000E+00 0. -1.
          6    1    1    2  501    0 -0.31731817364E+02  0.79553307221E+01  0.10545208372E+04  0.10691180438E+04  0.17300000000E+03 0.  1.
         -6    1    1    2    0  503  0.31731817364E+02 -0.79553307221E+01  0.70102405007E+03  0.72279590086E+03  0.17300000000E+03 0.  1.
<mgrwt>
<rscale>  2 0.17606588E+03</rscale>
<asrwt>0</asrwt>
<pdfrwt beam="1">  1       21 0.27288131E+00 0.17606588E+03</pdfrwt>
<pdfrwt beam="2">  1       21 0.27976212E-02 0.17606588E+03</pdfrwt>
<totfact> 0.35259901E+04</totfact>
</mgrwt>
</event>
<event>
 4    3  0.3905963E+000  0.2008671E+03  0.7546771E-02  0.1149009E+00
         21   -1    0    0  503  502  0.00000000000E+00  0.00000000000E+00  0.66762688286E+03  0.66762688286E+03  0.00000000000E+00 0.  1.
         21   -1    0    0  501  503 -0.00000000000E+00 -0.00000000000E+00 -0.67058889294E+02  0.67058889294E+02  0.00000000000E+00 0. -1.
          6    1    1    2  501    0 -0.10017117201E+03  0.19604520602E+02  0.18482677876E+03  0.27296252321E+03  0.17300000000E+03 0. -1.
         -6    1    1    2    0  502  0.10017117201E+03 -0.19604520602E+02  0.41574121480E+03  0.46172324894E+03  0.17300000000E+03 0.  1.
<mgrwt>
<rscale>  2 0.20086712E+03</rscale>
<asrwt>0</asrwt>
<pdfrwt beam="1">  1       21 0.10271182E+00 0.20086712E+03</pdfrwt>
<pdfrwt beam="2">  1       21 0.10316753E-01 0.20086712E+03</pdfrwt>
<totfact> 0.58905187E+04</totfact>
</mgrwt>
</event>
<event>
 4    3  0.3905963E+000  0.2917367E+03  0.7546771E-02  0.1089446E+00
         21   -1    0    0  501  502  0.00000000000E+00  0.00000000000E+00  0.87702417462E+02  0.87702417462E+02  0.00000000000E+00 0.  1.
         21   -1    0    0  502  503 -0.00000000000E+00 -0.00000000000E+00 -0.97044700927E+03  0.97044700927E+03  0.00000000000E+00 0. -1.
          6    1    1    2  501    0 -0.74810551505E+02  0.22267623830E+03 -0.44222871921E+03  0.52978917110E+03  0.17300000000E+03 0.  1.
         -6    1    1    2    0  503  0.74810551505E+02 -0.22267623830E+03 -0.44051587259E+03  0.52836025563E+03  0.17300000000E+03 0.  1.
<mgrwt>
<rscale>  2 0.29173674E+03</rscale>
<asrwt>0</asrwt>
<pdfrwt beam="1">  1       21 0.13492681E-01 0.29173674E+03</pdfrwt>
<pdfrwt beam="2">  1       21 0.14929953E+00 0.29173674E+03</pdfrwt>
<totfact> 0.13556722E+04</totfact>
</mgrwt>
</event>
<event>
 4    3  0.3905963E+000  0.3368182E+03  0.7546771E-02  0.1068159E+00
         21   -1    0    0  503  502  0.00000000000E+00  0.00000000000E+00  0.25891972475E+03  0.25891972475E+03  0.00000000000E+00 0. -1.
         21   -1    0    0  501  503 -0.00000000000E+00 -0.00000000000E+00 -0.44212259911E+03  0.44212259911E+03  0.00000000000E+00 0.  1.
          6    1    1    2  501    0  0.21115525229E+03 -0.19730924121E+03 -0.58388190276E+02  0.34184156857E+03  0.17300000000E+03 0. -1.
         -6    1    1    2    0  502 -0.21115525229E+03  0.19730924121E+03 -0.12481468408E+03  0.35920075529E+03  0.17300000000E+03 0.  1.
<mgrwt>
<rscale>  2 0.33681817E+03</rscale>
<asrwt>0</asrwt>
<pdfrwt beam="1">  1       21 0.39833804E-01 0.33681817E+03</pdfrwt>
<pdfrwt beam="2">  1       21 0.68018861E-01 0.33681817E+03</pdfrwt>
<totfact> 0.11127227E+04</totfact>
</mgrwt>
</event>
<event>
 4    3  0.3905963E+000  0.1825660E+03  0.7546771E-02  0.1165343E+00
         21   -1    0    0  501  502  0.00000000000E+00  0.00000000000E+00  0.11500930664E+04  0.11500930664E+04  0.00000000000E+00 0.  1.
         21   -1    0    0  502  503 -0.00000000000E+00 -0.00000000000E+00 -0.47608536007E+02  0.47608536007E+02  0.00000000000E+00 0.  1.
          6    1    1    2  501    0  0.22792161068E+02 -0.53682933244E+02  0.92583475714E+03  0.94366325427E+03  0.17300000000E+03 0.  1.
         -6    1    1    2    0  503 -0.22792161068E+02  0.53682933244E+02  0.17664977321E+03  0.25403834810E+03  0.17300000000E+03 0.  1.
<mgrwt>
<rscale>  2 0.18256599E+03</rscale>
<asrwt>0</asrwt>
<pdfrwt beam="1">  1       21 0.17693737E+00 0.18256599E+03</pdfrwt>
<pdfrwt beam="2">  1       21 0.73243910E-02 0.18256599E+03</pdfrwt>
<totfact> 0.26893323E+04</totfact>
</mgrwt>
</event>
<event>
 4    3  0.3905963E+000  0.2080185E+03  0.7546771E-02  0.1143145E+00
         21   -1    0    0  503  502  0.00000000000E+00  0.00000000000E+00  0.41611824909E+03  0.41611824909E+03  0.00000000000E+00 0.  1.
         21   -1    0    0  501  503 -0.00000000000E+00 -0.00000000000E+00 -0.28282077945E+03  0.28282077945E+03  0.00000000000E+00 0. -1.
          6    1    1    2  501    0  0.81461879889E+02 -0.81894111311E+02 -0.21124329861E+03  0.29647160834E+03  0.17300000000E+03 0. -1.
         -6    1    1    2    0  502 -0.81461879889E+02  0.81894111311E+02  0.34454076824E+03  0.40246742020E+03  0.17300000000E+03 0.  1.
<mgrwt>
<rscale>  2 0.20801847E+03</rscale>
<asrwt>0</asrwt>
<pdfrwt beam="1">  1       21 0.64018193E-01 0.20801847E+03</pdfrwt>
<pdfrwt beam="2">  1       21 0.43510889E-01 0.20801847E+03</pdfrwt>
<totfact> 0.11320359E+04</totfact>
</mgrwt>
</event>
<event>
 4    3  0.3905963E+000  0.2080297E+03  0.7546771E-02  0.1143136E+00
         21   -1    0    0  503  502  0.00000000000E+00  0.00000000000E+00  0.22047131996E+03  0.22047131996E+03  0.00000000000E+00 0. -1.
         21   -1    0    0  501  503 -0.00000000000E+00 -0.00000000000E+00 -0.21061362921E+03  0.21061362921E+03  0.00000000000E+00 0. -1.
          6    1    1    2  501    0  0.95164762093E+02 -0.65505872502E+02 -0.51281169002E+02  0.21425711090E+03  0.17300000000E+03 0. -1.
         -6    1    1    2    0  502 -0.95164762093E+02  0.65505872502E+02  0.61138859759E+02  0.21682783827E+03  0.17300000000E+03 0. -1.
<mgrwt>
<rscale>  2 0.20802969E+03</rscale>
<asrwt>0</asrwt>
<pdfrwt beam="1">  1       21 0.33918665E-01 0.20802969E+03</pdfrwt>
<pdfrwt beam="2">  1       21 0.32402097E-01 0.20802969E+03</pdfrwt>
<totfact> 0.76236619E+04</totfact>
</mgrwt>
</event>
<event>
 4    3  0.3905963E+000  0.1741883E+03  0.7546771E-02  0.1173549E+00
         21   -1    0    0  501  502  0.00000000000E+00  0.00000000000E+00  0.16012008238E+04  0.16012008238E+04  0.00000000000E+00 0. -1.
         21   -1    0    0  502  503 -0.00000000000E+00 -0.00000000000E+00 -0.44220642655E+02  0.44220642655E+02  0.00000000000E+00 0. -1.
          6    1    1    2  501    0  0.20134296864E+02  0.26758641315E+01  0.14004311807E+04  0.14112225346E+04  0.17300000000E+03 0. -1.
         -6    1    1    2    0  503 -0.20134296864E+02 -0.26758641315E+01  0.15654900042E+03  0.23419893188E+03  0.17300000000E+03 0. -1.
<mgrwt>
<rscale>  2 0.17418826E+03</rscale>
<asrwt>0</asrwt>
<pdfrwt beam="1">  1       21 0.24633854E+00 0.17418826E+03</pdfrwt>
<pdfrwt beam="2">  1       21 0.68031770E-02 0.17418826E+03</pdfrwt>
<totfact> 0.11304090E+04</totfact>
</mgrwt>
</event>
<event>
 4    3  0.3905963E+000  0.2082456E+03  0.7546771E-02  0.1142963E+00
         21   -1    0    0  503  502  0.00000000000E+00  0.00000000000E+00  0.87927504050E+02  0.87927504050E+02  0.00000000000E+00 0. -1.
         21   -1    0    0  501  503 -0.00000000000E+00 -0.00000000000E+00 -0.56955735644E+03  0.56955735644E+03  0.00000000000E+00 0. -1.
          6    1    1    2  501    0  0.97220369392E+02  0.63130127496E+02 -0.36118002063E+03  0.41691392460E+03  0.17300000000E+03 0. -1.
         -6    1    1    2    0  502 -0.97220369392E+02 -0.63130127496E+02 -0.12044983175E+03  0.24057093588E+03  0.17300000000E+03 0. -1.
<mgrwt>
<rscale>  2 0.20824556E+03</rscale>
<asrwt>0</asrwt>
<pdfrwt beam="1">  1       21 0.13527308E-01 0.20824556E+03</pdfrwt>
<pdfrwt beam="2">  1       21 0.87624212E-01 0.20824556E+03</pdfrwt>
<totfact> 0.52466364E+04</totfact>
</mgrwt>
</event>
<event>
 4    3  0.3905963E+000  0.2154823E+03  0.7546771E-02  0.1137297E+00
         21   -1    0    0  503  502  0.00000000000E+00  0.00000000000E+00  0.57973303165E+03  0.57973303165E+03  0.00000000000E+00 0.  1.
         21   -1    0    0  501  503 -0.00000000000E+00 -0.00000000000E+00 -0.83084180652E+02  0.83084180652E+02  0.00000000000E+00 0.  1.
          6    1    1    2  501    0  0.69965011122E+02  0.10774288451E+03  0.18544383139E+03  0.28429218516E+03  0.17300000000E+03 0.  1.
         -6    1    1    2    0  502 -0.69965011122E+02 -0.10774288451E+03  0.31120501961E+03  0.37852502714E+03  0.17300000000E+03 0.  1.
<mgrwt>
<rscale>  2 0.21548232E+03</rscale>
<asrwt>0</asrwt>
<pdfrwt beam="1">  1       21 0.89189695E-01 0.21548232E+03</pdfrwt>
<pdfrwt beam="2">  1       21 0.12782182E-01 0.21548232E+03</pdfrwt>
<totfact> 0.55597138E+04</totfact>
</mgrwt>
</event>
<event>
 4    3  0.3905963E+000  0.2672608E+03  0.7546771E-02  0.1102858E+00
         21   -1    0    0  503  502  0.00000000000E+00  0.00000000000E+00  0.46627586115E+03  0.46627586115E+03  0.00000000000E+00 0. -1.
         21   -1    0    0  501  503 -0.00000000000E+00 -0.00000000000E+00 -0.16881810369E+03  0.16881810369E+03  0.00000000000E+00 0. -1.
          6    1    1    2  501    0 -0.19909798579E+03  0.43119614287E+02  0.52109058061E+02  0.27229334001E+03  0.17300000000E+03 0. -1.
         -6    1    1    2    0  502  0.19909798579E+03 -0.43119614287E+02  0.24534869939E+03  0.36280062483E+03  0.17300000000E+03 0. -1.
<mgrwt>
<rscale>  2 0.26726075E+03</rscale>
<asrwt>0</asrwt>
<pdfrwt beam="1">  1       21 0.71734747E-01 0.26726075E+03</pdfrwt>
<pdfrwt beam="2">  1       21 0.25972016E-01 0.26726075E+03</pdfrwt>
<totfact> 0.23790514E+04</totfact>
</mgrwt>
</event>
<event>
 4    3  0.3905963E+000  0.1812947E+03  0.7546771E-02  0.1166556E+00
         21   -1    0    0  501  502  0.00000000000E+00  0.00000000000E+00  0.67316791555E+03  0.67316791555E+03  0.00000000000E+00 0.  1.
         21   -1    0    0  502  503 -0.00000000000E+00 -0.00000000000E+00 -0.55900736833E+02  0.55900736833E+02  0.00000000000E+00 0.  1.
          6    1    1    2  501    0 -0.52925356417E+02 -0.11733658932E+02  0.43832153338E+03  0.47433483820E+03  0.17300000000E+03 0.  1.
         -6    1    1    2    0  503  0.52925356417E+02  0.11733658932E+02  0.17894564534E+03  0.25473381418E+03  0.17300000000E+03 0.  1.
<mgrwt>
<rscale>  2 0.18129471E+03</rscale>
<asrwt>0</asrwt>
<pdfrwt beam="1">  1       21 0.10356429E+00 0.18129471E+03</pdfrwt>
<pdfrwt beam="2">  1       21 0.86001138E-02 0.18129471E+03</pdfrwt>
<totfact> 0.80276276E+04</totfact>
</mgrwt>
</event>
<event>
 4    3  0.3905963E+000  0.2727482E+03  0.7546771E-02  0.1099717E+00
         21   -1    0    0  501  502  0.00000000000E+00  0.00000000000E+00  0.30659945687E+03  0.30659945687E+03  0.00000000000E+00 0. -1.
         21   -1    0    0  502  503 -0.00000000000E+00 -0.00000000000E+00 -0.57022500807E+03  0.57022500807E+03  0.00000000000E+00 0.  1.
          6    1    1    2  501    0 -0.19843671079E+03 -0.71312420019E+02  0.20048330866E+03  0.33850427839E+03  0.17300000000E+03 0. -1.
         -6    1    1    2    0  503  0.19843671079E+03  0.71312420019E+02 -0.46410885987E+03  0.53832018655E+03  0.17300000000E+03 0.  1.
<mgrwt>
<rscale>  2 0.27274822E+03</rscale>
<asrwt>0</asrwt>
<pdfrwt beam="1">  1       21 0.47169148E-01 0.27274822E+03</pdfrwt>
<pdfrwt beam="2">  1       21 0.87726924E-01 0.27274822E+03</pdfrwt>
<totfact> 0.45373777E+03</totfact>
</mgrwt>
</event>
<event>
 4    3  0.3905963E+000  0.2099201E+03  0.7546771E-02  0.1141629E+00
         21   -1    0    0  503  502  0.00000000000E+00  0.00000000000E+00  0.44470241972E+03  0.44470241972E+03  0.00000000000E+00 0. -1.
         21   -1    0    0  501  503 -0.00000000000E+00 -0.00000000000E+00 -0.11845021734E+03  0.11845021734E+03  0.00000000000E+00 0. -1.
          6    1    1    2  501    0  0.10092335370E+03  0.62864251322E+02  0.49294918411E+02  0.21563030028E+03  0.17300000000E+03 0. -1.
         -6    1    1    2    0  502 -0.10092335370E+03 -0.62864251322E+02  0.27695728398E+03  0.34752233678E+03  0.17300000000E+03 0. -1.
<mgrwt>
<rscale>  2 0.20992007E+03</rscale>
<asrwt>0</asrwt>
<pdfrwt beam="1">  1       21 0.68415756E-01 0.20992007E+03</pdfrwt>
<pdfrwt beam="2">  1       21 0.18223111E-01 0.20992007E+03</pdfrwt>
<totfact> 0.53032829E+04</totfact>
</mgrwt>
</event>
<event>
 4    3  0.3905963E+000  0.2386240E+03  0.7546771E-02  0.1120713E+00
         21   -1    0    0  501  502  0.00000000000E+00  0.00000000000E+00  0.28717928751E+03  0.28717928751E+03  0.00000000000E+00 0. -1.
         21   -1    0    0  502  503 -0.00000000000E+00 -0.00000000000E+00 -0.34780891119E+03  0.34780891119E+03  0.00000000000E+00 0.  1.
          6    1    1    2  501    0 -0.16197997173E+03  0.27837226298E+02 -0.23849066472E+03  0.33737104139E+03  0.17300000000E+03 0.  1.
         -6    1    1    2    0  503  0.16197997173E+03 -0.27837226298E+02  0.17786104103E+03  0.29761715731E+03  0.17300000000E+03 0. -1.
<mgrwt>
<rscale>  2 0.23862402E+03</rscale>
<asrwt>0</asrwt>
<pdfrwt beam="1">  1       21 0.44181429E-01 0.23862402E+03</pdfrwt>
<pdfrwt beam="2">  1       21 0.53509063E-01 0.23862402E+03</pdfrwt>
<totfact> 0.15832319E+04</totfact>
</mgrwt>
</event>
<event>
 4    3  0.3905963E+000  0.1958451E+03  0.7546771E-02  0.1153293E+00
         21   -1    0    0  501  502  0.00000000000E+00  0.00000000000E+00  0.16302149772E+03  0.16302149772E+03  0.00000000000E+00 0.  1.
         21   -1    0    0  502  503 -0.00000000000E+00 -0.00000000000E+00 -0.23679511946E+03  0.23679511946E+03  0.00000000000E+00 0.  1.
          6    1    1    2  501    0  0.84255092649E+02 -0.36433448768E+02 -0.52889860232E+02  0.20286116963E+03  0.17300000000E+03 0.  1.
         -6    1    1    2    0  503 -0.84255092649E+02  0.36433448768E+02 -0.20883761511E+02  0.19695544755E+03  0.17300000000E+03 0.  1.
<mgrwt>
<rscale>  2 0.19584513E+03</rscale>
<asrwt>0</asrwt>
<pdfrwt beam="1">  1       21 0.25080230E-01 0.19584513E+03</pdfrwt>
<pdfrwt beam="2">  1       21 0.36430018E-01 0.19584513E+03</pdfrwt>
<totfact> 0.10926277E+05</totfact>
</mgrwt>
</event>
<event>
 4    3  0.3905963E+000  0.2423062E+03  0.7546771E-02  0.1118266E+00
         21   -1    0    0  503  502  0.00000000000E+00  0.00000000000E+00  0.53528216324E+03  0.53528216324E+03  0.00000000000E+00 0. -1.
         21   -1    0    0  501  503 -0.00000000000E+00 -0.00000000000E+00 -0.11545433255E+03  0.11545433255E+03  0.00000000000E+00 0. -1.
          6    1    1    2  501    0  0.10287407751E+03  0.13490824740E+03  0.13717936044E+03  0.27844297077E+03  0.17300000000E+03 0. -1.
         -6    1    1    2    0  502 -0.10287407751E+03 -0.13490824740E+03  0.28264847025E+03  0.37229352503E+03  0.17300000000E+03 0. -1.
<mgrwt>
<rscale>  2 0.24230623E+03</rscale>
<asrwt>0</asrwt>
<pdfrwt beam="1">  1       21 0.82351101E-01 0.24230623E+03</pdfrwt>
<pdfrwt beam="2">  1       21 0.17762205E-01 0.24230623E+03</pdfrwt>
<totfact> 0.36153368E+04</totfact>
</mgrwt>
</event>
<event>
 4    3  0.3905963E+000  0.2043201E+03  0.7546771E-02  0.1146144E+00
         21   -1    0    0  503  502  0.00000000000E+00  0.00000000000E+00  0.47897319134E+03  0.47897319134E+03  0.00000000000E+00 0.  1.
         21   -1    0    0  501  503 -0.00000000000E+00 -0.00000000000E+00 -0.10395993675E+03  0.10395993675E+03  0.00000000000E+00 0.  1.
          6    1    1    2  501    0 -0.10695203384E+03 -0.19467286400E+02  0.70334180786E+02  0.21608704211E+03  0.17300000000E+03 0.  1.
         -6    1    1    2    0  502  0.10695203384E+03  0.19467286400E+02  0.30467907380E+03  0.36684608598E+03  0.17300000000E+03 0.  1.
<mgrwt>
<rscale>  2 0.20432012E+03</rscale>
<asrwt>0</asrwt>
<pdfrwt beam="1">  1       21 0.73688182E-01 0.20432012E+03</pdfrwt>
<pdfrwt beam="2">  1       21 0.15993837E-01 0.20432012E+03</pdfrwt>
<totfact> 0.57380247E+04</totfact>
</mgrwt>
</event>
<event>
 4    3  0.3905963E+000  0.1834588E+03  0.7546771E-02  0.1164497E+00
         21   -1    0    0  501  502  0.00000000000E+00  0.00000000000E+00  0.69248668825E+02  0.69248668825E+02  0.00000000000E+00 0. -1.
         21   -1    0    0  502  503 -0.00000000000E+00 -0.00000000000E+00 -0.51532369011E+03  0.51532369011E+03  0.00000000000E+00 0. -1.
          6    1    1    2  501    0  0.19201623185E+02 -0.57960541767E+02 -0.15335331973E+03  0.23911162123E+03  0.17300000000E+03 0. -1.
         -6    1    1    2    0  503 -0.19201623185E+02  0.57960541767E+02 -0.29272170156E+03  0.34546073771E+03  0.17300000000E+03 0. -1.
<mgrwt>
<rscale>  2 0.18345879E+03</rscale>
<asrwt>0</asrwt>
<pdfrwt beam="1">  1       21 0.10653641E-01 0.18345879E+03</pdfrwt>
<pdfrwt beam="2">  1       21 0.79280568E-01 0.18345879E+03</pdfrwt>
<totfact> 0.10219004E+05</totfact>
</mgrwt>
</event>
<event>
 4    3  0.3905963E+000  0.2607680E+03  0.7546771E-02  0.1106683E+00
         21   -1    0    0  501  502  0.00000000000E+00  0.00000000000E+00  0.27118087569E+02  0.27118087569E+02  0.00000000000E+00 0. -1.
         21   -1    0    0  502  503 -0.00000000000E+00 -0.00000000000E+00 -0.25496263626E+04  0.25496263626E+04  0.00000000000E+00 0. -1.
          6    1    1    2  501    0 -0.11973396441E+03 -0.15406081664E+03 -0.10957447034E+04  0.11263464887E+04  0.17300000000E+03 0. -1.
         -6    1    1    2    0  503  0.11973396441E+03  0.15406081664E+03 -0.14267635716E+04  0.14503979615E+04  0.17300000000E+03 0. -1.
<mgrwt>
<rscale>  2 0.26076801E+03</rscale>
<asrwt>0</asrwt>
<pdfrwt beam="1">  1       21 0.41720139E-02 0.26076801E+03</pdfrwt>
<pdfrwt beam="2">  1       21 0.39225017E+00 0.26076801E+03</pdfrwt>
<totfact> 0.32755493E+03</totfact>
</mgrwt>
</event>
<event>
 4    3  0.3905963E+000  0.1844099E+03  0.7546771E-02  0.1163602E+00
         21   -1    0    0  503  502  0.00000000000E+00  0.00000000000E+00  0.84631104428E+03  0.84631104428E+03  0.00000000000E+00 0. -1.
         21   -1    0    0  501  503 -0.00000000000E+00 -0.00000000000E+00 -0.43487520065E+02  0.43487520065E+02  0.00000000000E+00 0. -1.
          6    1    1    2  501    0  0.58402247968E+02 -0.25830277874E+02  0.27876497830E+03  0.33424083974E+03  0.17300000000E+03 0. -1.
         -6    1    1    2    0  502 -0.58402247968E+02  0.25830277874E+02  0.52405854592E+03  0.55555772461E+03  0.17300000000E+03 0. -1.
<mgrwt>
<rscale>  2 0.18440994E+03</rscale>
<asrwt>0</asrwt>
<pdfrwt beam="1">  1       21 0.13020169E+00 0.18440994E+03</pdfrwt>
<pdfrwt beam="2">  1       21 0.66903883E-02 0.18440994E+03</pdfrwt>
<totfact> 0.70698564E+04</totfact>
</mgrwt>
</event>
<event>
 4    3  0.3905963E+000  0.2687088E+03  0.7546771E-02  0.1102021E+00
         21   -1    0    0  501  502  0.00000000000E+00  0.00000000000E+00  0.60846430078E+03  0.60846430078E+03  0.00000000000E+00 0. -1.
         21   -1    0    0  502  503 -0.00000000000E+00 -0.00000000000E+00 -0.59774282986E+03  0.59774282986E+03  0.00000000000E+00 0. -1.
          6    1    1    2  501    0  0.27592761528E+02  0.20374994927E+03  0.54529017815E+03  0.60790277241E+03  0.17300000000E+03 0. -1.
         -6    1    1    2    0  503 -0.27592761528E+02 -0.20374994927E+03 -0.53456870723E+03  0.59830435822E+03  0.17300000000E+03 0. -1.
<mgrwt>
<rscale>  2 0.26870877E+03</rscale>
<asrwt>0</asrwt>
<pdfrwt beam="1">  1       21 0.93609892E-01 0.26870877E+03</pdfrwt>
<pdfrwt beam="2">  1       21 0.91960435E-01 0.26870877E+03</pdfrwt>
<totfact> 0.89653055E+02</totfact>
</mgrwt>
</event>
<event>
 4    3  0.3905963E+000  0.1805625E+03  0.7546771E-02  0.1167260E+00
         21   -1    0    0  501  502  0.00000000000E+00  0.00000000000E+00  0.90708689444E+03  0.90708689444E+03  0.00000000000E+00 0.  1.
         21   -1    0    0  502  503 -0.00000000000E+00 -0.00000000000E+00 -0.39154449678E+02  0.39154449678E+02  0.00000000000E+00 0. -1.
          6    1    1    2  501    0 -0.50323738890E+02 -0.11888742145E+02  0.56947795371E+03  0.59741774383E+03  0.17300000000E+03 0.  1.
         -6    1    1    2    0  503  0.50323738890E+02  0.11888742145E+02  0.29845449105E+03  0.34882360028E+03  0.17300000000E+03 0. -1.
<mgrwt>
<rscale>  2 0.18056251E+03</rscale>
<asrwt>0</asrwt>
<pdfrwt beam="1">  1       21 0.13955181E+00 0.18056251E+03</pdfrwt>
<pdfrwt beam="2">  1       21 0.60237622E-02 0.18056251E+03</pdfrwt>
<totfact> 0.71093365E+04</totfact>
</mgrwt>
</event>
<event>
 4    3  0.3905963E+000  0.1809051E+03  0.7546771E-02  0.1166930E+00
         21   -1    0    0  501  502  0.00000000000E+00  0.00000000000E+00  0.37166915780E+03  0.37166915780E+03  0.00000000000E+00 0. -1.
         21   -1    0    0  502  503 -0.00000000000E+00 -0.00000000000E+00 -0.13190184311E+03  0.13190184311E+03  0.00000000000E+00 0. -1.
          6    1    1    2  501    0 -0.23550418277E+02 -0.47360845030E+02  0.26505576725E+03  0.32090688929E+03  0.17300000000E+03 0. -1.
         -6    1    1    2    0  503  0.23550418277E+02  0.47360845030E+02 -0.25288452562E+02  0.18266411163E+03  0.17300000000E+03 0. -1.
<mgrwt>
<rscale>  2 0.18090515E+03</rscale>
<asrwt>0</asrwt>
<pdfrwt beam="1">  1       21 0.57179870E-01 0.18090515E+03</pdfrwt>
<pdfrwt beam="2">  1       21 0.20292591E-01 0.18090515E+03</pdfrwt>
<totfact> 0.64856951E+04</totfact>
</mgrwt>
</event>
<event>
 4    3  0.3905963E+000  0.1932701E+03  0.7546771E-02  0.1155545E+00
         21   -1    0    0  503  502  0.00000000000E+00  0.00000000000E+00  0.21453203665E+02  0.21453203665E+02  0.00000000000E+00 0.  1.
         21   -1    0    0  501  503 -0.00000000000E+00 -0.00000000000E+00 -0.17916906711E+04  0.17916906711E+04  0.00000000000E+00 0.  1.
          6    1    1    2  501    0  0.60637313822E+02 -0.61216549915E+02 -0.10373733182E+04  0.10552235550E+04  0.17300000000E+03 0.  1.
         -6    1    1    2    0  502 -0.60637313822E+02  0.61216549915E+02 -0.73286414928E+03  0.75792031977E+03  0.17300000000E+03 0.  1.
<mgrwt>
<rscale>  2 0.19327015E+03</rscale>
<asrwt>0</asrwt>
<pdfrwt beam="1">  1       21 0.33004917E-02 0.19327015E+03</pdfrwt>
<pdfrwt beam="2">  1       21 0.27564481E+00 0.19327015E+03</pdfrwt>
<totfact> 0.25451886E+04</totfact>
</mgrwt>
</event>
<event>
 4    3  0.3905963E+000  0.1972993E+03  0.7546771E-02  0.1152038E+00
         21   -1    0    0  503  502  0.00000000000E+00  0.00000000000E+00  0.61872659682E+03  0.61872659682E+03  0.00000000000E+00 0. -1.
         21   -1    0    0  501  503 -0.00000000000E+00 -0.00000000000E+00 -0.10870604473E+03  0.10870604473E+03  0.00000000000E+00 0. -1.
          6    1    1    2  501    0  0.32985066243E+02 -0.88938172911E+02  0.18947491255E+02  0.19820701456E+03  0.17300000000E+03 0. -1.
         -6    1    1    2    0  502 -0.32985066243E+02  0.88938172911E+02  0.49107306083E+03  0.52922562700E+03  0.17300000000E+03 0. -1.
<mgrwt>
<rscale>  2 0.19729930E+03</rscale>
<asrwt>0</asrwt>
<pdfrwt beam="1">  1       21 0.95188705E-01 0.19729930E+03</pdfrwt>
<pdfrwt beam="2">  1       21 0.16724007E-01 0.19729930E+03</pdfrwt>
<totfact> 0.29565661E+04</totfact>
</mgrwt>
</event>
<event>
 4    3  0.3905963E+000  0.1960342E+03  0.7546771E-02  0.1153129E+00
         21   -1    0    0  503  502  0.00000000000E+00  0.00000000000E+00  0.10413976001E+03  0.10413976001E+03  0.00000000000E+00 0. -1.
         21   -1    0    0  501  503 -0.00000000000E+00 -0.00000000000E+00 -0.13452084052E+04  0.13452084052E+04  0.00000000000E+00 0.  1.
          6    1    1    2  501    0  0.44561184870E+02 -0.80713824991E+02 -0.12378613118E+04  0.12532876956E+04  0.17300000000E+03 0.  1.
         -6    1    1    2    0  502 -0.44561184870E+02  0.80713824991E+02 -0.32073333641E+01  0.19606046957E+03  0.17300000000E+03 0. -1.
<mgrwt>
<rscale>  2 0.19603423E+03</rscale>
<asrwt>0</asrwt>
<pdfrwt beam="1">  1       21 0.16021501E-01 0.19603423E+03</pdfrwt>
<pdfrwt beam="2">  1       21 0.20695515E+00 0.19603423E+03</pdfrwt>
<totfact> 0.42042733E+03</totfact>
</mgrwt>
</event>
<event>
 4    3  0.3905963E+000  0.1820670E+03  0.7546771E-02  0.1165817E+00
         21   -1    0    0  501  502  0.00000000000E+00  0.00000000000E+00  0.30781619695E+03  0.30781619695E+03  0.00000000000E+00 0.  1.
         21   -1    0    0  502  503 -0.00000000000E+00 -0.00000000000E+00 -0.13600801074E+03  0.13600801074E+03  0.00000000000E+00 0. -1.
          6    1    1    2  501    0 -0.15388997110E+01  0.56718810236E+02  0.18716421662E+03  0.26111077272E+03  0.17300000000E+03 0.  1.
         -6    1    1    2    0  503  0.15388997110E+01 -0.56718810236E+02 -0.15356030411E+02  0.18271343497E+03  0.17300000000E+03 0. -1.
<mgrwt>
<rscale>  2 0.18206700E+03</rscale>
<asrwt>0</asrwt>
<pdfrwt beam="1">  1       21 0.47356338E-01 0.18206700E+03</pdfrwt>
<pdfrwt beam="2">  1       21 0.20924309E-01 0.18206700E+03</pdfrwt>
<totfact> 0.90850317E+04</totfact>
</mgrwt>
</event>
<event>
 4    3  0.3905963E+000  0.1875164E+03  0.7546771E-02  0.1160721E+00
         21   -1    0    0  503  502  0.00000000000E+00  0.00000000000E+00  0.69385995743E+03  0.69385995743E+03  0.00000000000E+00 0.  1.
         21   -1    0    0  501  503 -0.00000000000E+00 -0.00000000000E+00 -0.98603697496E+02  0.98603697496E+02  0.00000000000E+00 0.  1.
          6    1    1    2  501    0  0.47173705520E+01  0.72188315619E+02  0.21383595787E+02  0.18873172671E+03  0.17300000000E+03 0.  1.
         -6    1    1    2    0  502 -0.47173705520E+01 -0.72188315619E+02  0.57387266415E+03  0.60373192822E+03  0.17300000000E+03 0.  1.
<mgrwt>
<rscale>  2 0.18751642E+03</rscale>
<asrwt>0</asrwt>
<pdfrwt beam="1">  1       21 0.10674768E+00 0.18751642E+03</pdfrwt>
<pdfrwt beam="2">  1       21 0.15169800E-01 0.18751642E+03</pdfrwt>
<totfact> 0.27066916E+04</totfact>
</mgrwt>
</event>
<event>
 4    3  0.3905963E+000  0.1758827E+03  0.7546771E-02  0.1171848E+00
         21   -1    0    0  501  502  0.00000000000E+00  0.00000000000E+00  0.81865918190E+03  0.81865918190E+03  0.00000000000E+00 0. -1.
         21   -1    0    0  502  503 -0.00000000000E+00 -0.00000000000E+00 -0.37806077169E+02  0.37806077169E+02  0.00000000000E+00 0. -1.
          6    1    1    2  501    0 -0.25777988193E+02 -0.18471965289E+02  0.40003266934E+03  0.43699068036E+03  0.17300000000E+03 0. -1.
         -6    1    1    2    0  503  0.25777988193E+02  0.18471965289E+02  0.38082043538E+03  0.41947457871E+03  0.17300000000E+03 0. -1.
<mgrwt>
<rscale>  2 0.17588268E+03</rscale>
<asrwt>0</asrwt>
<pdfrwt beam="1">  1       21 0.12594755E+00 0.17588268E+03</pdfrwt>
<pdfrwt beam="2">  1       21 0.58163202E-02 0.17588268E+03</pdfrwt>
<totfact> 0.98068727E+04</totfact>
</mgrwt>
</event>
<event>
 4    3  0.3905963E+000  0.2193035E+03  0.7546771E-02  0.1134403E+00
         21   -1    0    0  503  502  0.00000000000E+00  0.00000000000E+00  0.16552272089E+04  0.16552272089E+04  0.00000000000E+00 0. -1.
         21   -1    0    0  501  503 -0.00000000000E+00 -0.00000000000E+00 -0.66297998758E+02  0.66297998758E+02  0.00000000000E+00 0.  1.
          6    1    1    2  501    0 -0.13301007384E+03  0.21756318278E+02  0.14932960509E+03  0.26531744776E+03  0.17300000000E+03 0.  1.
         -6    1    1    2    0  502  0.13301007384E+03 -0.21756318278E+02  0.14395996051E+04  0.14562077599E+04  0.17300000000E+03 0. -1.
<mgrwt>
<rscale>  2 0.21930348E+03</rscale>
<asrwt>0</asrwt>
<pdfrwt beam="1">  1       21 0.25465031E+00 0.21930348E+03</pdfrwt>
<pdfrwt beam="2">  1       21 0.10199693E-01 0.21930348E+03</pdfrwt>
<totfact> 0.47637427E+03</totfact>
</mgrwt>
</event>
<event>
 4    3  0.3905963E+000  0.2375135E+03  0.7546771E-02  0.1121460E+00
         21   -1    0    0  503  502  0.00000000000E+00  0.00000000000E+00  0.15136308185E+03  0.15136308185E+03  0.00000000000E+00 0.  1.
         21   -1    0    0  501  503 -0.00000000000E+00 -0.00000000000E+00 -0.42164396061E+03  0.42164396061E+03  0.00000000000E+00 0.  1.
          6    1    1    2  501    0 -0.14754849826E+03  0.68652104345E+02 -0.37525378184E+02  0.24045961153E+03  0.17300000000E+03 0.  1.
         -6    1    1    2    0  502  0.14754849826E+03 -0.68652104345E+02 -0.23275550058E+03  0.33254743093E+03  0.17300000000E+03 0.  1.
<mgrwt>
<rscale>  2 0.23751352E+03</rscale>
<asrwt>0</asrwt>
<pdfrwt beam="1">  1       21 0.23286628E-01 0.23751352E+03</pdfrwt>
<pdfrwt beam="2">  1       21 0.64868301E-01 0.23751352E+03</pdfrwt>
<totfact> 0.37120815E+04</totfact>
</mgrwt>
</event>
<event>
 4    3  0.3905963E+000  0.1968920E+03  0.7546771E-02  0.1152388E+00
         21   -1    0    0  501  502  0.00000000000E+00  0.00000000000E+00  0.15027994708E+04  0.15027994708E+04  0.00000000000E+00 0. -1.
         21   -1    0    0  502  503 -0.00000000000E+00 -0.00000000000E+00 -0.26311015749E+02  0.26311015749E+02  0.00000000000E+00 0.  1.
          6    1    1    2  501    0  0.92502116191E+02 -0.16758204660E+02  0.84519312221E+03  0.86782365303E+03  0.17300000000E+03 0.  1.
         -6    1    1    2    0  503 -0.92502116191E+02  0.16758204660E+02  0.63129533286E+03  0.66128683355E+03  0.17300000000E+03 0. -1.
<mgrwt>
<rscale>  2 0.19689205E+03</rscale>
<asrwt>0</asrwt>
<pdfrwt beam="1">  1       21 0.23119985E+00 0.19689205E+03</pdfrwt>
<pdfrwt beam="2">  1       21 0.40478498E-02 0.19689205E+03</pdfrwt>
<totfact> 0.32929628E+04</totfact>
</mgrwt>
</event>
<event>
 4    3  0.3905963E+000  0.2077552E+03  0.7546771E-02  0.1143356E+00
         21   -1    0    0  501  502  0.00000000000E+00  0.00000000000E+00  0.91780790204E+03  0.91780790204E+03  0.00000000000E+00 0.  1.
         21   -1    0    0  502  503 -0.00000000000E+00 -0.00000000000E+00 -0.50720446271E+02  0.50720446271E+02  0.00000000000E+00 0.  1.
          6    1    1    2  501    0 -0.98205958109E+02  0.59906798540E+02  0.56421369756E+03  0.60124814447E+03  0.17300000000E+03 0.  1.
         -6    1    1    2    0  503  0.98205958109E+02 -0.59906798540E+02  0.30287375821E+03  0.36728020384E+03  0.17300000000E+03 0.  1.
<mgrwt>
<rscale>  2 0.20775523E+03</rscale>
<asrwt>0</asrwt>
<pdfrwt beam="1">  1       21 0.14120120E+00 0.20775523E+03</pdfrwt>
<pdfrwt beam="2">  1       21 0.78031462E-02 0.20775523E+03</pdfrwt>
<totfact> 0.43486961E+04</totfact>
</mgrwt>
</event>
<event>
 4    3  0.3905963E+000  0.1861090E+03  0.7546771E-02  0.1162018E+00
         21   -1    0    0  501  502  0.00000000000E+00  0.00000000000E+00  0.25316950196E+03  0.25316950196E+03  0.00000000000E+00 0. -1.
         21   -1    0    0  502  503 -0.00000000000E+00 -0.00000000000E+00 -0.65483113915E+03  0.65483113915E+03  0.00000000000E+00 0. -1.
          6    1    1    2  501    0 -0.27739013704E+02  0.62754479479E+02  0.20296747639E+03  0.27537678560E+03  0.17300000000E+03 0. -1.
         -6    1    1    2    0  503  0.27739013704E+02 -0.62754479479E+02 -0.60462911358E+03  0.63262385551E+03  0.17300000000E+03 0. -1.
<mgrwt>
<rscale>  2 0.18610905E+03</rscale>
<asrwt>0</asrwt>
<pdfrwt beam="1">  1       21 0.38949155E-01 0.18610905E+03</pdfrwt>
<pdfrwt beam="2">  1       21 0.10074325E+00 0.18610905E+03</pdfrwt>
<totfact> 0.51534151E+03</totfact>
</mgrwt>
</event>
<event>
 4    3  0.3905963E+000  0.2096877E+03  0.7546771E-02  0.1141813E+00
         21   -1    0    0  501  502  0.00000000000E+00  0.00000000000E+00  0.20156822865E+03  0.20156822865E+03  0.00000000000E+00 0.  1.
         21   -1    0    0  502  503 -0.00000000000E+00 -0.00000000000E+00 -0.24652069600E+03  0.24652069600E+03  0.00000000000E+00 0. -1.
          6    1    1    2  501    0 -0.11608351471E+03 -0.23760652978E+02  0.53549811796E+02  0.21641749781E+03  0.17300000000E+03 0.  1.
         -6    1    1    2    0  503  0.11608351471E+03  0.23760652978E+02 -0.98502279151E+02  0.23167142684E+03  0.17300000000E+03 0. -1.
<mgrwt>
<rscale>  2 0.20968775E+03</rscale>
<asrwt>0</asrwt>
<pdfrwt beam="1">  1       21 0.31010497E-01 0.20968775E+03</pdfrwt>
<pdfrwt beam="2">  1       21 0.37926261E-01 0.20968775E+03</pdfrwt>
<totfact> 0.66461028E+04</totfact>
</mgrwt>
</event>
<event>
 4    3  0.3905963E+000  0.1976536E+03  0.7546771E-02  0.1151734E+00
         21   -1    0    0  503  502  0.00000000000E+00  0.00000000000E+00  0.56240346758E+03  0.56240346758E+03  0.00000000000E+00 0. -1.
         21   -1    0    0  501  503 -0.00000000000E+00 -0.00000000000E+00 -0.23651161424E+03  0.23651161424E+03  0.00000000000E+00 0. -1.
          6    1    1    2  501    0  0.95458264057E+02  0.50667887203E+01 -0.17276398319E+03  0.26251542128E+03  0.17300000000E+03 0. -1.
         -6    1    1    2    0  502 -0.95458264057E+02 -0.50667887203E+01  0.49865583653E+03  0.53639966054E+03  0.17300000000E+03 0. -1.
<mgrwt>
<rscale>  2 0.19765362E+03</rscale>
<asrwt>0</asrwt>
<pdfrwt beam="1">  1       21 0.86523610E-01 0.19765362E+03</pdfrwt>
<pdfrwt beam="2">  1       21 0.36386402E-01 0.19765362E+03</pdfrwt>
<totfact> 0.83498052E+03</totfact>
</mgrwt>
</event>
<event>
 4    3  0.3905963E+000  0.2688697E+03  0.7546771E-02  0.1101928E+00
         21   -1    0    0  501  502  0.00000000000E+00  0.00000000000E+00  0.16148289609E+03  0.16148289609E+03  0.00000000000E+00 0.  1.
         21   -1    0    0  502  503 -0.00000000000E+00 -0.00000000000E+00 -0.76950112983E+03  0.76950112983E+03  0.00000000000E+00 0. -1.
          6    1    1    2  501    0 -0.20318052972E+03 -0.32857100625E+02 -0.29705231116E+01  0.26888611107E+03  0.17300000000E+03 0.  1.
         -6    1    1    2    0  503  0.20318052972E+03  0.32857100625E+02 -0.60504771063E+03  0.66209791485E+03  0.17300000000E+03 0. -1.
<mgrwt>
<rscale>  2 0.26886970E+03</rscale>
<asrwt>0</asrwt>
<pdfrwt beam="1">  1       21 0.24843523E-01 0.26886970E+03</pdfrwt>
<pdfrwt beam="2">  1       21 0.11838479E+00 0.26886970E+03</pdfrwt>
<totfact> 0.79677766E+03</totfact>
</mgrwt>
</event>
<event>
 4    3  0.3905963E+000  0.2452785E+03  0.7546771E-02  0.1116326E+00
         21   -1    0    0  503  502  0.00000000000E+00  0.00000000000E+00  0.10988795506E+03  0.10988795506E+03  0.00000000000E+00 0.  1.
         21   -1    0    0  501  503 -0.00000000000E+00 -0.00000000000E+00 -0.71775721369E+03  0.71775721369E+03  0.00000000000E+00 0.  1.
          6    1    1    2  501    0 -0.92915333669E+02 -0.14696696554E+03 -0.50549382760E+03  0.56185901962E+03  0.17300000000E+03 0.  1.
         -6    1    1    2    0  502  0.92915333669E+02  0.14696696554E+03 -0.10237543103E+03  0.26578614913E+03  0.17300000000E+03 0.  1.
<mgrwt>
<rscale>  2 0.24527851E+03</rscale>
<asrwt>0</asrwt>
<pdfrwt beam="1">  1       21 0.16905840E-01 0.24527851E+03</pdfrwt>
<pdfrwt beam="2">  1       21 0.11042418E+00 0.24527851E+03</pdfrwt>
<totfact> 0.19781588E+04</totfact>
</mgrwt>
</event>
<event>
 4    3  0.3905963E+000  0.2205773E+03  0.7546771E-02  0.1133453E+00
         21   -1    0    0  501  502  0.00000000000E+00  0.00000000000E+00  0.55321591545E+03  0.55321591545E+03  0.00000000000E+00 0.  1.
         21   -1    0    0  502  503 -0.00000000000E+00 -0.00000000000E+00 -0.90121504632E+02  0.90121504632E+02  0.00000000000E+00 0.  1.
          6    1    1    2  501    0  0.12313071673E+03 -0.59700696344E+02  0.18159502628E+03  0.28571156805E+03  0.17300000000E+03 0.  1.
         -6    1    1    2    0  503 -0.12313071673E+03  0.59700696344E+02  0.28149938454E+03  0.35762585203E+03  0.17300000000E+03 0.  1.
<mgrwt>
<rscale>  2 0.22057730E+03</rscale>
<asrwt>0</asrwt>
<pdfrwt beam="1">  1       21 0.85110139E-01 0.22057730E+03</pdfrwt>
<pdfrwt beam="2">  1       21 0.13864847E-01 0.22057730E+03</pdfrwt>
<totfact> 0.53342545E+04</totfact>
</mgrwt>
</event>
<event>
 4    3  0.3905963E+000  0.1733865E+03  0.7546771E-02  0.1174362E+00
         21   -1    0    0  503  502  0.00000000000E+00  0.00000000000E+00  0.83117443682E+03  0.83117443682E+03  0.00000000000E+00 0.  1.
         21   -1    0    0  501  503 -0.00000000000E+00 -0.00000000000E+00 -0.12431774051E+03  0.12431774051E+03  0.00000000000E+00 0.  1.
          6    1    1    2  501    0 -0.48195709646E+01  0.10518864790E+02 -0.48860752831E+02  0.18013952356E+03  0.17300000000E+03 0.  1.
         -6    1    1    2    0  502  0.48195709646E+01 -0.10518864790E+02  0.75571744914E+03  0.77535265378E+03  0.17300000000E+03 0.  1.
<mgrwt>
<rscale>  2 0.17338649E+03</rscale>
<asrwt>0</asrwt>
<pdfrwt beam="1">  1       21 0.12787299E+00 0.17338649E+03</pdfrwt>
<pdfrwt beam="2">  1       21 0.19125807E-01 0.17338649E+03</pdfrwt>
<totfact> 0.11465099E+04</totfact>
</mgrwt>
</event>
<event>
 4    3  0.3905963E+000  0.1759975E+03  0.7546771E-02  0.1171734E+00
         21   -1    0    0  501  502  0.00000000000E+00  0.00000000000E+00  0.50314445497E+03  0.50314445497E+03  0.00000000000E+00 0.  1.
         21   -1    0    0  502  503 -0.00000000000E+00 -0.00000000000E+00 -0.98115940104E+02  0.98115940104E+02  0.00000000000E+00 0.  1.
          6    1    1    2  501    0 -0.23627165720E+02 -0.22087757436E+02  0.38600899844E+03  0.42423821005E+03  0.17300000000E+03 0.  1.
         -6    1    1    2    0  503  0.23627165720E+02  0.22087757436E+02  0.19019516434E+02  0.17702218503E+03  0.17300000000E+03 0.  1.
<mgrwt>
<rscale>  2 0.17599748E+03</rscale>
<asrwt>0</asrwt>
<pdfrwt beam="1">  1       21 0.77406838E-01 0.17599748E+03</pdfrwt>
<pdfrwt beam="2">  1       21 0.15094760E-01 0.17599748E+03</pdfrwt>
<totfact> 0.57896715E+04</totfact>
</mgrwt>
</event>
<event>
 4    3  0.3905963E+000  0.2556059E+03  0.7546771E-02  0.1109812E+00
         21   -1    0    0  501  502  0.00000000000E+00  0.00000000000E+00  0.54832549350E+03  0.54832549350E+03  0.00000000000E+00 0. -1.
         21   -1    0    0  502  503 -0.00000000000E+00 -0.00000000000E+00 -0.12541855440E+03  0.12541855440E+03  0.00000000000E+00 0. -1.
          6    1    1    2  501    0 -0.74169517592E+02 -0.17292842187E+03  0.13615590364E+03  0.28960798768E+03  0.17300000000E+03 0. -1.
         -6    1    1    2    0  503  0.74169517592E+02  0.17292842187E+03  0.28675103546E+03  0.38413606023E+03  0.17300000000E+03 0. -1.
<mgrwt>
<rscale>  2 0.25560586E+03</rscale>
<asrwt>0</asrwt>
<pdfrwt beam="1">  1       21 0.84357767E-01 0.25560586E+03</pdfrwt>
<pdfrwt beam="2">  1       21 0.19295162E-01 0.25560586E+03</pdfrwt>
<totfact> 0.29142774E+04</totfact>
</mgrwt>
</event>
<event>
 4    3  0.3905963E+000  0.1806704E+03  0.7546771E-02  0.1167156E+00
         21   -1    0    0  503  502  0.00000000000E+00  0.00000000000E+00  0.20163749518E+03  0.20163749518E+03  0.00000000000E+00 0. -1.
         21   -1    0    0  501  503 -0.00000000000E+00 -0.00000000000E+00 -0.22292712896E+03  0.22292712896E+03  0.00000000000E+00 0. -1.
          6    1    1    2  501    0  0.27644068414E+02 -0.44142985573E+02 -0.12172901092E+03  0.21785258730E+03  0.17300000000E+03 0. -1.
         -6    1    1    2    0  502 -0.27644068414E+02  0.44142985573E+02  0.10043937714E+03  0.20671203684E+03  0.17300000000E+03 0. -1.
<mgrwt>
<rscale>  2 0.18067041E+03</rscale>
<asrwt>0</asrwt>
<pdfrwt beam="1">  1       21 0.31021153E-01 0.18067041E+03</pdfrwt>
<pdfrwt beam="2">  1       21 0.34296481E-01 0.18067041E+03</pdfrwt>
<totfact> 0.82172830E+04</totfact>
</mgrwt>
</event>
<event>
 4    3  0.3905963E+000  0.1966928E+03  0.7546771E-02  0.1152560E+00
         21   -1    0    0  503  502  0.00000000000E+00  0.00000000000E+00  0.92781170869E+03  0.92781170869E+03  0.00000000000E+00 0. -1.
         21   -1    0    0  501  503 -0.00000000000E+00 -0.00000000000E+00 -0.88882298640E+02  0.88882298640E+02  0.00000000000E+00 0. -1.
          6    1    1    2  501    0 -0.41140326795E+02  0.84062702672E+02  0.49082145239E+02  0.20272424978E+03  0.17300000000E+03 0. -1.
         -6    1    1    2    0  502  0.41140326795E+02 -0.84062702672E+02  0.78984726481E+03  0.81396975754E+03  0.17300000000E+03 0. -1.
<mgrwt>
<rscale>  2 0.19669282E+03</rscale>
<asrwt>0</asrwt>
<pdfrwt beam="1">  1       21 0.14274026E+00 0.19669282E+03</pdfrwt>
<pdfrwt beam="2">  1       21 0.13674200E-01 0.19669282E+03</pdfrwt>
<totfact> 0.15745636E+04</totfact>
</mgrwt>
</event>
<event>
 4    3  0.3905963E+000  0.2327628E+03  0.7546771E-02  0.1124710E+00
         21   -1    0    0  503  502  0.00000000000E+00  0.00000000000E+00  0.25978809148E+03  0.25978809148E+03  0.00000000000E+00 0.  1.
         21   -1    0    0  501  503 -0.00000000000E+00 -0.00000000000E+00 -0.26842970399E+03  0.26842970399E+03  0.00000000000E+00 0. -1.
          6    1    1    2  501    0 -0.11764557873E+03  0.10202477642E+03 -0.12906241127E+03  0.26614966316E+03  0.17300000000E+03 0. -1.
         -6    1    1    2    0  502  0.11764557873E+03 -0.10202477642E+03  0.12042079876E+03  0.26206813231E+03  0.17300000000E+03 0. -1.
<mgrwt>
<rscale>  2 0.23276283E+03</rscale>
<asrwt>0</asrwt>
<pdfrwt beam="1">  1       21 0.39967399E-01 0.23276283E+03</pdfrwt>
<pdfrwt beam="2">  1       21 0.41296878E-01 0.23276283E+03</pdfrwt>
<totfact> 0.33382952E+04</totfact>
</mgrwt>
</event>
<event>
 4    3  0.3905963E+000  0.2126749E+03  0.7546771E-02  0.1139465E+00
         21   -1    0    0  503  502  0.00000000000E+00  0.00000000000E+00  0.14517212727E+03  0.14517212727E+03  0.00000000000E+00 0. -1.
         21   -1    0    0  501  503 -0.00000000000E+00 -0.00000000000E+00 -0.34893820937E+03  0.34893820937E+03  0.00000000000E+00 0.  1.
          6    1    1    2  501    0 -0.12335707659E+03 -0.92002550199E+01 -0.18273629577E+03  0.28039822900E+03  0.17300000000E+03 0.  1.
         -6    1    1    2    0  502  0.12335707659E+03  0.92002550199E+01 -0.21029786325E+02  0.21371210763E+03  0.17300000000E+03 0. -1.
<mgrwt>
<rscale>  2 0.21267490E+03</rscale>
<asrwt>0</asrwt>
<pdfrwt beam="1">  1       21 0.22334173E-01 0.21267490E+03</pdfrwt>
<pdfrwt beam="2">  1       21 0.53682801E-01 0.21267490E+03</pdfrwt>
<totfact> 0.61032078E+04</totfact>
</mgrwt>
</event>
<event>
 4    3  0.3905963E+000  0.2313174E+03  0.7546771E-02  0.1125716E+00
         21   -1    0    0  503  502  0.00000000000E+00  0.00000000000E+00  0.12912094084E+03  0.12912094084E+03  0.00000000000E+00 0.  1.
         21   -1    0    0  501  503 -0.00000000000E+00 -0.00000000000E+00 -0.54505358568E+03  0.54505358568E+03  0.00000000000E+00 0.  1.
          6    1    1    2  501    0  0.10565375024E+03  0.11142722133E+03 -0.37300400504E+03  0.43890742574E+03  0.17300000000E+03 0.  1.
         -6    1    1    2    0  502 -0.10565375024E+03 -0.11142722133E+03 -0.42928639796E+02  0.23526710078E+03  0.17300000000E+03 0.  1.
<mgrwt>
<rscale>  2 0.23131740E+03</rscale>
<asrwt>0</asrwt>
<pdfrwt beam="1">  1       21 0.19864760E-01 0.23131740E+03</pdfrwt>
<pdfrwt beam="2">  1       21 0.83854398E-01 0.23131740E+03</pdfrwt>
<totfact> 0.28297547E+04</totfact>
</mgrwt>
</event>
<event>
 4    3  0.3905963E+000  0.2534860E+03  0.7546771E-02  0.1111121E+00
         21   -1    0    0  503  502  0.00000000000E+00  0.00000000000E+00  0.13373652459E+04  0.13373652459E+04  0.00000000000E+00 0.  1.
         21   -1    0    0  501  503 -0.00000000000E+00 -0.00000000000E+00 -0.65017437264E+02  0.65017437264E+02  0.00000000000E+00 0.  1.
          6    1    1    2  501    0  0.63829092501E+02  0.17393106787E+03  0.27792918628E+03  0.37616459430E+03  0.17300000000E+03 0.  1.
         -6    1    1    2    0  502 -0.63829092501E+02 -0.17393106787E+03  0.99441862239E+03  0.10262180889E+04  0.17300000000E+03 0.  1.
<mgrwt>
<rscale>  2 0.25348603E+03</rscale>
<asrwt>0</asrwt>
<pdfrwt beam="1">  1       21 0.20574848E+00 0.25348603E+03</pdfrwt>
<pdfrwt beam="2">  1       21 0.10002684E-01 0.25348603E+03</pdfrwt>
<totfact> 0.95542620E+03</totfact>
</mgrwt>
</event>
<event>
 4    3  0.3905963E+000  0.1806992E+03  0.7546771E-02  0.1167128E+00
         21   -1    0    0  501  502  0.00000000000E+00  0.00000000000E+00  0.10349734339E+04  0.10349734339E+04  0.00000000000E+00 0.  1.
         21   -1    0    0  502  503 -0.00000000000E+00 -0.00000000000E+00 -0.10857387202E+03  0.10857387202E+03  0.00000000000E+00 0.  1.
          6    1    1    2  501    0 -0.28476931947E+02 -0.43729319946E+02  0.94478980326E+03  0.96191473708E+03  0.17300000000E+03 0.  1.
         -6    1    1    2    0  503  0.28476931947E+02  0.43729319946E+02 -0.18390241402E+02  0.18163256882E+03  0.17300000000E+03 0.  1.
<mgrwt>
<rscale>  2 0.18069917E+03</rscale>
<asrwt>0</asrwt>
<pdfrwt beam="1">  1       21 0.15922668E+00 0.18069917E+03</pdfrwt>
<pdfrwt beam="2">  1       21 0.16703673E-01 0.18069917E+03</pdfrwt>
<totfact> 0.82962581E+03</totfact>
</mgrwt>
</event>
<event>
 4    3  0.3905963E+000  0.1733620E+03  0.7546771E-02  0.1174386E+00
         21   -1    0    0  503  502  0.00000000000E+00  0.00000000000E+00  0.52648517835E+03  0.52648517835E+03  0.00000000000E+00 0.  1.
         21   -1    0    0  501  503 -0.00000000000E+00 -0.00000000000E+00 -0.57104372413E+02  0.57104372413E+02  0.00000000000E+00 0.  1.
          6    1    1    2  501    0  0.47093368475E+01 -0.10159839890E+02  0.24006649598E+03  0.29611876450E+03  0.17300000000E+03 0. -1.
         -6    1    1    2    0  502 -0.47093368475E+01  0.10159839890E+02  0.22931430996E+03  0.28747078626E+03  0.17300000000E+03 0. -1.
<mgrwt>
<rscale>  2 0.17336205E+03</rscale>
<asrwt>0</asrwt>
<pdfrwt beam="1">  1       21 0.80997716E-01 0.17336205E+03</pdfrwt>
<pdfrwt beam="2">  1       21 0.87852884E-02 0.17336205E+03</pdfrwt>
<totfact> 0.13722651E+05</totfact>
</mgrwt>
</event>
<event>
 4    3  0.3905963E+000  0.1760988E+03  0.7546771E-02  0.1171633E+00
         21   -1    0    0  503  502  0.00000000000E+00  0.00000000000E+00  0.27034948534E+03  0.27034948534E+03  0.00000000000E+00 0. -1.
         21   -1    0    0  501  503 -0.00000000000E+00 -0.00000000000E+00 -0.14318957154E+03  0.14318957154E+03  0.00000000000E+00 0. -1.
          6    1    1    2  501    0 -0.27888898358E+02 -0.17435857924E+02 -0.28640119585E+02  0.17841260113E+03  0.17300000000E+03 0. -1.
         -6    1    1    2    0  502  0.27888898358E+02  0.17435857924E+02  0.15580003339E+03  0.23512645576E+03  0.17300000000E+03 0. -1.
<mgrwt>
<rscale>  2 0.17609884E+03</rscale>
<asrwt>0</asrwt>
<pdfrwt beam="1">  1       21 0.41592228E-01 0.17609884E+03</pdfrwt>
<pdfrwt beam="2">  1       21 0.22029165E-01 0.17609884E+03</pdfrwt>
<totfact> 0.10782096E+05</totfact>
</mgrwt>
</event>
<event>
 4    3  0.3905963E+000  0.1802403E+03  0.7546771E-02  0.1167571E+00
         21   -1    0    0  503  502  0.00000000000E+00  0.00000000000E+00  0.55190140820E+02  0.55190140820E+02  0.00000000000E+00 0.  1.
         21   -1    0    0  501  503 -0.00000000000E+00 -0.00000000000E+00 -0.95211956602E+03  0.95211956602E+03  0.00000000000E+00 0.  1.
          6    1    1    2  501    0  0.17365019617E+02  0.47497451053E+02 -0.75966033439E+03  0.78074988018E+03  0.17300000000E+03 0.  1.
         -6    1    1    2    0  502 -0.17365019617E+02 -0.47497451053E+02 -0.13726909081E+03  0.22655982666E+03  0.17300000000E+03 0.  1.
<mgrwt>
<rscale>  2 0.18024026E+03</rscale>
<asrwt>0</asrwt>
<pdfrwt beam="1">  1       21 0.84907922E-02 0.18024026E+03</pdfrwt>
<pdfrwt beam="2">  1       21 0.14647991E+00 0.18024026E+03</pdfrwt>
<totfact> 0.34667876E+04</totfact>
</mgrwt>
</event>
<event>
 4    3  0.3905963E+000  0.1861635E+03  0.7546771E-02  0.1161968E+00
         21   -1    0    0  503  502  0.00000000000E+00  0.00000000000E+00  0.27314538737E+03  0.27314538737E+03  0.00000000000E+00 0. -1.
         21   -1    0    0  501  503 -0.00000000000E+00 -0.00000000000E+00 -0.71619304691E+03  0.71619304691E+03  0.00000000000E+00 0. -1.
          6    1    1    2  501    0 -0.65608163939E+02 -0.20577015812E+02 -0.67024096068E+03  0.69561468510E+03  0.17300000000E+03 0. -1.
         -6    1    1    2    0  502  0.65608163939E+02  0.20577015812E+02  0.22719330113E+03  0.29372374918E+03  0.17300000000E+03 0. -1.
<mgrwt>
<rscale>  2 0.18616349E+03</rscale>
<asrwt>0</asrwt>
<pdfrwt beam="1">  1       21 0.42022367E-01 0.18616349E+03</pdfrwt>
<pdfrwt beam="2">  1       21 0.11018355E+00 0.18616349E+03</pdfrwt>
<totfact> 0.35649427E+03</totfact>
</mgrwt>
</event>
<event>
 4    3  0.3905963E+000  0.1757611E+03  0.7546771E-02  0.1171970E+00
         21   -1    0    0  503  502  0.00000000000E+00  0.00000000000E+00  0.11162872557E+03  0.11162872557E+03  0.00000000000E+00 0.  1.
         21   -1    0    0  501  503 -0.00000000000E+00 -0.00000000000E+00 -0.52919195111E+03  0.52919195111E+03  0.00000000000E+00 0.  1.
          6    1    1    2  501    0 -0.27891866015E+02 -0.13601592674E+02 -0.43008629985E+03  0.46461401704E+03  0.17300000000E+03 0.  1.
         -6    1    1    2    0  502  0.27891866015E+02  0.13601592674E+02  0.12523074308E+02  0.17620665964E+03  0.17300000000E+03 0.  1.
<mgrwt>
<rscale>  2 0.17576109E+03</rscale>
<asrwt>0</asrwt>
<pdfrwt beam="1">  1       21 0.17173650E-01 0.17576109E+03</pdfrwt>
<pdfrwt beam="2">  1       21 0.81414148E-01 0.17576109E+03</pdfrwt>
<totfact> 0.40828272E+04</totfact>
</mgrwt>
</event>
<event>
 4    3  0.3905963E+000  0.1965750E+03  0.7546771E-02  0.1152661E+00
         21   -1    0    0  501  502  0.00000000000E+00  0.00000000000E+00  0.11799626038E+03  0.11799626038E+03  0.00000000000E+00 0.  1.
         21   -1    0    0  502  503 -0.00000000000E+00 -0.00000000000E+00 -0.91204746304E+03  0.91204746304E+03  0.00000000000E+00 0.  1.
          6    1    1    2  501    0  0.52656099163E+02 -0.77071768123E+02  0.15293351266E+02  0.19716898543E+03  0.17300000000E+03 0.  1.
         -6    1    1    2    0  503 -0.52656099163E+02  0.77071768123E+02 -0.80934455393E+03  0.83287473800E+03  0.17300000000E+03 0.  1.
<mgrwt>
<rscale>  2 0.19657498E+03</rscale>
<asrwt>0</asrwt>
<pdfrwt beam="1">  1       21 0.18153270E-01 0.19657498E+03</pdfrwt>
<pdfrwt beam="2">  1       21 0.14031500E+00 0.19657498E+03</pdfrwt>
<totfact> 0.98039881E+03</totfact>
</mgrwt>
</event>
<event>
 4    3  0.3905963E+000  0.2185587E+03  0.7546771E-02  0.1134962E+00
         21   -1    0    0  501  502  0.00000000000E+00  0.00000000000E+00  0.50742391713E+02  0.50742391713E+02  0.00000000000E+00 0. -1.
         21   -1    0    0  502  503 -0.00000000000E+00 -0.00000000000E+00 -0.11565165458E+04  0.11565165458E+04  0.00000000000E+00 0.  1.
          6    1    1    2  501    0 -0.10302067161E+03  0.85003757389E+02 -0.29254095687E+03  0.36516860352E+03  0.17300000000E+03 0. -1.
         -6    1    1    2    0  503  0.10302067161E+03 -0.85003757389E+02 -0.81323319717E+03  0.84209033395E+03  0.17300000000E+03 0.  1.
<mgrwt>
<rscale>  2 0.21855868E+03</rscale>
<asrwt>0</asrwt>
<pdfrwt beam="1">  1       21 0.78065228E-02 0.21855868E+03</pdfrwt>
<pdfrwt beam="2">  1       21 0.17792560E+00 0.21855868E+03</pdfrwt>
<totfact> 0.23129745E+04</totfact>
</mgrwt>
</event>
<event>
 4    3  0.3905963E+000  0.2195398E+03  0.7546771E-02  0.1134227E+00
         21   -1    0    0  503  502  0.00000000000E+00  0.00000000000E+00  0.37844083098E+03  0.37844083098E+03  0.00000000000E+00 0. -1.
         21   -1    0    0  501  503 -0.00000000000E+00 -0.00000000000E+00 -0.16982484729E+03  0.16982484729E+03  0.00000000000E+00 0. -1.
          6    1    1    2  501    0  0.11088150752E+03 -0.77291691709E+02 -0.32774541240E+02  0.22197271200E+03  0.17300000000E+03 0. -1.
         -6    1    1    2    0  502 -0.11088150752E+03  0.77291691709E+02  0.24139052492E+03  0.32629296627E+03  0.17300000000E+03 0. -1.
<mgrwt>
<rscale>  2 0.21953978E+03</rscale>
<asrwt>0</asrwt>
<pdfrwt beam="1">  1       21 0.58221666E-01 0.21953978E+03</pdfrwt>
<pdfrwt beam="2">  1       21 0.26126900E-01 0.21953978E+03</pdfrwt>
<totfact> 0.37951387E+04</totfact>
</mgrwt>
</event>
<event>
 4    3  0.3905963E+000  0.1902817E+03  0.7546771E-02  0.1158208E+00
         21   -1    0    0  501  502  0.00000000000E+00  0.00000000000E+00  0.13123922987E+03  0.13123922987E+03  0.00000000000E+00 0. -1.
         21   -1    0    0  502  503 -0.00000000000E+00 -0.00000000000E+00 -0.36046425565E+03  0.36046425565E+03  0.00000000000E+00 0.  1.
          6    1    1    2  501    0 -0.49535716844E+02  0.61841233075E+02  0.44761427404E+01  0.19033434058E+03  0.17300000000E+03 0. -1.
         -6    1    1    2    0  503  0.49535716844E+02 -0.61841233075E+02 -0.23370116852E+03  0.30136914494E+03  0.17300000000E+03 0.  1.
<mgrwt>
<rscale>  2 0.19028170E+03</rscale>
<asrwt>0</asrwt>
<pdfrwt beam="1">  1       21 0.20190651E-01 0.19028170E+03</pdfrwt>
<pdfrwt beam="2">  1       21 0.55456040E-01 0.19028170E+03</pdfrwt>
<totfact> 0.69581640E+04</totfact>
</mgrwt>
</event>
<event>
 4    3  0.3905963E+000  0.2476769E+03  0.7546771E-02  0.1114782E+00
         21   -1    0    0  501  502  0.00000000000E+00  0.00000000000E+00  0.26761605423E+03  0.26761605423E+03  0.00000000000E+00 0. -1.
         21   -1    0    0  502  503 -0.00000000000E+00 -0.00000000000E+00 -0.52439627384E+03  0.52439627384E+03  0.00000000000E+00 0. -1.
          6    1    1    2  501    0  0.17706207560E+03 -0.79927935416E+01  0.16871516688E+03  0.29968094851E+03  0.17300000000E+03 0. -1.
         -6    1    1    2    0  503 -0.17706207560E+03  0.79927935416E+01 -0.42549538649E+03  0.49233137955E+03  0.17300000000E+03 0. -1.
<mgrwt>
<rscale>  2 0.24767693E+03</rscale>
<asrwt>0</asrwt>
<pdfrwt beam="1">  1       21 0.41171700E-01 0.24767693E+03</pdfrwt>
<pdfrwt beam="2">  1       21 0.80676350E-01 0.24767693E+03</pdfrwt>
<totfact> 0.73914374E+03</totfact>
</mgrwt>
</event>
<event>
 4    3  0.3905963E+000  0.2083536E+03  0.7546771E-02  0.1142876E+00
         21   -1    0    0  503  502  0.00000000000E+00  0.00000000000E+00  0.27891768532E+03  0.27891768532E+03  0.00000000000E+00 0. -1.
         21   -1    0    0  501  503 -0.00000000000E+00 -0.00000000000E+00 -0.20347082198E+03  0.20347082198E+03  0.00000000000E+00 0. -1.
          6    1    1    2  501    0  0.10384359618E+03 -0.51949493498E+02 -0.79216213438E+02  0.22290457782E+03  0.17300000000E+03 0. -1.
         -6    1    1    2    0  502 -0.10384359618E+03  0.51949493498E+02  0.15466307678E+03  0.25948392948E+03  0.17300000000E+03 0. -1.
<mgrwt>
<rscale>  2 0.20835365E+03</rscale>
<asrwt>0</asrwt>
<pdfrwt beam="1">  1       21 0.42910413E-01 0.20835365E+03</pdfrwt>
<pdfrwt beam="2">  1       21 0.31303203E-01 0.20835365E+03</pdfrwt>
<totfact> 0.50833966E+04</totfact>
</mgrwt>
</event>
<event>
 4    3  0.3905963E+000  0.1972619E+03  0.7546771E-02  0.1152070E+00
         21   -1    0    0  501  502  0.00000000000E+00  0.00000000000E+00  0.21737017288E+04  0.21737017288E+04  0.00000000000E+00 0. -1.
         21   -1    0    0  502  503 -0.00000000000E+00 -0.00000000000E+00 -0.32074969567E+02  0.32074969567E+02  0.00000000000E+00 0.  1.
          6    1    1    2  501    0 -0.46301054380E+02  0.82701197857E+02  0.18039556197E+04  0.18147088344E+04  0.17300000000E+03 0. -1.
         -6    1    1    2    0  503  0.46301054380E+02 -0.82701197857E+02  0.33767113954E+03  0.39106786399E+03  0.17300000000E+03 0.  1.
<mgrwt>
<rscale>  2 0.19726195E+03</rscale>
<asrwt>0</asrwt>
<pdfrwt beam="1">  1       21 0.33441554E+00 0.19726195E+03</pdfrwt>
<pdfrwt beam="2">  1       21 0.49346124E-02 0.19726195E+03</pdfrwt>
<totfact> 0.59037498E+03</totfact>
</mgrwt>
</event>
<event>
 4    3  0.3905963E+000  0.1853293E+03  0.7546771E-02  0.1162743E+00
         21   -1    0    0  501  502  0.00000000000E+00  0.00000000000E+00  0.32479332745E+03  0.32479332745E+03  0.00000000000E+00 0.  1.
         21   -1    0    0  502  503 -0.00000000000E+00 -0.00000000000E+00 -0.10945783496E+03  0.10945783496E+03  0.00000000000E+00 0. -1.
          6    1    1    2  501    0  0.32985534416E+02 -0.57705192647E+02  0.14762912713E+03  0.23694154114E+03  0.17300000000E+03 0.  1.
         -6    1    1    2    0  503 -0.32985534416E+02  0.57705192647E+02  0.67706365358E+02  0.19730962128E+03  0.17300000000E+03 0. -1.
<mgrwt>
<rscale>  2 0.18532926E+03</rscale>
<asrwt>0</asrwt>
<pdfrwt beam="1">  1       21 0.49968204E-01 0.18532926E+03</pdfrwt>
<pdfrwt beam="2">  1       21 0.16839667E-01 0.18532926E+03</pdfrwt>
<totfact> 0.12143669E+05</totfact>
</mgrwt>
</event>
<event>
 4    3  0.3905963E+000  0.1872396E+03  0.7546771E-02  0.1160975E+00
         21   -1    0    0  503  502  0.00000000000E+00  0.00000000000E+00  0.32716032709E+03  0.32716032709E+03  0.00000000000E+00 0. -1.
         21   -1    0    0  501  503 -0.00000000000E+00 -0.00000000000E+00 -0.12026086347E+03  0.12026086347E+03  0.00000000000E+00 0. -1.
          6    1    1    2  501    0  0.53687672676E+02 -0.47405771066E+02  0.17728529747E+03  0.25785412548E+03  0.17300000000E+03 0.  1.
         -6    1    1    2    0  502 -0.53687672676E+02  0.47405771066E+02  0.29614166146E+02  0.18956706508E+03  0.17300000000E+03 0.  1.
<mgrwt>
<rscale>  2 0.18723961E+03</rscale>
<asrwt>0</asrwt>
<pdfrwt beam="1">  1       21 0.50332358E-01 0.18723961E+03</pdfrwt>
<pdfrwt beam="2">  1       21 0.18501671E-01 0.18723961E+03</pdfrwt>
<totfact> 0.10048239E+05</totfact>
</mgrwt>
</event>
<event>
 4    3  0.3905963E+000  0.1744157E+03  0.7546771E-02  0.1173320E+00
         21   -1    0    0  503  502  0.00000000000E+00  0.00000000000E+00  0.42773134935E+02  0.42773134935E+02  0.00000000000E+00 0.  1.
         21   -1    0    0  501  503 -0.00000000000E+00 -0.00000000000E+00 -0.95225908916E+03  0.95225908916E+03  0.00000000000E+00 0.  1.
          6    1    1    2  501    0  0.10051401741E+02  0.19769033379E+02 -0.70505336816E+03  0.72630647616E+03  0.17300000000E+03 0.  1.
         -6    1    1    2    0  502 -0.10051401741E+02 -0.19769033379E+02 -0.20443258606E+03  0.26872574793E+03  0.17300000000E+03 0.  1.
<mgrwt>
<rscale>  2 0.17441573E+03</rscale>
<asrwt>0</asrwt>
<pdfrwt beam="1">  1       21 0.65804828E-02 0.17441573E+03</pdfrwt>
<pdfrwt beam="2">  1       21 0.14650139E+00 0.17441573E+03</pdfrwt>
<totfact> 0.54052760E+04</totfact>
</mgrwt>
</event>
<event>
 4    3  0.3905963E+000  0.1839093E+03  0.7546771E-02  0.1164072E+00
         21   -1    0    0  501  502  0.00000000000E+00  0.00000000000E+00  0.32049246533E+03  0.32049246533E+03  0.00000000000E+00 0.  1.
         21   -1    0    0  502  503 -0.00000000000E+00 -0.00000000000E+00 -0.19541228279E+03  0.19541228279E+03  0.00000000000E+00 0. -1.
          6    1    1    2  501    0  0.14664860399E+02 -0.60651172821E+02  0.23748153615E+03  0.30036661417E+03  0.17300000000E+03 0.  1.
         -6    1    1    2    0  503 -0.14664860399E+02  0.60651172821E+02 -0.11240135361E+03  0.21553813396E+03  0.17300000000E+03 0. -1.
<mgrwt>
<rscale>  2 0.18390928E+03</rscale>
<asrwt>0</asrwt>
<pdfrwt beam="1">  1       21 0.49306533E-01 0.18390928E+03</pdfrwt>
<pdfrwt beam="2">  1       21 0.30063428E-01 0.18390928E+03</pdfrwt>
<totfact> 0.41811134E+04</totfact>
</mgrwt>
</event>
<event>
 4    3  0.3905963E+000  0.2137069E+03  0.7546771E-02  0.1138664E+00
         21   -1    0    0  501  502  0.00000000000E+00  0.00000000000E+00  0.14935725298E+03  0.14935725298E+03  0.00000000000E+00 0.  1.
         21   -1    0    0  502  503 -0.00000000000E+00 -0.00000000000E+00 -0.55690966557E+03  0.55690966557E+03  0.00000000000E+00 0.  1.
          6    1    1    2  501    0  0.84732631543E+02 -0.92531101136E+02  0.33358192918E+02  0.21629468916E+03  0.17300000000E+03 0.  1.
         -6    1    1    2    0  503 -0.84732631543E+02  0.92531101136E+02 -0.44091060550E+03  0.48997222939E+03  0.17300000000E+03 0.  1.
<mgrwt>
<rscale>  2 0.21370686E+03</rscale>
<asrwt>0</asrwt>
<pdfrwt beam="1">  1       21 0.22978039E-01 0.21370686E+03</pdfrwt>
<pdfrwt beam="2">  1       21 0.85678411E-01 0.21370686E+03</pdfrwt>
<totfact> 0.20659993E+04</totfact>
</mgrwt>
</event>
<event>
 4    3  0.3905963E+000  0.2070011E+03  0.7546771E-02  0.1143963E+00
         21   -1    0    0  503  502  0.00000000000E+00  0.00000000000E+00  0.29696885524E+03  0.29696885524E+03  0.00000000000E+00 0.  1.
         21   -1    0    0  501  503 -0.00000000000E+00 -0.00000000000E+00 -0.18750789811E+03  0.18750789811E+03  0.00000000000E+00 0.  1.
          6    1    1    2  501    0  0.87857094781E+02  0.72122027378E+02 -0.61566393460E+02  0.21596267441E+03  0.17300000000E+03 0.  1.
         -6    1    1    2    0  502 -0.87857094781E+02 -0.72122027378E+02  0.17102735059E+03  0.26851407893E+03  0.17300000000E+03 0.  1.
<mgrwt>
<rscale>  2 0.20700110E+03</rscale>
<asrwt>0</asrwt>
<pdfrwt beam="1">  1       21 0.45687516E-01 0.20700110E+03</pdfrwt>
<pdfrwt beam="2">  1       21 0.28847369E-01 0.20700110E+03</pdfrwt>
<totfact> 0.52458688E+04</totfact>
</mgrwt>
</event>
<event>
 4    3  0.3905963E+000  0.1777755E+03  0.7546771E-02  0.1169973E+00
         21   -1    0    0  503  502  0.00000000000E+00  0.00000000000E+00  0.45172248539E+03  0.45172248539E+03  0.00000000000E+00 0. -1.
         21   -1    0    0  501  503 -0.00000000000E+00 -0.00000000000E+00 -0.78499890330E+02  0.78499890330E+02  0.00000000000E+00 0. -1.
          6    1    1    2  501    0  0.34078748636E+02  0.22666084789E+02  0.99187598854E+02  0.20357380056E+03  0.17300000000E+03 0.  1.
         -6    1    1    2    0  502 -0.34078748636E+02 -0.22666084789E+02  0.27403499621E+03  0.32664857516E+03  0.17300000000E+03 0.  1.
<mgrwt>
<rscale>  2 0.17777546E+03</rscale>
<asrwt>0</asrwt>
<pdfrwt beam="1">  1       21 0.69495765E-01 0.17777546E+03</pdfrwt>
<pdfrwt beam="2">  1       21 0.12076907E-01 0.17777546E+03</pdfrwt>
<totfact> 0.10983696E+05</totfact>
</mgrwt>
</event>
<event>
 4    3  0.3905963E+000  0.2285147E+03  0.7546771E-02  0.1127690E+00
         21   -1    0    0  501  502  0.00000000000E+00  0.00000000000E+00  0.31537600891E+03  0.31537600891E+03  0.00000000000E+00 0. -1.
         21   -1    0    0  502  503 -0.00000000000E+00 -0.00000000000E+00 -0.33804292262E+03  0.33804292262E+03  0.00000000000E+00 0.  1.
          6    1    1    2  501    0  0.14919263069E+03  0.56142064735E+01  0.22202720800E+03  0.31861425181E+03  0.17300000000E+03 0. -1.
         -6    1    1    2    0  503 -0.14919263069E+03 -0.56142064735E+01 -0.24469412170E+03  0.33480467972E+03  0.17300000000E+03 0.  1.
<mgrwt>
<rscale>  2 0.22851468E+03</rscale>
<asrwt>0</asrwt>
<pdfrwt beam="1">  1       21 0.48519386E-01 0.22851468E+03</pdfrwt>
<pdfrwt beam="2">  1       21 0.52006603E-01 0.22851468E+03</pdfrwt>
<totfact> 0.13925016E+04</totfact>
</mgrwt>
</event>
<event>
 4    3  0.3905963E+000  0.1914175E+03  0.7546771E-02  0.1157189E+00
         21   -1    0    0  503  502  0.00000000000E+00  0.00000000000E+00  0.11944350154E+03  0.11944350154E+03  0.00000000000E+00 0. -1.
         21   -1    0    0  501  503 -0.00000000000E+00 -0.00000000000E+00 -0.44804788541E+03  0.44804788541E+03  0.00000000000E+00 0. -1.
          6    1    1    2  501    0  0.47831638035E+02  0.66511535937E+02 -0.32363948971E+03  0.37600953353E+03  0.17300000000E+03 0. -1.
         -6    1    1    2    0  502 -0.47831638035E+02 -0.66511535937E+02 -0.49648941609E+01  0.19148185341E+03  0.17300000000E+03 0. -1.
<mgrwt>
<rscale>  2 0.19141748E+03</rscale>
<asrwt>0</asrwt>
<pdfrwt beam="1">  1       21 0.18375923E-01 0.19141748E+03</pdfrwt>
<pdfrwt beam="2">  1       21 0.68930445E-01 0.19141748E+03</pdfrwt>
<totfact> 0.51828375E+04</totfact>
</mgrwt>
</event>
<event>
 4    3  0.3905963E+000  0.2293035E+03  0.7546771E-02  0.1127131E+00
         21   -1    0    0  501  502  0.00000000000E+00  0.00000000000E+00  0.14970699446E+04  0.14970699446E+04  0.00000000000E+00 0.  1.
         21   -1    0    0  502  503 -0.00000000000E+00 -0.00000000000E+00 -0.53082962890E+02  0.53082962890E+02  0.00000000000E+00 0.  1.
          6    1    1    2  501    0 -0.97461788926E+02  0.11468342437E+03  0.11728431996E+04  0.11950486429E+04  0.17300000000E+03 0.  1.
         -6    1    1    2    0  503  0.97461788926E+02 -0.11468342437E+03  0.27114378208E+03  0.35510426453E+03  0.17300000000E+03 0.  1.
<mgrwt>
<rscale>  2 0.22930348E+03</rscale>
<asrwt>0</asrwt>
<pdfrwt beam="1">  1       21 0.23031842E+00 0.22930348E+03</pdfrwt>
<pdfrwt beam="2">  1       21 0.81666108E-02 0.22930348E+03</pdfrwt>
<totfact> 0.97683986E+03</totfact>
</mgrwt>
</event>
<event>
 4    3  0.3905963E+000  0.2033296E+03  0.7546771E-02  0.1146960E+00
         21   -1    0    0  501  502  0.00000000000E+00  0.00000000000E+00  0.98104024420E+02  0.98104024420E+02  0.00000000000E+00 0.  1.
         21   -1    0    0  502  503 -0.00000000000E+00 -0.00000000000E+00 -0.49406787656E+03  0.49406787656E+03  0.00000000000E+00 0.  1.
          6    1    1    2  501    0 -0.10575075090E+03 -0.15188594529E+02 -0.84444644866E+02  0.22016769238E+03  0.17300000000E+03 0.  1.
         -6    1    1    2    0  503  0.10575075090E+03  0.15188594529E+02 -0.31151920728E+03  0.37200420861E+03  0.17300000000E+03 0.  1.
<mgrwt>
<rscale>  2 0.20332957E+03</rscale>
<asrwt>0</asrwt>
<pdfrwt beam="1">  1       21 0.15092927E-01 0.20332957E+03</pdfrwt>
<pdfrwt beam="2">  1       21 0.76010442E-01 0.20332957E+03</pdfrwt>
<totfact> 0.59550552E+04</totfact>
</mgrwt>
</event>
<event>
 4    3  0.3905963E+000  0.1783621E+03  0.7546771E-02  0.1169398E+00
         21   -1    0    0  503  502  0.00000000000E+00  0.00000000000E+00  0.25929346063E+04  0.25929346063E+04  0.00000000000E+00 0. -1.
         21   -1    0    0  501  503 -0.00000000000E+00 -0.00000000000E+00 -0.13055906673E+02  0.13055906673E+02  0.00000000000E+00 0. -1.
          6    1    1    2  501    0 -0.33235933303E+02  0.27918152564E+02  0.16098032202E+04  0.16196541168E+04  0.17300000000E+03 0.  1.
         -6    1    1    2    0  502  0.33235933303E+02 -0.27918152564E+02  0.97007547945E+03  0.98633639613E+03  0.17300000000E+03 0.  1.
<mgrwt>
<rscale>  2 0.17836213E+03</rscale>
<asrwt>0</asrwt>
<pdfrwt beam="1">  1       21 0.39891261E+00 0.17836213E+03</pdfrwt>
<pdfrwt beam="2">  1       21 0.20086031E-02 0.17836213E+03</pdfrwt>
<totfact> 0.11024351E+04</totfact>
</mgrwt>
</event>
<event>
 4    3  0.3905963E+000  0.1953161E+03  0.7546771E-02  0.1153752E+00
         21   -1    0    0  501  502  0.00000000000E+00  0.00000000000E+00  0.93665057180E+02  0.93665057180E+02  0.00000000000E+00 0. -1.
         21   -1    0    0  502  503 -0.00000000000E+00 -0.00000000000E+00 -0.49745946525E+03  0.49745946525E+03  0.00000000000E+00 0. -1.
          6    1    1    2  501    0 -0.83434562561E+02 -0.35469122508E+02 -0.76059261568E+02  0.20960294881E+03  0.17300000000E+03 0. -1.
         -6    1    1    2    0  503  0.83434562561E+02  0.35469122508E+02 -0.32773514650E+03  0.38152157361E+03  0.17300000000E+03 0. -1.
<mgrwt>
<rscale>  2 0.19531612E+03</rscale>
<asrwt>0</asrwt>
<pdfrwt beam="1">  1       21 0.14410008E-01 0.19531612E+03</pdfrwt>
<pdfrwt beam="2">  1       21 0.76532228E-01 0.19531612E+03</pdfrwt>
<totfact> 0.64044961E+04</totfact>
</mgrwt>
</event>
<event>
 4    3  0.3905963E+000  0.2463703E+03  0.7546771E-02  0.1115620E+00
         21   -1    0    0  503  502  0.00000000000E+00  0.00000000000E+00  0.64295283301E+03  0.64295283301E+03  0.00000000000E+00 0.  1.
         21   -1    0    0  501  503 -0.00000000000E+00 -0.00000000000E+00 -0.96697676303E+02  0.96697676303E+02  0.00000000000E+00 0. -1.
          6    1    1    2  501    0  0.14236241669E+03 -0.10248062499E+03  0.21618923613E+03  0.32777449871E+03  0.17300000000E+03 0. -1.
         -6    1    1    2    0  502 -0.14236241669E+03  0.10248062499E+03  0.33006592058E+03  0.41187601061E+03  0.17300000000E+03 0. -1.
<mgrwt>
<rscale>  2 0.24637032E+03</rscale>
<asrwt>0</asrwt>
<pdfrwt beam="1">  1       21 0.98915818E-01 0.24637032E+03</pdfrwt>
<pdfrwt beam="2">  1       21 0.14876566E-01 0.24637032E+03</pdfrwt>
<totfact> 0.32630953E+04</totfact>
</mgrwt>
</event>
<event>
 4    3  0.3905963E+000  0.1844878E+03  0.7546771E-02  0.1163529E+00
         21   -1    0    0  503  502  0.00000000000E+00  0.00000000000E+00  0.25859682534E+04  0.25859682534E+04  0.00000000000E+00 0. -1.
         21   -1    0    0  501  503 -0.00000000000E+00 -0.00000000000E+00 -0.27127015185E+02  0.27127015185E+02  0.00000000000E+00 0.  1.
          6    1    1    2  501    0 -0.48308472144E+02 -0.42107343241E+02  0.34196736112E+03  0.38855812037E+03  0.17300000000E+03 0.  1.
         -6    1    1    2    0  502  0.48308472144E+02  0.42107343241E+02  0.22168738771E+04  0.22245371482E+04  0.17300000000E+03 0. -1.
<mgrwt>
<rscale>  2 0.18448777E+03</rscale>
<asrwt>0</asrwt>
<pdfrwt beam="1">  1       21 0.39784107E+00 0.18448777E+03</pdfrwt>
<pdfrwt beam="2">  1       21 0.41733890E-02 0.18448777E+03</pdfrwt>
<totfact> 0.33181312E+03</totfact>
</mgrwt>
</event>
<event>
 4    3  0.3905963E+000  0.2047924E+03  0.7546771E-02  0.1145758E+00
         21   -1    0    0  503  502  0.00000000000E+00  0.00000000000E+00  0.72142993268E+03  0.72142993268E+03  0.00000000000E+00 0. -1.
         21   -1    0    0  501  503 -0.00000000000E+00 -0.00000000000E+00 -0.18242270812E+03  0.18242270812E+03  0.00000000000E+00 0. -1.
          6    1    1    2  501    0  0.94657744187E+02  0.55234264906E+02 -0.10352597944E+03  0.22947230982E+03  0.17300000000E+03 0. -1.
         -6    1    1    2    0  502 -0.94657744187E+02 -0.55234264906E+02  0.64253320401E+03  0.67438033098E+03  0.17300000000E+03 0. -1.
<mgrwt>
<rscale>  2 0.20479236E+03</rscale>
<asrwt>0</asrwt>
<pdfrwt beam="1">  1       21 0.11098922E+00 0.20479236E+03</pdfrwt>
<pdfrwt beam="2">  1       21 0.28065032E-01 0.20479236E+03</pdfrwt>
<totfact> 0.76819610E+03</totfact>
</mgrwt>
</event>
<event>
 4    3  0.3905963E+000  0.1932625E+03  0.7546771E-02  0.1155551E+00
         21   -1    0    0  503  502  0.00000000000E+00  0.00000000000E+00  0.20424270529E+03  0.20424270529E+03  0.00000000000E+00 0.  1.
         21   -1    0    0  501  503 -0.00000000000E+00 -0.00000000000E+00 -0.19838168146E+03  0.19838168146E+03  0.00000000000E+00 0. -1.
          6    1    1    2  501    0 -0.42931482454E+02 -0.74687782866E+02 -0.53357191849E+02  0.20049281039E+03  0.17300000000E+03 0. -1.
         -6    1    1    2    0  502  0.42931482454E+02  0.74687782866E+02  0.59218215680E+02  0.20213157636E+03  0.17300000000E+03 0.  1.
<mgrwt>
<rscale>  2 0.19326246E+03</rscale>
<asrwt>0</asrwt>
<pdfrwt beam="1">  1       21 0.31421955E-01 0.19326246E+03</pdfrwt>
<pdfrwt beam="2">  1       21 0.30520259E-01 0.19326246E+03</pdfrwt>
<totfact> 0.10029133E+05</totfact>
</mgrwt>
</event>
<event>
 4    3  0.3905963E+000  0.2103764E+03  0.7546771E-02  0.1141268E+00
         21   -1    0    0  503  502  0.00000000000E+00  0.00000000000E+00  0.16424140263E+04  0.16424140263E+04  0.00000000000E+00 0. -1.
         21   -1    0    0  501  503 -0.00000000000E+00 -0.00000000000E+00 -0.77286473315E+02  0.77286473315E+02  0.00000000000E+00 0. -1.
          6    1    1    2  501    0 -0.78264387843E+02  0.90575496950E+02  0.88618639941E+02  0.22827943052E+03  0.17300000000E+03 0. -1.
         -6    1    1    2    0  502  0.78264387843E+02 -0.90575496950E+02  0.14765089130E+04  0.14914210691E+04  0.17300000000E+03 0. -1.
<mgrwt>
<rscale>  2 0.21037641E+03</rscale>
<asrwt>0</asrwt>
<pdfrwt beam="1">  1       21 0.25267906E+00 0.21037641E+03</pdfrwt>
<pdfrwt beam="2">  1       21 0.11890228E-01 0.21037641E+03</pdfrwt>
<totfact> 0.37552906E+03</totfact>
</mgrwt>
</event>
<event>
 4    3  0.3905963E+000  0.2019145E+03  0.7546771E-02  0.1148134E+00
         21   -1    0    0  501  502  0.00000000000E+00  0.00000000000E+00  0.69388727741E+02  0.69388727741E+02  0.00000000000E+00 0.  1.
         21   -1    0    0  502  503 -0.00000000000E+00 -0.00000000000E+00 -0.12555504506E+04  0.12555504506E+04  0.00000000000E+00 0.  1.
          6    1    1    2  501    0  0.73956578810E+02  0.73286429906E+02 -0.10987005947E+03  0.22987149959E+03  0.17300000000E+03 0.  1.
         -6    1    1    2    0  503 -0.73956578810E+02 -0.73286429906E+02 -0.10762916634E+04  0.10950676787E+04  0.17300000000E+03 0.  1.
<mgrwt>
<rscale>  2 0.20191453E+03</rscale>
<asrwt>0</asrwt>
<pdfrwt beam="1">  1       21 0.10675189E-01 0.20191453E+03</pdfrwt>
<pdfrwt beam="2">  1       21 0.19316160E+00 0.20191453E+03</pdfrwt>
<totfact> 0.10666574E+04</totfact>
</mgrwt>
</event>
<event>
 4    3  0.3905963E+000  0.1915135E+03  0.7546771E-02  0.1157103E+00
         21   -1    0    0  501  502  0.00000000000E+00  0.00000000000E+00  0.98417652988E+03  0.98417652988E+03  0.00000000000E+00 0. -1.
         21   -1    0    0  502  503 -0.00000000000E+00 -0.00000000000E+00 -0.47670295629E+02  0.47670295629E+02  0.00000000000E+00 0.  1.
          6    1    1    2  501    0 -0.59413878677E+02 -0.56730950482E+02  0.70926840985E+03  0.73466937253E+03  0.17300000000E+03 0. -1.
         -6    1    1    2    0  503  0.59413878677E+02  0.56730950482E+02  0.22723782441E+03  0.29717745299E+03  0.17300000000E+03 0.  1.
<mgrwt>
<rscale>  2 0.19151347E+03</rscale>
<asrwt>0</asrwt>
<pdfrwt beam="1">  1       21 0.15141176E+00 0.19151347E+03</pdfrwt>
<pdfrwt beam="2">  1       21 0.73338924E-02 0.19151347E+03</pdfrwt>
<totfact> 0.40723990E+04</totfact>
</mgrwt>
</event>
<event>
 4    3  0.3905963E+000  0.2626575E+03  0.7546771E-02  0.1105557E+00
         21   -1    0    0  501  502  0.00000000000E+00  0.00000000000E+00  0.51991891125E+03  0.51991891125E+03  0.00000000000E+00 0.  1.
         21   -1    0    0  502  503 -0.00000000000E+00 -0.00000000000E+00 -0.15618233016E+03  0.15618233016E+03  0.00000000000E+00 0. -1.
          6    1    1    2  501    0 -0.13121073138E+02  0.19719991388E+03  0.31297120098E+03  0.40858284501E+03  0.17300000000E+03 0.  1.
         -6    1    1    2    0  503  0.13121073138E+02 -0.19719991388E+03  0.50765380107E+02  0.26751839640E+03  0.17300000000E+03 0. -1.
<mgrwt>
<rscale>  2 0.26265751E+03</rscale>
<asrwt>0</asrwt>
<pdfrwt beam="1">  1       21 0.79987524E-01 0.26265751E+03</pdfrwt>
<pdfrwt beam="2">  1       21 0.24028051E-01 0.26265751E+03</pdfrwt>
<totfact> 0.21656782E+04</totfact>
</mgrwt>
</event>
<event>
 4    3  0.3905963E+000  0.1932178E+03  0.7546771E-02  0.1155591E+00
         21   -1    0    0  501  502  0.00000000000E+00  0.00000000000E+00  0.14060110015E+03  0.14060110015E+03  0.00000000000E+00 0. -1.
         21   -1    0    0  502  503 -0.00000000000E+00 -0.00000000000E+00 -0.36864219533E+03  0.36864219533E+03  0.00000000000E+00 0.  1.
          6    1    1    2  501    0  0.72470053729E+02 -0.46391971206E+02  0.20645495832E+02  0.19431767850E+03  0.17300000000E+03 0. -1.
         -6    1    1    2    0  503 -0.72470053729E+02  0.46391971206E+02 -0.24868659101E+03  0.31492561698E+03  0.17300000000E+03 0.  1.
<mgrwt>
<rscale>  2 0.19321781E+03</rscale>
<asrwt>0</asrwt>
<pdfrwt beam="1">  1       21 0.21630939E-01 0.19321781E+03</pdfrwt>
<pdfrwt beam="2">  1       21 0.56714184E-01 0.19321781E+03</pdfrwt>
<totfact> 0.58231263E+04</totfact>
</mgrwt>
</event>
<event>
 4    3  0.3905963E+000  0.3248912E+03  0.7546771E-02  0.1073420E+00
         21   -1    0    0  503  502  0.00000000000E+00  0.00000000000E+00  0.78068446748E+03  0.78068446748E+03  0.00000000000E+00 0.  1.
         21   -1    0    0  501  503 -0.00000000000E+00 -0.00000000000E+00 -0.13856294747E+03  0.13856294747E+03  0.00000000000E+00 0. -1.
          6    1    1    2  501    0 -0.25056398053E+03  0.11332683934E+03  0.39258669781E+03  0.50958669149E+03  0.17300000000E+03 0. -1.
         -6    1    1    2    0  502  0.25056398053E+03 -0.11332683934E+03  0.24953482220E+03  0.40966072346E+03  0.17300000000E+03 0.  1.
<mgrwt>
<rscale>  2 0.32489118E+03</rscale>
<asrwt>0</asrwt>
<pdfrwt beam="1">  1       21 0.12010530E+00 0.32489118E+03</pdfrwt>
<pdfrwt beam="2">  1       21 0.21317377E-01 0.32489118E+03</pdfrwt>
<totfact> 0.10019357E+04</totfact>
</mgrwt>
</event>
<event>
 4    3  0.3905963E+000  0.2225357E+03  0.7546771E-02  0.1132007E+00
         21   -1    0    0  501  502  0.00000000000E+00  0.00000000000E+00  0.20298725090E+03  0.20298725090E+03  0.00000000000E+00 0.  1.
         21   -1    0    0  502  503 -0.00000000000E+00 -0.00000000000E+00 -0.26137634189E+03  0.26137634189E+03  0.00000000000E+00 0. -1.
          6    1    1    2  501    0 -0.12825686452E+03 -0.56065302754E+02  0.30727858427E+02  0.22464715167E+03  0.17300000000E+03 0.  1.
         -6    1    1    2    0  503  0.12825686452E+03  0.56065302754E+02 -0.89116949416E+02  0.23971644112E+03  0.17300000000E+03 0. -1.
<mgrwt>
<rscale>  2 0.22253571E+03</rscale>
<asrwt>0</asrwt>
<pdfrwt beam="1">  1       21 0.31228808E-01 0.22253571E+03</pdfrwt>
<pdfrwt beam="2">  1       21 0.40211745E-01 0.22253571E+03</pdfrwt>
<totfact> 0.57926440E+04</totfact>
</mgrwt>
</event>
<event>
 4    3  0.3905963E+000  0.1955259E+03  0.7546771E-02  0.1153570E+00
         21   -1    0    0  501  502  0.00000000000E+00  0.00000000000E+00  0.93431391649E+02  0.93431391649E+02  0.00000000000E+00 0. -1.
         21   -1    0    0  502  503 -0.00000000000E+00 -0.00000000000E+00 -0.42198329062E+03  0.42198329062E+03  0.00000000000E+00 0. -1.
          6    1    1    2  501    0  0.88406015697E+02  0.22040142150E+02 -0.11938947229E+03  0.22909438573E+03  0.17300000000E+03 0. -1.
         -6    1    1    2    0  503 -0.88406015697E+02 -0.22040142150E+02 -0.20916242667E+03  0.28632029654E+03  0.17300000000E+03 0. -1.
<mgrwt>
<rscale>  2 0.19552594E+03</rscale>
<asrwt>0</asrwt>
<pdfrwt beam="1">  1       21 0.14374060E-01 0.19552594E+03</pdfrwt>
<pdfrwt beam="2">  1       21 0.64920508E-01 0.19552594E+03</pdfrwt>
<totfact> 0.92524215E+04</totfact>
</mgrwt>
</event>
<event>
 4    3  0.3905963E+000  0.2321333E+03  0.7546771E-02  0.1125147E+00
         21   -1    0    0  501  502  0.00000000000E+00  0.00000000000E+00  0.37156442245E+02  0.37156442245E+02  0.00000000000E+00 0.  1.
         21   -1    0    0  502  503 -0.00000000000E+00 -0.00000000000E+00 -0.15512735349E+04  0.15512735349E+04  0.00000000000E+00 0. -1.
          6    1    1    2  501    0 -0.11291034469E+03 -0.10586844995E+03 -0.55437431559E+03  0.60101310836E+03  0.17300000000E+03 0.  1.
         -6    1    1    2    0  503  0.11291034469E+03  0.10586844995E+03 -0.95974277703E+03  0.98741686876E+03  0.17300000000E+03 0. -1.
<mgrwt>
<rscale>  2 0.23213331E+03</rscale>
<asrwt>0</asrwt>
<pdfrwt beam="1">  1       21 0.57163765E-02 0.23213331E+03</pdfrwt>
<pdfrwt beam="2">  1       21 0.23865744E+00 0.23213331E+03</pdfrwt>
<totfact> 0.16094471E+04</totfact>
</mgrwt>
</event>
<event>
 4    3  0.3905963E+000  0.2587393E+03  0.7546771E-02  0.1107903E+00
         21   -1    0    0  501  502  0.00000000000E+00  0.00000000000E+00  0.37664040606E+03  0.37664040606E+03  0.00000000000E+00 0.  1.
         21   -1    0    0  502  503 -0.00000000000E+00 -0.00000000000E+00 -0.23751120499E+03  0.23751120499E+03  0.00000000000E+00 0. -1.
          6    1    1    2  501    0  0.19193427417E+03  0.13351474231E+02  0.22360357945E+03  0.34197161901E+03  0.17300000000E+03 0.  1.
         -6    1    1    2    0  503 -0.19193427417E+03 -0.13351474231E+02 -0.84474378374E+02  0.27217999204E+03  0.17300000000E+03 0. -1.
<mgrwt>
<rscale>  2 0.25873930E+03</rscale>
<asrwt>0</asrwt>
<pdfrwt beam="1">  1       21 0.57944678E-01 0.25873930E+03</pdfrwt>
<pdfrwt beam="2">  1       21 0.36540185E-01 0.25873930E+03</pdfrwt>
<totfact> 0.19461355E+04</totfact>
</mgrwt>
</event>
<event>
 4    3  0.3905963E+000  0.3758259E+03  0.7546771E-02  0.1052487E+00
         21   -1    0    0  503  502  0.00000000000E+00  0.00000000000E+00  0.36172696587E+03  0.36172696587E+03  0.00000000000E+00 0.  1.
         21   -1    0    0  501  503 -0.00000000000E+00 -0.00000000000E+00 -0.73503679923E+03  0.73503679923E+03  0.00000000000E+00 0. -1.
          6    1    1    2  501    0  0.32925488333E+03  0.53919534552E+02 -0.56211393723E+03  0.67617835874E+03  0.17300000000E+03 0. -1.
         -6    1    1    2    0  502 -0.32925488333E+03 -0.53919534552E+02  0.18880410386E+03  0.42058540635E+03  0.17300000000E+03 0.  1.
<mgrwt>
<rscale>  2 0.37582588E+03</rscale>
<asrwt>0</asrwt>
<pdfrwt beam="1">  1       21 0.55650303E-01 0.37582588E+03</pdfrwt>
<pdfrwt beam="2">  1       21 0.11308258E+00 0.37582588E+03</pdfrwt>
<totfact> 0.16450952E+03</totfact>
</mgrwt>
</event>
<event>
 4    3  0.3905963E+000  0.1897970E+03  0.7546771E-02  0.1158645E+00
         21   -1    0    0  503  502  0.00000000000E+00  0.00000000000E+00  0.60106612213E+03  0.60106612213E+03  0.00000000000E+00 0. -1.
         21   -1    0    0  501  503 -0.00000000000E+00 -0.00000000000E+00 -0.79914322580E+02  0.79914322580E+02  0.00000000000E+00 0.  1.
          6    1    1    2  501    0  0.41654519339E+02  0.66021296194E+02  0.43083825972E+03  0.47079137266E+03  0.17300000000E+03 0. -1.
         -6    1    1    2    0  502 -0.41654519339E+02 -0.66021296194E+02  0.90313539829E+02  0.21018907205E+03  0.17300000000E+03 0.  1.
<mgrwt>
<rscale>  2 0.18979702E+03</rscale>
<asrwt>0</asrwt>
<pdfrwt beam="1">  1       21 0.92471708E-01 0.18979702E+03</pdfrwt>
<pdfrwt beam="2">  1       21 0.12294512E-01 0.18979702E+03</pdfrwt>
<totfact> 0.55509797E+04</totfact>
</mgrwt>
</event>
<event>
 4    3  0.3905963E+000  0.1768122E+03  0.7546771E-02  0.1170924E+00
         21   -1    0    0  501  502  0.00000000000E+00  0.00000000000E+00  0.13595437853E+02  0.13595437853E+02  0.00000000000E+00 0. -1.
         21   -1    0    0  502  503 -0.00000000000E+00 -0.00000000000E+00 -0.25016351259E+04  0.25016351259E+04  0.00000000000E+00 0. -1.
          6    1    1    2  501    0 -0.30674448013E+02 -0.19815330903E+02 -0.88652663295E+03  0.90398674771E+03  0.17300000000E+03 0. -1.
         -6    1    1    2    0  503  0.30674448013E+02  0.19815330903E+02 -0.16015130551E+04  0.16112438160E+04  0.17300000000E+03 0. -1.
<mgrwt>
<rscale>  2 0.17681224E+03</rscale>
<asrwt>0</asrwt>
<pdfrwt beam="1">  1       21 0.20916052E-02 0.17681224E+03</pdfrwt>
<pdfrwt beam="2">  1       21 0.38486705E+00 0.17681224E+03</pdfrwt>
<totfact> 0.12614832E+04</totfact>
</mgrwt>
</event>
<event>
 4    3  0.3905963E+000  0.2143879E+03  0.7546771E-02  0.1138138E+00
         21   -1    0    0  501  502  0.00000000000E+00  0.00000000000E+00  0.34856047041E+03  0.34856047041E+03  0.00000000000E+00 0. -1.
         21   -1    0    0  502  503 -0.00000000000E+00 -0.00000000000E+00 -0.16367856391E+03  0.16367856391E+03  0.00000000000E+00 0. -1.
          6    1    1    2  501    0  0.18561237565E+02 -0.12525429693E+03 -0.20478293339E+02  0.21536368992E+03  0.17300000000E+03 0. -1.
         -6    1    1    2    0  503 -0.18561237565E+02  0.12525429693E+03  0.20536019983E+03  0.29687534440E+03  0.17300000000E+03 0. -1.
<mgrwt>
<rscale>  2 0.21438787E+03</rscale>
<asrwt>0</asrwt>
<pdfrwt beam="1">  1       21 0.53624688E-01 0.21438787E+03</pdfrwt>
<pdfrwt beam="2">  1       21 0.25181318E-01 0.21438787E+03</pdfrwt>
<totfact> 0.48642922E+04</totfact>
</mgrwt>
</event>
<event>
 4    3  0.3905963E+000  0.2606368E+03  0.7546771E-02  0.1106761E+00
         21   -1    0    0  501  502  0.00000000000E+00  0.00000000000E+00  0.11059949347E+04  0.11059949347E+04  0.00000000000E+00 0.  1.
         21   -1    0    0  502  503 -0.00000000000E+00 -0.00000000000E+00 -0.16787261608E+03  0.16787261608E+03  0.00000000000E+00 0. -1.
          6    1    1    2  501    0 -0.38274761375E+02  0.19114808186E+03  0.97626210231E+03  0.10104549663E+04  0.17300000000E+03 0.  1.
         -6    1    1    2    0  503  0.38274761375E+02 -0.19114808186E+03 -0.38139783685E+02  0.26341258447E+03  0.17300000000E+03 0. -1.
<mgrwt>
<rscale>  2 0.26063681E+03</rscale>
<asrwt>0</asrwt>
<pdfrwt beam="1">  1       21 0.17015306E+00 0.26063681E+03</pdfrwt>
<pdfrwt beam="2">  1       21 0.25826557E-01 0.26063681E+03</pdfrwt>
<totfact> 0.28647685E+03</totfact>
</mgrwt>
</event>
<event>
 4    3  0.3905963E+000  0.1867233E+03  0.7546771E-02  0.1161450E+00
         21   -1    0    0  501  502  0.00000000000E+00  0.00000000000E+00  0.13903526354E+03  0.13903526354E+03  0.00000000000E+00 0. -1.
         21   -1    0    0  502  503 -0.00000000000E+00 -0.00000000000E+00 -0.36429709789E+03  0.36429709789E+03  0.00000000000E+00 0. -1.
          6    1    1    2  501    0  0.11081659325E+02 -0.69381543905E+02  0.27860729216E+02  0.18879041830E+03  0.17300000000E+03 0. -1.
         -6    1    1    2    0  503 -0.11081659325E+02  0.69381543905E+02 -0.25312256356E+03  0.31454194314E+03  0.17300000000E+03 0. -1.
<mgrwt>
<rscale>  2 0.18672333E+03</rscale>
<asrwt>0</asrwt>
<pdfrwt beam="1">  1       21 0.21390041E-01 0.18672333E+03</pdfrwt>
<pdfrwt beam="2">  1       21 0.56045707E-01 0.18672333E+03</pdfrwt>
<totfact> 0.61159768E+04</totfact>
</mgrwt>
</event>
<event>
 4    3  0.3905963E+000  0.1872492E+03  0.7546771E-02  0.1160966E+00
         21   -1    0    0  503  502  0.00000000000E+00  0.00000000000E+00  0.14385114743E+03  0.14385114743E+03  0.00000000000E+00 0. -1.
         21   -1    0    0  501  503 -0.00000000000E+00 -0.00000000000E+00 -0.24490718212E+03  0.24490718212E+03  0.00000000000E+00 0. -1.
          6    1    1    2  501    0  0.63878964557E+02  0.32446194551E+02 -0.63946999761E+02  0.19786737081E+03  0.17300000000E+03 0. -1.
         -6    1    1    2    0  502 -0.63878964557E+02 -0.32446194551E+02 -0.37109034937E+02  0.19089095874E+03  0.17300000000E+03 0. -1.
<mgrwt>
<rscale>  2 0.18724924E+03</rscale>
<asrwt>0</asrwt>
<pdfrwt beam="1">  1       21 0.22130946E-01 0.18724924E+03</pdfrwt>
<pdfrwt beam="2">  1       21 0.37678028E-01 0.18724924E+03</pdfrwt>
<totfact> 0.12991553E+05</totfact>
</mgrwt>
</event>
<event>
 4    3  0.3905963E+000  0.2018285E+03  0.7546771E-02  0.1148205E+00
         21   -1    0    0  503  502  0.00000000000E+00  0.00000000000E+00  0.83354923909E+03  0.83354923909E+03  0.00000000000E+00 0.  1.
         21   -1    0    0  501  503 -0.00000000000E+00 -0.00000000000E+00 -0.66259450618E+02  0.66259450618E+02  0.00000000000E+00 0.  1.
          6    1    1    2  501    0 -0.72665970398E+02  0.74333079399E+02  0.15315536142E+03  0.25336004949E+03  0.17300000000E+03 0.  1.
         -6    1    1    2    0  502  0.72665970398E+02 -0.74333079399E+02  0.61413442705E+03  0.64644864022E+03  0.17300000000E+03 0.  1.
<mgrwt>
<rscale>  2 0.20182852E+03</rscale>
<asrwt>0</asrwt>
<pdfrwt beam="1">  1       21 0.12823834E+00 0.20182852E+03</pdfrwt>
<pdfrwt beam="2">  1       21 0.10193762E-01 0.20182852E+03</pdfrwt>
<totfact> 0.34903919E+04</totfact>
</mgrwt>
</event>
<event>
 4    3  0.3905963E+000  0.1733723E+03  0.7546771E-02  0.1174376E+00
         21   -1    0    0  501  502  0.00000000000E+00  0.00000000000E+00  0.17338719292E+03  0.17338719292E+03  0.00000000000E+00 0.  1.
         21   -1    0    0  502  503 -0.00000000000E+00 -0.00000000000E+00 -0.18446270859E+03  0.18446270859E+03  0.00000000000E+00 0.  1.
          6    1    1    2  501    0  0.76434123457E+01 -0.83985604286E+01  0.38363949583E+02  0.17756618540E+03  0.17300000000E+03 0.  1.
         -6    1    1    2    0  503 -0.76434123457E+01  0.83985604286E+01 -0.49439465248E+02  0.18028371611E+03  0.17300000000E+03 0.  1.
<mgrwt>
<rscale>  2 0.17337231E+03</rscale>
<asrwt>0</asrwt>
<pdfrwt beam="1">  1       21 0.26674953E-01 0.17337231E+03</pdfrwt>
<pdfrwt beam="2">  1       21 0.28378878E-01 0.17337231E+03</pdfrwt>
<totfact> 0.15976829E+05</totfact>
</mgrwt>
</event>
<event>
 4    3  0.3905963E+000  0.1785791E+03  0.7546771E-02  0.1169185E+00
         21   -1    0    0  503  502  0.00000000000E+00  0.00000000000E+00  0.15805873651E+03  0.15805873651E+03  0.00000000000E+00 0. -1.
         21   -1    0    0  501  503 -0.00000000000E+00 -0.00000000000E+00 -0.20478195130E+03  0.20478195130E+03  0.00000000000E+00 0. -1.
          6    1    1    2  501    0 -0.17962202417E+02  0.40482558177E+02 -0.45387565365E+02  0.18425663983E+03  0.17300000000E+03 0. -1.
         -6    1    1    2    0  502  0.17962202417E+02 -0.40482558177E+02 -0.13356494267E+01  0.17858404798E+03  0.17300000000E+03 0. -1.
<mgrwt>
<rscale>  2 0.17857905E+03</rscale>
<asrwt>0</asrwt>
<pdfrwt beam="1">  1       21 0.24316729E-01 0.17857905E+03</pdfrwt>
<pdfrwt beam="2">  1       21 0.31504915E-01 0.17857905E+03</pdfrwt>
<totfact> 0.15532974E+05</totfact>
</mgrwt>
</event>
<event>
 4    3  0.3905963E+000  0.2282408E+03  0.7546771E-02  0.1127884E+00
         21   -1    0    0  503  502  0.00000000000E+00  0.00000000000E+00  0.12140096477E+03  0.12140096477E+03  0.00000000000E+00 0. -1.
         21   -1    0    0  501  503 -0.00000000000E+00 -0.00000000000E+00 -0.45949472025E+03  0.45949472025E+03  0.00000000000E+00 0.  1.
          6    1    1    2  501    0  0.40345275852E+02  0.14330772112E+03 -0.24374098562E+03  0.33392141634E+03  0.17300000000E+03 0. -1.
         -6    1    1    2    0  502 -0.40345275852E+02 -0.14330772112E+03 -0.94352769848E+02  0.24697426869E+03  0.17300000000E+03 0. -1.
<mgrwt>
<rscale>  2 0.22824076E+03</rscale>
<asrwt>0</asrwt>
<pdfrwt beam="1">  1       21 0.18677071E-01 0.22824076E+03</pdfrwt>
<pdfrwt beam="2">  1       21 0.70691496E-01 0.22824076E+03</pdfrwt>
<totfact> 0.46734946E+04</totfact>
</mgrwt>
</event>
<event>
 4    3  0.3905963E+000  0.1908385E+03  0.7546771E-02  0.1157707E+00
         21   -1    0    0  503  502  0.00000000000E+00  0.00000000000E+00  0.24166573488E+03  0.24166573488E+03  0.00000000000E+00 0. -1.
         21   -1    0    0  501  503 -0.00000000000E+00 -0.00000000000E+00 -0.34086162572E+03  0.34086162572E+03  0.00000000000E+00 0.  1.
          6    1    1    2  501    0 -0.77494839753E+02 -0.22020011386E+02 -0.26714703875E+03  0.32830910954E+03  0.17300000000E+03 0.  1.
         -6    1    1    2    0  502  0.77494839753E+02  0.22020011386E+02  0.16795114791E+03  0.25421825106E+03  0.17300000000E+03 0. -1.
<mgrwt>
<rscale>  2 0.19083849E+03</rscale>
<asrwt>0</asrwt>
<pdfrwt beam="1">  1       21 0.37179344E-01 0.19083849E+03</pdfrwt>
<pdfrwt beam="2">  1       21 0.52440250E-01 0.19083849E+03</pdfrwt>
<totfact> 0.24088177E+04</totfact>
</mgrwt>
</event>
<event>
 4    3  0.3905963E+000  0.2928797E+03  0.7546771E-02  0.1088855E+00
         21   -1    0    0  501  502  0.00000000000E+00  0.00000000000E+00  0.20713378730E+03  0.20713378730E+03  0.00000000000E+00 0. -1.
         21   -1    0    0  502  503 -0.00000000000E+00 -0.00000000000E+00 -0.44456324890E+03  0.44456324890E+03  0.00000000000E+00 0.  1.
          6    1    1    2  501    0  0.62002690318E+02  0.22804646204E+03 -0.33446965442E+02  0.29478334748E+03  0.17300000000E+03 0. -1.
         -6    1    1    2    0  503 -0.62002690318E+02 -0.22804646204E+03 -0.20398249616E+03  0.35691368872E+03  0.17300000000E+03 0.  1.
<mgrwt>
<rscale>  2 0.29287971E+03</rscale>
<asrwt>0</asrwt>
<pdfrwt beam="1">  1       21 0.31866737E-01 0.29287971E+03</pdfrwt>
<pdfrwt beam="2">  1       21 0.68394346E-01 0.29287971E+03</pdfrwt>
<totfact> 0.17535242E+04</totfact>
</mgrwt>
</event>
<event>
 4    3  0.3905963E+000  0.1886810E+03  0.7546771E-02  0.1159656E+00
         21   -1    0    0  501  502  0.00000000000E+00  0.00000000000E+00  0.47796580126E+03  0.47796580126E+03  0.00000000000E+00 0.  1.
         21   -1    0    0  502  503 -0.00000000000E+00 -0.00000000000E+00 -0.14162080967E+03  0.14162080967E+03  0.00000000000E+00 0.  1.
          6    1    1    2  501    0 -0.74591792030E+02 -0.10372091657E+02  0.38147246746E+03  0.42558402126E+03  0.17300000000E+03 0.  1.
         -6    1    1    2    0  503  0.74591792030E+02  0.10372091657E+02 -0.45127475866E+02  0.19400258968E+03  0.17300000000E+03 0.  1.
<mgrwt>
<rscale>  2 0.18868099E+03</rscale>
<asrwt>0</asrwt>
<pdfrwt beam="1">  1       21 0.73533199E-01 0.18868099E+03</pdfrwt>
<pdfrwt beam="2">  1       21 0.21787817E-01 0.18868099E+03</pdfrwt>
<totfact> 0.32732081E+04</totfact>
</mgrwt>
</event>
<event>
 4    3  0.3905963E+000  0.1799883E+03  0.7546771E-02  0.1167814E+00
         21   -1    0    0  501  502  0.00000000000E+00  0.00000000000E+00  0.65664991372E+03  0.65664991372E+03  0.00000000000E+00 0. -1.
         21   -1    0    0  502  503 -0.00000000000E+00 -0.00000000000E+00 -0.53421980479E+02  0.53421980479E+02  0.00000000000E+00 0. -1.
          6    1    1    2  501    0  0.24804929484E+02  0.43029115871E+02  0.39981507288E+03  0.43846080993E+03  0.17300000000E+03 0. -1.
         -6    1    1    2    0  503 -0.24804929484E+02 -0.43029115871E+02  0.20341286036E+03  0.27161108427E+03  0.17300000000E+03 0. -1.
<mgrwt>
<rscale>  2 0.17998830E+03</rscale>
<asrwt>0</asrwt>
<pdfrwt beam="1">  1       21 0.10102306E+00 0.17998830E+03</pdfrwt>
<pdfrwt beam="2">  1       21 0.82187667E-02 0.17998830E+03</pdfrwt>
<totfact> 0.92236774E+04</totfact>
</mgrwt>
</event>
<event>
 4    3  0.3905963E+000  0.1876307E+03  0.7546771E-02  0.1160616E+00
         21   -1    0    0  503  502  0.00000000000E+00  0.00000000000E+00  0.32916775034E+02  0.32916775034E+02  0.00000000000E+00 0. -1.
         21   -1    0    0  501  503 -0.00000000000E+00 -0.00000000000E+00 -0.10907590685E+04  0.10907590685E+04  0.00000000000E+00 0. -1.
          6    1    1    2  501    0  0.38250047996E+02  0.61751318429E+02 -0.45052943037E+03  0.48803899346E+03  0.17300000000E+03 0. -1.
         -6    1    1    2    0  502 -0.38250047996E+02 -0.61751318429E+02 -0.60731286307E+03  0.63563685006E+03  0.17300000000E+03 0. -1.
<mgrwt>
<rscale>  2 0.18763073E+03</rscale>
<asrwt>0</asrwt>
<pdfrwt beam="1">  1       21 0.50641197E-02 0.18763073E+03</pdfrwt>
<pdfrwt beam="2">  1       21 0.16780907E+00 0.18763073E+03</pdfrwt>
<totfact> 0.58373132E+04</totfact>
</mgrwt>
</event>
<event>
 4    3  0.3905963E+000  0.2797001E+03  0.7546771E-02  0.1095853E+00
         21   -1    0    0  501  502  0.00000000000E+00  0.00000000000E+00  0.16547749656E+03  0.16547749656E+03  0.00000000000E+00 0.  1.
         21   -1    0    0  502  503 -0.00000000000E+00 -0.00000000000E+00 -0.51036679204E+03  0.51036679204E+03  0.00000000000E+00 0. -1.
          6    1    1    2  501    0  0.48372739134E+02 -0.21439036725E+03 -0.80722684877E+02  0.29111561846E+03  0.17300000000E+03 0.  1.
         -6    1    1    2    0  503 -0.48372739134E+02  0.21439036725E+03 -0.26416661061E+03  0.38472867013E+03  0.17300000000E+03 0. -1.
<mgrwt>
<rscale>  2 0.27970011E+03</rscale>
<asrwt>0</asrwt>
<pdfrwt beam="1">  1       21 0.25458077E-01 0.27970011E+03</pdfrwt>
<pdfrwt beam="2">  1       21 0.78517967E-01 0.27970011E+03</pdfrwt>
<totfact> 0.20061247E+04</totfact>
</mgrwt>
</event>
<event>
 4    3  0.3905963E+000  0.2152607E+03  0.7546771E-02  0.1137467E+00
         21   -1    0    0  501  502  0.00000000000E+00  0.00000000000E+00  0.29496360890E+03  0.29496360890E+03  0.00000000000E+00 0. -1.
         21   -1    0    0  502  503 -0.00000000000E+00 -0.00000000000E+00 -0.15747122491E+03  0.15747122491E+03  0.00000000000E+00 0.  1.
          6    1    1    2  501    0  0.26357574126E+01  0.12806726727E+03  0.57682116754E+02  0.22285510709E+03  0.17300000000E+03 0. -1.
         -6    1    1    2    0  503 -0.26357574126E+01 -0.12806726727E+03  0.79810267241E+02  0.22957972672E+03  0.17300000000E+03 0. -1.
<mgrwt>
<rscale>  2 0.21526071E+03</rscale>
<asrwt>0</asrwt>
<pdfrwt beam="1">  1       21 0.45379017E-01 0.21526071E+03</pdfrwt>
<pdfrwt beam="2">  1       21 0.24226342E-01 0.21526071E+03</pdfrwt>
<totfact> 0.74177185E+04</totfact>
</mgrwt>
</event>
<event>
 4    3  0.3905963E+000  0.2995620E+03  0.7546771E-02  0.1085460E+00
         21   -1    0    0  503  502  0.00000000000E+00  0.00000000000E+00  0.16209130747E+03  0.16209130747E+03  0.00000000000E+00 0. -1.
         21   -1    0    0  501  503 -0.00000000000E+00 -0.00000000000E+00 -0.59324343199E+03  0.59324343199E+03  0.00000000000E+00 0. -1.
          6    1    1    2  501    0  0.40210634818E+02  0.24122916656E+03 -0.31317721860E+03  0.43337902141E+03  0.17300000000E+03 0. -1.
         -6    1    1    2    0  502 -0.40210634818E+02 -0.24122916656E+03 -0.11797490593E+03  0.32195571805E+03  0.17300000000E+03 0. -1.
<mgrwt>
<rscale>  2 0.29956202E+03</rscale>
<asrwt>0</asrwt>
<pdfrwt beam="1">  1       21 0.24937124E-01 0.29956202E+03</pdfrwt>
<pdfrwt beam="2">  1       21 0.91268220E-01 0.29956202E+03</pdfrwt>
<totfact> 0.14618292E+04</totfact>
</mgrwt>
</event>
<event>
 4    3  0.3905963E+000  0.1904698E+03  0.7546771E-02  0.1158038E+00
         21   -1    0    0  501  502  0.00000000000E+00  0.00000000000E+00  0.50034177933E+02  0.50034177933E+02  0.00000000000E+00 0.  1.
         21   -1    0    0  502  503 -0.00000000000E+00 -0.00000000000E+00 -0.96622967192E+03  0.96622967192E+03  0.00000000000E+00 0.  1.
          6    1    1    2  501    0 -0.72847448963E+02  0.32295129194E+02 -0.71194977303E+03  0.73698792765E+03  0.17300000000E+03 0.  1.
         -6    1    1    2    0  503  0.72847448963E+02 -0.32295129194E+02 -0.20424572095E+03  0.27927592219E+03  0.17300000000E+03 0.  1.
<mgrwt>
<rscale>  2 0.19046975E+03</rscale>
<asrwt>0</asrwt>
<pdfrwt beam="1">  1       21 0.76975666E-02 0.19046975E+03</pdfrwt>
<pdfrwt beam="2">  1       21 0.14865070E+00 0.19046975E+03</pdfrwt>
<totfact> 0.39327513E+04</totfact>
</mgrwt>
</event>
<event>
 4    3  0.3905963E+000  0.2333835E+03  0.7546771E-02  0.1124281E+00
         21   -1    0    0  503  502  0.00000000000E+00  0.00000000000E+00  0.77822726597E+03  0.77822726597E+03  0.00000000000E+00 0.  1.
         21   -1    0    0  501  503 -0.00000000000E+00 -0.00000000000E+00 -0.14480874336E+03  0.14480874336E+03  0.00000000000E+00 0. -1.
          6    1    1    2  501    0  0.23644546200E+02  0.15485407540E+03 -0.15030474294E+02  0.23386698012E+03  0.17300000000E+03 0. -1.
         -6    1    1    2    0  502 -0.23644546200E+02 -0.15485407540E+03  0.64844899690E+03  0.68916902921E+03  0.17300000000E+03 0.  1.
<mgrwt>
<rscale>  2 0.23338348E+03</rscale>
<asrwt>0</asrwt>
<pdfrwt beam="1">  1       21 0.11972727E+00 0.23338348E+03</pdfrwt>
<pdfrwt beam="2">  1       21 0.22278269E-01 0.23338348E+03</pdfrwt>
<totfact> 0.97373874E+03</totfact>
</mgrwt>
</event>
<event>
 4    3  0.3905963E+000  0.2349540E+03  0.7546771E-02  0.1123201E+00
         21   -1    0    0  501  502  0.00000000000E+00  0.00000000000E+00  0.10004740581E+04  0.10004740581E+04  0.00000000000E+00 0. -1.
         21   -1    0    0  502  503 -0.00000000000E+00 -0.00000000000E+00 -0.11907939883E+03  0.11907939883E+03  0.00000000000E+00 0.  1.
          6    1    1    2  501    0 -0.11783415016E+03 -0.10672166920E+03  0.85076381227E+03  0.88261116347E+03  0.17300000000E+03 0. -1.
         -6    1    1    2    0  503  0.11783415016E+03  0.10672166920E+03  0.30630846961E+02  0.23694229341E+03  0.17300000000E+03 0.  1.
<mgrwt>
<rscale>  2 0.23495404E+03</rscale>
<asrwt>0</asrwt>
<pdfrwt beam="1">  1       21 0.15391908E+00 0.23495404E+03</pdfrwt>
<pdfrwt beam="2">  1       21 0.18319908E-01 0.23495404E+03</pdfrwt>
<totfact> 0.73516205E+03</totfact>
</mgrwt>
</event>
<event>
 4    3  0.3905963E+000  0.3096962E+03  0.7546771E-02  0.1080492E+00
         21   -1    0    0  501  502  0.00000000000E+00  0.00000000000E+00  0.53972954157E+03  0.53972954157E+03  0.00000000000E+00 0.  1.
         21   -1    0    0  502  503 -0.00000000000E+00 -0.00000000000E+00 -0.18082781870E+03  0.18082781870E+03  0.00000000000E+00 0.  1.
          6    1    1    2  501    0 -0.23653811470E+03 -0.10016218781E+03  0.22680899227E+03  0.38386724600E+03  0.17300000000E+03 0.  1.
         -6    1    1    2    0  503  0.23653811470E+03  0.10016218781E+03  0.13209273059E+03  0.33669011428E+03  0.17300000000E+03 0.  1.
<mgrwt>
<rscale>  2 0.30969621E+03</rscale>
<asrwt>0</asrwt>
<pdfrwt beam="1">  1       21 0.83035314E-01 0.30969621E+03</pdfrwt>
<pdfrwt beam="2">  1       21 0.27819665E-01 0.30969621E+03</pdfrwt>
<totfact> 0.14670379E+04</totfact>
</mgrwt>
</event>
<event>
 4    3  0.3905963E+000  0.1752147E+03  0.7546771E-02  0.1172516E+00
         21   -1    0    0  503  502  0.00000000000E+00  0.00000000000E+00  0.68253904817E+03  0.68253904817E+03  0.00000000000E+00 0. -1.
         21   -1    0    0  501  503 -0.00000000000E+00 -0.00000000000E+00 -0.47616985391E+02  0.47616985391E+02  0.00000000000E+00 0. -1.
          6    1    1    2  501    0  0.42941857875E+01  0.27436446482E+02  0.40338370568E+03  0.43979382969E+03  0.17300000000E+03 0. -1.
         -6    1    1    2    0  502 -0.42941857875E+01 -0.27436446482E+02  0.23153835710E+03  0.29036220387E+03  0.17300000000E+03 0. -1.
<mgrwt>
<rscale>  2 0.17521472E+03</rscale>
<asrwt>0</asrwt>
<pdfrwt beam="1">  1       21 0.10500600E+00 0.17521472E+03</pdfrwt>
<pdfrwt beam="2">  1       21 0.73256905E-02 0.17521472E+03</pdfrwt>
<totfact> 0.10288841E+05</totfact>
</mgrwt>
</event>
<event>
 4    3  0.3905963E+000  0.2322987E+03  0.7546771E-02  0.1125032E+00
         21   -1    0    0  501  502  0.00000000000E+00  0.00000000000E+00  0.93596883273E+02  0.93596883273E+02  0.00000000000E+00 0.  1.
         21   -1    0    0  502  503 -0.00000000000E+00 -0.00000000000E+00 -0.57787520156E+03  0.57787520156E+03  0.00000000000E+00 0. -1.
          6    1    1    2  501    0  0.12793692152E+02 -0.15449921309E+03 -0.22602284623E+03  0.32411265391E+03  0.17300000000E+03 0.  1.
         -6    1    1    2    0  503 -0.12793692152E+02  0.15449921309E+03 -0.25825547205E+03  0.34735943092E+03  0.17300000000E+03 0. -1.
<mgrwt>
<rscale>  2 0.23229870E+03</rscale>
<asrwt>0</asrwt>
<pdfrwt beam="1">  1       21 0.14399520E-01 0.23229870E+03</pdfrwt>
<pdfrwt beam="2">  1       21 0.88903879E-01 0.23229870E+03</pdfrwt>
<totfact> 0.44785708E+04</totfact>
</mgrwt>
</event>
<event>
 4    3  0.3905963E+000  0.1750433E+03  0.7546771E-02  0.1172688E+00
         21   -1    0    0  503  502  0.00000000000E+00  0.00000000000E+00  0.21065560800E+03  0.21065560800E+03  0.00000000000E+00 0.  1.
         21   -1    0    0  501  503 -0.00000000000E+00 -0.00000000000E+00 -0.28270908045E+03  0.28270908045E+03  0.00000000000E+00 0.  1.
          6    1    1    2  501    0  0.25881974858E+02 -0.64260286756E+01 -0.20791110562E+03  0.27178520619E+03  0.17300000000E+03 0.  1.
         -6    1    1    2    0  502 -0.25881974858E+02  0.64260286756E+01  0.13585763316E+03  0.22157948225E+03  0.17300000000E+03 0.  1.
<mgrwt>
<rscale>  2 0.17504334E+03</rscale>
<asrwt>0</asrwt>
<pdfrwt beam="1">  1       21 0.32408555E-01 0.17504334E+03</pdfrwt>
<pdfrwt beam="2">  1       21 0.43493705E-01 0.17504334E+03</pdfrwt>
<totfact> 0.46945231E+04</totfact>
</mgrwt>
</event>
<event>
 4    3  0.3905963E+000  0.2216128E+03  0.7546771E-02  0.1132686E+00
         21   -1    0    0  503  502  0.00000000000E+00  0.00000000000E+00  0.15762091407E+03  0.15762091407E+03  0.00000000000E+00 0. -1.
         21   -1    0    0  501  503 -0.00000000000E+00 -0.00000000000E+00 -0.50553195000E+03  0.50553195000E+03  0.00000000000E+00 0. -1.
          6    1    1    2  501    0 -0.13849804372E+03 -0.12265843904E+01 -0.37933239060E+03  0.43932365652E+03  0.17300000000E+03 0. -1.
         -6    1    1    2    0  502  0.13849804372E+03  0.12265843904E+01  0.31421354671E+02  0.22382920755E+03  0.17300000000E+03 0. -1.
<mgrwt>
<rscale>  2 0.22161275E+03</rscale>
<asrwt>0</asrwt>
<pdfrwt beam="1">  1       21 0.24249371E-01 0.22161275E+03</pdfrwt>
<pdfrwt beam="2">  1       21 0.77774146E-01 0.22161275E+03</pdfrwt>
<totfact> 0.23142828E+04</totfact>
</mgrwt>
</event>
<event>
 4    3  0.3905963E+000  0.2501830E+03  0.7546771E-02  0.1113189E+00
         21   -1    0    0  503  502  0.00000000000E+00  0.00000000000E+00  0.10061811330E+04  0.10061811330E+04  0.00000000000E+00 0.  1.
         21   -1    0    0  501  503 -0.00000000000E+00 -0.00000000000E+00 -0.68513410492E+02  0.68513410492E+02  0.00000000000E+00 0.  1.
          6    1    1    2  501    0  0.61280332664E+02 -0.17002137905E+03  0.30580779609E+03  0.39510752543E+03  0.17300000000E+03 0.  1.
         -6    1    1    2    0  502 -0.61280332664E+02  0.17002137905E+03  0.63185992642E+03  0.67958701806E+03  0.17300000000E+03 0.  1.
<mgrwt>
<rscale>  2 0.25018303E+03</rscale>
<asrwt>0</asrwt>
<pdfrwt beam="1">  1       21 0.15479709E+00 0.25018303E+03</pdfrwt>
<pdfrwt beam="2">  1       21 0.10540525E-01 0.25018303E+03</pdfrwt>
<totfact> 0.19620879E+04</totfact>
</mgrwt>
</event>
<event>
 4    3  0.3905963E+000  0.2082258E+03  0.7546771E-02  0.1142979E+00
         21   -1    0    0  503  502  0.00000000000E+00  0.00000000000E+00  0.52827539715E+03  0.52827539715E+03  0.00000000000E+00 0.  1.
         21   -1    0    0  501  503 -0.00000000000E+00 -0.00000000000E+00 -0.13358216656E+03  0.13358216656E+03  0.00000000000E+00 0.  1.
          6    1    1    2  501    0 -0.10787220199E+03 -0.42338998246E+02 -0.81457679664E+01  0.20838511528E+03  0.17300000000E+03 0.  1.
         -6    1    1    2    0  502  0.10787220199E+03  0.42338998246E+02  0.40283899855E+03  0.45347244844E+03  0.17300000000E+03 0.  1.
<mgrwt>
<rscale>  2 0.20822585E+03</rscale>
<asrwt>0</asrwt>
<pdfrwt beam="1">  1       21 0.81273137E-01 0.20822585E+03</pdfrwt>
<pdfrwt beam="2">  1       21 0.20551103E-01 0.20822585E+03</pdfrwt>
<totfact> 0.28860919E+04</totfact>
</mgrwt>
</event>
<event>
 4    3  0.3905963E+000  0.2804652E+03  0.7546771E-02  0.1095435E+00
         21   -1    0    0  503  502  0.00000000000E+00  0.00000000000E+00  0.48716739123E+02  0.48716739123E+02  0.00000000000E+00 0. -1.
         21   -1    0    0  501  503 -0.00000000000E+00 -0.00000000000E+00 -0.21429709589E+04  0.21429709589E+04  0.00000000000E+00 0. -1.
          6    1    1    2  501    0 -0.32782893478E+02  0.21830483708E+03 -0.15912380403E+04  0.16157658311E+04  0.17300000000E+03 0. -1.
         -6    1    1    2    0  502  0.32782893478E+02 -0.21830483708E+03 -0.50301617944E+03  0.57592186690E+03  0.17300000000E+03 0. -1.
<mgrwt>
<rscale>  2 0.28046519E+03</rscale>
<asrwt>0</asrwt>
<pdfrwt beam="1">  1       21 0.74948840E-02 0.28046519E+03</pdfrwt>
<pdfrwt beam="2">  1       21 0.32968779E+00 0.28046519E+03</pdfrwt>
<totfact> 0.28139942E+03</totfact>
</mgrwt>
</event>
<event>
 4    3  0.3905963E+000  0.2086963E+03  0.7546771E-02  0.1142603E+00
         21   -1    0    0  503  502  0.00000000000E+00  0.00000000000E+00  0.91666580249E+02  0.91666580249E+02  0.00000000000E+00 0.  1.
         21   -1    0    0  501  503 -0.00000000000E+00 -0.00000000000E+00 -0.47783609577E+03  0.47783609577E+03  0.00000000000E+00 0. -1.
          6    1    1    2  501    0  0.21502362370E+02  0.11472913540E+03 -0.17168118847E+03  0.27023796286E+03  0.17300000000E+03 0. -1.
         -6    1    1    2    0  502 -0.21502362370E+02 -0.11472913540E+03 -0.21448832706E+03  0.29926471316E+03  0.17300000000E+03 0. -1.
<mgrwt>
<rscale>  2 0.20869625E+03</rscale>
<asrwt>0</asrwt>
<pdfrwt beam="1">  1       21 0.14102551E-01 0.20869625E+03</pdfrwt>
<pdfrwt beam="2">  1       21 0.73513244E-01 0.20869625E+03</pdfrwt>
<totfact> 0.72425373E+04</totfact>
</mgrwt>
</event>
<event>
 4    3  0.3905963E+000  0.2188426E+03  0.7546771E-02  0.1134749E+00
         21   -1    0    0  503  502  0.00000000000E+00  0.00000000000E+00  0.17928323064E+03  0.17928323064E+03  0.00000000000E+00 0.  1.
         21   -1    0    0  501  503 -0.00000000000E+00 -0.00000000000E+00 -0.50699036495E+03  0.50699036495E+03  0.00000000000E+00 0.  1.
          6    1    1    2  501    0  0.72837769950E+02  0.11250664286E+03 -0.39987198696E+03  0.45583954564E+03  0.17300000000E+03 0.  1.
         -6    1    1    2    0  502 -0.72837769950E+02 -0.11250664286E+03  0.72164852646E+02  0.23043404995E+03  0.17300000000E+03 0.  1.
<mgrwt>
<rscale>  2 0.21884260E+03</rscale>
<asrwt>0</asrwt>
<pdfrwt beam="1">  1       21 0.27582036E-01 0.21884260E+03</pdfrwt>
<pdfrwt beam="2">  1       21 0.77998516E-01 0.21884260E+03</pdfrwt>
<totfact> 0.17978577E+04</totfact>
</mgrwt>
</event>
<event>
 4    3  0.3905963E+000  0.2175790E+03  0.7546771E-02  0.1135701E+00
         21   -1    0    0  503  502  0.00000000000E+00  0.00000000000E+00  0.14683394081E+04  0.14683394081E+04  0.00000000000E+00 0.  1.
         21   -1    0    0  501  503 -0.00000000000E+00 -0.00000000000E+00 -0.32373745559E+02  0.32373745559E+02  0.00000000000E+00 0.  1.
          6    1    1    2  501    0 -0.41594302608E+02 -0.12522595347E+03  0.76604447681E+03  0.79634462759E+03  0.17300000000E+03 0.  1.
         -6    1    1    2    0  502  0.41594302608E+02  0.12522595347E+03  0.66992118570E+03  0.70436852605E+03  0.17300000000E+03 0.  1.
<mgrwt>
<rscale>  2 0.21757901E+03</rscale>
<asrwt>0</asrwt>
<pdfrwt beam="1">  1       21 0.22589832E+00 0.21757901E+03</pdfrwt>
<pdfrwt beam="2">  1       21 0.49805774E-02 0.21757901E+03</pdfrwt>
<totfact> 0.24598499E+04</totfact>
</mgrwt>
</event>
<event>
 4    3  0.3905963E+000  0.1881693E+03  0.7546771E-02  0.1160123E+00
         21   -1    0    0  503  502  0.00000000000E+00  0.00000000000E+00  0.66248120008E+02  0.66248120008E+02  0.00000000000E+00 0.  1.
         21   -1    0    0  501  503 -0.00000000000E+00 -0.00000000000E+00 -0.54243131142E+03  0.54243131142E+03  0.00000000000E+00 0.  1.
          6    1    1    2  501    0 -0.73984387372E+02 -0.22335551114E+01 -0.27496046075E+03  0.33318303276E+03  0.17300000000E+03 0.  1.
         -6    1    1    2    0  502  0.73984387372E+02  0.22335551114E+01 -0.20122273066E+03  0.27549639866E+03  0.17300000000E+03 0.  1.
<mgrwt>
<rscale>  2 0.18816928E+03</rscale>
<asrwt>0</asrwt>
<pdfrwt beam="1">  1       21 0.10192019E-01 0.18816928E+03</pdfrwt>
<pdfrwt beam="2">  1       21 0.83450970E-01 0.18816928E+03</pdfrwt>
<totfact> 0.98225856E+04</totfact>
</mgrwt>
</event>
<event>
 4    3  0.3905963E+000  0.1780860E+03  0.7546771E-02  0.1169668E+00
         21   -1    0    0  503  502  0.00000000000E+00  0.00000000000E+00  0.71784552085E+03  0.71784552085E+03  0.00000000000E+00 0. -1.
         21   -1    0    0  501  503 -0.00000000000E+00 -0.00000000000E+00 -0.46119509721E+02  0.46119509721E+02  0.00000000000E+00 0. -1.
          6    1    1    2  501    0 -0.38845300340E+02  0.16633198798E+02  0.41419064933E+03  0.45085309653E+03  0.17300000000E+03 0.  1.
         -6    1    1    2    0  502  0.38845300340E+02 -0.16633198798E+02  0.25753536180E+03  0.31311193404E+03  0.17300000000E+03 0.  1.
<mgrwt>
<rscale>  2 0.17808599E+03</rscale>
<asrwt>0</asrwt>
<pdfrwt beam="1">  1       21 0.11043776E+00 0.17808599E+03</pdfrwt>
<pdfrwt beam="2">  1       21 0.70953097E-02 0.17808599E+03</pdfrwt>
<totfact> 0.96185846E+04</totfact>
</mgrwt>
</event>
<event>
 4    3  0.3905963E+000  0.1794734E+03  0.7546771E-02  0.1168314E+00
         21   -1    0    0  503  502  0.00000000000E+00  0.00000000000E+00  0.45721502684E+03  0.45721502684E+03  0.00000000000E+00 0. -1.
         21   -1    0    0  501  503 -0.00000000000E+00 -0.00000000000E+00 -0.78183037396E+02  0.78183037396E+02  0.00000000000E+00 0.  1.
          6    1    1    2  501    0 -0.86057356515E+01 -0.46985404973E+02  0.10532368087E+03  0.20809556631E+03  0.17300000000E+03 0. -1.
         -6    1    1    2    0  502  0.86057356515E+01  0.46985404973E+02  0.27370830857E+03  0.32730249793E+03  0.17300000000E+03 0. -1.
<mgrwt>
<rscale>  2 0.17947336E+03</rscale>
<asrwt>0</asrwt>
<pdfrwt beam="1">  1       21 0.70340772E-01 0.17947336E+03</pdfrwt>
<pdfrwt beam="2">  1       21 0.12028160E-01 0.17947336E+03</pdfrwt>
<totfact> 0.10766005E+05</totfact>
</mgrwt>
</event>
<event>
 4    3  0.3905963E+000  0.3320042E+03  0.7546771E-02  0.1070254E+00
         21   -1    0    0  503  502  0.00000000000E+00  0.00000000000E+00  0.12319809076E+04  0.12319809076E+04  0.00000000000E+00 0. -1.
         21   -1    0    0  501  503 -0.00000000000E+00 -0.00000000000E+00 -0.10072850820E+03  0.10072850820E+03  0.00000000000E+00 0. -1.
          6    1    1    2  501    0  0.16562417176E+03  0.22992694302E+03  0.78839134916E+03  0.85544589825E+03  0.17300000000E+03 0. -1.
         -6    1    1    2    0  502 -0.16562417176E+03 -0.22992694302E+03  0.34286105021E+03  0.47726351752E+03  0.17300000000E+03 0. -1.
<mgrwt>
<rscale>  2 0.33200416E+03</rscale>
<asrwt>0</asrwt>
<pdfrwt beam="1">  1       21 0.18953551E+00 0.33200416E+03</pdfrwt>
<pdfrwt beam="2">  1       21 0.15496694E-01 0.33200416E+03</pdfrwt>
<totfact> 0.52774556E+03</totfact>
</mgrwt>
</event>
<event>
 4    3  0.3905963E+000  0.2215840E+03  0.7546771E-02  0.1132708E+00
         21   -1    0    0  503  502  0.00000000000E+00  0.00000000000E+00  0.37964385490E+03  0.37964385490E+03  0.00000000000E+00 0.  1.
         21   -1    0    0  501  503 -0.00000000000E+00 -0.00000000000E+00 -0.12953166355E+03  0.12953166355E+03  0.00000000000E+00 0.  1.
          6    1    1    2  501    0  0.99700156202E+01  0.13809801216E+03  0.13509336923E+03  0.25951817005E+03  0.17300000000E+03 0.  1.
         -6    1    1    2    0  502 -0.99700156202E+01 -0.13809801216E+03  0.11501882211E+03  0.24965734840E+03  0.17300000000E+03 0.  1.
<mgrwt>
<rscale>  2 0.22158398E+03</rscale>
<asrwt>0</asrwt>
<pdfrwt beam="1">  1       21 0.58406746E-01 0.22158398E+03</pdfrwt>
<pdfrwt beam="2">  1       21 0.19927948E-01 0.22158398E+03</pdfrwt>
<totfact> 0.62969373E+04</totfact>
</mgrwt>
</event>
<event>
 4    3  0.3905963E+000  0.2186597E+03  0.7546771E-02  0.1134886E+00
         21   -1    0    0  503  502  0.00000000000E+00  0.00000000000E+00  0.34488825143E+03  0.34488825143E+03  0.00000000000E+00 0.  1.
         21   -1    0    0  501  503 -0.00000000000E+00 -0.00000000000E+00 -0.20596286139E+03  0.20596286139E+03  0.00000000000E+00 0.  1.
          6    1    1    2  501    0  0.17949272924E+02  0.13251744553E+03 -0.88015896570E+02  0.23570924423E+03  0.17300000000E+03 0.  1.
         -6    1    1    2    0  502 -0.17949272924E+02 -0.13251744553E+03  0.22694128661E+03  0.31514186859E+03  0.17300000000E+03 0.  1.
<mgrwt>
<rscale>  2 0.21865967E+03</rscale>
<asrwt>0</asrwt>
<pdfrwt beam="1">  1       21 0.53059731E-01 0.21865967E+03</pdfrwt>
<pdfrwt beam="2">  1       21 0.31686594E-01 0.21865967E+03</pdfrwt>
<totfact> 0.31777986E+04</totfact>
</mgrwt>
</event>
<event>
 4    3  0.3905963E+000  0.2063245E+03  0.7546771E-02  0.1144510E+00
         21   -1    0    0  503  502  0.00000000000E+00  0.00000000000E+00  0.47270904983E+03  0.47270904983E+03  0.00000000000E+00 0. -1.
         21   -1    0    0  501  503 -0.00000000000E+00 -0.00000000000E+00 -0.99103760340E+02  0.99103760340E+02  0.00000000000E+00 0.  1.
          6    1    1    2  501    0 -0.11124591294E+03  0.16283116546E+02  0.10041047144E+03  0.22946035781E+03  0.17300000000E+03 0.  1.
         -6    1    1    2    0  502  0.11124591294E+03 -0.16283116546E+02  0.27319481805E+03  0.34235245236E+03  0.17300000000E+03 0. -1.
<mgrwt>
<rscale>  2 0.20632448E+03</rscale>
<asrwt>0</asrwt>
<pdfrwt beam="1">  1       21 0.72724468E-01 0.20632448E+03</pdfrwt>
<pdfrwt beam="2">  1       21 0.15246733E-01 0.20632448E+03</pdfrwt>
<totfact> 0.64431416E+04</totfact>
</mgrwt>
</event>
<event>
 4    3  0.3905963E+000  0.1829433E+03  0.7546771E-02  0.1164985E+00
         21   -1    0    0  503  502  0.00000000000E+00  0.00000000000E+00  0.88997682315E+02  0.88997682315E+02  0.00000000000E+00 0.  1.
         21   -1    0    0  501  503 -0.00000000000E+00 -0.00000000000E+00 -0.73023417104E+03  0.73023417104E+03  0.00000000000E+00 0.  1.
          6    1    1    2  501    0 -0.24719317779E+02  0.54112832605E+02 -0.60588801461E+03  0.63290483453E+03  0.17300000000E+03 0.  1.
         -6    1    1    2    0  502  0.24719317779E+02 -0.54112832605E+02 -0.35348474122E+02  0.18632701883E+03  0.17300000000E+03 0.  1.
<mgrwt>
<rscale>  2 0.18294328E+03</rscale>
<asrwt>0</asrwt>
<pdfrwt beam="1">  1       21 0.13691951E-01 0.18294328E+03</pdfrwt>
<pdfrwt beam="2">  1       21 0.11234372E+00 0.18294328E+03</pdfrwt>
<totfact> 0.28888326E+04</totfact>
</mgrwt>
</event>
<event>
 4    3  0.3905963E+000  0.2058888E+03  0.7546771E-02  0.1144864E+00
         21   -1    0    0  503  502  0.00000000000E+00  0.00000000000E+00  0.20354339165E+03  0.20354339165E+03  0.00000000000E+00 0. -1.
         21   -1    0    0  501  503 -0.00000000000E+00 -0.00000000000E+00 -0.21095836096E+03  0.21095836096E+03  0.00000000000E+00 0. -1.
          6    1    1    2  501    0  0.10141630525E+03  0.46646937988E+02 -0.27141481919E+02  0.20767008411E+03  0.17300000000E+03 0. -1.
         -6    1    1    2    0  502 -0.10141630525E+03 -0.46646937988E+02  0.19726512612E+02  0.20683166850E+03  0.17300000000E+03 0. -1.
<mgrwt>
<rscale>  2 0.20588881E+03</rscale>
<asrwt>0</asrwt>
<pdfrwt beam="1">  1       21 0.31314368E-01 0.20588881E+03</pdfrwt>
<pdfrwt beam="2">  1       21 0.32455132E-01 0.20588881E+03</pdfrwt>
<totfact> 0.89032035E+04</totfact>
</mgrwt>
</event>
<event>
 4    3  0.3905963E+000  0.2026203E+03  0.7546771E-02  0.1147547E+00
         21   -1    0    0  503  502  0.00000000000E+00  0.00000000000E+00  0.16777721392E+03  0.16777721392E+03  0.00000000000E+00 0. -1.
         21   -1    0    0  501  503 -0.00000000000E+00 -0.00000000000E+00 -0.38133722042E+03  0.38133722042E+03  0.00000000000E+00 0. -1.
          6    1    1    2  501    0  0.10529031109E+03 -0.63205147704E+01 -0.27112768688E+03  0.33847484561E+03  0.17300000000E+03 0. -1.
         -6    1    1    2    0  502 -0.10529031109E+03  0.63205147704E+01  0.57567680389E+02  0.21063958873E+03  0.17300000000E+03 0. -1.
<mgrwt>
<rscale>  2 0.20262033E+03</rscale>
<asrwt>0</asrwt>
<pdfrwt beam="1">  1       21 0.25811879E-01 0.20262033E+03</pdfrwt>
<pdfrwt beam="2">  1       21 0.58667265E-01 0.20262033E+03</pdfrwt>
<totfact> 0.38541229E+04</totfact>
</mgrwt>
</event>
<event>
 4    3  0.3905963E+000  0.2064557E+03  0.7546771E-02  0.1144404E+00
         21   -1    0    0  503  502  0.00000000000E+00  0.00000000000E+00  0.37782454657E+03  0.37782454657E+03  0.00000000000E+00 0. -1.
         21   -1    0    0  501  503 -0.00000000000E+00 -0.00000000000E+00 -0.30585216762E+03  0.30585216762E+03  0.00000000000E+00 0. -1.
          6    1    1    2  501    0 -0.66961737753E+02  0.90615043882E+02 -0.23558670400E+03  0.31324919091E+03  0.17300000000E+03 0. -1.
         -6    1    1    2    0  502  0.66961737753E+02 -0.90615043882E+02  0.30755908295E+03  0.37042752329E+03  0.17300000000E+03 0. -1.
<mgrwt>
<rscale>  2 0.20645571E+03</rscale>
<asrwt>0</asrwt>
<pdfrwt beam="1">  1       21 0.58126853E-01 0.20645571E+03</pdfrwt>
<pdfrwt beam="2">  1       21 0.47054180E-01 0.20645571E+03</pdfrwt>
<totfact> 0.11877975E+04</totfact>
</mgrwt>
</event>
<event>
 4    3  0.3905963E+000  0.1739509E+03  0.7546771E-02  0.1173789E+00
         21   -1    0    0  503  502  0.00000000000E+00  0.00000000000E+00  0.10402327834E+04  0.10402327834E+04  0.00000000000E+00 0. -1.
         21   -1    0    0  501  503 -0.00000000000E+00 -0.00000000000E+00 -0.21350828855E+03  0.21350828855E+03  0.00000000000E+00 0. -1.
          6    1    1    2  501    0 -0.99163111773E+01 -0.15217360711E+02 -0.16924267019E+03  0.24269730676E+03  0.17300000000E+03 0. -1.
         -6    1    1    2    0  502  0.99163111773E+01  0.15217360711E+02  0.99596716504E+03  0.10110437652E+04  0.17300000000E+03 0. -1.
<mgrwt>
<rscale>  2 0.17395086E+03</rscale>
<asrwt>0</asrwt>
<pdfrwt beam="1">  1       21 0.16003581E+00 0.17395086E+03</pdfrwt>
<pdfrwt beam="2">  1       21 0.32847430E-01 0.17395086E+03</pdfrwt>
<totfact> 0.22863314E+03</totfact>
</mgrwt>
</event>
<event>
 4    3  0.3905963E+000  0.1794451E+03  0.7546771E-02  0.1168341E+00
         21   -1    0    0  503  502  0.00000000000E+00  0.00000000000E+00  0.38416570796E+02  0.38416570796E+02  0.00000000000E+00 0.  1.
         21   -1    0    0  501  503 -0.00000000000E+00 -0.00000000000E+00 -0.89664314384E+03  0.89664314384E+03  0.00000000000E+00 0.  1.
          6    1    1    2  501    0 -0.46780042070E+02  0.91197136978E+01 -0.54848141436E+03  0.57708959739E+03  0.17300000000E+03 0.  1.
         -6    1    1    2    0  502  0.46780042070E+02 -0.91197136978E+01 -0.30974515868E+03  0.35797011724E+03  0.17300000000E+03 0.  1.
<mgrwt>
<rscale>  2 0.17944509E+03</rscale>
<asrwt>0</asrwt>
<pdfrwt beam="1">  1       21 0.59102419E-02 0.17944509E+03</pdfrwt>
<pdfrwt beam="2">  1       21 0.13794509E+00 0.17944509E+03</pdfrwt>
<totfact> 0.75704918E+04</totfact>
</mgrwt>
</event>
<event>
 4    3  0.3905963E+000  0.2638390E+03  0.7546771E-02  0.1104858E+00
         21   -1    0    0  503  502  0.00000000000E+00  0.00000000000E+00  0.16582057875E+03  0.16582057875E+03  0.00000000000E+00 0. -1.
         21   -1    0    0  501  503 -0.00000000000E+00 -0.00000000000E+00 -0.66833898876E+03  0.66833898876E+03  0.00000000000E+00 0. -1.
          6    1    1    2  501    0  0.19696272582E+03 -0.29794590234E+02 -0.50560253585E+03  0.57030251378E+03  0.17300000000E+03 0. -1.
         -6    1    1    2    0  502 -0.19696272582E+03  0.29794590234E+02  0.30841258484E+01  0.26385705373E+03  0.17300000000E+03 0. -1.
<mgrwt>
<rscale>  2 0.26383903E+03</rscale>
<asrwt>0</asrwt>
<pdfrwt beam="1">  1       21 0.25510858E-01 0.26383903E+03</pdfrwt>
<pdfrwt beam="2">  1       21 0.10282138E+00 0.26383903E+03</pdfrwt>
<totfact> 0.10716643E+04</totfact>
</mgrwt>
</event>
<event>
 4    3  0.3905963E+000  0.2148785E+03  0.7546771E-02  0.1137760E+00
         21   -1    0    0  503  502  0.00000000000E+00  0.00000000000E+00  0.24964514388E+03  0.24964514388E+03  0.00000000000E+00 0. -1.
         21   -1    0    0  501  503 -0.00000000000E+00 -0.00000000000E+00 -0.25639082004E+03  0.25639082004E+03  0.00000000000E+00 0.  1.
          6    1    1    2  501    0  0.11325574608E+03  0.58454296651E+02 -0.13692853435E+03  0.25479833660E+03  0.17300000000E+03 0. -1.
         -6    1    1    2    0  502 -0.11325574608E+03 -0.58454296651E+02  0.13018285818E+03  0.25123762732E+03  0.17300000000E+03 0. -1.
<mgrwt>
<rscale>  2 0.21487850E+03</rscale>
<asrwt>0</asrwt>
<pdfrwt beam="1">  1       21 0.38406945E-01 0.21487850E+03</pdfrwt>
<pdfrwt beam="2">  1       21 0.39444741E-01 0.21487850E+03</pdfrwt>
<totfact> 0.40053339E+04</totfact>
</mgrwt>
</event>
<event>
 4    3  0.3905963E+000  0.1812991E+03  0.7546771E-02  0.1166552E+00
         21   -1    0    0  503  502  0.00000000000E+00  0.00000000000E+00  0.87852848585E+02  0.87852848585E+02  0.00000000000E+00 0. -1.
         21   -1    0    0  501  503 -0.00000000000E+00 -0.00000000000E+00 -0.64933163733E+03  0.64933163733E+03  0.00000000000E+00 0.  1.
          6    1    1    2  501    0  0.13320453720E+02  0.52563572928E+02 -0.52069430225E+03  0.55135462280E+03  0.17300000000E+03 0.  1.
         -6    1    1    2    0  502 -0.13320453720E+02 -0.52563572928E+02 -0.40784486492E+02  0.18582986311E+03  0.17300000000E+03 0. -1.
<mgrwt>
<rscale>  2 0.18129910E+03</rscale>
<asrwt>0</asrwt>
<pdfrwt beam="1">  1       21 0.13515823E-01 0.18129910E+03</pdfrwt>
<pdfrwt beam="2">  1       21 0.99897175E-01 0.18129910E+03</pdfrwt>
<totfact> 0.39232946E+04</totfact>
</mgrwt>
</event>
<event>
 4    3  0.3905963E+000  0.2096367E+03  0.7546771E-02  0.1141854E+00
         21   -1    0    0  501  502  0.00000000000E+00  0.00000000000E+00  0.61696097511E+03  0.61696097511E+03  0.00000000000E+00 0. -1.
         21   -1    0    0  502  503 -0.00000000000E+00 -0.00000000000E+00 -0.27602440609E+03  0.27602440609E+03  0.00000000000E+00 0.  1.
          6    1    1    2  501    0 -0.74477044099E+02  0.92041961102E+02  0.55505759745E+03  0.59332662943E+03  0.17300000000E+03 0. -1.
         -6    1    1    2    0  503  0.74477044099E+02 -0.92041961102E+02 -0.21412102843E+03  0.29965875177E+03  0.17300000000E+03 0.  1.
<mgrwt>
<rscale>  2 0.20963672E+03</rscale>
<asrwt>0</asrwt>
<pdfrwt beam="1">  1       21 0.94917073E-01 0.20963672E+03</pdfrwt>
<pdfrwt beam="2">  1       21 0.42465293E-01 0.20963672E+03</pdfrwt>
<totfact> 0.48871914E+03</totfact>
</mgrwt>
</event>
<event>
 4    3  0.3905963E+000  0.2588457E+03  0.7546771E-02  0.1107839E+00
         21   -1    0    0  501  502  0.00000000000E+00  0.00000000000E+00  0.32658160525E+03  0.32658160525E+03  0.00000000000E+00 0.  1.
         21   -1    0    0  502  503 -0.00000000000E+00 -0.00000000000E+00 -0.22481052052E+03  0.22481052052E+03  0.00000000000E+00 0. -1.
          6    1    1    2  501    0 -0.25325104698E+02 -0.19086840807E+03  0.13239760165E+03  0.29074083829E+03  0.17300000000E+03 0.  1.
         -6    1    1    2    0  503  0.25325104698E+02  0.19086840807E+03 -0.30626516917E+02  0.26065128748E+03  0.17300000000E+03 0.  1.
<mgrwt>
<rscale>  2 0.25884573E+03</rscale>
<asrwt>0</asrwt>
<pdfrwt beam="1">  1       21 0.50243324E-01 0.25884573E+03</pdfrwt>
<pdfrwt beam="2">  1       21 0.34586234E-01 0.25884573E+03</pdfrwt>
<totfact> 0.29415800E+04</totfact>
</mgrwt>
</event>
<event>
 4    3  0.3905963E+000  0.1964168E+03  0.7546771E-02  0.1152798E+00
         21   -1    0    0  503  502  0.00000000000E+00  0.00000000000E+00  0.10866338275E+04  0.10866338275E+04  0.00000000000E+00 0.  1.
         21   -1    0    0  501  503 -0.00000000000E+00 -0.00000000000E+00 -0.47213967206E+02  0.47213967206E+02  0.00000000000E+00 0.  1.
          6    1    1    2  501    0  0.78693753519E+02 -0.49576770303E+02  0.23737006040E+03  0.30809756339E+03  0.17300000000E+03 0.  1.
         -6    1    1    2    0  502 -0.78693753519E+02  0.49576770303E+02  0.80204979992E+03  0.82575023134E+03  0.17300000000E+03 0.  1.
<mgrwt>
<rscale>  2 0.19641681E+03</rscale>
<asrwt>0</asrwt>
<pdfrwt beam="1">  1       21 0.16717442E+00 0.19641681E+03</pdfrwt>
<pdfrwt beam="2">  1       21 0.72636880E-02 0.19641681E+03</pdfrwt>
<totfact> 0.31625966E+04</totfact>
</mgrwt>
</event>
<event>
 4    3  0.3905963E+000  0.1746766E+03  0.7546771E-02  0.1173057E+00
         21   -1    0    0  503  502  0.00000000000E+00  0.00000000000E+00  0.25978463028E+02  0.25978463028E+02  0.00000000000E+00 0. -1.
         21   -1    0    0  501  503 -0.00000000000E+00 -0.00000000000E+00 -0.13669782838E+04  0.13669782838E+04  0.00000000000E+00 0. -1.
          6    1    1    2  501    0  0.11452360209E+02  0.21254388290E+02 -0.93184177095E+03  0.94807225023E+03  0.17300000000E+03 0. -1.
         -6    1    1    2    0  502 -0.11452360209E+02 -0.21254388290E+02 -0.40915804981E+03  0.44488449659E+03  0.17300000000E+03 0. -1.
<mgrwt>
<rscale>  2 0.17467657E+03</rscale>
<asrwt>0</asrwt>
<pdfrwt beam="1">  1       21 0.39966876E-02 0.17467657E+03</pdfrwt>
<pdfrwt beam="2">  1       21 0.21030430E+00 0.17467657E+03</pdfrwt>
<totfact> 0.45910047E+04</totfact>
</mgrwt>
</event>
<event>
 4    3  0.3905963E+000  0.3095195E+03  0.7546771E-02  0.1080576E+00
         21   -1    0    0  501  502  0.00000000000E+00  0.00000000000E+00  0.65149876140E+03  0.65149876140E+03  0.00000000000E+00 0. -1.
         21   -1    0    0  502  503 -0.00000000000E+00 -0.00000000000E+00 -0.46375888878E+03  0.46375888878E+03  0.00000000000E+00 0. -1.
          6    1    1    2  501    0  0.11380544964E+03 -0.23004699178E+03  0.55468836996E+03  0.63520192581E+03  0.17300000000E+03 0. -1.
         -6    1    1    2    0  503 -0.11380544964E+03  0.23004699178E+03 -0.36694849734E+03  0.48005572436E+03  0.17300000000E+03 0. -1.
<mgrwt>
<rscale>  2 0.30951946E+03</rscale>
<asrwt>0</asrwt>
<pdfrwt beam="1">  1       21 0.10023058E+00 0.30951946E+03</pdfrwt>
<pdfrwt beam="2">  1       21 0.71347521E-01 0.30951946E+03</pdfrwt>
<totfact> 0.13266982E+03</totfact>
</mgrwt>
</event>
<event>
 4    3  0.3905963E+000  0.1732521E+03  0.7546771E-02  0.1174498E+00
         21   -1    0    0  501  502  0.00000000000E+00  0.00000000000E+00  0.39319816760E+02  0.39319816760E+02  0.00000000000E+00 0.  1.
         21   -1    0    0  502  503 -0.00000000000E+00 -0.00000000000E+00 -0.12772911880E+04  0.12772911880E+04  0.00000000000E+00 0.  1.
          6    1    1    2  501    0  0.42445776604E+01  0.83221826503E+01 -0.20142154544E+03  0.26568197931E+03  0.17300000000E+03 0.  1.
         -6    1    1    2    0  503 -0.42445776604E+01 -0.83221826503E+01 -0.10365498258E+04  0.10509290255E+04  0.17300000000E+03 0.  1.
<mgrwt>
<rscale>  2 0.17325206E+03</rscale>
<asrwt>0</asrwt>
<pdfrwt beam="1">  1       21 0.60492028E-02 0.17325206E+03</pdfrwt>
<pdfrwt beam="2">  1       21 0.19650633E+00 0.17325206E+03</pdfrwt>
<totfact> 0.27891991E+04</totfact>
</mgrwt>
</event>
<event>
 4    3  0.3905963E+000  0.2417964E+03  0.7546771E-02  0.1118602E+00
         21   -1    0    0  501  502  0.00000000000E+00  0.00000000000E+00  0.95508703945E+03  0.95508703945E+03  0.00000000000E+00 0. -1.
         21   -1    0    0  502  503 -0.00000000000E+00 -0.00000000000E+00 -0.62478370407E+02  0.62478370407E+02  0.00000000000E+00 0.  1.
          6    1    1    2  501    0  0.13031376447E+03 -0.10749339357E+03  0.51865777057E+03  0.57225115976E+03  0.17300000000E+03 0. -1.
         -6    1    1    2    0  503 -0.13031376447E+03  0.10749339357E+03  0.37395089847E+03  0.44531425010E+03  0.17300000000E+03 0. -1.
<mgrwt>
<rscale>  2 0.24179642E+03</rscale>
<asrwt>0</asrwt>
<pdfrwt beam="1">  1       21 0.14693646E+00 0.24179642E+03</pdfrwt>
<pdfrwt beam="2">  1       21 0.96120576E-02 0.24179642E+03</pdfrwt>
<totfact> 0.26672656E+04</totfact>
</mgrwt>
</event>
<event>
 4    3  0.3905963E+000  0.2037827E+03  0.7546771E-02  0.1146586E+00
         21   -1    0    0  501  502  0.00000000000E+00  0.00000000000E+00  0.10307721688E+03  0.10307721688E+03  0.00000000000E+00 0.  1.
         21   -1    0    0  502  503 -0.00000000000E+00 -0.00000000000E+00 -0.16050363464E+04  0.16050363464E+04  0.00000000000E+00 0.  1.
          6    1    1    2  501    0 -0.59010598351E+02  0.90089642902E+02 -0.11841773144E+02  0.20412648546E+03  0.17300000000E+03 0.  1.
         -6    1    1    2    0  503  0.59010598351E+02 -0.90089642902E+02 -0.14901173563E+04  0.15039870778E+04  0.17300000000E+03 0.  1.
<mgrwt>
<rscale>  2 0.20378271E+03</rscale>
<asrwt>0</asrwt>
<pdfrwt beam="1">  1       21 0.15858033E-01 0.20378271E+03</pdfrwt>
<pdfrwt beam="2">  1       21 0.24692867E+00 0.20378271E+03</pdfrwt>
<totfact> 0.24270928E+03</totfact>
</mgrwt>
</event>
<event>
 4    3  0.3905963E+000  0.2136560E+03  0.7546771E-02  0.1138703E+00
         21   -1    0    0  501  502  0.00000000000E+00  0.00000000000E+00  0.10871573899E+03  0.10871573899E+03  0.00000000000E+00 0. -1.
         21   -1    0    0  502  503 -0.00000000000E+00 -0.00000000000E+00 -0.51588498488E+03  0.51588498488E+03  0.00000000000E+00 0. -1.
          6    1    1    2  501    0  0.78571769929E+02 -0.97705511240E+02 -0.68869808473E+02  0.22448149250E+03  0.17300000000E+03 0. -1.
         -6    1    1    2    0  503 -0.78571769929E+02  0.97705511240E+02 -0.33829943741E+03  0.40011923137E+03  0.17300000000E+03 0. -1.
<mgrwt>
<rscale>  2 0.21365601E+03</rscale>
<asrwt>0</asrwt>
<pdfrwt beam="1">  1       21 0.16725498E-01 0.21365601E+03</pdfrwt>
<pdfrwt beam="2">  1       21 0.79366922E-01 0.21365601E+03</pdfrwt>
<totfact> 0.44536549E+04</totfact>
</mgrwt>
</event>
<event>
 4    3  0.3905963E+000  0.1839396E+03  0.7546771E-02  0.1164044E+00
         21   -1    0    0  503  502  0.00000000000E+00  0.00000000000E+00  0.36732870183E+03  0.36732870183E+03  0.00000000000E+00 0.  1.
         21   -1    0    0  501  503 -0.00000000000E+00 -0.00000000000E+00 -0.10035446739E+03  0.10035446739E+03  0.00000000000E+00 0.  1.
          6    1    1    2  501    0 -0.10860069446E+02 -0.61537405317E+02  0.20052123104E+03  0.27210762109E+03  0.17300000000E+03 0.  1.
         -6    1    1    2    0  502  0.10860069446E+02  0.61537405317E+02  0.66453003402E+02  0.19557554812E+03  0.17300000000E+03 0.  1.
<mgrwt>
<rscale>  2 0.18393965E+03</rscale>
<asrwt>0</asrwt>
<pdfrwt beam="1">  1       21 0.56512107E-01 0.18393965E+03</pdfrwt>
<pdfrwt beam="2">  1       21 0.15439149E-01 0.18393965E+03</pdfrwt>
<totfact> 0.10995399E+05</totfact>
</mgrwt>
</event>
<event>
 4    3  0.3905963E+000  0.2279583E+03  0.7546771E-02  0.1128085E+00
         21   -1    0    0  503  502  0.00000000000E+00  0.00000000000E+00  0.50355574165E+03  0.50355574165E+03  0.00000000000E+00 0. -1.
         21   -1    0    0  501  503 -0.00000000000E+00 -0.00000000000E+00 -0.13654686205E+03  0.13654686205E+03  0.00000000000E+00 0.  1.
          6    1    1    2  501    0  0.93523407544E+02 -0.11527949755E+03  0.25331715198E+02  0.22936147477E+03  0.17300000000E+03 0.  1.
         -6    1    1    2    0  502 -0.93523407544E+02  0.11527949755E+03  0.34167716441E+03  0.41074112893E+03  0.17300000000E+03 0. -1.
<mgrwt>
<rscale>  2 0.22795831E+03</rscale>
<asrwt>0</asrwt>
<pdfrwt beam="1">  1       21 0.77470113E-01 0.22795831E+03</pdfrwt>
<pdfrwt beam="2">  1       21 0.21007210E-01 0.22795831E+03</pdfrwt>
<totfact> 0.30553019E+04</totfact>
</mgrwt>
</event>
<event>
 4    3  0.3905963E+000  0.2229753E+03  0.7546771E-02  0.1131684E+00
         21   -1    0    0  503  502  0.00000000000E+00  0.00000000000E+00  0.38846253731E+02  0.38846253731E+02  0.00000000000E+00 0. -1.
         21   -1    0    0  501  503 -0.00000000000E+00 -0.00000000000E+00 -0.14029544120E+04  0.14029544120E+04  0.00000000000E+00 0. -1.
          6    1    1    2  501    0 -0.10744081375E+03  0.90804546190E+02 -0.46852242125E+03  0.51887498811E+03  0.17300000000E+03 0. -1.
         -6    1    1    2    0  502  0.10744081375E+03 -0.90804546190E+02 -0.89558573701E+03  0.92292567762E+03  0.17300000000E+03 0. -1.
<mgrwt>
<rscale>  2 0.22297532E+03</rscale>
<asrwt>0</asrwt>
<pdfrwt beam="1">  1       21 0.59763463E-02 0.22297532E+03</pdfrwt>
<pdfrwt beam="2">  1       21 0.21583916E+00 0.22297532E+03</pdfrwt>
<totfact> 0.20704944E+04</totfact>
</mgrwt>
</event>
<event>
 4    3  0.3905963E+000  0.1880463E+03  0.7546771E-02  0.1160235E+00
         21   -1    0    0  503  502  0.00000000000E+00  0.00000000000E+00  0.41575683008E+03  0.41575683008E+03  0.00000000000E+00 0. -1.
         21   -1    0    0  501  503 -0.00000000000E+00 -0.00000000000E+00 -0.87104208707E+02  0.87104208707E+02  0.00000000000E+00 0. -1.
          6    1    1    2  501    0  0.71563255652E+02 -0.17638791567E+02  0.12574403398E+03  0.22621447480E+03  0.17300000000E+03 0. -1.
         -6    1    1    2    0  502 -0.71563255652E+02  0.17638791567E+02  0.20290858739E+03  0.27664656399E+03  0.17300000000E+03 0. -1.
<mgrwt>
<rscale>  2 0.18804634E+03</rscale>
<asrwt>0</asrwt>
<pdfrwt beam="1">  1       21 0.63962588E-01 0.18804634E+03</pdfrwt>
<pdfrwt beam="2">  1       21 0.13400648E-01 0.18804634E+03</pdfrwt>
<totfact> 0.10880650E+05</totfact>
</mgrwt>
</event>
<event>
 4    3  0.3905963E+000  0.2093051E+03  0.7546771E-02  0.1142117E+00
         21   -1    0    0  503  502  0.00000000000E+00  0.00000000000E+00  0.47082531802E+03  0.47082531802E+03  0.00000000000E+00 0. -1.
         21   -1    0    0  501  503 -0.00000000000E+00 -0.00000000000E+00 -0.11121721891E+03  0.11121721891E+03  0.00000000000E+00 0. -1.
          6    1    1    2  501    0  0.11191751688E+03  0.36797926609E+02  0.62172036418E+02  0.21834372008E+03  0.17300000000E+03 0. -1.
         -6    1    1    2    0  502 -0.11191751688E+03 -0.36797926609E+02  0.29743606269E+03  0.36369881685E+03  0.17300000000E+03 0. -1.
<mgrwt>
<rscale>  2 0.20930508E+03</rscale>
<asrwt>0</asrwt>
<pdfrwt beam="1">  1       21 0.72434663E-01 0.20930508E+03</pdfrwt>
<pdfrwt beam="2">  1       21 0.17110342E-01 0.20930508E+03</pdfrwt>
<totfact> 0.52534246E+04</totfact>
</mgrwt>
</event>
<event>
 4    3  0.3905963E+000  0.2153920E+03  0.7546771E-02  0.1137366E+00
         21   -1    0    0  501  502  0.00000000000E+00  0.00000000000E+00  0.12318521694E+04  0.12318521694E+04  0.00000000000E+00 0. -1.
         21   -1    0    0  502  503 -0.00000000000E+00 -0.00000000000E+00 -0.10985028829E+03  0.10985028829E+03  0.00000000000E+00 0. -1.
          6    1    1    2  501    0 -0.10571830004E+03  0.72721206681E+02  0.11048265855E+04  0.11256267218E+04  0.17300000000E+03 0. -1.
         -6    1    1    2    0  503  0.10571830004E+03 -0.72721206681E+02  0.17175295653E+02  0.21607573590E+03  0.17300000000E+03 0. -1.
<mgrwt>
<rscale>  2 0.21539204E+03</rscale>
<asrwt>0</asrwt>
<pdfrwt beam="1">  1       21 0.18951571E+00 0.21539204E+03</pdfrwt>
<pdfrwt beam="2">  1       21 0.16900045E-01 0.21539204E+03</pdfrwt>
<totfact> 0.48569280E+03</totfact>
</mgrwt>
</event>
<event>
 4    3  0.3905963E+000  0.1851169E+03  0.7546771E-02  0.1162941E+00
         21   -1    0    0  501  502  0.00000000000E+00  0.00000000000E+00  0.14050548236E+03  0.14050548236E+03  0.00000000000E+00 0.  1.
         21   -1    0    0  502  503 -0.00000000000E+00 -0.00000000000E+00 -0.36854130176E+03  0.36854130176E+03  0.00000000000E+00 0.  1.
          6    1    1    2  501    0  0.65685350814E+02 -0.49699056432E+01  0.34004775424E+02  0.18821421313E+03  0.17300000000E+03 0.  1.
         -6    1    1    2    0  503 -0.65685350814E+02  0.49699056432E+01 -0.26204059482E+03  0.32083257099E+03  0.17300000000E+03 0.  1.
<mgrwt>
<rscale>  2 0.18511690E+03</rscale>
<asrwt>0</asrwt>
<pdfrwt beam="1">  1       21 0.21616229E-01 0.18511690E+03</pdfrwt>
<pdfrwt beam="2">  1       21 0.56698660E-01 0.18511690E+03</pdfrwt>
<totfact> 0.58548781E+04</totfact>
</mgrwt>
</event>
<event>
 4    3  0.3905963E+000  0.1850511E+03  0.7546771E-02  0.1163002E+00
         21   -1    0    0  503  502  0.00000000000E+00  0.00000000000E+00  0.61869285326E+03  0.61869285326E+03  0.00000000000E+00 0. -1.
         21   -1    0    0  501  503 -0.00000000000E+00 -0.00000000000E+00 -0.69713914644E+02  0.69713914644E+02  0.00000000000E+00 0. -1.
          6    1    1    2  501    0  0.63537510108E+02  0.16670238809E+02  0.11824313933E+03  0.21960271413E+03  0.17300000000E+03 0. -1.
         -6    1    1    2    0  502 -0.63537510108E+02 -0.16670238809E+02  0.43073579929E+03  0.46880405378E+03  0.17300000000E+03 0. -1.
<mgrwt>
<rscale>  2 0.18505111E+03</rscale>
<asrwt>0</asrwt>
<pdfrwt beam="1">  1       21 0.95183512E-01 0.18505111E+03</pdfrwt>
<pdfrwt beam="2">  1       21 0.10725218E-01 0.18505111E+03</pdfrwt>
<totfact> 0.66334067E+04</totfact>
</mgrwt>
</event>
<event>
 4    3  0.3905963E+000  0.1920639E+03  0.7546771E-02  0.1156613E+00
         21   -1    0    0  503  502  0.00000000000E+00  0.00000000000E+00  0.74429254639E+02  0.74429254639E+02  0.00000000000E+00 0. -1.
         21   -1    0    0  501  503 -0.00000000000E+00 -0.00000000000E+00 -0.51440604698E+03  0.51440604698E+03  0.00000000000E+00 0. -1.
          6    1    1    2  501    0 -0.54114996229E+02  0.63491045384E+02 -0.27625376535E+03  0.33645904436E+03  0.17300000000E+03 0. -1.
         -6    1    1    2    0  502  0.54114996229E+02 -0.63491045384E+02 -0.16372302699E+03  0.25237625726E+03  0.17300000000E+03 0. -1.
<mgrwt>
<rscale>  2 0.19206391E+03</rscale>
<asrwt>0</asrwt>
<pdfrwt beam="1">  1       21 0.11450654E-01 0.19206391E+03</pdfrwt>
<pdfrwt beam="2">  1       21 0.79139393E-01 0.19206391E+03</pdfrwt>
<totfact> 0.89949367E+04</totfact>
</mgrwt>
</event>
<event>
 4    3  0.3905963E+000  0.5221039E+03  0.7546771E-02  0.1008165E+00
         21   -1    0    0  503  502  0.00000000000E+00  0.00000000000E+00  0.36882553470E+03  0.36882553470E+03  0.00000000000E+00 0.  1.
         21   -1    0    0  501  503 -0.00000000000E+00 -0.00000000000E+00 -0.82809103773E+03  0.82809103773E+03  0.00000000000E+00 0. -1.
          6    1    1    2  501    0 -0.46024175660E+03 -0.17561617186E+03 -0.42583797676E+03  0.67374364323E+03  0.17300000000E+03 0. -1.
         -6    1    1    2    0  502  0.46024175660E+03  0.17561617186E+03 -0.33427526259E+02  0.52317292920E+03  0.17300000000E+03 0.  1.
<mgrwt>
<rscale>  2 0.52210393E+03</rscale>
<asrwt>0</asrwt>
<pdfrwt beam="1">  1       21 0.56742391E-01 0.52210393E+03</pdfrwt>
<pdfrwt beam="2">  1       21 0.12739862E+00 0.52210393E+03</pdfrwt>
<totfact> 0.10979408E+03</totfact>
</mgrwt>
</event>
<event>
 4    3  0.3905963E+000  0.1770256E+03  0.7546771E-02  0.1170713E+00
         21   -1    0    0  503  502  0.00000000000E+00  0.00000000000E+00  0.16125637598E+04  0.16125637598E+04  0.00000000000E+00 0.  1.
         21   -1    0    0  501  503 -0.00000000000E+00 -0.00000000000E+00 -0.22017854195E+02  0.22017854195E+02  0.00000000000E+00 0.  1.
          6    1    1    2  501    0 -0.16309805040E+02 -0.33808891734E+02  0.51527821820E+03  0.54483914420E+03  0.17300000000E+03 0.  1.
         -6    1    1    2    0  502  0.16309805040E+02  0.33808891734E+02  0.10752676874E+04  0.10897424698E+04  0.17300000000E+03 0.  1.
<mgrwt>
<rscale>  2 0.17702557E+03</rscale>
<asrwt>0</asrwt>
<pdfrwt beam="1">  1       21 0.24808664E+00 0.17702557E+03</pdfrwt>
<pdfrwt beam="2">  1       21 0.33873634E-02 0.17702557E+03</pdfrwt>
<totfact> 0.35755982E+04</totfact>
</mgrwt>
</event>
<event>
 4    3  0.3905963E+000  0.1919821E+03  0.7546771E-02  0.1156686E+00
         21   -1    0    0  503  502  0.00000000000E+00  0.00000000000E+00  0.23587726283E+03  0.23587726283E+03  0.00000000000E+00 0. -1.
         21   -1    0    0  501  503 -0.00000000000E+00 -0.00000000000E+00 -0.22391983326E+03  0.22391983326E+03  0.00000000000E+00 0. -1.
          6    1    1    2  501    0  0.25622485864E+02 -0.79193445386E+02 -0.12039883569E+03  0.22661198823E+03  0.17300000000E+03 0. -1.
         -6    1    1    2    0  502 -0.25622485864E+02  0.79193445386E+02  0.13235626526E+03  0.23318510786E+03  0.17300000000E+03 0. -1.
<mgrwt>
<rscale>  2 0.19198207E+03</rscale>
<asrwt>0</asrwt>
<pdfrwt beam="1">  1       21 0.36288810E-01 0.19198207E+03</pdfrwt>
<pdfrwt beam="2">  1       21 0.34449205E-01 0.19198207E+03</pdfrwt>
<totfact> 0.59491286E+04</totfact>
</mgrwt>
</event>
<event>
 4    3  0.3905963E+000  0.1795954E+03  0.7546771E-02  0.1168195E+00
         21   -1    0    0  503  502  0.00000000000E+00  0.00000000000E+00  0.39613056833E+03  0.39613056833E+03  0.00000000000E+00 0. -1.
         21   -1    0    0  501  503 -0.00000000000E+00 -0.00000000000E+00 -0.11034883618E+03  0.11034883618E+03  0.00000000000E+00 0. -1.
          6    1    1    2  501    0 -0.90370763649E+01  0.47369180606E+02  0.13237472549E+02  0.18008258855E+03  0.17300000000E+03 0. -1.
         -6    1    1    2    0  502  0.90370763649E+01 -0.47369180606E+02  0.27254425960E+03  0.32639681595E+03  0.17300000000E+03 0. -1.
<mgrwt>
<rscale>  2 0.17959540E+03</rscale>
<asrwt>0</asrwt>
<pdfrwt beam="1">  1       21 0.60943164E-01 0.17959540E+03</pdfrwt>
<pdfrwt beam="2">  1       21 0.16976744E-01 0.17959540E+03</pdfrwt>
<totfact> 0.78794507E+04</totfact>
</mgrwt>
</event>
<event>
 4    3  0.3905963E+000  0.2879138E+03  0.7546771E-02  0.1091443E+00
         21   -1    0    0  503  502  0.00000000000E+00  0.00000000000E+00  0.29475372231E+03  0.29475372231E+03  0.00000000000E+00 0. -1.
         21   -1    0    0  501  503 -0.00000000000E+00 -0.00000000000E+00 -0.51788317511E+03  0.51788317511E+03  0.00000000000E+00 0.  1.
          6    1    1    2  501    0  0.81620308303E+02 -0.21518237782E+03 -0.38623047250E+03  0.48173468667E+03  0.17300000000E+03 0.  1.
         -6    1    1    2    0  502 -0.81620308303E+02  0.21518237782E+03  0.16310101970E+03  0.33090221075E+03  0.17300000000E+03 0. -1.
<mgrwt>
<rscale>  2 0.28791376E+03</rscale>
<asrwt>0</asrwt>
<pdfrwt beam="1">  1       21 0.45346727E-01 0.28791376E+03</pdfrwt>
<pdfrwt beam="2">  1       21 0.79674334E-01 0.28791376E+03</pdfrwt>
<totfact> 0.60974075E+03</totfact>
</mgrwt>
</event>
<event>
 4    3  0.3905963E+000  0.2484847E+03  0.7546771E-02  0.1114266E+00
         21   -1    0    0  501  502  0.00000000000E+00  0.00000000000E+00  0.14402452997E+04  0.14402452997E+04  0.00000000000E+00 0.  1.
         21   -1    0    0  502  503 -0.00000000000E+00 -0.00000000000E+00 -0.60771597517E+02  0.60771597517E+02  0.00000000000E+00 0. -1.
          6    1    1    2  501    0 -0.14623352549E+03  0.10213420701E+03  0.28241285083E+03  0.37616706200E+03  0.17300000000E+03 0. -1.
         -6    1    1    2    0  503  0.14623352549E+03 -0.10213420701E+03  0.10970608513E+04  0.11248498352E+04  0.17300000000E+03 0.  1.
<mgrwt>
<rscale>  2 0.24848469E+03</rscale>
<asrwt>0</asrwt>
<pdfrwt beam="1">  1       21 0.22157618E+00 0.24848469E+03</pdfrwt>
<pdfrwt beam="2">  1       21 0.93494776E-02 0.24848469E+03</pdfrwt>
<totfact> 0.85892659E+03</totfact>
</mgrwt>
</event>
<event>
 4    3  0.3905963E+000  0.1842298E+03  0.7546771E-02  0.1163771E+00
         21   -1    0    0  503  502  0.00000000000E+00  0.00000000000E+00  0.16410714452E+03  0.16410714452E+03  0.00000000000E+00 0. -1.
         21   -1    0    0  501  503 -0.00000000000E+00 -0.00000000000E+00 -0.10572358578E+04  0.10572358578E+04  0.00000000000E+00 0. -1.
          6    1    1    2  501    0 -0.43252716260E+02 -0.46269086211E+02 -0.99425762998E+03  0.10111819127E+04  0.17300000000E+03 0. -1.
         -6    1    1    2    0  502  0.43252716260E+02  0.46269086211E+02  0.10112891669E+03  0.21016108963E+03  0.17300000000E+03 0. -1.
<mgrwt>
<rscale>  2 0.18422982E+03</rscale>
<asrwt>0</asrwt>
<pdfrwt beam="1">  1       21 0.25247253E-01 0.18422982E+03</pdfrwt>
<pdfrwt beam="2">  1       21 0.16265167E+00 0.18422982E+03</pdfrwt>
<totfact> 0.36063966E+03</totfact>
</mgrwt>
</event>
<event>
 4    3  0.3905963E+000  0.1754241E+03  0.7546771E-02  0.1172307E+00
         21   -1    0    0  501  502  0.00000000000E+00  0.00000000000E+00  0.13220078620E+04  0.13220078620E+04  0.00000000000E+00 0.  1.
         21   -1    0    0  502  503 -0.00000000000E+00 -0.00000000000E+00 -0.26140239793E+02  0.26140239793E+02  0.00000000000E+00 0.  1.
          6    1    1    2  501    0  0.28677216208E+02  0.47160886420E+01  0.87098786718E+03  0.88847818713E+03  0.17300000000E+03 0.  1.
         -6    1    1    2    0  503 -0.28677216208E+02 -0.47160886420E+01  0.42487975505E+03  0.45966991470E+03  0.17300000000E+03 0.  1.
<mgrwt>
<rscale>  2 0.17542413E+03</rscale>
<asrwt>0</asrwt>
<pdfrwt beam="1">  1       21 0.20338577E+00 0.17542413E+03</pdfrwt>
<pdfrwt beam="2">  1       21 0.40215764E-02 0.17542413E+03</pdfrwt>
<totfact> 0.50185940E+04</totfact>
</mgrwt>
</event>
<event>
 4    3  0.3905963E+000  0.1772072E+03  0.7546771E-02  0.1170534E+00
         21   -1    0    0  503  502  0.00000000000E+00  0.00000000000E+00  0.50794627432E+03  0.50794627432E+03  0.00000000000E+00 0. -1.
         21   -1    0    0  501  503 -0.00000000000E+00 -0.00000000000E+00 -0.65497123086E+02  0.65497123086E+02  0.00000000000E+00 0.  1.
          6    1    1    2  501    0 -0.19212085164E+02  0.33230616568E+02  0.28914040745E+03  0.33912321259E+03  0.17300000000E+03 0. -1.
         -6    1    1    2    0  502  0.19212085164E+02 -0.33230616568E+02  0.15330874378E+03  0.23432018482E+03  0.17300000000E+03 0.  1.
<mgrwt>
<rscale>  2 0.17720716E+03</rscale>
<asrwt>0</asrwt>
<pdfrwt beam="1">  1       21 0.78145578E-01 0.17720716E+03</pdfrwt>
<pdfrwt beam="2">  1       21 0.10076481E-01 0.17720716E+03</pdfrwt>
<totfact> 0.11676540E+05</totfact>
</mgrwt>
</event>
<event>
 4    3  0.3905963E+000  0.1886950E+03  0.7546771E-02  0.1159644E+00
         21   -1    0    0  503  502  0.00000000000E+00  0.00000000000E+00  0.50044870202E+03  0.50044870202E+03  0.00000000000E+00 0.  1.
         21   -1    0    0  501  503 -0.00000000000E+00 -0.00000000000E+00 -0.90211559040E+02  0.90211559040E+02  0.00000000000E+00 0. -1.
          6    1    1    2  501    0 -0.36141027406E+02 -0.66110671106E+02  0.69355515951E+02  0.20103726592E+03  0.17300000000E+03 0. -1.
         -6    1    1    2    0  502  0.36141027406E+02  0.66110671106E+02  0.34088162703E+03  0.38962299514E+03  0.17300000000E+03 0.  1.
<mgrwt>
<rscale>  2 0.18869498E+03</rscale>
<asrwt>0</asrwt>
<pdfrwt beam="1">  1       21 0.76992106E-01 0.18869498E+03</pdfrwt>
<pdfrwt beam="2">  1       21 0.13878702E-01 0.18869498E+03</pdfrwt>
<totfact> 0.67843386E+04</totfact>
</mgrwt>
</event>
<event>
 4    3  0.3905963E+000  0.2329448E+03  0.7546771E-02  0.1124584E+00
         21   -1    0    0  503  502  0.00000000000E+00  0.00000000000E+00  0.11067979802E+04  0.11067979802E+04  0.00000000000E+00 0. -1.
         21   -1    0    0  501  503 -0.00000000000E+00 -0.00000000000E+00 -0.55512417179E+02  0.55512417179E+02  0.00000000000E+00 0.  1.
          6    1    1    2  501    0  0.79879515644E+02  0.13399083237E+03  0.32700718721E+03  0.40149343788E+03  0.17300000000E+03 0.  1.
         -6    1    1    2    0  502 -0.79879515644E+02 -0.13399083237E+03  0.72427837577E+03  0.76081695945E+03  0.17300000000E+03 0. -1.
<mgrwt>
<rscale>  2 0.23294480E+03</rscale>
<asrwt>0</asrwt>
<pdfrwt beam="1">  1       21 0.17027660E+00 0.23294480E+03</pdfrwt>
<pdfrwt beam="2">  1       21 0.85403727E-02 0.23294480E+03</pdfrwt>
<totfact> 0.22152924E+04</totfact>
</mgrwt>
</event>
<event>
 4    3  0.3905963E+000  0.2270693E+03  0.7546771E-02  0.1128720E+00
         21   -1    0    0  503  502  0.00000000000E+00  0.00000000000E+00  0.23723899578E+03  0.23723899578E+03  0.00000000000E+00 0.  1.
         21   -1    0    0  501  503 -0.00000000000E+00 -0.00000000000E+00 -0.14019797362E+04  0.14019797362E+04  0.00000000000E+00 0. -1.
          6    1    1    2  501    0  0.51409984545E+02 -0.13779865761E+03 -0.13357780045E+04  0.13549403433E+04  0.17300000000E+03 0. -1.
         -6    1    1    2    0  502 -0.51409984545E+02  0.13779865761E+03  0.17103726411E+03  0.28427838867E+03  0.17300000000E+03 0.  1.
<mgrwt>
<rscale>  2 0.22706928E+03</rscale>
<asrwt>0</asrwt>
<pdfrwt beam="1">  1       21 0.36498307E-01 0.22706928E+03</pdfrwt>
<pdfrwt beam="2">  1       21 0.21568919E+00 0.22706928E+03</pdfrwt>
<totfact> 0.74495790E+02</totfact>
</mgrwt>
</event>
<event>
 4    3  0.3905963E+000  0.2131239E+03  0.7546771E-02  0.1139116E+00
         21   -1    0    0  501  502  0.00000000000E+00  0.00000000000E+00  0.78256825376E+02  0.78256825376E+02  0.00000000000E+00 0. -1.
         21   -1    0    0  502  503 -0.00000000000E+00 -0.00000000000E+00 -0.58399290238E+03  0.58399290238E+03  0.00000000000E+00 0. -1.
          6    1    1    2  501    0  0.11757786783E+03 -0.40843953144E+02 -0.27876996293E+03  0.35090522331E+03  0.17300000000E+03 0. -1.
         -6    1    1    2    0  503 -0.11757786783E+03  0.40843953144E+02 -0.22696611408E+03  0.31134450445E+03  0.17300000000E+03 0. -1.
<mgrwt>
<rscale>  2 0.21312387E+03</rscale>
<asrwt>0</asrwt>
<pdfrwt beam="1">  1       21 0.12039512E-01 0.21312387E+03</pdfrwt>
<pdfrwt beam="2">  1       21 0.89845059E-01 0.21312387E+03</pdfrwt>
<totfact> 0.60937837E+04</totfact>
</mgrwt>
</event>
<event>
 4    3  0.3905963E+000  0.1940072E+03  0.7546771E-02  0.1154896E+00
         21   -1    0    0  503  502  0.00000000000E+00  0.00000000000E+00  0.42875576214E+02  0.42875576214E+02  0.00000000000E+00 0.  1.
         21   -1    0    0  501  503 -0.00000000000E+00 -0.00000000000E+00 -0.88662379660E+03  0.88662379660E+03  0.00000000000E+00 0.  1.
          6    1    1    2  501    0 -0.46716593226E+02 -0.74346174515E+02 -0.37567089453E+03  0.42280895774E+03  0.17300000000E+03 0.  1.
         -6    1    1    2    0  502  0.46716593226E+02  0.74346174515E+02 -0.46807732586E+03  0.50669041507E+03  0.17300000000E+03 0.  1.
<mgrwt>
<rscale>  2 0.19400720E+03</rscale>
<asrwt>0</asrwt>
<pdfrwt beam="1">  1       21 0.65962432E-02 0.19400720E+03</pdfrwt>
<pdfrwt beam="2">  1       21 0.13640365E+00 0.19400720E+03</pdfrwt>
<totfact> 0.64078052E+04</totfact>
</mgrwt>
</event>
<event>
 4    3  0.3905963E+000  0.1982110E+03  0.7546771E-02  0.1151257E+00
         21   -1    0    0  501  502  0.00000000000E+00  0.00000000000E+00  0.13257003176E+03  0.13257003176E+03  0.00000000000E+00 0. -1.
         21   -1    0    0  502  503 -0.00000000000E+00 -0.00000000000E+00 -0.98672167352E+03  0.98672167352E+03  0.00000000000E+00 0. -1.
          6    1    1    2  501    0 -0.81686538571E+02  0.51825728691E+02  0.41043242817E+02  0.20241577142E+03  0.17300000000E+03 0. -1.
         -6    1    1    2    0  503  0.81686538571E+02 -0.51825728691E+02 -0.89519488457E+03  0.91687593386E+03  0.17300000000E+03 0. -1.
<mgrwt>
<rscale>  2 0.19821099E+03</rscale>
<asrwt>0</asrwt>
<pdfrwt beam="1">  1       21 0.20395390E-01 0.19821099E+03</pdfrwt>
<pdfrwt beam="2">  1       21 0.15180333E+00 0.19821099E+03</pdfrwt>
<totfact> 0.64162003E+03</totfact>
</mgrwt>
</event>
<event>
 4    3  0.3905963E+000  0.1913943E+03  0.7546771E-02  0.1157210E+00
         21   -1    0    0  503  502  0.00000000000E+00  0.00000000000E+00  0.41028891060E+02  0.41028891060E+02  0.00000000000E+00 0. -1.
         21   -1    0    0  501  503 -0.00000000000E+00 -0.00000000000E+00 -0.96349527670E+03  0.96349527670E+03  0.00000000000E+00 0. -1.
          6    1    1    2  501    0 -0.55172496807E+02  0.60487873157E+02 -0.59725591041E+03  0.62717334902E+03  0.17300000000E+03 0. -1.
         -6    1    1    2    0  502  0.55172496807E+02 -0.60487873157E+02 -0.32521047523E+03  0.37735081874E+03  0.17300000000E+03 0. -1.
<mgrwt>
<rscale>  2 0.19139432E+03</rscale>
<asrwt>0</asrwt>
<pdfrwt beam="1">  1       21 0.63121373E-02 0.19139432E+03</pdfrwt>
<pdfrwt beam="2">  1       21 0.14823004E+00 0.19139432E+03</pdfrwt>
<totfact> 0.55780638E+04</totfact>
</mgrwt>
</event>
<event>
 4    3  0.3905963E+000  0.2799443E+03  0.7546771E-02  0.1095719E+00
         21   -1    0    0  503  502  0.00000000000E+00  0.00000000000E+00  0.39119696316E+04  0.39119696316E+04  0.00000000000E+00 0.  1.
         21   -1    0    0  501  503 -0.00000000000E+00 -0.00000000000E+00 -0.20412412342E+02  0.20412412342E+02  0.00000000000E+00 0. -1.
          6    1    1    2  501    0  0.16715010585E+03 -0.14318043327E+03  0.16777449167E+04  0.17009399754E+04  0.17300000000E+03 0.  1.
         -6    1    1    2    0  502 -0.16715010585E+03  0.14318043327E+03  0.22138123026E+04  0.22314420686E+04  0.17300000000E+03 0. -1.
<mgrwt>
<rscale>  2 0.27994427E+03</rscale>
<asrwt>0</asrwt>
<pdfrwt beam="1">  1       21 0.60184089E+00 0.27994427E+03</pdfrwt>
<pdfrwt beam="2">  1       21 0.31403742E-02 0.27994427E+03</pdfrwt>
<totfact> 0.17167707E+02</totfact>
</mgrwt>
</event>
<event>
 4    3  0.3905963E+000  0.1989362E+03  0.7546771E-02  0.1150640E+00
         21   -1    0    0  501  502  0.00000000000E+00  0.00000000000E+00  0.76075882071E+03  0.76075882071E+03  0.00000000000E+00 0.  1.
         21   -1    0    0  502  503 -0.00000000000E+00 -0.00000000000E+00 -0.54069722624E+02  0.54069722624E+02  0.00000000000E+00 0.  1.
          6    1    1    2  501    0  0.86498139506E+02 -0.46526163380E+02  0.43264506828E+03  0.47619047358E+03  0.17300000000E+03 0.  1.
         -6    1    1    2    0  503 -0.86498139506E+02  0.46526163380E+02  0.27404402980E+03  0.33863806975E+03  0.17300000000E+03 0.  1.
<mgrwt>
<rscale>  2 0.19893620E+03</rscale>
<asrwt>0</asrwt>
<pdfrwt beam="1">  1       21 0.11703981E+00 0.19893620E+03</pdfrwt>
<pdfrwt beam="2">  1       21 0.83184194E-02 0.19893620E+03</pdfrwt>
<totfact> 0.62765298E+04</totfact>
</mgrwt>
</event>
<event>
 4    3  0.3905963E+000  0.1769084E+03  0.7546771E-02  0.1170829E+00
         21   -1    0    0  503  502  0.00000000000E+00  0.00000000000E+00  0.11068616960E+04  0.11068616960E+04  0.00000000000E+00 0.  1.
         21   -1    0    0  501  503 -0.00000000000E+00 -0.00000000000E+00 -0.50006833783E+02  0.50006833783E+02  0.00000000000E+00 0. -1.
          6    1    1    2  501    0 -0.24873549480E+02  0.27365534306E+02  0.14710965173E+03  0.23008219306E+03  0.17300000000E+03 0. -1.
         -6    1    1    2    0  502  0.24873549480E+02 -0.27365534306E+02  0.90974521053E+03  0.92678633676E+03  0.17300000000E+03 0.  1.
<mgrwt>
<rscale>  2 0.17690835E+03</rscale>
<asrwt>0</asrwt>
<pdfrwt beam="1">  1       21 0.17028640E+00 0.17690835E+03</pdfrwt>
<pdfrwt beam="2">  1       21 0.76933599E-02 0.17690835E+03</pdfrwt>
<totfact> 0.27572044E+04</totfact>
</mgrwt>
</event>
<event>
 4    3  0.3905963E+000  0.1996511E+03  0.7546771E-02  0.1150034E+00
         21   -1    0    0  501  502  0.00000000000E+00  0.00000000000E+00  0.28792810488E+03  0.28792810488E+03  0.00000000000E+00 0. -1.
         21   -1    0    0  502  503 -0.00000000000E+00 -0.00000000000E+00 -0.14139560688E+03  0.14139560688E+03  0.00000000000E+00 0. -1.
          6    1    1    2  501    0 -0.53161399050E+02  0.84293698668E+02  0.42226905888E+02  0.20406781609E+03  0.17300000000E+03 0. -1.
         -6    1    1    2    0  503  0.53161399050E+02 -0.84293698668E+02  0.10430559212E+03  0.22525589566E+03  0.17300000000E+03 0. -1.
<mgrwt>
<rscale>  2 0.19965110E+03</rscale>
<asrwt>0</asrwt>
<pdfrwt beam="1">  1       21 0.44296631E-01 0.19965110E+03</pdfrwt>
<pdfrwt beam="2">  1       21 0.21753170E-01 0.19965110E+03</pdfrwt>
<totfact> 0.96229513E+04</totfact>
</mgrwt>
</event>
<event>
 4    3  0.3905963E+000  0.1817805E+03  0.7546771E-02  0.1166091E+00
         21   -1    0    0  501  502  0.00000000000E+00  0.00000000000E+00  0.44061670087E+02  0.44061670087E+02  0.00000000000E+00 0.  1.
         21   -1    0    0  502  503 -0.00000000000E+00 -0.00000000000E+00 -0.81275817836E+03  0.81275817836E+03  0.00000000000E+00 0.  1.
          6    1    1    2  501    0  0.55707466405E+02 -0.34387193205E+01 -0.26525714865E+03  0.32156725815E+03  0.17300000000E+03 0.  1.
         -6    1    1    2    0  503 -0.55707466405E+02  0.34387193205E+01 -0.50343935962E+03  0.53525259029E+03  0.17300000000E+03 0.  1.
<mgrwt>
<rscale>  2 0.18178049E+03</rscale>
<asrwt>0</asrwt>
<pdfrwt beam="1">  1       21 0.67787188E-02 0.18178049E+03</pdfrwt>
<pdfrwt beam="2">  1       21 0.12503971E+00 0.18178049E+03</pdfrwt>
<totfact> 0.76601076E+04</totfact>
</mgrwt>
</event>
<event>
 4    3  0.3905963E+000  0.2934042E+03  0.7546771E-02  0.1088585E+00
         21   -1    0    0  501  502  0.00000000000E+00  0.00000000000E+00  0.17447461770E+03  0.17447461770E+03  0.00000000000E+00 0.  1.
         21   -1    0    0  502  503 -0.00000000000E+00 -0.00000000000E+00 -0.50108483211E+03  0.50108483211E+03  0.00000000000E+00 0. -1.
          6    1    1    2  501    0 -0.23692117108E+03  0.50363288657E+01 -0.20513222734E+03  0.35800172710E+03  0.17300000000E+03 0. -1.
         -6    1    1    2    0  503  0.23692117108E+03 -0.50363288657E+01 -0.12147798707E+03  0.31755772271E+03  0.17300000000E+03 0.  1.
<mgrwt>
<rscale>  2 0.29340417E+03</rscale>
<asrwt>0</asrwt>
<pdfrwt beam="1">  1       21 0.26842250E-01 0.29340417E+03</pdfrwt>
<pdfrwt beam="2">  1       21 0.77089972E-01 0.29340417E+03</pdfrwt>
<totfact> 0.18768912E+04</totfact>
</mgrwt>
</event>
<event>
 4    3  0.3905963E+000  0.1784345E+03  0.7546771E-02  0.1169327E+00
         21   -1    0    0  503  502  0.00000000000E+00  0.00000000000E+00  0.52528379534E+03  0.52528379534E+03  0.00000000000E+00 0. -1.
         21   -1    0    0  501  503 -0.00000000000E+00 -0.00000000000E+00 -0.82685058699E+02  0.82685058699E+02  0.00000000000E+00 0. -1.
          6    1    1    2  501    0  0.43457913133E+02 -0.46145472657E+01  0.64240702213E+02  0.18964638694E+03  0.17300000000E+03 0. -1.
         -6    1    1    2    0  502 -0.43457913133E+02  0.46145472657E+01  0.37835803443E+03  0.41832246710E+03  0.17300000000E+03 0. -1.
<mgrwt>
<rscale>  2 0.17843454E+03</rscale>
<asrwt>0</asrwt>
<pdfrwt beam="1">  1       21 0.80812890E-01 0.17843454E+03</pdfrwt>
<pdfrwt beam="2">  1       21 0.12720779E-01 0.17843454E+03</pdfrwt>
<totfact> 0.71495868E+04</totfact>
</mgrwt>
</event>
<event>
 4    3  0.3905963E+000  0.2000840E+03  0.7546771E-02  0.1149668E+00
         21   -1    0    0  501  502  0.00000000000E+00  0.00000000000E+00  0.12291222116E+04  0.12291222116E+04  0.00000000000E+00 0. -1.
         21   -1    0    0  502  503 -0.00000000000E+00 -0.00000000000E+00 -0.45197327548E+02  0.45197327548E+02  0.00000000000E+00 0.  1.
          6    1    1    2  501    0 -0.47874792171E+02  0.88388968411E+02  0.92873164599E+03  0.95004003901E+03  0.17300000000E+03 0. -1.
         -6    1    1    2    0  503  0.47874792171E+02 -0.88388968411E+02  0.25519323810E+03  0.32427950018E+03  0.17300000000E+03 0.  1.
<mgrwt>
<rscale>  2 0.20008400E+03</rscale>
<asrwt>0</asrwt>
<pdfrwt beam="1">  1       21 0.18909570E+00 0.20008400E+03</pdfrwt>
<pdfrwt beam="2">  1       21 0.69534359E-02 0.20008400E+03</pdfrwt>
<totfact> 0.24067755E+04</totfact>
</mgrwt>
</event>
<event>
 4    3  0.3905963E+000  0.2193550E+03  0.7546771E-02  0.1134365E+00
         21   -1    0    0  501  502  0.00000000000E+00  0.00000000000E+00  0.54243006842E+02  0.54243006842E+02  0.00000000000E+00 0.  1.
         21   -1    0    0  502  503 -0.00000000000E+00 -0.00000000000E+00 -0.97960353984E+03  0.97960353984E+03  0.00000000000E+00 0. -1.
          6    1    1    2  501    0 -0.74039040522E+02 -0.11272014468E+03 -0.62156502326E+03  0.65913556169E+03  0.17300000000E+03 0. -1.
         -6    1    1    2    0  503  0.74039040522E+02  0.11272014468E+03 -0.30379550974E+03  0.37471098500E+03  0.17300000000E+03 0.  1.
<mgrwt>
<rscale>  2 0.21935499E+03</rscale>
<asrwt>0</asrwt>
<pdfrwt beam="1">  1       21 0.83450775E-02 0.21935499E+03</pdfrwt>
<pdfrwt beam="2">  1       21 0.15070824E+00 0.21935499E+03</pdfrwt>
<totfact> 0.32388349E+04</totfact>
</mgrwt>
</event>
<event>
 4    3  0.3905963E+000  0.1768590E+03  0.7546771E-02  0.1170878E+00
         21   -1    0    0  503  502  0.00000000000E+00  0.00000000000E+00  0.27846495060E+02  0.27846495060E+02  0.00000000000E+00 0. -1.
         21   -1    0    0  501  503 -0.00000000000E+00 -0.00000000000E+00 -0.12850987399E+04  0.12850987399E+04  0.00000000000E+00 0. -1.
          6    1    1    2  501    0 -0.20721933444E+02  0.30343135520E+02 -0.86158407853E+03  0.87954887799E+03  0.17300000000E+03 0. -1.
         -6    1    1    2    0  502  0.20721933444E+02 -0.30343135520E+02 -0.39566816626E+03  0.43339635692E+03  0.17300000000E+03 0. -1.
<mgrwt>
<rscale>  2 0.17685900E+03</rscale>
<asrwt>0</asrwt>
<pdfrwt beam="1">  1       21 0.42840768E-02 0.17685900E+03</pdfrwt>
<pdfrwt beam="2">  1       21 0.19770747E+00 0.17685900E+03</pdfrwt>
<totfact> 0.49018158E+04</totfact>
</mgrwt>
</event>
<event>
 4    3  0.3905963E+000  0.2423048E+03  0.7546771E-02  0.1118267E+00
         21   -1    0    0  503  502  0.00000000000E+00  0.00000000000E+00  0.24472308012E+03  0.24472308012E+03  0.00000000000E+00 0. -1.
         21   -1    0    0  501  503 -0.00000000000E+00 -0.00000000000E+00 -0.24024097060E+03  0.24024097060E+03  0.00000000000E+00 0.  1.
          6    1    1    2  501    0  0.15203991644E+03 -0.75275902692E+02  0.11236580939E+02  0.24256516334E+03  0.17300000000E+03 0. -1.
         -6    1    1    2    0  502 -0.15203991644E+03  0.75275902692E+02 -0.67544714164E+01  0.24239888737E+03  0.17300000000E+03 0. -1.
<mgrwt>
<rscale>  2 0.24230476E+03</rscale>
<asrwt>0</asrwt>
<pdfrwt beam="1">  1       21 0.37649705E-01 0.24230476E+03</pdfrwt>
<pdfrwt beam="2">  1       21 0.36960149E-01 0.24230476E+03</pdfrwt>
<totfact> 0.46955018E+04</totfact>
</mgrwt>
</event>
<event>
 4    3  0.3905963E+000  0.1866160E+03  0.7546771E-02  0.1161549E+00
         21   -1    0    0  501  502  0.00000000000E+00  0.00000000000E+00  0.11345735811E+04  0.11345735811E+04  0.00000000000E+00 0.  1.
         21   -1    0    0  502  503 -0.00000000000E+00 -0.00000000000E+00 -0.32375473578E+02  0.32375473578E+02  0.00000000000E+00 0. -1.
          6    1    1    2  501    0  0.63535461780E+02  0.29322032500E+02  0.68403805433E+03  0.70903709090E+03  0.17300000000E+03 0.  1.
         -6    1    1    2    0  503 -0.63535461780E+02 -0.29322032500E+02  0.41816005323E+03  0.45791196382E+03  0.17300000000E+03 0.  1.
<mgrwt>
<rscale>  2 0.18661601E+03</rscale>
<asrwt>0</asrwt>
<pdfrwt beam="1">  1       21 0.17454975E+00 0.18661601E+03</pdfrwt>
<pdfrwt beam="2">  1       21 0.49808430E-02 0.18661601E+03</pdfrwt>
<totfact> 0.53892926E+04</totfact>
</mgrwt>
</event>
<event>
 4    3  0.3905963E+000  0.1902156E+03  0.7546771E-02  0.1158267E+00
         21   -1    0    0  503  502  0.00000000000E+00  0.00000000000E+00  0.14075565205E+04  0.14075565205E+04  0.00000000000E+00 0.  1.
         21   -1    0    0  501  503 -0.00000000000E+00 -0.00000000000E+00 -0.25721394437E+02  0.25721394437E+02  0.00000000000E+00 0. -1.
          6    1    1    2  501    0 -0.77769380847E+02 -0.14314475099E+02  0.67311757767E+03  0.69947784394E+03  0.17300000000E+03 0.  1.
         -6    1    1    2    0  502  0.77769380847E+02  0.14314475099E+02  0.70871754837E+03  0.73380007097E+03  0.17300000000E+03 0. -1.
<mgrwt>
<rscale>  2 0.19021562E+03</rscale>
<asrwt>0</asrwt>
<pdfrwt beam="1">  1       21 0.21654710E+00 0.19021562E+03</pdfrwt>
<pdfrwt beam="2">  1       21 0.39571387E-02 0.19021562E+03</pdfrwt>
<totfact> 0.42225006E+04</totfact>
</mgrwt>
</event>
<event>
 4    3  0.3905963E+000  0.1736341E+03  0.7546771E-02  0.1174110E+00
         21   -1    0    0  501  502  0.00000000000E+00  0.00000000000E+00  0.17034783718E+03  0.17034783718E+03  0.00000000000E+00 0. -1.
         21   -1    0    0  502  503 -0.00000000000E+00 -0.00000000000E+00 -0.26082309935E+03  0.26082309935E+03  0.00000000000E+00 0. -1.
          6    1    1    2  501    0 -0.73552874014E+00  0.14807729195E+02  0.76990238730E+02  0.18993763899E+03  0.17300000000E+03 0. -1.
         -6    1    1    2    0  503  0.73552874014E+00 -0.14807729195E+02 -0.16746550091E+03  0.24123329754E+03  0.17300000000E+03 0. -1.
<mgrwt>
<rscale>  2 0.17363413E+03</rscale>
<asrwt>0</asrwt>
<pdfrwt beam="1">  1       21 0.26207360E-01 0.17363413E+03</pdfrwt>
<pdfrwt beam="2">  1       21 0.40126631E-01 0.17363413E+03</pdfrwt>
<totfact> 0.83472977E+04</totfact>
</mgrwt>
</event>
<event>
 4    3  0.3905963E+000  0.2120325E+03  0.7546771E-02  0.1139967E+00
         21   -1    0    0  503  502  0.00000000000E+00  0.00000000000E+00  0.11073705540E+03  0.11073705540E+03  0.00000000000E+00 0. -1.
         21   -1    0    0  501  503 -0.00000000000E+00 -0.00000000000E+00 -0.41461106915E+03  0.41461106915E+03  0.00000000000E+00 0. -1.
          6    1    1    2  501    0  0.44022510440E+02  0.11441498989E+03 -0.18982141383E+03  0.28458731610E+03  0.17300000000E+03 0. -1.
         -6    1    1    2    0  502 -0.44022510440E+02 -0.11441498989E+03 -0.11405259993E+03  0.24076080845E+03  0.17300000000E+03 0. -1.
<mgrwt>
<rscale>  2 0.21203248E+03</rscale>
<asrwt>0</asrwt>
<pdfrwt beam="1">  1       21 0.17036470E-01 0.21203248E+03</pdfrwt>
<pdfrwt beam="2">  1       21 0.63786318E-01 0.21203248E+03</pdfrwt>
<totfact> 0.69949223E+04</totfact>
</mgrwt>
</event>
<event>
 4    3  0.3905963E+000  0.2243145E+03  0.7546771E-02  0.1130707E+00
         21   -1    0    0  503  502  0.00000000000E+00  0.00000000000E+00  0.44281091670E+03  0.44281091670E+03  0.00000000000E+00 0. -1.
         21   -1    0    0  501  503 -0.00000000000E+00 -0.00000000000E+00 -0.25881159293E+03  0.25881159293E+03  0.00000000000E+00 0.  1.
          6    1    1    2  501    0  0.10725653721E+02 -0.14238310180E+03 -0.17074635472E+03  0.28190655362E+03  0.17300000000E+03 0.  1.
         -6    1    1    2    0  502 -0.10725653721E+02  0.14238310180E+03  0.35474567848E+03  0.41971595601E+03  0.17300000000E+03 0. -1.
<mgrwt>
<rscale>  2 0.22431448E+03</rscale>
<asrwt>0</asrwt>
<pdfrwt beam="1">  1       21 0.68124756E-01 0.22431448E+03</pdfrwt>
<pdfrwt beam="2">  1       21 0.39817168E-01 0.22431448E+03</pdfrwt>
<totfact> 0.11717147E+04</totfact>
</mgrwt>
</event>
<event>
 4    3  0.3905963E+000  0.2084376E+03  0.7546771E-02  0.1142809E+00
         21   -1    0    0  501  502  0.00000000000E+00  0.00000000000E+00  0.67951495663E+02  0.67951495663E+02  0.00000000000E+00 0.  1.
         21   -1    0    0  502  503 -0.00000000000E+00 -0.00000000000E+00 -0.73326218078E+03  0.73326218078E+03  0.00000000000E+00 0.  1.
          6    1    1    2  501    0  0.11100033319E+03  0.34585412531E+02 -0.47600636983E+03  0.51964246251E+03  0.17300000000E+03 0. -1.
         -6    1    1    2    0  503 -0.11100033319E+03 -0.34585412531E+02 -0.18930431529E+03  0.28157121393E+03  0.17300000000E+03 0. -1.
<mgrwt>
<rscale>  2 0.20843758E+03</rscale>
<asrwt>0</asrwt>
<pdfrwt beam="1">  1       21 0.10454076E-01 0.20843758E+03</pdfrwt>
<pdfrwt beam="2">  1       21 0.11280957E+00 0.20843758E+03</pdfrwt>
<totfact> 0.45700548E+04</totfact>
</mgrwt>
</event>
<event>
 4    3  0.3905963E+000  0.1890725E+03  0.7546771E-02  0.1159301E+00
         21   -1    0    0  503  502  0.00000000000E+00  0.00000000000E+00  0.41044309586E+03  0.41044309586E+03  0.00000000000E+00 0.  1.
         21   -1    0    0  501  503 -0.00000000000E+00 -0.00000000000E+00 -0.87648028679E+02  0.87648028679E+02  0.00000000000E+00 0.  1.
          6    1    1    2  501    0 -0.10276999842E+02  0.75589625245E+02  0.14165282147E+03  0.23624971958E+03  0.17300000000E+03 0. -1.
         -6    1    1    2    0  502  0.10276999842E+02 -0.75589625245E+02  0.18114224571E+03  0.26184140496E+03  0.17300000000E+03 0. -1.
<mgrwt>
<rscale>  2 0.18907249E+03</rscale>
<asrwt>0</asrwt>
<pdfrwt beam="1">  1       21 0.63145090E-01 0.18907249E+03</pdfrwt>
<pdfrwt beam="2">  1       21 0.13484312E-01 0.18907249E+03</pdfrwt>
<totfact> 0.11059121E+05</totfact>
</mgrwt>
</event>
<event>
 4    3  0.3905963E+000  0.2211450E+03  0.7546771E-02  0.1133032E+00
         21   -1    0    0  501  502  0.00000000000E+00  0.00000000000E+00  0.19297073877E+03  0.19297073877E+03  0.00000000000E+00 0. -1.
         21   -1    0    0  502  503 -0.00000000000E+00 -0.00000000000E+00 -0.44942083880E+03  0.44942083880E+03  0.00000000000E+00 0. -1.
          6    1    1    2  501    0  0.10855590201E+03 -0.84804176788E+02  0.83883376374E+02  0.23651966746E+03  0.17300000000E+03 0. -1.
         -6    1    1    2    0  503 -0.10855590201E+03  0.84804176788E+02 -0.34033347640E+03  0.40587191011E+03  0.17300000000E+03 0. -1.
<mgrwt>
<rscale>  2 0.22114505E+03</rscale>
<asrwt>0</asrwt>
<pdfrwt beam="1">  1       21 0.29687806E-01 0.22114505E+03</pdfrwt>
<pdfrwt beam="2">  1       21 0.69141668E-01 0.22114505E+03</pdfrwt>
<totfact> 0.20365552E+04</totfact>
</mgrwt>
</event>
<event>
 4    3  0.3905963E+000  0.1741727E+03  0.7546771E-02  0.1173565E+00
         21   -1    0    0  503  502  0.00000000000E+00  0.00000000000E+00  0.86529457529E+03  0.86529457529E+03  0.00000000000E+00 0. -1.
         21   -1    0    0  501  503 -0.00000000000E+00 -0.00000000000E+00 -0.12740624140E+03  0.12740624140E+03  0.00000000000E+00 0. -1.
          6    1    1    2  501    0 -0.52424156841E+01 -0.19484946974E+02 -0.53632567919E+02  0.18224323972E+03  0.17300000000E+03 0. -1.
         -6    1    1    2    0  502  0.52424156841E+01  0.19484946974E+02  0.79152090181E+03  0.81045757698E+03  0.17300000000E+03 0. -1.
<mgrwt>
<rscale>  2 0.17417275E+03</rscale>
<asrwt>0</asrwt>
<pdfrwt beam="1">  1       21 0.13312224E+00 0.17417275E+03</pdfrwt>
<pdfrwt beam="2">  1       21 0.19600961E-01 0.17417275E+03</pdfrwt>
<totfact> 0.98937222E+03</totfact>
</mgrwt>
</event>
<event>
 4    3  0.3905963E+000  0.2028269E+03  0.7546771E-02  0.1147376E+00
         21   -1    0    0  503  502  0.00000000000E+00  0.00000000000E+00  0.16894275615E+04  0.16894275615E+04  0.00000000000E+00 0. -1.
         21   -1    0    0  501  503 -0.00000000000E+00 -0.00000000000E+00 -0.26510301461E+02  0.26510301461E+02  0.00000000000E+00 0.  1.
          6    1    1    2  501    0 -0.10436036907E+03 -0.17851232658E+02  0.10763370273E+04  0.10952808541E+04  0.17300000000E+03 0. -1.
         -6    1    1    2    0  502  0.10436036907E+03  0.17851232658E+02  0.58658023272E+03  0.62065700879E+03  0.17300000000E+03 0.  1.
<mgrwt>
<rscale>  2 0.20282690E+03</rscale>
<asrwt>0</asrwt>
<pdfrwt beam="1">  1       21 0.25991185E+00 0.20282690E+03</pdfrwt>
<pdfrwt beam="2">  1       21 0.40785093E-02 0.20282690E+03</pdfrwt>
<totfact> 0.21869904E+04</totfact>
</mgrwt>
</event>
<event>
 4    3  0.3905963E+000  0.2081321E+03  0.7546771E-02  0.1143054E+00
         21   -1    0    0  503  502  0.00000000000E+00  0.00000000000E+00  0.36663133271E+03  0.36663133271E+03  0.00000000000E+00 0.  1.
         21   -1    0    0  501  503 -0.00000000000E+00 -0.00000000000E+00 -0.13259260881E+03  0.13259260881E+03  0.00000000000E+00 0.  1.
          6    1    1    2  501    0 -0.63207414542E+02  0.96926795181E+02  0.19938906644E+03  0.28822730734E+03  0.17300000000E+03 0.  1.
         -6    1    1    2    0  502  0.63207414542E+02 -0.96926795181E+02  0.34649657453E+02  0.21099663419E+03  0.17300000000E+03 0.  1.
<mgrwt>
<rscale>  2 0.20813212E+03</rscale>
<asrwt>0</asrwt>
<pdfrwt beam="1">  1       21 0.56404820E-01 0.20813212E+03</pdfrwt>
<pdfrwt beam="2">  1       21 0.20398863E-01 0.20813212E+03</pdfrwt>
<totfact> 0.65316093E+04</totfact>
</mgrwt>
</event>
<event>
 4    3  0.3905963E+000  0.2819167E+03  0.7546771E-02  0.1094647E+00
         21   -1    0    0  503  502  0.00000000000E+00  0.00000000000E+00  0.12936170653E+03  0.12936170653E+03  0.00000000000E+00 0.  1.
         21   -1    0    0  501  503 -0.00000000000E+00 -0.00000000000E+00 -0.61867247919E+03  0.61867247919E+03  0.00000000000E+00 0. -1.
          6    1    1    2  501    0  0.15243508241E+03  0.16220846384E+03 -0.27581523700E+03  0.39439965143E+03  0.17300000000E+03 0.  1.
         -6    1    1    2    0  502 -0.15243508241E+03 -0.16220846384E+03 -0.21349553566E+03  0.35363453429E+03  0.17300000000E+03 0. -1.
<mgrwt>
<rscale>  2 0.28191673E+03</rscale>
<asrwt>0</asrwt>
<pdfrwt beam="1">  1       21 0.19901801E-01 0.28191673E+03</pdfrwt>
<pdfrwt beam="2">  1       21 0.95180382E-01 0.28191673E+03</pdfrwt>
<totfact> 0.20504553E+04</totfact>
</mgrwt>
</event>
<event>
 4    3  0.3905963E+000  0.2442349E+03  0.7546771E-02  0.1117003E+00
         21   -1    0    0  501  502  0.00000000000E+00  0.00000000000E+00  0.18984318203E+03  0.18984318203E+03  0.00000000000E+00 0. -1.
         21   -1    0    0  502  503 -0.00000000000E+00 -0.00000000000E+00 -0.55540754399E+03  0.55540754399E+03  0.00000000000E+00 0. -1.
          6    1    1    2  501    0 -0.64457903732E+02  0.15989634507E+03  0.62775087336E+02  0.25217330174E+03  0.17300000000E+03 0. -1.
         -6    1    1    2    0  503  0.64457903732E+02 -0.15989634507E+03 -0.42833944929E+03  0.49307742429E+03  0.17300000000E+03 0. -1.
<mgrwt>
<rscale>  2 0.24423485E+03</rscale>
<asrwt>0</asrwt>
<pdfrwt beam="1">  1       21 0.29206643E-01 0.24423485E+03</pdfrwt>
<pdfrwt beam="2">  1       21 0.85447315E-01 0.24423485E+03</pdfrwt>
<totfact> 0.12879894E+04</totfact>
</mgrwt>
</event>
<event>
 4    3  0.3905963E+000  0.1997417E+03  0.7546771E-02  0.1149957E+00
         21   -1    0    0  501  502  0.00000000000E+00  0.00000000000E+00  0.43872961448E+03  0.43872961448E+03  0.00000000000E+00 0. -1.
         21   -1    0    0  502  503 -0.00000000000E+00 -0.00000000000E+00 -0.90942270723E+02  0.90942270723E+02  0.00000000000E+00 0.  1.
          6    1    1    2  501    0 -0.75659819474E+02 -0.65141059893E+02  0.17590504349E+03  0.26615662737E+03  0.17300000000E+03 0.  1.
         -6    1    1    2    0  503  0.75659819474E+02  0.65141059893E+02  0.17188230026E+03  0.26351525783E+03  0.17300000000E+03 0. -1.
<mgrwt>
<rscale>  2 0.19974175E+03</rscale>
<asrwt>0</asrwt>
<pdfrwt beam="1">  1       21 0.67496862E-01 0.19974175E+03</pdfrwt>
<pdfrwt beam="2">  1       21 0.13991119E-01 0.19974175E+03</pdfrwt>
<totfact> 0.89086157E+04</totfact>
</mgrwt>
</event>
<event>
 4    3  0.3905963E+000  0.2405720E+03  0.7546771E-02  0.1119412E+00
         21   -1    0    0  501  502  0.00000000000E+00  0.00000000000E+00  0.43494932774E+03  0.43494932774E+03  0.00000000000E+00 0. -1.
         21   -1    0    0  502  503 -0.00000000000E+00 -0.00000000000E+00 -0.28312503788E+03  0.28312503788E+03  0.00000000000E+00 0. -1.
          6    1    1    2  501    0  0.11519990422E+03  0.12113987256E+03  0.33730173619E+03  0.41430344905E+03  0.17300000000E+03 0. -1.
         -6    1    1    2    0  503 -0.11519990422E+03 -0.12113987256E+03 -0.18547744634E+03  0.30377091657E+03  0.17300000000E+03 0. -1.
<mgrwt>
<rscale>  2 0.24057200E+03</rscale>
<asrwt>0</asrwt>
<pdfrwt beam="1">  1       21 0.66915281E-01 0.24057200E+03</pdfrwt>
<pdfrwt beam="2">  1       21 0.43557698E-01 0.24057200E+03</pdfrwt>
<totfact> 0.10051337E+04</totfact>
</mgrwt>
</event>
<event>
 4    3  0.3905963E+000  0.1803128E+03  0.7546771E-02  0.1167501E+00
         21   -1    0    0  503  502  0.00000000000E+00  0.00000000000E+00  0.74053698058E+03  0.74053698058E+03  0.00000000000E+00 0. -1.
         21   -1    0    0  501  503 -0.00000000000E+00 -0.00000000000E+00 -0.76787229221E+02  0.76787229221E+02  0.00000000000E+00 0. -1.
          6    1    1    2  501    0  0.16406455093E+01  0.50803726558E+02  0.64447698145E+02  0.19148424516E+03  0.17300000000E+03 0. -1.
         -6    1    1    2    0  502 -0.16406455093E+01 -0.50803726558E+02  0.59930205322E+03  0.62583996464E+03  0.17300000000E+03 0. -1.
<mgrwt>
<rscale>  2 0.18031281E+03</rscale>
<asrwt>0</asrwt>
<pdfrwt beam="1">  1       21 0.11392876E+00 0.18031281E+03</pdfrwt>
<pdfrwt beam="2">  1       21 0.11813420E-01 0.18031281E+03</pdfrwt>
<totfact> 0.36444519E+04</totfact>
</mgrwt>
</event>
<event>
 4    3  0.3905963E+000  0.2100200E+03  0.7546771E-02  0.1141550E+00
         21   -1    0    0  501  502  0.00000000000E+00  0.00000000000E+00  0.59846278836E+03  0.59846278836E+03  0.00000000000E+00 0. -1.
         21   -1    0    0  502  503 -0.00000000000E+00 -0.00000000000E+00 -0.82779738013E+02  0.82779738013E+02  0.00000000000E+00 0. -1.
          6    1    1    2  501    0  0.53211846263E+02 -0.10652661491E+03  0.37063343087E+03  0.42600183139E+03  0.17300000000E+03 0. -1.
         -6    1    1    2    0  503 -0.53211846263E+02  0.10652661491E+03  0.14504961948E+03  0.25524069499E+03  0.17300000000E+03 0. -1.
<mgrwt>
<rscale>  2 0.21002005E+03</rscale>
<asrwt>0</asrwt>
<pdfrwt beam="1">  1       21 0.92071196E-01 0.21002005E+03</pdfrwt>
<pdfrwt beam="2">  1       21 0.12735345E-01 0.21002005E+03</pdfrwt>
<totfact> 0.52113256E+04</totfact>
</mgrwt>
</event>
<event>
 4    3  0.3905963E+000  0.2234448E+03  0.7546771E-02  0.1131341E+00
         21   -1    0    0  503  502  0.00000000000E+00  0.00000000000E+00  0.67290663602E+02  0.67290663602E+02  0.00000000000E+00 0. -1.
         21   -1    0    0  501  503 -0.00000000000E+00 -0.00000000000E+00 -0.74514679033E+03  0.74514679033E+03  0.00000000000E+00 0.  1.
          6    1    1    2  501    0  0.14140076553E+03 -0.20937099441E+01 -0.36545751768E+03  0.42835354246E+03  0.17300000000E+03 0.  1.
         -6    1    1    2    0  502 -0.14140076553E+03  0.20937099441E+01 -0.31239860905E+03  0.38408391147E+03  0.17300000000E+03 0. -1.
<mgrwt>
<rscale>  2 0.22344476E+03</rscale>
<asrwt>0</asrwt>
<pdfrwt beam="1">  1       21 0.10352409E-01 0.22344476E+03</pdfrwt>
<pdfrwt beam="2">  1       21 0.11463798E+00 0.22344476E+03</pdfrwt>
<totfact> 0.44373373E+04</totfact>
</mgrwt>
</event>
<event>
 4    3  0.3905963E+000  0.1840476E+03  0.7546771E-02  0.1163942E+00
         21   -1    0    0  501  502  0.00000000000E+00  0.00000000000E+00  0.13464942209E+03  0.13464942209E+03  0.00000000000E+00 0.  1.
         21   -1    0    0  502  503 -0.00000000000E+00 -0.00000000000E+00 -0.42586715794E+03  0.42586715794E+03  0.00000000000E+00 0.  1.
          6    1    1    2  501    0  0.44919647784E+02 -0.43894543714E+02  0.33686410689E+02  0.18710499723E+03  0.17300000000E+03 0.  1.
         -6    1    1    2    0  503 -0.44919647784E+02  0.43894543714E+02 -0.32490414654E+03  0.37341158279E+03  0.17300000000E+03 0.  1.
<mgrwt>
<rscale>  2 0.18404756E+03</rscale>
<asrwt>0</asrwt>
<pdfrwt beam="1">  1       21 0.20715295E-01 0.18404756E+03</pdfrwt>
<pdfrwt beam="2">  1       21 0.65518025E-01 0.18404756E+03</pdfrwt>
<totfact> 0.46493699E+04</totfact>
</mgrwt>
</event>
<event>
 4    3  0.3905963E+000  0.1889490E+03  0.7546771E-02  0.1159413E+00
         21   -1    0    0  503  502  0.00000000000E+00  0.00000000000E+00  0.15201909962E+03  0.15201909962E+03  0.00000000000E+00 0.  1.
         21   -1    0    0  501  503 -0.00000000000E+00 -0.00000000000E+00 -0.24095282767E+03  0.24095282767E+03  0.00000000000E+00 0.  1.
          6    1    1    2  501    0 -0.95594505357E+01 -0.75374772323E+02 -0.13197541939E+02  0.18940938337E+03  0.17300000000E+03 0.  1.
         -6    1    1    2    0  502  0.95594505357E+01  0.75374772323E+02 -0.75736186110E+02  0.20356254391E+03  0.17300000000E+03 0.  1.
<mgrwt>
<rscale>  2 0.18894904E+03</rscale>
<asrwt>0</asrwt>
<pdfrwt beam="1">  1       21 0.23387554E-01 0.18894904E+03</pdfrwt>
<pdfrwt beam="2">  1       21 0.37069666E-01 0.18894904E+03</pdfrwt>
<totfact> 0.12084290E+05</totfact>
</mgrwt>
</event>
<event>
 4    3  0.3905963E+000  0.2023621E+03  0.7546771E-02  0.1147761E+00
         21   -1    0    0  501  502  0.00000000000E+00  0.00000000000E+00  0.30689992499E+03  0.30689992499E+03  0.00000000000E+00 0. -1.
         21   -1    0    0  502  503 -0.00000000000E+00 -0.00000000000E+00 -0.21817947830E+03  0.21817947830E+03  0.00000000000E+00 0. -1.
          6    1    1    2  501    0 -0.19823785765E+02  0.10309434837E+03  0.20798539859E+03  0.29018675568E+03  0.17300000000E+03 0. -1.
         -6    1    1    2    0  503  0.19823785765E+02 -0.10309434837E+03 -0.11926495189E+03  0.23489264760E+03  0.17300000000E+03 0. -1.
<mgrwt>
<rscale>  2 0.20236212E+03</rscale>
<asrwt>0</asrwt>
<pdfrwt beam="1">  1       21 0.47215373E-01 0.20236212E+03</pdfrwt>
<pdfrwt beam="2">  1       21 0.33566074E-01 0.20236212E+03</pdfrwt>
<totfact> 0.36503474E+04</totfact>
</mgrwt>
</event>
<event>
 4    3  0.3905963E+000  0.3170252E+03  0.7546771E-02  0.1077027E+00
         21   -1    0    0  501  502  0.00000000000E+00  0.00000000000E+00  0.31964675413E+03  0.31964675413E+03  0.00000000000E+00 0.  1.
         21   -1    0    0  502  503 -0.00000000000E+00 -0.00000000000E+00 -0.57009243891E+03  0.57009243891E+03  0.00000000000E+00 0. -1.
          6    1    1    2  501    0  0.57021729681E+02 -0.25946969339E+03  0.17269575405E+03  0.36101083489E+03  0.17300000000E+03 0.  1.
         -6    1    1    2    0  503 -0.57021729681E+02  0.25946969339E+03 -0.42314143883E+03  0.52872835814E+03  0.17300000000E+03 0. -1.
<mgrwt>
<rscale>  2 0.31702523E+03</rscale>
<asrwt>0</asrwt>
<pdfrwt beam="1">  1       21 0.49176424E-01 0.31702523E+03</pdfrwt>
<pdfrwt beam="2">  1       21 0.87706528E-01 0.31702523E+03</pdfrwt>
<totfact> 0.40632630E+03</totfact>
</mgrwt>
</event>
<event>
 4    3  0.3905963E+000  0.1784691E+03  0.7546771E-02  0.1169293E+00
         21   -1    0    0  503  502  0.00000000000E+00  0.00000000000E+00  0.12342560255E+03  0.12342560255E+03  0.00000000000E+00 0.  1.
         21   -1    0    0  501  503 -0.00000000000E+00 -0.00000000000E+00 -0.76628354425E+03  0.76628354425E+03  0.00000000000E+00 0.  1.
          6    1    1    2  501    0 -0.10137703185E+02 -0.42655053902E+02 -0.68371421548E+03  0.70662320589E+03  0.17300000000E+03 0.  1.
         -6    1    1    2    0  502  0.10137703185E+02  0.42655053902E+02  0.40856273782E+02  0.18308594090E+03  0.17300000000E+03 0.  1.
<mgrwt>
<rscale>  2 0.17846912E+03</rscale>
<asrwt>0</asrwt>
<pdfrwt beam="1">  1       21 0.18988554E-01 0.17846912E+03</pdfrwt>
<pdfrwt beam="2">  1       21 0.11788977E+00 0.17846912E+03</pdfrwt>
<totfact> 0.14166187E+04</totfact>
</mgrwt>
</event>
<event>
 4    3  0.3905963E+000  0.1834959E+03  0.7546771E-02  0.1164462E+00
         21   -1    0    0  503  502  0.00000000000E+00  0.00000000000E+00  0.44655307087E+03  0.44655307087E+03  0.00000000000E+00 0. -1.
         21   -1    0    0  501  503 -0.00000000000E+00 -0.00000000000E+00 -0.75857551999E+02  0.75857551999E+02  0.00000000000E+00 0. -1.
          6    1    1    2  501    0  0.60264051890E+02 -0.10488418705E+02  0.16509431781E+03  0.24683374293E+03  0.17300000000E+03 0. -1.
         -6    1    1    2    0  502 -0.60264051890E+02  0.10488418705E+02  0.20560120106E+03  0.27557687993E+03  0.17300000000E+03 0. -1.
<mgrwt>
<rscale>  2 0.18349595E+03</rscale>
<asrwt>0</asrwt>
<pdfrwt beam="1">  1       21 0.68700471E-01 0.18349595E+03</pdfrwt>
<pdfrwt beam="2">  1       21 0.11670393E-01 0.18349595E+03</pdfrwt>
<totfact> 0.11949068E+05</totfact>
</mgrwt>
</event>
<event>
 4    3  0.3905963E+000  0.2017204E+03  0.7546771E-02  0.1148296E+00
         21   -1    0    0  503  502  0.00000000000E+00  0.00000000000E+00  0.58122390172E+02  0.58122390172E+02  0.00000000000E+00 0.  1.
         21   -1    0    0  501  503 -0.00000000000E+00 -0.00000000000E+00 -0.72406909139E+03  0.72406909139E+03  0.00000000000E+00 0.  1.
          6    1    1    2  501    0 -0.37805189342E+02 -0.96606892782E+02 -0.40413977946E+03  0.45168582600E+03  0.17300000000E+03 0.  1.
         -6    1    1    2    0  502  0.37805189342E+02  0.96606892782E+02 -0.26180692177E+03  0.33050565556E+03  0.17300000000E+03 0.  1.
<mgrwt>
<rscale>  2 0.20172041E+03</rscale>
<asrwt>0</asrwt>
<pdfrwt beam="1">  1       21 0.89419065E-02 0.20172041E+03</pdfrwt>
<pdfrwt beam="2">  1       21 0.11139524E+00 0.20172041E+03</pdfrwt>
<totfact> 0.62303014E+04</totfact>
</mgrwt>
</event>
<event>
 4    3  0.3905963E+000  0.1825708E+03  0.7546771E-02  0.1165338E+00
         21   -1    0    0  501  502  0.00000000000E+00  0.00000000000E+00  0.36567389625E+02  0.36567389625E+02  0.00000000000E+00 0. -1.
         21   -1    0    0  502  503 -0.00000000000E+00 -0.00000000000E+00 -0.91162223925E+03  0.91162223925E+03  0.00000000000E+00 0. -1.
          6    1    1    2  501    0  0.22940585139E+02  0.53635903679E+02 -0.44243018595E+03  0.47861942089E+03  0.17300000000E+03 0. -1.
         -6    1    1    2    0  503 -0.22940585139E+02 -0.53635903679E+02 -0.43262466367E+03  0.46957020798E+03  0.17300000000E+03 0. -1.
<mgrwt>
<rscale>  2 0.18257076E+03</rscale>
<asrwt>0</asrwt>
<pdfrwt beam="1">  1       21 0.56257522E-02 0.18257076E+03</pdfrwt>
<pdfrwt beam="2">  1       21 0.14024958E+00 0.18257076E+03</pdfrwt>
<totfact> 0.78789234E+04</totfact>
</mgrwt>
</event>
<event>
 4    3  0.3905963E+000  0.2881010E+03  0.7546771E-02  0.1091345E+00
         21   -1    0    0  503  502  0.00000000000E+00  0.00000000000E+00  0.16129321255E+03  0.16129321255E+03  0.00000000000E+00 0.  1.
         21   -1    0    0  501  503 -0.00000000000E+00 -0.00000000000E+00 -0.70305497738E+03  0.70305497738E+03  0.00000000000E+00 0.  1.
          6    1    1    2  501    0 -0.14527236647E+03 -0.17879917463E+03 -0.49463073790E+03  0.57241748068E+03  0.17300000000E+03 0.  1.
         -6    1    1    2    0  502  0.14527236647E+03  0.17879917463E+03 -0.47131026929E+02  0.29193070926E+03  0.17300000000E+03 0.  1.
<mgrwt>
<rscale>  2 0.28810103E+03</rscale>
<asrwt>0</asrwt>
<pdfrwt beam="1">  1       21 0.24814340E-01 0.28810103E+03</pdfrwt>
<pdfrwt beam="2">  1       21 0.10816230E+00 0.28810103E+03</pdfrwt>
<totfact> 0.98729213E+03</totfact>
</mgrwt>
</event>
<event>
 4    3  0.3905963E+000  0.2912978E+03  0.7546771E-02  0.1089673E+00
         21   -1    0    0  503  502  0.00000000000E+00  0.00000000000E+00  0.25976053265E+03  0.25976053265E+03  0.00000000000E+00 0. -1.
         21   -1    0    0  501  503 -0.00000000000E+00 -0.00000000000E+00 -0.45080874605E+03  0.45080874605E+03  0.00000000000E+00 0.  1.
          6    1    1    2  501    0  0.23063450337E+03 -0.41630859106E+02 -0.28196643517E+03  0.40541271950E+03  0.17300000000E+03 0.  1.
         -6    1    1    2    0  502 -0.23063450337E+03  0.41630859106E+02  0.90918221766E+02  0.30515655920E+03  0.17300000000E+03 0. -1.
<mgrwt>
<rscale>  2 0.29129779E+03</rscale>
<asrwt>0</asrwt>
<pdfrwt beam="1">  1       21 0.39963159E-01 0.29129779E+03</pdfrwt>
<pdfrwt beam="2">  1       21 0.69355191E-01 0.29129779E+03</pdfrwt>
<totfact> 0.10792742E+04</totfact>
</mgrwt>
</event>
<event>
 4    3  0.3905963E+000  0.1905118E+03  0.7546771E-02  0.1158001E+00
         21   -1    0    0  503  502  0.00000000000E+00  0.00000000000E+00  0.30336958675E+02  0.30336958675E+02  0.00000000000E+00 0. -1.
         21   -1    0    0  501  503 -0.00000000000E+00 -0.00000000000E+00 -0.11972020697E+04  0.11972020697E+04  0.00000000000E+00 0. -1.
          6    1    1    2  501    0  0.28057225749E+02 -0.74689708477E+02 -0.59944159574E+03  0.62898727107E+03  0.17300000000E+03 0. -1.
         -6    1    1    2    0  502 -0.28057225749E+02  0.74689708477E+02 -0.56742351525E+03  0.59855175727E+03  0.17300000000E+03 0. -1.
<mgrwt>
<rscale>  2 0.19051184E+03</rscale>
<asrwt>0</asrwt>
<pdfrwt beam="1">  1       21 0.46672246E-02 0.19051184E+03</pdfrwt>
<pdfrwt beam="2">  1       21 0.18418493E+00 0.19051184E+03</pdfrwt>
<totfact> 0.51598229E+04</totfact>
</mgrwt>
</event>
<event>
 4    3  0.3905963E+000  0.1800842E+03  0.7546771E-02  0.1167722E+00
         21   -1    0    0  503  502  0.00000000000E+00  0.00000000000E+00  0.10275733585E+03  0.10275733585E+03  0.00000000000E+00 0. -1.
         21   -1    0    0  501  503 -0.00000000000E+00 -0.00000000000E+00 -0.37609021459E+03  0.37609021459E+03  0.00000000000E+00 0. -1.
          6    1    1    2  501    0 -0.98362027909E+01 -0.49036451450E+02 -0.40646814913E+02  0.18461443069E+03  0.17300000000E+03 0. -1.
         -6    1    1    2    0  502  0.98362027909E+01  0.49036451450E+02 -0.23268606383E+03  0.29423311975E+03  0.17300000000E+03 0. -1.
<mgrwt>
<rscale>  2 0.18008421E+03</rscale>
<asrwt>0</asrwt>
<pdfrwt beam="1">  1       21 0.15808821E-01 0.18008421E+03</pdfrwt>
<pdfrwt beam="2">  1       21 0.57860033E-01 0.18008421E+03</pdfrwt>
<totfact> 0.10030663E+05</totfact>
</mgrwt>
</event>
<event>
 4    3  0.3905963E+000  0.1796127E+03  0.7546771E-02  0.1168178E+00
         21   -1    0    0  501  502  0.00000000000E+00  0.00000000000E+00  0.13876197789E+03  0.13876197789E+03  0.00000000000E+00 0. -1.
         21   -1    0    0  502  503 -0.00000000000E+00 -0.00000000000E+00 -0.58134399316E+03  0.58134399316E+03  0.00000000000E+00 0. -1.
          6    1    1    2  501    0  0.32074898817E+02  0.36096251664E+02  0.57623960918E+02  0.18862995359E+03  0.17300000000E+03 0. -1.
         -6    1    1    2    0  503 -0.32074898817E+02 -0.36096251664E+02 -0.50020597619E+03  0.53147601746E+03  0.17300000000E+03 0. -1.
<mgrwt>
<rscale>  2 0.17961275E+03</rscale>
<asrwt>0</asrwt>
<pdfrwt beam="1">  1       21 0.21347997E-01 0.17961275E+03</pdfrwt>
<pdfrwt beam="2">  1       21 0.89437536E-01 0.17961275E+03</pdfrwt>
<totfact> 0.21945330E+04</totfact>
</mgrwt>
</event>
<event>
 4    3  0.3905963E+000  0.1811140E+03  0.7546771E-02  0.1166729E+00
         21   -1    0    0  503  502  0.00000000000E+00  0.00000000000E+00  0.37114923256E+03  0.37114923256E+03  0.00000000000E+00 0.  1.
         21   -1    0    0  501  503 -0.00000000000E+00 -0.00000000000E+00 -0.11644122211E+03  0.11644122211E+03  0.00000000000E+00 0.  1.
          6    1    1    2  501    0  0.38824130606E+02 -0.36959215322E+02  0.76737646927E+01  0.18127653841E+03  0.17300000000E+03 0.  1.
         -6    1    1    2    0  502 -0.38824130606E+02  0.36959215322E+02  0.24703424576E+03  0.30631391625E+03  0.17300000000E+03 0.  1.
<mgrwt>
<rscale>  2 0.18111404E+03</rscale>
<asrwt>0</asrwt>
<pdfrwt beam="1">  1       21 0.57099881E-01 0.18111404E+03</pdfrwt>
<pdfrwt beam="2">  1       21 0.17914034E-01 0.18111404E+03</pdfrwt>
<totfact> 0.81983206E+04</totfact>
</mgrwt>
</event>
<event>
 4    3  0.3905963E+000  0.1733042E+03  0.7546771E-02  0.1174445E+00
         21   -1    0    0  501  502  0.00000000000E+00  0.00000000000E+00  0.46926623288E+03  0.46926623288E+03  0.00000000000E+00 0. -1.
         21   -1    0    0  502  503 -0.00000000000E+00 -0.00000000000E+00 -0.38882600573E+03  0.38882600573E+03  0.00000000000E+00 0. -1.
          6    1    1    2  501    0  0.15905546399E+01 -0.10139305543E+02  0.43236799684E+03  0.46580727782E+03  0.17300000000E+03 0. -1.
         -6    1    1    2    0  503 -0.15905546399E+01  0.10139305543E+02 -0.35192776969E+03  0.39228496078E+03  0.17300000000E+03 0. -1.
<mgrwt>
<rscale>  2 0.17330417E+03</rscale>
<asrwt>0</asrwt>
<pdfrwt beam="1">  1       21 0.72194805E-01 0.17330417E+03</pdfrwt>
<pdfrwt beam="2">  1       21 0.59819386E-01 0.17330417E+03</pdfrwt>
<totfact> 0.45856557E+03</totfact>
</mgrwt>
</event>
<event>
 4    3  0.3905963E+000  0.2893116E+03  0.7546771E-02  0.1090709E+00
         21   -1    0    0  501  502  0.00000000000E+00  0.00000000000E+00  0.63248316506E+03  0.63248316506E+03  0.00000000000E+00 0.  1.
         21   -1    0    0  502  503 -0.00000000000E+00 -0.00000000000E+00 -0.15855242162E+03  0.15855242162E+03  0.00000000000E+00 0. -1.
          6    1    1    2  501    0 -0.21611343572E+03  0.84066660802E+02  0.39779058422E+03  0.49187251342E+03  0.17300000000E+03 0.  1.
         -6    1    1    2    0  503  0.21611343572E+03 -0.84066660802E+02  0.76140159215E+02  0.29916307326E+03  0.17300000000E+03 0. -1.
<mgrwt>
<rscale>  2 0.28931163E+03</rscale>
<asrwt>0</asrwt>
<pdfrwt beam="1">  1       21 0.97305101E-01 0.28931163E+03</pdfrwt>
<pdfrwt beam="2">  1       21 0.24392681E-01 0.28931163E+03</pdfrwt>
<totfact> 0.13168027E+04</totfact>
</mgrwt>
</event>
<event>
 4    3  0.3905963E+000  0.2166828E+03  0.7546771E-02  0.1136381E+00
         21   -1    0    0  501  502  0.00000000000E+00  0.00000000000E+00  0.27999259473E+02  0.27999259473E+02  0.00000000000E+00 0.  1.
         21   -1    0    0  502  503 -0.00000000000E+00 -0.00000000000E+00 -0.18166732433E+04  0.18166732433E+04  0.00000000000E+00 0.  1.
          6    1    1    2  501    0 -0.78230591886E+02  0.10441450773E+03 -0.63848250816E+03  0.67424871387E+03  0.17300000000E+03 0.  1.
         -6    1    1    2    0  503  0.78230591886E+02 -0.10441450773E+03 -0.11501914757E+04  0.11704237889E+04  0.17300000000E+03 0.  1.
<mgrwt>
<rscale>  2 0.21668275E+03</rscale>
<asrwt>0</asrwt>
<pdfrwt beam="1">  1       21 0.43075770E-02 0.21668275E+03</pdfrwt>
<pdfrwt beam="2">  1       21 0.27948828E+00 0.21668275E+03</pdfrwt>
<totfact> 0.15157562E+04</totfact>
</mgrwt>
</event>
<event>
 4    3  0.3905963E+000  0.4274340E+03  0.7546771E-02  0.1034674E+00
         21   -1    0    0  503  502  0.00000000000E+00  0.00000000000E+00  0.11763247841E+04  0.11763247841E+04  0.00000000000E+00 0. -1.
         21   -1    0    0  501  503 -0.00000000000E+00 -0.00000000000E+00 -0.18709685647E+03  0.18709685647E+03  0.00000000000E+00 0.  1.
          6    1    1    2  501    0 -0.17605812850E+03 -0.34896187142E+03  0.21364227347E+03  0.47785235516E+03  0.17300000000E+03 0.  1.
         -6    1    1    2    0  502  0.17605812850E+03  0.34896187142E+03  0.77558565418E+03  0.88556928542E+03  0.17300000000E+03 0. -1.
<mgrwt>
<rscale>  2 0.42743403E+03</rscale>
<asrwt>0</asrwt>
<pdfrwt beam="1">  1       21 0.18097304E+00 0.42743403E+03</pdfrwt>
<pdfrwt beam="2">  1       21 0.28784133E-01 0.42743403E+03</pdfrwt>
<totfact> 0.17719671E+03</totfact>
</mgrwt>
</event>
<event>
 4    3  0.3905963E+000  0.1795634E+03  0.7546771E-02  0.1168226E+00
         21   -1    0    0  501  502  0.00000000000E+00  0.00000000000E+00  0.32155031217E+03  0.32155031217E+03  0.00000000000E+00 0.  1.
         21   -1    0    0  502  503 -0.00000000000E+00 -0.00000000000E+00 -0.77564706470E+03  0.77564706470E+03  0.00000000000E+00 0. -1.
          6    1    1    2  501    0  0.37311535808E+02  0.30362424525E+02  0.28486286301E+03  0.33673413585E+03  0.17300000000E+03 0.  1.
         -6    1    1    2    0  503 -0.37311535808E+02 -0.30362424525E+02 -0.73895961555E+03  0.76046324102E+03  0.17300000000E+03 0. -1.
<mgrwt>
<rscale>  2 0.17956344E+03</rscale>
<asrwt>0</asrwt>
<pdfrwt beam="1">  1       21 0.49469279E-01 0.17956344E+03</pdfrwt>
<pdfrwt beam="2">  1       21 0.11933032E+00 0.17956344E+03</pdfrwt>
<totfact> 0.21121433E+03</totfact>
</mgrwt>
</event>
<event>
 4    3  0.3905963E+000  0.1913423E+03  0.7546771E-02  0.1157256E+00
         21   -1    0    0  503  502  0.00000000000E+00  0.00000000000E+00  0.15753059978E+03  0.15753059978E+03  0.00000000000E+00 0. -1.
         21   -1    0    0  501  503 -0.00000000000E+00 -0.00000000000E+00 -0.25322020132E+03  0.25322020132E+03  0.00000000000E+00 0. -1.
          6    1    1    2  501    0  0.33560618549E+02 -0.74542228830E+02 -0.10671913054E+03  0.21909092135E+03  0.17300000000E+03 0. -1.
         -6    1    1    2    0  502 -0.33560618549E+02  0.74542228830E+02  0.11029528988E+02  0.19165987975E+03  0.17300000000E+03 0. -1.
<mgrwt>
<rscale>  2 0.19134226E+03</rscale>
<asrwt>0</asrwt>
<pdfrwt beam="1">  1       21 0.24235477E-01 0.19134226E+03</pdfrwt>
<pdfrwt beam="2">  1       21 0.38956954E-01 0.19134226E+03</pdfrwt>
<totfact> 0.10215254E+05</totfact>
</mgrwt>
</event>
<event>
 4    3  0.3905963E+000  0.1802229E+03  0.7546771E-02  0.1167588E+00
         21   -1    0    0  501  502  0.00000000000E+00  0.00000000000E+00  0.90078336141E+02  0.90078336141E+02  0.00000000000E+00 0. -1.
         21   -1    0    0  502  503 -0.00000000000E+00 -0.00000000000E+00 -0.36083648198E+03  0.36083648198E+03  0.00000000000E+00 0. -1.
          6    1    1    2  501    0  0.50509852169E+02  0.18323455212E+00 -0.14141172484E+03  0.22907979977E+03  0.17300000000E+03 0. -1.
         -6    1    1    2    0  503 -0.50509852169E+02 -0.18323455212E+00 -0.12934642100E+03  0.22183501835E+03  0.17300000000E+03 0. -1.
<mgrwt>
<rscale>  2 0.18022286E+03</rscale>
<asrwt>0</asrwt>
<pdfrwt beam="1">  1       21 0.13858206E-01 0.18022286E+03</pdfrwt>
<pdfrwt beam="2">  1       21 0.55513304E-01 0.18022286E+03</pdfrwt>
<totfact> 0.13910234E+05</totfact>
</mgrwt>
</event>
<event>
 4    3  0.3905963E+000  0.1851030E+03  0.7546771E-02  0.1162954E+00
         21   -1    0    0  501  502  0.00000000000E+00  0.00000000000E+00  0.85847379254E+03  0.85847379254E+03  0.00000000000E+00 0. -1.
         21   -1    0    0  502  503 -0.00000000000E+00 -0.00000000000E+00 -0.46395873766E+02  0.46395873766E+02  0.00000000000E+00 0.  1.
          6    1    1    2  501    0 -0.65435393189E+02 -0.72349341176E+01  0.57517813305E+03  0.60422927742E+03  0.17300000000E+03 0. -1.
         -6    1    1    2    0  503  0.65435393189E+02  0.72349341176E+01  0.23689978573E+03  0.30064038889E+03  0.17300000000E+03 0.  1.
<mgrwt>
<rscale>  2 0.18510304E+03</rscale>
<asrwt>0</asrwt>
<pdfrwt beam="1">  1       21 0.13207288E+00 0.18510304E+03</pdfrwt>
<pdfrwt beam="2">  1       21 0.71378273E-02 0.18510304E+03</pdfrwt>
<totfact> 0.60973747E+04</totfact>
</mgrwt>
</event>
<event>
 4    3  0.3905963E+000  0.1918695E+03  0.7546771E-02  0.1156786E+00
         21   -1    0    0  501  502  0.00000000000E+00  0.00000000000E+00  0.52085404867E+02  0.52085404867E+02  0.00000000000E+00 0.  1.
         21   -1    0    0  502  503 -0.00000000000E+00 -0.00000000000E+00 -0.70869842855E+03  0.70869842855E+03  0.00000000000E+00 0. -1.
          6    1    1    2  501    0  0.75092579061E+02  0.35299042630E+02 -0.30861407922E+03  0.36339588293E+03  0.17300000000E+03 0.  1.
         -6    1    1    2    0  503 -0.75092579061E+02 -0.35299042630E+02 -0.34799894447E+03  0.39738795048E+03  0.17300000000E+03 0.  1.
<mgrwt>
<rscale>  2 0.19186953E+03</rscale>
<asrwt>0</asrwt>
<pdfrwt beam="1">  1       21 0.80131398E-02 0.19186953E+03</pdfrwt>
<pdfrwt beam="2">  1       21 0.10903052E+00 0.19186953E+03</pdfrwt>
<totfact> 0.79872749E+04</totfact>
</mgrwt>
</event>
<event>
 4    3  0.3905963E+000  0.2019969E+03  0.7546771E-02  0.1148065E+00
         21   -1    0    0  501  502  0.00000000000E+00  0.00000000000E+00  0.39907227576E+03  0.39907227576E+03  0.00000000000E+00 0.  1.
         21   -1    0    0  502  503 -0.00000000000E+00 -0.00000000000E+00 -0.11845291028E+03  0.11845291028E+03  0.00000000000E+00 0.  1.
          6    1    1    2  501    0  0.69579437451E+02  0.77668830696E+02  0.23603031286E+03  0.31066550173E+03  0.17300000000E+03 0.  1.
         -6    1    1    2    0  503 -0.69579437451E+02 -0.77668830696E+02  0.44589052617E+02  0.20685968431E+03  0.17300000000E+03 0.  1.
<mgrwt>
<rscale>  2 0.20199689E+03</rscale>
<asrwt>0</asrwt>
<pdfrwt beam="1">  1       21 0.61395734E-01 0.20199689E+03</pdfrwt>
<pdfrwt beam="2">  1       21 0.18223525E-01 0.20199689E+03</pdfrwt>
<totfact> 0.67387459E+04</totfact>
</mgrwt>
</event>
<event>
 4    3  0.3905963E+000  0.1760851E+03  0.7546771E-02  0.1171647E+00
         21   -1    0    0  501  502  0.00000000000E+00  0.00000000000E+00  0.40524418447E+03  0.40524418447E+03  0.00000000000E+00 0. -1.
         21   -1    0    0  502  503 -0.00000000000E+00 -0.00000000000E+00 -0.77197255238E+02  0.77197255238E+02  0.00000000000E+00 0.  1.
          6    1    1    2  501    0 -0.76711572838E+01 -0.31907778771E+02  0.18675403111E+03  0.25667688080E+03  0.17300000000E+03 0. -1.
         -6    1    1    2    0  503  0.76711572838E+01  0.31907778771E+02  0.14129289812E+03  0.22576455891E+03  0.17300000000E+03 0.  1.
<mgrwt>
<rscale>  2 0.17608507E+03</rscale>
<asrwt>0</asrwt>
<pdfrwt beam="1">  1       21 0.62345258E-01 0.17608507E+03</pdfrwt>
<pdfrwt beam="2">  1       21 0.11876501E-01 0.17608507E+03</pdfrwt>
<totfact> 0.14342102E+05</totfact>
</mgrwt>
</event>
<event>
 4    3  0.3905963E+000  0.1949530E+03  0.7546771E-02  0.1154068E+00
         21   -1    0    0  503  502  0.00000000000E+00  0.00000000000E+00  0.16925800159E+03  0.16925800159E+03  0.00000000000E+00 0. -1.
         21   -1    0    0  501  503 -0.00000000000E+00 -0.00000000000E+00 -0.25971283195E+03  0.25971283195E+03  0.00000000000E+00 0. -1.
          6    1    1    2  501    0  0.89618935610E+02  0.67908959372E+01 -0.12414991067E+03  0.23112738956E+03  0.17300000000E+03 0. -1.
         -6    1    1    2    0  502 -0.89618935610E+02 -0.67908959372E+01  0.33695080307E+02  0.19784344398E+03  0.17300000000E+03 0. -1.
<mgrwt>
<rscale>  2 0.19495299E+03</rscale>
<asrwt>0</asrwt>
<pdfrwt beam="1">  1       21 0.26039693E-01 0.19495299E+03</pdfrwt>
<pdfrwt beam="2">  1       21 0.39955820E-01 0.19495299E+03</pdfrwt>
<totfact> 0.84505236E+04</totfact>
</mgrwt>
</event>
<event>
 4    3  0.3905963E+000  0.1788062E+03  0.7546771E-02  0.1168963E+00
         21   -1    0    0  503  502  0.00000000000E+00  0.00000000000E+00  0.23358841615E+04  0.23358841615E+04  0.00000000000E+00 0. -1.
         21   -1    0    0  501  503 -0.00000000000E+00 -0.00000000000E+00 -0.18151174534E+02  0.18151174534E+02  0.00000000000E+00 0. -1.
          6    1    1    2  501    0  0.94040856210E+01  0.44206367543E+02  0.17425709506E+04  0.17517206277E+04  0.17300000000E+03 0. -1.
         -6    1    1    2    0  502 -0.94040856210E+01 -0.44206367543E+02  0.57516203638E+03  0.60231470831E+03  0.17300000000E+03 0. -1.
<mgrwt>
<rscale>  2 0.17880615E+03</rscale>
<asrwt>0</asrwt>
<pdfrwt beam="1">  1       21 0.35936656E+00 0.17880615E+03</pdfrwt>
<pdfrwt beam="2">  1       21 0.27924902E-02 0.17880615E+03</pdfrwt>
<totfact> 0.11153091E+04</totfact>
</mgrwt>
</event>
<event>
 4    3  0.3905963E+000  0.1768032E+03  0.7546771E-02  0.1170933E+00
         21   -1    0    0  501  502  0.00000000000E+00  0.00000000000E+00  0.19126015750E+03  0.19126015750E+03  0.00000000000E+00 0. -1.
         21   -1    0    0  502  503 -0.00000000000E+00 -0.00000000000E+00 -0.18958137160E+03  0.18958137160E+03  0.00000000000E+00 0. -1.
          6    1    1    2  501    0  0.16373710835E+02  0.32592512919E+02  0.71550706359E+02  0.19073246678E+03  0.17300000000E+03 0. -1.
         -6    1    1    2    0  503 -0.16373710835E+02 -0.32592512919E+02 -0.69871920466E+02  0.19010906232E+03  0.17300000000E+03 0. -1.
<mgrwt>
<rscale>  2 0.17680320E+03</rscale>
<asrwt>0</asrwt>
<pdfrwt beam="1">  1       21 0.29424639E-01 0.17680320E+03</pdfrwt>
<pdfrwt beam="2">  1       21 0.29166365E-01 0.17680320E+03</pdfrwt>
<totfact> 0.12525072E+05</totfact>
</mgrwt>
</event>
<event>
 4    3  0.3905963E+000  0.2154309E+03  0.7546771E-02  0.1137336E+00
         21   -1    0    0  501  502  0.00000000000E+00  0.00000000000E+00  0.20575771050E+03  0.20575771050E+03  0.00000000000E+00 0. -1.
         21   -1    0    0  502  503 -0.00000000000E+00 -0.00000000000E+00 -0.22837462937E+03  0.22837462937E+03  0.00000000000E+00 0.  1.
          6    1    1    2  501    0 -0.11177147873E+03 -0.63155505336E+02 -0.35411079008E+02  0.21832184002E+03  0.17300000000E+03 0.  1.
         -6    1    1    2    0  503  0.11177147873E+03  0.63155505336E+02  0.12794160139E+02  0.21581049985E+03  0.17300000000E+03 0. -1.
<mgrwt>
<rscale>  2 0.21543092E+03</rscale>
<asrwt>0</asrwt>
<pdfrwt beam="1">  1       21 0.31655032E-01 0.21543092E+03</pdfrwt>
<pdfrwt beam="2">  1       21 0.35134558E-01 0.21543092E+03</pdfrwt>
<totfact> 0.74196289E+04</totfact>
</mgrwt>
</event>
<event>
 4    3  0.3905963E+000  0.2190214E+03  0.7546771E-02  0.1134615E+00
         21   -1    0    0  501  502  0.00000000000E+00  0.00000000000E+00  0.12012379634E+04  0.12012379634E+04  0.00000000000E+00 0.  1.
         21   -1    0    0  502  503 -0.00000000000E+00 -0.00000000000E+00 -0.40250880555E+02  0.40250880555E+02  0.00000000000E+00 0. -1.
          6    1    1    2  501    0 -0.16440967207E+02  0.13330821908E+03  0.52542704714E+03  0.56924859995E+03  0.17300000000E+03 0. -1.
         -6    1    1    2    0  503  0.16440967207E+02 -0.13330821908E+03  0.63556003569E+03  0.67224024399E+03  0.17300000000E+03 0.  1.
<mgrwt>
<rscale>  2 0.21902143E+03</rscale>
<asrwt>0</asrwt>
<pdfrwt beam="1">  1       21 0.18480581E+00 0.21902143E+03</pdfrwt>
<pdfrwt beam="2">  1       21 0.61924441E-02 0.21902143E+03</pdfrwt>
<totfact> 0.30999280E+04</totfact>
</mgrwt>
</event>
<event>
 4    3  0.3905963E+000  0.1922146E+03  0.7546771E-02  0.1156479E+00
         21   -1    0    0  503  502  0.00000000000E+00  0.00000000000E+00  0.52204501266E+02  0.52204501266E+02  0.00000000000E+00 0.  1.
         21   -1    0    0  501  503 -0.00000000000E+00 -0.00000000000E+00 -0.98412114068E+03  0.98412114068E+03  0.00000000000E+00 0.  1.
          6    1    1    2  501    0 -0.69992084385E+02  0.46028002915E+02 -0.74056264857E+03  0.76510097725E+03  0.17300000000E+03 0.  1.
         -6    1    1    2    0  502  0.69992084385E+02 -0.46028002915E+02 -0.19135399084E+03  0.27122466470E+03  0.17300000000E+03 0.  1.
<mgrwt>
<rscale>  2 0.19221464E+03</rscale>
<asrwt>0</asrwt>
<pdfrwt beam="1">  1       21 0.80314615E-02 0.19221464E+03</pdfrwt>
<pdfrwt beam="2">  1       21 0.15140326E+00 0.19221464E+03</pdfrwt>
<totfact> 0.34771482E+04</totfact>
</mgrwt>
</event>
<event>
 4    3  0.3905963E+000  0.1917254E+03  0.7546771E-02  0.1156914E+00
         21   -1    0    0  501  502  0.00000000000E+00  0.00000000000E+00  0.75199997822E+03  0.75199997822E+03  0.00000000000E+00 0.  1.
         21   -1    0    0  502  503 -0.00000000000E+00 -0.00000000000E+00 -0.68405147707E+02  0.68405147707E+02  0.00000000000E+00 0. -1.
          6    1    1    2  501    0  0.56037065281E+02 -0.60741064839E+02  0.12264903573E+03  0.22759924343E+03  0.17300000000E+03 0. -1.
         -6    1    1    2    0  503 -0.56037065281E+02  0.60741064839E+02  0.56094579478E+03  0.59280588249E+03  0.17300000000E+03 0.  1.
<mgrwt>
<rscale>  2 0.19172540E+03</rscale>
<asrwt>0</asrwt>
<pdfrwt beam="1">  1       21 0.11569230E+00 0.19172540E+03</pdfrwt>
<pdfrwt beam="2">  1       21 0.10523869E-01 0.19172540E+03</pdfrwt>
<totfact> 0.42853075E+04</totfact>
</mgrwt>
</event>
<event>
 4    3  0.3905963E+000  0.2166014E+03  0.7546771E-02  0.1136442E+00
         21   -1    0    0  503  502  0.00000000000E+00  0.00000000000E+00  0.85118623101E+03  0.85118623101E+03  0.00000000000E+00 0.  1.
         21   -1    0    0  501  503 -0.00000000000E+00 -0.00000000000E+00 -0.56891492222E+02  0.56891492222E+02  0.00000000000E+00 0. -1.
          6    1    1    2  501    0  0.12550112070E+03  0.35166055592E+02  0.31699579445E+03  0.38393035366E+03  0.17300000000E+03 0.  1.
         -6    1    1    2    0  502 -0.12550112070E+03 -0.35166055592E+02  0.47729894433E+03  0.52414736956E+03  0.17300000000E+03 0.  1.
<mgrwt>
<rscale>  2 0.21660144E+03</rscale>
<asrwt>0</asrwt>
<pdfrwt beam="1">  1       21 0.13095172E+00 0.21660144E+03</pdfrwt>
<pdfrwt beam="2">  1       21 0.87525379E-02 0.21660144E+03</pdfrwt>
<totfact> 0.42960723E+04</totfact>
</mgrwt>
</event>
<event>
 4    3  0.3905963E+000  0.1806381E+03  0.7546771E-02  0.1167187E+00
         21   -1    0    0  503  502  0.00000000000E+00  0.00000000000E+00  0.11639480603E+04  0.11639480603E+04  0.00000000000E+00 0. -1.
         21   -1    0    0  501  503 -0.00000000000E+00 -0.00000000000E+00 -0.33694419358E+02  0.33694419358E+02  0.00000000000E+00 0. -1.
          6    1    1    2  501    0  0.49386673493E+02 -0.16188368376E+02  0.31968817563E+03  0.36719291446E+03  0.17300000000E+03 0. -1.
         -6    1    1    2    0  502 -0.49386673493E+02  0.16188368376E+02  0.81056546533E+03  0.83044956522E+03  0.17300000000E+03 0. -1.
<mgrwt>
<rscale>  2 0.18063805E+03</rscale>
<asrwt>0</asrwt>
<pdfrwt beam="1">  1       21 0.17906890E+00 0.18063805E+03</pdfrwt>
<pdfrwt beam="2">  1       21 0.51837577E-02 0.18063805E+03</pdfrwt>
<totfact> 0.47065677E+04</totfact>
</mgrwt>
</event>
<event>
 4    3  0.3905963E+000  0.2296689E+03  0.7546771E-02  0.1126873E+00
         21   -1    0    0  501  502  0.00000000000E+00  0.00000000000E+00  0.37503818619E+03  0.37503818619E+03  0.00000000000E+00 0. -1.
         21   -1    0    0  502  503 -0.00000000000E+00 -0.00000000000E+00 -0.15879448576E+03  0.15879448576E+03  0.00000000000E+00 0.  1.
          6    1    1    2  501    0 -0.10948997412E+02  0.15066155091E+03  0.19835631602E+03  0.30346830407E+03  0.17300000000E+03 0. -1.
         -6    1    1    2    0  503  0.10948997412E+02 -0.15066155091E+03  0.17887384410E+02  0.23036436788E+03  0.17300000000E+03 0.  1.
<mgrwt>
<rscale>  2 0.22966886E+03</rscale>
<asrwt>0</asrwt>
<pdfrwt beam="1">  1       21 0.57698182E-01 0.22966886E+03</pdfrwt>
<pdfrwt beam="2">  1       21 0.24429921E-01 0.22966886E+03</pdfrwt>
<totfact> 0.43806837E+04</totfact>
</mgrwt>
</event>
<event>
 4    3  0.3905963E+000  0.2348671E+03  0.7546771E-02  0.1123260E+00
         21   -1    0    0  503  502  0.00000000000E+00  0.00000000000E+00  0.97078710989E+03  0.97078710989E+03  0.00000000000E+00 0.  1.
         21   -1    0    0  501  503 -0.00000000000E+00 -0.00000000000E+00 -0.82155160963E+02  0.82155160963E+02  0.00000000000E+00 0.  1.
          6    1    1    2  501    0  0.15778059686E+03  0.18407185577E+02  0.15196965700E+03  0.27974509446E+03  0.17300000000E+03 0.  1.
         -6    1    1    2    0  502 -0.15778059686E+03 -0.18407185577E+02  0.73666229193E+03  0.77319717639E+03  0.17300000000E+03 0.  1.
<mgrwt>
<rscale>  2 0.23486707E+03</rscale>
<asrwt>0</asrwt>
<pdfrwt beam="1">  1       21 0.14935186E+00 0.23486707E+03</pdfrwt>
<pdfrwt beam="2">  1       21 0.12639256E-01 0.23486707E+03</pdfrwt>
<totfact> 0.15721889E+04</totfact>
</mgrwt>
</event>
<event>
 4    3  0.3905963E+000  0.1791102E+03  0.7546771E-02  0.1168667E+00
         21   -1    0    0  501  502  0.00000000000E+00  0.00000000000E+00  0.37207843376E+02  0.37207843376E+02  0.00000000000E+00 0.  1.
         21   -1    0    0  502  503 -0.00000000000E+00 -0.00000000000E+00 -0.91264203838E+03  0.91264203838E+03  0.00000000000E+00 0. -1.
          6    1    1    2  501    0 -0.37679371119E+02 -0.27050235048E+02 -0.54937479831E+03  0.57783485465E+03  0.17300000000E+03 0. -1.
         -6    1    1    2    0  503  0.37679371119E+02  0.27050235048E+02 -0.32605939669E+03  0.37201502711E+03  0.17300000000E+03 0.  1.
<mgrwt>
<rscale>  2 0.17911016E+03</rscale>
<asrwt>0</asrwt>
<pdfrwt beam="1">  1       21 0.57242832E-02 0.17911016E+03</pdfrwt>
<pdfrwt beam="2">  1       21 0.14040648E+00 0.17911016E+03</pdfrwt>
<totfact> 0.76404195E+04</totfact>
</mgrwt>
</event>
<event>
 4    3  0.3905963E+000  0.2323594E+03  0.7546771E-02  0.1124990E+00
         21   -1    0    0  501  502  0.00000000000E+00  0.00000000000E+00  0.17332929075E+03  0.17332929075E+03  0.00000000000E+00 0. -1.
         21   -1    0    0  502  503 -0.00000000000E+00 -0.00000000000E+00 -0.32134500958E+03  0.32134500958E+03  0.00000000000E+00 0.  1.
          6    1    1    2  501    0 -0.81643683394E+02  0.13189472089E+03 -0.30700677611E+02  0.23437883873E+03  0.17300000000E+03 0. -1.
         -6    1    1    2    0  503  0.81643683394E+02 -0.13189472089E+03 -0.11731504121E+03  0.26029546160E+03  0.17300000000E+03 0.  1.
<mgrwt>
<rscale>  2 0.23235944E+03</rscale>
<asrwt>0</asrwt>
<pdfrwt beam="1">  1       21 0.26666045E-01 0.23235944E+03</pdfrwt>
<pdfrwt beam="2">  1       21 0.49437693E-01 0.23235944E+03</pdfrwt>
<totfact> 0.51278212E+04</totfact>
</mgrwt>
</event>
<event>
 4    3  0.3905963E+000  0.2140977E+03  0.7546771E-02  0.1138362E+00
         21   -1    0    0  503  502  0.00000000000E+00  0.00000000000E+00  0.16703328756E+03  0.16703328756E+03  0.00000000000E+00 0. -1.
         21   -1    0    0  501  503 -0.00000000000E+00 -0.00000000000E+00 -0.42356573337E+03  0.42356573337E+03  0.00000000000E+00 0.  1.
          6    1    1    2  501    0 -0.81999652727E+02  0.95837810401E+02 -0.30349398091E+03  0.37141139643E+03  0.17300000000E+03 0.  1.
         -6    1    1    2    0  502  0.81999652727E+02 -0.95837810401E+02  0.46961535102E+02  0.21918762449E+03  0.17300000000E+03 0. -1.
<mgrwt>
<rscale>  2 0.21409771E+03</rscale>
<asrwt>0</asrwt>
<pdfrwt beam="1">  1       21 0.25697429E-01 0.21409771E+03</pdfrwt>
<pdfrwt beam="2">  1       21 0.65163958E-01 0.21409771E+03</pdfrwt>
<totfact> 0.30789810E+04</totfact>
</mgrwt>
</event>
<event>
 4    3  0.3905963E+000  0.1952424E+03  0.7546771E-02  0.1153816E+00
         21   -1    0    0  501  502  0.00000000000E+00  0.00000000000E+00  0.13077661782E+03  0.13077661782E+03  0.00000000000E+00 0. -1.
         21   -1    0    0  502  503 -0.00000000000E+00 -0.00000000000E+00 -0.63849379082E+03  0.63849379082E+03  0.00000000000E+00 0.  1.
          6    1    1    2  501    0  0.46516453108E+02  0.77632480229E+02  0.29698277859E+02  0.19748815181E+03  0.17300000000E+03 0. -1.
         -6    1    1    2    0  503 -0.46516453108E+02 -0.77632480229E+02 -0.53741545086E+03  0.57178225682E+03  0.17300000000E+03 0.  1.
<mgrwt>
<rscale>  2 0.19524237E+03</rscale>
<asrwt>0</asrwt>
<pdfrwt beam="1">  1       21 0.20119480E-01 0.19524237E+03</pdfrwt>
<pdfrwt beam="2">  1       21 0.98229813E-01 0.19524237E+03</pdfrwt>
<totfact> 0.19517761E+04</totfact>
</mgrwt>
</event>
<event>
 4    3  0.3905963E+000  0.2306164E+03  0.7546771E-02  0.1126207E+00
         21   -1    0    0  501  502  0.00000000000E+00  0.00000000000E+00  0.15590047472E+03  0.15590047472E+03  0.00000000000E+00 0. -1.
         21   -1    0    0  502  503 -0.00000000000E+00 -0.00000000000E+00 -0.34428815917E+03  0.34428815917E+03  0.00000000000E+00 0. -1.
          6    1    1    2  501    0 -0.28159232399E+02 -0.14987321777E+03 -0.11810800980E+03  0.25910118825E+03  0.17300000000E+03 0. -1.
         -6    1    1    2    0  503  0.28159232399E+02  0.14987321777E+03 -0.70279674650E+02  0.24108744564E+03  0.17300000000E+03 0. -1.
<mgrwt>
<rscale>  2 0.23061640E+03</rscale>
<asrwt>0</asrwt>
<pdfrwt beam="1">  1       21 0.23984689E-01 0.23061640E+03</pdfrwt>
<pdfrwt beam="2">  1       21 0.52967408E-01 0.23061640E+03</pdfrwt>
<totfact> 0.54407173E+04</totfact>
</mgrwt>
</event>
<event>
 4    3  0.3905963E+000  0.1786778E+03  0.7546771E-02  0.1169089E+00
         21   -1    0    0  503  502  0.00000000000E+00  0.00000000000E+00  0.96444817432E+03  0.96444817432E+03  0.00000000000E+00 0.  1.
         21   -1    0    0  501  503 -0.00000000000E+00 -0.00000000000E+00 -0.36043892236E+02  0.36043892236E+02  0.00000000000E+00 0.  1.
          6    1    1    2  501    0  0.25324829685E+02 -0.36815990700E+02  0.32130115883E+03  0.36764139978E+03  0.17300000000E+03 0. -1.
         -6    1    1    2    0  502 -0.25324829685E+02  0.36815990700E+02  0.60710312326E+03  0.63285066678E+03  0.17300000000E+03 0. -1.
<mgrwt>
<rscale>  2 0.17867782E+03</rscale>
<asrwt>0</asrwt>
<pdfrwt beam="1">  1       21 0.14837662E+00 0.17867782E+03</pdfrwt>
<pdfrwt beam="2">  1       21 0.55452149E-02 0.17867782E+03</pdfrwt>
<totfact> 0.69892320E+04</totfact>
</mgrwt>
</event>
<event>
 4    3  0.3905963E+000  0.2788529E+03  0.7546771E-02  0.1096317E+00
         21   -1    0    0  503  502  0.00000000000E+00  0.00000000000E+00  0.11668955896E+04  0.11668955896E+04  0.00000000000E+00 0.  1.
         21   -1    0    0  501  503 -0.00000000000E+00 -0.00000000000E+00 -0.70776070324E+02  0.70776070324E+02  0.00000000000E+00 0. -1.
          6    1    1    2  501    0  0.20610774464E+03 -0.73140589989E+02  0.69770397735E+03  0.75136528288E+03  0.17300000000E+03 0.  1.
         -6    1    1    2    0  502 -0.20610774464E+03  0.73140589989E+02  0.39841554193E+03  0.48630637705E+03  0.17300000000E+03 0. -1.
<mgrwt>
<rscale>  2 0.27885292E+03</rscale>
<asrwt>0</asrwt>
<pdfrwt beam="1">  1       21 0.17952239E+00 0.27885292E+03</pdfrwt>
<pdfrwt beam="2">  1       21 0.10888627E-01 0.27885292E+03</pdfrwt>
<totfact> 0.12081704E+04</totfact>
</mgrwt>
</event>
<event>
 4    3  0.3905963E+000  0.2224718E+03  0.7546771E-02  0.1132054E+00
         21   -1    0    0  501  502  0.00000000000E+00  0.00000000000E+00  0.10889658356E+03  0.10889658356E+03  0.00000000000E+00 0.  1.
         21   -1    0    0  502  503 -0.00000000000E+00 -0.00000000000E+00 -0.60507323067E+03  0.60507323067E+03  0.00000000000E+00 0. -1.
          6    1    1    2  501    0  0.72831018694E+02 -0.11941667907E+03 -0.70007532019E+02  0.23322683178E+03  0.17300000000E+03 0.  1.
         -6    1    1    2    0  503 -0.72831018694E+02  0.11941667907E+03 -0.42616911509E+03  0.48074298246E+03  0.17300000000E+03 0. -1.
<mgrwt>
<rscale>  2 0.22247180E+03</rscale>
<asrwt>0</asrwt>
<pdfrwt beam="1">  1       21 0.16753321E-01 0.22247180E+03</pdfrwt>
<pdfrwt beam="2">  1       21 0.93088186E-01 0.22247180E+03</pdfrwt>
<totfact> 0.30627416E+04</totfact>
</mgrwt>
</event>
<event>
 4    3  0.3905963E+000  0.2787068E+03  0.7546771E-02  0.1096397E+00
         21   -1    0    0  501  502  0.00000000000E+00  0.00000000000E+00  0.49162089243E+03  0.49162089243E+03  0.00000000000E+00 0. -1.
         21   -1    0    0  502  503 -0.00000000000E+00 -0.00000000000E+00 -0.65018556778E+03  0.65018556778E+03  0.00000000000E+00 0.  1.
          6    1    1    2  501    0  0.11941654868E+03 -0.18299765547E+03  0.41743241714E+03  0.50192357674E+03  0.17300000000E+03 0. -1.
         -6    1    1    2    0  503 -0.11941654868E+03  0.18299765547E+03 -0.57599709249E+03  0.63988288347E+03  0.17300000000E+03 0.  1.
<mgrwt>
<rscale>  2 0.27870675E+03</rscale>
<asrwt>0</asrwt>
<pdfrwt beam="1">  1       21 0.75633984E-01 0.27870675E+03</pdfrwt>
<pdfrwt beam="2">  1       21 0.10002855E+00 0.27870675E+03</pdfrwt>
<totfact> 0.11923671E+03</totfact>
</mgrwt>
</event>
<event>
 4    3  0.3905963E+000  0.1798044E+03  0.7546771E-02  0.1167992E+00
         21   -1    0    0  501  502  0.00000000000E+00  0.00000000000E+00  0.33665900078E+02  0.33665900078E+02  0.00000000000E+00 0.  1.
         21   -1    0    0  502  503 -0.00000000000E+00 -0.00000000000E+00 -0.13286511600E+04  0.13286511600E+04  0.00000000000E+00 0.  1.
          6    1    1    2  501    0 -0.20642803301E+02  0.44435496513E+02 -0.28884420953E+03  0.34023611810E+03  0.17300000000E+03 0. -1.
         -6    1    1    2    0  503  0.20642803301E+02 -0.44435496513E+02 -0.10061410504E+04  0.10220809420E+04  0.17300000000E+03 0. -1.
<mgrwt>
<rscale>  2 0.17980445E+03</rscale>
<asrwt>0</asrwt>
<pdfrwt beam="1">  1       21 0.51793694E-02 0.17980445E+03</pdfrwt>
<pdfrwt beam="2">  1       21 0.20440786E+00 0.17980445E+03</pdfrwt>
<totfact> 0.32184430E+04</totfact>
</mgrwt>
</event>
<event>
 4    3  0.3905963E+000  0.2033442E+03  0.7546771E-02  0.1146948E+00
         21   -1    0    0  501  502  0.00000000000E+00  0.00000000000E+00  0.40961722664E+02  0.40961722664E+02  0.00000000000E+00 0. -1.
         21   -1    0    0  502  503 -0.00000000000E+00 -0.00000000000E+00 -0.10099560076E+04  0.10099560076E+04  0.00000000000E+00 0.  1.
          6    1    1    2  501    0  0.69926984147E+00  0.10686154215E+03 -0.47275464203E+03  0.51463174186E+03  0.17300000000E+03 0.  1.
         -6    1    1    2    0  503 -0.69926984147E+00 -0.10686154215E+03 -0.49623964292E+03  0.53628598841E+03  0.17300000000E+03 0. -1.
<mgrwt>
<rscale>  2 0.20334424E+03</rscale>
<asrwt>0</asrwt>
<pdfrwt beam="1">  1       21 0.63018039E-02 0.20334424E+03</pdfrwt>
<pdfrwt beam="2">  1       21 0.15537784E+00 0.20334424E+03</pdfrwt>
<totfact> 0.49055623E+04</totfact>
</mgrwt>
</event>
<event>
 4    3  0.3905963E+000  0.2019362E+03  0.7546771E-02  0.1148116E+00
         21   -1    0    0  503  502  0.00000000000E+00  0.00000000000E+00  0.15942649632E+03  0.15942649632E+03  0.00000000000E+00 0.  1.
         21   -1    0    0  501  503 -0.00000000000E+00 -0.00000000000E+00 -0.53445030025E+03  0.53445030025E+03  0.00000000000E+00 0.  1.
          6    1    1    2  501    0  0.96734214821E+02  0.38622634481E+02 -0.43803254992E+03  0.48233881349E+03  0.17300000000E+03 0.  1.
         -6    1    1    2    0  502 -0.96734214821E+02 -0.38622634481E+02  0.63008745988E+02  0.21153798307E+03  0.17300000000E+03 0.  1.
<mgrwt>
<rscale>  2 0.20193617E+03</rscale>
<asrwt>0</asrwt>
<pdfrwt beam="1">  1       21 0.24527153E-01 0.20193617E+03</pdfrwt>
<pdfrwt beam="2">  1       21 0.82223124E-01 0.20193617E+03</pdfrwt>
<totfact> 0.20189013E+04</totfact>
</mgrwt>
</event>
<event>
 4    3  0.3905963E+000  0.2602658E+03  0.7546771E-02  0.1106984E+00
         21   -1    0    0  501  502  0.00000000000E+00  0.00000000000E+00  0.44195808629E+03  0.44195808629E+03  0.00000000000E+00 0. -1.
         21   -1    0    0  502  503 -0.00000000000E+00 -0.00000000000E+00 -0.17192835828E+03  0.17192835828E+03  0.00000000000E+00 0. -1.
          6    1    1    2  501    0  0.67888617132E+01  0.19432752885E+03  0.23613504173E+03  0.35142287211E+03  0.17300000000E+03 0. -1.
         -6    1    1    2    0  503 -0.67888617132E+01 -0.19432752885E+03  0.33894686283E+02  0.26246357247E+03  0.17300000000E+03 0. -1.
<mgrwt>
<rscale>  2 0.26026578E+03</rscale>
<asrwt>0</asrwt>
<pdfrwt beam="1">  1       21 0.67993552E-01 0.26026578E+03</pdfrwt>
<pdfrwt beam="2">  1       21 0.26450517E-01 0.26026578E+03</pdfrwt>
<totfact> 0.25948038E+04</totfact>
</mgrwt>
</event>
<event>
 4    3  0.3905963E+000  0.1739645E+03  0.7546771E-02  0.1173775E+00
         21   -1    0    0  501  502  0.00000000000E+00  0.00000000000E+00  0.12032094779E+03  0.12032094779E+03  0.00000000000E+00 0.  1.
         21   -1    0    0  502  503 -0.00000000000E+00 -0.00000000000E+00 -0.27104932949E+03  0.27104932949E+03  0.00000000000E+00 0.  1.
          6    1    1    2  501    0 -0.11748825320E+02  0.14022315447E+02 -0.22843811343E+02  0.17545797201E+03  0.17300000000E+03 0. -1.
         -6    1    1    2    0  503  0.11748825320E+02 -0.14022315447E+02 -0.12788457036E+03  0.21591230526E+03  0.17300000000E+03 0. -1.
<mgrwt>
<rscale>  2 0.17396454E+03</rscale>
<asrwt>0</asrwt>
<pdfrwt beam="1">  1       21 0.18510915E-01 0.17396454E+03</pdfrwt>
<pdfrwt beam="2">  1       21 0.41699897E-01 0.17396454E+03</pdfrwt>
<totfact> 0.14849565E+05</totfact>
</mgrwt>
</event>
<event>
 4    3  0.3905963E+000  0.2162626E+03  0.7546771E-02  0.1136701E+00
         21   -1    0    0  503  502  0.00000000000E+00  0.00000000000E+00  0.11981179810E+03  0.11981179810E+03  0.00000000000E+00 0. -1.
         21   -1    0    0  501  503 -0.00000000000E+00 -0.00000000000E+00 -0.47354337167E+03  0.47354337167E+03  0.00000000000E+00 0. -1.
          6    1    1    2  501    0  0.22606803938E+02 -0.12778665462E+03 -0.30121077159E+03  0.37080645303E+03  0.17300000000E+03 0. -1.
         -6    1    1    2    0  502 -0.22606803938E+02  0.12778665462E+03 -0.52520801973E+02  0.22254871674E+03  0.17300000000E+03 0. -1.
<mgrwt>
<rscale>  2 0.21626256E+03</rscale>
<asrwt>0</asrwt>
<pdfrwt beam="1">  1       21 0.18432584E-01 0.21626256E+03</pdfrwt>
<pdfrwt beam="2">  1       21 0.72852827E-01 0.21626256E+03</pdfrwt>
<totfact> 0.45040853E+04</totfact>
</mgrwt>
</event>
<event>
 4    3  0.3905963E+000  0.1773014E+03  0.7546771E-02  0.1170441E+00
         21   -1    0    0  503  502  0.00000000000E+00  0.00000000000E+00  0.86654722506E+03  0.86654722506E+03  0.00000000000E+00 0. -1.
         21   -1    0    0  501  503 -0.00000000000E+00 -0.00000000000E+00 -0.37232241870E+02  0.37232241870E+02  0.00000000000E+00 0. -1.
          6    1    1    2  501    0  0.30882010417E+02  0.23517592232E+02  0.48703748356E+03  0.51830617023E+03  0.17300000000E+03 0.  1.
         -6    1    1    2    0  502 -0.30882010417E+02 -0.23517592232E+02  0.34227749964E+03  0.38547329670E+03  0.17300000000E+03 0.  1.
<mgrwt>
<rscale>  2 0.17730137E+03</rscale>
<asrwt>0</asrwt>
<pdfrwt beam="1">  1       21 0.13331494E+00 0.17730137E+03</pdfrwt>
<pdfrwt beam="2">  1       21 0.57280379E-02 0.17730137E+03</pdfrwt>
<totfact> 0.87197024E+04</totfact>
</mgrwt>
</event>
<event>
 4    3  0.3905963E+000  0.3398823E+03  0.7546771E-02  0.1066846E+00
         21   -1    0    0  501  502  0.00000000000E+00  0.00000000000E+00  0.84901671476E+03  0.84901671476E+03  0.00000000000E+00 0.  1.
         21   -1    0    0  502  503 -0.00000000000E+00 -0.00000000000E+00 -0.16349982435E+03  0.16349982435E+03  0.00000000000E+00 0.  1.
          6    1    1    2  501    0 -0.26906476429E+03  0.11487008424E+03  0.55014391921E+03  0.64666708241E+03  0.17300000000E+03 0.  1.
         -6    1    1    2    0  503  0.26906476429E+03 -0.11487008424E+03  0.13537297120E+03  0.36584945670E+03  0.17300000000E+03 0.  1.
<mgrwt>
<rscale>  2 0.33988231E+03</rscale>
<asrwt>0</asrwt>
<pdfrwt beam="1">  1       21 0.13061795E+00 0.33988231E+03</pdfrwt>
<pdfrwt beam="2">  1       21 0.25153820E-01 0.33988231E+03</pdfrwt>
<totfact> 0.58498324E+03</totfact>
</mgrwt>
</event>
<event>
 4    3  0.3905963E+000  0.2978155E+03  0.7546771E-02  0.1086338E+00
         21   -1    0    0  503  502  0.00000000000E+00  0.00000000000E+00  0.70890084447E+03  0.70890084447E+03  0.00000000000E+00 0. -1.
         21   -1    0    0  501  503 -0.00000000000E+00 -0.00000000000E+00 -0.15138259041E+03  0.15138259041E+03  0.00000000000E+00 0.  1.
          6    1    1    2  501    0  0.75958406303E+02 -0.23020725927E+03  0.45793705204E+03  0.54626038237E+03  0.17300000000E+03 0. -1.
         -6    1    1    2    0  502 -0.75958406303E+02  0.23020725927E+03  0.99581202020E+02  0.31402305251E+03  0.17300000000E+03 0.  1.
<mgrwt>
<rscale>  2 0.29781548E+03</rscale>
<asrwt>0</asrwt>
<pdfrwt beam="1">  1       21 0.10906167E+00 0.29781548E+03</pdfrwt>
<pdfrwt beam="2">  1       21 0.23289630E-01 0.29781548E+03</pdfrwt>
<totfact> 0.10877640E+04</totfact>
</mgrwt>
</event>
<event>
 4    3  0.3905963E+000  0.2361940E+03  0.7546771E-02  0.1122355E+00
         21   -1    0    0  501  502  0.00000000000E+00  0.00000000000E+00  0.36761799755E+03  0.36761799755E+03  0.00000000000E+00 0.  1.
         21   -1    0    0  502  503 -0.00000000000E+00 -0.00000000000E+00 -0.27913341922E+03  0.27913341922E+03  0.00000000000E+00 0. -1.
          6    1    1    2  501    0  0.71094303368E+02  0.14423655031E+03  0.26269162709E+03  0.35326261246E+03  0.17300000000E+03 0.  1.
         -6    1    1    2    0  503 -0.71094303368E+02 -0.14423655031E+03 -0.17420704877E+03  0.29348880431E+03  0.17300000000E+03 0. -1.
<mgrwt>
<rscale>  2 0.23619395E+03</rscale>
<asrwt>0</asrwt>
<pdfrwt beam="1">  1       21 0.56556615E-01 0.23619395E+03</pdfrwt>
<pdfrwt beam="2">  1       21 0.42943603E-01 0.23619395E+03</pdfrwt>
<totfact> 0.14938290E+04</totfact>
</mgrwt>
</event>
<event>
 4    3  0.3905963E+000  0.1773620E+03  0.7546771E-02  0.1170381E+00
         21   -1    0    0  503  502  0.00000000000E+00  0.00000000000E+00  0.66531716127E+02  0.66531716127E+02  0.00000000000E+00 0. -1.
         21   -1    0    0  501  503 -0.00000000000E+00 -0.00000000000E+00 -0.55765714933E+03  0.55765714933E+03  0.00000000000E+00 0. -1.
          6    1    1    2  501    0  0.38183038564E+02 -0.83861667700E+01 -0.36729483550E+03  0.40787592281E+03  0.17300000000E+03 0.  1.
         -6    1    1    2    0  502 -0.38183038564E+02  0.83861667700E+01 -0.12383059770E+03  0.21631294264E+03  0.17300000000E+03 0.  1.
<mgrwt>
<rscale>  2 0.17736198E+03</rscale>
<asrwt>0</asrwt>
<pdfrwt beam="1">  1       21 0.10235648E-01 0.17736198E+03</pdfrwt>
<pdfrwt beam="2">  1       21 0.85793409E-01 0.17736198E+03</pdfrwt>
<totfact> 0.91921937E+04</totfact>
</mgrwt>
</event>
<event>
 4    3  0.3905963E+000  0.2423086E+03  0.7546771E-02  0.1118264E+00
         21   -1    0    0  501  502  0.00000000000E+00  0.00000000000E+00  0.10591210699E+04  0.10591210699E+04  0.00000000000E+00 0. -1.
         21   -1    0    0  502  503 -0.00000000000E+00 -0.00000000000E+00 -0.26100551098E+03  0.26100551098E+03  0.00000000000E+00 0.  1.
          6    1    1    2  501    0 -0.35120581555E+02 -0.16598489237E+03  0.98484526399E+03  0.10142157728E+04  0.17300000000E+03 0. -1.
         -6    1    1    2    0  503  0.35120581555E+02  0.16598489237E+03 -0.18672970508E+03  0.30591080808E+03  0.17300000000E+03 0.  1.
<mgrwt>
<rscale>  2 0.24230856E+03</rscale>
<asrwt>0</asrwt>
<pdfrwt beam="1">  1       21 0.16294170E+00 0.24230856E+03</pdfrwt>
<pdfrwt beam="2">  1       21 0.40154695E-01 0.24230856E+03</pdfrwt>
<totfact> 0.13673164E+03</totfact>
</mgrwt>
</event>
<event>
 4    3  0.3905963E+000  0.1761432E+03  0.7546771E-02  0.1171589E+00
         21   -1    0    0  501  502  0.00000000000E+00  0.00000000000E+00  0.25707870387E+03  0.25707870387E+03  0.00000000000E+00 0. -1.
         21   -1    0    0  502  503 -0.00000000000E+00 -0.00000000000E+00 -0.15332204230E+03  0.15332204230E+03  0.00000000000E+00 0. -1.
          6    1    1    2  501    0 -0.24201148200E+02  0.22621563691E+02  0.14654743750E+03  0.22913441940E+03  0.17300000000E+03 0. -1.
         -6    1    1    2    0  503  0.24201148200E+02 -0.22621563691E+02 -0.42790775926E+02  0.18126632677E+03  0.17300000000E+03 0. -1.
<mgrwt>
<rscale>  2 0.17614321E+03</rscale>
<asrwt>0</asrwt>
<pdfrwt beam="1">  1       21 0.39550570E-01 0.17614321E+03</pdfrwt>
<pdfrwt beam="2">  1       21 0.23588007E-01 0.17614321E+03</pdfrwt>
<totfact> 0.10490805E+05</totfact>
</mgrwt>
</event>
<event>
 4    3  0.3905963E+000  0.1956866E+03  0.7546771E-02  0.1153430E+00
         21   -1    0    0  501  502  0.00000000000E+00  0.00000000000E+00  0.15952849813E+03  0.15952849813E+03  0.00000000000E+00 0. -1.
         21   -1    0    0  502  503 -0.00000000000E+00 -0.00000000000E+00 -0.19566418580E+04  0.19566418580E+04  0.00000000000E+00 0. -1.
          6    1    1    2  501    0  0.18228024276E+02 -0.89621292214E+02  0.92502838497E+02  0.21644863598E+03  0.17300000000E+03 0. -1.
         -6    1    1    2    0  503 -0.18228024276E+02  0.89621292214E+02 -0.18896161984E+04  0.18997217202E+04  0.17300000000E+03 0. -1.
<mgrwt>
<rscale>  2 0.19568658E+03</rscale>
<asrwt>0</asrwt>
<pdfrwt beam="1">  1       21 0.24542847E-01 0.19568658E+03</pdfrwt>
<pdfrwt beam="2">  1       21 0.30102181E+00 0.19568658E+03</pdfrwt>
<totfact> 0.52608493E+02</totfact>
</mgrwt>
</event>
<event>
 4    3  0.3905963E+000  0.2104492E+03  0.7546771E-02  0.1141211E+00
         21   -1    0    0  501  502  0.00000000000E+00  0.00000000000E+00  0.35657603260E+03  0.35657603260E+03  0.00000000000E+00 0.  1.
         21   -1    0    0  502  503 -0.00000000000E+00 -0.00000000000E+00 -0.15955967358E+03  0.15955967358E+03  0.00000000000E+00 0. -1.
          6    1    1    2  501    0 -0.89362387365E+02  0.79838838024E+02  0.21998396695E+03  0.30443689337E+03  0.17300000000E+03 0.  1.
         -6    1    1    2    0  503  0.89362387365E+02 -0.79838838024E+02 -0.22967607927E+02  0.21169881281E+03  0.17300000000E+03 0.  1.
<mgrwt>
<rscale>  2 0.21044923E+03</rscale>
<asrwt>0</asrwt>
<pdfrwt beam="1">  1       21 0.54857851E-01 0.21044923E+03</pdfrwt>
<pdfrwt beam="2">  1       21 0.24547642E-01 0.21044923E+03</pdfrwt>
<totfact> 0.48763436E+04</totfact>
</mgrwt>
</event>
<event>
 4    3  0.3905963E+000  0.2401855E+03  0.7546771E-02  0.1119669E+00
         21   -1    0    0  503  502  0.00000000000E+00  0.00000000000E+00  0.70159198404E+03  0.70159198404E+03  0.00000000000E+00 0. -1.
         21   -1    0    0  501  503 -0.00000000000E+00 -0.00000000000E+00 -0.14806093907E+03  0.14806093907E+03  0.00000000000E+00 0. -1.
          6    1    1    2  501    0 -0.16587170197E+03 -0.15704523764E+02 -0.65169858870E+01  0.24027385352E+03  0.17300000000E+03 0. -1.
         -6    1    1    2    0  502  0.16587170197E+03  0.15704523764E+02  0.56004803086E+03  0.60937906959E+03  0.17300000000E+03 0. -1.
<mgrwt>
<rscale>  2 0.24018546E+03</rscale>
<asrwt>0</asrwt>
<pdfrwt beam="1">  1       21 0.10793723E+00 0.24018546E+03</pdfrwt>
<pdfrwt beam="2">  1       21 0.22778606E-01 0.24018546E+03</pdfrwt>
<totfact> 0.11989021E+04</totfact>
</mgrwt>
</event>
<event>
 4    3  0.3905963E+000  0.1757529E+03  0.7546771E-02  0.1171978E+00
         21   -1    0    0  501  502  0.00000000000E+00  0.00000000000E+00  0.30365573645E+03  0.30365573645E+03  0.00000000000E+00 0.  1.
         21   -1    0    0  502  503 -0.00000000000E+00 -0.00000000000E+00 -0.13276407381E+03  0.13276407381E+03  0.00000000000E+00 0.  1.
          6    1    1    2  501    0  0.30512853814E+02 -0.53894783016E+01  0.19095627332E+03  0.25952529558E+03  0.17300000000E+03 0.  1.
         -6    1    1    2    0  503 -0.30512853814E+02  0.53894783016E+01 -0.20064610674E+02  0.17689451469E+03  0.17300000000E+03 0.  1.
<mgrwt>
<rscale>  2 0.17575290E+03</rscale>
<asrwt>0</asrwt>
<pdfrwt beam="1">  1       21 0.46716267E-01 0.17575290E+03</pdfrwt>
<pdfrwt beam="2">  1       21 0.20425242E-01 0.17575290E+03</pdfrwt>
<totfact> 0.97996171E+04</totfact>
</mgrwt>
</event>
<event>
 4    3  0.3905963E+000  0.1770407E+03  0.7546771E-02  0.1170698E+00
         21   -1    0    0  503  502  0.00000000000E+00  0.00000000000E+00  0.52981124285E+02  0.52981124285E+02  0.00000000000E+00 0.  1.
         21   -1    0    0  501  503 -0.00000000000E+00 -0.00000000000E+00 -0.81293177328E+03  0.81293177328E+03  0.00000000000E+00 0.  1.
          6    1    1    2  501    0  0.31396298243E+02 -0.20704479759E+02 -0.60588940833E+03  0.63122529904E+03  0.17300000000E+03 0.  1.
         -6    1    1    2    0  502 -0.31396298243E+02  0.20704479759E+02 -0.15406124067E+03  0.23468759853E+03  0.17300000000E+03 0.  1.
<mgrwt>
<rscale>  2 0.17704068E+03</rscale>
<asrwt>0</asrwt>
<pdfrwt beam="1">  1       21 0.81509430E-02 0.17704068E+03</pdfrwt>
<pdfrwt beam="2">  1       21 0.12506641E+00 0.17704068E+03</pdfrwt>
<totfact> 0.55783725E+04</totfact>
</mgrwt>
</event>
<event>
 4    3  0.3905963E+000  0.1877389E+03  0.7546771E-02  0.1160517E+00
         21   -1    0    0  503  502  0.00000000000E+00  0.00000000000E+00  0.51316188357E+02  0.51316188357E+02  0.00000000000E+00 0.  1.
         21   -1    0    0  501  503 -0.00000000000E+00 -0.00000000000E+00 -0.78671387017E+03  0.78671387017E+03  0.00000000000E+00 0.  1.
          6    1    1    2  501    0 -0.23977271761E+02  0.68862119207E+02 -0.21840159778E+03  0.28800201203E+03  0.17300000000E+03 0.  1.
         -6    1    1    2    0  502  0.23977271761E+02 -0.68862119207E+02 -0.51699608403E+03  0.55002804649E+03  0.17300000000E+03 0.  1.
<mgrwt>
<rscale>  2 0.18773892E+03</rscale>
<asrwt>0</asrwt>
<pdfrwt beam="1">  1       21 0.78947986E-02 0.18773892E+03</pdfrwt>
<pdfrwt beam="2">  1       21 0.12103290E+00 0.18773892E+03</pdfrwt>
<totfact> 0.63636813E+04</totfact>
</mgrwt>
</event>
<event>
 4    3  0.3905963E+000  0.1975943E+03  0.7546771E-02  0.1151785E+00
         21   -1    0    0  501  502  0.00000000000E+00  0.00000000000E+00  0.26239607439E+03  0.26239607439E+03  0.00000000000E+00 0. -1.
         21   -1    0    0  502  503 -0.00000000000E+00 -0.00000000000E+00 -0.15113831818E+03  0.15113831818E+03  0.00000000000E+00 0. -1.
          6    1    1    2  501    0 -0.47407536777E+02  0.82867445234E+02  0.81369360205E+02  0.21369244442E+03  0.17300000000E+03 0. -1.
         -6    1    1    2    0  503  0.47407536777E+02 -0.82867445234E+02  0.29888396014E+02  0.19984194815E+03  0.17300000000E+03 0. -1.
<mgrwt>
<rscale>  2 0.19759425E+03</rscale>
<asrwt>0</asrwt>
<pdfrwt beam="1">  1       21 0.40368627E-01 0.19759425E+03</pdfrwt>
<pdfrwt beam="2">  1       21 0.23252049E-01 0.19759425E+03</pdfrwt>
<totfact> 0.10259830E+05</totfact>
</mgrwt>
</event>
<event>
 4    3  0.3905963E+000  0.1738561E+03  0.7546771E-02  0.1173885E+00
         21   -1    0    0  501  502  0.00000000000E+00  0.00000000000E+00  0.89823423792E+03  0.89823423792E+03  0.00000000000E+00 0.  1.
         21   -1    0    0  502  503 -0.00000000000E+00 -0.00000000000E+00 -0.39313985479E+02  0.39313985479E+02  0.00000000000E+00 0. -1.
          6    1    1    2  501    0 -0.45668313670E+01  0.16616143184E+02  0.60738446208E+03  0.63177673030E+03  0.17300000000E+03 0.  1.
         -6    1    1    2    0  503  0.45668313670E+01 -0.16616143184E+02  0.25153579035E+03  0.30577149310E+03  0.17300000000E+03 0. -1.
<mgrwt>
<rscale>  2 0.17385612E+03</rscale>
<asrwt>0</asrwt>
<pdfrwt beam="1">  1       21 0.13818987E+00 0.17385612E+03</pdfrwt>
<pdfrwt beam="2">  1       21 0.60483061E-02 0.17385612E+03</pdfrwt>
<totfact> 0.72654919E+04</totfact>
</mgrwt>
</event>
<event>
 4    3  0.3905963E+000  0.2036674E+03  0.7546771E-02  0.1146681E+00
         21   -1    0    0  503  502  0.00000000000E+00  0.00000000000E+00  0.29164137962E+03  0.29164137962E+03  0.00000000000E+00 0. -1.
         21   -1    0    0  501  503 -0.00000000000E+00 -0.00000000000E+00 -0.19950584063E+03  0.19950584063E+03  0.00000000000E+00 0. -1.
          6    1    1    2  501    0 -0.87688718653E+01 -0.10711918688E+03 -0.85511128589E+02  0.22089039459E+03  0.17300000000E+03 0. -1.
         -6    1    1    2    0  502  0.87688718653E+01  0.10711918688E+03  0.17764666758E+03  0.27025682565E+03  0.17300000000E+03 0. -1.
<mgrwt>
<rscale>  2 0.20366741E+03</rscale>
<asrwt>0</asrwt>
<pdfrwt beam="1">  1       21 0.44867905E-01 0.20366741E+03</pdfrwt>
<pdfrwt beam="2">  1       21 0.30693206E-01 0.20366741E+03</pdfrwt>
<totfact> 0.48324178E+04</totfact>
</mgrwt>
</event>
<event>
 4    3  0.3905963E+000  0.3249473E+03  0.7546771E-02  0.1073395E+00
         21   -1    0    0  501  502  0.00000000000E+00  0.00000000000E+00  0.85577636378E+03  0.85577636378E+03  0.00000000000E+00 0.  1.
         21   -1    0    0  502  503 -0.00000000000E+00 -0.00000000000E+00 -0.12338588129E+03  0.12338588129E+03  0.00000000000E+00 0. -1.
          6    1    1    2  501    0 -0.60488287197E+02 -0.26833353078E+03  0.36629292101E+03  0.48965418471E+03  0.17300000000E+03 0.  1.
         -6    1    1    2    0  503  0.60488287197E+02  0.26833353078E+03  0.36609756148E+03  0.48950806035E+03  0.17300000000E+03 0. -1.
<mgrwt>
<rscale>  2 0.32494725E+03</rscale>
<asrwt>0</asrwt>
<pdfrwt beam="1">  1       21 0.13165790E+00 0.32494725E+03</pdfrwt>
<pdfrwt beam="2">  1       21 0.18982444E-01 0.32494725E+03</pdfrwt>
<totfact> 0.98729384E+03</totfact>
</mgrwt>
</event>
<event>
 4    3  0.3905963E+000  0.2063162E+03  0.7546771E-02  0.1144517E+00
         21   -1    0    0  503  502  0.00000000000E+00  0.00000000000E+00  0.27424455576E+03  0.27424455576E+03  0.00000000000E+00 0.  1.
         21   -1    0    0  501  503 -0.00000000000E+00 -0.00000000000E+00 -0.23328216826E+03  0.23328216826E+03  0.00000000000E+00 0.  1.
          6    1    1    2  501    0 -0.10831521758E+03  0.30086166395E+02 -0.12631928860E+03  0.24191512239E+03  0.17300000000E+03 0.  1.
         -6    1    1    2    0  502  0.10831521758E+03 -0.30086166395E+02  0.16728167610E+03  0.26561160164E+03  0.17300000000E+03 0.  1.
<mgrwt>
<rscale>  2 0.20631617E+03</rscale>
<asrwt>0</asrwt>
<pdfrwt beam="1">  1       21 0.42191470E-01 0.20631617E+03</pdfrwt>
<pdfrwt beam="2">  1       21 0.35889564E-01 0.20631617E+03</pdfrwt>
<totfact> 0.40188894E+04</totfact>
</mgrwt>
</event>
<event>
 4    3  0.3905963E+000  0.2131321E+03  0.7546771E-02  0.1139109E+00
         21   -1    0    0  503  502  0.00000000000E+00  0.00000000000E+00  0.56281887784E+02  0.56281887784E+02  0.00000000000E+00 0. -1.
         21   -1    0    0  501  503 -0.00000000000E+00 -0.00000000000E+00 -0.10141362036E+04  0.10141362036E+04  0.00000000000E+00 0.  1.
          6    1    1    2  501    0  0.12049441130E+03  0.31262989747E+02 -0.72074890519E+03  0.75160113226E+03  0.17300000000E+03 0.  1.
         -6    1    1    2    0  502 -0.12049441130E+03 -0.31262989747E+02 -0.23710541065E+03  0.31881695915E+03  0.17300000000E+03 0. -1.
<mgrwt>
<rscale>  2 0.21313207E+03</rscale>
<asrwt>0</asrwt>
<pdfrwt beam="1">  1       21 0.86587519E-02 0.21313207E+03</pdfrwt>
<pdfrwt beam="2">  1       21 0.15602096E+00 0.21313207E+03</pdfrwt>
<totfact> 0.27787317E+04</totfact>
</mgrwt>
</event>
<event>
 4    3  0.3905963E+000  0.2133716E+03  0.7546771E-02  0.1138924E+00
         21   -1    0    0  501  502  0.00000000000E+00  0.00000000000E+00  0.39614143524E+02  0.39614143524E+02  0.00000000000E+00 0. -1.
         21   -1    0    0  502  503 -0.00000000000E+00 -0.00000000000E+00 -0.14646781986E+04  0.14646781986E+04  0.00000000000E+00 0. -1.
          6    1    1    2  501    0  0.12204641823E+03  0.26516010232E+02 -0.36349923312E+03  0.42149628644E+03  0.17300000000E+03 0. -1.
         -6    1    1    2    0  503 -0.12204641823E+03 -0.26516010232E+02 -0.10615648220E+04  0.10827960557E+04  0.17300000000E+03 0. -1.
<mgrwt>
<rscale>  2 0.21337157E+03</rscale>
<asrwt>0</asrwt>
<pdfrwt beam="1">  1       21 0.60944844E-02 0.21337157E+03</pdfrwt>
<pdfrwt beam="2">  1       21 0.22533508E+00 0.21337157E+03</pdfrwt>
<totfact> 0.17619620E+04</totfact>
</mgrwt>
</event>
<event>
 4    3  0.3905963E+000  0.1986660E+03  0.7546771E-02  0.1150869E+00
         21   -1    0    0  501  502  0.00000000000E+00  0.00000000000E+00  0.13412090188E+04  0.13412090188E+04  0.00000000000E+00 0. -1.
         21   -1    0    0  502  503 -0.00000000000E+00 -0.00000000000E+00 -0.11842958870E+03  0.11842958870E+03  0.00000000000E+00 0.  1.
          6    1    1    2  501    0 -0.27691778310E+02 -0.93660704420E+02  0.12440722114E+04  0.12598348421E+04  0.17300000000E+03 0. -1.
         -6    1    1    2    0  503  0.27691778310E+02  0.93660704420E+02 -0.21292781310E+02  0.19980376542E+03  0.17300000000E+03 0.  1.
<mgrwt>
<rscale>  2 0.19866596E+03</rscale>
<asrwt>0</asrwt>
<pdfrwt beam="1">  1       21 0.20633984E+00 0.19866596E+03</pdfrwt>
<pdfrwt beam="2">  1       21 0.18219938E-01 0.19866596E+03</pdfrwt>
<totfact> 0.33390510E+03</totfact>
</mgrwt>
</event>
<event>
 4    3  0.3905963E+000  0.1846966E+03  0.7546771E-02  0.1163333E+00
         21   -1    0    0  503  502  0.00000000000E+00  0.00000000000E+00  0.11114882871E+03  0.11114882871E+03  0.00000000000E+00 0.  1.
         21   -1    0    0  501  503 -0.00000000000E+00 -0.00000000000E+00 -0.35503155616E+03  0.35503155616E+03  0.00000000000E+00 0.  1.
          6    1    1    2  501    0 -0.51149592025E+02  0.39592494792E+02 -0.20775452137E+03  0.27798343037E+03  0.17300000000E+03 0.  1.
         -6    1    1    2    0  502  0.51149592025E+02 -0.39592494792E+02 -0.36128206080E+02  0.18819695450E+03  0.17300000000E+03 0.  1.
<mgrwt>
<rscale>  2 0.18469663E+03</rscale>
<asrwt>0</asrwt>
<pdfrwt beam="1">  1       21 0.17099819E-01 0.18469663E+03</pdfrwt>
<pdfrwt beam="2">  1       21 0.54620241E-01 0.18469663E+03</pdfrwt>
<totfact> 0.97983897E+04</totfact>
</mgrwt>
</event>
<event>
 4    3  0.3905963E+000  0.1843611E+03  0.7546771E-02  0.1163648E+00
         21   -1    0    0  501  502  0.00000000000E+00  0.00000000000E+00  0.17574279431E+03  0.17574279431E+03  0.00000000000E+00 0. -1.
         21   -1    0    0  502  503 -0.00000000000E+00 -0.00000000000E+00 -0.19835378051E+03  0.19835378051E+03  0.00000000000E+00 0. -1.
          6    1    1    2  501    0  0.51341847262E+02  0.37736461525E+02 -0.40859047468E+02  0.18883455078E+03  0.17300000000E+03 0. -1.
         -6    1    1    2    0  503 -0.51341847262E+02 -0.37736461525E+02  0.18248061271E+02  0.18526202403E+03  0.17300000000E+03 0. -1.
<mgrwt>
<rscale>  2 0.18436113E+03</rscale>
<asrwt>0</asrwt>
<pdfrwt beam="1">  1       21 0.27037353E-01 0.18436113E+03</pdfrwt>
<pdfrwt beam="2">  1       21 0.30515966E-01 0.18436113E+03</pdfrwt>
<totfact> 0.13472604E+05</totfact>
</mgrwt>
</event>
<event>
 4    3  0.3905963E+000  0.2615294E+03  0.7546771E-02  0.1106228E+00
         21   -1    0    0  501  502  0.00000000000E+00  0.00000000000E+00  0.50755835179E+03  0.50755835179E+03  0.00000000000E+00 0. -1.
         21   -1    0    0  502  503 -0.00000000000E+00 -0.00000000000E+00 -0.26613332097E+03  0.26613332097E+03  0.00000000000E+00 0.  1.
          6    1    1    2  501    0 -0.17775463355E+03 -0.82896965766E+02  0.39250971190E+03  0.47165823497E+03  0.17300000000E+03 0. -1.
         -6    1    1    2    0  503  0.17775463355E+03  0.82896965766E+02 -0.15108468108E+03  0.30203343778E+03  0.17300000000E+03 0.  1.
<mgrwt>
<rscale>  2 0.26152938E+03</rscale>
<asrwt>0</asrwt>
<pdfrwt beam="1">  1       21 0.78085900E-01 0.26152938E+03</pdfrwt>
<pdfrwt beam="2">  1       21 0.40943588E-01 0.26152938E+03</pdfrwt>
<totfact> 0.79887283E+03</totfact>
</mgrwt>
</event>
<event>
 4    3  0.3905963E+000  0.1772477E+03  0.7546771E-02  0.1170494E+00
         21   -1    0    0  501  502  0.00000000000E+00  0.00000000000E+00  0.86125488137E+03  0.86125488137E+03  0.00000000000E+00 0. -1.
         21   -1    0    0  502  503 -0.00000000000E+00 -0.00000000000E+00 -0.10305252521E+03  0.10305252521E+03  0.00000000000E+00 0. -1.
          6    1    1    2  501    0  0.22347703678E+01  0.38506393775E+02  0.76663595109E+03  0.78685921108E+03  0.17300000000E+03 0. -1.
         -6    1    1    2    0  503 -0.22347703678E+01 -0.38506393775E+02 -0.84335949275E+01  0.17744819549E+03  0.17300000000E+03 0. -1.
<mgrwt>
<rscale>  2 0.17724767E+03</rscale>
<asrwt>0</asrwt>
<pdfrwt beam="1">  1       21 0.13250075E+00 0.17724767E+03</pdfrwt>
<pdfrwt beam="2">  1       21 0.15854235E-01 0.17724767E+03</pdfrwt>
<totfact> 0.14763154E+04</totfact>
</mgrwt>
</event>
<event>
 4    3  0.3905963E+000  0.2042528E+03  0.7546771E-02  0.1146200E+00
         21   -1    0    0  501  502  0.00000000000E+00  0.00000000000E+00  0.26943137601E+03  0.26943137601E+03  0.00000000000E+00 0.  1.
         21   -1    0    0  502  503 -0.00000000000E+00 -0.00000000000E+00 -0.29810377243E+03  0.29810377243E+03  0.00000000000E+00 0.  1.
          6    1    1    2  501    0 -0.73337172024E+02  0.80074063571E+02  0.18238208947E+03  0.27382918584E+03  0.17300000000E+03 0.  1.
         -6    1    1    2    0  503  0.73337172024E+02 -0.80074063571E+02 -0.21105448589E+03  0.29370596261E+03  0.17300000000E+03 0.  1.
<mgrwt>
<rscale>  2 0.20425278E+03</rscale>
<asrwt>0</asrwt>
<pdfrwt beam="1">  1       21 0.41450981E-01 0.20425278E+03</pdfrwt>
<pdfrwt beam="2">  1       21 0.45862118E-01 0.20425278E+03</pdfrwt>
<totfact> 0.25371070E+04</totfact>
</mgrwt>
</event>
<event>
 4    3  0.3905963E+000  0.1892369E+03  0.7546771E-02  0.1159151E+00
         21   -1    0    0  501  502  0.00000000000E+00  0.00000000000E+00  0.29714344033E+04  0.29714344033E+04  0.00000000000E+00 0. -1.
         21   -1    0    0  502  503 -0.00000000000E+00 -0.00000000000E+00 -0.12071927195E+02  0.12071927195E+02  0.00000000000E+00 0. -1.
          6    1    1    2  501    0 -0.76242976740E+02 -0.82828154841E+01  0.14184969480E+04  0.14310640056E+04  0.17300000000E+03 0. -1.
         -6    1    1    2    0  503  0.76242976740E+02  0.82828154841E+01  0.15408655281E+04  0.15524423249E+04  0.17300000000E+03 0. -1.
<mgrwt>
<rscale>  2 0.18923688E+03</rscale>
<asrwt>0</asrwt>
<pdfrwt beam="1">  1       21 0.45714317E+00 0.18923688E+03</pdfrwt>
<pdfrwt beam="2">  1       21 0.18572219E-02 0.18923688E+03</pdfrwt>
<totfact> 0.52027954E+03</totfact>
</mgrwt>
</event>
<event>
 4    3  0.3905963E+000  0.2378967E+03  0.7546771E-02  0.1121202E+00
         21   -1    0    0  503  502  0.00000000000E+00  0.00000000000E+00  0.11512331987E+04  0.11512331987E+04  0.00000000000E+00 0.  1.
         21   -1    0    0  501  503 -0.00000000000E+00 -0.00000000000E+00 -0.62061291782E+02  0.62061291782E+02  0.00000000000E+00 0. -1.
          6    1    1    2  501    0  0.14107831900E+03  0.82236027782E+02  0.26799432794E+03  0.35835152597E+03  0.17300000000E+03 0.  1.
         -6    1    1    2    0  502 -0.14107831900E+03 -0.82236027782E+02  0.82117757903E+03  0.85494296456E+03  0.17300000000E+03 0.  1.
<mgrwt>
<rscale>  2 0.23789673E+03</rscale>
<asrwt>0</asrwt>
<pdfrwt beam="1">  1       21 0.17711278E+00 0.23789673E+03</pdfrwt>
<pdfrwt beam="2">  1       21 0.95478919E-02 0.23789673E+03</pdfrwt>
<totfact> 0.16250883E+04</totfact>
</mgrwt>
</event>
<event>
 4    3  0.3905963E+000  0.2316245E+03  0.7546771E-02  0.1125502E+00
         21   -1    0    0  501  502  0.00000000000E+00  0.00000000000E+00  0.95334383137E+03  0.95334383137E+03  0.00000000000E+00 0.  1.
         21   -1    0    0  502  503 -0.00000000000E+00 -0.00000000000E+00 -0.64807388541E+02  0.64807388541E+02  0.00000000000E+00 0.  1.
          6    1    1    2  501    0 -0.15399718031E+03 -0.24036892990E+01  0.62897906407E+03  0.67027201367E+03  0.17300000000E+03 0.  1.
         -6    1    1    2    0  503  0.15399718031E+03  0.24036892990E+01  0.25955737875E+03  0.34787920624E+03  0.17300000000E+03 0.  1.
<mgrwt>
<rscale>  2 0.23162450E+03</rscale>
<asrwt>0</asrwt>
<pdfrwt beam="1">  1       21 0.14666827E+00 0.23162450E+03</pdfrwt>
<pdfrwt beam="2">  1       21 0.99703681E-02 0.23162450E+03</pdfrwt>
<totfact> 0.25255968E+04</totfact>
</mgrwt>
</event>
<event>
 4    3  0.3905963E+000  0.1943014E+03  0.7546771E-02  0.1154638E+00
         21   -1    0    0  503  502  0.00000000000E+00  0.00000000000E+00  0.32118690262E+03  0.32118690262E+03  0.00000000000E+00 0. -1.
         21   -1    0    0  501  503 -0.00000000000E+00 -0.00000000000E+00 -0.14446607154E+03  0.14446607154E+03  0.00000000000E+00 0. -1.
          6    1    1    2  501    0  0.17772026100E+02 -0.86649878486E+02  0.18887230223E+03  0.27097194117E+03  0.17300000000E+03 0. -1.
         -6    1    1    2    0  502 -0.17772026100E+02  0.86649878486E+02 -0.12151471150E+02  0.19468103299E+03  0.17300000000E+03 0. -1.
<mgrwt>
<rscale>  2 0.19430143E+03</rscale>
<asrwt>0</asrwt>
<pdfrwt beam="1">  1       21 0.49413369E-01 0.19430143E+03</pdfrwt>
<pdfrwt beam="2">  1       21 0.22225550E-01 0.19430143E+03</pdfrwt>
<totfact> 0.73898333E+04</totfact>
</mgrwt>
</event>
<event>
 4    3  0.3905963E+000  0.2058103E+03  0.7546771E-02  0.1144927E+00
         21   -1    0    0  503  502  0.00000000000E+00  0.00000000000E+00  0.36523923136E+03  0.36523923136E+03  0.00000000000E+00 0.  1.
         21   -1    0    0  501  503 -0.00000000000E+00 -0.00000000000E+00 -0.16678257205E+03  0.16678257205E+03  0.00000000000E+00 0.  1.
          6    1    1    2  501    0 -0.15131108338E+02  0.11045328485E+03 -0.47595651801E+02  0.21124209960E+03  0.17300000000E+03 0.  1.
         -6    1    1    2    0  502  0.15131108338E+02 -0.11045328485E+03  0.24605231110E+03  0.32077970381E+03  0.17300000000E+03 0.  1.
<mgrwt>
<rscale>  2 0.20581030E+03</rscale>
<asrwt>0</asrwt>
<pdfrwt beam="1">  1       21 0.56190651E-01 0.20581030E+03</pdfrwt>
<pdfrwt beam="2">  1       21 0.25658857E-01 0.20581030E+03</pdfrwt>
<totfact> 0.42672778E+04</totfact>
</mgrwt>
</event>
<event>
 4    3  0.3905963E+000  0.2245181E+03  0.7546771E-02  0.1130559E+00
         21   -1    0    0  501  502  0.00000000000E+00  0.00000000000E+00  0.24733517808E+03  0.24733517808E+03  0.00000000000E+00 0. -1.
         21   -1    0    0  502  503 -0.00000000000E+00 -0.00000000000E+00 -0.20534461886E+03  0.20534461886E+03  0.00000000000E+00 0.  1.
          6    1    1    2  501    0  0.85557063468E+02 -0.11471437635E+03  0.40587406535E+02  0.22815726335E+03  0.17300000000E+03 0. -1.
         -6    1    1    2    0  503 -0.85557063468E+02  0.11471437635E+03  0.14031526834E+01  0.22452253359E+03  0.17300000000E+03 0.  1.
<mgrwt>
<rscale>  2 0.22451815E+03</rscale>
<asrwt>0</asrwt>
<pdfrwt beam="1">  1       21 0.38051566E-01 0.22451815E+03</pdfrwt>
<pdfrwt beam="2">  1       21 0.31591480E-01 0.22451815E+03</pdfrwt>
<totfact> 0.63258524E+04</totfact>
</mgrwt>
</event>
<event>
 4    3  0.3905963E+000  0.1864127E+03  0.7546771E-02  0.1161737E+00
         21   -1    0    0  501  502  0.00000000000E+00  0.00000000000E+00  0.11039917161E+04  0.11039917161E+04  0.00000000000E+00 0. -1.
         21   -1    0    0  502  503 -0.00000000000E+00 -0.00000000000E+00 -0.65665397149E+02  0.65665397149E+02  0.00000000000E+00 0. -1.
          6    1    1    2  501    0  0.13754648015E+02  0.68055148063E+02  0.94115437861E+03  0.95943799065E+03  0.17300000000E+03 0. -1.
         -6    1    1    2    0  503 -0.13754648015E+02 -0.68055148063E+02  0.97171940348E+02  0.21021912261E+03  0.17300000000E+03 0. -1.
<mgrwt>
<rscale>  2 0.18641270E+03</rscale>
<asrwt>0</asrwt>
<pdfrwt beam="1">  1       21 0.16984487E+00 0.18641270E+03</pdfrwt>
<pdfrwt beam="2">  1       21 0.10102370E-01 0.18641270E+03</pdfrwt>
<totfact> 0.17125831E+04</totfact>
</mgrwt>
</event>
<event>
 4    3  0.3905963E+000  0.2061561E+03  0.7546771E-02  0.1144647E+00
         21   -1    0    0  501  502  0.00000000000E+00  0.00000000000E+00  0.31829892051E+03  0.31829892051E+03  0.00000000000E+00 0. -1.
         21   -1    0    0  502  503 -0.00000000000E+00 -0.00000000000E+00 -0.13354365116E+03  0.13354365116E+03  0.00000000000E+00 0. -1.
          6    1    1    2  501    0  0.55854166835E+02 -0.97219522762E+02  0.89588970079E+02  0.22478102037E+03  0.17300000000E+03 0. -1.
         -6    1    1    2    0  503 -0.55854166835E+02  0.97219522762E+02  0.95166299270E+02  0.22706155129E+03  0.17300000000E+03 0. -1.
<mgrwt>
<rscale>  2 0.20615607E+03</rscale>
<asrwt>0</asrwt>
<pdfrwt beam="1">  1       21 0.48969065E-01 0.20615607E+03</pdfrwt>
<pdfrwt beam="2">  1       21 0.20545177E-01 0.20615607E+03</pdfrwt>
<totfact> 0.86854478E+04</totfact>
</mgrwt>
</event>
<event>
 4    3  0.3905963E+000  0.2290444E+03  0.7546771E-02  0.1127314E+00
         21   -1    0    0  503  502  0.00000000000E+00  0.00000000000E+00  0.11647843543E+04  0.11647843543E+04  0.00000000000E+00 0.  1.
         21   -1    0    0  501  503 -0.00000000000E+00 -0.00000000000E+00 -0.68685671073E+02  0.68685671073E+02  0.00000000000E+00 0.  1.
          6    1    1    2  501    0 -0.71628089793E+02 -0.13191574658E+03  0.18618514957E+03  0.29517157276E+03  0.17300000000E+03 0.  1.
         -6    1    1    2    0  502  0.71628089793E+02  0.13191574658E+03  0.90991353363E+03  0.93829845258E+03  0.17300000000E+03 0.  1.
<mgrwt>
<rscale>  2 0.22904442E+03</rscale>
<asrwt>0</asrwt>
<pdfrwt beam="1">  1       21 0.17919758E+00 0.22904442E+03</pdfrwt>
<pdfrwt beam="2">  1       21 0.10567027E-01 0.22904442E+03</pdfrwt>
<totfact> 0.13206276E+04</totfact>
</mgrwt>
</event>
<event>
 4    3  0.3905963E+000  0.1984225E+03  0.7546771E-02  0.1151077E+00
         21   -1    0    0  501  502  0.00000000000E+00  0.00000000000E+00  0.58229331355E+02  0.58229331355E+02  0.00000000000E+00 0.  1.
         21   -1    0    0  502  503 -0.00000000000E+00 -0.00000000000E+00 -0.10532738088E+04  0.10532738088E+04  0.00000000000E+00 0.  1.
          6    1    1    2  501    0  0.11849995033E+02 -0.96447316706E+02 -0.16497407489E+03  0.25804641573E+03  0.17300000000E+03 0.  1.
         -6    1    1    2    0  503 -0.11849995033E+02  0.96447316706E+02 -0.83007040252E+03  0.85345672440E+03  0.17300000000E+03 0.  1.
<mgrwt>
<rscale>  2 0.19842255E+03</rscale>
<asrwt>0</asrwt>
<pdfrwt beam="1">  1       21 0.89583587E-02 0.19842255E+03</pdfrwt>
<pdfrwt beam="2">  1       21 0.16204212E+00 0.19842255E+03</pdfrwt>
<totfact> 0.23858902E+04</totfact>
</mgrwt>
</event>
<event>
 4    3  0.3905963E+000  0.2246704E+03  0.7546771E-02  0.1130448E+00
         21   -1    0    0  503  502  0.00000000000E+00  0.00000000000E+00  0.43344333133E+03  0.43344333133E+03  0.00000000000E+00 0. -1.
         21   -1    0    0  501  503 -0.00000000000E+00 -0.00000000000E+00 -0.24402556627E+03  0.24402556627E+03  0.00000000000E+00 0.  1.
          6    1    1    2  501    0  0.12971892081E+03  0.60998454978E+02 -0.15020662697E+03  0.27025699012E+03  0.17300000000E+03 0.  1.
         -6    1    1    2    0  502 -0.12971892081E+03 -0.60998454978E+02  0.33962439203E+03  0.40721190747E+03  0.17300000000E+03 0. -1.
<mgrwt>
<rscale>  2 0.22467045E+03</rscale>
<asrwt>0</asrwt>
<pdfrwt beam="1">  1       21 0.66683590E-01 0.22467045E+03</pdfrwt>
<pdfrwt beam="2">  1       21 0.37542395E-01 0.22467045E+03</pdfrwt>
<totfact> 0.13826151E+04</totfact>
</mgrwt>
</event>
<event>
 4    3  0.3905963E+000  0.2263564E+03  0.7546771E-02  0.1129231E+00
         21   -1    0    0  503  502  0.00000000000E+00  0.00000000000E+00  0.13216793628E+03  0.13216793628E+03  0.00000000000E+00 0.  1.
         21   -1    0    0  501  503 -0.00000000000E+00 -0.00000000000E+00 -0.12025133049E+04  0.12025133049E+04  0.00000000000E+00 0.  1.
          6    1    1    2  501    0  0.30062848557E+02  0.14284413668E+03 -0.10845115356E+04  0.11078819852E+04  0.17300000000E+03 0.  1.
         -6    1    1    2    0  502 -0.30062848557E+02 -0.14284413668E+03  0.14166166952E+02  0.22679925603E+03  0.17300000000E+03 0.  1.
<mgrwt>
<rscale>  2 0.22635641E+03</rscale>
<asrwt>0</asrwt>
<pdfrwt beam="1">  1       21 0.20333529E-01 0.22635641E+03</pdfrwt>
<pdfrwt beam="2">  1       21 0.18500205E+00 0.22635641E+03</pdfrwt>
<totfact> 0.36569651E+03</totfact>
</mgrwt>
</event>
<event>
 4    3  0.3905963E+000  0.1776877E+03  0.7546771E-02  0.1170060E+00
         21   -1    0    0  503  502  0.00000000000E+00  0.00000000000E+00  0.41395185653E+03  0.41395185653E+03  0.00000000000E+00 0. -1.
         21   -1    0    0  501  503 -0.00000000000E+00 -0.00000000000E+00 -0.78620892107E+02  0.78620892107E+02  0.00000000000E+00 0. -1.
          6    1    1    2  501    0 -0.14543297348E+02  0.37847291411E+02  0.21023565379E+03  0.27526706139E+03  0.17300000000E+03 0. -1.
         -6    1    1    2    0  502  0.14543297348E+02 -0.37847291411E+02  0.12509531064E+03  0.21730568724E+03  0.17300000000E+03 0. -1.
<mgrwt>
<rscale>  2 0.17768772E+03</rscale>
<asrwt>0</asrwt>
<pdfrwt beam="1">  1       21 0.63684900E-01 0.17768772E+03</pdfrwt>
<pdfrwt beam="2">  1       21 0.12095522E-01 0.17768772E+03</pdfrwt>
<totfact> 0.13251206E+05</totfact>
</mgrwt>
</event>
<event>
 4    3  0.3905963E+000  0.2870668E+03  0.7546771E-02  0.1091891E+00
         21   -1    0    0  501  502  0.00000000000E+00  0.00000000000E+00  0.27215788887E+03  0.27215788887E+03  0.00000000000E+00 0. -1.
         21   -1    0    0  502  503 -0.00000000000E+00 -0.00000000000E+00 -0.36665267464E+03  0.36665267464E+03  0.00000000000E+00 0.  1.
          6    1    1    2  501    0  0.15538182252E+03  0.16832958377E+03 -0.18054729053E+03  0.33912340476E+03  0.17300000000E+03 0. -1.
         -6    1    1    2    0  503 -0.15538182252E+03 -0.16832958377E+03  0.86052504766E+02  0.29968715874E+03  0.17300000000E+03 0.  1.
<mgrwt>
<rscale>  2 0.28706682E+03</rscale>
<asrwt>0</asrwt>
<pdfrwt beam="1">  1       21 0.41870445E-01 0.28706682E+03</pdfrwt>
<pdfrwt beam="2">  1       21 0.56408104E-01 0.28706682E+03</pdfrwt>
<totfact> 0.15437431E+04</totfact>
</mgrwt>
</event>
<event>
 4    3  0.3905963E+000  0.1817655E+03  0.7546771E-02  0.1166105E+00
         21   -1    0    0  501  502  0.00000000000E+00  0.00000000000E+00  0.47580786931E+03  0.47580786931E+03  0.00000000000E+00 0.  1.
         21   -1    0    0  502  503 -0.00000000000E+00 -0.00000000000E+00 -0.50772877964E+03  0.50772877964E+03  0.00000000000E+00 0. -1.
          6    1    1    2  501    0 -0.10009630144E+02 -0.54859028381E+02  0.44094494151E+03  0.47693935373E+03  0.17300000000E+03 0.  1.
         -6    1    1    2    0  503  0.10009630144E+02  0.54859028381E+02 -0.47286585184E+03  0.50659729522E+03  0.17300000000E+03 0. -1.
<mgrwt>
<rscale>  2 0.18176552E+03</rscale>
<asrwt>0</asrwt>
<pdfrwt beam="1">  1       21 0.73201211E-01 0.18176552E+03</pdfrwt>
<pdfrwt beam="2">  1       21 0.78112119E-01 0.18176552E+03</pdfrwt>
<totfact> 0.24597571E+03</totfact>
</mgrwt>
</event>
<event>
 4    3  0.3905963E+000  0.2686458E+03  0.7546771E-02  0.1102057E+00
         21   -1    0    0  501  502  0.00000000000E+00  0.00000000000E+00  0.83377610460E+03  0.83377610460E+03  0.00000000000E+00 0.  1.
         21   -1    0    0  502  503 -0.00000000000E+00 -0.00000000000E+00 -0.29464761533E+03  0.29464761533E+03  0.00000000000E+00 0.  1.
          6    1    1    2  501    0  0.13678651139E+03  0.15339824196E+03  0.74371366679E+03  0.79074685488E+03  0.17300000000E+03 0.  1.
         -6    1    1    2    0  503 -0.13678651139E+03 -0.15339824196E+03 -0.20458517752E+03  0.33767686506E+03  0.17300000000E+03 0.  1.
<mgrwt>
<rscale>  2 0.26864581E+03</rscale>
<asrwt>0</asrwt>
<pdfrwt beam="1">  1       21 0.12827325E+00 0.26864581E+03</pdfrwt>
<pdfrwt beam="2">  1       21 0.45330403E-01 0.26864581E+03</pdfrwt>
<totfact> 0.19632636E+03</totfact>
</mgrwt>
</event>
<event>
 4    3  0.3905963E+000  0.2707440E+03  0.7546771E-02  0.1100855E+00
         21   -1    0    0  501  502  0.00000000000E+00  0.00000000000E+00  0.81102846646E+03  0.81102846646E+03  0.00000000000E+00 0.  1.
         21   -1    0    0  502  503 -0.00000000000E+00 -0.00000000000E+00 -0.92199282678E+02  0.92199282678E+02  0.00000000000E+00 0.  1.
          6    1    1    2  501    0 -0.18718937845E+02  0.20741962131E+03  0.42281996757E+03  0.50207471846E+03  0.17300000000E+03 0.  1.
         -6    1    1    2    0  503  0.18718937845E+02 -0.20741962131E+03  0.29600921621E+03  0.40115303068E+03  0.17300000000E+03 0.  1.
<mgrwt>
<rscale>  2 0.27074397E+03</rscale>
<asrwt>0</asrwt>
<pdfrwt beam="1">  1       21 0.12477361E+00 0.27074397E+03</pdfrwt>
<pdfrwt beam="2">  1       21 0.14184506E-01 0.27074397E+03</pdfrwt>
<totfact> 0.19917842E+04</totfact>
</mgrwt>
</event>
<event>
 4    3  0.3905963E+000  0.2197981E+03  0.7546771E-02  0.1134034E+00
         21   -1    0    0  503  502  0.00000000000E+00  0.00000000000E+00  0.98934935914E+03  0.98934935914E+03  0.00000000000E+00 0.  1.
         21   -1    0    0  501  503 -0.00000000000E+00 -0.00000000000E+00 -0.78509426835E+02  0.78509426835E+02  0.00000000000E+00 0.  1.
          6    1    1    2  501    0 -0.13432049493E+03  0.18444940285E+02  0.12714240344E+03  0.25392203908E+03  0.17300000000E+03 0.  1.
         -6    1    1    2    0  502  0.13432049493E+03 -0.18444940285E+02  0.78369752887E+03  0.81393674689E+03  0.17300000000E+03 0.  1.
<mgrwt>
<rscale>  2 0.21979811E+03</rscale>
<asrwt>0</asrwt>
<pdfrwt beam="1">  1       21 0.15220758E+00 0.21979811E+03</pdfrwt>
<pdfrwt beam="2">  1       21 0.12078374E-01 0.21979811E+03</pdfrwt>
<totfact> 0.16377209E+04</totfact>
</mgrwt>
</event>
<event>
 4    3  0.3905963E+000  0.1847571E+03  0.7546771E-02  0.1163277E+00
         21   -1    0    0  503  502  0.00000000000E+00  0.00000000000E+00  0.35462588704E+02  0.35462588704E+02  0.00000000000E+00 0.  1.
         21   -1    0    0  501  503 -0.00000000000E+00 -0.00000000000E+00 -0.11445094608E+04  0.11445094608E+04  0.00000000000E+00 0.  1.
          6    1    1    2  501    0 -0.13159869466E+02  0.63505895984E+02 -0.78975572274E+03  0.81107908529E+03  0.17300000000E+03 0.  1.
         -6    1    1    2    0  502  0.13159869466E+02 -0.63505895984E+02 -0.31929114933E+03  0.36889296419E+03  0.17300000000E+03 0.  1.
<mgrwt>
<rscale>  2 0.18475709E+03</rscale>
<asrwt>0</asrwt>
<pdfrwt beam="1">  1       21 0.54557832E-02 0.18475709E+03</pdfrwt>
<pdfrwt beam="2">  1       21 0.17607837E+00 0.18475709E+03</pdfrwt>
<totfact> 0.45114940E+04</totfact>
</mgrwt>
</event>
<event>
 4    3  0.3905963E+000  0.1786624E+03  0.7546771E-02  0.1169104E+00
         21   -1    0    0  503  502  0.00000000000E+00  0.00000000000E+00  0.39155357461E+03  0.39155357461E+03  0.00000000000E+00 0.  1.
         21   -1    0    0  501  503 -0.00000000000E+00 -0.00000000000E+00 -0.36841750576E+03  0.36841750576E+03  0.00000000000E+00 0.  1.
          6    1    1    2  501    0  0.27816026968E+02  0.34893112068E+02 -0.32375142379E+03  0.36977729112E+03  0.17300000000E+03 0.  1.
         -6    1    1    2    0  502 -0.27816026968E+02 -0.34893112068E+02  0.34688749263E+03  0.39019378925E+03  0.17300000000E+03 0.  1.
<mgrwt>
<rscale>  2 0.17866242E+03</rscale>
<asrwt>0</asrwt>
<pdfrwt beam="1">  1       21 0.60239012E-01 0.17866242E+03</pdfrwt>
<pdfrwt beam="2">  1       21 0.56679616E-01 0.17866242E+03</pdfrwt>
<totfact> 0.75961158E+03</totfact>
</mgrwt>
</event>
<event>
 4    3  0.3905963E+000  0.1876231E+03  0.7546771E-02  0.1160623E+00
         21   -1    0    0  501  502  0.00000000000E+00  0.00000000000E+00  0.29301528648E+03  0.29301528648E+03  0.00000000000E+00 0.  1.
         21   -1    0    0  502  503 -0.00000000000E+00 -0.00000000000E+00 -0.13010864564E+03  0.13010864564E+03  0.00000000000E+00 0.  1.
          6    1    1    2  501    0 -0.57766273474E+02  0.44005306683E+02  0.22888632376E+02  0.18901401763E+03  0.17300000000E+03 0.  1.
         -6    1    1    2    0  503  0.57766273474E+02 -0.44005306683E+02  0.14001800846E+03  0.23410991449E+03  0.17300000000E+03 0.  1.
<mgrwt>
<rscale>  2 0.18762305E+03</rscale>
<asrwt>0</asrwt>
<pdfrwt beam="1">  1       21 0.45079275E-01 0.18762305E+03</pdfrwt>
<pdfrwt beam="2">  1       21 0.20016715E-01 0.18762305E+03</pdfrwt>
<totfact> 0.10901860E+05</totfact>
</mgrwt>
</event>
<event>
 4    3  0.3905963E+000  0.2219060E+03  0.7546771E-02  0.1132470E+00
         21   -1    0    0  503  502  0.00000000000E+00  0.00000000000E+00  0.15339475978E+03  0.15339475978E+03  0.00000000000E+00 0.  1.
         21   -1    0    0  501  503 -0.00000000000E+00 -0.00000000000E+00 -0.35021205373E+03  0.35021205373E+03  0.00000000000E+00 0.  1.
          6    1    1    2  501    0 -0.17081013527E+02 -0.13791854583E+03 -0.17111169208E+03  0.28021687579E+03  0.17300000000E+03 0.  1.
         -6    1    1    2    0  502  0.17081013527E+02  0.13791854583E+03 -0.25705601860E+02  0.22338993772E+03  0.17300000000E+03 0.  1.
<mgrwt>
<rscale>  2 0.22190603E+03</rscale>
<asrwt>0</asrwt>
<pdfrwt beam="1">  1       21 0.23599194E-01 0.22190603E+03</pdfrwt>
<pdfrwt beam="2">  1       21 0.53878777E-01 0.22190603E+03</pdfrwt>
<totfact> 0.54328737E+04</totfact>
</mgrwt>
</event>
<event>
 4    3  0.3905963E+000  0.1786402E+03  0.7546771E-02  0.1169126E+00
         21   -1    0    0  503  502  0.00000000000E+00  0.00000000000E+00  0.94448228542E+03  0.94448228542E+03  0.00000000000E+00 0.  1.
         21   -1    0    0  501  503 -0.00000000000E+00 -0.00000000000E+00 -0.35107565614E+02  0.35107565614E+02  0.00000000000E+00 0.  1.
          6    1    1    2  501    0 -0.37054918385E+02 -0.24703546327E+02  0.35973610322E+03  0.40164959372E+03  0.17300000000E+03 0.  1.
         -6    1    1    2    0  502  0.37054918385E+02  0.24703546327E+02  0.54963861658E+03  0.57794025731E+03  0.17300000000E+03 0.  1.
<mgrwt>
<rscale>  2 0.17864023E+03</rscale>
<asrwt>0</asrwt>
<pdfrwt beam="1">  1       21 0.14530495E+00 0.17864023E+03</pdfrwt>
<pdfrwt beam="2">  1       21 0.54011647E-02 0.17864023E+03</pdfrwt>
<totfact> 0.77193270E+04</totfact>
</mgrwt>
</event>
<event>
 4    3  0.3905963E+000  0.1919164E+03  0.7546771E-02  0.1156744E+00
         21   -1    0    0  503  502  0.00000000000E+00  0.00000000000E+00  0.22671961666E+04  0.22671961666E+04  0.00000000000E+00 0. -1.
         21   -1    0    0  501  503 -0.00000000000E+00 -0.00000000000E+00 -0.25133214174E+02  0.25133214174E+02  0.00000000000E+00 0. -1.
          6    1    1    2  501    0  0.79483711553E+02 -0.24191723762E+02  0.43945235975E+03  0.47953130909E+03  0.17300000000E+03 0. -1.
         -6    1    1    2    0  502 -0.79483711553E+02  0.24191723762E+02  0.18026105927E+04  0.18127980717E+04  0.17300000000E+03 0. -1.
<mgrwt>
<rscale>  2 0.19191639E+03</rscale>
<asrwt>0</asrwt>
<pdfrwt beam="1">  1       21 0.34879925E+00 0.19191639E+03</pdfrwt>
<pdfrwt beam="2">  1       21 0.38666501E-02 0.19191639E+03</pdfrwt>
<totfact> 0.73782532E+03</totfact>
</mgrwt>
</event>
<event>
 4    3  0.3905963E+000  0.2130076E+03  0.7546771E-02  0.1139206E+00
         21   -1    0    0  501  502  0.00000000000E+00  0.00000000000E+00  0.13132279466E+04  0.13132279466E+04  0.00000000000E+00 0. -1.
         21   -1    0    0  502  503 -0.00000000000E+00 -0.00000000000E+00 -0.37794473847E+02  0.37794473847E+02  0.00000000000E+00 0.  1.
          6    1    1    2  501    0 -0.51045283773E+02 -0.11330325843E+03  0.83563193241E+03  0.86235316189E+03  0.17300000000E+03 0. -1.
         -6    1    1    2    0  503  0.51045283773E+02  0.11330325843E+03  0.43980154034E+03  0.48866925855E+03  0.17300000000E+03 0. -1.
<mgrwt>
<rscale>  2 0.21300763E+03</rscale>
<asrwt>0</asrwt>
<pdfrwt beam="1">  1       21 0.20203503E+00 0.21300763E+03</pdfrwt>
<pdfrwt beam="2">  1       21 0.58145355E-02 0.21300763E+03</pdfrwt>
<totfact> 0.26718236E+04</totfact>
</mgrwt>
</event>
<event>
 4    3  0.3905963E+000  0.2139834E+03  0.7546771E-02  0.1138450E+00
         21   -1    0    0  503  502  0.00000000000E+00  0.00000000000E+00  0.30539832976E+03  0.30539832976E+03  0.00000000000E+00 0. -1.
         21   -1    0    0  501  503 -0.00000000000E+00 -0.00000000000E+00 -0.16957667831E+03  0.16957667831E+03  0.00000000000E+00 0. -1.
          6    1    1    2  501    0  0.12314651765E+03  0.26359283664E+02 -0.12921297913E+02  0.21437312468E+03  0.17300000000E+03 0. -1.
         -6    1    1    2    0  502 -0.12314651765E+03 -0.26359283664E+02  0.14874294935E+03  0.26060188339E+03  0.17300000000E+03 0. -1.
<mgrwt>
<rscale>  2 0.21398336E+03</rscale>
<asrwt>0</asrwt>
<pdfrwt beam="1">  1       21 0.46984358E-01 0.21398336E+03</pdfrwt>
<pdfrwt beam="2">  1       21 0.26088720E-01 0.21398336E+03</pdfrwt>
<totfact> 0.59937984E+04</totfact>
</mgrwt>
</event>
<event>
 4    3  0.3905963E+000  0.2218892E+03  0.7546771E-02  0.1132482E+00
         21   -1    0    0  503  502  0.00000000000E+00  0.00000000000E+00  0.31407296326E+03  0.31407296326E+03  0.00000000000E+00 0.  1.
         21   -1    0    0  501  503 -0.00000000000E+00 -0.00000000000E+00 -0.17090658605E+03  0.17090658605E+03  0.00000000000E+00 0. -1.
          6    1    1    2  501    0 -0.11092255109E+03 -0.83678025026E+02  0.18236873996E+01  0.22189671031E+03  0.17300000000E+03 0. -1.
         -6    1    1    2    0  502  0.11092255109E+03  0.83678025026E+02  0.14134268981E+03  0.26308283900E+03  0.17300000000E+03 0.  1.
<mgrwt>
<rscale>  2 0.22188922E+03</rscale>
<asrwt>0</asrwt>
<pdfrwt beam="1">  1       21 0.48318917E-01 0.22188922E+03</pdfrwt>
<pdfrwt beam="2">  1       21 0.26293321E-01 0.22188922E+03</pdfrwt>
<totfact> 0.55515200E+04</totfact>
</mgrwt>
</event>
<event>
 4    3  0.3905963E+000  0.3884819E+03  0.7546771E-02  0.1047843E+00
         21   -1    0    0  503  502  0.00000000000E+00  0.00000000000E+00  0.81285139306E+03  0.81285139306E+03  0.00000000000E+00 0. -1.
         21   -1    0    0  501  503 -0.00000000000E+00 -0.00000000000E+00 -0.22093677883E+03  0.22093677883E+03  0.00000000000E+00 0. -1.
          6    1    1    2  501    0  0.47858276805E+02  0.34452691989E+03  0.89428788904E+02  0.39864234781E+03  0.17300000000E+03 0. -1.
         -6    1    1    2    0  502 -0.47858276805E+02 -0.34452691989E+03  0.50248582533E+03  0.63514582408E+03  0.17300000000E+03 0. -1.
<mgrwt>
<rscale>  2 0.38848193E+03</rscale>
<asrwt>0</asrwt>
<pdfrwt beam="1">  1       21 0.12505406E+00 0.38848193E+03</pdfrwt>
<pdfrwt beam="2">  1       21 0.33990274E-01 0.38848193E+03</pdfrwt>
<totfact> 0.35369874E+03</totfact>
</mgrwt>
</event>
<event>
 4    3  0.3905963E+000  0.1975005E+03  0.7546771E-02  0.1151865E+00
         21   -1    0    0  503  502  0.00000000000E+00  0.00000000000E+00  0.95029167096E+02  0.95029167096E+02  0.00000000000E+00 0. -1.
         21   -1    0    0  501  503 -0.00000000000E+00 -0.00000000000E+00 -0.46818930414E+03  0.46818930414E+03  0.00000000000E+00 0. -1.
          6    1    1    2  501    0 -0.87539579133E+02 -0.37606772017E+02 -0.87701169707E+02  0.21609706704E+03  0.17300000000E+03 0. -1.
         -6    1    1    2    0  502  0.87539579133E+02  0.37606772017E+02 -0.28545896734E+03  0.34712140420E+03  0.17300000000E+03 0. -1.
<mgrwt>
<rscale>  2 0.19750050E+03</rscale>
<asrwt>0</asrwt>
<pdfrwt beam="1">  1       21 0.14619872E-01 0.19750050E+03</pdfrwt>
<pdfrwt beam="2">  1       21 0.72029124E-01 0.19750050E+03</pdfrwt>
<totfact> 0.71342792E+04</totfact>
</mgrwt>
</event>
<event>
 4    3  0.3905963E+000  0.2128355E+03  0.7546771E-02  0.1139340E+00
         21   -1    0    0  503  502  0.00000000000E+00  0.00000000000E+00  0.98425327831E+02  0.98425327831E+02  0.00000000000E+00 0.  1.
         21   -1    0    0  501  503 -0.00000000000E+00 -0.00000000000E+00 -0.57732049812E+03  0.57732049812E+03  0.00000000000E+00 0. -1.
          6    1    1    2  501    0  0.10762535597E+03 -0.61536355080E+02 -0.39160511035E+03  0.44570562336E+03  0.17300000000E+03 0. -1.
         -6    1    1    2    0  502 -0.10762535597E+03  0.61536355080E+02 -0.87290059937E+02  0.23004020259E+03  0.17300000000E+03 0.  1.
<mgrwt>
<rscale>  2 0.21283548E+03</rscale>
<asrwt>0</asrwt>
<pdfrwt beam="1">  1       21 0.15142358E-01 0.21283548E+03</pdfrwt>
<pdfrwt beam="2">  1       21 0.88818538E-01 0.21283548E+03</pdfrwt>
<totfact> 0.41330377E+04</totfact>
</mgrwt>
</event>
<event>
 4    3  0.3905963E+000  0.2199925E+03  0.7546771E-02  0.1133889E+00
         21   -1    0    0  503  502  0.00000000000E+00  0.00000000000E+00  0.18057996936E+03  0.18057996936E+03  0.00000000000E+00 0.  1.
         21   -1    0    0  501  503 -0.00000000000E+00 -0.00000000000E+00 -0.34024721245E+03  0.34024721245E+03  0.00000000000E+00 0.  1.
          6    1    1    2  501    0 -0.12932754312E+03 -0.41738150578E+02 -0.19982665128E+03  0.29719922138E+03  0.17300000000E+03 0.  1.
         -6    1    1    2    0  502  0.12932754312E+03  0.41738150578E+02  0.40159408187E+02  0.22362796044E+03  0.17300000000E+03 0.  1.
<mgrwt>
<rscale>  2 0.21999247E+03</rscale>
<asrwt>0</asrwt>
<pdfrwt beam="1">  1       21 0.27781534E-01 0.21999247E+03</pdfrwt>
<pdfrwt beam="2">  1       21 0.52345725E-01 0.21999247E+03</pdfrwt>
<totfact> 0.42246429E+04</totfact>
</mgrwt>
</event>
<event>
 4    3  0.3905963E+000  0.1814532E+03  0.7546771E-02  0.1166404E+00
         21   -1    0    0  501  502  0.00000000000E+00  0.00000000000E+00  0.29727388995E+03  0.29727388995E+03  0.00000000000E+00 0. -1.
         21   -1    0    0  502  503 -0.00000000000E+00 -0.00000000000E+00 -0.14140683405E+03  0.14140683405E+03  0.00000000000E+00 0. -1.
          6    1    1    2  501    0 -0.54208425728E+02 -0.75976662258E+01  0.18004974314E+03  0.25562313658E+03  0.17300000000E+03 0. -1.
         -6    1    1    2    0  503  0.54208425728E+02  0.75976662258E+01 -0.24182687238E+02  0.18305758743E+03  0.17300000000E+03 0. -1.
<mgrwt>
<rscale>  2 0.18145324E+03</rscale>
<asrwt>0</asrwt>
<pdfrwt beam="1">  1       21 0.45734444E-01 0.18145324E+03</pdfrwt>
<pdfrwt beam="2">  1       21 0.21754898E-01 0.18145324E+03</pdfrwt>
<totfact> 0.90758707E+04</totfact>
</mgrwt>
</event>
<event>
 4    3  0.3905963E+000  0.2035064E+03  0.7546771E-02  0.1146814E+00
         21   -1    0    0  501  502  0.00000000000E+00  0.00000000000E+00  0.10139018524E+04  0.10139018524E+04  0.00000000000E+00 0.  1.
         21   -1    0    0  502  503 -0.00000000000E+00 -0.00000000000E+00 -0.49141044535E+02  0.49141044535E+02  0.00000000000E+00 0.  1.
          6    1    1    2  501    0 -0.93992395681E+02 -0.51490636332E+02  0.70074468518E+03  0.72969717684E+03  0.17300000000E+03 0.  1.
         -6    1    1    2    0  503  0.93992395681E+02  0.51490636332E+02  0.26401612273E+03  0.33334572014E+03  0.17300000000E+03 0.  1.
<mgrwt>
<rscale>  2 0.20350640E+03</rscale>
<asrwt>0</asrwt>
<pdfrwt beam="1">  1       21 0.15598488E+00 0.20350640E+03</pdfrwt>
<pdfrwt beam="2">  1       21 0.75601615E-02 0.20350640E+03</pdfrwt>
<totfact> 0.35439584E+04</totfact>
</mgrwt>
</event>
<event>
 4    3  0.3905963E+000  0.3256197E+03  0.7546771E-02  0.1073092E+00
         21   -1    0    0  503  502  0.00000000000E+00  0.00000000000E+00  0.17259997960E+04  0.17259997960E+04  0.00000000000E+00 0. -1.
         21   -1    0    0  501  503 -0.00000000000E+00 -0.00000000000E+00 -0.13665141656E+03  0.13665141656E+03  0.00000000000E+00 0.  1.
          6    1    1    2  501    0  0.17378817114E+03  0.21423554350E+03  0.10369466246E+03  0.34173202886E+03  0.17300000000E+03 0.  1.
         -6    1    1    2    0  502 -0.17378817114E+03 -0.21423554350E+03  0.14856537170E+04  0.15209191837E+04  0.17300000000E+03 0. -1.
<mgrwt>
<rscale>  2 0.32561971E+03</rscale>
<asrwt>0</asrwt>
<pdfrwt beam="1">  1       21 0.26553841E+00 0.32561971E+03</pdfrwt>
<pdfrwt beam="2">  1       21 0.21023296E-01 0.32561971E+03</pdfrwt>
<totfact> 0.99847082E+02</totfact>
</mgrwt>
</event>
<event>
 4    3  0.3905963E+000  0.1814372E+03  0.7546771E-02  0.1166419E+00
         21   -1    0    0  501  502  0.00000000000E+00  0.00000000000E+00  0.14568571866E+03  0.14568571866E+03  0.00000000000E+00 0. -1.
         21   -1    0    0  502  503 -0.00000000000E+00 -0.00000000000E+00 -0.83560347390E+03  0.83560347390E+03  0.00000000000E+00 0. -1.
          6    1    1    2  501    0 -0.40278803010E+02 -0.36987401088E+02  0.74128056452E+02  0.19599596568E+03  0.17300000000E+03 0. -1.
         -6    1    1    2    0  503  0.40278803010E+02  0.36987401088E+02 -0.76404581169E+03  0.78529322687E+03  0.17300000000E+03 0. -1.
<mgrwt>
<rscale>  2 0.18143718E+03</rscale>
<asrwt>0</asrwt>
<pdfrwt beam="1">  1       21 0.22413188E-01 0.18143718E+03</pdfrwt>
<pdfrwt beam="2">  1       21 0.12855438E+00 0.18143718E+03</pdfrwt>
<totfact> 0.83572907E+03</totfact>
</mgrwt>
</event>
<event>
 4    3  0.3905963E+000  0.2889814E+03  0.7546771E-02  0.1090882E+00
         21   -1    0    0  501  502  0.00000000000E+00  0.00000000000E+00  0.51783754734E+03  0.51783754734E+03  0.00000000000E+00 0. -1.
         21   -1    0    0  502  503 -0.00000000000E+00 -0.00000000000E+00 -0.28760326967E+03  0.28760326967E+03  0.00000000000E+00 0.  1.
          6    1    1    2  501    0 -0.19413797718E+03 -0.12606226902E+03 -0.15179620260E+03  0.32642355457E+03  0.17300000000E+03 0.  1.
         -6    1    1    2    0  503  0.19413797718E+03  0.12606226902E+03  0.38203048027E+03  0.47901726243E+03  0.17300000000E+03 0. -1.
<mgrwt>
<rscale>  2 0.28898140E+03</rscale>
<asrwt>0</asrwt>
<pdfrwt beam="1">  1       21 0.79667315E-01 0.28898140E+03</pdfrwt>
<pdfrwt beam="2">  1       21 0.44246657E-01 0.28898140E+03</pdfrwt>
<totfact> 0.64135990E+03</totfact>
</mgrwt>
</event>
<event>
 4    3  0.3905963E+000  0.2274315E+03  0.7546771E-02  0.1128461E+00
         21   -1    0    0  503  502  0.00000000000E+00  0.00000000000E+00  0.11768506788E+03  0.11768506788E+03  0.00000000000E+00 0. -1.
         21   -1    0    0  501  503 -0.00000000000E+00 -0.00000000000E+00 -0.45524524441E+03  0.45524524441E+03  0.00000000000E+00 0.  1.
          6    1    1    2  501    0 -0.11414033732E+03  0.93637973002E+02 -0.22201918983E+03  0.31783267177E+03  0.17300000000E+03 0.  1.
         -6    1    1    2    0  502  0.11414033732E+03 -0.93637973002E+02 -0.11554098669E+03  0.25509764052E+03  0.17300000000E+03 0. -1.
<mgrwt>
<rscale>  2 0.22743150E+03</rscale>
<asrwt>0</asrwt>
<pdfrwt beam="1">  1       21 0.18105395E-01 0.22743150E+03</pdfrwt>
<pdfrwt beam="2">  1       21 0.70037729E-01 0.22743150E+03</pdfrwt>
<totfact> 0.50564960E+04</totfact>
</mgrwt>
</event>
<event>
 4    3  0.3905963E+000  0.2896852E+03  0.7546771E-02  0.1090514E+00
         21   -1    0    0  503  502  0.00000000000E+00  0.00000000000E+00  0.38684502463E+03  0.38684502463E+03  0.00000000000E+00 0.  1.
         21   -1    0    0  501  503 -0.00000000000E+00 -0.00000000000E+00 -0.39085693990E+03  0.39085693990E+03  0.00000000000E+00 0.  1.
          6    1    1    2  501    0  0.11313322530E+03 -0.20295172702E+03 -0.26140010362E+03  0.39018911356E+03  0.17300000000E+03 0.  1.
         -6    1    1    2    0  502 -0.11313322530E+03  0.20295172702E+03  0.25738818835E+03  0.38751285097E+03  0.17300000000E+03 0.  1.
<mgrwt>
<rscale>  2 0.28968523E+03</rscale>
<asrwt>0</asrwt>
<pdfrwt beam="1">  1       21 0.59514619E-01 0.28968523E+03</pdfrwt>
<pdfrwt beam="2">  1       21 0.60131837E-01 0.28968523E+03</pdfrwt>
<totfact> 0.64033235E+03</totfact>
</mgrwt>
</event>
<event>
 4    3  0.3905963E+000  0.1796723E+03  0.7546771E-02  0.1168121E+00
         21   -1    0    0  501  502  0.00000000000E+00  0.00000000000E+00  0.57008336084E+03  0.57008336084E+03  0.00000000000E+00 0. -1.
         21   -1    0    0  502  503 -0.00000000000E+00 -0.00000000000E+00 -0.11566097048E+03  0.11566097048E+03  0.00000000000E+00 0. -1.
          6    1    1    2  501    0 -0.47459557446E+02  0.10035835141E+02  0.47216810860E+03  0.50519783289E+03  0.17300000000E+03 0. -1.
         -6    1    1    2    0  503  0.47459557446E+02 -0.10035835141E+02 -0.17745718240E+02  0.18054649843E+03  0.17300000000E+03 0. -1.
<mgrwt>
<rscale>  2 0.17967228E+03</rscale>
<asrwt>0</asrwt>
<pdfrwt beam="1">  1       21 0.87705130E-01 0.17967228E+03</pdfrwt>
<pdfrwt beam="2">  1       21 0.17793996E-01 0.17967228E+03</pdfrwt>
<totfact> 0.32209069E+04</totfact>
</mgrwt>
</event>
<event>
 4    3  0.3905963E+000  0.1762331E+03  0.7546771E-02  0.1171499E+00
         21   -1    0    0  503  502  0.00000000000E+00  0.00000000000E+00  0.29572327586E+03  0.29572327586E+03  0.00000000000E+00 0.  1.
         21   -1    0    0  501  503 -0.00000000000E+00 -0.00000000000E+00 -0.49662258865E+03  0.49662258865E+03  0.00000000000E+00 0.  1.
          6    1    1    2  501    0  0.32051958261E+02  0.10087716590E+02 -0.45224657633E+03  0.48537104967E+03  0.17300000000E+03 0.  1.
         -6    1    1    2    0  502 -0.32051958261E+02 -0.10087716590E+02  0.25134726355E+03  0.30697481484E+03  0.17300000000E+03 0.  1.
<mgrwt>
<rscale>  2 0.17623306E+03</rscale>
<asrwt>0</asrwt>
<pdfrwt beam="1">  1       21 0.45495889E-01 0.17623306E+03</pdfrwt>
<pdfrwt beam="2">  1       21 0.76403474E-01 0.17623306E+03</pdfrwt>
<totfact> 0.71547209E+03</totfact>
</mgrwt>
</event>
<event>
 4    3  0.3905963E+000  0.2381715E+03  0.7546771E-02  0.1121017E+00
         21   -1    0    0  501  502  0.00000000000E+00  0.00000000000E+00  0.14031794898E+03  0.14031794898E+03  0.00000000000E+00 0.  1.
         21   -1    0    0  502  503 -0.00000000000E+00 -0.00000000000E+00 -0.41773194717E+03  0.41773194717E+03  0.00000000000E+00 0.  1.
          6    1    1    2  501    0  0.13317147887E+03 -0.95194614859E+02 -0.88608321825E+02  0.25412023174E+03  0.17300000000E+03 0.  1.
         -6    1    1    2    0  503 -0.13317147887E+03  0.95194614859E+02 -0.18880567637E+03  0.30392966441E+03  0.17300000000E+03 0.  1.
<mgrwt>
<rscale>  2 0.23817149E+03</rscale>
<asrwt>0</asrwt>
<pdfrwt beam="1">  1       21 0.21587377E-01 0.23817149E+03</pdfrwt>
<pdfrwt beam="2">  1       21 0.64266453E-01 0.23817149E+03</pdfrwt>
<totfact> 0.43731420E+04</totfact>
</mgrwt>
</event>
<event>
 4    3  0.3905963E+000  0.1805113E+03  0.7546771E-02  0.1167309E+00
         21   -1    0    0  501  502  0.00000000000E+00  0.00000000000E+00  0.40660051748E+03  0.40660051748E+03  0.00000000000E+00 0.  1.
         21   -1    0    0  502  503 -0.00000000000E+00 -0.00000000000E+00 -0.97119298902E+02  0.97119298902E+02  0.00000000000E+00 0. -1.
          6    1    1    2  501    0  0.62057712930E+01 -0.51154771118E+02  0.26005467521E+03  0.31656398454E+03  0.17300000000E+03 0.  1.
         -6    1    1    2    0  503 -0.62057712930E+01  0.51154771118E+02  0.49426543366E+02  0.18715583185E+03  0.17300000000E+03 0. -1.
<mgrwt>
<rscale>  2 0.18051128E+03</rscale>
<asrwt>0</asrwt>
<pdfrwt beam="1">  1       21 0.62553925E-01 0.18051128E+03</pdfrwt>
<pdfrwt beam="2">  1       21 0.14941431E-01 0.18051128E+03</pdfrwt>
<totfact> 0.94026881E+04</totfact>
</mgrwt>
</event>
<event>
 4    3  0.3905963E+000  0.1863619E+03  0.7546771E-02  0.1161784E+00
         21   -1    0    0  501  502  0.00000000000E+00  0.00000000000E+00  0.24492578810E+03  0.24492578810E+03  0.00000000000E+00 0.  1.
         21   -1    0    0  502  503 -0.00000000000E+00 -0.00000000000E+00 -0.25221896277E+03  0.25221896277E+03  0.00000000000E+00 0.  1.
          6    1    1    2  501    0  0.67535289862E+02  0.15515380952E+02  0.16082227691E+03  0.24615959695E+03  0.17300000000E+03 0.  1.
         -6    1    1    2    0  503 -0.67535289862E+02 -0.15515380952E+02 -0.16811545158E+03  0.25098515391E+03  0.17300000000E+03 0.  1.
<mgrwt>
<rscale>  2 0.18636186E+03</rscale>
<asrwt>0</asrwt>
<pdfrwt beam="1">  1       21 0.37680891E-01 0.18636186E+03</pdfrwt>
<pdfrwt beam="2">  1       21 0.38802917E-01 0.18636186E+03</pdfrwt>
<totfact> 0.43631592E+04</totfact>
</mgrwt>
</event>
<event>
 4    3  0.3905963E+000  0.2891076E+03  0.7546771E-02  0.1090816E+00
         21   -1    0    0  501  502  0.00000000000E+00  0.00000000000E+00  0.15184729994E+04  0.15184729994E+04  0.00000000000E+00 0.  1.
         21   -1    0    0  502  503 -0.00000000000E+00 -0.00000000000E+00 -0.72954773914E+02  0.72954773914E+02  0.00000000000E+00 0. -1.
          6    1    1    2  501    0 -0.22442149674E+03 -0.57351453101E+02  0.11170205533E+04  0.11538275928E+04  0.17300000000E+03 0.  1.
         -6    1    1    2    0  503  0.22442149674E+03  0.57351453101E+02  0.32849767219E+03  0.43760018053E+03  0.17300000000E+03 0. -1.
<mgrwt>
<rscale>  2 0.28910759E+03</rscale>
<asrwt>0</asrwt>
<pdfrwt beam="1">  1       21 0.23361121E+00 0.28910759E+03</pdfrwt>
<pdfrwt beam="2">  1       21 0.11223813E-01 0.28910759E+03</pdfrwt>
<totfact> 0.50828920E+03</totfact>
</mgrwt>
</event>
<event>
 4    3  0.3905963E+000  0.2115265E+03  0.7546771E-02  0.1140363E+00
         21   -1    0    0  501  502  0.00000000000E+00  0.00000000000E+00  0.24050861299E+03  0.24050861299E+03  0.00000000000E+00 0.  1.
         21   -1    0    0  502  503 -0.00000000000E+00 -0.00000000000E+00 -0.20247623847E+03  0.20247623847E+03  0.00000000000E+00 0.  1.
          6    1    1    2  501    0  0.53172062488E+02 -0.10948606713E+03 -0.44096191092E+02  0.21607392530E+03  0.17300000000E+03 0.  1.
         -6    1    1    2    0  503 -0.53172062488E+02  0.10948606713E+03  0.82128565612E+02  0.22691092617E+03  0.17300000000E+03 0.  1.
<mgrwt>
<rscale>  2 0.21152652E+03</rscale>
<asrwt>0</asrwt>
<pdfrwt beam="1">  1       21 0.37001325E-01 0.21152652E+03</pdfrwt>
<pdfrwt beam="2">  1       21 0.31150191E-01 0.21152652E+03</pdfrwt>
<totfact> 0.69168086E+04</totfact>
</mgrwt>
</event>
<event>
 4    3  0.3905963E+000  0.1802302E+03  0.7546771E-02  0.1167580E+00
         21   -1    0    0  503  502  0.00000000000E+00  0.00000000000E+00  0.97783879960E+03  0.97783879960E+03  0.00000000000E+00 0.  1.
         21   -1    0    0  501  503 -0.00000000000E+00 -0.00000000000E+00 -0.58092712866E+02  0.58092712866E+02  0.00000000000E+00 0.  1.
          6    1    1    2  501    0  0.40263403331E+02  0.30541327337E+02  0.12094324827E+03  0.21704880471E+03  0.17300000000E+03 0.  1.
         -6    1    1    2    0  502 -0.40263403331E+02 -0.30541327337E+02  0.79880283846E+03  0.81888270775E+03  0.17300000000E+03 0.  1.
<mgrwt>
<rscale>  2 0.18023017E+03</rscale>
<asrwt>0</asrwt>
<pdfrwt beam="1">  1       21 0.15043673E+00 0.18023017E+03</pdfrwt>
<pdfrwt beam="2">  1       21 0.89373412E-02 0.18023017E+03</pdfrwt>
<totfact> 0.29561985E+04</totfact>
</mgrwt>
</event>
<event>
 4    3  0.3905963E+000  0.1819886E+03  0.7546771E-02  0.1165892E+00
         21   -1    0    0  501  502  0.00000000000E+00  0.00000000000E+00  0.17524112506E+04  0.17524112506E+04  0.00000000000E+00 0.  1.
         21   -1    0    0  502  503 -0.00000000000E+00 -0.00000000000E+00 -0.22062511902E+02  0.22062511902E+02  0.00000000000E+00 0.  1.
          6    1    1    2  501    0 -0.50300329053E+02 -0.25704318152E+02  0.12011107893E+04  0.12148197246E+04  0.17300000000E+03 0. -1.
         -6    1    1    2    0  503  0.50300329053E+02  0.25704318152E+02  0.52923794947E+03  0.55965403799E+03  0.17300000000E+03 0. -1.
<mgrwt>
<rscale>  2 0.18198856E+03</rscale>
<asrwt>0</asrwt>
<pdfrwt beam="1">  1       21 0.26960162E+00 0.18198856E+03</pdfrwt>
<pdfrwt beam="2">  1       21 0.33942340E-02 0.18198856E+03</pdfrwt>
<totfact> 0.26602065E+04</totfact>
</mgrwt>
</event>
<event>
 4    3  0.3905963E+000  0.2846849E+03  0.7546771E-02  0.1093157E+00
         21   -1    0    0  501  502  0.00000000000E+00  0.00000000000E+00  0.72371140708E+02  0.72371140708E+02  0.00000000000E+00 0. -1.
         21   -1    0    0  502  503 -0.00000000000E+00 -0.00000000000E+00 -0.11952448340E+04  0.11952448340E+04  0.00000000000E+00 0. -1.
          6    1    1    2  501    0 -0.18989233496E+03  0.12270852155E+03 -0.40226220948E+03  0.49280864980E+03  0.17300000000E+03 0. -1.
         -6    1    1    2    0  503  0.18989233496E+03 -0.12270852155E+03 -0.72061148379E+03  0.77480732489E+03  0.17300000000E+03 0. -1.
<mgrwt>
<rscale>  2 0.28468488E+03</rscale>
<asrwt>0</asrwt>
<pdfrwt beam="1">  1       21 0.11134021E-01 0.28468488E+03</pdfrwt>
<pdfrwt beam="2">  1       21 0.18388382E+00 0.28468488E+03</pdfrwt>
<totfact> 0.10798477E+04</totfact>
</mgrwt>
</event>
<event>
 4    3  0.3905963E+000  0.1866817E+03  0.7546771E-02  0.1161489E+00
         21   -1    0    0  503  502  0.00000000000E+00  0.00000000000E+00  0.18904854617E+03  0.18904854617E+03  0.00000000000E+00 0. -1.
         21   -1    0    0  501  503 -0.00000000000E+00 -0.00000000000E+00 -0.24973391041E+03  0.24973391041E+03  0.00000000000E+00 0. -1.
          6    1    1    2  501    0  0.66326008052E+02 -0.22845533049E+02 -0.14260506250E+03  0.23491756336E+03  0.17300000000E+03 0. -1.
         -6    1    1    2    0  502 -0.66326008052E+02  0.22845533049E+02  0.81919698253E+02  0.20386489322E+03  0.17300000000E+03 0. -1.
<mgrwt>
<rscale>  2 0.18668170E+03</rscale>
<asrwt>0</asrwt>
<pdfrwt beam="1">  1       21 0.29084392E-01 0.18668170E+03</pdfrwt>
<pdfrwt beam="2">  1       21 0.38420601E-01 0.18668170E+03</pdfrwt>
<totfact> 0.74123825E+04</totfact>
</mgrwt>
</event>
<event>
 4    3  0.3905963E+000  0.2213602E+03  0.7546771E-02  0.1132873E+00
         21   -1    0    0  501  502  0.00000000000E+00  0.00000000000E+00  0.41405649461E+03  0.41405649461E+03  0.00000000000E+00 0.  1.
         21   -1    0    0  502  503 -0.00000000000E+00 -0.00000000000E+00 -0.58751298399E+03  0.58751298399E+03  0.00000000000E+00 0. -1.
          6    1    1    2  501    0  0.13761484895E+03  0.11554773688E+02  0.36078699377E+03  0.42328195605E+03  0.17300000000E+03 0.  1.
         -6    1    1    2    0  503 -0.13761484895E+03 -0.11554773688E+02 -0.53424348315E+03  0.57828752255E+03  0.17300000000E+03 0. -1.
<mgrwt>
<rscale>  2 0.22136025E+03</rscale>
<asrwt>0</asrwt>
<pdfrwt beam="1">  1       21 0.63700999E-01 0.22136025E+03</pdfrwt>
<pdfrwt beam="2">  1       21 0.90386613E-01 0.22136025E+03</pdfrwt>
<totfact> 0.23116491E+03</totfact>
</mgrwt>
</event>
<event>
 4    3  0.3905963E+000  0.2706215E+03  0.7546771E-02  0.1100924E+00
         21   -1    0    0  503  502  0.00000000000E+00  0.00000000000E+00  0.85047758309E+03  0.85047758309E+03  0.00000000000E+00 0. -1.
         21   -1    0    0  501  503 -0.00000000000E+00 -0.00000000000E+00 -0.87059719713E+02  0.87059719713E+02  0.00000000000E+00 0.  1.
          6    1    1    2  501    0  0.10403354177E+03  0.18023329780E+03  0.33279051872E+03  0.42893536670E+03  0.17300000000E+03 0.  1.
         -6    1    1    2    0  502 -0.10403354177E+03 -0.18023329780E+03  0.43062734465E+03  0.50860193611E+03  0.17300000000E+03 0. -1.
<mgrwt>
<rscale>  2 0.27062154E+03</rscale>
<asrwt>0</asrwt>
<pdfrwt beam="1">  1       21 0.13084270E+00 0.27062154E+03</pdfrwt>
<pdfrwt beam="2">  1       21 0.13393804E-01 0.27062154E+03</pdfrwt>
<totfact> 0.19598330E+04</totfact>
</mgrwt>
</event>
<event>
 4    3  0.3905963E+000  0.2582232E+03  0.7546771E-02  0.1108216E+00
         21   -1    0    0  501  502  0.00000000000E+00  0.00000000000E+00  0.89653167569E+02  0.89653167569E+02  0.00000000000E+00 0. -1.
         21   -1    0    0  502  503 -0.00000000000E+00 -0.00000000000E+00 -0.74590153130E+03  0.74590153130E+03  0.00000000000E+00 0.  1.
          6    1    1    2  501    0 -0.11197067548E+03 -0.15560450933E+03 -0.30566627600E+03  0.40013881063E+03  0.17300000000E+03 0. -1.
         -6    1    1    2    0  503  0.11197067548E+03  0.15560450933E+03 -0.35058208773E+03  0.43541588824E+03  0.17300000000E+03 0. -1.
<mgrwt>
<rscale>  2 0.25822315E+03</rscale>
<asrwt>0</asrwt>
<pdfrwt beam="1">  1       21 0.13792795E-01 0.25822315E+03</pdfrwt>
<pdfrwt beam="2">  1       21 0.11475408E+00 0.25822315E+03</pdfrwt>
<totfact> 0.25987849E+04</totfact>
</mgrwt>
</event>
<event>
 4    3  0.3905963E+000  0.3101042E+03  0.7546771E-02  0.1080296E+00
         21   -1    0    0  501  502  0.00000000000E+00  0.00000000000E+00  0.72218261427E+03  0.72218261427E+03  0.00000000000E+00 0. -1.
         21   -1    0    0  502  503 -0.00000000000E+00 -0.00000000000E+00 -0.14386296241E+03  0.14386296241E+03  0.00000000000E+00 0.  1.
          6    1    1    2  501    0  0.19046048928E+03  0.17309084401E+03  0.40727941421E+03  0.51189955997E+03  0.17300000000E+03 0.  1.
         -6    1    1    2    0  503 -0.19046048928E+03 -0.17309084401E+03  0.17104023765E+03  0.35414601671E+03  0.17300000000E+03 0. -1.
<mgrwt>
<rscale>  2 0.31010424E+03</rscale>
<asrwt>0</asrwt>
<pdfrwt beam="1">  1       21 0.11110502E+00 0.31010424E+03</pdfrwt>
<pdfrwt beam="2">  1       21 0.22132764E-01 0.31010424E+03</pdfrwt>
<totfact> 0.11392345E+04</totfact>
</mgrwt>
</event>
<event>
 4    3  0.3905963E+000  0.3249059E+03  0.7546771E-02  0.1073413E+00
         21   -1    0    0  501  502  0.00000000000E+00  0.00000000000E+00  0.45683784799E+03  0.45683784799E+03  0.00000000000E+00 0.  1.
         21   -1    0    0  502  503 -0.00000000000E+00 -0.00000000000E+00 -0.27870756169E+03  0.27870756169E+03  0.00000000000E+00 0. -1.
          6    1    1    2  501    0  0.10065872295E+03  0.25593487968E+03  0.24110474855E+03  0.40459280878E+03  0.17300000000E+03 0.  1.
         -6    1    1    2    0  503 -0.10065872295E+03 -0.25593487968E+03 -0.62974462248E+02  0.33095260090E+03  0.17300000000E+03 0. -1.
<mgrwt>
<rscale>  2 0.32490590E+03</rscale>
<asrwt>0</asrwt>
<pdfrwt beam="1">  1       21 0.70282746E-01 0.32490590E+03</pdfrwt>
<pdfrwt beam="2">  1       21 0.42878086E-01 0.32490590E+03</pdfrwt>
<totfact> 0.89338533E+03</totfact>
</mgrwt>
</event>
<event>
 4    3  0.3905963E+000  0.2207653E+03  0.7546771E-02  0.1133314E+00
         21   -1    0    0  501  502  0.00000000000E+00  0.00000000000E+00  0.55372959302E+03  0.55372959302E+03  0.00000000000E+00 0. -1.
         21   -1    0    0  502  503 -0.00000000000E+00 -0.00000000000E+00 -0.17088841723E+03  0.17088841723E+03  0.00000000000E+00 0. -1.
          6    1    1    2  501    0  0.13713505226E+03  0.15096848749E+01  0.44372607324E+03  0.49561086528E+03  0.17300000000E+03 0. -1.
         -6    1    1    2    0  503 -0.13713505226E+03 -0.15096848749E+01 -0.60884897454E+02  0.22900714496E+03  0.17300000000E+03 0. -1.
<mgrwt>
<rscale>  2 0.22076526E+03</rscale>
<asrwt>0</asrwt>
<pdfrwt beam="1">  1       21 0.85189168E-01 0.22076526E+03</pdfrwt>
<pdfrwt beam="2">  1       21 0.26290526E-01 0.22076526E+03</pdfrwt>
<totfact> 0.16117014E+04</totfact>
</mgrwt>
</event>
<event>
 4    3  0.3905963E+000  0.1850537E+03  0.7546771E-02  0.1163000E+00
         21   -1    0    0  503  502  0.00000000000E+00  0.00000000000E+00  0.34202182668E+03  0.34202182668E+03  0.00000000000E+00 0. -1.
         21   -1    0    0  501  503 -0.00000000000E+00 -0.00000000000E+00 -0.16911016067E+03  0.16911016067E+03  0.00000000000E+00 0. -1.
          6    1    1    2  501    0 -0.64439334681E+02 -0.12784515914E+02 -0.76772911450E+02  0.20034707793E+03  0.17300000000E+03 0. -1.
         -6    1    1    2    0  502  0.64439334681E+02  0.12784515914E+02  0.24968457746E+03  0.31078490942E+03  0.17300000000E+03 0. -1.
<mgrwt>
<rscale>  2 0.18505370E+03</rscale>
<asrwt>0</asrwt>
<pdfrwt beam="1">  1       21 0.52618743E-01 0.18505370E+03</pdfrwt>
<pdfrwt beam="2">  1       21 0.26016948E-01 0.18505370E+03</pdfrwt>
<totfact> 0.48230677E+04</totfact>
</mgrwt>
</event>
