<event>
 4    2  0.9452525E-001  0.1935867E+03  0.7546771E-02  0.1155266E+00
          2   -1    0    0  502    0  0.00000000000E+00  0.00000000000E+00  0.25833564966E+04  0.25833564966E+04  0.00000000000E+00 0. -1.
         -2   -1    0    0    0  501 -0.00000000000E+00 -0.00000000000E+00 -0.14786354320E+02  0.14786354320E+02  0.00000000000E+00 0.  1.
          6    1    1    2  502    0 -0.53913769116E+02 -0.68118350721E+02  0.11056094172E+04  0.11224295022E+04  0.17300000000E+03 0. -1.
         -6    1    1    2    0  501  0.53913769116E+02  0.68118350721E+02  0.14629607252E+04  0.14757133487E+04  0.17300000000E+03 0.  1.
<mgrwt>
<rscale>  2 0.19358668E+03</rscale>
<asrwt>0</asrwt>
<pdfrwt beam="1">  1        2 0.39743910E+00 0.19358668E+03</pdfrwt>
<pdfrwt beam="2">  1       -2 0.22748258E-02 0.19358668E+03</pdfrwt>
<totfact> 0.23228017E+03</totfact>
</mgrwt>
</event>
<event>
 4    2  0.9452525E-001  0.2320369E+03  0.7546771E-02  0.1125214E+00
          2   -1    0    0  502    0  0.00000000000E+00  0.00000000000E+00  0.50576042677E+03  0.50576042677E+03  0.00000000000E+00 0.  1.
         -2   -1    0    0    0  501 -0.00000000000E+00 -0.00000000000E+00 -0.10802757379E+03  0.10802757379E+03  0.00000000000E+00 0. -1.
          6    1    1    2  502    0  0.15384693275E+03 -0.15595557399E+02  0.16184744226E+03  0.28290580533E+03  0.17300000000E+03 0.  1.
         -6    1    1    2    0  501 -0.15384693275E+03  0.15595557399E+02  0.23588541073E+03  0.33088219523E+03  0.17300000000E+03 0.  1.
<mgrwt>
<rscale>  2 0.23203685E+03</rscale>
<asrwt>0</asrwt>
<pdfrwt beam="1">  1        2 0.77809295E-01 0.23203685E+03</pdfrwt>
<pdfrwt beam="2">  1       -2 0.16619627E-01 0.23203685E+03</pdfrwt>
<totfact> 0.17646362E+03</totfact>
</mgrwt>
</event>
<event>
 4    2  0.9452525E-001  0.2118979E+03  0.7546771E-02  0.1140072E+00
         -2   -1    0    0    0  501 -0.00000000000E+00  0.00000000000E+00  0.13224382282E+03  0.13224382282E+03  0.00000000000E+00 0. -1.
          2   -1    0    0  502    0  0.00000000000E+00 -0.00000000000E+00 -0.47188522956E+03  0.47188522956E+03  0.00000000000E+00 0.  1.
          6    1    1    2  502    0 -0.54205692708E+02 -0.10969712487E+03 -0.98455834812E+01  0.21212649962E+03  0.17300000000E+03 0. -1.
         -6    1    1    2    0  501  0.54205692708E+02  0.10969712487E+03 -0.32979582326E+03  0.39200255276E+03  0.17300000000E+03 0.  1.
<mgrwt>
<rscale>  2 0.21189789E+03</rscale>
<asrwt>0</asrwt>
<pdfrwt beam="1">  1        2 0.72597728E-01 0.21189789E+03</pdfrwt>
<pdfrwt beam="2">  1       -2 0.20345203E-01 0.21189789E+03</pdfrwt>
<totfact> 0.13517164E+03</totfact>
</mgrwt>
</event>
<event>
 4    2  0.9452525E-001  0.1754928E+03  0.7546771E-02  0.1172238E+00
         -2   -1    0    0    0  501 -0.00000000000E+00  0.00000000000E+00  0.44904138773E+03  0.44904138773E+03  0.00000000000E+00 0. -1.
          2   -1    0    0  502    0  0.00000000000E+00 -0.00000000000E+00 -0.79527469977E+02  0.79527469977E+02  0.00000000000E+00 0.  1.
          6    1    1    2  502    0  0.29401499864E+02  0.20659429993E+01  0.28278747136E+03  0.33281597058E+03  0.17300000000E+03 0. -1.
         -6    1    1    2    0  501 -0.29401499864E+02 -0.20659429993E+01  0.86726446393E+02  0.19575288713E+03  0.17300000000E+03 0.  1.
<mgrwt>
<rscale>  2 0.17549278E+03</rscale>
<asrwt>0</asrwt>
<pdfrwt beam="1">  1        2 0.12234996E-01 0.17549278E+03</pdfrwt>
<pdfrwt beam="2">  1       -2 0.69083289E-01 0.17549278E+03</pdfrwt>
<totfact> 0.96657643E+02</totfact>
</mgrwt>
</event>
<event>
 4    2  0.9452525E-001  0.2761312E+03  0.7546771E-02  0.1097821E+00
          1   -1    0    0  502    0  0.00000000000E+00  0.00000000000E+00  0.34585606174E+03  0.34585606174E+03  0.00000000000E+00 0. -1.
         -1   -1    0    0    0  501 -0.00000000000E+00 -0.00000000000E+00 -0.23239000030E+03  0.23239000030E+03  0.00000000000E+00 0.  1.
          6    1    1    2  502    0  0.17159682277E+03 -0.12989990568E+03 -0.87667889134E+01  0.27627035973E+03  0.17300000000E+03 0. -1.
         -6    1    1    2    0  501 -0.17159682277E+03  0.12989990568E+03  0.12223285035E+03  0.30197570231E+03  0.17300000000E+03 0. -1.
<mgrwt>
<rscale>  2 0.27613123E+03</rscale>
<asrwt>0</asrwt>
<pdfrwt beam="1">  1        1 0.53208625E-01 0.27613123E+03</pdfrwt>
<pdfrwt beam="2">  1       -1 0.35752308E-01 0.27613123E+03</pdfrwt>
<totfact> 0.55299268E+02</totfact>
</mgrwt>
</event>
<event>
 4    2  0.9452525E-001  0.1786171E+03  0.7546771E-02  0.1169148E+00
          2   -1    0    0  502    0  0.00000000000E+00  0.00000000000E+00  0.31304938718E+02  0.31304938718E+02  0.00000000000E+00 0. -1.
         -2   -1    0    0    0  501 -0.00000000000E+00 -0.00000000000E+00 -0.10472923191E+04  0.10472923191E+04  0.00000000000E+00 0.  1.
          6    1    1    2  502    0  0.15438513262E+02  0.41674039750E+02 -0.41957119123E+03  0.45600883522E+03  0.17300000000E+03 0. -1.
         -6    1    1    2    0  501 -0.15438513262E+02 -0.41674039750E+02 -0.59641618915E+03  0.62258842260E+03  0.17300000000E+03 0.  1.
<mgrwt>
<rscale>  2 0.17861711E+03</rscale>
<asrwt>0</asrwt>
<pdfrwt beam="1">  1        2 0.48161446E-02 0.17861711E+03</pdfrwt>
<pdfrwt beam="2">  1       -2 0.16112189E+00 0.17861711E+03</pdfrwt>
<totfact> 0.42997024E+02</totfact>
</mgrwt>
</event>
<event>
 4    2  0.9452525E-001  0.1908396E+03  0.7546771E-02  0.1157706E+00
          2   -1    0    0  502    0  0.00000000000E+00  0.00000000000E+00  0.54170454217E+03  0.54170454217E+03  0.00000000000E+00 0. -1.
         -2   -1    0    0    0  501 -0.00000000000E+00 -0.00000000000E+00 -0.69667821343E+02  0.69667821343E+02  0.00000000000E+00 0.  1.
          6    1    1    2  502    0  0.93173634307E+01 -0.80024708416E+02  0.29317950698E+03  0.34981994016E+03  0.17300000000E+03 0. -1.
         -6    1    1    2    0  501 -0.93173634307E+01  0.80024708416E+02  0.17885721385E+03  0.26155242336E+03  0.17300000000E+03 0. -1.
<mgrwt>
<rscale>  2 0.19083964E+03</rscale>
<asrwt>0</asrwt>
<pdfrwt beam="1">  1        2 0.83339157E-01 0.19083964E+03</pdfrwt>
<pdfrwt beam="2">  1       -2 0.10718127E-01 0.19083964E+03</pdfrwt>
<totfact> 0.33237441E+03</totfact>
</mgrwt>
</event>
<event>
 4    2  0.9452525E-001  0.2327031E+03  0.7546771E-02  0.1124752E+00
         -2   -1    0    0    0  501 -0.00000000000E+00  0.00000000000E+00  0.16611632457E+03  0.16611632457E+03  0.00000000000E+00 0. -1.
          2   -1    0    0  502    0  0.00000000000E+00 -0.00000000000E+00 -0.37795734498E+03  0.37795734498E+03  0.00000000000E+00 0.  1.
          6    1    1    2  502    0 -0.64441315198E+02 -0.14166532960E+03 -0.20680156420E+03  0.31131597400E+03  0.17300000000E+03 0.  1.
         -6    1    1    2    0  501  0.64441315198E+02  0.14166532960E+03 -0.50394562108E+01  0.23275769554E+03  0.17300000000E+03 0. -1.
<mgrwt>
<rscale>  2 0.23270313E+03</rscale>
<asrwt>0</asrwt>
<pdfrwt beam="1">  1        2 0.58147283E-01 0.23270313E+03</pdfrwt>
<pdfrwt beam="2">  1       -2 0.25556358E-01 0.23270313E+03</pdfrwt>
<totfact> 0.11598197E+03</totfact>
</mgrwt>
</event>
<event>
 4    2  0.9452525E-001  0.3429395E+03  0.7546771E-02  0.1065551E+00
         -2   -1    0    0    0  501 -0.00000000000E+00  0.00000000000E+00  0.29285269547E+03  0.29285269547E+03  0.00000000000E+00 0. -1.
          2   -1    0    0  502    0  0.00000000000E+00 -0.00000000000E+00 -0.57920344015E+03  0.57920344015E+03  0.00000000000E+00 0.  1.
          6    1    1    2  502    0 -0.59120020474E+02  0.29014361359E+03 -0.38462889144E+03  0.51531240763E+03  0.17300000000E+03 0. -1.
         -6    1    1    2    0  501  0.59120020474E+02 -0.29014361359E+03  0.98278146763E+02  0.35674372799E+03  0.17300000000E+03 0. -1.
<mgrwt>
<rscale>  2 0.34293949E+03</rscale>
<asrwt>0</asrwt>
<pdfrwt beam="1">  1        2 0.89108221E-01 0.34293949E+03</pdfrwt>
<pdfrwt beam="2">  1       -2 0.45054261E-01 0.34293949E+03</pdfrwt>
<totfact> 0.24919731E+02</totfact>
</mgrwt>
</event>
<event>
 4    2  0.9452525E-001  0.2515395E+03  0.7546771E-02  0.1112336E+00
          1   -1    0    0  502    0  0.00000000000E+00  0.00000000000E+00  0.46876846717E+03  0.46876846717E+03  0.00000000000E+00 0.  1.
         -1   -1    0    0    0  501 -0.00000000000E+00 -0.00000000000E+00 -0.13607393485E+03  0.13607393485E+03  0.00000000000E+00 0. -1.
          6    1    1    2  502    0  0.48923549346E+02  0.17592504630E+03  0.19352189550E+03  0.31736864942E+03  0.17300000000E+03 0. -1.
         -6    1    1    2    0  501 -0.48923549346E+02 -0.17592504630E+03  0.13917263681E+03  0.28747375260E+03  0.17300000000E+03 0. -1.
<mgrwt>
<rscale>  2 0.25153953E+03</rscale>
<asrwt>0</asrwt>
<pdfrwt beam="1">  1        1 0.72118225E-01 0.25153953E+03</pdfrwt>
<pdfrwt beam="2">  1       -1 0.20934452E-01 0.25153953E+03</pdfrwt>
<totfact> 0.92241239E+02</totfact>
</mgrwt>
</event>
<event>
 4    2  0.9452525E-001  0.1772024E+03  0.7546771E-02  0.1170538E+00
          1   -1    0    0  502    0  0.00000000000E+00  0.00000000000E+00  0.18528762411E+03  0.18528762411E+03  0.00000000000E+00 0. -1.
         -1   -1    0    0    0  501 -0.00000000000E+00 -0.00000000000E+00 -0.20982289087E+03  0.20982289087E+03  0.00000000000E+00 0.  1.
          6    1    1    2  502    0 -0.36684841468E+02  0.11220552512E+02  0.74368673030E+02  0.19217538323E+03  0.17300000000E+03 0. -1.
         -6    1    1    2    0  501  0.36684841468E+02 -0.11220552512E+02 -0.98903939788E+02  0.20293513175E+03  0.17300000000E+03 0. -1.
<mgrwt>
<rscale>  2 0.17720237E+03</rscale>
<asrwt>0</asrwt>
<pdfrwt beam="1">  1        1 0.28505788E-01 0.17720237E+03</pdfrwt>
<pdfrwt beam="2">  1       -1 0.32280445E-01 0.17720237E+03</pdfrwt>
<totfact> 0.14411908E+03</totfact>
</mgrwt>
</event>
<event>
 4    2  0.9452525E-001  0.1893804E+03  0.7546771E-02  0.1159021E+00
         -1   -1    0    0    0  501 -0.00000000000E+00  0.00000000000E+00  0.11685427307E+03  0.11685427307E+03  0.00000000000E+00 0.  1.
          1   -1    0    0  502    0  0.00000000000E+00 -0.00000000000E+00 -0.31087431859E+03  0.31087431859E+03  0.00000000000E+00 0. -1.
          6    1    1    2  502    0 -0.49828352587E+02 -0.58762957644E+02 -0.12112931587E+03  0.22480494006E+03  0.17300000000E+03 0.  1.
         -6    1    1    2    0  501  0.49828352587E+02  0.58762957644E+02 -0.72890729651E+02  0.20292365161E+03  0.17300000000E+03 0.  1.
<mgrwt>
<rscale>  2 0.18938044E+03</rscale>
<asrwt>0</asrwt>
<pdfrwt beam="1">  1        1 0.47826817E-01 0.18938044E+03</pdfrwt>
<pdfrwt beam="2">  1       -1 0.17977581E-01 0.18938044E+03</pdfrwt>
<totfact> 0.19868886E+03</totfact>
</mgrwt>
</event>
<event>
 4    2  0.9452525E-001  0.1765204E+03  0.7546771E-02  0.1171214E+00
          2   -1    0    0  502    0  0.00000000000E+00  0.00000000000E+00  0.20690524854E+04  0.20690524854E+04  0.00000000000E+00 0. -1.
         -2   -1    0    0    0  501 -0.00000000000E+00 -0.00000000000E+00 -0.15061481950E+02  0.15061481950E+02  0.00000000000E+00 0.  1.
          6    1    1    2  502    0 -0.21162184523E+02  0.27975037313E+02  0.10381268144E+04  0.10530274087E+04  0.17300000000E+03 0. -1.
         -6    1    1    2    0  501  0.21162184523E+02 -0.27975037313E+02  0.10158641890E+04  0.10310865586E+04  0.17300000000E+03 0. -1.
<mgrwt>
<rscale>  2 0.17652037E+03</rscale>
<asrwt>0</asrwt>
<pdfrwt beam="1">  1        2 0.31831554E+00 0.17652037E+03</pdfrwt>
<pdfrwt beam="2">  1       -2 0.23171527E-02 0.17652037E+03</pdfrwt>
<totfact> 0.42442431E+03</totfact>
</mgrwt>
</event>
<event>
 4    2  0.9452525E-001  0.2015058E+03  0.7546771E-02  0.1148475E+00
          2   -1    0    0  502    0  0.00000000000E+00  0.00000000000E+00  0.68372761884E+03  0.68372761884E+03  0.00000000000E+00 0.  1.
         -2   -1    0    0    0  501 -0.00000000000E+00 -0.00000000000E+00 -0.81052747333E+02  0.81052747333E+02  0.00000000000E+00 0. -1.
          6    1    1    2  502    0  0.10312044368E+03 -0.64616514992E+01  0.49903850404E+03  0.53818584835E+03  0.17300000000E+03 0.  1.
         -6    1    1    2    0  501 -0.10312044368E+03  0.64616514992E+01  0.10363636746E+03  0.22659451782E+03  0.17300000000E+03 0. -1.
<mgrwt>
<rscale>  2 0.20150578E+03</rscale>
<asrwt>0</asrwt>
<pdfrwt beam="1">  1        2 0.10518886E+00 0.20150578E+03</pdfrwt>
<pdfrwt beam="2">  1       -2 0.12469654E-01 0.20150578E+03</pdfrwt>
<totfact> 0.19927511E+03</totfact>
</mgrwt>
</event>
<event>
 4    2  0.9452525E-001  0.2588720E+03  0.7546771E-02  0.1107823E+00
          1   -1    0    0  502    0  0.00000000000E+00  0.00000000000E+00  0.13692516568E+04  0.13692516568E+04  0.00000000000E+00 0. -1.
         -1   -1    0    0    0  501 -0.00000000000E+00 -0.00000000000E+00 -0.50317141736E+02  0.50317141736E+02  0.00000000000E+00 0.  1.
          6    1    1    2  502    0 -0.10803209276E+03  0.15942011114E+03  0.77678158010E+03  0.81878222263E+03  0.17300000000E+03 0.  1.
         -6    1    1    2    0  501  0.10803209276E+03 -0.15942011114E+03  0.54215293493E+03  0.60078657588E+03  0.17300000000E+03 0. -1.
<mgrwt>
<rscale>  2 0.25887199E+03</rscale>
<asrwt>0</asrwt>
<pdfrwt beam="1">  1        1 0.21065407E+00 0.25887199E+03</pdfrwt>
<pdfrwt beam="2">  1       -1 0.77410998E-02 0.25887199E+03</pdfrwt>
<totfact> 0.79474400E+02</totfact>
</mgrwt>
</event>
<event>
 4    2  0.9452525E-001  0.2005864E+03  0.7546771E-02  0.1149245E+00
         -2   -1    0    0    0  501 -0.00000000000E+00  0.00000000000E+00  0.10448901780E+02  0.10448901780E+02  0.00000000000E+00 0.  1.
          2   -1    0    0  502    0  0.00000000000E+00 -0.00000000000E+00 -0.39765080420E+04  0.39765080420E+04  0.00000000000E+00 0. -1.
          6    1    1    2  502    0  0.89774561418E+02 -0.47396750234E+02 -0.16283597863E+04  0.16406677047E+04  0.17300000000E+03 0.  1.
         -6    1    1    2    0  501 -0.89774561418E+02  0.47396750234E+02 -0.23376993539E+04  0.23462892390E+04  0.17300000000E+03 0. -1.
<mgrwt>
<rscale>  2 0.20058645E+03</rscale>
<asrwt>0</asrwt>
<pdfrwt beam="1">  1        2 0.61177045E+00 0.20058645E+03</pdfrwt>
<pdfrwt beam="2">  1       -2 0.16075234E-02 0.20058645E+03</pdfrwt>
<totfact> 0.50913835E+02</totfact>
</mgrwt>
</event>
<event>
 4    2  0.9452525E-001  0.1811111E+03  0.7546771E-02  0.1166732E+00
          1   -1    0    0  502    0  0.00000000000E+00  0.00000000000E+00  0.10644320334E+04  0.10644320334E+04  0.00000000000E+00 0.  1.
         -1   -1    0    0    0  501 -0.00000000000E+00 -0.00000000000E+00 -0.30975899049E+02  0.30975899049E+02  0.00000000000E+00 0. -1.
          6    1    1    2  502    0 -0.35452403164E+01  0.53475651510E+02  0.47733958795E+03  0.51054313849E+03  0.17300000000E+03 0. -1.
         -6    1    1    2    0  501  0.35452403164E+01 -0.53475651510E+02  0.55611654638E+03  0.58486479394E+03  0.17300000000E+03 0.  1.
<mgrwt>
<rscale>  2 0.18111105E+03</rscale>
<asrwt>0</asrwt>
<pdfrwt beam="1">  1        1 0.16375875E+00 0.18111105E+03</pdfrwt>
<pdfrwt beam="2">  1       -1 0.47655238E-02 0.18111105E+03</pdfrwt>
<totfact> 0.26917601E+03</totfact>
</mgrwt>
</event>
<event>
 4    2  0.9452525E-001  0.2299335E+03  0.7546771E-02  0.1126687E+00
         -4   -1    0    0    0  501 -0.00000000000E+00  0.00000000000E+00  0.36805026210E+02  0.36805026210E+02  0.00000000000E+00 0.  1.
          4   -1    0    0  502    0  0.00000000000E+00 -0.00000000000E+00 -0.16301021927E+04  0.16301021927E+04  0.00000000000E+00 0. -1.
          6    1    1    2  502    0 -0.12677993339E+03 -0.82868819987E+02 -0.50939830604E+03  0.55888820620E+03  0.17300000000E+03 0.  1.
         -6    1    1    2    0  501  0.12677993339E+03  0.82868819987E+02 -0.10838988605E+04  0.11080190127E+04  0.17300000000E+03 0. -1.
<mgrwt>
<rscale>  2 0.22993345E+03</rscale>
<asrwt>0</asrwt>
<pdfrwt beam="1">  1        4 0.25078495E+00 0.22993345E+03</pdfrwt>
<pdfrwt beam="2">  1       -4 0.56623117E-02 0.22993345E+03</pdfrwt>
<totfact> 0.25140903E+01</totfact>
</mgrwt>
</event>
<event>
 4    2  0.9452525E-001  0.1880398E+03  0.7546771E-02  0.1160241E+00
         -2   -1    0    0    0  501 -0.00000000000E+00  0.00000000000E+00  0.25820814171E+03  0.25820814171E+03  0.00000000000E+00 0.  1.
          2   -1    0    0  502    0  0.00000000000E+00 -0.00000000000E+00 -0.16381730290E+03  0.16381730290E+03  0.00000000000E+00 0. -1.
          6    1    1    2  502    0 -0.57830854694E+02  0.45667893250E+02 -0.38276495545E+02  0.19189594665E+03  0.17300000000E+03 0. -1.
         -6    1    1    2    0  501  0.57830854694E+02 -0.45667893250E+02  0.13266733436E+03  0.23012949796E+03  0.17300000000E+03 0.  1.
<mgrwt>
<rscale>  2 0.18803979E+03</rscale>
<asrwt>0</asrwt>
<pdfrwt beam="1">  1        2 0.25202662E-01 0.18803979E+03</pdfrwt>
<pdfrwt beam="2">  1       -2 0.39724329E-01 0.18803979E+03</pdfrwt>
<totfact> 0.12747345E+03</totfact>
</mgrwt>
</event>
<event>
 4    2  0.9452525E-001  0.2843678E+03  0.7546771E-02  0.1093327E+00
          2   -1    0    0  502    0  0.00000000000E+00  0.00000000000E+00  0.90610027538E+03  0.90610027538E+03  0.00000000000E+00 0. -1.
         -2   -1    0    0    0  501 -0.00000000000E+00 -0.00000000000E+00 -0.91244381392E+02  0.91244381392E+02  0.00000000000E+00 0.  1.
          6    1    1    2  502    0  0.22181763555E+03  0.41628822169E+02  0.48124346244E+03  0.55898147770E+03  0.17300000000E+03 0. -1.
         -6    1    1    2    0  501 -0.22181763555E+03 -0.41628822169E+02  0.33361243155E+03  0.43836317907E+03  0.17300000000E+03 0.  1.
<mgrwt>
<rscale>  2 0.28436776E+03</rscale>
<asrwt>0</asrwt>
<pdfrwt beam="1">  1        2 0.13940004E+00 0.28436776E+03</pdfrwt>
<pdfrwt beam="2">  1       -2 0.14037598E-01 0.28436776E+03</pdfrwt>
<totfact> 0.11517039E+03</totfact>
</mgrwt>
</event>
<event>
 4    2  0.9452525E-001  0.2498704E+03  0.7546771E-02  0.1113387E+00
          2   -1    0    0  502    0  0.00000000000E+00  0.00000000000E+00  0.44354522692E+03  0.44354522692E+03  0.00000000000E+00 0. -1.
         -2   -1    0    0    0  501 -0.00000000000E+00 -0.00000000000E+00 -0.15204108158E+03  0.15204108158E+03  0.00000000000E+00 0.  1.
          6    1    1    2  502    0 -0.17374296086E+03 -0.48162116368E+02  0.22685422007E+03  0.33748784136E+03  0.17300000000E+03 0.  1.
         -6    1    1    2    0  501  0.17374296086E+03  0.48162116368E+02  0.64649925269E+02  0.25809846714E+03  0.17300000000E+03 0. -1.
<mgrwt>
<rscale>  2 0.24987038E+03</rscale>
<asrwt>0</asrwt>
<pdfrwt beam="1">  1        2 0.68237727E-01 0.24987038E+03</pdfrwt>
<pdfrwt beam="2">  1       -2 0.23390936E-01 0.24987038E+03</pdfrwt>
<totfact> 0.11390431E+03</totfact>
</mgrwt>
</event>
<event>
 4    2  0.9452525E-001  0.3420004E+03  0.7546771E-02  0.1065947E+00
         -2   -1    0    0    0  501 -0.00000000000E+00  0.00000000000E+00  0.18697714868E+03  0.18697714868E+03  0.00000000000E+00 0.  1.
          2   -1    0    0  502    0  0.00000000000E+00 -0.00000000000E+00 -0.81359815764E+03  0.81359815764E+03  0.00000000000E+00 0. -1.
          6    1    1    2  502    0  0.20436724201E+03  0.21276589174E+03 -0.55382695414E+03  0.65091365742E+03  0.17300000000E+03 0.  1.
         -6    1    1    2    0  501 -0.20436724201E+03 -0.21276589174E+03 -0.72794054815E+02  0.34966164890E+03  0.17300000000E+03 0. -1.
<mgrwt>
<rscale>  2 0.34200043E+03</rscale>
<asrwt>0</asrwt>
<pdfrwt beam="1">  1        2 0.12516895E+00 0.34200043E+03</pdfrwt>
<pdfrwt beam="2">  1       -2 0.28765716E-01 0.34200043E+03</pdfrwt>
<totfact> 0.38375455E+02</totfact>
</mgrwt>
</event>
<event>
 4    2  0.9452525E-001  0.1791742E+03  0.7546771E-02  0.1168605E+00
          2   -1    0    0  502    0  0.00000000000E+00  0.00000000000E+00  0.16498129858E+04  0.16498129858E+04  0.00000000000E+00 0. -1.
         -2   -1    0    0    0  501 -0.00000000000E+00 -0.00000000000E+00 -0.19857753598E+02  0.19857753598E+02  0.00000000000E+00 0.  1.
          6    1    1    2  502    0 -0.44544461694E+02  0.13790516532E+02  0.93330760814E+03  0.95035071359E+03  0.17300000000E+03 0. -1.
         -6    1    1    2    0  501  0.44544461694E+02 -0.13790516532E+02  0.69664762407E+03  0.71932002582E+03  0.17300000000E+03 0.  1.
<mgrwt>
<rscale>  2 0.17917418E+03</rscale>
<asrwt>0</asrwt>
<pdfrwt beam="1">  1        2 0.25381727E+00 0.17917418E+03</pdfrwt>
<pdfrwt beam="2">  1       -2 0.30550403E-02 0.17917418E+03</pdfrwt>
<totfact> 0.46544633E+03</totfact>
</mgrwt>
</event>
<event>
 4    2  0.9452525E-001  0.4981927E+03  0.7546771E-02  0.1014252E+00
         -2   -1    0    0    0  501 -0.00000000000E+00  0.00000000000E+00  0.13869652147E+03  0.13869652147E+03  0.00000000000E+00 0.  1.
          2   -1    0    0  502    0  0.00000000000E+00 -0.00000000000E+00 -0.17894959906E+04  0.17894959906E+04  0.00000000000E+00 0. -1.
          6    1    1    2  502    0  0.24772784239E+03  0.39610338672E+03 -0.82722766361E+03  0.96566121611E+03  0.17300000000E+03 0.  1.
         -6    1    1    2    0  501 -0.24772784239E+03 -0.39610338672E+03 -0.82357180554E+03  0.96253129598E+03  0.17300000000E+03 0. -1.
<mgrwt>
<rscale>  2 0.49819271E+03</rscale>
<asrwt>0</asrwt>
<pdfrwt beam="1">  1        2 0.27530708E+00 0.49819271E+03</pdfrwt>
<pdfrwt beam="2">  1       -2 0.21337926E-01 0.49819271E+03</pdfrwt>
<totfact> 0.17442658E+02</totfact>
</mgrwt>
</event>
<event>
 4    2  0.9452525E-001  0.2040385E+03  0.7546771E-02  0.1146376E+00
          1   -1    0    0  502    0  0.00000000000E+00  0.00000000000E+00  0.59679031516E+03  0.59679031516E+03  0.00000000000E+00 0.  1.
         -1   -1    0    0    0  501 -0.00000000000E+00 -0.00000000000E+00 -0.10084880514E+03  0.10084880514E+03  0.00000000000E+00 0. -1.
          6    1    1    2  502    0  0.10800287673E+03  0.61730149817E+01  0.44164494023E+03  0.48649972325E+03  0.17300000000E+03 0.  1.
         -6    1    1    2    0  501 -0.10800287673E+03 -0.61730149817E+01  0.54296569791E+02  0.21113939705E+03  0.17300000000E+03 0. -1.
<mgrwt>
<rscale>  2 0.20403854E+03</rscale>
<asrwt>0</asrwt>
<pdfrwt beam="1">  1        1 0.91813892E-01 0.20403854E+03</pdfrwt>
<pdfrwt beam="2">  1       -1 0.15515201E-01 0.20403854E+03</pdfrwt>
<totfact> 0.10794351E+03</totfact>
</mgrwt>
</event>
<event>
 4    2  0.9452525E-001  0.1892523E+03  0.7546771E-02  0.1159137E+00
         -2   -1    0    0    0  501 -0.00000000000E+00  0.00000000000E+00  0.38827735161E+03  0.38827735161E+03  0.00000000000E+00 0.  1.
          2   -1    0    0  502    0  0.00000000000E+00 -0.00000000000E+00 -0.11575960824E+03  0.11575960824E+03  0.00000000000E+00 0. -1.
          6    1    1    2  502    0 -0.60842437356E+02 -0.46750901984E+02  0.24984554538E+03  0.31343140488E+03  0.17300000000E+03 0.  1.
         -6    1    1    2    0  501  0.60842437356E+02  0.46750901984E+02  0.22672197989E+02  0.19060555496E+03  0.17300000000E+03 0. -1.
<mgrwt>
<rscale>  2 0.18925234E+03</rscale>
<asrwt>0</asrwt>
<pdfrwt beam="1">  1        2 0.17809171E-01 0.18925234E+03</pdfrwt>
<pdfrwt beam="2">  1       -2 0.59734976E-01 0.18925234E+03</pdfrwt>
<totfact> 0.84259248E+02</totfact>
</mgrwt>
</event>
<event>
 4    2  0.9452525E-001  0.2648324E+03  0.7546771E-02  0.1104274E+00
          2   -1    0    0  502    0  0.00000000000E+00  0.00000000000E+00  0.19074483190E+04  0.19074483190E+04  0.00000000000E+00 0. -1.
         -2   -1    0    0    0  501 -0.00000000000E+00 -0.00000000000E+00 -0.43615594348E+02  0.43615594348E+02  0.00000000000E+00 0.  1.
          6    1    1    2  502    0 -0.11968206879E+03  0.16088315757E+03  0.54542694831E+03  0.60632231027E+03  0.17300000000E+03 0.  1.
         -6    1    1    2    0  501  0.11968206879E+03 -0.16088315757E+03  0.13184057763E+04  0.13447416030E+04  0.17300000000E+03 0. -1.
<mgrwt>
<rscale>  2 0.26483238E+03</rscale>
<asrwt>0</asrwt>
<pdfrwt beam="1">  1        2 0.29345352E+00 0.26483238E+03</pdfrwt>
<pdfrwt beam="2">  1       -2 0.67100929E-02 0.26483238E+03</pdfrwt>
<totfact> 0.10355015E+03</totfact>
</mgrwt>
</event>
<event>
 4    2  0.9452525E-001  0.1871663E+03  0.7546771E-02  0.1161042E+00
         -1   -1    0    0    0  501 -0.00000000000E+00  0.00000000000E+00  0.41790790651E+02  0.41790790651E+02  0.00000000000E+00 0. -1.
          1   -1    0    0  502    0  0.00000000000E+00 -0.00000000000E+00 -0.86523341931E+03  0.86523341931E+03  0.00000000000E+00 0.  1.
          6    1    1    2  502    0  0.67085916056E+02  0.24529354354E+02 -0.49180711104E+03  0.52621805730E+03  0.17300000000E+03 0.  1.
         -6    1    1    2    0  501 -0.67085916056E+02 -0.24529354354E+02 -0.33163551762E+03  0.38080615266E+03  0.17300000000E+03 0. -1.
<mgrwt>
<rscale>  2 0.18716626E+03</rscale>
<asrwt>0</asrwt>
<pdfrwt beam="1">  1        1 0.13311282E+00 0.18716626E+03</pdfrwt>
<pdfrwt beam="2">  1       -1 0.64293530E-02 0.18716626E+03</pdfrwt>
<totfact> 0.24313962E+03</totfact>
</mgrwt>
</event>
<event>
 4    2  0.9452525E-001  0.2645912E+03  0.7546771E-02  0.1104416E+00
         -1   -1    0    0    0  501 -0.00000000000E+00  0.00000000000E+00  0.15515778779E+03  0.15515778779E+03  0.00000000000E+00 0.  1.
          1   -1    0    0  502    0  0.00000000000E+00 -0.00000000000E+00 -0.45197532869E+03  0.45197532869E+03  0.00000000000E+00 0. -1.
          6    1    1    2  502    0  0.19269566360E+03  0.54294573998E+02 -0.13590522292E+03  0.29745377650E+03  0.17300000000E+03 0.  1.
         -6    1    1    2    0  501 -0.19269566360E+03 -0.54294573998E+02 -0.16091231798E+03  0.30967933999E+03  0.17300000000E+03 0.  1.
<mgrwt>
<rscale>  2 0.26459123E+03</rscale>
<asrwt>0</asrwt>
<pdfrwt beam="1">  1        1 0.69534666E-01 0.26459123E+03</pdfrwt>
<pdfrwt beam="2">  1       -1 0.23870429E-01 0.26459123E+03</pdfrwt>
<totfact> 0.77940340E+02</totfact>
</mgrwt>
</event>
<event>
 4    2  0.9452525E-001  0.1878131E+03  0.7546771E-02  0.1160449E+00
         -1   -1    0    0    0  501 -0.00000000000E+00  0.00000000000E+00  0.17207273390E+02  0.17207273390E+02  0.00000000000E+00 0. -1.
          1   -1    0    0  502    0  0.00000000000E+00 -0.00000000000E+00 -0.31632194643E+04  0.31632194643E+04  0.00000000000E+00 0.  1.
          6    1    1    2  502    0  0.72771540324E+02  0.70033833753E+01 -0.25164027916E+04  0.25234018218E+04  0.17300000000E+03 0.  1.
         -6    1    1    2    0  501 -0.72771540324E+02 -0.70033833753E+01 -0.62960939926E+03  0.65702491589E+03  0.17300000000E+03 0. -1.
<mgrwt>
<rscale>  2 0.18781306E+03</rscale>
<asrwt>0</asrwt>
<pdfrwt beam="1">  1        1 0.48664921E+00 0.18781306E+03</pdfrwt>
<pdfrwt beam="2">  1       -1 0.26472725E-02 0.18781306E+03</pdfrwt>
<totfact> 0.25753195E+02</totfact>
</mgrwt>
</event>
<event>
 4    2  0.9452525E-001  0.2927084E+03  0.7546771E-02  0.1088943E+00
         -2   -1    0    0    0  501 -0.00000000000E+00  0.00000000000E+00  0.13477854004E+03  0.13477854004E+03  0.00000000000E+00 0.  1.
          2   -1    0    0  502    0  0.00000000000E+00 -0.00000000000E+00 -0.10405288152E+04  0.10405288152E+04  0.00000000000E+00 0. -1.
          6    1    1    2  502    0 -0.16638082908E+03 -0.16753097138E+03 -0.86326047310E+02  0.30517272667E+03  0.17300000000E+03 0.  1.
         -6    1    1    2    0  501  0.16638082908E+03  0.16753097138E+03 -0.81942422780E+03  0.87013462853E+03  0.17300000000E+03 0. -1.
<mgrwt>
<rscale>  2 0.29270840E+03</rscale>
<asrwt>0</asrwt>
<pdfrwt beam="1">  1        2 0.16008135E+00 0.29270840E+03</pdfrwt>
<pdfrwt beam="2">  1       -2 0.20735161E-01 0.29270840E+03</pdfrwt>
<totfact> 0.49130176E+02</totfact>
</mgrwt>
</event>
<event>
 4    2  0.9452525E-001  0.2057235E+03  0.7546771E-02  0.1144998E+00
          2   -1    0    0  502    0  0.00000000000E+00  0.00000000000E+00  0.39603792125E+03  0.39603792125E+03  0.00000000000E+00 0. -1.
         -2   -1    0    0    0  501 -0.00000000000E+00 -0.00000000000E+00 -0.11685829073E+03  0.11685829073E+03  0.00000000000E+00 0.  1.
          6    1    1    2  502    0  0.80345052108E+02  0.77057248203E+02  0.21458760025E+03  0.29727089511E+03  0.17300000000E+03 0. -1.
         -6    1    1    2    0  501 -0.80345052108E+02 -0.77057248203E+02  0.64592030275E+02  0.21562531687E+03  0.17300000000E+03 0.  1.
<mgrwt>
<rscale>  2 0.20572347E+03</rscale>
<asrwt>0</asrwt>
<pdfrwt beam="1">  1        2 0.60928910E-01 0.20572347E+03</pdfrwt>
<pdfrwt beam="2">  1       -2 0.17978199E-01 0.20572347E+03</pdfrwt>
<totfact> 0.20187322E+03</totfact>
</mgrwt>
</event>
<event>
 4    2  0.9452525E-001  0.2021781E+03  0.7546771E-02  0.1147914E+00
         -2   -1    0    0    0  501 -0.00000000000E+00  0.00000000000E+00  0.24593308596E+03  0.24593308596E+03  0.00000000000E+00 0. -1.
          2   -1    0    0  502    0  0.00000000000E+00 -0.00000000000E+00 -0.18179436145E+03  0.18179436145E+03  0.00000000000E+00 0.  1.
          6    1    1    2  502    0  0.10459839868E+03 -0.24785249430E+01 -0.30552175013E+02  0.20447347870E+03  0.17300000000E+03 0.  1.
         -6    1    1    2    0  501 -0.10459839868E+03  0.24785249430E+01  0.94690899528E+02  0.22325396871E+03  0.17300000000E+03 0.  1.
<mgrwt>
<rscale>  2 0.20217806E+03</rscale>
<asrwt>0</asrwt>
<pdfrwt beam="1">  1        2 0.27968363E-01 0.20217806E+03</pdfrwt>
<pdfrwt beam="2">  1       -2 0.37835859E-01 0.20217806E+03</pdfrwt>
<totfact> 0.12479943E+03</totfact>
</mgrwt>
</event>
<event>
 4    2  0.9452525E-001  0.2000645E+03  0.7546771E-02  0.1149685E+00
         -2   -1    0    0    0  501 -0.00000000000E+00  0.00000000000E+00  0.53336269915E+02  0.53336269915E+02  0.00000000000E+00 0.  1.
          2   -1    0    0  502    0  0.00000000000E+00 -0.00000000000E+00 -0.77399100536E+03  0.77399100536E+03  0.00000000000E+00 0. -1.
          6    1    1    2  502    0 -0.92918955648E+02 -0.38247697643E+02 -0.43248104628E+03  0.47651408593E+03  0.17300000000E+03 0.  1.
         -6    1    1    2    0  501  0.92918955648E+02  0.38247697643E+02 -0.28817368916E+03  0.35081318934E+03  0.17300000000E+03 0. -1.
<mgrwt>
<rscale>  2 0.20006454E+03</rscale>
<asrwt>0</asrwt>
<pdfrwt beam="1">  1        2 0.11907553E+00 0.20006454E+03</pdfrwt>
<pdfrwt beam="2">  1       -2 0.82055806E-02 0.20006454E+03</pdfrwt>
<totfact> 0.33281351E+03</totfact>
</mgrwt>
</event>
<event>
 4    2  0.9452525E-001  0.2259933E+03  0.7546771E-02  0.1129492E+00
          2   -1    0    0  502    0  0.00000000000E+00  0.00000000000E+00  0.29409450753E+03  0.29409450753E+03  0.00000000000E+00 0. -1.
         -2   -1    0    0    0  501 -0.00000000000E+00 -0.00000000000E+00 -0.35046637233E+03  0.35046637233E+03  0.00000000000E+00 0.  1.
          6    1    1    2  502    0  0.13072721278E+03 -0.63673978257E+02 -0.25709211619E+03  0.34230006701E+03  0.17300000000E+03 0.  1.
         -6    1    1    2    0  501 -0.13072721278E+03  0.63673978257E+02  0.20072025139E+03  0.30226081285E+03  0.17300000000E+03 0. -1.
<mgrwt>
<rscale>  2 0.22599332E+03</rscale>
<asrwt>0</asrwt>
<pdfrwt beam="1">  1        2 0.45245309E-01 0.22599332E+03</pdfrwt>
<pdfrwt beam="2">  1       -2 0.53917903E-01 0.22599332E+03</pdfrwt>
<totfact> 0.37071057E+02</totfact>
</mgrwt>
</event>
<event>
 4    2  0.9452525E-001  0.1777838E+03  0.7546771E-02  0.1169965E+00
         -2   -1    0    0    0  501 -0.00000000000E+00  0.00000000000E+00  0.17596975860E+03  0.17596975860E+03  0.00000000000E+00 0. -1.
          2   -1    0    0  502    0  0.00000000000E+00 -0.00000000000E+00 -0.19087809704E+03  0.19087809704E+03  0.00000000000E+00 0.  1.
          6    1    1    2  502    0 -0.34312078232E+02  0.22377391788E+02 -0.52007334581E+02  0.18523452493E+03  0.17300000000E+03 0.  1.
         -6    1    1    2    0  501  0.34312078232E+02 -0.22377391788E+02  0.37098996143E+02  0.18161333071E+03  0.17300000000E+03 0. -1.
<mgrwt>
<rscale>  2 0.17778376E+03</rscale>
<asrwt>0</asrwt>
<pdfrwt beam="1">  1        2 0.29365861E-01 0.17778376E+03</pdfrwt>
<pdfrwt beam="2">  1       -2 0.27072271E-01 0.17778376E+03</pdfrwt>
<totfact> 0.21749283E+03</totfact>
</mgrwt>
</event>
<event>
 4    2  0.9452525E-001  0.1790530E+03  0.7546771E-02  0.1168723E+00
          4   -1    0    0  502    0  0.00000000000E+00  0.00000000000E+00  0.53716354014E+02  0.53716354014E+02  0.00000000000E+00 0. -1.
         -4   -1    0    0    0  501 -0.00000000000E+00 -0.00000000000E+00 -0.64780905645E+03  0.64780905645E+03  0.00000000000E+00 0.  1.
          6    1    1    2  502    0  0.24231825405E+02 -0.39291247728E+02 -0.39543612433E+03  0.43408491328E+03  0.17300000000E+03 0.  1.
         -6    1    1    2    0  501 -0.24231825405E+02  0.39291247728E+02 -0.19865657811E+03  0.26744049719E+03  0.17300000000E+03 0. -1.
<mgrwt>
<rscale>  2 0.17905302E+03</rscale>
<asrwt>0</asrwt>
<pdfrwt beam="1">  1        4 0.82640542E-02 0.17905302E+03</pdfrwt>
<pdfrwt beam="2">  1       -4 0.99662935E-01 0.17905302E+03</pdfrwt>
<totfact> 0.15777321E+02</totfact>
</mgrwt>
</event>
<event>
 4    2  0.9452525E-001  0.1766695E+03  0.7546771E-02  0.1171066E+00
         -2   -1    0    0    0  501 -0.00000000000E+00  0.00000000000E+00  0.14485426769E+02  0.14485426769E+02  0.00000000000E+00 0.  1.
          2   -1    0    0  502    0  0.00000000000E+00 -0.00000000000E+00 -0.21728351200E+04  0.21728351200E+04  0.00000000000E+00 0. -1.
          6    1    1    2  502    0  0.42802255750E+01 -0.35563892886E+02 -0.97932899267E+03  0.99513686832E+03  0.17300000000E+03 0.  1.
         -6    1    1    2    0  501 -0.42802255750E+01  0.35563892886E+02 -0.11790207006E+04  0.11921836785E+04  0.17300000000E+03 0. -1.
<mgrwt>
<rscale>  2 0.17666950E+03</rscale>
<asrwt>0</asrwt>
<pdfrwt beam="1">  1        2 0.33428234E+00 0.17666950E+03</pdfrwt>
<pdfrwt beam="2">  1       -2 0.22285271E-02 0.17666950E+03</pdfrwt>
<totfact> 0.39682859E+03</totfact>
</mgrwt>
</event>
<event>
 4    2  0.9452525E-001  0.1748303E+03  0.7546771E-02  0.1172902E+00
          1   -1    0    0  502    0  0.00000000000E+00  0.00000000000E+00  0.30947401446E+02  0.30947401446E+02  0.00000000000E+00 0. -1.
         -1   -1    0    0    0  501 -0.00000000000E+00 -0.00000000000E+00 -0.10577252077E+04  0.10577252077E+04  0.00000000000E+00 0.  1.
          6    1    1    2  502    0  0.14555383264E+02 -0.20610161703E+02 -0.37329497334E+03  0.41220719919E+03  0.17300000000E+03 0. -1.
         -6    1    1    2    0  501 -0.14555383264E+02  0.20610161703E+02 -0.65348283292E+03  0.67646540996E+03  0.17300000000E+03 0.  1.
<mgrwt>
<rscale>  2 0.17483031E+03</rscale>
<asrwt>0</asrwt>
<pdfrwt beam="1">  1        1 0.47611388E-02 0.17483031E+03</pdfrwt>
<pdfrwt beam="2">  1       -1 0.16272695E+00 0.17483031E+03</pdfrwt>
<totfact> 0.53949173E+02</totfact>
</mgrwt>
</event>
<event>
 4    2  0.9452525E-001  0.1851197E+03  0.7546771E-02  0.1162938E+00
         -2   -1    0    0    0  501 -0.00000000000E+00  0.00000000000E+00  0.10992503375E+03  0.10992503375E+03  0.00000000000E+00 0.  1.
          2   -1    0    0  502    0  0.00000000000E+00 -0.00000000000E+00 -0.34001284860E+03  0.34001284860E+03  0.00000000000E+00 0. -1.
          6    1    1    2  502    0  0.62832429738E+02  0.19808565688E+02 -0.50184737383E+02  0.19180146341E+03  0.17300000000E+03 0.  1.
         -6    1    1    2    0  501 -0.62832429738E+02 -0.19808565688E+02 -0.17990307747E+03  0.25813641894E+03  0.17300000000E+03 0. -1.
<mgrwt>
<rscale>  2 0.18511967E+03</rscale>
<asrwt>0</asrwt>
<pdfrwt beam="1">  1        2 0.52309668E-01 0.18511967E+03</pdfrwt>
<pdfrwt beam="2">  1       -2 0.16911544E-01 0.18511967E+03</pdfrwt>
<totfact> 0.26276300E+03</totfact>
</mgrwt>
</event>
<event>
 4    2  0.9452525E-001  0.1788996E+03  0.7546771E-02  0.1168872E+00
         -1   -1    0    0    0  501 -0.00000000000E+00  0.00000000000E+00  0.38500486787E+03  0.38500486787E+03  0.00000000000E+00 0.  1.
          1   -1    0    0  502    0  0.00000000000E+00 -0.00000000000E+00 -0.83409749275E+02  0.83409749275E+02  0.00000000000E+00 0. -1.
          6    1    1    2  502    0  0.43912454024E+02 -0.12155781670E+02  0.13720950061E+03  0.22545845228E+03  0.17300000000E+03 0. -1.
         -6    1    1    2    0  501 -0.43912454024E+02  0.12155781670E+02  0.16438561799E+03  0.24295616487E+03  0.17300000000E+03 0.  1.
<mgrwt>
<rscale>  2 0.17889960E+03</rscale>
<asrwt>0</asrwt>
<pdfrwt beam="1">  1        1 0.12832269E-01 0.17889960E+03</pdfrwt>
<pdfrwt beam="2">  1       -1 0.59231517E-01 0.17889960E+03</pdfrwt>
<totfact> 0.13513010E+03</totfact>
</mgrwt>
</event>
<event>
 4    2  0.9452525E-001  0.2009412E+03  0.7546771E-02  0.1148947E+00
         -1   -1    0    0    0  501 -0.00000000000E+00  0.00000000000E+00  0.49650118796E+03  0.49650118796E+03  0.00000000000E+00 0. -1.
          1   -1    0    0  502    0  0.00000000000E+00 -0.00000000000E+00 -0.88258880338E+02  0.88258880338E+02  0.00000000000E+00 0.  1.
          6    1    1    2  502    0  0.62169654034E+02 -0.81137642506E+02  0.28607946815E+03  0.34959811929E+03  0.17300000000E+03 0.  1.
         -6    1    1    2    0  501 -0.62169654034E+02  0.81137642506E+02  0.12216283948E+03  0.23516194901E+03  0.17300000000E+03 0. -1.
<mgrwt>
<rscale>  2 0.20094124E+03</rscale>
<asrwt>0</asrwt>
<pdfrwt beam="1">  1        1 0.13578290E-01 0.20094124E+03</pdfrwt>
<pdfrwt beam="2">  1       -1 0.76384796E-01 0.20094124E+03</pdfrwt>
<totfact> 0.76175497E+02</totfact>
</mgrwt>
</event>
<event>
 4    2  0.9452525E-001  0.1857491E+03  0.7546771E-02  0.1162352E+00
         -2   -1    0    0    0  501 -0.00000000000E+00  0.00000000000E+00  0.60038104685E+02  0.60038104685E+02  0.00000000000E+00 0.  1.
          2   -1    0    0  502    0  0.00000000000E+00 -0.00000000000E+00 -0.13546284347E+04  0.13546284347E+04  0.00000000000E+00 0. -1.
          6    1    1    2  502    0 -0.28634095207E+01  0.67568583352E+02 -0.11057628842E+03  0.21617083090E+03  0.17300000000E+03 0.  1.
         -6    1    1    2    0  501  0.28634095207E+01 -0.67568583352E+02 -0.11840140416E+04  0.11984957085E+04  0.17300000000E+03 0. -1.
<mgrwt>
<rscale>  2 0.18574906E+03</rscale>
<asrwt>0</asrwt>
<pdfrwt beam="1">  1        2 0.20840433E+00 0.18574906E+03</pdfrwt>
<pdfrwt beam="2">  1       -2 0.92366333E-02 0.18574906E+03</pdfrwt>
<totfact> 0.12398777E+03</totfact>
</mgrwt>
</event>
<event>
 4    2  0.9452525E-001  0.1780853E+03  0.7546771E-02  0.1169669E+00
          2   -1    0    0  502    0  0.00000000000E+00  0.00000000000E+00  0.33303858516E+03  0.33303858516E+03  0.00000000000E+00 0. -1.
         -2   -1    0    0    0  501 -0.00000000000E+00 -0.00000000000E+00 -0.11448058071E+03  0.11448058071E+03  0.00000000000E+00 0.  1.
          6    1    1    2  502    0 -0.24542327961E+01  0.42182527694E+02  0.17516065760E+02  0.17894468827E+03  0.17300000000E+03 0.  1.
         -6    1    1    2    0  501  0.24542327961E+01 -0.42182527694E+02  0.20104193869E+03  0.26857447760E+03  0.17300000000E+03 0. -1.
<mgrwt>
<rscale>  2 0.17808534E+03</rscale>
<asrwt>0</asrwt>
<pdfrwt beam="1">  1        2 0.51236705E-01 0.17808534E+03</pdfrwt>
<pdfrwt beam="2">  1       -2 0.17612397E-01 0.17808534E+03</pdfrwt>
<totfact> 0.25068780E+03</totfact>
</mgrwt>
</event>
<event>
 4    2  0.9452525E-001  0.2085385E+03  0.7546771E-02  0.1142729E+00
         -1   -1    0    0    0  501 -0.00000000000E+00  0.00000000000E+00  0.11176667659E+03  0.11176667659E+03  0.00000000000E+00 0. -1.
          1   -1    0    0  502    0  0.00000000000E+00 -0.00000000000E+00 -0.55183687164E+03  0.55183687164E+03  0.00000000000E+00 0.  1.
          6    1    1    2  502    0  0.11602723077E+03  0.98482257321E+01 -0.39850519248E+02  0.21231196319E+03  0.17300000000E+03 0. -1.
         -6    1    1    2    0  501 -0.11602723077E+03 -0.98482257321E+01 -0.40021967580E+03  0.45129158504E+03  0.17300000000E+03 0.  1.
<mgrwt>
<rscale>  2 0.20853850E+03</rscale>
<asrwt>0</asrwt>
<pdfrwt beam="1">  1        1 0.84897978E-01 0.20853850E+03</pdfrwt>
<pdfrwt beam="2">  1       -1 0.17194874E-01 0.20853850E+03</pdfrwt>
<totfact> 0.10198572E+03</totfact>
</mgrwt>
</event>
<event>
 4    2  0.9452525E-001  0.2215394E+03  0.7546771E-02  0.1132741E+00
         -4   -1    0    0    0  501 -0.00000000000E+00  0.00000000000E+00  0.73733051264E+03  0.73733051264E+03  0.00000000000E+00 0.  1.
          4   -1    0    0  502    0  0.00000000000E+00 -0.00000000000E+00 -0.10662404282E+03  0.10662404282E+03  0.00000000000E+00 0. -1.
          6    1    1    2  502    0 -0.39098669405E+02 -0.13274791695E+03  0.56700633197E+02  0.22868029475E+03  0.17300000000E+03 0. -1.
         -6    1    1    2    0  501  0.39098669405E+02  0.13274791695E+03  0.57400583663E+03  0.61527426071E+03  0.17300000000E+03 0.  1.
<mgrwt>
<rscale>  2 0.22153942E+03</rscale>
<asrwt>0</asrwt>
<pdfrwt beam="1">  1        4 0.16403699E-01 0.22153942E+03</pdfrwt>
<pdfrwt beam="2">  1       -4 0.11343546E+00 0.22153942E+03</pdfrwt>
<totfact> 0.36680662E+01</totfact>
</mgrwt>
</event>
<event>
 4    2  0.9452525E-001  0.1849123E+03  0.7546771E-02  0.1163132E+00
          2   -1    0    0  502    0  0.00000000000E+00  0.00000000000E+00  0.10883097866E+04  0.10883097866E+04  0.00000000000E+00 0.  1.
         -2   -1    0    0    0  501 -0.00000000000E+00 -0.00000000000E+00 -0.32038377447E+02  0.32038377447E+02  0.00000000000E+00 0. -1.
          6    1    1    2  502    0  0.12821151393E+02 -0.64024776450E+02  0.45018790865E+03  0.48668440186E+03  0.17300000000E+03 0. -1.
         -6    1    1    2    0  501 -0.12821151393E+02  0.64024776450E+02  0.60608350049E+03  0.63366376217E+03  0.17300000000E+03 0.  1.
<mgrwt>
<rscale>  2 0.18491229E+03</rscale>
<asrwt>0</asrwt>
<pdfrwt beam="1">  1        2 0.16743225E+00 0.18491229E+03</pdfrwt>
<pdfrwt beam="2">  1       -2 0.49289820E-02 0.18491229E+03</pdfrwt>
<totfact> 0.45940217E+03</totfact>
</mgrwt>
</event>
<event>
 4    2  0.9452525E-001  0.2391729E+03  0.7546771E-02  0.1120345E+00
         -2   -1    0    0    0  501 -0.00000000000E+00  0.00000000000E+00  0.22251908225E+03  0.22251908225E+03  0.00000000000E+00 0.  1.
          2   -1    0    0  502    0  0.00000000000E+00 -0.00000000000E+00 -0.52101218509E+03  0.52101218509E+03  0.00000000000E+00 0. -1.
          6    1    1    2  502    0 -0.27339837933E+02 -0.16287172757E+03 -0.41385101650E+03  0.47799197717E+03  0.17300000000E+03 0. -1.
         -6    1    1    2    0  501  0.27339837933E+02  0.16287172757E+03  0.11535791367E+03  0.26553929017E+03  0.17300000000E+03 0.  1.
<mgrwt>
<rscale>  2 0.23917288E+03</rscale>
<asrwt>0</asrwt>
<pdfrwt beam="1">  1        2 0.80155721E-01 0.23917288E+03</pdfrwt>
<pdfrwt beam="2">  1       -2 0.34233705E-01 0.23917288E+03</pdfrwt>
<totfact> 0.47892802E+02</totfact>
</mgrwt>
</event>
<event>
 4    2  0.9452525E-001  0.1793590E+03  0.7546771E-02  0.1168425E+00
         -2   -1    0    0    0  501 -0.00000000000E+00  0.00000000000E+00  0.22702278567E+02  0.22702278567E+02  0.00000000000E+00 0. -1.
          2   -1    0    0  502    0  0.00000000000E+00 -0.00000000000E+00 -0.15514599334E+04  0.15514599334E+04  0.00000000000E+00 0.  1.
          6    1    1    2  502    0  0.31493826684E+02  0.35338052274E+02 -0.53268773088E+03  0.56207282241E+03  0.17300000000E+03 0. -1.
         -6    1    1    2    0  501 -0.31493826684E+02 -0.35338052274E+02 -0.99606992392E+03  0.10120893895E+04  0.17300000000E+03 0. -1.
<mgrwt>
<rscale>  2 0.17935897E+03</rscale>
<asrwt>0</asrwt>
<pdfrwt beam="1">  1        2 0.23868614E+00 0.17935897E+03</pdfrwt>
<pdfrwt beam="2">  1       -2 0.34926583E-02 0.17935897E+03</pdfrwt>
<totfact> 0.42944151E+03</totfact>
</mgrwt>
</event>
<event>
 4    2  0.9452525E-001  0.2089704E+03  0.7546771E-02  0.1142384E+00
         -2   -1    0    0    0  501 -0.00000000000E+00  0.00000000000E+00  0.26605860897E+02  0.26605860897E+02  0.00000000000E+00 0.  1.
          2   -1    0    0  502    0  0.00000000000E+00 -0.00000000000E+00 -0.21840840081E+04  0.21840840081E+04  0.00000000000E+00 0. -1.
          6    1    1    2  502    0 -0.93995047473E+02  0.70032452986E+02 -0.52771515174E+03  0.56758426228E+03  0.17300000000E+03 0.  1.
         -6    1    1    2    0  501  0.93995047473E+02 -0.70032452986E+02 -0.16297629954E+04  0.16431056067E+04  0.17300000000E+03 0. -1.
<mgrwt>
<rscale>  2 0.20897036E+03</rscale>
<asrwt>0</asrwt>
<pdfrwt beam="1">  1        2 0.33601305E+00 0.20897036E+03</pdfrwt>
<pdfrwt beam="2">  1       -2 0.40932078E-02 0.20897036E+03</pdfrwt>
<totfact> 0.15856182E+03</totfact>
</mgrwt>
</event>
<event>
 4    2  0.9452525E-001  0.2054241E+03  0.7546771E-02  0.1145242E+00
          1   -1    0    0  502    0  0.00000000000E+00  0.00000000000E+00  0.12677812579E+04  0.12677812579E+04  0.00000000000E+00 0. -1.
         -1   -1    0    0    0  501 -0.00000000000E+00 -0.00000000000E+00 -0.48187187998E+02  0.48187187998E+02  0.00000000000E+00 0.  1.
          6    1    1    2  502    0  0.18214467394E+00 -0.11077010286E+03  0.24389587037E+03  0.31887967080E+03  0.17300000000E+03 0. -1.
         -6    1    1    2    0  501 -0.18214467394E+00  0.11077010286E+03  0.97569819955E+03  0.99708877512E+03  0.17300000000E+03 0. -1.
<mgrwt>
<rscale>  2 0.20542407E+03</rscale>
<asrwt>0</asrwt>
<pdfrwt beam="1">  1        1 0.19504324E+00 0.20542407E+03</pdfrwt>
<pdfrwt beam="2">  1       -1 0.74134145E-02 0.20542407E+03</pdfrwt>
<totfact> 0.99868092E+02</totfact>
</mgrwt>
</event>
<event>
 4    2  0.9452525E-001  0.2131275E+03  0.7546771E-02  0.1139113E+00
          2   -1    0    0  502    0  0.00000000000E+00  0.00000000000E+00  0.62272593707E+03  0.62272593707E+03  0.00000000000E+00 0.  1.
         -2   -1    0    0    0  501 -0.00000000000E+00 -0.00000000000E+00 -0.10497724940E+03  0.10497724940E+03  0.00000000000E+00 0. -1.
          6    1    1    2  502    0 -0.79396023851E+02 -0.95867609236E+02  0.45986960724E+03  0.50685637292E+03  0.17300000000E+03 0.  1.
         -6    1    1    2    0  501  0.79396023851E+02  0.95867609236E+02  0.57879080436E+02  0.22084681355E+03  0.17300000000E+03 0. -1.
<mgrwt>
<rscale>  2 0.21312749E+03</rscale>
<asrwt>0</asrwt>
<pdfrwt beam="1">  1        2 0.95803988E-01 0.21312749E+03</pdfrwt>
<pdfrwt beam="2">  1       -2 0.16150346E-01 0.21312749E+03</pdfrwt>
<totfact> 0.14573158E+03</totfact>
</mgrwt>
</event>
<event>
 4    2  0.9452525E-001  0.1886061E+03  0.7546771E-02  0.1159725E+00
          1   -1    0    0  502    0  0.00000000000E+00  0.00000000000E+00  0.10789908328E+03  0.10789908328E+03  0.00000000000E+00 0.  1.
         -1   -1    0    0    0  501 -0.00000000000E+00 -0.00000000000E+00 -0.41718153866E+03  0.41718153866E+03  0.00000000000E+00 0. -1.
          6    1    1    2  502    0 -0.74987572002E+02 -0.44854286701E+01 -0.34403893515E+02  0.19171823834E+03  0.17300000000E+03 0.  1.
         -6    1    1    2    0  501  0.74987572002E+02  0.44854286701E+01 -0.27487856186E+03  0.33336238360E+03  0.17300000000E+03 0. -1.
<mgrwt>
<rscale>  2 0.18860608E+03</rscale>
<asrwt>0</asrwt>
<pdfrwt beam="1">  1        1 0.16599859E-01 0.18860608E+03</pdfrwt>
<pdfrwt beam="2">  1       -1 0.64181775E-01 0.18860608E+03</pdfrwt>
<totfact> 0.82773620E+02</totfact>
</mgrwt>
</event>
<event>
 4    2  0.9452525E-001  0.1761403E+03  0.7546771E-02  0.1171592E+00
         -1   -1    0    0    0  501 -0.00000000000E+00  0.00000000000E+00  0.13836334074E+03  0.13836334074E+03  0.00000000000E+00 0. -1.
          1   -1    0    0  502    0  0.00000000000E+00 -0.00000000000E+00 -0.40728785425E+03  0.40728785425E+03  0.00000000000E+00 0.  1.
          6    1    1    2  502    0  0.33111678858E+02 -0.19749022496E+00  0.48443243430E+02  0.18268051378E+03  0.17300000000E+03 0. -1.
         -6    1    1    2    0  501 -0.33111678858E+02  0.19749022496E+00 -0.31736775694E+03  0.36297068122E+03  0.17300000000E+03 0.  1.
<mgrwt>
<rscale>  2 0.17614035E+03</rscale>
<asrwt>0</asrwt>
<pdfrwt beam="1">  1        1 0.62659669E-01 0.17614035E+03</pdfrwt>
<pdfrwt beam="2">  1       -1 0.21286668E-01 0.17614035E+03</pdfrwt>
<totfact> 0.10742178E+03</totfact>
</mgrwt>
</event>
<event>
 4    2  0.9452525E-001  0.1844044E+03  0.7546771E-02  0.1163607E+00
         -2   -1    0    0    0  501 -0.00000000000E+00  0.00000000000E+00  0.18726244858E+03  0.18726244858E+03  0.00000000000E+00 0. -1.
          2   -1    0    0  502    0  0.00000000000E+00 -0.00000000000E+00 -0.19050703349E+03  0.19050703349E+03  0.00000000000E+00 0.  1.
          6    1    1    2  502    0 -0.41128128166E+02  0.48831105070E+02 -0.42487155121E+02  0.18923572099E+03  0.17300000000E+03 0.  1.
         -6    1    1    2    0  501  0.41128128166E+02 -0.48831105070E+02  0.39242570218E+02  0.18853376108E+03  0.17300000000E+03 0. -1.
<mgrwt>
<rscale>  2 0.18440445E+03</rscale>
<asrwt>0</asrwt>
<pdfrwt beam="1">  1        2 0.29308774E-01 0.18440445E+03</pdfrwt>
<pdfrwt beam="2">  1       -2 0.28809608E-01 0.18440445E+03</pdfrwt>
<totfact> 0.19527496E+03</totfact>
</mgrwt>
</event>
<event>
 4    2  0.9452525E-001  0.2143797E+03  0.7546771E-02  0.1138144E+00
         -2   -1    0    0    0  501 -0.00000000000E+00  0.00000000000E+00  0.50794776133E+02  0.50794776133E+02  0.00000000000E+00 0.  1.
          2   -1    0    0  502    0  0.00000000000E+00 -0.00000000000E+00 -0.94652403258E+03  0.94652403258E+03  0.00000000000E+00 0. -1.
          6    1    1    2  502    0 -0.97706573244E+02  0.80517595554E+02 -0.34315707180E+03  0.40461763874E+03  0.17300000000E+03 0.  1.
         -6    1    1    2    0  501  0.97706573244E+02 -0.80517595554E+02 -0.55257218465E+03  0.59270116998E+03  0.17300000000E+03 0.  1.
<mgrwt>
<rscale>  2 0.21437970E+03</rscale>
<asrwt>0</asrwt>
<pdfrwt beam="1">  1        2 0.14561908E+00 0.21437970E+03</pdfrwt>
<pdfrwt beam="2">  1       -2 0.78145810E-02 0.21437970E+03</pdfrwt>
<totfact> 0.27674457E+03</totfact>
</mgrwt>
</event>
<event>
 4    2  0.9452525E-001  0.2396707E+03  0.7546771E-02  0.1120012E+00
          1   -1    0    0  502    0  0.00000000000E+00  0.00000000000E+00  0.34162821630E+02  0.34162821630E+02  0.00000000000E+00 0.  1.
         -1   -1    0    0    0  501 -0.00000000000E+00 -0.00000000000E+00 -0.17061572549E+04  0.17061572549E+04  0.00000000000E+00 0. -1.
          6    1    1    2  502    0 -0.95330916020E+02 -0.13573902925E+03 -0.73122135761E+03  0.76949772023E+03  0.17300000000E+03 0.  1.
         -6    1    1    2    0  501  0.95330916020E+02  0.13573902925E+03 -0.94077307561E+03  0.97082235626E+03  0.17300000000E+03 0. -1.
<mgrwt>
<rscale>  2 0.23967075E+03</rscale>
<asrwt>0</asrwt>
<pdfrwt beam="1">  1        1 0.52558188E-02 0.23967075E+03</pdfrwt>
<pdfrwt beam="2">  1       -1 0.26248573E+00 0.23967075E+03</pdfrwt>
<totfact> 0.10328600E+02</totfact>
</mgrwt>
</event>
<event>
 4    2  0.9452525E-001  0.1845091E+03  0.7546771E-02  0.1163509E+00
          1   -1    0    0  502    0  0.00000000000E+00  0.00000000000E+00  0.44961143359E+03  0.44961143359E+03  0.00000000000E+00 0. -1.
         -1   -1    0    0    0  501 -0.00000000000E+00 -0.00000000000E+00 -0.75808260291E+02  0.75808260291E+02  0.00000000000E+00 0.  1.
          6    1    1    2  502    0 -0.64072351279E+02 -0.30572435499E+01  0.19597388116E+03  0.26916421573E+03  0.17300000000E+03 0. -1.
         -6    1    1    2    0  501  0.64072351279E+02  0.30572435499E+01  0.17782929215E+03  0.25625547815E+03  0.17300000000E+03 0. -1.
<mgrwt>
<rscale>  2 0.18450911E+03</rscale>
<asrwt>0</asrwt>
<pdfrwt beam="1">  1        1 0.69170988E-01 0.18450911E+03</pdfrwt>
<pdfrwt beam="2">  1       -1 0.11662810E-01 0.18450911E+03</pdfrwt>
<totfact> 0.24589075E+03</totfact>
</mgrwt>
</event>
<event>
 4    2  0.9452525E-001  0.2001816E+03  0.7546771E-02  0.1149586E+00
          1   -1    0    0  502    0  0.00000000000E+00  0.00000000000E+00  0.62603129455E+03  0.62603129455E+03  0.00000000000E+00 0. -1.
         -1   -1    0    0    0  501 -0.00000000000E+00 -0.00000000000E+00 -0.73151193540E+02  0.73151193540E+02  0.00000000000E+00 0.  1.
          6    1    1    2  502    0  0.41099219985E+02 -0.91948410783E+02  0.15286341162E+03  0.25187274315E+03  0.17300000000E+03 0.  1.
         -6    1    1    2    0  501 -0.41099219985E+02  0.91948410783E+02  0.40001668939E+03  0.44730974494E+03  0.17300000000E+03 0. -1.
<mgrwt>
<rscale>  2 0.20018156E+03</rscale>
<asrwt>0</asrwt>
<pdfrwt beam="1">  1        1 0.96312503E-01 0.20018156E+03</pdfrwt>
<pdfrwt beam="2">  1       -1 0.11254030E-01 0.20018156E+03</pdfrwt>
<totfact> 0.16711088E+03</totfact>
</mgrwt>
</event>
<event>
 4    2  0.9452525E-001  0.2077843E+03  0.7546771E-02  0.1143333E+00
         -2   -1    0    0    0  501 -0.00000000000E+00  0.00000000000E+00  0.24363707587E+02  0.24363707587E+02  0.00000000000E+00 0. -1.
          2   -1    0    0  502    0  0.00000000000E+00 -0.00000000000E+00 -0.18234292575E+04  0.18234292575E+04  0.00000000000E+00 0.  1.
          6    1    1    2  502    0  0.93918926810E+02 -0.66517185571E+02 -0.74448343709E+03  0.77293588925E+03  0.17300000000E+03 0.  1.
         -6    1    1    2    0  501 -0.93918926810E+02  0.66517185571E+02 -0.10545821128E+04  0.10748570758E+04  0.17300000000E+03 0.  1.
<mgrwt>
<rscale>  2 0.20778427E+03</rscale>
<asrwt>0</asrwt>
<pdfrwt beam="1">  1        2 0.28052760E+00 0.20778427E+03</pdfrwt>
<pdfrwt beam="2">  1       -2 0.37482624E-02 0.20778427E+03</pdfrwt>
<totfact> 0.27912052E+03</totfact>
</mgrwt>
</event>
<event>
 4    2  0.9452525E-001  0.2295759E+03  0.7546771E-02  0.1126939E+00
         -2   -1    0    0    0  501 -0.00000000000E+00  0.00000000000E+00  0.36717324644E+03  0.36717324644E+03  0.00000000000E+00 0.  1.
          2   -1    0    0  502    0  0.00000000000E+00 -0.00000000000E+00 -0.15459096960E+03  0.15459096960E+03  0.00000000000E+00 0. -1.
          6    1    1    2  502    0  0.29657372486E+02  0.14797477892E+03  0.36548819961E+02  0.23246701095E+03  0.17300000000E+03 0. -1.
         -6    1    1    2    0  501 -0.29657372486E+02 -0.14797477892E+03  0.17603345688E+03  0.28929720510E+03  0.17300000000E+03 0.  1.
<mgrwt>
<rscale>  2 0.22957590E+03</rscale>
<asrwt>0</asrwt>
<pdfrwt beam="1">  1        2 0.23783226E-01 0.22957590E+03</pdfrwt>
<pdfrwt beam="2">  1       -2 0.56488192E-01 0.22957590E+03</pdfrwt>
<totfact> 0.68189809E+02</totfact>
</mgrwt>
</event>
<event>
 4    2  0.9452525E-001  0.1831133E+03  0.7546771E-02  0.1164824E+00
          2   -1    0    0  502    0  0.00000000000E+00  0.00000000000E+00  0.22457381017E+02  0.22457381017E+02  0.00000000000E+00 0. -1.
         -2   -1    0    0    0  501 -0.00000000000E+00 -0.00000000000E+00 -0.17235730552E+04  0.17235730552E+04  0.00000000000E+00 0.  1.
          6    1    1    2  502    0  0.58045049359E+02 -0.15239296466E+02 -0.11698177456E+04  0.11840625076E+04  0.17300000000E+03 0.  1.
         -6    1    1    2    0  501 -0.58045049359E+02  0.15239296466E+02 -0.53129792858E+03  0.56196792865E+03  0.17300000000E+03 0. -1.
<mgrwt>
<rscale>  2 0.18311325E+03</rscale>
<asrwt>0</asrwt>
<pdfrwt beam="1">  1        2 0.34549810E-02 0.18311325E+03</pdfrwt>
<pdfrwt beam="2">  1       -2 0.26516514E+00 0.18311325E+03</pdfrwt>
<totfact> 0.15122783E+02</totfact>
</mgrwt>
</event>
<event>
 4    2  0.9452525E-001  0.2021174E+03  0.7546771E-02  0.1147965E+00
          1   -1    0    0  502    0  0.00000000000E+00  0.00000000000E+00  0.78483289302E+02  0.78483289302E+02  0.00000000000E+00 0. -1.
         -1   -1    0    0    0  501 -0.00000000000E+00 -0.00000000000E+00 -0.57041356203E+03  0.57041356203E+03  0.00000000000E+00 0.  1.
          6    1    1    2  502    0  0.75512599385E+02  0.72251527596E+02 -0.34192973127E+03  0.39719941721E+03  0.17300000000E+03 0. -1.
         -6    1    1    2    0  501 -0.75512599385E+02 -0.72251527596E+02 -0.15000054146E+03  0.25169743412E+03  0.17300000000E+03 0. -1.
<mgrwt>
<rscale>  2 0.20211738E+03</rscale>
<asrwt>0</asrwt>
<pdfrwt beam="1">  1        1 0.12074352E-01 0.20211738E+03</pdfrwt>
<pdfrwt beam="2">  1       -1 0.87755935E-01 0.20211738E+03</pdfrwt>
<totfact> 0.66653461E+02</totfact>
</mgrwt>
</event>
<event>
 4    2  0.9452525E-001  0.2204575E+03  0.7546771E-02  0.1133542E+00
         -2   -1    0    0    0  501 -0.00000000000E+00  0.00000000000E+00  0.23905976545E+02  0.23905976545E+02  0.00000000000E+00 0. -1.
          2   -1    0    0  502    0  0.00000000000E+00 -0.00000000000E+00 -0.26054546898E+04  0.26054546898E+04  0.00000000000E+00 0.  1.
          6    1    1    2  502    0  0.10767722506E+03 -0.84131683238E+02 -0.19069978590E+04  0.19196985074E+04  0.17300000000E+03 0.  1.
         -6    1    1    2    0  501 -0.10767722506E+03  0.84131683238E+02 -0.67455085424E+03  0.70966215898E+03  0.17300000000E+03 0. -1.
<mgrwt>
<rscale>  2 0.22045754E+03</rscale>
<asrwt>0</asrwt>
<pdfrwt beam="1">  1        2 0.40083924E+00 0.22045754E+03</pdfrwt>
<pdfrwt beam="2">  1       -2 0.36778420E-02 0.22045754E+03</pdfrwt>
<totfact> 0.11032154E+03</totfact>
</mgrwt>
</event>
<event>
 4    2  0.9452525E-001  0.2261457E+03  0.7546771E-02  0.1129382E+00
         -2   -1    0    0    0  501 -0.00000000000E+00  0.00000000000E+00  0.33422424093E+02  0.33422424093E+02  0.00000000000E+00 0. -1.
          2   -1    0    0  502    0  0.00000000000E+00 -0.00000000000E+00 -0.15330241142E+04  0.15330241142E+04  0.00000000000E+00 0.  1.
          6    1    1    2  502    0  0.13561954200E+03  0.53105593112E+02 -0.78361779969E+03  0.81559715557E+03  0.17300000000E+03 0.  1.
         -6    1    1    2    0  501 -0.13561954200E+03 -0.53105593112E+02 -0.71598389043E+03  0.75084938273E+03  0.17300000000E+03 0. -1.
<mgrwt>
<rscale>  2 0.22614567E+03</rscale>
<asrwt>0</asrwt>
<pdfrwt beam="1">  1        2 0.23584985E+00 0.22614567E+03</pdfrwt>
<pdfrwt beam="2">  1       -2 0.51419117E-02 0.22614567E+03</pdfrwt>
<totfact> 0.24582478E+03</totfact>
</mgrwt>
</event>
<event>
 4    2  0.9452525E-001  0.2417942E+03  0.7546771E-02  0.1118603E+00
         -2   -1    0    0    0  501 -0.00000000000E+00  0.00000000000E+00  0.24063387454E+03  0.24063387454E+03  0.00000000000E+00 0.  1.
          2   -1    0    0  502    0  0.00000000000E+00 -0.00000000000E+00 -0.30262619438E+03  0.30262619438E+03  0.00000000000E+00 0. -1.
          6    1    1    2  502    0  0.16720826202E+03 -0.24017135428E+02 -0.15160757268E+03  0.28539320555E+03  0.17300000000E+03 0. -1.
         -6    1    1    2    0  501 -0.16720826202E+03  0.24017135428E+02  0.89615252843E+02  0.25786686337E+03  0.17300000000E+03 0.  1.
<mgrwt>
<rscale>  2 0.24179418E+03</rscale>
<asrwt>0</asrwt>
<pdfrwt beam="1">  1        2 0.46557876E-01 0.24179418E+03</pdfrwt>
<pdfrwt beam="2">  1       -2 0.37020596E-01 0.24179418E+03</pdfrwt>
<totfact> 0.74959231E+02</totfact>
</mgrwt>
</event>
<event>
 4    2  0.9452525E-001  0.2453835E+03  0.7546771E-02  0.1116258E+00
         -2   -1    0    0    0  501 -0.00000000000E+00  0.00000000000E+00  0.15678171394E+03  0.15678171394E+03  0.00000000000E+00 0. -1.
          2   -1    0    0  502    0  0.00000000000E+00 -0.00000000000E+00 -0.48418560555E+03  0.48418560555E+03  0.00000000000E+00 0.  1.
          6    1    1    2  502    0 -0.15441578991E+03  0.80248466646E+02 -0.17961565705E+02  0.24603997727E+03  0.17300000000E+03 0. -1.
         -6    1    1    2    0  501  0.15441578991E+03 -0.80248466646E+02 -0.30944232590E+03  0.39492734222E+03  0.17300000000E+03 0.  1.
<mgrwt>
<rscale>  2 0.24538348E+03</rscale>
<asrwt>0</asrwt>
<pdfrwt beam="1">  1        2 0.74490092E-01 0.24538348E+03</pdfrwt>
<pdfrwt beam="2">  1       -2 0.24120264E-01 0.24538348E+03</pdfrwt>
<totfact> 0.97914244E+02</totfact>
</mgrwt>
</event>
<event>
 4    2  0.9452525E-001  0.2020934E+03  0.7546771E-02  0.1147985E+00
          1   -1    0    0  502    0  0.00000000000E+00  0.00000000000E+00  0.50741661149E+02  0.50741661149E+02  0.00000000000E+00 0. -1.
         -1   -1    0    0    0  501 -0.00000000000E+00 -0.00000000000E+00 -0.80714260439E+03  0.80714260439E+03  0.00000000000E+00 0.  1.
          6    1    1    2  502    0  0.12639199308E+02  0.10369673268E+03 -0.40083042998E+03  0.44889508276E+03  0.17300000000E+03 0. -1.
         -6    1    1    2    0  501 -0.12639199308E+02 -0.10369673268E+03 -0.35557051326E+03  0.40898918278E+03  0.17300000000E+03 0. -1.
<mgrwt>
<rscale>  2 0.20209345E+03</rscale>
<asrwt>0</asrwt>
<pdfrwt beam="1">  1        1 0.78064099E-02 0.20209345E+03</pdfrwt>
<pdfrwt beam="2">  1       -1 0.12417578E+00 0.20209345E+03</pdfrwt>
<totfact> 0.54690789E+02</totfact>
</mgrwt>
</event>
<event>
 4    2  0.9452525E-001  0.3161917E+03  0.7546771E-02  0.1077415E+00
          2   -1    0    0  502    0  0.00000000000E+00  0.00000000000E+00  0.12977558502E+04  0.12977558502E+04  0.00000000000E+00 0. -1.
         -2   -1    0    0    0  501 -0.00000000000E+00 -0.00000000000E+00 -0.77675415640E+02  0.77675415640E+02  0.00000000000E+00 0.  1.
          6    1    1    2  502    0  0.36025561206E+02 -0.26220291587E+03  0.54776776725E+03  0.63247666912E+03  0.17300000000E+03 0.  1.
         -6    1    1    2    0  501 -0.36025561206E+02  0.26220291587E+03  0.67231266730E+03  0.74295459670E+03  0.17300000000E+03 0. -1.
<mgrwt>
<rscale>  2 0.31619173E+03</rscale>
<asrwt>0</asrwt>
<pdfrwt beam="1">  1        2 0.19965473E+00 0.31619173E+03</pdfrwt>
<pdfrwt beam="2">  1       -2 0.11950065E-01 0.31619173E+03</pdfrwt>
<totfact> 0.87517352E+02</totfact>
</mgrwt>
</event>
<event>
 4    2  0.9452525E-001  0.2747781E+03  0.7546771E-02  0.1098576E+00
          1   -1    0    0  502    0  0.00000000000E+00  0.00000000000E+00  0.58136082084E+03  0.58136082084E+03  0.00000000000E+00 0.  1.
         -1   -1    0    0    0  501 -0.00000000000E+00 -0.00000000000E+00 -0.16246028209E+03  0.16246028209E+03  0.00000000000E+00 0. -1.
          6    1    1    2  502    0 -0.18900762285E+03 -0.99247830494E+02  0.37601753723E+03  0.46571686856E+03  0.17300000000E+03 0.  1.
         -6    1    1    2    0  501  0.18900762285E+03  0.99247830494E+02  0.42883001523E+02  0.27810423437E+03  0.17300000000E+03 0. -1.
<mgrwt>
<rscale>  2 0.27477812E+03</rscale>
<asrwt>0</asrwt>
<pdfrwt beam="1">  1        1 0.89440126E-01 0.27477812E+03</pdfrwt>
<pdfrwt beam="2">  1       -1 0.24993890E-01 0.27477812E+03</pdfrwt>
<totfact> 0.51465330E+02</totfact>
</mgrwt>
</event>
<event>
 4    2  0.9452525E-001  0.1799338E+03  0.7546771E-02  0.1167867E+00
         -2   -1    0    0    0  501 -0.00000000000E+00  0.00000000000E+00  0.36242672584E+02  0.36242672584E+02  0.00000000000E+00 0. -1.
          2   -1    0    0  502    0  0.00000000000E+00 -0.00000000000E+00 -0.93201474935E+03  0.93201474935E+03  0.00000000000E+00 0.  1.
          6    1    1    2  502    0  0.25684575703E+02  0.42278566054E+02 -0.34923638891E+03  0.39286413672E+03  0.17300000000E+03 0. -1.
         -6    1    1    2    0  501 -0.25684575703E+02 -0.42278566054E+02 -0.54653568786E+03  0.57539328522E+03  0.17300000000E+03 0.  1.
<mgrwt>
<rscale>  2 0.17993381E+03</rscale>
<asrwt>0</asrwt>
<pdfrwt beam="1">  1        2 0.14338689E+00 0.17993381E+03</pdfrwt>
<pdfrwt beam="2">  1       -2 0.55757956E-02 0.17993381E+03</pdfrwt>
<totfact> 0.47303034E+03</totfact>
</mgrwt>
</event>
<event>
 4    2  0.9452525E-001  0.1830290E+03  0.7546771E-02  0.1164903E+00
         -2   -1    0    0    0  501 -0.00000000000E+00  0.00000000000E+00  0.11734543980E+02  0.11734543980E+02  0.00000000000E+00 0. -1.
          2   -1    0    0  502    0  0.00000000000E+00 -0.00000000000E+00 -0.28641604464E+04  0.28641604464E+04  0.00000000000E+00 0.  1.
          6    1    1    2  502    0 -0.58402309156E+02  0.12641320996E+02 -0.13439553516E+04  0.13563611686E+04  0.17300000000E+03 0.  1.
         -6    1    1    2    0  501  0.58402309156E+02 -0.12641320996E+02 -0.15084705509E+04  0.15195338218E+04  0.17300000000E+03 0.  1.
<mgrwt>
<rscale>  2 0.18302905E+03</rscale>
<asrwt>0</asrwt>
<pdfrwt beam="1">  1        2 0.44064017E+00 0.18302905E+03</pdfrwt>
<pdfrwt beam="2">  1       -2 0.18053141E-02 0.18302905E+03</pdfrwt>
<totfact> 0.22742084E+03</totfact>
</mgrwt>
</event>
<event>
 4    2  0.9452525E-001  0.1764858E+03  0.7546771E-02  0.1171248E+00
          2   -1    0    0  502    0  0.00000000000E+00  0.00000000000E+00  0.17574813360E+04  0.17574813360E+04  0.00000000000E+00 0. -1.
         -2   -1    0    0    0  501 -0.00000000000E+00 -0.00000000000E+00 -0.17864345021E+02  0.17864345021E+02  0.00000000000E+00 0.  1.
          6    1    1    2  502    0 -0.18094002377E+02 -0.29847145066E+02  0.94886191140E+03  0.96513531274E+03  0.17300000000E+03 0. -1.
         -6    1    1    2    0  501  0.18094002377E+02  0.29847145066E+02  0.79075507960E+03  0.81021036831E+03  0.17300000000E+03 0.  1.
<mgrwt>
<rscale>  2 0.17648582E+03</rscale>
<asrwt>0</asrwt>
<pdfrwt beam="1">  1        2 0.27038161E+00 0.17648582E+03</pdfrwt>
<pdfrwt beam="2">  1       -2 0.27483622E-02 0.17648582E+03</pdfrwt>
<totfact> 0.47847939E+03</totfact>
</mgrwt>
</event>
<event>
 4    2  0.9452525E-001  0.2197734E+03  0.7546771E-02  0.1134052E+00
         -2   -1    0    0    0  501 -0.00000000000E+00  0.00000000000E+00  0.10727657680E+03  0.10727657680E+03  0.00000000000E+00 0. -1.
          2   -1    0    0  502    0  0.00000000000E+00 -0.00000000000E+00 -0.63470522391E+03  0.63470522391E+03  0.00000000000E+00 0.  1.
          6    1    1    2  502    0 -0.86802720485E+02  0.10409918926E+03 -0.46371563968E+03  0.51315937872E+03  0.17300000000E+03 0.  1.
         -6    1    1    2    0  501  0.86802720485E+02 -0.10409918926E+03 -0.63713007429E+02  0.22882242199E+03  0.17300000000E+03 0. -1.
<mgrwt>
<rscale>  2 0.21977341E+03</rscale>
<asrwt>0</asrwt>
<pdfrwt beam="1">  1        2 0.97646960E-01 0.21977341E+03</pdfrwt>
<pdfrwt beam="2">  1       -2 0.16504088E-01 0.21977341E+03</pdfrwt>
<totfact> 0.13750276E+03</totfact>
</mgrwt>
</event>
<event>
 4    2  0.9452525E-001  0.1789025E+03  0.7546771E-02  0.1168869E+00
         -3   -1    0    0    0  501 -0.00000000000E+00  0.00000000000E+00  0.42767360355E+03  0.42767360355E+03  0.00000000000E+00 0. -1.
          3   -1    0    0  502    0  0.00000000000E+00 -0.00000000000E+00 -0.86154251457E+02  0.86154251457E+02  0.00000000000E+00 0.  1.
          6    1    1    2  502    0 -0.38163965830E+02  0.24912358755E+02  0.26387177475E+03  0.31880154864E+03  0.17300000000E+03 0. -1.
         -6    1    1    2    0  501  0.38163965830E+02 -0.24912358755E+02  0.77647577341E+02  0.19502630636E+03  0.17300000000E+03 0.  1.
<mgrwt>
<rscale>  2 0.17890253E+03</rscale>
<asrwt>0</asrwt>
<pdfrwt beam="1">  1        3 0.13254500E-01 0.17890253E+03</pdfrwt>
<pdfrwt beam="2">  1       -3 0.65795938E-01 0.17890253E+03</pdfrwt>
<totfact> 0.25118031E+02</totfact>
</mgrwt>
</event>
<event>
 4    2  0.9452525E-001  0.1850215E+03  0.7546771E-02  0.1163030E+00
         -1   -1    0    0    0  501 -0.00000000000E+00  0.00000000000E+00  0.34753035396E+03  0.34753035396E+03  0.00000000000E+00 0.  1.
          1   -1    0    0  502    0  0.00000000000E+00 -0.00000000000E+00 -0.10132571775E+03  0.10132571775E+03  0.00000000000E+00 0. -1.
          6    1    1    2  502    0  0.40975216844E+02 -0.51234581379E+02  0.16055765783E+03  0.24497288056E+03  0.17300000000E+03 0. -1.
         -6    1    1    2    0  501 -0.40975216844E+02  0.51234581379E+02  0.85646978378E+02  0.20388319114E+03  0.17300000000E+03 0. -1.
<mgrwt>
<rscale>  2 0.18502149E+03</rscale>
<asrwt>0</asrwt>
<pdfrwt beam="1">  1        1 0.15588572E-01 0.18502149E+03</pdfrwt>
<pdfrwt beam="2">  1       -1 0.53466208E-01 0.18502149E+03</pdfrwt>
<totfact> 0.12713803E+03</totfact>
</mgrwt>
</event>
<event>
 4    2  0.9452525E-001  0.2488868E+03  0.7546771E-02  0.1114010E+00
          1   -1    0    0  502    0  0.00000000000E+00  0.00000000000E+00  0.66250480021E+03  0.66250480021E+03  0.00000000000E+00 0. -1.
         -1   -1    0    0    0  501 -0.00000000000E+00 -0.00000000000E+00 -0.11500812243E+03  0.11500812243E+03  0.00000000000E+00 0.  1.
          6    1    1    2  502    0  0.17047501168E+03  0.54349889129E+02  0.44186389029E+03  0.50713739519E+03  0.17300000000E+03 0. -1.
         -6    1    1    2    0  501 -0.17047501168E+03 -0.54349889129E+02  0.10563278750E+03  0.27037552746E+03  0.17300000000E+03 0.  1.
<mgrwt>
<rscale>  2 0.24888680E+03</rscale>
<asrwt>0</asrwt>
<pdfrwt beam="1">  1        1 0.10192381E+00 0.24888680E+03</pdfrwt>
<pdfrwt beam="2">  1       -1 0.17693558E-01 0.24888680E+03</pdfrwt>
<totfact> 0.75524448E+02</totfact>
</mgrwt>
</event>
<event>
 4    2  0.9452525E-001  0.2114079E+03  0.7546771E-02  0.1140456E+00
         -2   -1    0    0    0  501 -0.00000000000E+00  0.00000000000E+00  0.75349404723E+02  0.75349404723E+02  0.00000000000E+00 0.  1.
          2   -1    0    0  502    0  0.00000000000E+00 -0.00000000000E+00 -0.68978953134E+03  0.68978953134E+03  0.00000000000E+00 0. -1.
          6    1    1    2  502    0  0.68850893673E+02  0.10011912121E+03 -0.45041769622E+03  0.49756344828E+03  0.17300000000E+03 0. -1.
         -6    1    1    2    0  501 -0.68850893673E+02 -0.10011912121E+03 -0.16402243039E+03  0.26757548778E+03  0.17300000000E+03 0.  1.
<mgrwt>
<rscale>  2 0.21140786E+03</rscale>
<asrwt>0</asrwt>
<pdfrwt beam="1">  1        2 0.10612146E+00 0.21140786E+03</pdfrwt>
<pdfrwt beam="2">  1       -2 0.11592216E-01 0.21140786E+03</pdfrwt>
<totfact> 0.22198517E+03</totfact>
</mgrwt>
</event>
<event>
 4    2  0.9452525E-001  0.2068552E+03  0.7546771E-02  0.1144081E+00
         -1   -1    0    0    0  501 -0.00000000000E+00  0.00000000000E+00  0.51803829084E+02  0.51803829084E+02  0.00000000000E+00 0.  1.
          1   -1    0    0  502    0  0.00000000000E+00 -0.00000000000E+00 -0.88537455783E+03  0.88537455783E+03  0.00000000000E+00 0. -1.
          6    1    1    2  502    0 -0.86769981042E+02  0.73014109445E+02 -0.29542117213E+03  0.36064214775E+03  0.17300000000E+03 0.  1.
         -6    1    1    2    0  501  0.86769981042E+02 -0.73014109445E+02 -0.53814955662E+03  0.57653623917E+03  0.17300000000E+03 0. -1.
<mgrwt>
<rscale>  2 0.20685524E+03</rscale>
<asrwt>0</asrwt>
<pdfrwt beam="1">  1        1 0.13621146E+00 0.20685524E+03</pdfrwt>
<pdfrwt beam="2">  1       -1 0.79698203E-02 0.20685524E+03</pdfrwt>
<totfact> 0.16952188E+03</totfact>
</mgrwt>
</event>
<event>
 4    2  0.9452525E-001  0.1789324E+03  0.7546771E-02  0.1168840E+00
          2   -1    0    0  502    0  0.00000000000E+00  0.00000000000E+00  0.43549450077E+04  0.43549450077E+04  0.00000000000E+00 0.  1.
         -2   -1    0    0    0  501 -0.00000000000E+00 -0.00000000000E+00 -0.16221074742E+02  0.16221074742E+02  0.00000000000E+00 0. -1.
          6    1    1    2  502    0  0.45692474696E+02 -0.67254002403E-01  0.55325215339E+03  0.58146775662E+03  0.17300000000E+03 0. -1.
         -6    1    1    2    0  501 -0.45692474696E+02  0.67254002403E-01  0.37854717796E+04  0.37896983258E+04  0.17300000000E+03 0.  1.
<mgrwt>
<rscale>  2 0.17893241E+03</rscale>
<asrwt>0</asrwt>
<pdfrwt beam="1">  1        2 0.66999061E+00 0.17893241E+03</pdfrwt>
<pdfrwt beam="2">  1       -2 0.24955534E-02 0.17893241E+03</pdfrwt>
<totfact> 0.13410298E+02</totfact>
</mgrwt>
</event>
<event>
 4    2  0.9452525E-001  0.1927221E+03  0.7546771E-02  0.1156029E+00
          2   -1    0    0  502    0  0.00000000000E+00  0.00000000000E+00  0.53728166270E+03  0.53728166270E+03  0.00000000000E+00 0. -1.
         -2   -1    0    0    0  501 -0.00000000000E+00 -0.00000000000E+00 -0.85418337855E+02  0.85418337855E+02  0.00000000000E+00 0.  1.
          6    1    1    2  502    0 -0.54252977457E+02 -0.65340858930E+02  0.36189546656E+03  0.41001236826E+03  0.17300000000E+03 0. -1.
         -6    1    1    2    0  501  0.54252977457E+02  0.65340858930E+02  0.89967858290E+02  0.21268763230E+03  0.17300000000E+03 0.  1.
<mgrwt>
<rscale>  2 0.19272211E+03</rscale>
<asrwt>0</asrwt>
<pdfrwt beam="1">  1        2 0.82658715E-01 0.19272211E+03</pdfrwt>
<pdfrwt beam="2">  1       -2 0.13141283E-01 0.19272211E+03</pdfrwt>
<totfact> 0.24177881E+03</totfact>
</mgrwt>
</event>
<event>
 4    2  0.9452525E-001  0.5157418E+03  0.7546771E-02  0.1009750E+00
         -1   -1    0    0    0  501 -0.00000000000E+00  0.00000000000E+00  0.74790405288E+03  0.74790405288E+03  0.00000000000E+00 0. -1.
          1   -1    0    0  502    0  0.00000000000E+00 -0.00000000000E+00 -0.41494746753E+03  0.41494746753E+03  0.00000000000E+00 0.  1.
          6    1    1    2  502    0 -0.45551866174E+03  0.16900683577E+03 -0.53321913537E+02  0.51849087571E+03  0.17300000000E+03 0.  1.
         -6    1    1    2    0  501  0.45551866174E+03 -0.16900683577E+03  0.38627849889E+03  0.64436064470E+03  0.17300000000E+03 0. -1.
<mgrwt>
<rscale>  2 0.51574176E+03</rscale>
<asrwt>0</asrwt>
<pdfrwt beam="1">  1        1 0.63838072E-01 0.51574176E+03</pdfrwt>
<pdfrwt beam="2">  1       -1 0.11506216E+00 0.51574176E+03</pdfrwt>
<totfact> 0.41010036E+01</totfact>
</mgrwt>
</event>
<event>
 4    2  0.9452525E-001  0.1959492E+03  0.7546771E-02  0.1153202E+00
          1   -1    0    0  502    0  0.00000000000E+00  0.00000000000E+00  0.58724796600E+02  0.58724796600E+02  0.00000000000E+00 0.  1.
         -1   -1    0    0    0  501 -0.00000000000E+00 -0.00000000000E+00 -0.78531348609E+03  0.78531348609E+03  0.00000000000E+00 0. -1.
          6    1    1    2  502    0 -0.35571513056E+02  0.84863198990E+02 -0.19061336572E+03  0.27336706143E+03  0.17300000000E+03 0.  1.
         -6    1    1    2    0  501  0.35571513056E+02 -0.84863198990E+02 -0.53597532377E+03  0.57067122126E+03  0.17300000000E+03 0. -1.
<mgrwt>
<rscale>  2 0.19594922E+03</rscale>
<asrwt>0</asrwt>
<pdfrwt beam="1">  1        1 0.90345843E-02 0.19594922E+03</pdfrwt>
<pdfrwt beam="2">  1       -1 0.12081746E+00 0.19594922E+03</pdfrwt>
<totfact> 0.47924972E+02</totfact>
</mgrwt>
</event>
<event>
 4    2  0.9452525E-001  0.2038363E+03  0.7546771E-02  0.1146542E+00
         -3   -1    0    0    0  501 -0.00000000000E+00  0.00000000000E+00  0.77144698914E+02  0.77144698914E+02  0.00000000000E+00 0.  1.
          3   -1    0    0  502    0  0.00000000000E+00 -0.00000000000E+00 -0.73263011233E+03  0.73263011233E+03  0.00000000000E+00 0. -1.
          6    1    1    2  502    0  0.76771011870E+02  0.75673274698E+02 -0.11937062097E+03  0.23621722612E+03  0.17300000000E+03 0.  1.
         -6    1    1    2    0  501 -0.76771011870E+02 -0.75673274698E+02 -0.53611479245E+03  0.57355758512E+03  0.17300000000E+03 0. -1.
<mgrwt>
<rscale>  2 0.20383629E+03</rscale>
<asrwt>0</asrwt>
<pdfrwt beam="1">  1        3 0.11271232E+00 0.20383629E+03</pdfrwt>
<pdfrwt beam="2">  1       -3 0.11868415E-01 0.20383629E+03</pdfrwt>
<totfact> 0.93057480E+01</totfact>
</mgrwt>
</event>
<event>
 4    2  0.9452525E-001  0.1956001E+03  0.7546771E-02  0.1153505E+00
          1   -1    0    0  502    0  0.00000000000E+00  0.00000000000E+00  0.35136806799E+03  0.35136806799E+03  0.00000000000E+00 0.  1.
         -1   -1    0    0    0  501 -0.00000000000E+00 -0.00000000000E+00 -0.10890287725E+03  0.10890287725E+03  0.00000000000E+00 0. -1.
          6    1    1    2  502    0  0.62257071781E+01  0.91058338328E+02  0.11844527557E+03  0.22866714612E+03  0.17300000000E+03 0. -1.
         -6    1    1    2    0  501 -0.62257071781E+01 -0.91058338328E+02  0.12401991518E+03  0.23160379913E+03  0.17300000000E+03 0.  1.
<mgrwt>
<rscale>  2 0.19560005E+03</rscale>
<asrwt>0</asrwt>
<pdfrwt beam="1">  1        1 0.54056625E-01 0.19560005E+03</pdfrwt>
<pdfrwt beam="2">  1       -1 0.16754289E-01 0.19560005E+03</pdfrwt>
<totfact> 0.19082613E+03</totfact>
</mgrwt>
</event>
<event>
 4    2  0.9452525E-001  0.2719007E+03  0.7546771E-02  0.1100197E+00
         -2   -1    0    0    0  501 -0.00000000000E+00  0.00000000000E+00  0.49345903722E+03  0.49345903722E+03  0.00000000000E+00 0.  1.
          2   -1    0    0  502    0  0.00000000000E+00 -0.00000000000E+00 -0.15026026337E+03  0.15026026337E+03  0.00000000000E+00 0. -1.
          6    1    1    2  502    0  0.26279535176E+02 -0.20811150012E+03  0.15417637498E+03  0.31257057611E+03  0.17300000000E+03 0. -1.
         -6    1    1    2    0  501 -0.26279535176E+02  0.20811150012E+03  0.18902239887E+03  0.33114872448E+03  0.17300000000E+03 0. -1.
<mgrwt>
<rscale>  2 0.27190074E+03</rscale>
<asrwt>0</asrwt>
<pdfrwt beam="1">  1        2 0.23116964E-01 0.27190074E+03</pdfrwt>
<pdfrwt beam="2">  1       -2 0.75916774E-01 0.27190074E+03</pdfrwt>
<totfact> 0.37718198E+02</totfact>
</mgrwt>
</event>
<event>
 4    2  0.9452525E-001  0.2047256E+03  0.7546771E-02  0.1145812E+00
         -2   -1    0    0    0  501 -0.00000000000E+00  0.00000000000E+00  0.25619294724E+03  0.25619294724E+03  0.00000000000E+00 0.  1.
          2   -1    0    0  502    0  0.00000000000E+00 -0.00000000000E+00 -0.19885647411E+03  0.19885647411E+03  0.00000000000E+00 0. -1.
          6    1    1    2  502    0  0.96343847732E+02  0.51975449205E+02 -0.67137635859E+02  0.21545311895E+03  0.17300000000E+03 0. -1.
         -6    1    1    2    0  501 -0.96343847732E+02 -0.51975449205E+02  0.12447410899E+03  0.23959630240E+03  0.17300000000E+03 0.  1.
<mgrwt>
<rscale>  2 0.20472563E+03</rscale>
<asrwt>0</asrwt>
<pdfrwt beam="1">  1        2 0.30593304E-01 0.20472563E+03</pdfrwt>
<pdfrwt beam="2">  1       -2 0.39414300E-01 0.20472563E+03</pdfrwt>
<totfact> 0.10469071E+03</totfact>
</mgrwt>
</event>
<event>
 4    2  0.9452525E-001  0.2196332E+03  0.7546771E-02  0.1134157E+00
          1   -1    0    0  502    0  0.00000000000E+00  0.00000000000E+00  0.13610795938E+04  0.13610795938E+04  0.00000000000E+00 0. -1.
         -1   -1    0    0    0  501 -0.00000000000E+00 -0.00000000000E+00 -0.71700283552E+02  0.71700283552E+02  0.00000000000E+00 0.  1.
          6    1    1    2  502    0  0.70303315815E+02  0.11561646983E+03  0.11541326090E+04  0.11748450125E+04  0.17300000000E+03 0. -1.
         -6    1    1    2    0  501 -0.70303315815E+02 -0.11561646983E+03  0.13524670133E+03  0.25793486490E+03  0.17300000000E+03 0.  1.
<mgrwt>
<rscale>  2 0.21963316E+03</rscale>
<asrwt>0</asrwt>
<pdfrwt beam="1">  1        1 0.20939684E+00 0.21963316E+03</pdfrwt>
<pdfrwt beam="2">  1       -1 0.11030814E-01 0.21963316E+03</pdfrwt>
<totfact> 0.46841431E+02</totfact>
</mgrwt>
</event>
<event>
 4    2  0.9452525E-001  0.1785782E+03  0.7546771E-02  0.1169186E+00
          2   -1    0    0  502    0  0.00000000000E+00  0.00000000000E+00  0.70850178881E+02  0.70850178881E+02  0.00000000000E+00 0. -1.
         -2   -1    0    0    0  501 -0.00000000000E+00 -0.00000000000E+00 -0.45058806418E+03  0.45058806418E+03  0.00000000000E+00 0.  1.
          6    1    1    2  502    0 -0.17105273342E+02  0.40848167430E+02 -0.18135023396E+03  0.25451536400E+03  0.17300000000E+03 0.  1.
         -6    1    1    2    0  501  0.17105273342E+02 -0.40848167430E+02 -0.19838765135E+03  0.26692287906E+03  0.17300000000E+03 0. -1.
<mgrwt>
<rscale>  2 0.17857817E+03</rscale>
<asrwt>0</asrwt>
<pdfrwt beam="1">  1        2 0.10900028E-01 0.17857817E+03</pdfrwt>
<pdfrwt beam="2">  1       -2 0.69321239E-01 0.17857817E+03</pdfrwt>
<totfact> 0.11049596E+03</totfact>
</mgrwt>
</event>
<event>
 4    2  0.9452525E-001  0.2375298E+03  0.7546771E-02  0.1121449E+00
         -2   -1    0    0    0  501 -0.00000000000E+00  0.00000000000E+00  0.19027347251E+02  0.19027347251E+02  0.00000000000E+00 0. -1.
          2   -1    0    0  502    0  0.00000000000E+00 -0.00000000000E+00 -0.29654561257E+04  0.29654561257E+04  0.00000000000E+00 0.  1.
          6    1    1    2  502    0 -0.14238110424E+03  0.78860899372E+02 -0.14863064387E+04  0.15051668513E+04  0.17300000000E+03 0.  1.
         -6    1    1    2    0  501  0.14238110424E+03 -0.78860899372E+02 -0.14601223397E+04  0.14793166217E+04  0.17300000000E+03 0. -1.
<mgrwt>
<rscale>  2 0.23752983E+03</rscale>
<asrwt>0</asrwt>
<pdfrwt beam="1">  1        2 0.45622389E+00 0.23752983E+03</pdfrwt>
<pdfrwt beam="2">  1       -2 0.29272850E-02 0.23752983E+03</pdfrwt>
<totfact> 0.96546722E+02</totfact>
</mgrwt>
</event>
<event>
 4    2  0.9452525E-001  0.1939848E+03  0.7546771E-02  0.1154916E+00
         -2   -1    0    0    0  501 -0.00000000000E+00  0.00000000000E+00  0.58576120308E+02  0.58576120308E+02  0.00000000000E+00 0.  1.
          2   -1    0    0  502    0  0.00000000000E+00 -0.00000000000E+00 -0.65716668626E+03  0.65716668626E+03  0.00000000000E+00 0. -1.
          6    1    1    2  502    0 -0.81375776501E+02  0.32849275735E+02 -0.24567467007E+03  0.31302737170E+03  0.17300000000E+03 0.  1.
         -6    1    1    2    0  501  0.81375776501E+02 -0.32849275735E+02 -0.35291589588E+03  0.40271543487E+03  0.17300000000E+03 0. -1.
<mgrwt>
<rscale>  2 0.19398477E+03</rscale>
<asrwt>0</asrwt>
<pdfrwt beam="1">  1        2 0.10110257E+00 0.19398477E+03</pdfrwt>
<pdfrwt beam="2">  1       -2 0.90117105E-02 0.19398477E+03</pdfrwt>
<totfact> 0.35017674E+03</totfact>
</mgrwt>
</event>
<event>
 4    2  0.9452525E-001  0.3610180E+03  0.7546771E-02  0.1058182E+00
         -1   -1    0    0    0  501 -0.00000000000E+00  0.00000000000E+00  0.31863076014E+03  0.31863076014E+03  0.00000000000E+00 0. -1.
          1   -1    0    0  502    0  0.00000000000E+00 -0.00000000000E+00 -0.50230633903E+03  0.50230633903E+03  0.00000000000E+00 0.  1.
          6    1    1    2  502    0  0.31685557170E+03 -0.27406439679E+01  0.85030091887E+02  0.37089632106E+03  0.17300000000E+03 0. -1.
         -6    1    1    2    0  501 -0.31685557170E+03  0.27406439679E+01 -0.26870567078E+03  0.45004077811E+03  0.17300000000E+03 0.  1.
<mgrwt>
<rscale>  2 0.36101796E+03</rscale>
<asrwt>0</asrwt>
<pdfrwt beam="1">  1        1 0.77277898E-01 0.36101796E+03</pdfrwt>
<pdfrwt beam="2">  1       -1 0.49020117E-01 0.36101796E+03</pdfrwt>
<totfact> 0.19125996E+02</totfact>
</mgrwt>
</event>
<event>
 4    2  0.9452525E-001  0.1794492E+03  0.7546771E-02  0.1168337E+00
          1   -1    0    0  502    0  0.00000000000E+00  0.00000000000E+00  0.52177244423E+03  0.52177244423E+03  0.00000000000E+00 0.  1.
         -1   -1    0    0    0  501 -0.00000000000E+00 -0.00000000000E+00 -0.76754619223E+02  0.76754619223E+02  0.00000000000E+00 0. -1.
          6    1    1    2  502    0 -0.58310499479E+01  0.47318107870E+02  0.35497274549E+03  0.39775325834E+03  0.17300000000E+03 0.  1.
         -6    1    1    2    0  501  0.58310499479E+01 -0.47318107870E+02  0.90045079516E+02  0.20077380512E+03  0.17300000000E+03 0. -1.
<mgrwt>
<rscale>  2 0.17944917E+03</rscale>
<asrwt>0</asrwt>
<pdfrwt beam="1">  1        1 0.80272682E-01 0.17944917E+03</pdfrwt>
<pdfrwt beam="2">  1       -1 0.11808403E-01 0.17944917E+03</pdfrwt>
<totfact> 0.19832215E+03</totfact>
</mgrwt>
</event>
<event>
 4    2  0.9452525E-001  0.3436290E+03  0.7546771E-02  0.1065261E+00
          2   -1    0    0  502    0  0.00000000000E+00  0.00000000000E+00  0.68717186215E+03  0.68717186215E+03  0.00000000000E+00 0.  1.
         -2   -1    0    0    0  501 -0.00000000000E+00 -0.00000000000E+00 -0.23907710543E+03  0.23907710543E+03  0.00000000000E+00 0. -1.
          6    1    1    2  502    0 -0.29139816736E+03 -0.56912183309E+02 -0.21562626734E+02  0.34430485826E+03  0.17300000000E+03 0. -1.
         -6    1    1    2    0  501  0.29139816736E+03  0.56912183309E+02  0.46965738345E+03  0.58194410933E+03  0.17300000000E+03 0.  1.
<mgrwt>
<rscale>  2 0.34362900E+03</rscale>
<asrwt>0</asrwt>
<pdfrwt beam="1">  1        2 0.10571875E+00 0.34362900E+03</pdfrwt>
<pdfrwt beam="2">  1       -2 0.36781093E-01 0.34362900E+03</pdfrwt>
<totfact> 0.30070462E+02</totfact>
</mgrwt>
</event>
<event>
 4    2  0.9452525E-001  0.1760244E+03  0.7546771E-02  0.1171707E+00
         -1   -1    0    0    0  501 -0.00000000000E+00  0.00000000000E+00  0.17616992126E+03  0.17616992126E+03  0.00000000000E+00 0. -1.
          1   -1    0    0  502    0  0.00000000000E+00 -0.00000000000E+00 -0.20011339642E+03  0.20011339642E+03  0.00000000000E+00 0.  1.
          6    1    1    2  502    0 -0.24366492388E+01 -0.32398484481E+02 -0.77444778042E+02  0.19230780718E+03  0.17300000000E+03 0.  1.
         -6    1    1    2    0  501  0.24366492388E+01  0.32398484481E+02  0.53501302881E+02  0.18397551051E+03  0.17300000000E+03 0. -1.
<mgrwt>
<rscale>  2 0.17602443E+03</rscale>
<asrwt>0</asrwt>
<pdfrwt beam="1">  1        1 0.30786676E-01 0.17602443E+03</pdfrwt>
<pdfrwt beam="2">  1       -1 0.27103065E-01 0.17602443E+03</pdfrwt>
<totfact> 0.17574098E+03</totfact>
</mgrwt>
</event>
<event>
 4    2  0.9452525E-001  0.1969042E+03  0.7546771E-02  0.1152378E+00
          4   -1    0    0  502    0  0.00000000000E+00  0.00000000000E+00  0.15314547931E+03  0.15314547931E+03  0.00000000000E+00 0.  1.
         -4   -1    0    0    0  501 -0.00000000000E+00 -0.00000000000E+00 -0.25518763730E+03  0.25518763730E+03  0.00000000000E+00 0. -1.
          6    1    1    2  502    0  0.18709014325E+02 -0.92153331637E+02 -0.32849961778E+02  0.19962560892E+03  0.17300000000E+03 0.  1.
         -6    1    1    2    0  501 -0.18709014325E+02  0.92153331637E+02 -0.69192196206E+02  0.20870750769E+03  0.17300000000E+03 0. -1.
<mgrwt>
<rscale>  2 0.19690420E+03</rscale>
<asrwt>0</asrwt>
<pdfrwt beam="1">  1        4 0.23560843E-01 0.19690420E+03</pdfrwt>
<pdfrwt beam="2">  1       -4 0.39259636E-01 0.19690420E+03</pdfrwt>
<totfact> 0.18719095E+02</totfact>
</mgrwt>
</event>
<event>
 4    2  0.9452525E-001  0.2337926E+03  0.7546771E-02  0.1123998E+00
          2   -1    0    0  502    0  0.00000000000E+00  0.00000000000E+00  0.14260861707E+04  0.14260861707E+04  0.00000000000E+00 0.  1.
         -2   -1    0    0    0  501 -0.00000000000E+00 -0.00000000000E+00 -0.10379661927E+03  0.10379661927E+03  0.00000000000E+00 0. -1.
          6    1    1    2  502    0  0.15618571880E+03 -0.18330518209E+02  0.53635025216E+02  0.23986600965E+03  0.17300000000E+03 0. -1.
         -6    1    1    2    0  501 -0.15618571880E+03  0.18330518209E+02  0.12686545262E+04  0.12900167803E+04  0.17300000000E+03 0.  1.
<mgrwt>
<rscale>  2 0.23379261E+03</rscale>
<asrwt>0</asrwt>
<pdfrwt beam="1">  1        2 0.21939786E+00 0.23379261E+03</pdfrwt>
<pdfrwt beam="2">  1       -2 0.15968712E-01 0.23379261E+03</pdfrwt>
<totfact> 0.46589103E+02</totfact>
</mgrwt>
</event>
<event>
 4    2  0.9452525E-001  0.1743423E+03  0.7546771E-02  0.1173394E+00
          2   -1    0    0  502    0  0.00000000000E+00  0.00000000000E+00  0.35607361564E+03  0.35607361564E+03  0.00000000000E+00 0.  1.
         -2   -1    0    0    0  501 -0.00000000000E+00 -0.00000000000E+00 -0.87249672000E+02  0.87249672000E+02  0.00000000000E+00 0. -1.
          6    1    1    2  502    0  0.11696347589E+02  0.18149951373E+02  0.10180957535E+03  0.20189208730E+03  0.17300000000E+03 0. -1.
         -6    1    1    2    0  501 -0.11696347589E+02 -0.18149951373E+02  0.16701436829E+03  0.24143120034E+03  0.17300000000E+03 0.  1.
<mgrwt>
<rscale>  2 0.17434226E+03</rscale>
<asrwt>0</asrwt>
<pdfrwt beam="1">  1        2 0.54780555E-01 0.17434226E+03</pdfrwt>
<pdfrwt beam="2">  1       -2 0.13423027E-01 0.17434226E+03</pdfrwt>
<totfact> 0.36487686E+03</totfact>
</mgrwt>
</event>
<event>
 4    2  0.9452525E-001  0.1788048E+03  0.7546771E-02  0.1168965E+00
         -2   -1    0    0    0  501 -0.00000000000E+00  0.00000000000E+00  0.11389008525E+02  0.11389008525E+02  0.00000000000E+00 0.  1.
          2   -1    0    0  502    0  0.00000000000E+00 -0.00000000000E+00 -0.32136407708E+04  0.32136407708E+04  0.00000000000E+00 0. -1.
          6    1    1    2  502    0 -0.39085119685E+02  0.22683197040E+02 -0.10276619840E+04  0.10431013025E+04  0.17300000000E+03 0.  1.
         -6    1    1    2    0  501  0.39085119685E+02 -0.22683197040E+02 -0.21745897783E+04  0.21819284769E+04  0.17300000000E+03 0. -1.
<mgrwt>
<rscale>  2 0.17880485E+03</rscale>
<asrwt>0</asrwt>
<pdfrwt beam="1">  1        2 0.49440674E+00 0.17880485E+03</pdfrwt>
<pdfrwt beam="2">  1       -2 0.17521535E-02 0.17880485E+03</pdfrwt>
<totfact> 0.14794331E+03</totfact>
</mgrwt>
</event>
<event>
 4    2  0.9452525E-001  0.2288426E+03  0.7546771E-02  0.1127457E+00
         -3   -1    0    0    0  501 -0.00000000000E+00  0.00000000000E+00  0.13231912276E+04  0.13231912276E+04  0.00000000000E+00 0.  1.
          3   -1    0    0  502    0  0.00000000000E+00 -0.00000000000E+00 -0.62864452194E+02  0.62864452194E+02  0.00000000000E+00 0. -1.
          6    1    1    2  502    0  0.14957199904E+03 -0.82566716169E+01  0.20836789020E+03  0.30949334918E+03  0.17300000000E+03 0. -1.
         -6    1    1    2    0  501 -0.14957199904E+03  0.82566716169E+01  0.10519588852E+04  0.10765623306E+04  0.17300000000E+03 0.  1.
<mgrwt>
<rscale>  2 0.22884264E+03</rscale>
<asrwt>0</asrwt>
<pdfrwt beam="1">  1        3 0.96714552E-02 0.22884264E+03</pdfrwt>
<pdfrwt beam="2">  1       -3 0.20356786E+00 0.22884264E+03</pdfrwt>
<totfact> 0.29220418E+01</totfact>
</mgrwt>
</event>
<event>
 4    2  0.9452525E-001  0.2101830E+03  0.7546771E-02  0.1141421E+00
         -4   -1    0    0    0  501 -0.00000000000E+00  0.00000000000E+00  0.14622099807E+03  0.14622099807E+03  0.00000000000E+00 0. -1.
          4   -1    0    0  502    0  0.00000000000E+00 -0.00000000000E+00 -0.32919442383E+03  0.32919442383E+03  0.00000000000E+00 0.  1.
          6    1    1    2  502    0 -0.11052213804E+03 -0.45085853381E+02 -0.23321260075E+02  0.21147283122E+03  0.17300000000E+03 0. -1.
         -6    1    1    2    0  501  0.11052213804E+03  0.45085853381E+02 -0.15965216568E+03  0.26394259069E+03  0.17300000000E+03 0.  1.
<mgrwt>
<rscale>  2 0.21018296E+03</rscale>
<asrwt>0</asrwt>
<pdfrwt beam="1">  1        4 0.50645296E-01 0.21018296E+03</pdfrwt>
<pdfrwt beam="2">  1       -4 0.22495538E-01 0.21018296E+03</pdfrwt>
<totfact> 0.12307704E+02</totfact>
</mgrwt>
</event>
<event>
 4    2  0.9452525E-001  0.1758064E+03  0.7546771E-02  0.1171924E+00
         -2   -1    0    0    0  501 -0.00000000000E+00  0.00000000000E+00  0.53916545043E+02  0.53916545043E+02  0.00000000000E+00 0.  1.
          2   -1    0    0  502    0  0.00000000000E+00 -0.00000000000E+00 -0.66537343452E+03  0.66537343452E+03  0.00000000000E+00 0. -1.
          6    1    1    2  502    0 -0.28977819826E+02 -0.11797606389E+02 -0.43954687654E+03  0.47340189504E+03  0.17300000000E+03 0. -1.
         -6    1    1    2    0  501  0.28977819826E+02  0.11797606389E+02 -0.17191001294E+03  0.24588808452E+03  0.17300000000E+03 0.  1.
<mgrwt>
<rscale>  2 0.17580642E+03</rscale>
<asrwt>0</asrwt>
<pdfrwt beam="1">  1        2 0.10236514E+00 0.17580642E+03</pdfrwt>
<pdfrwt beam="2">  1       -2 0.82948530E-02 0.17580642E+03</pdfrwt>
<totfact> 0.39154290E+03</totfact>
</mgrwt>
</event>
<event>
 4    2  0.9452525E-001  0.1784098E+03  0.7546771E-02  0.1169351E+00
          1   -1    0    0  502    0  0.00000000000E+00  0.00000000000E+00  0.28780523919E+04  0.28780523919E+04  0.00000000000E+00 0. -1.
         -1   -1    0    0    0  501 -0.00000000000E+00 -0.00000000000E+00 -0.11324113326E+02  0.11324113326E+02  0.00000000000E+00 0.  1.
          6    1    1    2  502    0 -0.43384537117E+02  0.43418590588E+01  0.16541680586E+04  0.16637614120E+04  0.17300000000E+03 0. -1.
         -6    1    1    2    0  501  0.43384537117E+02 -0.43418590588E+01  0.12125602200E+04  0.12256150933E+04  0.17300000000E+03 0.  1.
<mgrwt>
<rscale>  2 0.17840984E+03</rscale>
<asrwt>0</asrwt>
<pdfrwt beam="1">  1        1 0.44277671E+00 0.17840984E+03</pdfrwt>
<pdfrwt beam="2">  1       -1 0.17421736E-02 0.17840984E+03</pdfrwt>
<totfact> 0.74939071E+02</totfact>
</mgrwt>
</event>
<event>
 4    2  0.9452525E-001  0.1875499E+03  0.7546771E-02  0.1160690E+00
          2   -1    0    0  502    0  0.00000000000E+00  0.00000000000E+00  0.15945499496E+03  0.15945499496E+03  0.00000000000E+00 0. -1.
         -2   -1    0    0    0  501 -0.00000000000E+00 -0.00000000000E+00 -0.24185420986E+03  0.24185420986E+03  0.00000000000E+00 0.  1.
          6    1    1    2  502    0 -0.13183910685E+02 -0.71219037723E+02 -0.10068993467E+03  0.21286951350E+03  0.17300000000E+03 0.  1.
         -6    1    1    2    0  501  0.13183910685E+02  0.71219037723E+02  0.18290719769E+02  0.18843969132E+03  0.17300000000E+03 0.  1.
<mgrwt>
<rscale>  2 0.18754990E+03</rscale>
<asrwt>0</asrwt>
<pdfrwt beam="1">  1        2 0.24531538E-01 0.18754990E+03</pdfrwt>
<pdfrwt beam="2">  1       -2 0.37208340E-01 0.18754990E+03</pdfrwt>
<totfact> 0.14864914E+03</totfact>
</mgrwt>
</event>
<event>
 4    2  0.9452525E-001  0.4057251E+03  0.7546771E-02  0.1041815E+00
          2   -1    0    0  502    0  0.00000000000E+00  0.00000000000E+00  0.35624415367E+04  0.35624415367E+04  0.00000000000E+00 0. -1.
         -2   -1    0    0    0  501 -0.00000000000E+00 -0.00000000000E+00 -0.54000841946E+02  0.54000841946E+02  0.00000000000E+00 0.  1.
          6    1    1    2  502    0  0.32458836175E+03 -0.17124915569E+03  0.10673061184E+04  0.11418210142E+04  0.17300000000E+03 0.  1.
         -6    1    1    2    0  501 -0.32458836175E+03  0.17124915569E+03  0.24411345763E+04  0.24746213644E+04  0.17300000000E+03 0. -1.
<mgrwt>
<rscale>  2 0.40572513E+03</rscale>
<asrwt>0</asrwt>
<pdfrwt beam="1">  1        2 0.54806774E+00 0.40572513E+03</pdfrwt>
<pdfrwt beam="2">  1       -2 0.83078247E-02 0.40572513E+03</pdfrwt>
<totfact> 0.78566774E+01</totfact>
</mgrwt>
</event>
<event>
 4    2  0.9452525E-001  0.1732214E+03  0.7546771E-02  0.1174529E+00
          1   -1    0    0  502    0  0.00000000000E+00  0.00000000000E+00  0.54200912395E+03  0.54200912395E+03  0.00000000000E+00 0.  1.
         -1   -1    0    0    0  501 -0.00000000000E+00 -0.00000000000E+00 -0.66233135259E+02  0.66233135259E+02  0.00000000000E+00 0. -1.
          6    1    1    2  502    0 -0.49416386905E+01 -0.72282576389E+01  0.36110900631E+03  0.40050640686E+03  0.17300000000E+03 0.  1.
         -6    1    1    2    0  501  0.49416386905E+01  0.72282576389E+01  0.11466698238E+03  0.20773585235E+03  0.17300000000E+03 0. -1.
<mgrwt>
<rscale>  2 0.17322144E+03</rscale>
<asrwt>0</asrwt>
<pdfrwt beam="1">  1        1 0.83386016E-01 0.17322144E+03</pdfrwt>
<pdfrwt beam="2">  1       -1 0.10189714E-01 0.17322144E+03</pdfrwt>
<totfact> 0.23650637E+03</totfact>
</mgrwt>
</event>
<event>
 4    2  0.9452525E-001  0.1980513E+03  0.7546771E-02  0.1151394E+00
         -2   -1    0    0    0  501 -0.00000000000E+00  0.00000000000E+00  0.27166138530E+02  0.27166138530E+02  0.00000000000E+00 0.  1.
          2   -1    0    0  502    0  0.00000000000E+00 -0.00000000000E+00 -0.18021241283E+04  0.18021241283E+04  0.00000000000E+00 0. -1.
          6    1    1    2  502    0 -0.22278169779E+02 -0.93803092723E+02 -0.12952878659E+04  0.13103415557E+04  0.17300000000E+03 0. -1.
         -6    1    1    2    0  501  0.22278169779E+02  0.93803092723E+02 -0.47967012395E+03  0.51894871120E+03  0.17300000000E+03 0.  1.
<mgrwt>
<rscale>  2 0.19805135E+03</rscale>
<asrwt>0</asrwt>
<pdfrwt beam="1">  1        2 0.27724997E+00 0.19805135E+03</pdfrwt>
<pdfrwt beam="2">  1       -2 0.41794043E-02 0.19805135E+03</pdfrwt>
<totfact> 0.24323180E+03</totfact>
</mgrwt>
</event>
<event>
 4    2  0.9452525E-001  0.1987778E+03  0.7546771E-02  0.1150774E+00
         -3   -1    0    0    0  501 -0.00000000000E+00  0.00000000000E+00  0.46690191599E+02  0.46690191599E+02  0.00000000000E+00 0. -1.
          3   -1    0    0  502    0  0.00000000000E+00 -0.00000000000E+00 -0.84631725319E+03  0.84631725319E+03  0.00000000000E+00 0.  1.
          6    1    1    2  502    0  0.92082900476E+02  0.33231593655E+02 -0.39654664049E+03  0.44357844567E+03  0.17300000000E+03 0. -1.
         -6    1    1    2    0  501 -0.92082900476E+02 -0.33231593655E+02 -0.40308042110E+03  0.44942899912E+03  0.17300000000E+03 0.  1.
<mgrwt>
<rscale>  2 0.19877776E+03</rscale>
<asrwt>0</asrwt>
<pdfrwt beam="1">  1        3 0.13020264E+00 0.19877776E+03</pdfrwt>
<pdfrwt beam="2">  1       -3 0.71831073E-02 0.19877776E+03</pdfrwt>
<totfact> 0.15138106E+02</totfact>
</mgrwt>
</event>
<event>
 4    2  0.9452525E-001  0.2074027E+03  0.7546771E-02  0.1143639E+00
          1   -1    0    0  502    0  0.00000000000E+00  0.00000000000E+00  0.14619246787E+04  0.14619246787E+04  0.00000000000E+00 0.  1.
         -1   -1    0    0    0  501 -0.00000000000E+00 -0.00000000000E+00 -0.38355253102E+02  0.38355253102E+02  0.00000000000E+00 0. -1.
          6    1    1    2  502    0  0.95922807329E+02  0.62335504221E+02  0.34980662672E+03  0.40667010727E+03  0.17300000000E+03 0.  1.
         -6    1    1    2    0  501 -0.95922807329E+02 -0.62335504221E+02  0.10737627989E+04  0.10936098245E+04  0.17300000000E+03 0. -1.
<mgrwt>
<rscale>  2 0.20740275E+03</rscale>
<asrwt>0</asrwt>
<pdfrwt beam="1">  1        1 0.22491145E+00 0.20740275E+03</pdfrwt>
<pdfrwt beam="2">  1       -1 0.59008093E-02 0.20740275E+03</pdfrwt>
<totfact> 0.10443973E+03</totfact>
</mgrwt>
</event>
<event>
 4    2  0.9452525E-001  0.1772284E+03  0.7546771E-02  0.1170513E+00
          2   -1    0    0  502    0  0.00000000000E+00  0.00000000000E+00  0.67998762710E+03  0.67998762710E+03  0.00000000000E+00 0.  1.
         -2   -1    0    0    0  501 -0.00000000000E+00 -0.00000000000E+00 -0.49474557086E+02  0.49474557086E+02  0.00000000000E+00 0. -1.
          6    1    1    2  502    0 -0.99363518277E+01 -0.37177656251E+02  0.22130677310E+03  0.28352530228E+03  0.17300000000E+03 0. -1.
         -6    1    1    2    0  501  0.99363518277E+01  0.37177656251E+02  0.40920629691E+03  0.44593688191E+03  0.17300000000E+03 0.  1.
<mgrwt>
<rscale>  2 0.17722841E+03</rscale>
<asrwt>0</asrwt>
<pdfrwt beam="1">  1        2 0.10461347E+00 0.17722841E+03</pdfrwt>
<pdfrwt beam="2">  1       -2 0.76114708E-02 0.17722841E+03</pdfrwt>
<totfact> 0.43624075E+03</totfact>
</mgrwt>
</event>
<event>
 4    2  0.9452525E-001  0.1793302E+03  0.7546771E-02  0.1168453E+00
          4   -1    0    0  502    0  0.00000000000E+00  0.00000000000E+00  0.18764589914E+04  0.18764589914E+04  0.00000000000E+00 0.  1.
         -4   -1    0    0    0  501 -0.00000000000E+00 -0.00000000000E+00 -0.19680479622E+02  0.19680479622E+02  0.00000000000E+00 0. -1.
          6    1    1    2  502    0  0.62612563286E+01  0.46809254546E+02  0.58764707275E+03  0.61440083964E+03  0.17300000000E+03 0. -1.
         -6    1    1    2    0  501 -0.62612563286E+01 -0.46809254546E+02  0.12691314390E+04  0.12817386314E+04  0.17300000000E+03 0.  1.
<mgrwt>
<rscale>  2 0.17933017E+03</rscale>
<asrwt>0</asrwt>
<pdfrwt beam="1">  1        4 0.28868586E+00 0.17933017E+03</pdfrwt>
<pdfrwt beam="2">  1       -4 0.30277676E-02 0.17933017E+03</pdfrwt>
<totfact> 0.40467966E+01</totfact>
</mgrwt>
</event>
<event>
 4    2  0.9452525E-001  0.1947555E+03  0.7546771E-02  0.1154241E+00
         -1   -1    0    0    0  501 -0.00000000000E+00  0.00000000000E+00  0.10050272371E+03  0.10050272371E+03  0.00000000000E+00 0. -1.
          1   -1    0    0  502    0  0.00000000000E+00 -0.00000000000E+00 -0.84891514009E+03  0.84891514009E+03  0.00000000000E+00 0.  1.
          6    1    1    2  502    0  0.53727874731E+02 -0.71512282652E+02 -0.72799433483E+03  0.75359501235E+03  0.17300000000E+03 0.  1.
         -6    1    1    2    0  501 -0.53727874731E+02  0.71512282652E+02 -0.20418081549E+02  0.19582285144E+03  0.17300000000E+03 0. -1.
<mgrwt>
<rscale>  2 0.19475546E+03</rscale>
<asrwt>0</asrwt>
<pdfrwt beam="1">  1        1 0.13060233E+00 0.19475546E+03</pdfrwt>
<pdfrwt beam="2">  1       -1 0.15461957E-01 0.19475546E+03</pdfrwt>
<totfact> 0.64811179E+02</totfact>
</mgrwt>
</event>
<event>
 4    2  0.9452525E-001  0.1825569E+03  0.7546771E-02  0.1165351E+00
         -2   -1    0    0    0  501 -0.00000000000E+00  0.00000000000E+00  0.69211572082E+02  0.69211572082E+02  0.00000000000E+00 0.  1.
          2   -1    0    0  502    0  0.00000000000E+00 -0.00000000000E+00 -0.92087979066E+03  0.92087979066E+03  0.00000000000E+00 0. -1.
          6    1    1    2  502    0 -0.58060771213E+02  0.51927385668E+01 -0.76777582942E+03  0.78918105776E+03  0.17300000000E+03 0. -1.
         -6    1    1    2    0  501  0.58060771213E+02 -0.51927385668E+01 -0.83892389154E+02  0.20091030498E+03  0.17300000000E+03 0.  1.
<mgrwt>
<rscale>  2 0.18255689E+03</rscale>
<asrwt>0</asrwt>
<pdfrwt beam="1">  1        2 0.14167381E+00 0.18255689E+03</pdfrwt>
<pdfrwt beam="2">  1       -2 0.10647934E-01 0.18255689E+03</pdfrwt>
<totfact> 0.17611575E+03</totfact>
</mgrwt>
</event>
<event>
 4    2  0.9452525E-001  0.1892752E+03  0.7546771E-02  0.1159117E+00
          2   -1    0    0  502    0  0.00000000000E+00  0.00000000000E+00  0.96234440695E+03  0.96234440695E+03  0.00000000000E+00 0. -1.
         -2   -1    0    0    0  501 -0.00000000000E+00 -0.00000000000E+00 -0.38569449144E+02  0.38569449144E+02  0.00000000000E+00 0.  1.
          6    1    1    2  502    0 -0.39764520487E+00  0.76784956465E+02  0.36851648326E+03  0.41428189207E+03  0.17300000000E+03 0. -1.
         -6    1    1    2    0  501  0.39764520487E+00 -0.76784956465E+02  0.55525847454E+03  0.58663196402E+03  0.17300000000E+03 0.  1.
<mgrwt>
<rscale>  2 0.18927516E+03</rscale>
<asrwt>0</asrwt>
<pdfrwt beam="1">  1        2 0.14805297E+00 0.18927516E+03</pdfrwt>
<pdfrwt beam="2">  1       -2 0.59337621E-02 0.18927516E+03</pdfrwt>
<totfact> 0.41259075E+03</totfact>
</mgrwt>
</event>
<event>
 4    2  0.9452525E-001  0.1834922E+03  0.7546771E-02  0.1164465E+00
         -1   -1    0    0    0  501 -0.00000000000E+00  0.00000000000E+00  0.13771899523E+03  0.13771899523E+03  0.00000000000E+00 0.  1.
          1   -1    0    0  502    0  0.00000000000E+00 -0.00000000000E+00 -0.42540662886E+03  0.42540662886E+03  0.00000000000E+00 0. -1.
          6    1    1    2  502    0 -0.26505577775E+01  0.61101305075E+02  0.39778590540E+02  0.18775444390E+03  0.17300000000E+03 0.  1.
         -6    1    1    2    0  501  0.26505577775E+01 -0.61101305075E+02 -0.32746622417E+03  0.37537118018E+03  0.17300000000E+03 0. -1.
<mgrwt>
<rscale>  2 0.18349222E+03</rscale>
<asrwt>0</asrwt>
<pdfrwt beam="1">  1        1 0.65447173E-01 0.18349222E+03</pdfrwt>
<pdfrwt beam="2">  1       -1 0.21187538E-01 0.18349222E+03</pdfrwt>
<totfact> 0.10242516E+03</totfact>
</mgrwt>
</event>
<event>
 4    2  0.9452525E-001  0.1881356E+03  0.7546771E-02  0.1160154E+00
         -2   -1    0    0    0  501 -0.00000000000E+00  0.00000000000E+00  0.41864041933E+02  0.41864041933E+02  0.00000000000E+00 0.  1.
          2   -1    0    0  502    0  0.00000000000E+00 -0.00000000000E+00 -0.11762230162E+04  0.11762230162E+04  0.00000000000E+00 0. -1.
          6    1    1    2  502    0  0.41611777898E+02 -0.61110383635E+02 -0.89014179163E+03  0.90980625864E+03  0.17300000000E+03 0. -1.
         -6    1    1    2    0  501 -0.41611777898E+02  0.61110383635E+02 -0.24421718267E+03  0.30828079953E+03  0.17300000000E+03 0.  1.
<mgrwt>
<rscale>  2 0.18813564E+03</rscale>
<asrwt>0</asrwt>
<pdfrwt beam="1">  1        2 0.18095740E+00 0.18813564E+03</pdfrwt>
<pdfrwt beam="2">  1       -2 0.64406215E-02 0.18813564E+03</pdfrwt>
<totfact> 0.27226654E+03</totfact>
</mgrwt>
</event>
<event>
 4    2  0.9452525E-001  0.2010965E+03  0.7546771E-02  0.1148817E+00
          1   -1    0    0  502    0  0.00000000000E+00  0.00000000000E+00  0.25936766752E+03  0.25936766752E+03  0.00000000000E+00 0. -1.
         -1   -1    0    0    0  501 -0.00000000000E+00 -0.00000000000E+00 -0.17583886921E+03  0.17583886921E+03  0.00000000000E+00 0.  1.
          6    1    1    2  502    0 -0.10172430191E+03 -0.12766129216E+02 -0.31479911555E+02  0.20354555383E+03  0.17300000000E+03 0. -1.
         -6    1    1    2    0  501  0.10172430191E+03  0.12766129216E+02  0.11500870986E+03  0.23166098290E+03  0.17300000000E+03 0. -1.
<mgrwt>
<rscale>  2 0.20109651E+03</rscale>
<asrwt>0</asrwt>
<pdfrwt beam="1">  1        1 0.39902718E-01 0.20109651E+03</pdfrwt>
<pdfrwt beam="2">  1       -1 0.27052134E-01 0.20109651E+03</pdfrwt>
<totfact> 0.12785103E+03</totfact>
</mgrwt>
</event>
<event>
 4    2  0.9452525E-001  0.3047710E+03  0.7546771E-02  0.1082880E+00
         -3   -1    0    0    0  501 -0.00000000000E+00  0.00000000000E+00  0.19607082154E+03  0.19607082154E+03  0.00000000000E+00 0.  1.
          3   -1    0    0  502    0  0.00000000000E+00 -0.00000000000E+00 -0.53448764381E+03  0.53448764381E+03  0.00000000000E+00 0. -1.
          6    1    1    2  502    0 -0.22698205280E+03  0.10693687756E+03 -0.29236099393E+03  0.42232724142E+03  0.17300000000E+03 0. -1.
         -6    1    1    2    0  501  0.22698205280E+03 -0.10693687756E+03 -0.46055828337E+02  0.30823122392E+03  0.17300000000E+03 0.  1.
<mgrwt>
<rscale>  2 0.30477098E+03</rscale>
<asrwt>0</asrwt>
<pdfrwt beam="1">  1        3 0.82228867E-01 0.30477098E+03</pdfrwt>
<pdfrwt beam="2">  1       -3 0.30164742E-01 0.30477098E+03</pdfrwt>
<totfact> 0.37433076E+01</totfact>
</mgrwt>
</event>
<event>
 4    2  0.9452525E-001  0.1986914E+03  0.7546771E-02  0.1150848E+00
         -1   -1    0    0    0  501 -0.00000000000E+00  0.00000000000E+00  0.11633663273E+04  0.11633663273E+04  0.00000000000E+00 0.  1.
          1   -1    0    0  502    0  0.00000000000E+00 -0.00000000000E+00 -0.39786999550E+02  0.39786999550E+02  0.00000000000E+00 0. -1.
          6    1    1    2  502    0  0.89972143137E+02  0.38135119960E+02  0.79251243838E+03  0.81703992491E+03  0.17300000000E+03 0. -1.
         -6    1    1    2    0  501 -0.89972143137E+02 -0.38135119960E+02  0.33106688934E+03  0.38611340191E+03  0.17300000000E+03 0. -1.
<mgrwt>
<rscale>  2 0.19869140E+03</rscale>
<asrwt>0</asrwt>
<pdfrwt beam="1">  1        1 0.61210777E-02 0.19869140E+03</pdfrwt>
<pdfrwt beam="2">  1       -1 0.17897941E+00 0.19869140E+03</pdfrwt>
<totfact> 0.29304035E+02</totfact>
</mgrwt>
</event>
<event>
 4    2  0.9452525E-001  0.1926200E+03  0.7546771E-02  0.1156119E+00
          2   -1    0    0  502    0  0.00000000000E+00  0.00000000000E+00  0.26802300089E+04  0.26802300089E+04  0.00000000000E+00 0. -1.
         -2   -1    0    0    0  501 -0.00000000000E+00 -0.00000000000E+00 -0.18592132726E+02  0.18592132726E+02  0.00000000000E+00 0.  1.
          6    1    1    2  502    0 -0.29496753152E+02  0.79393987599E+02  0.64881616640E+03  0.67680490653E+03  0.17300000000E+03 0.  1.
         -6    1    1    2    0  501  0.29496753152E+02 -0.79393987599E+02  0.20128217098E+04  0.20220172351E+04  0.17300000000E+03 0. -1.
<mgrwt>
<rscale>  2 0.19262000E+03</rscale>
<asrwt>0</asrwt>
<pdfrwt beam="1">  1        2 0.41234277E+00 0.19262000E+03</pdfrwt>
<pdfrwt beam="2">  1       -2 0.28603302E-02 0.19262000E+03</pdfrwt>
<totfact> 0.14655771E+03</totfact>
</mgrwt>
</event>
<event>
 4    2  0.9452525E-001  0.2294996E+03  0.7546771E-02  0.1126992E+00
         -1   -1    0    0    0  501 -0.00000000000E+00  0.00000000000E+00  0.28400574102E+03  0.28400574102E+03  0.00000000000E+00 0.  1.
          1   -1    0    0  502    0  0.00000000000E+00 -0.00000000000E+00 -0.20155571191E+03  0.20155571191E+03  0.00000000000E+00 0. -1.
          6    1    1    2  502    0  0.13386836451E+03 -0.69428690942E+02  0.10984471375E+03  0.25443259084E+03  0.17300000000E+03 0.  1.
         -6    1    1    2    0  501 -0.13386836451E+03  0.69428690942E+02 -0.27394684636E+02  0.23112886209E+03  0.17300000000E+03 0. -1.
<mgrwt>
<rscale>  2 0.22949963E+03</rscale>
<asrwt>0</asrwt>
<pdfrwt beam="1">  1        1 0.31008571E-01 0.22949963E+03</pdfrwt>
<pdfrwt beam="2">  1       -1 0.43693191E-01 0.22949963E+03</pdfrwt>
<totfact> 0.76557842E+02</totfact>
</mgrwt>
</event>
<event>
 4    2  0.9452525E-001  0.1752907E+03  0.7546771E-02  0.1172440E+00
          1   -1    0    0  502    0  0.00000000000E+00  0.00000000000E+00  0.41891417746E+02  0.41891417746E+02  0.00000000000E+00 0.  1.
         -1   -1    0    0    0  501 -0.00000000000E+00 -0.00000000000E+00 -0.10680556042E+04  0.10680556042E+04  0.00000000000E+00 0. -1.
          6    1    1    2  502    0  0.21619761955E+01  0.28162831232E+02 -0.20247041665E+03  0.26780793271E+03  0.17300000000E+03 0.  1.
         -6    1    1    2    0  501 -0.21619761955E+01 -0.28162831232E+02 -0.82369376984E+03  0.84213908927E+03  0.17300000000E+03 0. -1.
<mgrwt>
<rscale>  2 0.17529067E+03</rscale>
<asrwt>0</asrwt>
<pdfrwt beam="1">  1        1 0.64448340E-02 0.17529067E+03</pdfrwt>
<pdfrwt beam="2">  1       -1 0.16431623E+00 0.17529067E+03</pdfrwt>
<totfact> 0.34687039E+02</totfact>
</mgrwt>
</event>
<event>
 4    2  0.9452525E-001  0.2031852E+03  0.7546771E-02  0.1147079E+00
          1   -1    0    0  502    0  0.00000000000E+00  0.00000000000E+00  0.95492968601E+03  0.95492968601E+03  0.00000000000E+00 0. -1.
         -1   -1    0    0    0  501 -0.00000000000E+00 -0.00000000000E+00 -0.44425587135E+02  0.44425587135E+02  0.00000000000E+00 0.  1.
          6    1    1    2  502    0  0.60879081706E+02  0.87458400697E+02  0.37337460668E+03  0.42507979410E+03  0.17300000000E+03 0.  1.
         -6    1    1    2    0  501 -0.60879081706E+02 -0.87458400697E+02  0.53712949219E+03  0.57427547904E+03  0.17300000000E+03 0.  1.
<mgrwt>
<rscale>  2 0.20318522E+03</rscale>
<asrwt>0</asrwt>
<pdfrwt beam="1">  1        1 0.14691224E+00 0.20318522E+03</pdfrwt>
<pdfrwt beam="2">  1       -1 0.68347064E-02 0.20318522E+03</pdfrwt>
<totfact> 0.18912777E+03</totfact>
</mgrwt>
</event>
<event>
 4    2  0.9452525E-001  0.2242803E+03  0.7546771E-02  0.1130732E+00
         -1   -1    0    0    0  501 -0.00000000000E+00  0.00000000000E+00  0.13139892640E+04  0.13139892640E+04  0.00000000000E+00 0.  1.
          1   -1    0    0  502    0  0.00000000000E+00 -0.00000000000E+00 -0.44407501737E+02  0.44407501737E+02  0.00000000000E+00 0. -1.
          6    1    1    2  502    0 -0.58478885899E+01  0.14261289665E+03  0.38252830894E+03  0.44342929902E+03  0.17300000000E+03 0. -1.
         -6    1    1    2    0  501  0.58478885899E+01 -0.14261289665E+03  0.88705345332E+03  0.91496746671E+03  0.17300000000E+03 0. -1.
<mgrwt>
<rscale>  2 0.22428026E+03</rscale>
<asrwt>0</asrwt>
<pdfrwt beam="1">  1        1 0.68319243E-02 0.22428026E+03</pdfrwt>
<pdfrwt beam="2">  1       -1 0.20215216E+00 0.22428026E+03</pdfrwt>
<totfact> 0.17526912E+02</totfact>
</mgrwt>
</event>
<event>
 4    2  0.9452525E-001  0.2242253E+03  0.7546771E-02  0.1130772E+00
         -2   -1    0    0    0  501 -0.00000000000E+00  0.00000000000E+00  0.36474618151E+03  0.36474618151E+03  0.00000000000E+00 0.  1.
          2   -1    0    0  502    0  0.00000000000E+00 -0.00000000000E+00 -0.13801211094E+03  0.13801211094E+03  0.00000000000E+00 0. -1.
          6    1    1    2  502    0  0.52926996741E+02 -0.13246394315E+03  0.12221946252E+03  0.25537141625E+03  0.17300000000E+03 0. -1.
         -6    1    1    2    0  501 -0.52926996741E+02  0.13246394315E+03  0.10451460805E+03  0.24738687620E+03  0.17300000000E+03 0. -1.
<mgrwt>
<rscale>  2 0.22422525E+03</rscale>
<asrwt>0</asrwt>
<pdfrwt beam="1">  1        2 0.21232633E-01 0.22422525E+03</pdfrwt>
<pdfrwt beam="2">  1       -2 0.56114797E-01 0.22422525E+03</pdfrwt>
<totfact> 0.78562315E+02</totfact>
</mgrwt>
</event>
<event>
 4    2  0.9452525E-001  0.3221617E+03  0.7546771E-02  0.1074659E+00
         -1   -1    0    0    0  501 -0.00000000000E+00  0.00000000000E+00  0.98321224713E+02  0.98321224713E+02  0.00000000000E+00 0. -1.
          1   -1    0    0  502    0  0.00000000000E+00 -0.00000000000E+00 -0.10807696755E+04  0.10807696755E+04  0.00000000000E+00 0.  1.
          6    1    1    2  502    0 -0.21167303653E+03  0.17045141733E+03 -0.40126092680E+03  0.51458574742E+03  0.17300000000E+03 0. -1.
         -6    1    1    2    0  501  0.21167303653E+03 -0.17045141733E+03 -0.58118752402E+03  0.66450515283E+03  0.17300000000E+03 0.  1.
<mgrwt>
<rscale>  2 0.32216170E+03</rscale>
<asrwt>0</asrwt>
<pdfrwt beam="1">  1        1 0.16627225E+00 0.32216170E+03</pdfrwt>
<pdfrwt beam="2">  1       -1 0.15126343E-01 0.32216170E+03</pdfrwt>
<totfact> 0.44174476E+02</totfact>
</mgrwt>
</event>
<event>
 4    2  0.9452525E-001  0.1736333E+03  0.7546771E-02  0.1174111E+00
         -3   -1    0    0    0  501 -0.00000000000E+00  0.00000000000E+00  0.86626679978E+03  0.86626679978E+03  0.00000000000E+00 0.  1.
          3   -1    0    0  502    0  0.00000000000E+00 -0.00000000000E+00 -0.88829913844E+02  0.88829913844E+02  0.00000000000E+00 0. -1.
          6    1    1    2  502    0 -0.69919822941E+01 -0.13062116928E+02  0.16289319719E+02  0.17439566695E+03  0.17300000000E+03 0. -1.
         -6    1    1    2    0  501  0.69919822941E+01  0.13062116928E+02  0.76114756622E+03  0.78070104668E+03  0.17300000000E+03 0.  1.
<mgrwt>
<rscale>  2 0.17363325E+03</rscale>
<asrwt>0</asrwt>
<pdfrwt beam="1">  1        3 0.13666141E-01 0.17363325E+03</pdfrwt>
<pdfrwt beam="2">  1       -3 0.13327181E+00 0.17363325E+03</pdfrwt>
<totfact> 0.48324769E+01</totfact>
</mgrwt>
</event>
<event>
 4    2  0.9452525E-001  0.2528247E+03  0.7546771E-02  0.1111533E+00
          2   -1    0    0  502    0  0.00000000000E+00  0.00000000000E+00  0.43413802955E+03  0.43413802955E+03  0.00000000000E+00 0. -1.
         -2   -1    0    0    0  501 -0.00000000000E+00 -0.00000000000E+00 -0.17989108261E+03  0.17989108261E+03  0.00000000000E+00 0.  1.
          6    1    1    2  502    0 -0.17538166871E+03 -0.56856063036E+02  0.25793190859E+03  0.36117753403E+03  0.17300000000E+03 0. -1.
         -6    1    1    2    0  501  0.17538166871E+03  0.56856063036E+02 -0.36849616443E+01  0.25285157813E+03  0.17300000000E+03 0.  1.
<mgrwt>
<rscale>  2 0.25282473E+03</rscale>
<asrwt>0</asrwt>
<pdfrwt beam="1">  1        2 0.66790466E-01 0.25282473E+03</pdfrwt>
<pdfrwt beam="2">  1       -2 0.27675551E-01 0.25282473E+03</pdfrwt>
<totfact> 0.86548430E+02</totfact>
</mgrwt>
</event>
<event>
 4    2  0.9452525E-001  0.3038816E+03  0.7546771E-02  0.1083316E+00
         -2   -1    0    0    0  501 -0.00000000000E+00  0.00000000000E+00  0.15743927551E+03  0.15743927551E+03  0.00000000000E+00 0.  1.
          2   -1    0    0  502    0  0.00000000000E+00 -0.00000000000E+00 -0.60744035583E+03  0.60744035583E+03  0.00000000000E+00 0. -1.
          6    1    1    2  502    0 -0.22768443100E+03 -0.10283383699E+03 -0.29594472317E+03  0.42417835556E+03  0.17300000000E+03 0.  1.
         -6    1    1    2    0  501  0.22768443100E+03  0.10283383699E+03 -0.15405635714E+03  0.34070127579E+03  0.17300000000E+03 0.  1.
<mgrwt>
<rscale>  2 0.30388155E+03</rscale>
<asrwt>0</asrwt>
<pdfrwt beam="1">  1        2 0.93452360E-01 0.30388155E+03</pdfrwt>
<pdfrwt beam="2">  1       -2 0.24221428E-01 0.30388155E+03</pdfrwt>
<totfact> 0.74992096E+02</totfact>
</mgrwt>
</event>
<event>
 4    2  0.9452525E-001  0.2798131E+03  0.7546771E-02  0.1095791E+00
          1   -1    0    0  502    0  0.00000000000E+00  0.00000000000E+00  0.24049783089E+04  0.24049783089E+04  0.00000000000E+00 0. -1.
         -1   -1    0    0    0  501 -0.00000000000E+00 -0.00000000000E+00 -0.33788656232E+02  0.33788656232E+02  0.00000000000E+00 0.  1.
          6    1    1    2  502    0  0.67343534298E+02  0.20935907597E+03  0.14185414175E+04  0.14458752115E+04  0.17300000000E+03 0.  1.
         -6    1    1    2    0  501 -0.67343534298E+02 -0.20935907597E+03  0.95264823517E+03  0.99289175356E+03  0.17300000000E+03 0.  1.
<mgrwt>
<rscale>  2 0.27981311E+03</rscale>
<asrwt>0</asrwt>
<pdfrwt beam="1">  1        1 0.36999653E+00 0.27981311E+03</pdfrwt>
<pdfrwt beam="2">  1       -1 0.51982567E-02 0.27981311E+03</pdfrwt>
<totfact> 0.30365287E+02</totfact>
</mgrwt>
</event>
<event>
 4    2  0.9452525E-001  0.1987699E+03  0.7546771E-02  0.1150781E+00
         -2   -1    0    0    0  501 -0.00000000000E+00  0.00000000000E+00  0.39749319820E+03  0.39749319820E+03  0.00000000000E+00 0. -1.
          2   -1    0    0  502    0  0.00000000000E+00 -0.00000000000E+00 -0.10442898402E+03  0.10442898402E+03  0.00000000000E+00 0.  1.
          6    1    1    2  502    0  0.80885873902E+02  0.55117441398E+02  0.20162358654E+03  0.28312811162E+03  0.17300000000E+03 0. -1.
         -6    1    1    2    0  501 -0.80885873902E+02 -0.55117441398E+02  0.91440627641E+02  0.21879407059E+03  0.17300000000E+03 0.  1.
<mgrwt>
<rscale>  2 0.19876986E+03</rscale>
<asrwt>0</asrwt>
<pdfrwt beam="1">  1        2 0.16065998E-01 0.19876986E+03</pdfrwt>
<pdfrwt beam="2">  1       -2 0.61152799E-01 0.19876986E+03</pdfrwt>
<totfact> 0.90611046E+02</totfact>
</mgrwt>
</event>
<event>
 4    2  0.9452525E-001  0.1764254E+03  0.7546771E-02  0.1171308E+00
         -3   -1    0    0    0  501 -0.00000000000E+00  0.00000000000E+00  0.16640522774E+03  0.16640522774E+03  0.00000000000E+00 0.  1.
          3   -1    0    0  502    0  0.00000000000E+00 -0.00000000000E+00 -0.18707412362E+03  0.18707412362E+03  0.00000000000E+00 0. -1.
          6    1    1    2  502    0  0.62508611104E+01 -0.34027002531E+02 -0.82810616933E+01  0.17661960862E+03  0.17300000000E+03 0.  1.
         -6    1    1    2    0  501 -0.62508611104E+01  0.34027002531E+02 -0.12387834180E+02  0.17685974274E+03  0.17300000000E+03 0.  1.
<mgrwt>
<rscale>  2 0.17642537E+03</rscale>
<asrwt>0</asrwt>
<pdfrwt beam="1">  1        3 0.28780634E-01 0.17642537E+03</pdfrwt>
<pdfrwt beam="2">  1       -3 0.25600804E-01 0.17642537E+03</pdfrwt>
<totfact> 0.40126693E+02</totfact>
</mgrwt>
</event>
<event>
 4    2  0.9452525E-001  0.2473112E+03  0.7546771E-02  0.1115016E+00
          4   -1    0    0  502    0  0.00000000000E+00  0.00000000000E+00  0.83875662448E+03  0.83875662448E+03  0.00000000000E+00 0.  1.
         -4   -1    0    0    0  501 -0.00000000000E+00 -0.00000000000E+00 -0.91146942971E+02  0.91146942971E+02  0.00000000000E+00 0. -1.
          6    1    1    2  502    0 -0.13375962862E+03  0.11550842003E+03  0.16589079232E+03  0.29779621946E+03  0.17300000000E+03 0. -1.
         -6    1    1    2    0  501  0.13375962862E+03 -0.11550842003E+03  0.58171888919E+03  0.63210734799E+03  0.17300000000E+03 0.  1.
<mgrwt>
<rscale>  2 0.24731121E+03</rscale>
<asrwt>0</asrwt>
<pdfrwt beam="1">  1        4 0.12903948E+00 0.24731121E+03</pdfrwt>
<pdfrwt beam="2">  1       -4 0.14022607E-01 0.24731121E+03</pdfrwt>
<totfact> 0.35729982E+01</totfact>
</mgrwt>
</event>
<event>
 4    2  0.9452525E-001  0.1937401E+03  0.7546771E-02  0.1155131E+00
         -1   -1    0    0    0  501 -0.00000000000E+00  0.00000000000E+00  0.62531153879E+02  0.62531153879E+02  0.00000000000E+00 0. -1.
          1   -1    0    0  502    0  0.00000000000E+00 -0.00000000000E+00 -0.75401277112E+03  0.75401277112E+03  0.00000000000E+00 0.  1.
          6    1    1    2  502    0 -0.48496315220E+02 -0.72486788953E+02 -0.16138134706E+03  0.25214909546E+03  0.17300000000E+03 0. -1.
         -6    1    1    2    0  501  0.48496315220E+02  0.72486788953E+02 -0.53010027018E+03  0.56439482954E+03  0.17300000000E+03 0.  1.
<mgrwt>
<rscale>  2 0.19374010E+03</rscale>
<asrwt>0</asrwt>
<pdfrwt beam="1">  1        1 0.11600197E+00 0.19374010E+03</pdfrwt>
<pdfrwt beam="2">  1       -1 0.96201771E-02 0.19374010E+03</pdfrwt>
<totfact> 0.16278432E+03</totfact>
</mgrwt>
</event>
<event>
 4    2  0.9452525E-001  0.1852368E+03  0.7546771E-02  0.1162829E+00
          2   -1    0    0  502    0  0.00000000000E+00  0.00000000000E+00  0.34384871155E+04  0.34384871155E+04  0.00000000000E+00 0.  1.
         -2   -1    0    0    0  501 -0.00000000000E+00 -0.00000000000E+00 -0.15606955574E+02  0.15606955574E+02  0.00000000000E+00 0. -1.
          6    1    1    2  502    0  0.52483346966E+02  0.40362995018E+02  0.67434091427E+03  0.69931991373E+03  0.17300000000E+03 0. -1.
         -6    1    1    2    0  501 -0.52483346966E+02 -0.40362995018E+02  0.27485392457E+04  0.27547741574E+04  0.17300000000E+03 0.  1.
<mgrwt>
<rscale>  2 0.18523680E+03</rscale>
<asrwt>0</asrwt>
<pdfrwt beam="1">  1        2 0.52899741E+00 0.18523680E+03</pdfrwt>
<pdfrwt beam="2">  1       -2 0.24010728E-02 0.18523680E+03</pdfrwt>
<totfact> 0.67311661E+02</totfact>
</mgrwt>
</event>
<event>
 4    2  0.9452525E-001  0.2921319E+03  0.7546771E-02  0.1089241E+00
          4   -1    0    0  502    0  0.00000000000E+00  0.00000000000E+00  0.85831043709E+03  0.85831043709E+03  0.00000000000E+00 0. -1.
         -4   -1    0    0    0  501 -0.00000000000E+00 -0.00000000000E+00 -0.10906874157E+03  0.10906874157E+03  0.00000000000E+00 0.  1.
          6    1    1    2  502    0 -0.18619748675E+03  0.14402278654E+03  0.23082505813E+03  0.37231878085E+03  0.17300000000E+03 0.  1.
         -6    1    1    2    0  501  0.18619748675E+03 -0.14402278654E+03  0.51841663740E+03  0.59506039781E+03  0.17300000000E+03 0. -1.
<mgrwt>
<rscale>  2 0.29213193E+03</rscale>
<asrwt>0</asrwt>
<pdfrwt beam="1">  1        4 0.13204776E+00 0.29213193E+03</pdfrwt>
<pdfrwt beam="2">  1       -4 0.16779807E-01 0.29213193E+03</pdfrwt>
<totfact> 0.24911304E+01</totfact>
</mgrwt>
</event>
<event>
 4    2  0.9452525E-001  0.3580939E+03  0.7546771E-02  0.1059341E+00
          2   -1    0    0  502    0  0.00000000000E+00  0.00000000000E+00  0.10566806861E+04  0.10566806861E+04  0.00000000000E+00 0.  1.
         -2   -1    0    0    0  501 -0.00000000000E+00 -0.00000000000E+00 -0.78946399826E+03  0.78946399826E+03  0.00000000000E+00 0. -1.
          6    1    1    2  502    0  0.14118027677E+03 -0.27994705002E+03  0.98277695079E+03  0.10459836310E+04  0.17300000000E+03 0.  1.
         -6    1    1    2    0  501 -0.14118027677E+03  0.27994705002E+03 -0.71556026295E+03  0.80016105334E+03  0.17300000000E+03 0. -1.
<mgrwt>
<rscale>  2 0.35809387E+03</rscale>
<asrwt>0</asrwt>
<pdfrwt beam="1">  1        2 0.16256626E+00 0.35809387E+03</pdfrwt>
<pdfrwt beam="2">  1       -2 0.12145600E+00 0.35809387E+03</pdfrwt>
<totfact> 0.12979527E+01</totfact>
</mgrwt>
</event>
<event>
 4    2  0.9452525E-001  0.2158672E+03  0.7546771E-02  0.1137002E+00
         -2   -1    0    0    0  501 -0.00000000000E+00  0.00000000000E+00  0.66165924358E+02  0.66165924358E+02  0.00000000000E+00 0.  1.
          2   -1    0    0  502    0  0.00000000000E+00 -0.00000000000E+00 -0.70530193498E+03  0.70530193498E+03  0.00000000000E+00 0. -1.
          6    1    1    2  502    0  0.11814437642E+03  0.52072451929E+02 -0.33432706830E+03  0.39796133295E+03  0.17300000000E+03 0. -1.
         -6    1    1    2    0  501 -0.11814437642E+03 -0.52072451929E+02 -0.30480894233E+03  0.37350652638E+03  0.17300000000E+03 0.  1.
<mgrwt>
<rscale>  2 0.21586717E+03</rscale>
<asrwt>0</asrwt>
<pdfrwt beam="1">  1        2 0.10850800E+00 0.21586717E+03</pdfrwt>
<pdfrwt beam="2">  1       -2 0.10179372E-01 0.21586717E+03</pdfrwt>
<totfact> 0.26614449E+03</totfact>
</mgrwt>
</event>
<event>
 4    2  0.9452525E-001  0.1856519E+03  0.7546771E-02  0.1162443E+00
         -2   -1    0    0    0  501 -0.00000000000E+00  0.00000000000E+00  0.15039327057E+03  0.15039327057E+03  0.00000000000E+00 0.  1.
          2   -1    0    0  502    0  0.00000000000E+00 -0.00000000000E+00 -0.23383029107E+03  0.23383029107E+03  0.00000000000E+00 0. -1.
          6    1    1    2  502    0  0.55614914653E+02  0.38008063051E+02 -0.68820320450E+02  0.19799714163E+03  0.17300000000E+03 0. -1.
         -6    1    1    2    0  501 -0.55614914653E+02 -0.38008063051E+02 -0.14616700050E+02  0.18622642001E+03  0.17300000000E+03 0. -1.
<mgrwt>
<rscale>  2 0.18565191E+03</rscale>
<asrwt>0</asrwt>
<pdfrwt beam="1">  1        2 0.35973891E-01 0.18565191E+03</pdfrwt>
<pdfrwt beam="2">  1       -2 0.23137426E-01 0.18565191E+03</pdfrwt>
<totfact> 0.23030438E+03</totfact>
</mgrwt>
</event>
<event>
 4    2  0.9452525E-001  0.1905627E+03  0.7546771E-02  0.1157955E+00
          2   -1    0    0  502    0  0.00000000000E+00  0.00000000000E+00  0.67672951000E+03  0.67672951000E+03  0.00000000000E+00 0. -1.
         -2   -1    0    0    0  501 -0.00000000000E+00 -0.00000000000E+00 -0.67641241696E+02  0.67641241696E+02  0.00000000000E+00 0.  1.
          6    1    1    2  502    0  0.70647005603E+02 -0.37338169574E+02  0.13534143897E+03  0.23373370192E+03  0.17300000000E+03 0.  1.
         -6    1    1    2    0  501 -0.70647005603E+02  0.37338169574E+02  0.47374682933E+03  0.51063704978E+03  0.17300000000E+03 0. -1.
<mgrwt>
<rscale>  2 0.19056269E+03</rscale>
<asrwt>0</asrwt>
<pdfrwt beam="1">  1        2 0.10411223E+00 0.19056269E+03</pdfrwt>
<pdfrwt beam="2">  1       -2 0.10406345E-01 0.19056269E+03</pdfrwt>
<totfact> 0.26927575E+03</totfact>
</mgrwt>
</event>
<event>
 4    2  0.9452525E-001  0.1988871E+03  0.7546771E-02  0.1150681E+00
         -1   -1    0    0    0  501 -0.00000000000E+00  0.00000000000E+00  0.24145553563E+03  0.24145553563E+03  0.00000000000E+00 0.  1.
          1   -1    0    0  502    0  0.00000000000E+00 -0.00000000000E+00 -0.21226305832E+03  0.21226305832E+03  0.00000000000E+00 0. -1.
          6    1    1    2  502    0  0.91399832041E+02 -0.35681330031E+02 -0.93776373354E+02  0.21988654986E+03  0.17300000000E+03 0. -1.
         -6    1    1    2    0  501 -0.91399832041E+02  0.35681330031E+02  0.12296885066E+03  0.23383204409E+03  0.17300000000E+03 0. -1.
<mgrwt>
<rscale>  2 0.19888712E+03</rscale>
<asrwt>0</asrwt>
<pdfrwt beam="1">  1        1 0.32655855E-01 0.19888712E+03</pdfrwt>
<pdfrwt beam="2">  1       -1 0.37147006E-01 0.19888712E+03</pdfrwt>
<totfact> 0.95552589E+02</totfact>
</mgrwt>
</event>
<event>
 4    2  0.9452525E-001  0.2195299E+03  0.7546771E-02  0.1134234E+00
          2   -1    0    0  502    0  0.00000000000E+00  0.00000000000E+00  0.19250058065E+04  0.19250058065E+04  0.00000000000E+00 0. -1.
         -2   -1    0    0    0  501 -0.00000000000E+00 -0.00000000000E+00 -0.34597237295E+02  0.34597237295E+02  0.00000000000E+00 0.  1.
          6    1    1    2  502    0  0.12158508842E+03  0.59003688441E+02  0.43010950678E+03  0.48289497491E+03  0.17300000000E+03 0.  1.
         -6    1    1    2    0  501 -0.12158508842E+03 -0.59003688441E+02  0.14602990625E+04  0.14767080689E+04  0.17300000000E+03 0. -1.
<mgrwt>
<rscale>  2 0.21952988E+03</rscale>
<asrwt>0</asrwt>
<pdfrwt beam="1">  1        2 0.29615466E+00 0.21952988E+03</pdfrwt>
<pdfrwt beam="2">  1       -2 0.53226534E-02 0.21952988E+03</pdfrwt>
<totfact> 0.14542789E+03</totfact>
</mgrwt>
</event>
<event>
 4    2  0.9452525E-001  0.2405652E+03  0.7546771E-02  0.1119417E+00
          2   -1    0    0  502    0  0.00000000000E+00  0.00000000000E+00  0.16361155191E+04  0.16361155191E+04  0.00000000000E+00 0.  1.
         -2   -1    0    0    0  501 -0.00000000000E+00 -0.00000000000E+00 -0.36673473522E+02  0.36673473522E+02  0.00000000000E+00 0. -1.
          6    1    1    2  502    0 -0.14878820384E+03  0.76188502333E+02  0.64211930468E+03  0.68570315658E+03  0.17300000000E+03 0. -1.
         -6    1    1    2    0  501  0.14878820384E+03 -0.76188502333E+02  0.95732274092E+03  0.98708583607E+03  0.17300000000E+03 0.  1.
<mgrwt>
<rscale>  2 0.24056520E+03</rscale>
<asrwt>0</asrwt>
<pdfrwt beam="1">  1        2 0.25171002E+00 0.24056520E+03</pdfrwt>
<pdfrwt beam="2">  1       -2 0.56420741E-02 0.24056520E+03</pdfrwt>
<totfact> 0.18812532E+03</totfact>
</mgrwt>
</event>
<event>
 4    2  0.9452525E-001  0.1837894E+03  0.7546771E-02  0.1164185E+00
         -2   -1    0    0    0  501 -0.00000000000E+00  0.00000000000E+00  0.46592724590E+02  0.46592724590E+02  0.00000000000E+00 0. -1.
          2   -1    0    0  502    0  0.00000000000E+00 -0.00000000000E+00 -0.73115247055E+03  0.73115247055E+03  0.00000000000E+00 0.  1.
          6    1    1    2  502    0 -0.57207638566E+02 -0.24017382865E+02 -0.37802507038E+03  0.42033498835E+03  0.17300000000E+03 0.  1.
         -6    1    1    2    0  501  0.57207638566E+02  0.24017382865E+02 -0.30653467558E+03  0.35741020679E+03  0.17300000000E+03 0. -1.
<mgrwt>
<rscale>  2 0.18378941E+03</rscale>
<asrwt>0</asrwt>
<pdfrwt beam="1">  1        2 0.11248500E+00 0.18378941E+03</pdfrwt>
<pdfrwt beam="2">  1       -2 0.71681112E-02 0.18378941E+03</pdfrwt>
<totfact> 0.43922829E+03</totfact>
</mgrwt>
</event>
<event>
 4    2  0.9452525E-001  0.1743209E+03  0.7546771E-02  0.1173415E+00
          2   -1    0    0  502    0  0.00000000000E+00  0.00000000000E+00  0.17173726902E+04  0.17173726902E+04  0.00000000000E+00 0.  1.
         -2   -1    0    0    0  501 -0.00000000000E+00 -0.00000000000E+00 -0.17795698517E+02  0.17795698517E+02  0.00000000000E+00 0. -1.
          6    1    1    2  502    0 -0.12971552437E+02  0.17044870592E+02  0.91526246089E+03  0.93171517166E+03  0.17300000000E+03 0.  1.
         -6    1    1    2    0  501  0.12971552437E+02 -0.17044870592E+02  0.78431453074E+03  0.80345321700E+03  0.17300000000E+03 0. -1.
<mgrwt>
<rscale>  2 0.17432094E+03</rscale>
<asrwt>0</asrwt>
<pdfrwt beam="1">  1        2 0.26421105E+00 0.17432094E+03</pdfrwt>
<pdfrwt beam="2">  1       -2 0.27378011E-02 0.17432094E+03</pdfrwt>
<totfact> 0.50465743E+03</totfact>
</mgrwt>
</event>
<event>
 4    2  0.9452525E-001  0.2367906E+03  0.7546771E-02  0.1121949E+00
          2   -1    0    0  502    0  0.00000000000E+00  0.00000000000E+00  0.20081599974E+04  0.20081599974E+04  0.00000000000E+00 0. -1.
         -2   -1    0    0    0  501 -0.00000000000E+00 -0.00000000000E+00 -0.33550863658E+02  0.33550863658E+02  0.00000000000E+00 0.  1.
          6    1    1    2  502    0 -0.87644222793E+02  0.13586496413E+03  0.56912573893E+03  0.61642023408E+03  0.17300000000E+03 0.  1.
         -6    1    1    2    0  501  0.87644222793E+02 -0.13586496413E+03  0.14054833948E+04  0.14252906270E+04  0.17300000000E+03 0. -1.
<mgrwt>
<rscale>  2 0.23679062E+03</rscale>
<asrwt>0</asrwt>
<pdfrwt beam="1">  1        2 0.30894760E+00 0.23679062E+03</pdfrwt>
<pdfrwt beam="2">  1       -2 0.51616729E-02 0.23679062E+03</pdfrwt>
<totfact> 0.13764735E+03</totfact>
</mgrwt>
</event>
<event>
 4    2  0.9452525E-001  0.1847930E+03  0.7546771E-02  0.1163243E+00
         -1   -1    0    0    0  501 -0.00000000000E+00  0.00000000000E+00  0.44843720643E+02  0.44843720643E+02  0.00000000000E+00 0. -1.
          1   -1    0    0  502    0  0.00000000000E+00 -0.00000000000E+00 -0.76933963957E+03  0.76933963957E+03  0.00000000000E+00 0.  1.
          6    1    1    2  502    0 -0.62438676816E+02 -0.17912388928E+02 -0.40334521878E+03  0.44366181665E+03  0.17300000000E+03 0.  1.
         -6    1    1    2    0  501  0.62438676816E+02  0.17912388928E+02 -0.32115070015E+03  0.37052154356E+03  0.17300000000E+03 0.  1.
<mgrwt>
<rscale>  2 0.18479297E+03</rscale>
<asrwt>0</asrwt>
<pdfrwt beam="1">  1        1 0.11835994E+00 0.18479297E+03</pdfrwt>
<pdfrwt beam="2">  1       -1 0.68990340E-02 0.18479297E+03</pdfrwt>
<totfact> 0.26185537E+03</totfact>
</mgrwt>
</event>
<event>
 4    2  0.9452525E-001  0.2009097E+03  0.7546771E-02  0.1148974E+00
         -1   -1    0    0    0  501 -0.00000000000E+00  0.00000000000E+00  0.74785483528E+02  0.74785483528E+02  0.00000000000E+00 0. -1.
          1   -1    0    0  502    0  0.00000000000E+00 -0.00000000000E+00 -0.57950392125E+03  0.57950392125E+03  0.00000000000E+00 0.  1.
          6    1    1    2  502    0  0.94721424435E+02  0.38256234191E+02 -0.16666363628E+03  0.26103918357E+03  0.17300000000E+03 0.  1.
         -6    1    1    2    0  501 -0.94721424435E+02 -0.38256234191E+02 -0.33805480144E+03  0.39325022120E+03  0.17300000000E+03 0.  1.
<mgrwt>
<rscale>  2 0.20090965E+03</rscale>
<asrwt>0</asrwt>
<pdfrwt beam="1">  1        1 0.89154446E-01 0.20090965E+03</pdfrwt>
<pdfrwt beam="2">  1       -1 0.11505459E-01 0.20090965E+03</pdfrwt>
<totfact> 0.17967561E+03</totfact>
</mgrwt>
</event>
<event>
 4    2  0.9452525E-001  0.2447442E+03  0.7546771E-02  0.1116672E+00
          1   -1    0    0  502    0  0.00000000000E+00  0.00000000000E+00  0.93126338507E+03  0.93126338507E+03  0.00000000000E+00 0.  1.
         -1   -1    0    0    0  501 -0.00000000000E+00 -0.00000000000E+00 -0.13726051316E+03  0.13726051316E+03  0.00000000000E+00 0. -1.
          6    1    1    2  502    0  0.60836225098E+02  0.16207915610E+03  0.75411640143E+01  0.24486030361E+03  0.17300000000E+03 0. -1.
         -6    1    1    2    0  501 -0.60836225098E+02 -0.16207915610E+03  0.78646170789E+03  0.82366359462E+03  0.17300000000E+03 0.  1.
<mgrwt>
<rscale>  2 0.24474415E+03</rscale>
<asrwt>0</asrwt>
<pdfrwt beam="1">  1        1 0.14327129E+00 0.24474415E+03</pdfrwt>
<pdfrwt beam="2">  1       -1 0.21117003E-01 0.24474415E+03</pdfrwt>
<totfact> 0.33627487E+02</totfact>
</mgrwt>
</event>
<event>
 4    2  0.9452525E-001  0.2017795E+03  0.7546771E-02  0.1148246E+00
          1   -1    0    0  502    0  0.00000000000E+00  0.00000000000E+00  0.27355483070E+03  0.27355483070E+03  0.00000000000E+00 0. -1.
         -1   -1    0    0    0  501 -0.00000000000E+00 -0.00000000000E+00 -0.24115499587E+03  0.24115499587E+03  0.00000000000E+00 0.  1.
          6    1    1    2  502    0  0.42204197745E+02 -0.94893442463E+02 -0.14303142381E+03  0.24733165573E+03  0.17300000000E+03 0.  1.
         -6    1    1    2    0  501 -0.42204197745E+02  0.94893442463E+02  0.17543125865E+03  0.26737817084E+03  0.17300000000E+03 0. -1.
<mgrwt>
<rscale>  2 0.20177948E+03</rscale>
<asrwt>0</asrwt>
<pdfrwt beam="1">  1        1 0.42085358E-01 0.20177948E+03</pdfrwt>
<pdfrwt beam="2">  1       -1 0.37100769E-01 0.20177948E+03</pdfrwt>
<totfact> 0.69713322E+02</totfact>
</mgrwt>
</event>
<event>
 4    2  0.9452525E-001  0.2046789E+03  0.7546771E-02  0.1145850E+00
          1   -1    0    0  502    0  0.00000000000E+00  0.00000000000E+00  0.96582800770E+03  0.96582800770E+03  0.00000000000E+00 0.  1.
         -1   -1    0    0    0  501 -0.00000000000E+00 -0.00000000000E+00 -0.43698827728E+02  0.43698827728E+02  0.00000000000E+00 0. -1.
          6    1    1    2  502    0 -0.57312202587E+02  0.93165206781E+02  0.41765805524E+03  0.46511471212E+03  0.17300000000E+03 0. -1.
         -6    1    1    2    0  501  0.57312202587E+02 -0.93165206781E+02  0.50447112473E+03  0.54441212331E+03  0.17300000000E+03 0.  1.
<mgrwt>
<rscale>  2 0.20467888E+03</rscale>
<asrwt>0</asrwt>
<pdfrwt beam="1">  1        1 0.14858891E+00 0.20467888E+03</pdfrwt>
<pdfrwt beam="2">  1       -1 0.67228973E-02 0.20467888E+03</pdfrwt>
<totfact> 0.19027154E+03</totfact>
</mgrwt>
</event>
<event>
 4    2  0.9452525E-001  0.1733600E+03  0.7546771E-02  0.1174388E+00
         -1   -1    0    0    0  501 -0.00000000000E+00  0.00000000000E+00  0.38447983625E+02  0.38447983625E+02  0.00000000000E+00 0.  1.
          1   -1    0    0  502    0  0.00000000000E+00 -0.00000000000E+00 -0.78175072110E+03  0.78175072110E+03  0.00000000000E+00 0. -1.
          6    1    1    2  502    0 -0.80006602605E+01 -0.77902454813E+01 -0.36752672956E+03  0.40636140987E+03  0.17300000000E+03 0.  1.
         -6    1    1    2    0  501  0.80006602605E+01  0.77902454813E+01 -0.37577600791E+03  0.41383729485E+03  0.17300000000E+03 0. -1.
<mgrwt>
<rscale>  2 0.17336003E+03</rscale>
<asrwt>0</asrwt>
<pdfrwt beam="1">  1        1 0.12026934E+00 0.17336003E+03</pdfrwt>
<pdfrwt beam="2">  1       -1 0.59150746E-02 0.17336003E+03</pdfrwt>
<totfact> 0.32165604E+03</totfact>
</mgrwt>
</event>
<event>
 4    2  0.9452525E-001  0.1843511E+03  0.7546771E-02  0.1163657E+00
         -2   -1    0    0    0  501 -0.00000000000E+00  0.00000000000E+00  0.14204029839E+02  0.14204029839E+02  0.00000000000E+00 0. -1.
          2   -1    0    0  502    0  0.00000000000E+00 -0.00000000000E+00 -0.24612548986E+04  0.24612548986E+04  0.00000000000E+00 0.  1.
          6    1    1    2  502    0  0.53615074118E+02  0.34376442243E+02 -0.14301658183E+04  0.14419984687E+04  0.17300000000E+03 0.  1.
         -6    1    1    2    0  501 -0.53615074118E+02 -0.34376442243E+02 -0.10168850504E+04  0.10334604597E+04  0.17300000000E+03 0. -1.
<mgrwt>
<rscale>  2 0.18435107E+03</rscale>
<asrwt>0</asrwt>
<pdfrwt beam="1">  1        2 0.37865505E+00 0.18435107E+03</pdfrwt>
<pdfrwt beam="2">  1       -2 0.21852328E-02 0.18435107E+03</pdfrwt>
<totfact> 0.28724604E+03</totfact>
</mgrwt>
</event>
<event>
 4    2  0.9452525E-001  0.2140084E+03  0.7546771E-02  0.1138430E+00
         -2   -1    0    0    0  501 -0.00000000000E+00  0.00000000000E+00  0.14707102768E+03  0.14707102768E+03  0.00000000000E+00 0. -1.
          2   -1    0    0  502    0  0.00000000000E+00 -0.00000000000E+00 -0.33175216543E+03  0.33175216543E+03  0.00000000000E+00 0.  1.
          6    1    1    2  502    0  0.43647849344E+02  0.11817562978E+03 -0.15162225164E+03  0.26227642178E+03  0.17300000000E+03 0.  1.
         -6    1    1    2    0  501 -0.43647849344E+02 -0.11817562978E+03 -0.33058886112E+02  0.21654677134E+03  0.17300000000E+03 0. -1.
<mgrwt>
<rscale>  2 0.21400844E+03</rscale>
<asrwt>0</asrwt>
<pdfrwt beam="1">  1        2 0.51038794E-01 0.21400844E+03</pdfrwt>
<pdfrwt beam="2">  1       -2 0.22626312E-01 0.21400844E+03</pdfrwt>
<totfact> 0.16507774E+03</totfact>
</mgrwt>
</event>
<event>
 4    2  0.9452525E-001  0.1764003E+03  0.7546771E-02  0.1171333E+00
          2   -1    0    0  502    0  0.00000000000E+00  0.00000000000E+00  0.50766914348E+03  0.50766914348E+03  0.00000000000E+00 0. -1.
         -2   -1    0    0    0  501 -0.00000000000E+00 -0.00000000000E+00 -0.89563437079E+02  0.89563437079E+02  0.00000000000E+00 0.  1.
          6    1    1    2  502    0 -0.13297537279E+02 -0.31799846661E+02  0.41285687038E+02  0.18116722303E+03  0.17300000000E+03 0.  1.
         -6    1    1    2    0  501  0.13297537279E+02  0.31799846661E+02  0.37682001936E+03  0.41606535753E+03  0.17300000000E+03 0. -1.
<mgrwt>
<rscale>  2 0.17640027E+03</rscale>
<asrwt>0</asrwt>
<pdfrwt beam="1">  1        2 0.78102943E-01 0.17640027E+03</pdfrwt>
<pdfrwt beam="2">  1       -2 0.13778991E-01 0.17640027E+03</pdfrwt>
<totfact> 0.23790361E+03</totfact>
</mgrwt>
</event>
<event>
 4    2  0.9452525E-001  0.1793803E+03  0.7546771E-02  0.1168404E+00
          1   -1    0    0  502    0  0.00000000000E+00  0.00000000000E+00  0.32933452428E+03  0.32933452428E+03  0.00000000000E+00 0.  1.
         -1   -1    0    0    0  501 -0.00000000000E+00 -0.00000000000E+00 -0.99204375021E+02  0.99204375021E+02  0.00000000000E+00 0. -1.
          6    1    1    2  502    0 -0.42230465780E+02  0.21560980582E+02  0.14141625849E+03  0.22842032810E+03  0.17300000000E+03 0.  1.
         -6    1    1    2    0  501  0.42230465780E+02 -0.21560980582E+02  0.88713890765E+02  0.20011857120E+03  0.17300000000E+03 0. -1.
<mgrwt>
<rscale>  2 0.17938029E+03</rscale>
<asrwt>0</asrwt>
<pdfrwt beam="1">  1        1 0.50666849E-01 0.17938029E+03</pdfrwt>
<pdfrwt beam="2">  1       -1 0.15262212E-01 0.17938029E+03</pdfrwt>
<totfact> 0.23945069E+03</totfact>
</mgrwt>
</event>
<event>
 4    2  0.9452525E-001  0.1740441E+03  0.7546771E-02  0.1173695E+00
          1   -1    0    0  502    0  0.00000000000E+00  0.00000000000E+00  0.19252254849E+03  0.19252254849E+03  0.00000000000E+00 0. -1.
         -1   -1    0    0    0  501 -0.00000000000E+00 -0.00000000000E+00 -0.32090489986E+03  0.32090489986E+03  0.00000000000E+00 0.  1.
          6    1    1    2  502    0  0.18914053332E+02  0.21456713892E+01  0.11908542463E+03  0.21088547527E+03  0.17300000000E+03 0. -1.
         -6    1    1    2    0  501 -0.18914053332E+02 -0.21456713892E+01 -0.24746777600E+03  0.30254197308E+03  0.17300000000E+03 0.  1.
<mgrwt>
<rscale>  2 0.17404409E+03</rscale>
<asrwt>0</asrwt>
<pdfrwt beam="1">  1        1 0.29618853E-01 0.17404409E+03</pdfrwt>
<pdfrwt beam="2">  1       -1 0.49369985E-01 0.17404409E+03</pdfrwt>
<totfact> 0.64858786E+02</totfact>
</mgrwt>
</event>
<event>
 4    2  0.9452525E-001  0.2333695E+03  0.7546771E-02  0.1124290E+00
          1   -1    0    0  502    0  0.00000000000E+00  0.00000000000E+00  0.23931147467E+03  0.23931147467E+03  0.00000000000E+00 0. -1.
         -1   -1    0    0    0  501 -0.00000000000E+00 -0.00000000000E+00 -0.23241872473E+03  0.23241872473E+03  0.00000000000E+00 0.  1.
          6    1    1    2  502    0  0.10002615367E+03 -0.12052838774E+03  0.37496215171E+02  0.23636262357E+03  0.17300000000E+03 0. -1.
         -6    1    1    2    0  501 -0.10002615367E+03  0.12052838774E+03 -0.30603465232E+02  0.23536757583E+03  0.17300000000E+03 0.  1.
<mgrwt>
<rscale>  2 0.23336950E+03</rscale>
<asrwt>0</asrwt>
<pdfrwt beam="1">  1        1 0.36817150E-01 0.23336950E+03</pdfrwt>
<pdfrwt beam="2">  1       -1 0.35756727E-01 0.23336950E+03</pdfrwt>
<totfact> 0.87995463E+02</totfact>
</mgrwt>
</event>
<event>
 4    2  0.9452525E-001  0.1735199E+03  0.7546771E-02  0.1174226E+00
          2   -1    0    0  502    0  0.00000000000E+00  0.00000000000E+00  0.59525495418E+03  0.59525495418E+03  0.00000000000E+00 0.  1.
         -2   -1    0    0    0  501 -0.00000000000E+00 -0.00000000000E+00 -0.61475190222E+02  0.61475190222E+02  0.00000000000E+00 0. -1.
          6    1    1    2  502    0 -0.98087475317E+01 -0.91617700805E+01  0.12866514185E+03  0.21601821286E+03  0.17300000000E+03 0. -1.
         -6    1    1    2    0  501  0.98087475317E+01  0.91617700805E+01  0.40511462212E+03  0.44071193155E+03  0.17300000000E+03 0.  1.
<mgrwt>
<rscale>  2 0.17351988E+03</rscale>
<asrwt>0</asrwt>
<pdfrwt beam="1">  1        2 0.91577681E-01 0.17351988E+03</pdfrwt>
<pdfrwt beam="2">  1       -2 0.94577220E-02 0.17351988E+03</pdfrwt>
<totfact> 0.36278113E+03</totfact>
</mgrwt>
</event>
<event>
 4    2  0.9452525E-001  0.1939809E+03  0.7546771E-02  0.1154919E+00
          1   -1    0    0  502    0  0.00000000000E+00  0.00000000000E+00  0.12475088368E+04  0.12475088368E+04  0.00000000000E+00 0.  1.
         -1   -1    0    0    0  501 -0.00000000000E+00 -0.00000000000E+00 -0.35280280908E+02  0.35280280908E+02  0.00000000000E+00 0. -1.
          6    1    1    2  502    0  0.17224630219E+02 -0.86040227267E+02  0.85038920845E+03  0.87223300467E+03  0.17300000000E+03 0. -1.
         -6    1    1    2    0  501 -0.17224630219E+02  0.86040227267E+02  0.36183934747E+03  0.41055611306E+03  0.17300000000E+03 0. -1.
<mgrwt>
<rscale>  2 0.19398095E+03</rscale>
<asrwt>0</asrwt>
<pdfrwt beam="1">  1        1 0.19192440E+00 0.19398095E+03</pdfrwt>
<pdfrwt beam="2">  1       -1 0.54277365E-02 0.19398095E+03</pdfrwt>
<totfact> 0.16502522E+03</totfact>
</mgrwt>
</event>
<event>
 4    2  0.9452525E-001  0.1850600E+03  0.7546771E-02  0.1162994E+00
          2   -1    0    0  502    0  0.00000000000E+00  0.00000000000E+00  0.47974767856E+03  0.47974767856E+03  0.00000000000E+00 0. -1.
         -2   -1    0    0    0  501 -0.00000000000E+00 -0.00000000000E+00 -0.77450426209E+02  0.77450426209E+02  0.00000000000E+00 0.  1.
          6    1    1    2  502    0  0.35117915944E+02  0.55542124752E+02  0.12318931897E+03  0.22231240170E+03  0.17300000000E+03 0.  1.
         -6    1    1    2    0  501 -0.35117915944E+02 -0.55542124752E+02  0.27910793338E+03  0.33488570307E+03  0.17300000000E+03 0. -1.
<mgrwt>
<rscale>  2 0.18505998E+03</rscale>
<asrwt>0</asrwt>
<pdfrwt beam="1">  1        2 0.73807334E-01 0.18505998E+03</pdfrwt>
<pdfrwt beam="2">  1       -2 0.11915450E-01 0.18505998E+03</pdfrwt>
<totfact> 0.32091215E+03</totfact>
</mgrwt>
</event>
<event>
 4    2  0.9452525E-001  0.2373041E+03  0.7546771E-02  0.1121602E+00
         -2   -1    0    0    0  501 -0.00000000000E+00  0.00000000000E+00  0.24911589886E+02  0.24911589886E+02  0.00000000000E+00 0. -1.
          2   -1    0    0  502    0  0.00000000000E+00 -0.00000000000E+00 -0.22822848341E+04  0.22822848341E+04  0.00000000000E+00 0.  1.
          6    1    1    2  502    0  0.21854158458E+02  0.16095530051E+03 -0.12413339680E+04  0.12638129740E+04  0.17300000000E+03 0.  1.
         -6    1    1    2    0  501 -0.21854158458E+02 -0.16095530051E+03 -0.10160392762E+04  0.10433834500E+04  0.17300000000E+03 0. -1.
<mgrwt>
<rscale>  2 0.23730405E+03</rscale>
<asrwt>0</asrwt>
<pdfrwt beam="1">  1        2 0.35112065E+00 0.23730405E+03</pdfrwt>
<pdfrwt beam="2">  1       -2 0.38325533E-02 0.23730405E+03</pdfrwt>
<totfact> 0.15478463E+03</totfact>
</mgrwt>
</event>
<event>
 4    2  0.9452525E-001  0.2226658E+03  0.7546771E-02  0.1131911E+00
          2   -1    0    0  502    0  0.00000000000E+00  0.00000000000E+00  0.25848124853E+03  0.25848124853E+03  0.00000000000E+00 0. -1.
         -2   -1    0    0    0  501 -0.00000000000E+00 -0.00000000000E+00 -0.78668495421E+03  0.78668495421E+03  0.00000000000E+00 0.  1.
          6    1    1    2  502    0 -0.10146081207E+03  0.96730312758E+02  0.19032784612E+03  0.29292445920E+03  0.17300000000E+03 0. -1.
         -6    1    1    2    0  501  0.10146081207E+03 -0.96730312758E+02 -0.71853155180E+03  0.75224174354E+03  0.17300000000E+03 0.  1.
<mgrwt>
<rscale>  2 0.22266578E+03</rscale>
<asrwt>0</asrwt>
<pdfrwt beam="1">  1        2 0.39766347E-01 0.22266578E+03</pdfrwt>
<pdfrwt beam="2">  1       -2 0.12102845E+00 0.22266578E+03</pdfrwt>
<totfact> 0.70976830E+01</totfact>
</mgrwt>
</event>
<event>
 4    2  0.9452525E-001  0.2038931E+03  0.7546771E-02  0.1146495E+00
         -2   -1    0    0    0  501 -0.00000000000E+00  0.00000000000E+00  0.25793727744E+03  0.25793727744E+03  0.00000000000E+00 0. -1.
          2   -1    0    0  502    0  0.00000000000E+00 -0.00000000000E+00 -0.39578524815E+03  0.39578524815E+03  0.00000000000E+00 0.  1.
          6    1    1    2  502    0  0.25039835599E+02  0.10495899226E+03  0.18273329602E+03  0.27379525361E+03  0.17300000000E+03 0. -1.
         -6    1    1    2    0  501 -0.25039835599E+02 -0.10495899226E+03 -0.32058126673E+03  0.37992727199E+03  0.17300000000E+03 0.  1.
<mgrwt>
<rscale>  2 0.20389307E+03</rscale>
<asrwt>0</asrwt>
<pdfrwt beam="1">  1        2 0.60890038E-01 0.20389307E+03</pdfrwt>
<pdfrwt beam="2">  1       -2 0.39682658E-01 0.20389307E+03</pdfrwt>
<totfact> 0.49163923E+02</totfact>
</mgrwt>
</event>
<event>
 4    2  0.9452525E-001  0.2024443E+03  0.7546771E-02  0.1147693E+00
          2   -1    0    0  502    0  0.00000000000E+00  0.00000000000E+00  0.18486207188E+04  0.18486207188E+04  0.00000000000E+00 0.  1.
         -2   -1    0    0    0  501 -0.00000000000E+00 -0.00000000000E+00 -0.64178780035E+02  0.64178780035E+02  0.00000000000E+00 0. -1.
          6    1    1    2  502    0 -0.26543349195E+02 -0.10173572366E+03  0.11844656535E+03  0.23454913280E+03  0.17300000000E+03 0. -1.
         -6    1    1    2    0  501  0.26543349195E+02  0.10173572366E+03  0.16659953734E+04  0.16782503660E+04  0.17300000000E+03 0.  1.
<mgrwt>
<rscale>  2 0.20244433E+03</rscale>
<asrwt>0</asrwt>
<pdfrwt beam="1">  1        2 0.28440315E+00 0.20244433E+03</pdfrwt>
<pdfrwt beam="2">  1       -2 0.98736599E-02 0.20244433E+03</pdfrwt>
<totfact> 0.61246247E+02</totfact>
</mgrwt>
</event>
<event>
 4    2  0.9452525E-001  0.3026799E+03  0.7546771E-02  0.1083909E+00
         -1   -1    0    0    0  501 -0.00000000000E+00  0.00000000000E+00  0.11739361136E+03  0.11739361136E+03  0.00000000000E+00 0. -1.
          1   -1    0    0  502    0  0.00000000000E+00 -0.00000000000E+00 -0.84802235448E+03  0.84802235448E+03  0.00000000000E+00 0.  1.
          6    1    1    2  502    0  0.23584734033E+03  0.77859698364E+02 -0.22901458844E+03  0.37955603314E+03  0.17300000000E+03 0. -1.
         -6    1    1    2    0  501 -0.23584734033E+03 -0.77859698364E+02 -0.50161415468E+03  0.58585993270E+03  0.17300000000E+03 0.  1.
<mgrwt>
<rscale>  2 0.30267986E+03</rscale>
<asrwt>0</asrwt>
<pdfrwt beam="1">  1        1 0.13046498E+00 0.30267986E+03</pdfrwt>
<pdfrwt beam="2">  1       -1 0.18060555E-01 0.30267986E+03</pdfrwt>
<totfact> 0.50215095E+02</totfact>
</mgrwt>
</event>
<event>
 4    2  0.9452525E-001  0.2622392E+03  0.7546771E-02  0.1105805E+00
         -2   -1    0    0    0  501 -0.00000000000E+00  0.00000000000E+00  0.45237485486E+02  0.45237485486E+02  0.00000000000E+00 0. -1.
          2   -1    0    0  502    0  0.00000000000E+00 -0.00000000000E+00 -0.17489661013E+04  0.17489661013E+04  0.00000000000E+00 0.  1.
          6    1    1    2  502    0 -0.10674513671E+02 -0.19679033114E+03 -0.11763237476E+04  0.12051999580E+04  0.17300000000E+03 0.  1.
         -6    1    1    2    0  501  0.10674513671E+02  0.19679033114E+03 -0.52740486822E+03  0.58900362876E+03  0.17300000000E+03 0. -1.
<mgrwt>
<rscale>  2 0.26223917E+03</rscale>
<asrwt>0</asrwt>
<pdfrwt beam="1">  1        2 0.26907165E+00 0.26223917E+03</pdfrwt>
<pdfrwt beam="2">  1       -2 0.69596148E-02 0.26223917E+03</pdfrwt>
<totfact> 0.11853834E+03</totfact>
</mgrwt>
</event>
<event>
 4    2  0.9452525E-001  0.1819020E+03  0.7546771E-02  0.1165975E+00
         -1   -1    0    0    0  501 -0.00000000000E+00  0.00000000000E+00  0.78278816008E+02  0.78278816008E+02  0.00000000000E+00 0. -1.
          1   -1    0    0  502    0  0.00000000000E+00 -0.00000000000E+00 -0.43150649607E+03  0.43150649607E+03  0.00000000000E+00 0.  1.
          6    1    1    2  502    0 -0.55286676201E+02 -0.10134265145E+02 -0.21303115698E+03  0.28012603188E+03  0.17300000000E+03 0.  1.
         -6    1    1    2    0  501  0.55286676201E+02  0.10134265145E+02 -0.14019652309E+03  0.22965928020E+03  0.17300000000E+03 0. -1.
<mgrwt>
<rscale>  2 0.18190195E+03</rscale>
<asrwt>0</asrwt>
<pdfrwt beam="1">  1        1 0.66385615E-01 0.18190195E+03</pdfrwt>
<pdfrwt beam="2">  1       -1 0.12042895E-01 0.18190195E+03</pdfrwt>
<totfact> 0.24656804E+03</totfact>
</mgrwt>
</event>
<event>
 4    2  0.9452525E-001  0.2244921E+03  0.7546771E-02  0.1130578E+00
          2   -1    0    0  502    0  0.00000000000E+00  0.00000000000E+00  0.11190649484E+03  0.11190649484E+03  0.00000000000E+00 0. -1.
         -2   -1    0    0    0  501 -0.00000000000E+00 -0.00000000000E+00 -0.59407790875E+03  0.59407790875E+03  0.00000000000E+00 0.  1.
          6    1    1    2  502    0 -0.10420871840E+02  0.14268528778E+03 -0.67457844925E+02  0.23440829073E+03  0.17300000000E+03 0. -1.
         -6    1    1    2    0  501  0.10420871840E+02 -0.14268528778E+03 -0.41471356899E+03  0.47157611286E+03  0.17300000000E+03 0.  1.
<mgrwt>
<rscale>  2 0.22449206E+03</rscale>
<asrwt>0</asrwt>
<pdfrwt beam="1">  1        2 0.17216384E-01 0.22449206E+03</pdfrwt>
<pdfrwt beam="2">  1       -2 0.91396602E-01 0.22449206E+03</pdfrwt>
<totfact> 0.34973359E+02</totfact>
</mgrwt>
</event>
<event>
 4    2  0.9452525E-001  0.2039962E+03  0.7546771E-02  0.1146411E+00
         -2   -1    0    0    0  501 -0.00000000000E+00  0.00000000000E+00  0.22494750200E+02  0.22494750200E+02  0.00000000000E+00 0. -1.
          2   -1    0    0  502    0  0.00000000000E+00 -0.00000000000E+00 -0.22599379034E+04  0.22599379034E+04  0.00000000000E+00 0.  1.
          6    1    1    2  502    0 -0.10536518585E+03 -0.24158010338E+02 -0.63265146455E+03  0.66472724290E+03  0.17300000000E+03 0. -1.
         -6    1    1    2    0  501  0.10536518585E+03  0.24158010338E+02 -0.16047916886E+04  0.16177054107E+04  0.17300000000E+03 0.  1.
<mgrwt>
<rscale>  2 0.20399616E+03</rscale>
<asrwt>0</asrwt>
<pdfrwt beam="1">  1        2 0.34768269E+00 0.20399616E+03</pdfrwt>
<pdfrwt beam="2">  1       -2 0.34607315E-02 0.20399616E+03</pdfrwt>
<totfact> 0.18602663E+03</totfact>
</mgrwt>
</event>
<event>
 4    2  0.9452525E-001  0.1826891E+03  0.7546771E-02  0.1165226E+00
          1   -1    0    0  502    0  0.00000000000E+00  0.00000000000E+00  0.24698972015E+03  0.24698972015E+03  0.00000000000E+00 0.  1.
         -1   -1    0    0    0  501 -0.00000000000E+00 -0.00000000000E+00 -0.17030048151E+03  0.17030048151E+03  0.00000000000E+00 0. -1.
          6    1    1    2  502    0  0.31391326914E+02  0.49607499285E+02  0.13316450924E+03  0.22607101962E+03  0.17300000000E+03 0.  1.
         -6    1    1    2    0  501 -0.31391326914E+02 -0.49607499285E+02 -0.56475270592E+02  0.19121918204E+03  0.17300000000E+03 0. -1.
<mgrwt>
<rscale>  2 0.18268913E+03</rscale>
<asrwt>0</asrwt>
<pdfrwt beam="1">  1        1 0.37998418E-01 0.18268913E+03</pdfrwt>
<pdfrwt beam="2">  1       -1 0.26200074E-01 0.18268913E+03</pdfrwt>
<totfact> 0.14308537E+03</totfact>
</mgrwt>
</event>
<event>
 4    2  0.9452525E-001  0.3255974E+03  0.7546771E-02  0.1073102E+00
         -1   -1    0    0    0  501 -0.00000000000E+00  0.00000000000E+00  0.86941279697E+02  0.86941279697E+02  0.00000000000E+00 0. -1.
          1   -1    0    0  502    0  0.00000000000E+00 -0.00000000000E+00 -0.14593763025E+04  0.14593763025E+04  0.00000000000E+00 0.  1.
          6    1    1    2  502    0 -0.15685944278E+03 -0.22689157387E+03 -0.99975935977E+03  0.10514430315E+04  0.17300000000E+03 0.  1.
         -6    1    1    2    0  501  0.15685944278E+03  0.22689157387E+03 -0.37267566300E+03  0.49487455064E+03  0.17300000000E+03 0. -1.
<mgrwt>
<rscale>  2 0.32559741E+03</rscale>
<asrwt>0</asrwt>
<pdfrwt beam="1">  1        1 0.22451942E+00 0.32559741E+03</pdfrwt>
<pdfrwt beam="2">  1       -1 0.13375582E-01 0.32559741E+03</pdfrwt>
<totfact> 0.29276891E+02</totfact>
</mgrwt>
</event>
<event>
 4    2  0.9452525E-001  0.2018394E+03  0.7546771E-02  0.1148196E+00
         -2   -1    0    0    0  501 -0.00000000000E+00  0.00000000000E+00  0.25047763983E+03  0.25047763983E+03  0.00000000000E+00 0.  1.
          2   -1    0    0  502    0  0.00000000000E+00 -0.00000000000E+00 -0.17167662765E+03  0.17167662765E+03  0.00000000000E+00 0. -1.
          6    1    1    2  502    0  0.78256780695E+02 -0.68454470033E+02  0.87812077372E+02  0.22011383220E+03  0.17300000000E+03 0. -1.
         -6    1    1    2    0  501 -0.78256780695E+02  0.68454470033E+02 -0.90110651950E+01  0.20204043528E+03  0.17300000000E+03 0.  1.
<mgrwt>
<rscale>  2 0.20183939E+03</rscale>
<asrwt>0</asrwt>
<pdfrwt beam="1">  1        2 0.26411789E-01 0.20183939E+03</pdfrwt>
<pdfrwt beam="2">  1       -2 0.38535022E-01 0.20183939E+03</pdfrwt>
<totfact> 0.12843044E+03</totfact>
</mgrwt>
</event>
<event>
 4    2  0.9452525E-001  0.2348110E+03  0.7546771E-02  0.1123299E+00
          1   -1    0    0  502    0  0.00000000000E+00  0.00000000000E+00  0.52201441422E+03  0.52201441422E+03  0.00000000000E+00 0. -1.
         -1   -1    0    0    0  501 -0.00000000000E+00 -0.00000000000E+00 -0.18410563435E+03  0.18410563435E+03  0.00000000000E+00 0.  1.
          6    1    1    2  502    0 -0.12506067058E+03  0.97811324516E+02 -0.61563403278E+02  0.24274735663E+03  0.17300000000E+03 0.  1.
         -6    1    1    2    0  501  0.12506067058E+03 -0.97811324516E+02  0.39947218315E+03  0.46337269194E+03  0.17300000000E+03 0. -1.
<mgrwt>
<rscale>  2 0.23481104E+03</rscale>
<asrwt>0</asrwt>
<pdfrwt beam="1">  1        1 0.80309909E-01 0.23481104E+03</pdfrwt>
<pdfrwt beam="2">  1       -1 0.28323944E-01 0.23481104E+03</pdfrwt>
<totfact> 0.48405877E+02</totfact>
</mgrwt>
</event>
<event>
 4    2  0.9452525E-001  0.2182985E+03  0.7546771E-02  0.1135158E+00
          1   -1    0    0  502    0  0.00000000000E+00  0.00000000000E+00  0.62602510825E+02  0.62602510825E+02  0.00000000000E+00 0.  1.
         -1   -1    0    0    0  501 -0.00000000000E+00 -0.00000000000E+00 -0.11596765739E+04  0.11596765739E+04  0.00000000000E+00 0. -1.
          6    1    1    2  502    0 -0.12007321462E+03  0.57512122881E+02 -0.90676788002E+03  0.93267476078E+03  0.17300000000E+03 0. -1.
         -6    1    1    2    0  501  0.12007321462E+03 -0.57512122881E+02 -0.19030618308E+03  0.28960432398E+03  0.17300000000E+03 0.  1.
<mgrwt>
<rscale>  2 0.21829847E+03</rscale>
<asrwt>0</asrwt>
<pdfrwt beam="1">  1        1 0.96311550E-02 0.21829847E+03</pdfrwt>
<pdfrwt beam="2">  1       -1 0.17841179E+00 0.21829847E+03</pdfrwt>
<totfact> 0.15948557E+02</totfact>
</mgrwt>
</event>
<event>
 4    2  0.9452525E-001  0.2657255E+03  0.7546771E-02  0.1103751E+00
          1   -1    0    0  502    0  0.00000000000E+00  0.00000000000E+00  0.21859232097E+03  0.21859232097E+03  0.00000000000E+00 0. -1.
         -1   -1    0    0    0  501 -0.00000000000E+00 -0.00000000000E+00 -0.36969090193E+03  0.36969090193E+03  0.00000000000E+00 0.  1.
          6    1    1    2  502    0  0.54708528772E+02 -0.19413398169E+03  0.28959558379E+02  0.26729886268E+03  0.17300000000E+03 0. -1.
         -6    1    1    2    0  501 -0.54708528772E+02  0.19413398169E+03 -0.18005813934E+03  0.32098436023E+03  0.17300000000E+03 0.  1.
<mgrwt>
<rscale>  2 0.26572547E+03</rscale>
<asrwt>0</asrwt>
<pdfrwt beam="1">  1        1 0.33629587E-01 0.26572547E+03</pdfrwt>
<pdfrwt beam="2">  1       -1 0.56875524E-01 0.26572547E+03</pdfrwt>
<totfact> 0.42398124E+02</totfact>
</mgrwt>
</event>
<event>
 4    2  0.9452525E-001  0.2370513E+03  0.7546771E-02  0.1121773E+00
         -1   -1    0    0    0  501 -0.00000000000E+00  0.00000000000E+00  0.22713724776E+03  0.22713724776E+03  0.00000000000E+00 0. -1.
          1   -1    0    0  502    0  0.00000000000E+00 -0.00000000000E+00 -0.26309675070E+03  0.26309675070E+03  0.00000000000E+00 0.  1.
          6    1    1    2  502    0 -0.14669847823E+03  0.68875713147E+02 -0.77855069933E+02  0.24950895633E+03  0.17300000000E+03 0.  1.
         -6    1    1    2    0  501  0.14669847823E+03 -0.68875713147E+02  0.41895566994E+02  0.24072504213E+03  0.17300000000E+03 0.  1.
<mgrwt>
<rscale>  2 0.23705128E+03</rscale>
<asrwt>0</asrwt>
<pdfrwt beam="1">  1        1 0.40476423E-01 0.23705128E+03</pdfrwt>
<pdfrwt beam="2">  1       -1 0.34944192E-01 0.23705128E+03</pdfrwt>
<totfact> 0.81312937E+02</totfact>
</mgrwt>
</event>
<event>
 4    2  0.9452525E-001  0.1757040E+03  0.7546771E-02  0.1172027E+00
         -2   -1    0    0    0  501 -0.00000000000E+00  0.00000000000E+00  0.13049690015E+02  0.13049690015E+02  0.00000000000E+00 0. -1.
          2   -1    0    0  502    0  0.00000000000E+00 -0.00000000000E+00 -0.24287874745E+04  0.24287874745E+04  0.00000000000E+00 0.  1.
          6    1    1    2  502    0  0.21964135535E+02  0.21458671811E+02 -0.10111262154E+04  0.10262787737E+04  0.17300000000E+03 0. -1.
         -6    1    1    2    0  501 -0.21964135535E+02 -0.21458671811E+02 -0.14046115691E+04  0.14155583909E+04  0.17300000000E+03 0.  1.
<mgrwt>
<rscale>  2 0.17570401E+03</rscale>
<asrwt>0</asrwt>
<pdfrwt beam="1">  1        2 0.37365992E+00 0.17570401E+03</pdfrwt>
<pdfrwt beam="2">  1       -2 0.20076430E-02 0.17570401E+03</pdfrwt>
<totfact> 0.33867941E+03</totfact>
</mgrwt>
</event>
<event>
 4    2  0.9452525E-001  0.1831242E+03  0.7546771E-02  0.1164813E+00
          1   -1    0    0  502    0  0.00000000000E+00  0.00000000000E+00  0.14019370800E+03  0.14019370800E+03  0.00000000000E+00 0. -1.
         -1   -1    0    0    0  501 -0.00000000000E+00 -0.00000000000E+00 -0.42521566569E+03  0.42521566569E+03  0.00000000000E+00 0.  1.
          6    1    1    2  502    0 -0.53622957633E+02  0.27019272145E+02  0.44472001351E+02  0.18844686667E+03  0.17300000000E+03 0. -1.
         -6    1    1    2    0  501  0.53622957633E+02 -0.27019272145E+02 -0.32949395905E+03  0.37696250702E+03  0.17300000000E+03 0.  1.
<mgrwt>
<rscale>  2 0.18312417E+03</rscale>
<asrwt>0</asrwt>
<pdfrwt beam="1">  1        1 0.21568263E-01 0.18312417E+03</pdfrwt>
<pdfrwt beam="2">  1       -1 0.65417795E-01 0.18312417E+03</pdfrwt>
<totfact> 0.56921466E+02</totfact>
</mgrwt>
</event>
<event>
 4    2  0.9452525E-001  0.2046337E+03  0.7546771E-02  0.1145887E+00
          1   -1    0    0  502    0  0.00000000000E+00  0.00000000000E+00  0.15994409426E+04  0.15994409426E+04  0.00000000000E+00 0.  1.
         -1   -1    0    0    0  501 -0.00000000000E+00 -0.00000000000E+00 -0.33967061187E+02  0.33967061187E+02  0.00000000000E+00 0. -1.
          6    1    1    2  502    0  0.10924800967E+03 -0.32919616464E+01  0.39172089432E+03  0.44195047650E+03  0.17300000000E+03 0. -1.
         -6    1    1    2    0  501 -0.10924800967E+03  0.32919616464E+01  0.11737529871E+04  0.11914575273E+04  0.17300000000E+03 0.  1.
<mgrwt>
<rscale>  2 0.20463373E+03</rscale>
<asrwt>0</asrwt>
<pdfrwt beam="1">  1        1 0.24606778E+00 0.20463373E+03</pdfrwt>
<pdfrwt beam="2">  1       -1 0.52257030E-02 0.20463373E+03</pdfrwt>
<totfact> 0.10184221E+03</totfact>
</mgrwt>
</event>
<event>
 4    2  0.9452525E-001  0.2086267E+03  0.7546771E-02  0.1142658E+00
         -3   -1    0    0    0  501 -0.00000000000E+00  0.00000000000E+00  0.97568197449E+03  0.97568197449E+03  0.00000000000E+00 0. -1.
          3   -1    0    0  502    0  0.00000000000E+00 -0.00000000000E+00 -0.45153333789E+02  0.45153333789E+02  0.00000000000E+00 0.  1.
          6    1    1    2  502    0  0.93568153967E+02 -0.69577925554E+02  0.52125931966E+03  0.56145913965E+03  0.17300000000E+03 0.  1.
         -6    1    1    2    0  501 -0.93568153967E+02  0.69577925554E+02  0.40926932103E+03  0.45937616862E+03  0.17300000000E+03 0. -1.
<mgrwt>
<rscale>  2 0.20862667E+03</rscale>
<asrwt>0</asrwt>
<pdfrwt beam="1">  1        3 0.69466675E-02 0.20862667E+03</pdfrwt>
<pdfrwt beam="2">  1       -3 0.15010490E+00 0.20862667E+03</pdfrwt>
<totfact> 0.11260019E+02</totfact>
</mgrwt>
</event>
<event>
 4    2  0.9452525E-001  0.1946351E+03  0.7546771E-02  0.1154346E+00
         -1   -1    0    0    0  501 -0.00000000000E+00  0.00000000000E+00  0.30504637655E+02  0.30504637655E+02  0.00000000000E+00 0. -1.
          1   -1    0    0  502    0  0.00000000000E+00 -0.00000000000E+00 -0.14156458463E+04  0.14156458463E+04  0.00000000000E+00 0.  1.
          6    1    1    2  502    0  0.72826659174E+02 -0.51479191055E+02 -0.43923312029E+03  0.48042539833E+03  0.17300000000E+03 0.  1.
         -6    1    1    2    0  501 -0.72826659174E+02  0.51479191055E+02 -0.94590808840E+03  0.96572508567E+03  0.17300000000E+03 0.  1.
<mgrwt>
<rscale>  2 0.19463512E+03</rscale>
<asrwt>0</asrwt>
<pdfrwt beam="1">  1        1 0.21779159E+00 0.19463512E+03</pdfrwt>
<pdfrwt beam="2">  1       -1 0.46930228E-02 0.19463512E+03</pdfrwt>
<totfact> 0.15798497E+03</totfact>
</mgrwt>
</event>
<event>
 4    2  0.9452525E-001  0.2490507E+03  0.7546771E-02  0.1113906E+00
         -2   -1    0    0    0  501 -0.00000000000E+00  0.00000000000E+00  0.19404734164E+03  0.19404734164E+03  0.00000000000E+00 0.  1.
          2   -1    0    0  502    0  0.00000000000E+00 -0.00000000000E+00 -0.36487970880E+03  0.36487970880E+03  0.00000000000E+00 0. -1.
          6    1    1    2  502    0 -0.10190944410E+03  0.14734892357E+03 -0.18381428784E+03  0.30953825691E+03  0.17300000000E+03 0. -1.
         -6    1    1    2    0  501  0.10190944410E+03 -0.14734892357E+03  0.12981920682E+02  0.24938879353E+03  0.17300000000E+03 0.  1.
<mgrwt>
<rscale>  2 0.24905068E+03</rscale>
<asrwt>0</asrwt>
<pdfrwt beam="1">  1        2 0.56135339E-01 0.24905068E+03</pdfrwt>
<pdfrwt beam="2">  1       -2 0.29853438E-01 0.24905068E+03</pdfrwt>
<totfact> 0.91224992E+02</totfact>
</mgrwt>
</event>
<event>
 4    2  0.9452525E-001  0.1842059E+03  0.7546771E-02  0.1163794E+00
         -2   -1    0    0    0  501 -0.00000000000E+00  0.00000000000E+00  0.35384085373E+02  0.35384085373E+02  0.00000000000E+00 0.  1.
          2   -1    0    0  502    0  0.00000000000E+00 -0.00000000000E+00 -0.18671870313E+04  0.18671870313E+04  0.00000000000E+00 0. -1.
          6    1    1    2  502    0 -0.63195531675E+02 -0.30229675213E+01 -0.25244117335E+03  0.31250337528E+03  0.17300000000E+03 0.  1.
         -6    1    1    2    0  501  0.63195531675E+02  0.30229675213E+01 -0.15793617726E+04  0.15900677414E+04  0.17300000000E+03 0. -1.
<mgrwt>
<rscale>  2 0.18420590E+03</rscale>
<asrwt>0</asrwt>
<pdfrwt beam="1">  1        2 0.28725956E+00 0.18420590E+03</pdfrwt>
<pdfrwt beam="2">  1       -2 0.54437051E-02 0.18420590E+03</pdfrwt>
<totfact> 0.15109829E+03</totfact>
</mgrwt>
</event>
<event>
 4    2  0.9452525E-001  0.1812741E+03  0.7546771E-02  0.1166576E+00
          3   -1    0    0  502    0  0.00000000000E+00  0.00000000000E+00  0.33304552338E+03  0.33304552338E+03  0.00000000000E+00 0.  1.
         -3   -1    0    0    0  501 -0.00000000000E+00 -0.00000000000E+00 -0.11161917882E+03  0.11161917882E+03  0.00000000000E+00 0. -1.
          6    1    1    2  502    0  0.39026654284E+02  0.37526333032E+02  0.34974161717E+02  0.18461716443E+03  0.17300000000E+03 0. -1.
         -6    1    1    2    0  501 -0.39026654284E+02 -0.37526333032E+02  0.18645218284E+03  0.26004753777E+03  0.17300000000E+03 0.  1.
<mgrwt>
<rscale>  2 0.18127412E+03</rscale>
<asrwt>0</asrwt>
<pdfrwt beam="1">  1        3 0.51237772E-01 0.18127412E+03</pdfrwt>
<pdfrwt beam="2">  1       -3 0.17172182E-01 0.18127412E+03</pdfrwt>
<totfact> 0.26974913E+02</totfact>
</mgrwt>
</event>
<event>
 4    2  0.9452525E-001  0.1966133E+03  0.7546771E-02  0.1152628E+00
         -2   -1    0    0    0  501 -0.00000000000E+00  0.00000000000E+00  0.35066121840E+02  0.35066121840E+02  0.00000000000E+00 0.  1.
          2   -1    0    0  502    0  0.00000000000E+00 -0.00000000000E+00 -0.11027229036E+04  0.11027229036E+04  0.00000000000E+00 0. -1.
          6    1    1    2  502    0  0.18288118501E+02  0.91615213542E+02 -0.54360201864E+03  0.57806570328E+03  0.17300000000E+03 0. -1.
         -6    1    1    2    0  501 -0.18288118501E+02 -0.91615213542E+02 -0.52405476315E+03  0.55972332219E+03  0.17300000000E+03 0.  1.
<mgrwt>
<rscale>  2 0.19661333E+03</rscale>
<asrwt>0</asrwt>
<pdfrwt beam="1">  1        2 0.16964966E+00 0.19661333E+03</pdfrwt>
<pdfrwt beam="2">  1       -2 0.53947885E-02 0.19661333E+03</pdfrwt>
<totfact> 0.39355501E+03</totfact>
</mgrwt>
</event>
<event>
 4    2  0.9452525E-001  0.1779264E+03  0.7546771E-02  0.1169825E+00
          1   -1    0    0  502    0  0.00000000000E+00  0.00000000000E+00  0.29144224969E+02  0.29144224969E+02  0.00000000000E+00 0.  1.
         -1   -1    0    0    0  501 -0.00000000000E+00 -0.00000000000E+00 -0.10942288637E+04  0.10942288637E+04  0.00000000000E+00 0. -1.
          6    1    1    2  502    0  0.37265394992E+02  0.18441232164E+02 -0.48456590617E+03  0.51619948288E+03  0.17300000000E+03 0.  1.
         -6    1    1    2    0  501 -0.37265394992E+02 -0.18441232164E+02 -0.58051873259E+03  0.60717360581E+03  0.17300000000E+03 0. -1.
<mgrwt>
<rscale>  2 0.17792636E+03</rscale>
<asrwt>0</asrwt>
<pdfrwt beam="1">  1        1 0.44837264E-02 0.17792636E+03</pdfrwt>
<pdfrwt beam="2">  1       -1 0.16834292E+00 0.17792636E+03</pdfrwt>
<totfact> 0.53424193E+02</totfact>
</mgrwt>
</event>
<event>
 4    2  0.9452525E-001  0.2763572E+03  0.7546771E-02  0.1097695E+00
          1   -1    0    0  502    0  0.00000000000E+00  0.00000000000E+00  0.11677118680E+04  0.11677118680E+04  0.00000000000E+00 0. -1.
         -1   -1    0    0    0  501 -0.00000000000E+00 -0.00000000000E+00 -0.65636425115E+02  0.65636425115E+02  0.00000000000E+00 0.  1.
          6    1    1    2  502    0  0.15683579413E+03  0.14780666284E+03  0.58771740554E+03  0.64944978610E+03  0.17300000000E+03 0. -1.
         -6    1    1    2    0  501 -0.15683579413E+03 -0.14780666284E+03  0.51435803731E+03  0.58389850698E+03  0.17300000000E+03 0.  1.
<mgrwt>
<rscale>  2 0.27635715E+03</rscale>
<asrwt>0</asrwt>
<pdfrwt beam="1">  1        1 0.17964796E+00 0.27635715E+03</pdfrwt>
<pdfrwt beam="2">  1       -1 0.10097912E-01 0.27635715E+03</pdfrwt>
<totfact> 0.72583158E+02</totfact>
</mgrwt>
</event>
<event>
 4    2  0.9452525E-001  0.2241084E+03  0.7546771E-02  0.1130857E+00
         -2   -1    0    0    0  501 -0.00000000000E+00  0.00000000000E+00  0.27101321866E+02  0.27101321866E+02  0.00000000000E+00 0.  1.
          2   -1    0    0  502    0  0.00000000000E+00 -0.00000000000E+00 -0.18926589093E+04  0.18926589093E+04  0.00000000000E+00 0. -1.
          6    1    1    2  502    0 -0.14115342740E+03 -0.19268503985E+02 -0.10713500028E+04  0.10945388955E+04  0.17300000000E+03 0. -1.
         -6    1    1    2    0  501  0.14115342740E+03  0.19268503985E+02 -0.79420758462E+03  0.82522133563E+03  0.17300000000E+03 0.  1.
<mgrwt>
<rscale>  2 0.22410838E+03</rscale>
<asrwt>0</asrwt>
<pdfrwt beam="1">  1        2 0.29117829E+00 0.22410838E+03</pdfrwt>
<pdfrwt beam="2">  1       -2 0.41694342E-02 0.22410838E+03</pdfrwt>
<totfact> 0.21879929E+03</totfact>
</mgrwt>
</event>
<event>
 4    2  0.9452525E-001  0.1870908E+03  0.7546771E-02  0.1161112E+00
         -1   -1    0    0    0  501 -0.00000000000E+00  0.00000000000E+00  0.11564038573E+03  0.11564038573E+03  0.00000000000E+00 0.  1.
          1   -1    0    0  502    0  0.00000000000E+00 -0.00000000000E+00 -0.84384681638E+03  0.84384681638E+03  0.00000000000E+00 0. -1.
          6    1    1    2  502    0  0.69144717102E+02  0.17116924085E+02  0.20081133867E+02  0.18816544032E+03  0.17300000000E+03 0.  1.
         -6    1    1    2    0  501 -0.69144717102E+02 -0.17116924085E+02 -0.74828756452E+03  0.77132176178E+03  0.17300000000E+03 0. -1.
<mgrwt>
<rscale>  2 0.18709084E+03</rscale>
<asrwt>0</asrwt>
<pdfrwt beam="1">  1        1 0.12982258E+00 0.18709084E+03</pdfrwt>
<pdfrwt beam="2">  1       -1 0.17790829E-01 0.18709084E+03</pdfrwt>
<totfact> 0.52351977E+02</totfact>
</mgrwt>
</event>
<event>
 4    2  0.9452525E-001  0.1754481E+03  0.7546771E-02  0.1172283E+00
          1   -1    0    0  502    0  0.00000000000E+00  0.00000000000E+00  0.62983506206E+03  0.62983506206E+03  0.00000000000E+00 0. -1.
         -1   -1    0    0    0  501 -0.00000000000E+00 -0.00000000000E+00 -0.11357219089E+03  0.11357219089E+03  0.00000000000E+00 0.  1.
          6    1    1    2  502    0 -0.88850450402E+01  0.27822681563E+02 -0.22418129368E+02  0.17687458313E+03  0.17300000000E+03 0.  1.
         -6    1    1    2    0  501  0.88850450402E+01 -0.27822681563E+02  0.53868100053E+03  0.56653266982E+03  0.17300000000E+03 0. -1.
<mgrwt>
<rscale>  2 0.17544813E+03</rscale>
<asrwt>0</asrwt>
<pdfrwt beam="1">  1        1 0.96897700E-01 0.17544813E+03</pdfrwt>
<pdfrwt beam="2">  1       -1 0.17472645E-01 0.17544813E+03</pdfrwt>
<totfact> 0.82887464E+02</totfact>
</mgrwt>
</event>
<event>
 4    2  0.9452525E-001  0.2564921E+03  0.7546771E-02  0.1109269E+00
          2   -1    0    0  502    0  0.00000000000E+00  0.00000000000E+00  0.60323645559E+03  0.60323645559E+03  0.00000000000E+00 0. -1.
         -2   -1    0    0    0  501 -0.00000000000E+00 -0.00000000000E+00 -0.11242951892E+03  0.11242951892E+03  0.00000000000E+00 0.  1.
          6    1    1    2  502    0  0.80274360744E+02  0.17150871983E+03  0.18344442978E+03  0.31534120059E+03  0.17300000000E+03 0. -1.
         -6    1    1    2    0  501 -0.80274360744E+02 -0.17150871983E+03  0.30736250689E+03  0.40032477392E+03  0.17300000000E+03 0. -1.
<mgrwt>
<rscale>  2 0.25649213E+03</rscale>
<asrwt>0</asrwt>
<pdfrwt beam="1">  1        2 0.92805607E-01 0.25649213E+03</pdfrwt>
<pdfrwt beam="2">  1       -2 0.17296849E-01 0.25649213E+03</pdfrwt>
<totfact> 0.13508674E+03</totfact>
</mgrwt>
</event>
<event>
 4    2  0.9452525E-001  0.2151223E+03  0.7546771E-02  0.1137573E+00
          2   -1    0    0  502    0  0.00000000000E+00  0.00000000000E+00  0.33353482988E+03  0.33353482988E+03  0.00000000000E+00 0.  1.
         -2   -1    0    0    0  501 -0.00000000000E+00 -0.00000000000E+00 -0.13924064824E+03  0.13924064824E+03  0.00000000000E+00 0. -1.
          6    1    1    2  502    0 -0.12565815998E+03 -0.23635584619E+02  0.11119405649E+03  0.24216055052E+03  0.17300000000E+03 0. -1.
         -6    1    1    2    0  501  0.12565815998E+03  0.23635584619E+02  0.83100125143E+02  0.23061492759E+03  0.17300000000E+03 0. -1.
<mgrwt>
<rscale>  2 0.21512232E+03</rscale>
<asrwt>0</asrwt>
<pdfrwt beam="1">  1        2 0.51313051E-01 0.21512232E+03</pdfrwt>
<pdfrwt beam="2">  1       -2 0.21421638E-01 0.21512232E+03</pdfrwt>
<totfact> 0.18045988E+03</totfact>
</mgrwt>
</event>
<event>
 4    2  0.9452525E-001  0.2010745E+03  0.7546771E-02  0.1148836E+00
          3   -1    0    0  502    0  0.00000000000E+00  0.00000000000E+00  0.21670450128E+03  0.21670450128E+03  0.00000000000E+00 0. -1.
         -3   -1    0    0    0  501 -0.00000000000E+00 -0.00000000000E+00 -0.19537210082E+03  0.19537210082E+03  0.00000000000E+00 0.  1.
          6    1    1    2  502    0 -0.41196464911E+02 -0.93833899700E+02  0.54394780718E+02  0.20830204421E+03  0.17300000000E+03 0. -1.
         -6    1    1    2    0  501  0.41196464911E+02  0.93833899700E+02 -0.33062380255E+02  0.20377455789E+03  0.17300000000E+03 0.  1.
<mgrwt>
<rscale>  2 0.20107449E+03</rscale>
<asrwt>0</asrwt>
<pdfrwt beam="1">  1        3 0.33339154E-01 0.20107449E+03</pdfrwt>
<pdfrwt beam="2">  1       -3 0.30057246E-01 0.20107449E+03</pdfrwt>
<totfact> 0.23018401E+02</totfact>
</mgrwt>
</event>
<event>
 4    2  0.9452525E-001  0.1861001E+03  0.7546771E-02  0.1162027E+00
         -1   -1    0    0    0  501 -0.00000000000E+00  0.00000000000E+00  0.75122208965E+03  0.75122208965E+03  0.00000000000E+00 0.  1.
          1   -1    0    0  502    0  0.00000000000E+00 -0.00000000000E+00 -0.79722061624E+02  0.79722061624E+02  0.00000000000E+00 0. -1.
          6    1    1    2  502    0  0.40124083049E+02  0.55626450816E+02  0.60555400170E+03  0.63350524311E+03  0.17300000000E+03 0.  1.
         -6    1    1    2    0  501 -0.40124083049E+02 -0.55626450816E+02  0.65946026333E+02  0.19743890817E+03  0.17300000000E+03 0. -1.
<mgrwt>
<rscale>  2 0.18610009E+03</rscale>
<asrwt>0</asrwt>
<pdfrwt beam="1">  1        1 0.12264933E-01 0.18610009E+03</pdfrwt>
<pdfrwt beam="2">  1       -1 0.11557262E+00 0.18610009E+03</pdfrwt>
<totfact> 0.35380710E+02</totfact>
</mgrwt>
</event>
<event>
 4    2  0.9452525E-001  0.1904217E+03  0.7546771E-02  0.1158082E+00
          2   -1    0    0  502    0  0.00000000000E+00  0.00000000000E+00  0.19906018549E+04  0.19906018549E+04  0.00000000000E+00 0.  1.
         -2   -1    0    0    0  501 -0.00000000000E+00 -0.00000000000E+00 -0.25199490842E+02  0.25199490842E+02  0.00000000000E+00 0. -1.
          6    1    1    2  502    0  0.68390800746E+02 -0.40670944026E+02  0.15132972296E+04  0.15252307801E+04  0.17300000000E+03 0.  1.
         -6    1    1    2    0  501 -0.68390800746E+02  0.40670944026E+02  0.45210513446E+03  0.49057056569E+03  0.17300000000E+03 0. -1.
<mgrwt>
<rscale>  2 0.19042171E+03</rscale>
<asrwt>0</asrwt>
<pdfrwt beam="1">  1        2 0.30624632E+00 0.19042171E+03</pdfrwt>
<pdfrwt beam="2">  1       -2 0.38768463E-02 0.19042171E+03</pdfrwt>
<totfact> 0.21743991E+03</totfact>
</mgrwt>
</event>
<event>
 4    2  0.9452525E-001  0.1988357E+03  0.7546771E-02  0.1150725E+00
          1   -1    0    0  502    0  0.00000000000E+00  0.00000000000E+00  0.14363993559E+02  0.14363993559E+02  0.00000000000E+00 0.  1.
         -1   -1    0    0    0  501 -0.00000000000E+00 -0.00000000000E+00 -0.27595362269E+04  0.27595362269E+04  0.00000000000E+00 0. -1.
          6    1    1    2  502    0  0.95949408571E+02  0.20009042391E+02 -0.13021226805E+04  0.13172164309E+04  0.17300000000E+03 0. -1.
         -6    1    1    2    0  501 -0.95949408571E+02 -0.20009042391E+02 -0.14430495529E+04  0.14566837896E+04  0.17300000000E+03 0.  1.
<mgrwt>
<rscale>  2 0.19883574E+03</rscale>
<asrwt>0</asrwt>
<pdfrwt beam="1">  1        1 0.22098473E-02 0.19883574E+03</pdfrwt>
<pdfrwt beam="2">  1       -1 0.42454363E+00 0.19883574E+03</pdfrwt>
<totfact> 0.32020898E+01</totfact>
</mgrwt>
</event>
<event>
 4    2  0.9452525E-001  0.2226486E+03  0.7546771E-02  0.1131924E+00
         -1   -1    0    0    0  501 -0.00000000000E+00  0.00000000000E+00  0.23286976391E+03  0.23286976391E+03  0.00000000000E+00 0. -1.
          1   -1    0    0  502    0  0.00000000000E+00 -0.00000000000E+00 -0.21379531139E+03  0.21379531139E+03  0.00000000000E+00 0.  1.
          6    1    1    2  502    0 -0.52153775701E+02  0.13008990896E+03 -0.51070232310E+01  0.22270716742E+03  0.17300000000E+03 0.  1.
         -6    1    1    2    0  501  0.52153775701E+02 -0.13008990896E+03  0.24181475753E+02  0.22395790788E+03  0.17300000000E+03 0. -1.
<mgrwt>
<rscale>  2 0.22264860E+03</rscale>
<asrwt>0</asrwt>
<pdfrwt beam="1">  1        1 0.32891587E-01 0.22264860E+03</pdfrwt>
<pdfrwt beam="2">  1       -1 0.35826117E-01 0.22264860E+03</pdfrwt>
<totfact> 0.10100647E+03</totfact>
</mgrwt>
</event>
<event>
 4    2  0.9452525E-001  0.2084756E+03  0.7546771E-02  0.1142779E+00
         -1   -1    0    0    0  501 -0.00000000000E+00  0.00000000000E+00  0.42134569110E+03  0.42134569110E+03  0.00000000000E+00 0. -1.
          1   -1    0    0  502    0  0.00000000000E+00 -0.00000000000E+00 -0.10317911837E+03  0.10317911837E+03  0.00000000000E+00 0.  1.
          6    1    1    2  502    0 -0.11502514751E+03 -0.17386804393E+02  0.15472760591E+03  0.25962033349E+03  0.17300000000E+03 0.  1.
         -6    1    1    2    0  501  0.11502514751E+03  0.17386804393E+02  0.16343896681E+03  0.26490447599E+03  0.17300000000E+03 0. -1.
<mgrwt>
<rscale>  2 0.20847562E+03</rscale>
<asrwt>0</asrwt>
<pdfrwt beam="1">  1        1 0.15873711E-01 0.20847562E+03</pdfrwt>
<pdfrwt beam="2">  1       -1 0.64822413E-01 0.20847562E+03</pdfrwt>
<totfact> 0.86163359E+02</totfact>
</mgrwt>
</event>
<event>
 4    2  0.9452525E-001  0.1743455E+03  0.7546771E-02  0.1173390E+00
         -1   -1    0    0    0  501 -0.00000000000E+00  0.00000000000E+00  0.89358834225E+02  0.89358834225E+02  0.00000000000E+00 0.  1.
          1   -1    0    0  502    0  0.00000000000E+00 -0.00000000000E+00 -0.41919330110E+03  0.41919330110E+03  0.00000000000E+00 0. -1.
          6    1    1    2  502    0 -0.56844299130E+01  0.20857630388E+02 -0.54508921899E+02  0.18266793932E+03  0.17300000000E+03 0.  1.
         -6    1    1    2    0  501  0.56844299130E+01 -0.20857630388E+02 -0.27532554498E+03  0.32588419601E+03  0.17300000000E+03 0. -1.
<mgrwt>
<rscale>  2 0.17434550E+03</rscale>
<asrwt>0</asrwt>
<pdfrwt beam="1">  1        1 0.64491276E-01 0.17434550E+03</pdfrwt>
<pdfrwt beam="2">  1       -1 0.13747513E-01 0.17434550E+03</pdfrwt>
<totfact> 0.20787129E+03</totfact>
</mgrwt>
</event>
<event>
 4    2  0.9452525E-001  0.1950759E+03  0.7546771E-02  0.1153961E+00
         -2   -1    0    0    0  501 -0.00000000000E+00  0.00000000000E+00  0.27787656187E+03  0.27787656187E+03  0.00000000000E+00 0.  1.
          2   -1    0    0  502    0  0.00000000000E+00 -0.00000000000E+00 -0.15067905952E+03  0.15067905952E+03  0.00000000000E+00 0. -1.
          6    1    1    2  502    0  0.79021638963E+02 -0.43372449883E+02  0.12828405949E+03  0.23347674135E+03  0.17300000000E+03 0.  1.
         -6    1    1    2    0  501 -0.79021638963E+02  0.43372449883E+02 -0.10865571378E+01  0.19507888005E+03  0.17300000000E+03 0. -1.
<mgrwt>
<rscale>  2 0.19507585E+03</rscale>
<asrwt>0</asrwt>
<pdfrwt beam="1">  1        2 0.23181394E-01 0.19507585E+03</pdfrwt>
<pdfrwt beam="2">  1       -2 0.42750240E-01 0.19507585E+03</pdfrwt>
<totfact> 0.12172044E+03</totfact>
</mgrwt>
</event>
<event>
 4    2  0.9452525E-001  0.2016918E+03  0.7546771E-02  0.1148319E+00
         -1   -1    0    0    0  501 -0.00000000000E+00  0.00000000000E+00  0.48820576163E+02  0.48820576163E+02  0.00000000000E+00 0. -1.
          1   -1    0    0  502    0  0.00000000000E+00 -0.00000000000E+00 -0.11998313856E+04  0.11998313856E+04  0.00000000000E+00 0.  1.
          6    1    1    2  502    0 -0.91509598563E+02 -0.48750149147E+02 -0.92060024168E+03  0.94243534985E+03  0.17300000000E+03 0.  1.
         -6    1    1    2    0  501  0.91509598563E+02  0.48750149147E+02 -0.23041056772E+03  0.30621661188E+03  0.17300000000E+03 0. -1.
<mgrwt>
<rscale>  2 0.20169180E+03</rscale>
<asrwt>0</asrwt>
<pdfrwt beam="1">  1        1 0.18458945E+00 0.20169180E+03</pdfrwt>
<pdfrwt beam="2">  1       -1 0.75108575E-02 0.20169180E+03</pdfrwt>
<totfact> 0.10906336E+03</totfact>
</mgrwt>
</event>
<event>
 4    2  0.9452525E-001  0.1916203E+03  0.7546771E-02  0.1157008E+00
          1   -1    0    0  502    0  0.00000000000E+00  0.00000000000E+00  0.10257440085E+04  0.10257440085E+04  0.00000000000E+00 0.  1.
         -1   -1    0    0    0  501 -0.00000000000E+00 -0.00000000000E+00 -0.36634425870E+02  0.36634425870E+02  0.00000000000E+00 0. -1.
          6    1    1    2  502    0  0.80307958583E+02  0.18437899126E+02  0.41423235510E+03  0.45640636318E+03  0.17300000000E+03 0. -1.
         -6    1    1    2    0  501 -0.80307958583E+02 -0.18437899126E+02  0.57487722754E+03  0.60597207121E+03  0.17300000000E+03 0.  1.
<mgrwt>
<rscale>  2 0.19162026E+03</rscale>
<asrwt>0</asrwt>
<pdfrwt beam="1">  1        1 0.15780675E+00 0.19162026E+03</pdfrwt>
<pdfrwt beam="2">  1       -1 0.56360663E-02 0.19162026E+03</pdfrwt>
<totfact> 0.22375013E+03</totfact>
</mgrwt>
</event>
<event>
 4    2  0.9452525E-001  0.1878422E+03  0.7546771E-02  0.1160422E+00
          2   -1    0    0  502    0  0.00000000000E+00  0.00000000000E+00  0.35781166165E+04  0.35781166165E+04  0.00000000000E+00 0.  1.
         -2   -1    0    0    0  501 -0.00000000000E+00 -0.00000000000E+00 -0.10910966318E+02  0.10910966318E+02  0.00000000000E+00 0. -1.
          6    1    1    2  502    0  0.22035399750E+02 -0.69786233070E+02  0.23402149090E+04  0.23477415738E+04  0.17300000000E+03 0.  1.
         -6    1    1    2    0  501 -0.22035399750E+02  0.69786233070E+02  0.12269907411E+04  0.12412860089E+04  0.17300000000E+03 0.  1.
<mgrwt>
<rscale>  2 0.18784216E+03</rscale>
<asrwt>0</asrwt>
<pdfrwt beam="1">  1        2 0.55047854E+00 0.18784216E+03</pdfrwt>
<pdfrwt beam="2">  1       -2 0.16786131E-02 0.18784216E+03</pdfrwt>
<totfact> 0.91970073E+02</totfact>
</mgrwt>
</event>
<event>
 4    2  0.9452525E-001  0.1983610E+03  0.7546771E-02  0.1151129E+00
          3   -1    0    0  502    0  0.00000000000E+00  0.00000000000E+00  0.26241125792E+02  0.26241125792E+02  0.00000000000E+00 0.  1.
         -3   -1    0    0    0  501 -0.00000000000E+00 -0.00000000000E+00 -0.16373888104E+04  0.16373888104E+04  0.00000000000E+00 0. -1.
          6    1    1    2  502    0 -0.33252556226E+02 -0.91172167767E+02 -0.10470107289E+04  0.10656352862E+04  0.17300000000E+03 0.  1.
         -6    1    1    2    0  501  0.33252556226E+02  0.91172167767E+02 -0.56413695563E+03  0.59799464996E+03  0.17300000000E+03 0.  1.
<mgrwt>
<rscale>  2 0.19836103E+03</rscale>
<asrwt>0</asrwt>
<pdfrwt beam="1">  1        3 0.40370956E-02 0.19836103E+03</pdfrwt>
<pdfrwt beam="2">  1       -3 0.25190602E+00 0.19836103E+03</pdfrwt>
<totfact> 0.63055778E+01</totfact>
</mgrwt>
</event>
<event>
 4    2  0.9452525E-001  0.1774264E+03  0.7546771E-02  0.1170317E+00
         -3   -1    0    0    0  501 -0.00000000000E+00  0.00000000000E+00  0.56449436248E+03  0.56449436248E+03  0.00000000000E+00 0.  1.
          3   -1    0    0  502    0  0.00000000000E+00 -0.00000000000E+00 -0.75317886416E+02  0.75317886416E+02  0.00000000000E+00 0. -1.
          6    1    1    2  502    0  0.25034308988E+02  0.30404328246E+02  0.81599701868E+02  0.19529119578E+03  0.17300000000E+03 0. -1.
         -6    1    1    2    0  501 -0.25034308988E+02 -0.30404328246E+02  0.40757677419E+03  0.44452105312E+03  0.17300000000E+03 0.  1.
<mgrwt>
<rscale>  2 0.17742643E+03</rscale>
<asrwt>0</asrwt>
<pdfrwt beam="1">  1        3 0.11587367E-01 0.17742643E+03</pdfrwt>
<pdfrwt beam="2">  1       -3 0.86845284E-01 0.17742643E+03</pdfrwt>
<totfact> 0.17292169E+02</totfact>
</mgrwt>
</event>
<event>
 4    2  0.9452525E-001  0.2140366E+03  0.7546771E-02  0.1138409E+00
          1   -1    0    0  502    0  0.00000000000E+00  0.00000000000E+00  0.34983861062E+03  0.34983861062E+03  0.00000000000E+00 0. -1.
         -1   -1    0    0    0  501 -0.00000000000E+00 -0.00000000000E+00 -0.15939997570E+03  0.15939997570E+03  0.00000000000E+00 0.  1.
          6    1    1    2  502    0 -0.12601876609E+03 -0.13949608506E+01 -0.12348259318E+02  0.21439252513E+03  0.17300000000E+03 0.  1.
         -6    1    1    2    0  501  0.12601876609E+03  0.13949608506E+01  0.20278689424E+03  0.29484606119E+03  0.17300000000E+03 0. -1.
<mgrwt>
<rscale>  2 0.21403662E+03</rscale>
<asrwt>0</asrwt>
<pdfrwt beam="1">  1        1 0.53821324E-01 0.21403662E+03</pdfrwt>
<pdfrwt beam="2">  1       -1 0.24523073E-01 0.21403662E+03</pdfrwt>
<totfact> 0.10349051E+03</totfact>
</mgrwt>
</event>
<event>
 4    2  0.9452525E-001  0.2901352E+03  0.7546771E-02  0.1090279E+00
          2   -1    0    0  502    0  0.00000000000E+00  0.00000000000E+00  0.25661900593E+03  0.25661900593E+03  0.00000000000E+00 0.  1.
         -2   -1    0    0    0  501 -0.00000000000E+00 -0.00000000000E+00 -0.32887653927E+03  0.32887653927E+03  0.00000000000E+00 0. -1.
          6    1    1    2  502    0 -0.99037408833E+02  0.21081044518E+03 -0.21266646170E+02  0.29091359952E+03  0.17300000000E+03 0. -1.
         -6    1    1    2    0  501  0.99037408833E+02 -0.21081044518E+03 -0.50990887177E+02  0.29458194568E+03  0.17300000000E+03 0.  1.
<mgrwt>
<rscale>  2 0.29013523E+03</rscale>
<asrwt>0</asrwt>
<pdfrwt beam="1">  1        2 0.39479847E-01 0.29013523E+03</pdfrwt>
<pdfrwt beam="2">  1       -2 0.50596391E-01 0.29013523E+03</pdfrwt>
<totfact> 0.48812737E+02</totfact>
</mgrwt>
</event>
<event>
 4    2  0.9452525E-001  0.1813585E+03  0.7546771E-02  0.1166495E+00
         -2   -1    0    0    0  501 -0.00000000000E+00  0.00000000000E+00  0.26779769274E+02  0.26779769274E+02  0.00000000000E+00 0. -1.
          2   -1    0    0  502    0  0.00000000000E+00 -0.00000000000E+00 -0.12788167123E+04  0.12788167123E+04  0.00000000000E+00 0.  1.
          6    1    1    2  502    0 -0.54420505416E+02 -0.57278898002E+00 -0.75589201461E+03  0.77734397614E+03  0.17300000000E+03 0.  1.
         -6    1    1    2    0  501  0.54420505416E+02  0.57278898002E+00 -0.49614492839E+03  0.52825250540E+03  0.17300000000E+03 0. -1.
<mgrwt>
<rscale>  2 0.18135854E+03</rscale>
<asrwt>0</asrwt>
<pdfrwt beam="1">  1        2 0.19674103E+00 0.18135854E+03</pdfrwt>
<pdfrwt beam="2">  1       -2 0.41199646E-02 0.18135854E+03</pdfrwt>
<totfact> 0.46953377E+03</totfact>
</mgrwt>
</event>
<event>
 4    2  0.9452525E-001  0.1758973E+03  0.7546771E-02  0.1171834E+00
          1   -1    0    0  502    0  0.00000000000E+00  0.00000000000E+00  0.80576536522E+03  0.80576536522E+03  0.00000000000E+00 0. -1.
         -1   -1    0    0    0  501 -0.00000000000E+00 -0.00000000000E+00 -0.39346441077E+02  0.39346441077E+02  0.00000000000E+00 0.  1.
          6    1    1    2  502    0  0.31207630164E+02  0.60770070473E+01  0.44881150817E+03  0.48204939173E+03  0.17300000000E+03 0. -1.
         -6    1    1    2    0  501 -0.31207630164E+02 -0.60770070473E+01  0.31760741597E+03  0.36306241458E+03  0.17300000000E+03 0. -1.
<mgrwt>
<rscale>  2 0.17589726E+03</rscale>
<asrwt>0</asrwt>
<pdfrwt beam="1">  1        1 0.12396389E+00 0.17589726E+03</pdfrwt>
<pdfrwt beam="2">  1       -1 0.60532992E-02 0.17589726E+03</pdfrwt>
<totfact> 0.29689698E+03</totfact>
</mgrwt>
</event>
<event>
 4    2  0.9452525E-001  0.1795405E+03  0.7546771E-02  0.1168249E+00
          2   -1    0    0  502    0  0.00000000000E+00  0.00000000000E+00  0.19466696731E+04  0.19466696731E+04  0.00000000000E+00 0.  1.
         -2   -1    0    0    0  501 -0.00000000000E+00 -0.00000000000E+00 -0.19337128593E+02  0.19337128593E+02  0.00000000000E+00 0. -1.
          6    1    1    2  502    0 -0.44346291453E+02  0.18416978002E+02  0.13362639962E+04  0.13482715773E+04  0.17300000000E+03 0.  1.
         -6    1    1    2    0  501  0.44346291453E+02 -0.18416978002E+02  0.59106854832E+03  0.61773522439E+03  0.17300000000E+03 0. -1.
<mgrwt>
<rscale>  2 0.17954047E+03</rscale>
<asrwt>0</asrwt>
<pdfrwt beam="1">  1        2 0.29948749E+00 0.17954047E+03</pdfrwt>
<pdfrwt beam="2">  1       -2 0.29749444E-02 0.17954047E+03</pdfrwt>
<totfact> 0.33988986E+03</totfact>
</mgrwt>
</event>
<event>
 4    2  0.9452525E-001  0.2436168E+03  0.7546771E-02  0.1117407E+00
          1   -1    0    0  502    0  0.00000000000E+00  0.00000000000E+00  0.28433731783E+03  0.28433731783E+03  0.00000000000E+00 0.  1.
         -1   -1    0    0    0  501 -0.00000000000E+00 -0.00000000000E+00 -0.41630919735E+03  0.41630919735E+03  0.00000000000E+00 0. -1.
          6    1    1    2  502    0  0.84050502138E+02 -0.14951815502E+03  0.18138857332E+03  0.30372846446E+03  0.17300000000E+03 0.  1.
         -6    1    1    2    0  501 -0.84050502138E+02  0.14951815502E+03 -0.31336045284E+03  0.39691805073E+03  0.17300000000E+03 0. -1.
<mgrwt>
<rscale>  2 0.24361684E+03</rscale>
<asrwt>0</asrwt>
<pdfrwt beam="1">  1        1 0.43744203E-01 0.24361684E+03</pdfrwt>
<pdfrwt beam="2">  1       -1 0.64047569E-01 0.24361684E+03</pdfrwt>
<totfact> 0.24238319E+02</totfact>
</mgrwt>
</event>
<event>
 4    2  0.9452525E-001  0.2292233E+03  0.7546771E-02  0.1127188E+00
         -2   -1    0    0    0  501 -0.00000000000E+00  0.00000000000E+00  0.35417375928E+02  0.35417375928E+02  0.00000000000E+00 0.  1.
          2   -1    0    0  502    0  0.00000000000E+00 -0.00000000000E+00 -0.14836973608E+04  0.14836973608E+04  0.00000000000E+00 0. -1.
          6    1    1    2  502    0  0.14805684246E+03 -0.26334470960E+02 -0.71648727632E+03  0.75226149050E+03  0.17300000000E+03 0.  1.
         -6    1    1    2    0  501 -0.14805684246E+03  0.26334470960E+02 -0.73179270855E+03  0.76685324623E+03  0.17300000000E+03 0. -1.
<mgrwt>
<rscale>  2 0.22922333E+03</rscale>
<asrwt>0</asrwt>
<pdfrwt beam="1">  1        2 0.22826114E+00 0.22922333E+03</pdfrwt>
<pdfrwt beam="2">  1       -2 0.54488269E-02 0.22922333E+03</pdfrwt>
<totfact> 0.23904526E+03</totfact>
</mgrwt>
</event>
<event>
 4    2  0.9452525E-001  0.2632994E+03  0.7546771E-02  0.1105177E+00
         -1   -1    0    0    0  501 -0.00000000000E+00  0.00000000000E+00  0.13198747991E+03  0.13198747991E+03  0.00000000000E+00 0. -1.
          1   -1    0    0  502    0  0.00000000000E+00 -0.00000000000E+00 -0.86437656688E+03  0.86437656688E+03  0.00000000000E+00 0.  1.
          6    1    1    2  502    0 -0.11785930226E+03 -0.15970834976E+03 -0.54149889076E+02  0.26880993768E+03  0.17300000000E+03 0. -1.
         -6    1    1    2    0  501  0.11785930226E+03  0.15970834976E+03 -0.67823919790E+03  0.72755410910E+03  0.17300000000E+03 0.  1.
<mgrwt>
<rscale>  2 0.26329940E+03</rscale>
<asrwt>0</asrwt>
<pdfrwt beam="1">  1        1 0.13298101E+00 0.26329940E+03</pdfrwt>
<pdfrwt beam="2">  1       -1 0.20305767E-01 0.26329940E+03</pdfrwt>
<totfact> 0.40389104E+02</totfact>
</mgrwt>
</event>
<event>
 4    2  0.9452525E-001  0.2097525E+03  0.7546771E-02  0.1141762E+00
         -2   -1    0    0    0  501 -0.00000000000E+00  0.00000000000E+00  0.81768346183E+02  0.81768346183E+02  0.00000000000E+00 0. -1.
          2   -1    0    0  502    0  0.00000000000E+00 -0.00000000000E+00 -0.59260154315E+03  0.59260154315E+03  0.00000000000E+00 0.  1.
          6    1    1    2  502    0 -0.57098643039E+02 -0.10395593813E+03 -0.15312040651E+03  0.25969588175E+03  0.17300000000E+03 0. -1.
         -6    1    1    2    0  501  0.57098643039E+02  0.10395593813E+03 -0.35771279046E+03  0.41467400759E+03  0.17300000000E+03 0.  1.
<mgrwt>
<rscale>  2 0.20975245E+03</rscale>
<asrwt>0</asrwt>
<pdfrwt beam="1">  1        2 0.91169465E-01 0.20975245E+03</pdfrwt>
<pdfrwt beam="2">  1       -2 0.12579746E-01 0.20975245E+03</pdfrwt>
<totfact> 0.23258539E+03</totfact>
</mgrwt>
</event>
<event>
 4    2  0.9452525E-001  0.3957745E+03  0.7546771E-02  0.1045253E+00
          2   -1    0    0  502    0  0.00000000000E+00  0.00000000000E+00  0.11653476060E+04  0.11653476060E+04  0.00000000000E+00 0.  1.
         -2   -1    0    0    0  501 -0.00000000000E+00 -0.00000000000E+00 -0.16098884519E+03  0.16098884519E+03  0.00000000000E+00 0. -1.
          6    1    1    2  502    0 -0.19011408574E+03  0.30094033491E+03  0.77162571715E+03  0.86720453075E+03  0.17300000000E+03 0.  1.
         -6    1    1    2    0  501  0.19011408574E+03 -0.30094033491E+03  0.23273304367E+03  0.45913192046E+03  0.17300000000E+03 0. -1.
<mgrwt>
<rscale>  2 0.39577449E+03</rscale>
<asrwt>0</asrwt>
<pdfrwt beam="1">  1        2 0.17928424E+00 0.39577449E+03</pdfrwt>
<pdfrwt beam="2">  1       -2 0.24767515E-01 0.39577449E+03</pdfrwt>
<totfact> 0.30020014E+02</totfact>
</mgrwt>
</event>
<event>
 4    2  0.9452525E-001  0.1919248E+03  0.7546771E-02  0.1156737E+00
          3   -1    0    0  502    0  0.00000000000E+00  0.00000000000E+00  0.87404047354E+02  0.87404047354E+02  0.00000000000E+00 0.  1.
         -3   -1    0    0    0  501 -0.00000000000E+00 -0.00000000000E+00 -0.50238304864E+03  0.50238304864E+03  0.00000000000E+00 0. -1.
          6    1    1    2  502    0  0.74690037897E+02  0.36435396863E+02 -0.32586191546E+03  0.37818134255E+03  0.17300000000E+03 0. -1.
         -6    1    1    2    0  501 -0.74690037897E+02 -0.36435396863E+02 -0.89117085830E+02  0.21160575345E+03  0.17300000000E+03 0.  1.
<mgrwt>
<rscale>  2 0.19192483E+03</rscale>
<asrwt>0</asrwt>
<pdfrwt beam="1">  1        3 0.13446777E-01 0.19192483E+03</pdfrwt>
<pdfrwt beam="2">  1       -3 0.77289700E-01 0.19192483E+03</pdfrwt>
<totfact> 0.17503825E+02</totfact>
</mgrwt>
</event>
<event>
 4    2  0.9452525E-001  0.2052682E+03  0.7546771E-02  0.1145369E+00
         -2   -1    0    0    0  501 -0.00000000000E+00  0.00000000000E+00  0.59008830003E+03  0.59008830003E+03  0.00000000000E+00 0.  1.
          2   -1    0    0  502    0  0.00000000000E+00 -0.00000000000E+00 -0.10357244406E+03  0.10357244406E+03  0.00000000000E+00 0. -1.
          6    1    1    2  502    0  0.10961452684E+03  0.13809015671E+02  0.43654634189E+03  0.48239790840E+03  0.17300000000E+03 0. -1.
         -6    1    1    2    0  501 -0.10961452684E+03 -0.13809015671E+02  0.49969514078E+02  0.21126283569E+03  0.17300000000E+03 0.  1.
<mgrwt>
<rscale>  2 0.20526820E+03</rscale>
<asrwt>0</asrwt>
<pdfrwt beam="1">  1        2 0.15934222E-01 0.20526820E+03</pdfrwt>
<pdfrwt beam="2">  1       -2 0.90782814E-01 0.20526820E+03</pdfrwt>
<totfact> 0.38854281E+02</totfact>
</mgrwt>
</event>
<event>
 4    2  0.9452525E-001  0.1831524E+03  0.7546771E-02  0.1164786E+00
          1   -1    0    0  502    0  0.00000000000E+00  0.00000000000E+00  0.70992217865E+03  0.70992217865E+03  0.00000000000E+00 0.  1.
         -1   -1    0    0    0  501 -0.00000000000E+00 -0.00000000000E+00 -0.58459632798E+02  0.58459632798E+02  0.00000000000E+00 0. -1.
          6    1    1    2  502    0 -0.58366687294E+02 -0.14462005541E+02  0.15750743788E+03  0.24156451059E+03  0.17300000000E+03 0. -1.
         -6    1    1    2    0  501  0.58366687294E+02  0.14462005541E+02  0.49395510797E+03  0.52681730085E+03  0.17300000000E+03 0.  1.
<mgrwt>
<rscale>  2 0.18315245E+03</rscale>
<asrwt>0</asrwt>
<pdfrwt beam="1">  1        1 0.10921879E+00 0.18315245E+03</pdfrwt>
<pdfrwt beam="2">  1       -1 0.89937902E-02 0.18315245E+03</pdfrwt>
<totfact> 0.19703194E+03</totfact>
</mgrwt>
</event>
<event>
 4    2  0.9452525E-001  0.1863820E+03  0.7546771E-02  0.1161766E+00
          2   -1    0    0  502    0  0.00000000000E+00  0.00000000000E+00  0.10261287400E+04  0.10261287400E+04  0.00000000000E+00 0.  1.
         -2   -1    0    0    0  501 -0.00000000000E+00 -0.00000000000E+00 -0.42380811230E+02  0.42380811230E+02  0.00000000000E+00 0. -1.
          6    1    1    2  502    0  0.56210941771E+02 -0.40615032198E+02  0.25223091551E+03  0.31362188309E+03  0.17300000000E+03 0. -1.
         -6    1    1    2    0  501 -0.56210941771E+02  0.40615032198E+02  0.73151701324E+03  0.75488766811E+03  0.17300000000E+03 0.  1.
<mgrwt>
<rscale>  2 0.18638200E+03</rscale>
<asrwt>0</asrwt>
<pdfrwt beam="1">  1        2 0.15786594E+00 0.18638200E+03</pdfrwt>
<pdfrwt beam="2">  1       -2 0.65201256E-02 0.18638200E+03</pdfrwt>
<totfact> 0.32652569E+03</totfact>
</mgrwt>
</event>
<event>
 4    2  0.9452525E-001  0.2701999E+03  0.7546771E-02  0.1101165E+00
          1   -1    0    0  502    0  0.00000000000E+00  0.00000000000E+00  0.40954441757E+02  0.40954441757E+02  0.00000000000E+00 0. -1.
         -1   -1    0    0    0  501 -0.00000000000E+00 -0.00000000000E+00 -0.17996686887E+04  0.17996686887E+04  0.00000000000E+00 0.  1.
          6    1    1    2  502    0  0.12951200600E+03 -0.16219013754E+03 -0.78989780050E+03  0.83483323823E+03  0.17300000000E+03 0. -1.
         -6    1    1    2    0  501 -0.12951200600E+03  0.16219013754E+03 -0.96881644648E+03  0.10057898923E+04  0.17300000000E+03 0.  1.
<mgrwt>
<rscale>  2 0.27019993E+03</rscale>
<asrwt>0</asrwt>
<pdfrwt beam="1">  1        1 0.63006827E-02 0.27019993E+03</pdfrwt>
<pdfrwt beam="2">  1       -1 0.27687213E+00 0.27019993E+03</pdfrwt>
<totfact> 0.65050428E+01</totfact>
</mgrwt>
</event>
<event>
 4    2  0.9452525E-001  0.1733024E+03  0.7546771E-02  0.1174447E+00
          1   -1    0    0  502    0  0.00000000000E+00  0.00000000000E+00  0.59577441350E+03  0.59577441350E+03  0.00000000000E+00 0. -1.
         -1   -1    0    0    0  501 -0.00000000000E+00 -0.00000000000E+00 -0.98521904997E+02  0.98521904997E+02  0.00000000000E+00 0.  1.
          6    1    1    2  502    0  0.71260698040E+01  0.73449932297E+01  0.49121414854E+03  0.52088873046E+03  0.17300000000E+03 0. -1.
         -6    1    1    2    0  501 -0.71260698040E+01 -0.73449932297E+01  0.60383599600E+01  0.17340758803E+03  0.17300000000E+03 0.  1.
<mgrwt>
<rscale>  2 0.17330242E+03</rscale>
<asrwt>0</asrwt>
<pdfrwt beam="1">  1        1 0.91657600E-01 0.17330242E+03</pdfrwt>
<pdfrwt beam="2">  1       -1 0.15157217E-01 0.17330242E+03</pdfrwt>
<totfact> 0.11215255E+03</totfact>
</mgrwt>
</event>
<event>
 4    2  0.9452525E-001  0.2175382E+03  0.7546771E-02  0.1135732E+00
         -2   -1    0    0    0  501 -0.00000000000E+00  0.00000000000E+00  0.19999084575E+02  0.19999084575E+02  0.00000000000E+00 0.  1.
          2   -1    0    0  502    0  0.00000000000E+00 -0.00000000000E+00 -0.24833102334E+04  0.24833102334E+04  0.00000000000E+00 0. -1.
          6    1    1    2  502    0  0.47187909896E+02  0.12315509750E+03 -0.15034056885E+04  0.15190627179E+04  0.17300000000E+03 0. -1.
         -6    1    1    2    0  501 -0.47187909896E+02 -0.12315509750E+03 -0.95990546033E+03  0.98424660002E+03  0.17300000000E+03 0.  1.
<mgrwt>
<rscale>  2 0.21753822E+03</rscale>
<asrwt>0</asrwt>
<pdfrwt beam="1">  1        2 0.38204781E+00 0.21753822E+03</pdfrwt>
<pdfrwt beam="2">  1       -2 0.30767816E-02 0.21753822E+03</pdfrwt>
<totfact> 0.16803041E+03</totfact>
</mgrwt>
</event>
<event>
 4    2  0.9452525E-001  0.3128798E+03  0.7546771E-02  0.1078974E+00
          1   -1    0    0  502    0  0.00000000000E+00  0.00000000000E+00  0.12075708472E+04  0.12075708472E+04  0.00000000000E+00 0.  1.
         -1   -1    0    0    0  501 -0.00000000000E+00 -0.00000000000E+00 -0.87511914731E+02  0.87511914731E+02  0.00000000000E+00 0. -1.
          6    1    1    2  502    0  0.18236968498E+03 -0.18629569467E+03  0.73576213751E+03  0.79952467807E+03  0.17300000000E+03 0.  1.
         -6    1    1    2    0  501 -0.18236968498E+03  0.18629569467E+03  0.38429679492E+03  0.49555808382E+03  0.17300000000E+03 0. -1.
<mgrwt>
<rscale>  2 0.31287983E+03</rscale>
<asrwt>0</asrwt>
<pdfrwt beam="1">  1        1 0.18578012E+00 0.31287983E+03</pdfrwt>
<pdfrwt beam="2">  1       -1 0.13463372E-01 0.31287983E+03</pdfrwt>
<totfact> 0.43179322E+02</totfact>
</mgrwt>
</event>
<event>
 4    2  0.9452525E-001  0.2897044E+03  0.7546771E-02  0.1090504E+00
          1   -1    0    0  502    0  0.00000000000E+00  0.00000000000E+00  0.55815326342E+03  0.55815326342E+03  0.00000000000E+00 0. -1.
         -1   -1    0    0    0  501 -0.00000000000E+00 -0.00000000000E+00 -0.34575217087E+03  0.34575217087E+03  0.00000000000E+00 0.  1.
          6    1    1    2  502    0  0.16272058011E+03  0.16589655026E+03  0.44594682537E+03  0.53178682161E+03  0.17300000000E+03 0.  1.
         -6    1    1    2    0  501 -0.16272058011E+03 -0.16589655026E+03 -0.23354573282E+03  0.37211861267E+03  0.17300000000E+03 0. -1.
<mgrwt>
<rscale>  2 0.28970442E+03</rscale>
<asrwt>0</asrwt>
<pdfrwt beam="1">  1        1 0.85869732E-01 0.28970442E+03</pdfrwt>
<pdfrwt beam="2">  1       -1 0.53192642E-01 0.28970442E+03</pdfrwt>
<totfact> 0.14348238E+02</totfact>
</mgrwt>
</event>
<event>
 4    2  0.9452525E-001  0.1989375E+03  0.7546771E-02  0.1150639E+00
          1   -1    0    0  502    0  0.00000000000E+00  0.00000000000E+00  0.25754005034E+04  0.25754005034E+04  0.00000000000E+00 0.  1.
         -1   -1    0    0    0  501 -0.00000000000E+00 -0.00000000000E+00 -0.38958526011E+02  0.38958526011E+02  0.00000000000E+00 0. -1.
          6    1    1    2  502    0  0.50608665137E+02  0.84177647560E+02  0.22854347534E+04  0.22940767479E+04  0.17300000000E+03 0.  1.
         -6    1    1    2    0  501 -0.50608665137E+02 -0.84177647560E+02  0.25100722398E+03  0.32028228147E+03  0.17300000000E+03 0. -1.
<mgrwt>
<rscale>  2 0.19893746E+03</rscale>
<asrwt>0</asrwt>
<pdfrwt beam="1">  1        1 0.39621533E+00 0.19893746E+03</pdfrwt>
<pdfrwt beam="2">  1       -1 0.59936214E-02 0.19893746E+03</pdfrwt>
<totfact> 0.19297748E+02</totfact>
</mgrwt>
</event>
<event>
 4    2  0.9452525E-001  0.2146816E+03  0.7546771E-02  0.1137911E+00
         -1   -1    0    0    0  501 -0.00000000000E+00  0.00000000000E+00  0.55621206399E+03  0.55621206399E+03  0.00000000000E+00 0. -1.
          1   -1    0    0  502    0  0.00000000000E+00 -0.00000000000E+00 -0.12045995475E+03  0.12045995475E+03  0.00000000000E+00 0.  1.
          6    1    1    2  502    0  0.12334546914E+02 -0.12651891762E+03  0.40689960039E+03  0.46006028123E+03  0.17300000000E+03 0. -1.
         -6    1    1    2    0  501 -0.12334546914E+02  0.12651891762E+03  0.28852508854E+02  0.21661173752E+03  0.17300000000E+03 0.  1.
<mgrwt>
<rscale>  2 0.21468157E+03</rscale>
<asrwt>0</asrwt>
<pdfrwt beam="1">  1        1 0.18532301E-01 0.21468157E+03</pdfrwt>
<pdfrwt beam="2">  1       -1 0.85571085E-01 0.21468157E+03</pdfrwt>
<totfact> 0.40113190E+02</totfact>
</mgrwt>
</event>
<event>
 4    2  0.9452525E-001  0.1775451E+03  0.7546771E-02  0.1170200E+00
          2   -1    0    0  502    0  0.00000000000E+00  0.00000000000E+00  0.55214212504E+03  0.55214212504E+03  0.00000000000E+00 0. -1.
         -2   -1    0    0    0  501 -0.00000000000E+00 -0.00000000000E+00 -0.75728061555E+02  0.75728061555E+02  0.00000000000E+00 0.  1.
          6    1    1    2  502    0 -0.38678891611E+02 -0.98597955590E+01  0.82466474620E+02  0.19576259004E+03  0.17300000000E+03 0.  1.
         -6    1    1    2    0  501  0.38678891611E+02  0.98597955590E+01  0.39394758887E+03  0.43210759655E+03  0.17300000000E+03 0. -1.
<mgrwt>
<rscale>  2 0.17754513E+03</rscale>
<asrwt>0</asrwt>
<pdfrwt beam="1">  1        2 0.84944939E-01 0.17754513E+03</pdfrwt>
<pdfrwt beam="2">  1       -2 0.11650471E-01 0.17754513E+03</pdfrwt>
<totfact> 0.28402561E+03</totfact>
</mgrwt>
</event>
<event>
 4    2  0.9452525E-001  0.1763363E+03  0.7546771E-02  0.1171397E+00
          1   -1    0    0  502    0  0.00000000000E+00  0.00000000000E+00  0.12014683172E+03  0.12014683172E+03  0.00000000000E+00 0. -1.
         -1   -1    0    0    0  501 -0.00000000000E+00 -0.00000000000E+00 -0.37813905287E+03  0.37813905287E+03  0.00000000000E+00 0.  1.
          6    1    1    2  502    0  0.29662181202E+01 -0.34010075629E+02  0.10964810412E+02  0.17667685406E+03  0.17300000000E+03 0. -1.
         -6    1    1    2    0  501 -0.29662181202E+01  0.34010075629E+02 -0.26895703156E+03  0.32160903053E+03  0.17300000000E+03 0.  1.
<mgrwt>
<rscale>  2 0.17633628E+03</rscale>
<asrwt>0</asrwt>
<pdfrwt beam="1">  1        1 0.18484128E-01 0.17633628E+03</pdfrwt>
<pdfrwt beam="2">  1       -1 0.58175239E-01 0.17633628E+03</pdfrwt>
<totfact> 0.86918771E+02</totfact>
</mgrwt>
</event>
<event>
 4    2  0.9452525E-001  0.2104654E+03  0.7546771E-02  0.1141198E+00
          1   -1    0    0  502    0  0.00000000000E+00  0.00000000000E+00  0.23005608879E+03  0.23005608879E+03  0.00000000000E+00 0.  1.
         -1   -1    0    0    0  501 -0.00000000000E+00 -0.00000000000E+00 -0.20017161119E+03  0.20017161119E+03  0.00000000000E+00 0. -1.
          6    1    1    2  502    0  0.11529648594E+03 -0.32762552028E+02  0.56936792133E+02  0.21803087576E+03  0.17300000000E+03 0. -1.
         -6    1    1    2    0  501 -0.11529648594E+03  0.32762552028E+02 -0.27052314527E+02  0.21219682422E+03  0.17300000000E+03 0. -1.
<mgrwt>
<rscale>  2 0.21046535E+03</rscale>
<asrwt>0</asrwt>
<pdfrwt beam="1">  1        1 0.35393244E-01 0.21046535E+03</pdfrwt>
<pdfrwt beam="2">  1       -1 0.30795633E-01 0.21046535E+03</pdfrwt>
<totfact> 0.11945639E+03</totfact>
</mgrwt>
</event>
<event>
 4    2  0.9452525E-001  0.2330633E+03  0.7546771E-02  0.1124502E+00
          2   -1    0    0  502    0  0.00000000000E+00  0.00000000000E+00  0.24888313447E+04  0.24888313447E+04  0.00000000000E+00 0. -1.
         -2   -1    0    0    0  501 -0.00000000000E+00 -0.00000000000E+00 -0.22172855773E+02  0.22172855773E+02  0.00000000000E+00 0.  1.
          6    1    1    2  502    0  0.62661328408E+02 -0.14304915798E+03  0.10760517694E+04  0.11010022317E+04  0.17300000000E+03 0.  1.
         -6    1    1    2    0  501 -0.62661328408E+02  0.14304915798E+03  0.13906067195E+04  0.14100019688E+04  0.17300000000E+03 0. -1.
<mgrwt>
<rscale>  2 0.23306330E+03</rscale>
<asrwt>0</asrwt>
<pdfrwt beam="1">  1        2 0.38289691E+00 0.23306330E+03</pdfrwt>
<pdfrwt beam="2">  1       -2 0.34112105E-02 0.23306330E+03</pdfrwt>
<totfact> 0.14275545E+03</totfact>
</mgrwt>
</event>
<event>
 4    2  0.9452525E-001  0.1961183E+03  0.7546771E-02  0.1153056E+00
          1   -1    0    0  502    0  0.00000000000E+00  0.00000000000E+00  0.10584937504E+04  0.10584937504E+04  0.00000000000E+00 0. -1.
         -1   -1    0    0    0  501 -0.00000000000E+00 -0.00000000000E+00 -0.37221667697E+02  0.37221667697E+02  0.00000000000E+00 0.  1.
          6    1    1    2  502    0 -0.40326166147E+02  0.83109446193E+02  0.59510262276E+03  0.62658559778E+03  0.17300000000E+03 0. -1.
         -6    1    1    2    0  501  0.40326166147E+02 -0.83109446193E+02  0.42616945989E+03  0.46912982027E+03  0.17300000000E+03 0.  1.
<mgrwt>
<rscale>  2 0.19611828E+03</rscale>
<asrwt>0</asrwt>
<pdfrwt beam="1">  1        1 0.16284517E+00 0.19611828E+03</pdfrwt>
<pdfrwt beam="2">  1       -1 0.57264112E-02 0.19611828E+03</pdfrwt>
<totfact> 0.20684205E+03</totfact>
</mgrwt>
</event>
<event>
 4    2  0.9452525E-001  0.1901183E+03  0.7546771E-02  0.1158355E+00
         -2   -1    0    0    0  501 -0.00000000000E+00  0.00000000000E+00  0.90158772788E+02  0.90158772788E+02  0.00000000000E+00 0.  1.
          2   -1    0    0  502    0  0.00000000000E+00 -0.00000000000E+00 -0.41121604490E+03  0.41121604490E+03  0.00000000000E+00 0. -1.
          6    1    1    2  502    0 -0.72285778851E+02 -0.31475816142E+02 -0.20022785807E+03  0.27610895671E+03  0.17300000000E+03 0. -1.
         -6    1    1    2    0  501  0.72285778851E+02  0.31475816142E+02 -0.12082941404E+03  0.22526586098E+03  0.17300000000E+03 0.  1.
<mgrwt>
<rscale>  2 0.19011828E+03</rscale>
<asrwt>0</asrwt>
<pdfrwt beam="1">  1        2 0.63264006E-01 0.19011828E+03</pdfrwt>
<pdfrwt beam="2">  1       -2 0.13870581E-01 0.19011828E+03</pdfrwt>
<totfact> 0.29723141E+03</totfact>
</mgrwt>
</event>
<event>
 4    2  0.9452525E-001  0.1883171E+03  0.7546771E-02  0.1159988E+00
         -2   -1    0    0    0  501 -0.00000000000E+00  0.00000000000E+00  0.14157139042E+03  0.14157139042E+03  0.00000000000E+00 0. -1.
          2   -1    0    0  502    0  0.00000000000E+00 -0.00000000000E+00 -0.25426077956E+03  0.25426077956E+03  0.00000000000E+00 0.  1.
          6    1    1    2  502    0 -0.70793840441E+02  0.22859996202E+02 -0.32267994154E+02  0.19106169349E+03  0.17300000000E+03 0. -1.
         -6    1    1    2    0  501  0.70793840441E+02 -0.22859996202E+02 -0.80421394987E+02  0.20477047649E+03  0.17300000000E+03 0.  1.
<mgrwt>
<rscale>  2 0.18831715E+03</rscale>
<asrwt>0</asrwt>
<pdfrwt beam="1">  1        2 0.39117043E-01 0.18831715E+03</pdfrwt>
<pdfrwt beam="2">  1       -2 0.21780214E-01 0.18831715E+03</pdfrwt>
<totfact> 0.23376203E+03</totfact>
</mgrwt>
</event>
<event>
 4    2  0.9452525E-001  0.2570382E+03  0.7546771E-02  0.1108936E+00
          2   -1    0    0  502    0  0.00000000000E+00  0.00000000000E+00  0.18119003448E+04  0.18119003448E+04  0.00000000000E+00 0. -1.
         -2   -1    0    0    0  501 -0.00000000000E+00 -0.00000000000E+00 -0.57922414785E+02  0.57922414785E+02  0.00000000000E+00 0.  1.
          6    1    1    2  502    0 -0.13474128961E+03  0.13410605797E+03  0.14460366212E+04  0.14687037004E+04  0.17300000000E+03 0. -1.
         -6    1    1    2    0  501  0.13474128961E+03 -0.13410605797E+03  0.30794130879E+03  0.40111905909E+03  0.17300000000E+03 0.  1.
<mgrwt>
<rscale>  2 0.25703823E+03</rscale>
<asrwt>0</asrwt>
<pdfrwt beam="1">  1        2 0.27875386E+00 0.25703823E+03</pdfrwt>
<pdfrwt beam="2">  1       -2 0.89111421E-02 0.25703823E+03</pdfrwt>
<totfact> 0.74633172E+02</totfact>
</mgrwt>
</event>
<event>
 4    2  0.9452525E-001  0.2451366E+03  0.7546771E-02  0.1116418E+00
          1   -1    0    0  502    0  0.00000000000E+00  0.00000000000E+00  0.71675863255E+03  0.71675863255E+03  0.00000000000E+00 0. -1.
         -1   -1    0    0    0  501 -0.00000000000E+00 -0.00000000000E+00 -0.10370263578E+03  0.10370263578E+03  0.00000000000E+00 0.  1.
          6    1    1    2  502    0 -0.16249735634E+03  0.61298960163E+02  0.48607090910E+03  0.54438670264E+03  0.17300000000E+03 0.  1.
         -6    1    1    2    0  501  0.16249735634E+03 -0.61298960163E+02  0.12698508766E+03  0.27607456569E+03  0.17300000000E+03 0.  1.
<mgrwt>
<rscale>  2 0.24513660E+03</rscale>
<asrwt>0</asrwt>
<pdfrwt beam="1">  1        1 0.11027056E+00 0.24513660E+03</pdfrwt>
<pdfrwt beam="2">  1       -1 0.15954252E-01 0.24513660E+03</pdfrwt>
<totfact> 0.79534656E+02</totfact>
</mgrwt>
</event>
<event>
 4    2  0.9452525E-001  0.2744677E+03  0.7546771E-02  0.1098750E+00
         -2   -1    0    0    0  501 -0.00000000000E+00  0.00000000000E+00  0.31491799925E+02  0.31491799925E+02  0.00000000000E+00 0. -1.
          2   -1    0    0  502    0  0.00000000000E+00 -0.00000000000E+00 -0.24864104337E+04  0.24864104337E+04  0.00000000000E+00 0.  1.
          6    1    1    2  502    0 -0.19556001148E+03 -0.84615452250E+02 -0.98230911425E+03  0.10199331786E+04  0.17300000000E+03 0. -1.
         -6    1    1    2    0  501  0.19556001148E+03  0.84615452250E+02 -0.14726095195E+04  0.14979690550E+04  0.17300000000E+03 0.  1.
<mgrwt>
<rscale>  2 0.27446765E+03</rscale>
<asrwt>0</asrwt>
<pdfrwt beam="1">  1        2 0.38252465E+00 0.27446765E+03</pdfrwt>
<pdfrwt beam="2">  1       -2 0.48448927E-02 0.27446765E+03</pdfrwt>
<totfact> 0.83775027E+02</totfact>
</mgrwt>
</event>
<event>
 4    2  0.9452525E-001  0.1779935E+03  0.7546771E-02  0.1169759E+00
          2   -1    0    0  502    0  0.00000000000E+00  0.00000000000E+00  0.19189300586E+04  0.19189300586E+04  0.00000000000E+00 0.  1.
         -2   -1    0    0    0  501 -0.00000000000E+00 -0.00000000000E+00 -0.20539983456E+02  0.20539983456E+02  0.00000000000E+00 0. -1.
          6    1    1    2  502    0  0.26744950120E+02 -0.32208339124E+02  0.13787323531E+04  0.13901742952E+04  0.17300000000E+03 0.  1.
         -6    1    1    2    0  501 -0.26744950120E+02  0.32208339124E+02  0.51965772201E+03  0.54929574685E+03  0.17300000000E+03 0. -1.
<mgrwt>
<rscale>  2 0.17799345E+03</rscale>
<asrwt>0</asrwt>
<pdfrwt beam="1">  1        2 0.29521987E+00 0.17799345E+03</pdfrwt>
<pdfrwt beam="2">  1       -2 0.31599990E-02 0.17799345E+03</pdfrwt>
<totfact> 0.32126428E+03</totfact>
</mgrwt>
</event>
<event>
 4    2  0.9452525E-001  0.2045792E+03  0.7546771E-02  0.1145932E+00
         -2   -1    0    0    0  501 -0.00000000000E+00  0.00000000000E+00  0.43627676348E+02  0.43627676348E+02  0.00000000000E+00 0.  1.
          2   -1    0    0  502    0  0.00000000000E+00 -0.00000000000E+00 -0.97226006341E+03  0.97226006341E+03  0.00000000000E+00 0. -1.
          6    1    1    2  502    0 -0.25351324118E+02 -0.10621179206E+03 -0.40570294565E+03  0.45436495740E+03  0.17300000000E+03 0.  1.
         -6    1    1    2    0  501  0.25351324118E+02  0.10621179206E+03 -0.52292944142E+03  0.56152278236E+03  0.17300000000E+03 0.  1.
<mgrwt>
<rscale>  2 0.20457916E+03</rscale>
<asrwt>0</asrwt>
<pdfrwt beam="1">  1        2 0.14957847E+00 0.20457916E+03</pdfrwt>
<pdfrwt beam="2">  1       -2 0.67119504E-02 0.20457916E+03</pdfrwt>
<totfact> 0.33736182E+03</totfact>
</mgrwt>
</event>
<event>
 4    2  0.9452525E-001  0.1738209E+03  0.7546771E-02  0.1173921E+00
          1   -1    0    0  502    0  0.00000000000E+00  0.00000000000E+00  0.73007980814E+03  0.73007980814E+03  0.00000000000E+00 0. -1.
         -1   -1    0    0    0  501 -0.00000000000E+00 -0.00000000000E+00 -0.44798960773E+02  0.44798960773E+02  0.00000000000E+00 0.  1.
          6    1    1    2  502    0 -0.20509079318E+01 -0.16748302613E+02  0.44960867521E+03  0.48203907797E+03  0.17300000000E+03 0. -1.
         -6    1    1    2    0  501  0.20509079318E+01  0.16748302613E+02  0.23567217216E+03  0.29283969094E+03  0.17300000000E+03 0.  1.
<mgrwt>
<rscale>  2 0.17382092E+03</rscale>
<asrwt>0</asrwt>
<pdfrwt beam="1">  1        1 0.11231996E+00 0.17382092E+03</pdfrwt>
<pdfrwt beam="2">  1       -1 0.68921484E-02 0.17382092E+03</pdfrwt>
<totfact> 0.28296919E+03</totfact>
</mgrwt>
</event>
<event>
 4    2  0.9452525E-001  0.2394836E+03  0.7546771E-02  0.1120137E+00
          2   -1    0    0  502    0  0.00000000000E+00  0.00000000000E+00  0.16894609230E+04  0.16894609230E+04  0.00000000000E+00 0. -1.
         -2   -1    0    0    0  501 -0.00000000000E+00 -0.00000000000E+00 -0.55168204617E+02  0.55168204617E+02  0.00000000000E+00 0.  1.
          6    1    1    2  502    0  0.15557170080E+03 -0.56752384508E+02  0.13581649093E+04  0.13791172206E+04  0.17300000000E+03 0. -1.
         -6    1    1    2    0  501 -0.15557170080E+03  0.56752384508E+02  0.27612780908E+03  0.36551190704E+03  0.17300000000E+03 0.  1.
<mgrwt>
<rscale>  2 0.23948358E+03</rscale>
<asrwt>0</asrwt>
<pdfrwt beam="1">  1        2 0.25991703E+00 0.23948358E+03</pdfrwt>
<pdfrwt beam="2">  1       -2 0.84874174E-02 0.23948358E+03</pdfrwt>
<totfact> 0.93635075E+02</totfact>
</mgrwt>
</event>
<event>
 4    2  0.9452525E-001  0.2312882E+03  0.7546771E-02  0.1125736E+00
         -1   -1    0    0    0  501 -0.00000000000E+00  0.00000000000E+00  0.36520141443E+03  0.36520141443E+03  0.00000000000E+00 0. -1.
          1   -1    0    0  502    0  0.00000000000E+00 -0.00000000000E+00 -0.15994181720E+03  0.15994181720E+03  0.00000000000E+00 0.  1.
          6    1    1    2  502    0 -0.15214186193E+03 -0.20447437522E+02  0.17880943503E+03  0.29234749513E+03  0.17300000000E+03 0. -1.
         -6    1    1    2    0  501  0.15214186193E+03  0.20447437522E+02  0.26450162196E+02  0.23279573650E+03  0.17300000000E+03 0.  1.
<mgrwt>
<rscale>  2 0.23128823E+03</rscale>
<asrwt>0</asrwt>
<pdfrwt beam="1">  1        1 0.24606434E-01 0.23128823E+03</pdfrwt>
<pdfrwt beam="2">  1       -1 0.56184833E-01 0.23128823E+03</pdfrwt>
<totfact> 0.64521412E+02</totfact>
</mgrwt>
</event>
<event>
 4    2  0.9452525E-001  0.2294002E+03  0.7546771E-02  0.1127063E+00
          2   -1    0    0  502    0  0.00000000000E+00  0.00000000000E+00  0.43234949340E+03  0.43234949340E+03  0.00000000000E+00 0.  1.
         -2   -1    0    0    0  501 -0.00000000000E+00 -0.00000000000E+00 -0.13473945555E+03  0.13473945555E+03  0.00000000000E+00 0. -1.
          6    1    1    2  502    0 -0.14975581049E+03 -0.16391117070E+02  0.23695312334E+03  0.32980487285E+03  0.17300000000E+03 0. -1.
         -6    1    1    2    0  501  0.14975581049E+03  0.16391117070E+02  0.60656914506E+02  0.23728407610E+03  0.17300000000E+03 0. -1.
<mgrwt>
<rscale>  2 0.22940024E+03</rscale>
<asrwt>0</asrwt>
<pdfrwt beam="1">  1        2 0.66515306E-01 0.22940024E+03</pdfrwt>
<pdfrwt beam="2">  1       -2 0.20729147E-01 0.22940024E+03</pdfrwt>
<totfact> 0.14432453E+03</totfact>
</mgrwt>
</event>
<event>
 4    2  0.9452525E-001  0.1741409E+03  0.7546771E-02  0.1173597E+00
          2   -1    0    0  502    0  0.00000000000E+00  0.00000000000E+00  0.92727641639E+03  0.92727641639E+03  0.00000000000E+00 0. -1.
         -2   -1    0    0    0  501 -0.00000000000E+00 -0.00000000000E+00 -0.33603047626E+02  0.33603047626E+02  0.00000000000E+00 0.  1.
          6    1    1    2  502    0  0.17316028156E+02  0.98086456628E+01  0.52544988584E+03  0.55355454735E+03  0.17300000000E+03 0. -1.
         -6    1    1    2    0  501 -0.17316028156E+02 -0.98086456628E+01  0.36822348292E+03  0.40732491667E+03  0.17300000000E+03 0.  1.
<mgrwt>
<rscale>  2 0.17414090E+03</rscale>
<asrwt>0</asrwt>
<pdfrwt beam="1">  1        2 0.14265789E+00 0.17414090E+03</pdfrwt>
<pdfrwt beam="2">  1       -2 0.51697003E-02 0.17414090E+03</pdfrwt>
<totfact> 0.53355987E+03</totfact>
</mgrwt>
</event>
<event>
 4    2  0.9452525E-001  0.2143662E+03  0.7546771E-02  0.1138154E+00
         -2   -1    0    0    0  501 -0.00000000000E+00  0.00000000000E+00  0.25670866301E+02  0.25670866301E+02  0.00000000000E+00 0.  1.
          2   -1    0    0  502    0  0.00000000000E+00 -0.00000000000E+00 -0.17994826783E+04  0.17994826783E+04  0.00000000000E+00 0. -1.
          6    1    1    2  502    0  0.70199468697E+02  0.10533708388E+03 -0.82093457013E+03  0.84846121601E+03  0.17300000000E+03 0.  1.
         -6    1    1    2    0  501 -0.70199468697E+02 -0.10533708388E+03 -0.95287724187E+03  0.97669232858E+03  0.17300000000E+03 0. -1.
<mgrwt>
<rscale>  2 0.21436620E+03</rscale>
<asrwt>0</asrwt>
<pdfrwt beam="1">  1        2 0.27684350E+00 0.21436620E+03</pdfrwt>
<pdfrwt beam="2">  1       -2 0.39493639E-02 0.21436620E+03</pdfrwt>
<totfact> 0.26556248E+03</totfact>
</mgrwt>
</event>
<event>
 4    2  0.9452525E-001  0.1989691E+03  0.7546771E-02  0.1150612E+00
          1   -1    0    0  502    0  0.00000000000E+00  0.00000000000E+00  0.86948982067E+03  0.86948982067E+03  0.00000000000E+00 0.  1.
         -1   -1    0    0    0  501 -0.00000000000E+00 -0.00000000000E+00 -0.46287526515E+02  0.46287526515E+02  0.00000000000E+00 0. -1.
          6    1    1    2  502    0 -0.41114345537E+02  0.89271032176E+02  0.47014096356E+03  0.51051075621E+03  0.17300000000E+03 0.  1.
         -6    1    1    2    0  501  0.41114345537E+02 -0.89271032176E+02  0.35306133059E+03  0.40526659097E+03  0.17300000000E+03 0.  1.
<mgrwt>
<rscale>  2 0.19896911E+03</rscale>
<asrwt>0</asrwt>
<pdfrwt beam="1">  1        1 0.13376765E+00 0.19896911E+03</pdfrwt>
<pdfrwt beam="2">  1       -1 0.71211586E-02 0.19896911E+03</pdfrwt>
<totfact> 0.20695831E+03</totfact>
</mgrwt>
</event>
<event>
 4    2  0.9452525E-001  0.1792729E+03  0.7546771E-02  0.1168509E+00
          2   -1    0    0  502    0  0.00000000000E+00  0.00000000000E+00  0.56553823716E+03  0.56553823716E+03  0.00000000000E+00 0.  1.
         -2   -1    0    0    0  501 -0.00000000000E+00 -0.00000000000E+00 -0.59739963481E+02  0.59739963481E+02  0.00000000000E+00 0. -1.
          6    1    1    2  502    0  0.37012011069E+02  0.28980594402E+02  0.32191623833E+03  0.36846821886E+03  0.17300000000E+03 0.  1.
         -6    1    1    2    0  501 -0.37012011069E+02 -0.28980594402E+02  0.18388203536E+03  0.25680998178E+03  0.17300000000E+03 0. -1.
<mgrwt>
<rscale>  2 0.17927288E+03</rscale>
<asrwt>0</asrwt>
<pdfrwt beam="1">  1        2 0.87005879E-01 0.17927288E+03</pdfrwt>
<pdfrwt beam="2">  1       -2 0.91907640E-02 0.17927288E+03</pdfrwt>
<totfact> 0.40280636E+03</totfact>
</mgrwt>
</event>
<event>
 4    2  0.9452525E-001  0.1783366E+03  0.7546771E-02  0.1169423E+00
         -1   -1    0    0    0  501 -0.00000000000E+00  0.00000000000E+00  0.34007324839E+03  0.34007324839E+03  0.00000000000E+00 0.  1.
          1   -1    0    0  502    0  0.00000000000E+00 -0.00000000000E+00 -0.93705382830E+02  0.93705382830E+02  0.00000000000E+00 0. -1.
          6    1    1    2  502    0  0.31656238396E+02 -0.29543679769E+02  0.13280820329E+03  0.22235549308E+03  0.17300000000E+03 0. -1.
         -6    1    1    2    0  501 -0.31656238396E+02  0.29543679769E+02  0.11355966227E+03  0.21142313813E+03  0.17300000000E+03 0.  1.
<mgrwt>
<rscale>  2 0.17833661E+03</rscale>
<asrwt>0</asrwt>
<pdfrwt beam="1">  1        1 0.14416213E-01 0.17833661E+03</pdfrwt>
<pdfrwt beam="2">  1       -1 0.52318961E-01 0.17833661E+03</pdfrwt>
<totfact> 0.14644740E+03</totfact>
</mgrwt>
</event>
<event>
 4    2  0.9452525E-001  0.2106891E+03  0.7546771E-02  0.1141021E+00
          2   -1    0    0  502    0  0.00000000000E+00  0.00000000000E+00  0.37056157114E+03  0.37056157114E+03  0.00000000000E+00 0.  1.
         -2   -1    0    0    0  501 -0.00000000000E+00 -0.00000000000E+00 -0.12128186052E+03  0.12128186052E+03  0.00000000000E+00 0. -1.
          6    1    1    2  502    0 -0.42604646812E+02 -0.11245320822E+03  0.15190711632E+03  0.25974150989E+03  0.17300000000E+03 0.  1.
         -6    1    1    2    0  501  0.42604646812E+02  0.11245320822E+03  0.97372594299E+02  0.23210192177E+03  0.17300000000E+03 0.  1.
<mgrwt>
<rscale>  2 0.21068906E+03</rscale>
<asrwt>0</asrwt>
<pdfrwt beam="1">  1        2 0.57009472E-01 0.21068906E+03</pdfrwt>
<pdfrwt beam="2">  1       -2 0.18658748E-01 0.21068906E+03</pdfrwt>
<totfact> 0.20385683E+03</totfact>
</mgrwt>
</event>
<event>
 4    2  0.9452525E-001  0.1816648E+03  0.7546771E-02  0.1166201E+00
          2   -1    0    0  502    0  0.00000000000E+00  0.00000000000E+00  0.11938928470E+04  0.11938928470E+04  0.00000000000E+00 0.  1.
         -2   -1    0    0    0  501 -0.00000000000E+00 -0.00000000000E+00 -0.28801728941E+02  0.28801728941E+02  0.00000000000E+00 0. -1.
          6    1    1    2  502    0  0.28195755474E+02  0.47729471679E+02  0.45989321329E+03  0.49447332661E+03  0.17300000000E+03 0. -1.
         -6    1    1    2    0  501 -0.28195755474E+02 -0.47729471679E+02  0.70519790473E+03  0.72822124930E+03  0.17300000000E+03 0.  1.
<mgrwt>
<rscale>  2 0.18166481E+03</rscale>
<asrwt>0</asrwt>
<pdfrwt beam="1">  1        2 0.18367578E+00 0.18166481E+03</pdfrwt>
<pdfrwt beam="2">  1       -2 0.44310362E-02 0.18166481E+03</pdfrwt>
<totfact> 0.46920444E+03</totfact>
</mgrwt>
</event>
<event>
 4    2  0.9452525E-001  0.2028118E+03  0.7546771E-02  0.1147388E+00
         -2   -1    0    0    0  501 -0.00000000000E+00  0.00000000000E+00  0.68189162128E+02  0.68189162128E+02  0.00000000000E+00 0.  1.
          2   -1    0    0  502    0  0.00000000000E+00 -0.00000000000E+00 -0.60398202536E+03  0.60398202536E+03  0.00000000000E+00 0. -1.
          6    1    1    2  502    0  0.90535983780E+02  0.54834733616E+02 -0.27988622370E+03  0.34564274994E+03  0.17300000000E+03 0. -1.
         -6    1    1    2    0  501 -0.90535983780E+02 -0.54834733616E+02 -0.25590663953E+03  0.32652843754E+03  0.17300000000E+03 0. -1.
<mgrwt>
<rscale>  2 0.20281177E+03</rscale>
<asrwt>0</asrwt>
<pdfrwt beam="1">  1        2 0.92920309E-01 0.20281177E+03</pdfrwt>
<pdfrwt beam="2">  1       -2 0.10490641E-01 0.20281177E+03</pdfrwt>
<totfact> 0.30431369E+03</totfact>
</mgrwt>
</event>
<event>
 4    2  0.9452525E-001  0.2909274E+03  0.7546771E-02  0.1089866E+00
         -1   -1    0    0    0  501 -0.00000000000E+00  0.00000000000E+00  0.11223752786E+03  0.11223752786E+03  0.00000000000E+00 0.  1.
          1   -1    0    0  502    0  0.00000000000E+00 -0.00000000000E+00 -0.92797755206E+03  0.92797755206E+03  0.00000000000E+00 0. -1.
          6    1    1    2  502    0 -0.23390110564E+03 -0.65340521005E-01 -0.63300427345E+03  0.69665855460E+03  0.17300000000E+03 0. -1.
         -6    1    1    2    0  501  0.23390110564E+03  0.65340521005E-01 -0.18273575075E+03  0.34355652532E+03  0.17300000000E+03 0.  1.
<mgrwt>
<rscale>  2 0.29092736E+03</rscale>
<asrwt>0</asrwt>
<pdfrwt beam="1">  1        1 0.14276577E+00 0.29092736E+03</pdfrwt>
<pdfrwt beam="2">  1       -1 0.17267312E-01 0.29092736E+03</pdfrwt>
<totfact> 0.46680120E+02</totfact>
</mgrwt>
</event>
<event>
 4    2  0.9452525E-001  0.2644071E+03  0.7546771E-02  0.1104524E+00
          2   -1    0    0  502    0  0.00000000000E+00  0.00000000000E+00  0.29455890370E+04  0.29455890370E+04  0.00000000000E+00 0.  1.
         -2   -1    0    0    0  501 -0.00000000000E+00 -0.00000000000E+00 -0.36556785391E+02  0.36556785391E+02  0.00000000000E+00 0. -1.
          6    1    1    2  502    0  0.17678642984E+03 -0.93427372149E+02  0.57142979639E+03  0.62963729864E+03  0.17300000000E+03 0. -1.
         -6    1    1    2    0  501 -0.17678642984E+03  0.93427372149E+02  0.23376024552E+04  0.23525085237E+04  0.17300000000E+03 0.  1.
<mgrwt>
<rscale>  2 0.26440710E+03</rscale>
<asrwt>0</asrwt>
<pdfrwt beam="1">  1        2 0.45316736E+00 0.26440710E+03</pdfrwt>
<pdfrwt beam="2">  1       -2 0.56241231E-02 0.26440710E+03</pdfrwt>
<totfact> 0.36764243E+02</totfact>
</mgrwt>
</event>
<event>
 4    2  0.9452525E-001  0.2892659E+03  0.7546771E-02  0.1090733E+00
         -1   -1    0    0    0  501 -0.00000000000E+00  0.00000000000E+00  0.16525737201E+03  0.16525737201E+03  0.00000000000E+00 0. -1.
          1   -1    0    0  502    0  0.00000000000E+00 -0.00000000000E+00 -0.51928742657E+03  0.51928742657E+03  0.00000000000E+00 0.  1.
          6    1    1    2  502    0 -0.19996143946E+03 -0.11730795250E+03 -0.23108182113E+03  0.37023444066E+03  0.17300000000E+03 0.  1.
         -6    1    1    2    0  501  0.19996143946E+03  0.11730795250E+03 -0.12294823343E+03  0.31431035792E+03  0.17300000000E+03 0. -1.
<mgrwt>
<rscale>  2 0.28926585E+03</rscale>
<asrwt>0</asrwt>
<pdfrwt beam="1">  1        1 0.79890372E-01 0.28926585E+03</pdfrwt>
<pdfrwt beam="2">  1       -1 0.25424212E-01 0.28926585E+03</pdfrwt>
<totfact> 0.58313434E+02</totfact>
</mgrwt>
</event>
<event>
 4    2  0.9452525E-001  0.3896224E+03  0.7546771E-02  0.1047433E+00
         -2   -1    0    0    0  501 -0.00000000000E+00  0.00000000000E+00  0.21124946131E+03  0.21124946131E+03  0.00000000000E+00 0. -1.
          2   -1    0    0  502    0  0.00000000000E+00 -0.00000000000E+00 -0.78996729588E+03  0.78996729588E+03  0.00000000000E+00 0.  1.
          6    1    1    2  502    0  0.20469897200E+03  0.28279847893E+03 -0.13890016563E+03  0.41364103379E+03  0.17300000000E+03 0. -1.
         -6    1    1    2    0  501 -0.20469897200E+03 -0.28279847893E+03 -0.43981766894E+03  0.58757572341E+03  0.17300000000E+03 0.  1.
<mgrwt>
<rscale>  2 0.38962244E+03</rscale>
<asrwt>0</asrwt>
<pdfrwt beam="1">  1        2 0.12153343E+00 0.38962244E+03</pdfrwt>
<pdfrwt beam="2">  1       -2 0.32499917E-01 0.38962244E+03</pdfrwt>
<totfact> 0.31739292E+02</totfact>
</mgrwt>
</event>
<event>
 4    2  0.9452525E-001  0.2463313E+03  0.7546771E-02  0.1115646E+00
         -2   -1    0    0    0  501 -0.00000000000E+00  0.00000000000E+00  0.19330283560E+02  0.19330283560E+02  0.00000000000E+00 0.  1.
          2   -1    0    0  502    0  0.00000000000E+00 -0.00000000000E+00 -0.33413912227E+04  0.33413912227E+04  0.00000000000E+00 0. -1.
          6    1    1    2  502    0  0.65928960982E+02 -0.16249145394E+03 -0.12475449621E+04  0.12716318387E+04  0.17300000000E+03 0.  1.
         -6    1    1    2    0  501 -0.65928960982E+02  0.16249145394E+03 -0.20745159770E+04  0.20890896676E+04  0.17300000000E+03 0.  1.
<mgrwt>
<rscale>  2 0.24633128E+03</rscale>
<asrwt>0</asrwt>
<pdfrwt beam="1">  1        2 0.51405985E+00 0.24633128E+03</pdfrwt>
<pdfrwt beam="2">  1       -2 0.29738917E-02 0.24633128E+03</pdfrwt>
<totfact> 0.55523601E+02</totfact>
</mgrwt>
</event>
<event>
 4    2  0.9452525E-001  0.2284444E+03  0.7546771E-02  0.1127740E+00
         -2   -1    0    0    0  501 -0.00000000000E+00  0.00000000000E+00  0.44532760623E+02  0.44532760623E+02  0.00000000000E+00 0. -1.
          2   -1    0    0  502    0  0.00000000000E+00 -0.00000000000E+00 -0.12541780345E+04  0.12541780345E+04  0.00000000000E+00 0.  1.
          6    1    1    2  502    0  0.14652725494E+03  0.28063969446E+02 -0.43847710464E+03  0.49441783353E+03  0.17300000000E+03 0. -1.
         -6    1    1    2    0  501 -0.14652725494E+03 -0.28063969446E+02 -0.77116816922E+03  0.80429296157E+03  0.17300000000E+03 0.  1.
<mgrwt>
<rscale>  2 0.22844435E+03</rscale>
<asrwt>0</asrwt>
<pdfrwt beam="1">  1        2 0.19295046E+00 0.22844435E+03</pdfrwt>
<pdfrwt beam="2">  1       -2 0.68511941E-02 0.22844435E+03</pdfrwt>
<totfact> 0.22415041E+03</totfact>
</mgrwt>
</event>
<event>
 4    2  0.9452525E-001  0.2436591E+03  0.7546771E-02  0.1117379E+00
          1   -1    0    0  502    0  0.00000000000E+00  0.00000000000E+00  0.75351478372E+03  0.75351478372E+03  0.00000000000E+00 0.  1.
         -1   -1    0    0    0  501 -0.00000000000E+00 -0.00000000000E+00 -0.79490326915E+02  0.79490326915E+02  0.00000000000E+00 0. -1.
          6    1    1    2  502    0  0.14907689041E+03 -0.84952090482E+02  0.37609344301E+03  0.44812504372E+03  0.17300000000E+03 0.  1.
         -6    1    1    2    0  501 -0.14907689041E+03  0.84952090482E+02  0.29793101380E+03  0.38488006692E+03  0.17300000000E+03 0. -1.
<mgrwt>
<rscale>  2 0.24365914E+03</rscale>
<asrwt>0</asrwt>
<pdfrwt beam="1">  1        1 0.11592535E+00 0.24365914E+03</pdfrwt>
<pdfrwt beam="2">  1       -1 0.12229282E-01 0.24365914E+03</pdfrwt>
<totfact> 0.11243683E+03</totfact>
</mgrwt>
</event>
<event>
 4    2  0.9452525E-001  0.1912350E+03  0.7546771E-02  0.1157352E+00
         -1   -1    0    0    0  501 -0.00000000000E+00  0.00000000000E+00  0.91822084184E+02  0.91822084184E+02  0.00000000000E+00 0.  1.
          1   -1    0    0  502    0  0.00000000000E+00 -0.00000000000E+00 -0.39947491008E+03  0.39947491008E+03  0.00000000000E+00 0. -1.
          6    1    1    2  502    0 -0.55332391852E+02 -0.59834242976E+02 -0.16726686776E+03  0.25406498238E+03  0.17300000000E+03 0.  1.
         -6    1    1    2    0  501  0.55332391852E+02  0.59834242976E+02 -0.14038595813E+03  0.23723201188E+03  0.17300000000E+03 0.  1.
<mgrwt>
<rscale>  2 0.19123496E+03</rscale>
<asrwt>0</asrwt>
<pdfrwt beam="1">  1        1 0.61457679E-01 0.19123496E+03</pdfrwt>
<pdfrwt beam="2">  1       -1 0.14126474E-01 0.19123496E+03</pdfrwt>
<totfact> 0.21236112E+03</totfact>
</mgrwt>
</event>
<event>
 4    2  0.9452525E-001  0.2244815E+03  0.7546771E-02  0.1130585E+00
         -2   -1    0    0    0  501 -0.00000000000E+00  0.00000000000E+00  0.65183902627E+02  0.65183902627E+02  0.00000000000E+00 0.  1.
          2   -1    0    0  502    0  0.00000000000E+00 -0.00000000000E+00 -0.11640059866E+04  0.11640059866E+04  0.00000000000E+00 0. -1.
          6    1    1    2  502    0  0.62806747622E+02 -0.12852333254E+03 -0.90558517028E+03  0.93299326642E+03  0.17300000000E+03 0. -1.
         -6    1    1    2    0  501 -0.62806747622E+02  0.12852333254E+03 -0.19323691372E+03  0.29619662283E+03  0.17300000000E+03 0.  1.
<mgrwt>
<rscale>  2 0.22448148E+03</rscale>
<asrwt>0</asrwt>
<pdfrwt beam="1">  1        2 0.17907785E+00 0.22448148E+03</pdfrwt>
<pdfrwt beam="2">  1       -2 0.10028292E-01 0.22448148E+03</pdfrwt>
<totfact> 0.13869406E+03</totfact>
</mgrwt>
</event>
<event>
 4    2  0.9452525E-001  0.2127536E+03  0.7546771E-02  0.1139404E+00
          2   -1    0    0  502    0  0.00000000000E+00  0.00000000000E+00  0.61052819699E+03  0.61052819699E+03  0.00000000000E+00 0.  1.
         -2   -1    0    0    0  501 -0.00000000000E+00 -0.00000000000E+00 -0.79695287878E+02  0.79695287878E+02  0.00000000000E+00 0. -1.
          6    1    1    2  502    0 -0.13237144431E+02  0.12312543347E+03  0.35653914685E+03  0.41519183228E+03  0.17300000000E+03 0.  1.
         -6    1    1    2    0  501  0.13237144431E+02 -0.12312543347E+03  0.17429376226E+03  0.27503165259E+03  0.17300000000E+03 0. -1.
<mgrwt>
<rscale>  2 0.21275360E+03</rscale>
<asrwt>0</asrwt>
<pdfrwt beam="1">  1        2 0.93927412E-01 0.21275360E+03</pdfrwt>
<pdfrwt beam="2">  1       -2 0.12260814E-01 0.21275360E+03</pdfrwt>
<totfact> 0.23430391E+03</totfact>
</mgrwt>
</event>
<event>
 4    2  0.9452525E-001  0.2139511E+03  0.7546771E-02  0.1138475E+00
         -1   -1    0    0    0  501 -0.00000000000E+00  0.00000000000E+00  0.25105714485E+02  0.25105714485E+02  0.00000000000E+00 0. -1.
          1   -1    0    0  502    0  0.00000000000E+00 -0.00000000000E+00 -0.22382241225E+04  0.22382241225E+04  0.00000000000E+00 0.  1.
          6    1    1    2  502    0 -0.16868030534E+02  0.12474592731E+03 -0.15938116215E+04  0.16081077581E+04  0.17300000000E+03 0.  1.
         -6    1    1    2    0  501  0.16868030534E+02 -0.12474592731E+03 -0.61930678652E+03  0.65522207889E+03  0.17300000000E+03 0. -1.
<mgrwt>
<rscale>  2 0.21395111E+03</rscale>
<asrwt>0</asrwt>
<pdfrwt beam="1">  1        1 0.34434219E+00 0.21395111E+03</pdfrwt>
<pdfrwt beam="2">  1       -1 0.38624174E-02 0.21395111E+03</pdfrwt>
<totfact> 0.61663784E+02</totfact>
</mgrwt>
</event>
<event>
 4    2  0.9452525E-001  0.1936928E+03  0.7546771E-02  0.1155172E+00
         -4   -1    0    0    0  501 -0.00000000000E+00  0.00000000000E+00  0.10811180921E+03  0.10811180921E+03  0.00000000000E+00 0. -1.
          4   -1    0    0  502    0  0.00000000000E+00 -0.00000000000E+00 -0.34836550080E+03  0.34836550080E+03  0.00000000000E+00 0.  1.
          6    1    1    2  502    0 -0.78707208058E+02 -0.37323915322E+02 -0.10593939675E+03  0.22077149961E+03  0.17300000000E+03 0.  1.
         -6    1    1    2    0  501  0.78707208058E+02  0.37323915322E+02 -0.13431429484E+03  0.23570581039E+03  0.17300000000E+03 0. -1.
<mgrwt>
<rscale>  2 0.19369280E+03</rscale>
<asrwt>0</asrwt>
<pdfrwt beam="1">  1        4 0.53594693E-01 0.19369280E+03</pdfrwt>
<pdfrwt beam="2">  1       -4 0.16632586E-01 0.19369280E+03</pdfrwt>
<totfact> 0.18679250E+02</totfact>
</mgrwt>
</event>
<event>
 4    2  0.9452525E-001  0.2191867E+03  0.7546771E-02  0.1134491E+00
          1   -1    0    0  502    0  0.00000000000E+00  0.00000000000E+00  0.11165269275E+04  0.11165269275E+04  0.00000000000E+00 0. -1.
         -1   -1    0    0    0  501 -0.00000000000E+00 -0.00000000000E+00 -0.56429683063E+02  0.56429683063E+02  0.00000000000E+00 0.  1.
          6    1    1    2  502    0 -0.13456917692E+03  0.22219429904E+01  0.24424676280E+03  0.32817568701E+03  0.17300000000E+03 0.  1.
         -6    1    1    2    0  501  0.13456917692E+03 -0.22219429904E+01  0.81585048162E+03  0.84478092353E+03  0.17300000000E+03 0. -1.
<mgrwt>
<rscale>  2 0.21918668E+03</rscale>
<asrwt>0</asrwt>
<pdfrwt beam="1">  1        1 0.17177336E+00 0.21918668E+03</pdfrwt>
<pdfrwt beam="2">  1       -1 0.86814905E-02 0.21918668E+03</pdfrwt>
<totfact> 0.99995551E+02</totfact>
</mgrwt>
</event>
<event>
 4    2  0.9452525E-001  0.2223893E+03  0.7546771E-02  0.1132114E+00
          4   -1    0    0  502    0  0.00000000000E+00  0.00000000000E+00  0.13128432943E+03  0.13128432943E+03  0.00000000000E+00 0. -1.
         -4   -1    0    0    0  501 -0.00000000000E+00 -0.00000000000E+00 -0.50076695755E+03  0.50076695755E+03  0.00000000000E+00 0.  1.
          6    1    1    2  502    0  0.11701293521E+03 -0.76393666411E+02 -0.27450608217E+02  0.22407711879E+03  0.17300000000E+03 0. -1.
         -6    1    1    2    0  501 -0.11701293521E+03  0.76393666411E+02 -0.34203201990E+03  0.40797416819E+03  0.17300000000E+03 0.  1.
<mgrwt>
<rscale>  2 0.22238934E+03</rscale>
<asrwt>0</asrwt>
<pdfrwt beam="1">  1        4 0.20197589E-01 0.22238934E+03</pdfrwt>
<pdfrwt beam="2">  1       -4 0.77041070E-01 0.22238934E+03</pdfrwt>
<totfact> 0.61617748E+01</totfact>
</mgrwt>
</event>
<event>
 4    2  0.9452525E-001  0.1730012E+03  0.7546771E-02  0.1174754E+00
          2   -1    0    0  502    0  0.00000000000E+00  0.00000000000E+00  0.11744618045E+04  0.11744618045E+04  0.00000000000E+00 0. -1.
         -2   -1    0    0    0  501 -0.00000000000E+00 -0.00000000000E+00 -0.48858988259E+02  0.48858988259E+02  0.00000000000E+00 0.  1.
          6    1    1    2  502    0 -0.36989624596E+00  0.53629417035E+00  0.13972553572E+03  0.22237951742E+03  0.17300000000E+03 0.  1.
         -6    1    1    2    0  501  0.36989624596E+00 -0.53629417035E+00  0.98587728051E+03  0.10009412753E+04  0.17300000000E+03 0. -1.
<mgrwt>
<rscale>  2 0.17300123E+03</rscale>
<asrwt>0</asrwt>
<pdfrwt beam="1">  1        2 0.18068641E+00 0.17300123E+03</pdfrwt>
<pdfrwt beam="2">  1       -2 0.75167683E-02 0.17300123E+03</pdfrwt>
<totfact> 0.21489213E+03</totfact>
</mgrwt>
</event>
<event>
 4    2  0.9452525E-001  0.1754269E+03  0.7546771E-02  0.1172304E+00
          1   -1    0    0  502    0  0.00000000000E+00  0.00000000000E+00  0.43853905931E+03  0.43853905931E+03  0.00000000000E+00 0.  1.
         -1   -1    0    0    0  501 -0.00000000000E+00 -0.00000000000E+00 -0.73700619280E+02  0.73700619280E+02  0.00000000000E+00 0. -1.
          6    1    1    2  502    0  0.21361777184E+02  0.19729624846E+02  0.23843502639E+03  0.29601663033E+03  0.17300000000E+03 0.  1.
         -6    1    1    2    0  501 -0.21361777184E+02 -0.19729624846E+02  0.12640341364E+03  0.21622304827E+03  0.17300000000E+03 0. -1.
<mgrwt>
<rscale>  2 0.17542686E+03</rscale>
<asrwt>0</asrwt>
<pdfrwt beam="1">  1        1 0.67467546E-01 0.17542686E+03</pdfrwt>
<pdfrwt beam="2">  1       -1 0.11338557E-01 0.17542686E+03</pdfrwt>
<totfact> 0.26484916E+03</totfact>
</mgrwt>
</event>
<event>
 4    2  0.9452525E-001  0.1919983E+03  0.7546771E-02  0.1156671E+00
          1   -1    0    0  502    0  0.00000000000E+00  0.00000000000E+00  0.14570865871E+03  0.14570865871E+03  0.00000000000E+00 0.  1.
         -1   -1    0    0    0  501 -0.00000000000E+00 -0.00000000000E+00 -0.97788255320E+03  0.97788255320E+03  0.00000000000E+00 0. -1.
          6    1    1    2  502    0  0.82126397837E+02  0.13770023149E+02  0.67607084390E+02  0.20355362099E+03  0.17300000000E+03 0.  1.
         -6    1    1    2    0  501 -0.82126397837E+02 -0.13770023149E+02 -0.89978097888E+03  0.92003759092E+03  0.17300000000E+03 0. -1.
<mgrwt>
<rscale>  2 0.19199833E+03</rscale>
<asrwt>0</asrwt>
<pdfrwt beam="1">  1        1 0.22416716E-01 0.19199833E+03</pdfrwt>
<pdfrwt beam="2">  1       -1 0.15044348E+00 0.19199833E+03</pdfrwt>
<totfact> 0.84339518E+01</totfact>
</mgrwt>
</event>
<event>
 4    2  0.9452525E-001  0.1796564E+03  0.7546771E-02  0.1168136E+00
         -1   -1    0    0    0  501 -0.00000000000E+00  0.00000000000E+00  0.71166435847E+03  0.71166435847E+03  0.00000000000E+00 0. -1.
          1   -1    0    0  502    0  0.00000000000E+00 -0.00000000000E+00 -0.45353484514E+02  0.45353484514E+02  0.00000000000E+00 0.  1.
          6    1    1    2  502    0 -0.46035248926E+02 -0.15105721790E+02  0.33278158650E+03  0.37817986631E+03  0.17300000000E+03 0. -1.
         -6    1    1    2    0  501  0.46035248926E+02  0.15105721790E+02  0.33352928746E+03  0.37883797667E+03  0.17300000000E+03 0.  1.
<mgrwt>
<rscale>  2 0.17965641E+03</rscale>
<asrwt>0</asrwt>
<pdfrwt beam="1">  1        1 0.69774597E-02 0.17965641E+03</pdfrwt>
<pdfrwt beam="2">  1       -1 0.10948682E+00 0.17965641E+03</pdfrwt>
<totfact> 0.85422636E+02</totfact>
</mgrwt>
</event>
<event>
 4    2  0.9452525E-001  0.1779238E+03  0.7546771E-02  0.1169828E+00
          1   -1    0    0  502    0  0.00000000000E+00  0.00000000000E+00  0.72592995483E+02  0.72592995483E+02  0.00000000000E+00 0. -1.
         -1   -1    0    0    0  501 -0.00000000000E+00 -0.00000000000E+00 -0.45307833952E+03  0.45307833952E+03  0.00000000000E+00 0.  1.
          6    1    1    2  502    0 -0.28534919906E+02 -0.30226508858E+02 -0.24114147963E+03  0.29967665356E+03  0.17300000000E+03 0.  1.
         -6    1    1    2    0  501  0.28534919906E+02  0.30226508858E+02 -0.13934386441E+03  0.22599468144E+03  0.17300000000E+03 0. -1.
<mgrwt>
<rscale>  2 0.17792381E+03</rscale>
<asrwt>0</asrwt>
<pdfrwt beam="1">  1        1 0.11168153E-01 0.17792381E+03</pdfrwt>
<pdfrwt beam="2">  1       -1 0.69704359E-01 0.17792381E+03</pdfrwt>
<totfact> 0.11830319E+03</totfact>
</mgrwt>
</event>
<event>
 4    2  0.9452525E-001  0.1739215E+03  0.7546771E-02  0.1173819E+00
          1   -1    0    0  502    0  0.00000000000E+00  0.00000000000E+00  0.10307035179E+04  0.10307035179E+04  0.00000000000E+00 0.  1.
         -1   -1    0    0    0  501 -0.00000000000E+00 -0.00000000000E+00 -0.31337687197E+02  0.31337687197E+02  0.00000000000E+00 0. -1.
          6    1    1    2  502    0 -0.16443556287E+02  0.70211562467E+01  0.36586550600E+03  0.40510030321E+03  0.17300000000E+03 0. -1.
         -6    1    1    2    0  501  0.16443556287E+02 -0.70211562467E+01  0.63350032473E+03  0.65694090192E+03  0.17300000000E+03 0.  1.
<mgrwt>
<rscale>  2 0.17392150E+03</rscale>
<asrwt>0</asrwt>
<pdfrwt beam="1">  1        1 0.15856975E+00 0.17392150E+03</pdfrwt>
<pdfrwt beam="2">  1       -1 0.48211834E-02 0.17392150E+03</pdfrwt>
<totfact> 0.27968640E+03</totfact>
</mgrwt>
</event>
<event>
 4    2  0.9452525E-001  0.1839802E+03  0.7546771E-02  0.1164006E+00
         -2   -1    0    0    0  501 -0.00000000000E+00  0.00000000000E+00  0.12233580799E+03  0.12233580799E+03  0.00000000000E+00 0.  1.
          2   -1    0    0  502    0  0.00000000000E+00 -0.00000000000E+00 -0.27669164647E+03  0.27669164647E+03  0.00000000000E+00 0. -1.
          6    1    1    2  502    0  0.55789735097E+02 -0.28411653771E+02 -0.78003449635E+02  0.19983306725E+03  0.17300000000E+03 0. -1.
         -6    1    1    2    0  501 -0.55789735097E+02  0.28411653771E+02 -0.76352388846E+02  0.19919438721E+03  0.17300000000E+03 0. -1.
<mgrwt>
<rscale>  2 0.18398021E+03</rscale>
<asrwt>0</asrwt>
<pdfrwt beam="1">  1        2 0.42567945E-01 0.18398021E+03</pdfrwt>
<pdfrwt beam="2">  1       -2 0.18820894E-01 0.18398021E+03</pdfrwt>
<totfact> 0.27370602E+03</totfact>
</mgrwt>
</event>
<event>
 4    2  0.9452525E-001  0.1988001E+03  0.7546771E-02  0.1150755E+00
         -1   -1    0    0    0  501 -0.00000000000E+00  0.00000000000E+00  0.22220854714E+02  0.22220854714E+02  0.00000000000E+00 0.  1.
          1   -1    0    0  502    0  0.00000000000E+00 -0.00000000000E+00 -0.20651289188E+04  0.20651289188E+04  0.00000000000E+00 0. -1.
          6    1    1    2  502    0  0.79400511848E+02  0.57341528028E+02 -0.14102248126E+04  0.14241683588E+04  0.17300000000E+03 0. -1.
         -6    1    1    2    0  501 -0.79400511848E+02 -0.57341528028E+02 -0.63268325147E+03  0.66318141471E+03  0.17300000000E+03 0. -1.
<mgrwt>
<rscale>  2 0.19880013E+03</rscale>
<asrwt>0</asrwt>
<pdfrwt beam="1">  1        1 0.31771223E+00 0.19880013E+03</pdfrwt>
<pdfrwt beam="2">  1       -1 0.34185921E-02 0.19880013E+03</pdfrwt>
<totfact> 0.95809392E+02</totfact>
</mgrwt>
</event>
<event>
 4    2  0.9452525E-001  0.2743447E+03  0.7546771E-02  0.1098818E+00
         -2   -1    0    0    0  501 -0.00000000000E+00  0.00000000000E+00  0.25505886920E+03  0.25505886920E+03  0.00000000000E+00 0. -1.
          2   -1    0    0  502    0  0.00000000000E+00 -0.00000000000E+00 -0.34728313411E+03  0.34728313411E+03  0.00000000000E+00 0.  1.
          6    1    1    2  502    0 -0.88677476215E+02 -0.19357774265E+03 -0.16286905399E+03  0.31904759204E+03  0.17300000000E+03 0.  1.
         -6    1    1    2    0  501  0.88677476215E+02  0.19357774265E+03  0.70644789085E+02  0.28329441128E+03  0.17300000000E+03 0.  1.
<mgrwt>
<rscale>  2 0.27434474E+03</rscale>
<asrwt>0</asrwt>
<pdfrwt beam="1">  1        2 0.53428174E-01 0.27434474E+03</pdfrwt>
<pdfrwt beam="2">  1       -2 0.39239826E-01 0.27434474E+03</pdfrwt>
<totfact> 0.57851568E+02</totfact>
</mgrwt>
</event>
<event>
 4    2  0.9452525E-001  0.1887707E+03  0.7546771E-02  0.1159575E+00
         -2   -1    0    0    0  501 -0.00000000000E+00  0.00000000000E+00  0.18023089683E+02  0.18023089683E+02  0.00000000000E+00 0. -1.
          2   -1    0    0  502    0  0.00000000000E+00 -0.00000000000E+00 -0.21544625111E+04  0.21544625111E+04  0.00000000000E+00 0.  1.
          6    1    1    2  502    0  0.50208773511E+02  0.56430955259E+02 -0.13798399405E+04  0.13926925846E+04  0.17300000000E+03 0.  1.
         -6    1    1    2    0  501 -0.50208773511E+02 -0.56430955259E+02 -0.75659948089E+03  0.77979301622E+03  0.17300000000E+03 0. -1.
<mgrwt>
<rscale>  2 0.18877069E+03</rscale>
<asrwt>0</asrwt>
<pdfrwt beam="1">  1        2 0.33145604E+00 0.18877069E+03</pdfrwt>
<pdfrwt beam="2">  1       -2 0.27727808E-02 0.18877069E+03</pdfrwt>
<totfact> 0.29406638E+03</totfact>
</mgrwt>
</event>
<event>
 4    2  0.9452525E-001  0.1908963E+03  0.7546771E-02  0.1157655E+00
          1   -1    0    0  502    0  0.00000000000E+00  0.00000000000E+00  0.99901708119E+03  0.99901708119E+03  0.00000000000E+00 0.  1.
         -1   -1    0    0    0  501 -0.00000000000E+00 -0.00000000000E+00 -0.38290839618E+02  0.38290839618E+02  0.00000000000E+00 0. -1.
          6    1    1    2  502    0 -0.63545211756E+02 -0.49743187283E+02  0.36748706475E+03  0.41411124276E+03  0.17300000000E+03 0. -1.
         -6    1    1    2    0  501  0.63545211756E+02  0.49743187283E+02  0.59323917682E+03  0.62319667805E+03  0.17300000000E+03 0.  1.
<mgrwt>
<rscale>  2 0.19089625E+03</rscale>
<asrwt>0</asrwt>
<pdfrwt beam="1">  1        1 0.15369492E+00 0.19089625E+03</pdfrwt>
<pdfrwt beam="2">  1       -1 0.58908992E-02 0.19089625E+03</pdfrwt>
<totfact> 0.21910335E+03</totfact>
</mgrwt>
</event>
<event>
 4    2  0.9452525E-001  0.1834640E+03  0.7546771E-02  0.1164492E+00
          2   -1    0    0  502    0  0.00000000000E+00  0.00000000000E+00  0.90734266381E+03  0.90734266381E+03  0.00000000000E+00 0. -1.
         -2   -1    0    0    0  501 -0.00000000000E+00 -0.00000000000E+00 -0.43034046213E+02  0.43034046213E+02  0.00000000000E+00 0.  1.
          6    1    1    2  502    0 -0.60804437584E+02  0.57338262822E+01  0.60866478409E+03  0.63571367437E+03  0.17300000000E+03 0.  1.
         -6    1    1    2    0  501  0.60804437584E+02 -0.57338262822E+01  0.25564383351E+03  0.31466303565E+03  0.17300000000E+03 0.  1.
<mgrwt>
<rscale>  2 0.18346405E+03</rscale>
<asrwt>0</asrwt>
<pdfrwt beam="1">  1        2 0.13959116E+00 0.18346405E+03</pdfrwt>
<pdfrwt beam="2">  1       -2 0.66206232E-02 0.18346405E+03</pdfrwt>
<totfact> 0.37732922E+03</totfact>
</mgrwt>
</event>
<event>
 4    2  0.9452525E-001  0.3443432E+03  0.7546771E-02  0.1064961E+00
         -2   -1    0    0    0  501 -0.00000000000E+00  0.00000000000E+00  0.52469906438E+02  0.52469906438E+02  0.00000000000E+00 0. -1.
          2   -1    0    0  502    0  0.00000000000E+00 -0.00000000000E+00 -0.23103034016E+04  0.23103034016E+04  0.00000000000E+00 0.  1.
          6    1    1    2  502    0 -0.19400711566E+03  0.22584168844E+03 -0.95427114220E+03  0.10144977289E+04  0.17300000000E+03 0. -1.
         -6    1    1    2    0  501  0.19400711566E+03 -0.22584168844E+03 -0.13035623530E+04  0.13482755791E+04  0.17300000000E+03 0.  1.
<mgrwt>
<rscale>  2 0.34434319E+03</rscale>
<asrwt>0</asrwt>
<pdfrwt beam="1">  1        2 0.35543118E+00 0.34434319E+03</pdfrwt>
<pdfrwt beam="2">  1       -2 0.80722959E-02 0.34434319E+03</pdfrwt>
<totfact> 0.46814307E+02</totfact>
</mgrwt>
</event>
<event>
 4    2  0.9452525E-001  0.2241585E+03  0.7546771E-02  0.1130820E+00
         -1   -1    0    0    0  501 -0.00000000000E+00  0.00000000000E+00  0.59923012348E+02  0.59923012348E+02  0.00000000000E+00 0.  1.
          1   -1    0    0  502    0  0.00000000000E+00 -0.00000000000E+00 -0.97683690974E+03  0.97683690974E+03  0.00000000000E+00 0. -1.
          6    1    1    2  502    0  0.69274033154E+02 -0.12457589888E+03 -0.26339871723E+03  0.34586981726E+03  0.17300000000E+03 0.  1.
         -6    1    1    2    0  501 -0.69274033154E+02  0.12457589888E+03 -0.65351518016E+03  0.69089010483E+03  0.17300000000E+03 0. -1.
<mgrwt>
<rscale>  2 0.22415853E+03</rscale>
<asrwt>0</asrwt>
<pdfrwt beam="1">  1        1 0.15028260E+00 0.22415853E+03</pdfrwt>
<pdfrwt beam="2">  1       -1 0.92189252E-02 0.22415853E+03</pdfrwt>
<totfact> 0.11537892E+03</totfact>
</mgrwt>
</event>
<event>
 4    2  0.9452525E-001  0.1966292E+03  0.7546771E-02  0.1152615E+00
         -2   -1    0    0    0  501 -0.00000000000E+00  0.00000000000E+00  0.63063554408E+02  0.63063554408E+02  0.00000000000E+00 0. -1.
          2   -1    0    0  502    0  0.00000000000E+00 -0.00000000000E+00 -0.62335326931E+03  0.62335326931E+03  0.00000000000E+00 0.  1.
          6    1    1    2  502    0  0.72081557278E+02  0.59483575116E+02 -0.23608624288E+03  0.30724544046E+03  0.17300000000E+03 0. -1.
         -6    1    1    2    0  501 -0.72081557278E+02 -0.59483575116E+02 -0.32420347202E+03  0.37917138326E+03  0.17300000000E+03 0.  1.
<mgrwt>
<rscale>  2 0.19662921E+03</rscale>
<asrwt>0</asrwt>
<pdfrwt beam="1">  1        2 0.95900501E-01 0.19662921E+03</pdfrwt>
<pdfrwt beam="2">  1       -2 0.97020855E-02 0.19662921E+03</pdfrwt>
<totfact> 0.33178288E+03</totfact>
</mgrwt>
</event>
<event>
 4    2  0.9452525E-001  0.1966768E+03  0.7546771E-02  0.1152573E+00
         -1   -1    0    0    0  501 -0.00000000000E+00  0.00000000000E+00  0.24877719616E+04  0.24877719616E+04  0.00000000000E+00 0.  1.
          1   -1    0    0  502    0  0.00000000000E+00 -0.00000000000E+00 -0.17598398520E+02  0.17598398520E+02  0.00000000000E+00 0. -1.
          6    1    1    2  502    0 -0.16634773388E+02  0.92065447085E+02  0.80757873057E+03  0.83118299327E+03  0.17300000000E+03 0. -1.
         -6    1    1    2    0  501  0.16634773388E+02 -0.92065447085E+02  0.16625948325E+04  0.16741873668E+04  0.17300000000E+03 0. -1.
<mgrwt>
<rscale>  2 0.19667680E+03</rscale>
<asrwt>0</asrwt>
<pdfrwt beam="1">  1        1 0.27074479E-02 0.19667680E+03</pdfrwt>
<pdfrwt beam="2">  1       -1 0.38273387E+00 0.19667680E+03</pdfrwt>
<totfact> 0.45740370E+01</totfact>
</mgrwt>
</event>
<event>
 4    2  0.9452525E-001  0.1752895E+03  0.7546771E-02  0.1172441E+00
         -2   -1    0    0    0  501 -0.00000000000E+00  0.00000000000E+00  0.16537054152E+02  0.16537054152E+02  0.00000000000E+00 0.  1.
          2   -1    0    0  502    0  0.00000000000E+00 -0.00000000000E+00 -0.18623304331E+04  0.18623304331E+04  0.00000000000E+00 0. -1.
          6    1    1    2  502    0  0.18881498369E+01 -0.28175400683E+02 -0.96801605286E+03  0.98375886116E+03  0.17300000000E+03 0. -1.
         -6    1    1    2    0  501 -0.18881498369E+01  0.28175400683E+02 -0.87777732608E+03  0.89510862608E+03  0.17300000000E+03 0.  1.
<mgrwt>
<rscale>  2 0.17528953E+03</rscale>
<asrwt>0</asrwt>
<pdfrwt beam="1">  1        2 0.28651232E+00 0.17528953E+03</pdfrwt>
<pdfrwt beam="2">  1       -2 0.25441627E-02 0.17528953E+03</pdfrwt>
<totfact> 0.47321830E+03</totfact>
</mgrwt>
</event>
<event>
 4    2  0.9452525E-001  0.1757716E+03  0.7546771E-02  0.1171959E+00
          2   -1    0    0  502    0  0.00000000000E+00  0.00000000000E+00  0.42756359877E+04  0.42756359877E+04  0.00000000000E+00 0.  1.
         -2   -1    0    0    0  501 -0.00000000000E+00 -0.00000000000E+00 -0.73539376892E+01  0.73539376892E+01  0.00000000000E+00 0. -1.
          6    1    1    2  502    0  0.52318437967E+01 -0.30647847867E+02  0.18516600308E+04  0.18599840140E+04  0.17300000000E+03 0. -1.
         -6    1    1    2    0  501 -0.52318437967E+01  0.30647847867E+02  0.24166220193E+04  0.24230059114E+04  0.17300000000E+03 0.  1.
<mgrwt>
<rscale>  2 0.17577162E+03</rscale>
<asrwt>0</asrwt>
<pdfrwt beam="1">  1        2 0.65778816E+00 0.17577162E+03</pdfrwt>
<pdfrwt beam="2">  1       -2 0.11313784E-02 0.17577162E+03</pdfrwt>
<totfact> 0.49618177E+02</totfact>
</mgrwt>
</event>
<event>
 4    2  0.9452525E-001  0.2135951E+03  0.7546771E-02  0.1138750E+00
         -1   -1    0    0    0  501 -0.00000000000E+00  0.00000000000E+00  0.67898261296E+03  0.67898261296E+03  0.00000000000E+00 0.  1.
          1   -1    0    0  502    0  0.00000000000E+00 -0.00000000000E+00 -0.98116000295E+02  0.98116000295E+02  0.00000000000E+00 0. -1.
          6    1    1    2  502    0 -0.10899235829E+03  0.61761858121E+02  0.72302395454E+02  0.22550054916E+03  0.17300000000E+03 0. -1.
         -6    1    1    2    0  501  0.10899235829E+03 -0.61761858121E+02  0.50856421721E+03  0.55159806409E+03  0.17300000000E+03 0.  1.
<mgrwt>
<rscale>  2 0.21359509E+03</rscale>
<asrwt>0</asrwt>
<pdfrwt beam="1">  1        1 0.15094770E-01 0.21359509E+03</pdfrwt>
<pdfrwt beam="2">  1       -1 0.10445886E+00 0.21359509E+03</pdfrwt>
<totfact> 0.33915487E+02</totfact>
</mgrwt>
</event>
<event>
 4    2  0.9452525E-001  0.1788811E+03  0.7546771E-02  0.1168890E+00
          2   -1    0    0  502    0  0.00000000000E+00  0.00000000000E+00  0.53084850433E+03  0.53084850433E+03  0.00000000000E+00 0. -1.
         -2   -1    0    0    0  501 -0.00000000000E+00 -0.00000000000E+00 -0.64589731578E+02  0.64589731578E+02  0.00000000000E+00 0.  1.
          6    1    1    2  502    0  0.29406605695E+02  0.34708633534E+02  0.31005224902E+03  0.35795367693E+03  0.17300000000E+03 0. -1.
         -6    1    1    2    0  501 -0.29406605695E+02 -0.34708633534E+02  0.15620652373E+03  0.23748455899E+03  0.17300000000E+03 0.  1.
<mgrwt>
<rscale>  2 0.17888107E+03</rscale>
<asrwt>0</asrwt>
<pdfrwt beam="1">  1        2 0.81668998E-01 0.17888107E+03</pdfrwt>
<pdfrwt beam="2">  1       -2 0.99368821E-02 0.17888107E+03</pdfrwt>
<totfact> 0.38250355E+03</totfact>
</mgrwt>
</event>
<event>
 4    2  0.9452525E-001  0.1744571E+03  0.7546771E-02  0.1173278E+00
          2   -1    0    0  502    0  0.00000000000E+00  0.00000000000E+00  0.47605033156E+03  0.47605033156E+03  0.00000000000E+00 0. -1.
         -2   -1    0    0    0  501 -0.00000000000E+00 -0.00000000000E+00 -0.64990269856E+02  0.64990269856E+02  0.00000000000E+00 0.  1.
          6    1    1    2  502    0 -0.15932422419E+02 -0.15888243223E+02  0.24003559279E+03  0.29673618614E+03  0.17300000000E+03 0. -1.
         -6    1    1    2    0  501  0.15932422419E+02  0.15888243223E+02  0.17102446891E+03  0.24430441527E+03  0.17300000000E+03 0.  1.
<mgrwt>
<rscale>  2 0.17445710E+03</rscale>
<asrwt>0</asrwt>
<pdfrwt beam="1">  1        2 0.73238510E-01 0.17445710E+03</pdfrwt>
<pdfrwt beam="2">  1       -2 0.99985034E-02 0.17445710E+03</pdfrwt>
<totfact> 0.42704166E+03</totfact>
</mgrwt>
</event>
<event>
 4    2  0.9452525E-001  0.1810574E+03  0.7546771E-02  0.1166784E+00
          2   -1    0    0  502    0  0.00000000000E+00  0.00000000000E+00  0.57423186460E+03  0.57423186460E+03  0.00000000000E+00 0.  1.
         -2   -1    0    0    0  501 -0.00000000000E+00 -0.00000000000E+00 -0.57529957014E+02  0.57529957014E+02  0.00000000000E+00 0. -1.
          6    1    1    2  502    0  0.53304566504E+02  0.33796852675E+01  0.23066731034E+03  0.29323916373E+03  0.17300000000E+03 0. -1.
         -6    1    1    2    0  501 -0.53304566504E+02 -0.33796852675E+01  0.28603459724E+03  0.33852265789E+03  0.17300000000E+03 0.  1.
<mgrwt>
<rscale>  2 0.18105745E+03</rscale>
<asrwt>0</asrwt>
<pdfrwt beam="1">  1        2 0.88343360E-01 0.18105745E+03</pdfrwt>
<pdfrwt beam="2">  1       -2 0.88507630E-02 0.18105745E+03</pdfrwt>
<totfact> 0.42016383E+03</totfact>
</mgrwt>
</event>
<event>
 4    2  0.9452525E-001  0.1823070E+03  0.7546771E-02  0.1165589E+00
          2   -1    0    0  502    0  0.00000000000E+00  0.00000000000E+00  0.90783685552E+03  0.90783685552E+03  0.00000000000E+00 0. -1.
         -2   -1    0    0    0  501 -0.00000000000E+00 -0.00000000000E+00 -0.49219313954E+02  0.49219313954E+02  0.00000000000E+00 0.  1.
          6    1    1    2  502    0  0.20488754988E+02 -0.53731453539E+02  0.67151556084E+03  0.69582253961E+03  0.17300000000E+03 0. -1.
         -6    1    1    2    0  501 -0.20488754988E+02  0.53731453539E+02  0.18710198073E+03  0.26123362987E+03  0.17300000000E+03 0.  1.
<mgrwt>
<rscale>  2 0.18230704E+03</rscale>
<asrwt>0</asrwt>
<pdfrwt beam="1">  1        2 0.13966720E+00 0.18230704E+03</pdfrwt>
<pdfrwt beam="2">  1       -2 0.75722028E-02 0.18230704E+03</pdfrwt>
<totfact> 0.30644419E+03</totfact>
</mgrwt>
</event>
<event>
 4    2  0.9452525E-001  0.1734063E+03  0.7546771E-02  0.1174341E+00
          1   -1    0    0  502    0  0.00000000000E+00  0.00000000000E+00  0.15295588686E+03  0.15295588686E+03  0.00000000000E+00 0. -1.
         -1   -1    0    0    0  501 -0.00000000000E+00 -0.00000000000E+00 -0.23231734411E+03  0.23231734411E+03  0.00000000000E+00 0.  1.
          6    1    1    2  502    0  0.79866867508E+00  0.11837026923E+02  0.35861921859E+02  0.17707577620E+03  0.17300000000E+03 0. -1.
         -6    1    1    2    0  501 -0.79866867508E+00 -0.11837026923E+02 -0.11522337911E+03  0.20819745477E+03  0.17300000000E+03 0.  1.
<mgrwt>
<rscale>  2 0.17340632E+03</rscale>
<asrwt>0</asrwt>
<pdfrwt beam="1">  1        1 0.23531675E-01 0.17340632E+03</pdfrwt>
<pdfrwt beam="2">  1       -1 0.35741130E-01 0.17340632E+03</pdfrwt>
<totfact> 0.15400626E+03</totfact>
</mgrwt>
</event>
<event>
 4    2  0.9452525E-001  0.2171733E+03  0.7546771E-02  0.1136008E+00
         -2   -1    0    0    0  501 -0.00000000000E+00  0.00000000000E+00  0.91870943047E+02  0.91870943047E+02  0.00000000000E+00 0. -1.
          2   -1    0    0  502    0  0.00000000000E+00 -0.00000000000E+00 -0.61348593586E+03  0.61348593586E+03  0.00000000000E+00 0.  1.
          6    1    1    2  502    0  0.45309302842E+02 -0.12321649430E+03 -0.11833942202E+03  0.24732257518E+03  0.17300000000E+03 0.  1.
         -6    1    1    2    0  501 -0.45309302842E+02  0.12321649430E+03 -0.40327557079E+03  0.45803430372E+03  0.17300000000E+03 0.  1.
<mgrwt>
<rscale>  2 0.21717329E+03</rscale>
<asrwt>0</asrwt>
<pdfrwt beam="1">  1        2 0.94382447E-01 0.21717329E+03</pdfrwt>
<pdfrwt beam="2">  1       -2 0.14133992E-01 0.21717329E+03</pdfrwt>
<totfact> 0.18490575E+03</totfact>
</mgrwt>
</event>
<event>
 4    2  0.9452525E-001  0.1934086E+03  0.7546771E-02  0.1155422E+00
          2   -1    0    0  502    0  0.00000000000E+00  0.00000000000E+00  0.57130899420E+03  0.57130899420E+03  0.00000000000E+00 0. -1.
         -2   -1    0    0    0  501 -0.00000000000E+00 -0.00000000000E+00 -0.65482429332E+02  0.65482429332E+02  0.00000000000E+00 0.  1.
          6    1    1    2  502    0  0.75655344169E+02 -0.41882859973E+02  0.24970612913E+03  0.31584815337E+03  0.17300000000E+03 0.  1.
         -6    1    1    2    0  501 -0.75655344169E+02  0.41882859973E+02  0.25612043574E+03  0.32094327016E+03  0.17300000000E+03 0. -1.
<mgrwt>
<rscale>  2 0.19340865E+03</rscale>
<asrwt>0</asrwt>
<pdfrwt beam="1">  1        2 0.87893688E-01 0.19340865E+03</pdfrwt>
<pdfrwt beam="2">  1       -2 0.10074220E-01 0.19340865E+03</pdfrwt>
<totfact> 0.34545587E+03</totfact>
</mgrwt>
</event>
<event>
 4    2  0.9452525E-001  0.1950278E+03  0.7546771E-02  0.1154003E+00
         -2   -1    0    0    0  501 -0.00000000000E+00  0.00000000000E+00  0.57492367358E+02  0.57492367358E+02  0.00000000000E+00 0. -1.
          2   -1    0    0  502    0  0.00000000000E+00 -0.00000000000E+00 -0.86982936953E+03  0.86982936953E+03  0.00000000000E+00 0.  1.
          6    1    1    2  502    0  0.59493028931E+02  0.67582789943E+02 -0.63303704636E+03  0.66239848736E+03  0.17300000000E+03 0.  1.
         -6    1    1    2    0  501 -0.59493028931E+02 -0.67582789943E+02 -0.17929995581E+03  0.26492324953E+03  0.17300000000E+03 0. -1.
<mgrwt>
<rscale>  2 0.19502783E+03</rscale>
<asrwt>0</asrwt>
<pdfrwt beam="1">  1        2 0.13381989E+00 0.19502783E+03</pdfrwt>
<pdfrwt beam="2">  1       -2 0.88449801E-02 0.19502783E+03</pdfrwt>
<totfact> 0.25482296E+03</totfact>
</mgrwt>
</event>
<event>
 4    2  0.9452525E-001  0.2206724E+03  0.7546771E-02  0.1133383E+00
         -2   -1    0    0    0  501 -0.00000000000E+00  0.00000000000E+00  0.99532366925E+02  0.99532366925E+02  0.00000000000E+00 0. -1.
          2   -1    0    0  502    0  0.00000000000E+00 -0.00000000000E+00 -0.52493091410E+03  0.52493091410E+03  0.00000000000E+00 0.  1.
          6    1    1    2  502    0  0.13685024112E+03  0.62703702108E+01 -0.29410181829E+03  0.36768489982E+03  0.17300000000E+03 0.  1.
         -6    1    1    2    0  501 -0.13685024112E+03 -0.62703702108E+01 -0.13129672888E+03  0.25677838120E+03  0.17300000000E+03 0. -1.
<mgrwt>
<rscale>  2 0.22067240E+03</rscale>
<asrwt>0</asrwt>
<pdfrwt beam="1">  1        2 0.80758601E-01 0.22067240E+03</pdfrwt>
<pdfrwt beam="2">  1       -2 0.15312672E-01 0.22067240E+03</pdfrwt>
<totfact> 0.19375268E+03</totfact>
</mgrwt>
</event>
<event>
 4    2  0.9452525E-001  0.2136783E+03  0.7546771E-02  0.1138686E+00
         -2   -1    0    0    0  501 -0.00000000000E+00  0.00000000000E+00  0.13142908016E+03  0.13142908016E+03  0.00000000000E+00 0.  1.
          2   -1    0    0  502    0  0.00000000000E+00 -0.00000000000E+00 -0.35538616818E+03  0.35538616818E+03  0.00000000000E+00 0. -1.
          6    1    1    2  502    0  0.11419001619E+03  0.51865817011E+02 -0.14846749272E+03  0.26019419511E+03  0.17300000000E+03 0. -1.
         -6    1    1    2    0  501 -0.11419001619E+03 -0.51865817011E+02 -0.75489595297E+02  0.22662105324E+03  0.17300000000E+03 0.  1.
<mgrwt>
<rscale>  2 0.21367832E+03</rscale>
<asrwt>0</asrwt>
<pdfrwt beam="1">  1        2 0.54674795E-01 0.21367832E+03</pdfrwt>
<pdfrwt beam="2">  1       -2 0.20219859E-01 0.21367832E+03</pdfrwt>
<totfact> 0.18607516E+03</totfact>
</mgrwt>
</event>
<event>
 4    2  0.9452525E-001  0.1993170E+03  0.7546771E-02  0.1150317E+00
          4   -1    0    0  502    0  0.00000000000E+00  0.00000000000E+00  0.35221308675E+03  0.35221308675E+03  0.00000000000E+00 0.  1.
         -4   -1    0    0    0  501 -0.00000000000E+00 -0.00000000000E+00 -0.14181803038E+03  0.14181803038E+03  0.00000000000E+00 0. -1.
          6    1    1    2  502    0  0.95922524450E+02 -0.24436256114E+02 -0.65513058980E+01  0.19942462465E+03  0.17300000000E+03 0. -1.
         -6    1    1    2    0  501 -0.95922524450E+02  0.24436256114E+02  0.21694636226E+03  0.29460649247E+03  0.17300000000E+03 0.  1.
<mgrwt>
<rscale>  2 0.19931699E+03</rscale>
<asrwt>0</asrwt>
<pdfrwt beam="1">  1        4 0.54186628E-01 0.19931699E+03</pdfrwt>
<pdfrwt beam="2">  1       -4 0.21818159E-01 0.19931699E+03</pdfrwt>
<totfact> 0.11237538E+02</totfact>
</mgrwt>
</event>
<event>
 4    2  0.9452525E-001  0.2135487E+03  0.7546771E-02  0.1138786E+00
          1   -1    0    0  502    0  0.00000000000E+00  0.00000000000E+00  0.37196757165E+03  0.37196757165E+03  0.00000000000E+00 0.  1.
         -1   -1    0    0    0  501 -0.00000000000E+00 -0.00000000000E+00 -0.13593567422E+03  0.13593567422E+03  0.00000000000E+00 0. -1.
          6    1    1    2  502    0 -0.11749124438E+03 -0.43242015705E+02  0.38473536690E+02  0.21698681401E+03  0.17300000000E+03 0. -1.
         -6    1    1    2    0  501  0.11749124438E+03  0.43242015705E+02  0.19755836074E+03  0.29091643186E+03  0.17300000000E+03 0.  1.
<mgrwt>
<rscale>  2 0.21354874E+03</rscale>
<asrwt>0</asrwt>
<pdfrwt beam="1">  1        1 0.57225780E-01 0.21354874E+03</pdfrwt>
<pdfrwt beam="2">  1       -1 0.20913181E-01 0.21354874E+03</pdfrwt>
<totfact> 0.12438389E+03</totfact>
</mgrwt>
</event>
<event>
 4    2  0.9452525E-001  0.1759417E+03  0.7546771E-02  0.1171790E+00
          1   -1    0    0  502    0  0.00000000000E+00  0.00000000000E+00  0.22829557916E+03  0.22829557916E+03  0.00000000000E+00 0.  1.
         -1   -1    0    0    0  501 -0.00000000000E+00 -0.00000000000E+00 -0.14493922672E+03  0.14493922672E+03  0.00000000000E+00 0. -1.
          6    1    1    2  502    0  0.30108560200E+02 -0.10952090227E+02 -0.57086766482E+01  0.17603426560E+03  0.17300000000E+03 0. -1.
         -6    1    1    2    0  501 -0.30108560200E+02  0.10952090227E+02  0.89065029090E+02  0.19720054027E+03  0.17300000000E+03 0.  1.
<mgrwt>
<rscale>  2 0.17594168E+03</rscale>
<asrwt>0</asrwt>
<pdfrwt beam="1">  1        1 0.35122397E-01 0.17594168E+03</pdfrwt>
<pdfrwt beam="2">  1       -1 0.22298343E-01 0.17594168E+03</pdfrwt>
<totfact> 0.20569278E+03</totfact>
</mgrwt>
</event>
<event>
 4    2  0.9452525E-001  0.2621574E+03  0.7546771E-02  0.1105854E+00
         -2   -1    0    0    0  501 -0.00000000000E+00  0.00000000000E+00  0.22263291233E+02  0.22263291233E+02  0.00000000000E+00 0.  1.
          2   -1    0    0  502    0  0.00000000000E+00 -0.00000000000E+00 -0.31047825510E+04  0.31047825510E+04  0.00000000000E+00 0. -1.
          6    1    1    2  502    0  0.19228639297E+03 -0.42701810057E+02 -0.16596287469E+04  0.16802065585E+04  0.17300000000E+03 0. -1.
         -6    1    1    2    0  501 -0.19228639297E+03  0.42701810057E+02 -0.14228905128E+04  0.14468392838E+04  0.17300000000E+03 0.  1.
<mgrwt>
<rscale>  2 0.26215740E+03</rscale>
<asrwt>0</asrwt>
<pdfrwt beam="1">  1        2 0.47765862E+00 0.26215740E+03</pdfrwt>
<pdfrwt beam="2">  1       -2 0.34251234E-02 0.26215740E+03</pdfrwt>
<totfact> 0.62735921E+02</totfact>
</mgrwt>
</event>
<event>
 4    2  0.9452525E-001  0.1746398E+03  0.7546771E-02  0.1173094E+00
         -2   -1    0    0    0  501 -0.00000000000E+00  0.00000000000E+00  0.12776876590E+03  0.12776876590E+03  0.00000000000E+00 0. -1.
          2   -1    0    0  502    0  0.00000000000E+00 -0.00000000000E+00 -0.92765999153E+03  0.92765999153E+03  0.00000000000E+00 0.  1.
          6    1    1    2  502    0 -0.22084961608E+02 -0.90734928509E+01  0.54832823924E+02  0.18304565655E+03  0.17300000000E+03 0. -1.
         -6    1    1    2    0  501  0.22084961608E+02  0.90734928509E+01 -0.85472404956E+03  0.87238310088E+03  0.17300000000E+03 0.  1.
<mgrwt>
<rscale>  2 0.17463984E+03</rscale>
<asrwt>0</asrwt>
<pdfrwt beam="1">  1        2 0.14271692E+00 0.17463984E+03</pdfrwt>
<pdfrwt beam="2">  1       -2 0.19656733E-01 0.17463984E+03</pdfrwt>
<totfact> 0.63821330E+02</totfact>
</mgrwt>
</event>
<event>
 4    2  0.9452525E-001  0.1889921E+03  0.7546771E-02  0.1159374E+00
          2   -1    0    0  502    0  0.00000000000E+00  0.00000000000E+00  0.17609804539E+04  0.17609804539E+04  0.00000000000E+00 0. -1.
         -2   -1    0    0    0  501 -0.00000000000E+00 -0.00000000000E+00 -0.21709306663E+02  0.21709306663E+02  0.00000000000E+00 0.  1.
          6    1    1    2  502    0 -0.76034735188E+02  0.27774983122E+01  0.64116685070E+03  0.66844066744E+03  0.17300000000E+03 0.  1.
         -6    1    1    2    0  501  0.76034735188E+02 -0.27774983122E+01  0.10981042966E+04  0.11142490931E+04  0.17300000000E+03 0.  1.
<mgrwt>
<rscale>  2 0.18899205E+03</rscale>
<asrwt>0</asrwt>
<pdfrwt beam="1">  1        2 0.27091996E+00 0.18899205E+03</pdfrwt>
<pdfrwt beam="2">  1       -2 0.33398947E-02 0.18899205E+03</pdfrwt>
<totfact> 0.35721992E+03</totfact>
</mgrwt>
</event>
<event>
 4    2  0.9452525E-001  0.1732676E+03  0.7546771E-02  0.1174482E+00
          3   -1    0    0  502    0  0.00000000000E+00  0.00000000000E+00  0.10773024529E+04  0.10773024529E+04  0.00000000000E+00 0.  1.
         -3   -1    0    0    0  501 -0.00000000000E+00 -0.00000000000E+00 -0.27926540497E+02  0.27926540497E+02  0.00000000000E+00 0. -1.
          6    1    1    2  502    0 -0.88862387150E+01  0.37022868629E+01  0.49926811813E+03  0.52847925782E+03  0.17300000000E+03 0. -1.
         -6    1    1    2    0  501  0.88862387150E+01 -0.37022868629E+01  0.55010779425E+03  0.57674973556E+03  0.17300000000E+03 0.  1.
<mgrwt>
<rscale>  2 0.17326763E+03</rscale>
<asrwt>0</asrwt>
<pdfrwt beam="1">  1        3 0.16573881E+00 0.17326763E+03</pdfrwt>
<pdfrwt beam="2">  1       -3 0.42963917E-02 0.17326763E+03</pdfrwt>
<totfact> 0.18628649E+02</totfact>
</mgrwt>
</event>
<event>
 4    2  0.9452525E-001  0.2676204E+03  0.7546771E-02  0.1102649E+00
          2   -1    0    0  502    0  0.00000000000E+00  0.00000000000E+00  0.10605822676E+04  0.10605822676E+04  0.00000000000E+00 0.  1.
         -2   -1    0    0    0  501 -0.00000000000E+00 -0.00000000000E+00 -0.74837515727E+02  0.74837515727E+02  0.00000000000E+00 0. -1.
          6    1    1    2  502    0 -0.16046349461E+03 -0.12626607166E+03  0.31546783514E+03  0.41369144174E+03  0.17300000000E+03 0. -1.
         -6    1    1    2    0  501  0.16046349461E+03  0.12626607166E+03  0.67027691674E+03  0.72172834160E+03  0.17300000000E+03 0.  1.
<mgrwt>
<rscale>  2 0.26762035E+03</rscale>
<asrwt>0</asrwt>
<pdfrwt beam="1">  1        2 0.16316649E+00 0.26762035E+03</pdfrwt>
<pdfrwt beam="2">  1       -2 0.11513465E-01 0.26762035E+03</pdfrwt>
<totfact> 0.12763895E+03</totfact>
</mgrwt>
</event>
<event>
 4    2  0.9452525E-001  0.2289726E+03  0.7546771E-02  0.1127365E+00
         -2   -1    0    0    0  501 -0.00000000000E+00  0.00000000000E+00  0.12366880823E+04  0.12366880823E+04  0.00000000000E+00 0. -1.
          2   -1    0    0  502    0  0.00000000000E+00 -0.00000000000E+00 -0.42749661469E+02  0.42749661469E+02  0.00000000000E+00 0.  1.
          6    1    1    2  502    0  0.13586009926E+03  0.63572833122E+02  0.53864019924E+03  0.58528773771E+03  0.17300000000E+03 0.  1.
         -6    1    1    2    0  501 -0.13586009926E+03 -0.63572833122E+02  0.65529822156E+03  0.69415000603E+03  0.17300000000E+03 0. -1.
<mgrwt>
<rscale>  2 0.22897264E+03</rscale>
<asrwt>0</asrwt>
<pdfrwt beam="1">  1        2 0.65768719E-02 0.22897264E+03</pdfrwt>
<pdfrwt beam="2">  1       -2 0.19025968E+00 0.22897264E+03</pdfrwt>
<totfact> 0.18229242E+02</totfact>
</mgrwt>
</event>
<event>
 4    2  0.9452525E-001  0.2098831E+03  0.7546771E-02  0.1141659E+00
          2   -1    0    0  502    0  0.00000000000E+00  0.00000000000E+00  0.10573283847E+04  0.10573283847E+04  0.00000000000E+00 0. -1.
         -2   -1    0    0    0  501 -0.00000000000E+00 -0.00000000000E+00 -0.42443689842E+02  0.42443689842E+02  0.00000000000E+00 0.  1.
          6    1    1    2  502    0  0.25748117833E+02  0.11601273139E+03  0.43284028452E+03  0.48104223445E+03  0.17300000000E+03 0.  1.
         -6    1    1    2    0  501 -0.25748117833E+02 -0.11601273139E+03  0.58204441029E+03  0.61872984005E+03  0.17300000000E+03 0. -1.
<mgrwt>
<rscale>  2 0.20988311E+03</rscale>
<asrwt>0</asrwt>
<pdfrwt beam="1">  1        2 0.16266589E+00 0.20988311E+03</pdfrwt>
<pdfrwt beam="2">  1       -2 0.65297992E-02 0.20988311E+03</pdfrwt>
<totfact> 0.31283271E+03</totfact>
</mgrwt>
</event>
<event>
 4    2  0.9452525E-001  0.1960895E+03  0.7546771E-02  0.1153081E+00
          1   -1    0    0  502    0  0.00000000000E+00  0.00000000000E+00  0.16471789480E+04  0.16471789480E+04  0.00000000000E+00 0. -1.
         -1   -1    0    0    0  501 -0.00000000000E+00 -0.00000000000E+00 -0.26479010399E+02  0.26479010399E+02  0.00000000000E+00 0.  1.
          6    1    1    2  502    0 -0.76565804579E+02  0.51572962558E+02  0.10983103661E+04  0.11156777103E+04  0.17300000000E+03 0. -1.
         -6    1    1    2    0  501  0.76565804579E+02 -0.51572962558E+02  0.52238957154E+03  0.55798024817E+03  0.17300000000E+03 0.  1.
<mgrwt>
<rscale>  2 0.19608950E+03</rscale>
<asrwt>0</asrwt>
<pdfrwt beam="1">  1        1 0.25341207E+00 0.19608950E+03</pdfrwt>
<pdfrwt beam="2">  1       -1 0.40736952E-02 0.19608950E+03</pdfrwt>
<totfact> 0.13748682E+03</totfact>
</mgrwt>
</event>
<event>
 4    2  0.9452525E-001  0.1848332E+03  0.7546771E-02  0.1163206E+00
          2   -1    0    0  502    0  0.00000000000E+00  0.00000000000E+00  0.15322496919E+04  0.15322496919E+04  0.00000000000E+00 0.  1.
         -2   -1    0    0    0  501 -0.00000000000E+00 -0.00000000000E+00 -0.22296617959E+02  0.22296617959E+02  0.00000000000E+00 0. -1.
          6    1    1    2  502    0 -0.61158059963E+02 -0.22226295900E+02  0.75841730291E+03  0.78061522012E+03  0.17300000000E+03 0.  1.
         -6    1    1    2    0  501  0.61158059963E+02  0.22226295900E+02  0.75153577105E+03  0.77393108976E+03  0.17300000000E+03 0. -1.
<mgrwt>
<rscale>  2 0.18483321E+03</rscale>
<asrwt>0</asrwt>
<pdfrwt beam="1">  1        2 0.23573064E+00 0.18483321E+03</pdfrwt>
<pdfrwt beam="2">  1       -2 0.34302501E-02 0.18483321E+03</pdfrwt>
<totfact> 0.45170016E+03</totfact>
</mgrwt>
</event>
<event>
 4    2  0.9452525E-001  0.1798256E+03  0.7546771E-02  0.1167972E+00
          1   -1    0    0  502    0  0.00000000000E+00  0.00000000000E+00  0.14915566507E+03  0.14915566507E+03  0.00000000000E+00 0. -1.
         -1   -1    0    0    0  501 -0.00000000000E+00 -0.00000000000E+00 -0.26657611752E+03  0.26657611752E+03  0.00000000000E+00 0.  1.
          6    1    1    2  502    0 -0.40076562660E+02 -0.28321408226E+02  0.31110133623E+02  0.18249677655E+03  0.17300000000E+03 0. -1.
         -6    1    1    2    0  501  0.40076562660E+02  0.28321408226E+02 -0.14853058608E+03  0.23323500604E+03  0.17300000000E+03 0.  1.
<mgrwt>
<rscale>  2 0.17982556E+03</rscale>
<asrwt>0</asrwt>
<pdfrwt beam="1">  1        1 0.22947025E-01 0.17982556E+03</pdfrwt>
<pdfrwt beam="2">  1       -1 0.41011711E-01 0.17982556E+03</pdfrwt>
<totfact> 0.12507435E+03</totfact>
</mgrwt>
</event>
<event>
 4    2  0.9452525E-001  0.2544545E+03  0.7546771E-02  0.1110522E+00
          2   -1    0    0  502    0  0.00000000000E+00  0.00000000000E+00  0.69306747214E+03  0.69306747214E+03  0.00000000000E+00 0.  1.
         -2   -1    0    0    0  501 -0.00000000000E+00 -0.00000000000E+00 -0.47187752668E+03  0.47187752668E+03  0.00000000000E+00 0. -1.
          6    1    1    2  502    0 -0.59713343138E+01 -0.18650054757E+03 -0.41104244060E+03  0.48342838048E+03  0.17300000000E+03 0. -1.
         -6    1    1    2    0  501  0.59713343138E+01  0.18650054757E+03  0.63223238606E+03  0.68151661833E+03  0.17300000000E+03 0.  1.
<mgrwt>
<rscale>  2 0.25445454E+03</rscale>
<asrwt>0</asrwt>
<pdfrwt beam="1">  1        2 0.10662576E+00 0.25445454E+03</pdfrwt>
<pdfrwt beam="2">  1       -2 0.72596543E-01 0.25445454E+03</pdfrwt>
<totfact> 0.76058159E+01</totfact>
</mgrwt>
</event>
<event>
 4    2  0.9452525E-001  0.2435763E+03  0.7546771E-02  0.1117433E+00
          2   -1    0    0  502    0  0.00000000000E+00  0.00000000000E+00  0.35723904795E+04  0.35723904795E+04  0.00000000000E+00 0. -1.
         -2   -1    0    0    0  501 -0.00000000000E+00 -0.00000000000E+00 -0.19625976272E+02  0.19625976272E+02  0.00000000000E+00 0.  1.
          6    1    1    2  502    0 -0.15529594706E+03 -0.72688246220E+02  0.24806984748E+04  0.24926279977E+04  0.17300000000E+03 0. -1.
         -6    1    1    2    0  501  0.15529594706E+03  0.72688246220E+02  0.10720660284E+04  0.10993884580E+04  0.17300000000E+03 0.  1.
<mgrwt>
<rscale>  2 0.24357630E+03</rscale>
<asrwt>0</asrwt>
<pdfrwt beam="1">  1        2 0.54959802E+00 0.24357630E+03</pdfrwt>
<pdfrwt beam="2">  1       -2 0.30193838E-02 0.24357630E+03</pdfrwt>
<totfact> 0.38378188E+02</totfact>
</mgrwt>
</event>
<event>
 4    2  0.9452525E-001  0.1872214E+03  0.7546771E-02  0.1160992E+00
          1   -1    0    0  502    0  0.00000000000E+00  0.00000000000E+00  0.31356534744E+03  0.31356534744E+03  0.00000000000E+00 0. -1.
         -1   -1    0    0    0  501 -0.00000000000E+00 -0.00000000000E+00 -0.11363412592E+03  0.11363412592E+03  0.00000000000E+00 0.  1.
          6    1    1    2  502    0  0.38865720536E+02  0.60102518204E+02  0.72716860789E+02  0.20084720255E+03  0.17300000000E+03 0. -1.
         -6    1    1    2    0  501 -0.38865720536E+02 -0.60102518204E+02  0.12721436074E+03  0.22635227082E+03  0.17300000000E+03 0. -1.
<mgrwt>
<rscale>  2 0.18722141E+03</rscale>
<asrwt>0</asrwt>
<pdfrwt beam="1">  1        1 0.48240822E-01 0.18722141E+03</pdfrwt>
<pdfrwt beam="2">  1       -1 0.17482173E-01 0.18722141E+03</pdfrwt>
<totfact> 0.20547959E+03</totfact>
</mgrwt>
</event>
<event>
 4    2  0.9452525E-001  0.2272886E+03  0.7546771E-02  0.1128563E+00
          1   -1    0    0  502    0  0.00000000000E+00  0.00000000000E+00  0.97595294872E+02  0.97595294872E+02  0.00000000000E+00 0.  1.
         -1   -1    0    0    0  501 -0.00000000000E+00 -0.00000000000E+00 -0.54660798163E+03  0.54660798163E+03  0.00000000000E+00 0. -1.
          6    1    1    2  502    0  0.14623669852E+03  0.18599134248E+02 -0.28177325015E+03  0.36201693922E+03  0.17300000000E+03 0. -1.
         -6    1    1    2    0  501 -0.14623669852E+03 -0.18599134248E+02 -0.16723943661E+03  0.28218633728E+03  0.17300000000E+03 0.  1.
<mgrwt>
<rscale>  2 0.22728858E+03</rscale>
<asrwt>0</asrwt>
<pdfrwt beam="1">  1        1 0.15014661E-01 0.22728858E+03</pdfrwt>
<pdfrwt beam="2">  1       -1 0.84093536E-01 0.22728858E+03</pdfrwt>
<totfact> 0.54742881E+02</totfact>
</mgrwt>
</event>
<event>
 4    2  0.9452525E-001  0.1957965E+03  0.7546771E-02  0.1153335E+00
         -1   -1    0    0    0  501 -0.00000000000E+00  0.00000000000E+00  0.56174919597E+02  0.56174919597E+02  0.00000000000E+00 0.  1.
          1   -1    0    0  502    0  0.00000000000E+00 -0.00000000000E+00 -0.87754969732E+03  0.87754969732E+03  0.00000000000E+00 0. -1.
          6    1    1    2  502    0  0.78550571701E+02  0.47297630622E+02 -0.19055319603E+03  0.27321562674E+03  0.17300000000E+03 0.  1.
         -6    1    1    2    0  501 -0.78550571701E+02 -0.47297630622E+02 -0.63082158169E+03  0.66050899018E+03  0.17300000000E+03 0. -1.
<mgrwt>
<rscale>  2 0.19579647E+03</rscale>
<asrwt>0</asrwt>
<pdfrwt beam="1">  1        1 0.13500765E+00 0.19579647E+03</pdfrwt>
<pdfrwt beam="2">  1       -1 0.86422952E-02 0.19579647E+03</pdfrwt>
<totfact> 0.15189176E+03</totfact>
</mgrwt>
</event>
<event>
 4    2  0.9452525E-001  0.2289634E+03  0.7546771E-02  0.1127372E+00
          1   -1    0    0  502    0  0.00000000000E+00  0.00000000000E+00  0.64804126772E+03  0.64804126772E+03  0.00000000000E+00 0. -1.
         -1   -1    0    0    0  501 -0.00000000000E+00 -0.00000000000E+00 -0.12452962385E+03  0.12452962385E+03  0.00000000000E+00 0.  1.
          6    1    1    2  502    0  0.95196452111E+02  0.11590022883E+03  0.49041070999E+03  0.54122720923E+03  0.17300000000E+03 0. -1.
         -6    1    1    2    0  501 -0.95196452111E+02 -0.11590022883E+03  0.33100933882E+02  0.23134368234E+03  0.17300000000E+03 0.  1.
<mgrwt>
<rscale>  2 0.22896338E+03</rscale>
<asrwt>0</asrwt>
<pdfrwt beam="1">  1        1 0.99698655E-01 0.22896338E+03</pdfrwt>
<pdfrwt beam="2">  1       -1 0.19158404E-01 0.22896338E+03</pdfrwt>
<totfact> 0.68589500E+02</totfact>
</mgrwt>
</event>
<event>
 4    2  0.9452525E-001  0.1741364E+03  0.7546771E-02  0.1173602E+00
         -2   -1    0    0    0  501 -0.00000000000E+00  0.00000000000E+00  0.41809882299E+02  0.41809882299E+02  0.00000000000E+00 0.  1.
          2   -1    0    0  502    0  0.00000000000E+00 -0.00000000000E+00 -0.97718864339E+03  0.97718864339E+03  0.00000000000E+00 0. -1.
          6    1    1    2  502    0  0.17743614453E+02 -0.89246079148E+01 -0.20899686330E+03  0.27203524285E+03  0.17300000000E+03 0.  1.
         -6    1    1    2    0  501 -0.17743614453E+02  0.89246079148E+01 -0.72638189778E+03  0.74696328284E+03  0.17300000000E+03 0. -1.
<mgrwt>
<rscale>  2 0.17413640E+03</rscale>
<asrwt>0</asrwt>
<pdfrwt beam="1">  1        2 0.15033673E+00 0.17413640E+03</pdfrwt>
<pdfrwt beam="2">  1       -2 0.64322891E-02 0.17413640E+03</pdfrwt>
<totfact> 0.35632227E+03</totfact>
</mgrwt>
</event>
<event>
 4    2  0.9452525E-001  0.1837302E+03  0.7546771E-02  0.1164241E+00
          2   -1    0    0  502    0  0.00000000000E+00  0.00000000000E+00  0.46275333490E+03  0.46275333490E+03  0.00000000000E+00 0. -1.
         -2   -1    0    0    0  501 -0.00000000000E+00 -0.00000000000E+00 -0.74404017125E+02  0.74404017125E+02  0.00000000000E+00 0.  1.
          6    1    1    2  502    0  0.20078938638E+02 -0.58520198172E+02  0.15659906524E+03  0.24141260241E+03  0.17300000000E+03 0.  1.
         -6    1    1    2    0  501 -0.20078938638E+02  0.58520198172E+02  0.23175025254E+03  0.29574474961E+03  0.17300000000E+03 0. -1.
<mgrwt>
<rscale>  2 0.18373018E+03</rscale>
<asrwt>0</asrwt>
<pdfrwt beam="1">  1        2 0.71192819E-01 0.18373018E+03</pdfrwt>
<pdfrwt beam="2">  1       -2 0.11446772E-01 0.18373018E+03</pdfrwt>
<totfact> 0.35600941E+03</totfact>
</mgrwt>
</event>
<event>
 4    2  0.9452525E-001  0.2008787E+03  0.7546771E-02  0.1149000E+00
          2   -1    0    0  502    0  0.00000000000E+00  0.00000000000E+00  0.94060959301E+03  0.94060959301E+03  0.00000000000E+00 0. -1.
         -2   -1    0    0    0  501 -0.00000000000E+00 -0.00000000000E+00 -0.86240335528E+02  0.86240335528E+02  0.00000000000E+00 0.  1.
          6    1    1    2  502    0  0.70602511574E+02  0.73746569930E+02  0.79115602936E+03  0.81625984466E+03  0.17300000000E+03 0. -1.
         -6    1    1    2    0  501 -0.70602511574E+02 -0.73746569930E+02  0.63213228123E+02  0.21059008388E+03  0.17300000000E+03 0.  1.
<mgrwt>
<rscale>  2 0.20087875E+03</rscale>
<asrwt>0</asrwt>
<pdfrwt beam="1">  1        2 0.14470916E+00 0.20087875E+03</pdfrwt>
<pdfrwt beam="2">  1       -2 0.13267745E-01 0.20087875E+03</pdfrwt>
<totfact> 0.12020493E+03</totfact>
</mgrwt>
</event>
<event>
 4    2  0.9452525E-001  0.4422895E+03  0.7546771E-02  0.1030047E+00
          1   -1    0    0  502    0  0.00000000000E+00  0.00000000000E+00  0.17537806484E+03  0.17537806484E+03  0.00000000000E+00 0.  1.
         -1   -1    0    0    0  501 -0.00000000000E+00 -0.00000000000E+00 -0.11441189977E+04  0.11441189977E+04  0.00000000000E+00 0. -1.
          6    1    1    2  502    0 -0.26312715541E+03 -0.31057218525E+03 -0.37987784047E+03  0.58303272279E+03  0.17300000000E+03 0.  1.
         -6    1    1    2    0  501  0.26312715541E+03  0.31057218525E+03 -0.58886309241E+03  0.73646433978E+03  0.17300000000E+03 0. -1.
<mgrwt>
<rscale>  2 0.44228948E+03</rscale>
<asrwt>0</asrwt>
<pdfrwt beam="1">  1        1 0.26981241E-01 0.44228948E+03</pdfrwt>
<pdfrwt beam="2">  1       -1 0.17601830E+00 0.44228948E+03</pdfrwt>
<totfact> 0.41418427E+01</totfact>
</mgrwt>
</event>
<event>
 4    2  0.9452525E-001  0.2884703E+03  0.7546771E-02  0.1091151E+00
         -2   -1    0    0    0  501 -0.00000000000E+00  0.00000000000E+00  0.20131670703E+04  0.20131670703E+04  0.00000000000E+00 0.  1.
          2   -1    0    0  502    0  0.00000000000E+00 -0.00000000000E+00 -0.41741311776E+02  0.41741311776E+02  0.00000000000E+00 0. -1.
          6    1    1    2  502    0  0.20741377547E+03  0.10131937898E+03  0.10870313637E+04  0.11246565148E+04  0.17300000000E+03 0.  1.
         -6    1    1    2    0  501 -0.20741377547E+03 -0.10131937898E+03  0.88439439483E+03  0.93025186719E+03  0.17300000000E+03 0.  1.
<mgrwt>
<rscale>  2 0.28847026E+03</rscale>
<asrwt>0</asrwt>
<pdfrwt beam="1">  1        2 0.64217418E-02 0.28847026E+03</pdfrwt>
<pdfrwt beam="2">  1       -2 0.30971793E+00 0.28847026E+03</pdfrwt>
<totfact> 0.36076265E+01</totfact>
</mgrwt>
</event>
<event>
 4    2  0.9452525E-001  0.1971536E+03  0.7546771E-02  0.1152163E+00
         -2   -1    0    0    0  501 -0.00000000000E+00  0.00000000000E+00  0.62663240261E+02  0.62663240261E+02  0.00000000000E+00 0. -1.
          2   -1    0    0  502    0  0.00000000000E+00 -0.00000000000E+00 -0.70123034858E+03  0.70123034858E+03  0.00000000000E+00 0.  1.
          6    1    1    2  502    0 -0.31156719908E+02  0.89273818933E+02 -0.18952154067E+03  0.27347389330E+03  0.17300000000E+03 0.  1.
         -6    1    1    2    0  501  0.31156719908E+02 -0.89273818933E+02 -0.44904556765E+03  0.49041969553E+03  0.17300000000E+03 0.  1.
<mgrwt>
<rscale>  2 0.19715364E+03</rscale>
<asrwt>0</asrwt>
<pdfrwt beam="1">  1        2 0.10788159E+00 0.19715364E+03</pdfrwt>
<pdfrwt beam="2">  1       -2 0.96404985E-02 0.19715364E+03</pdfrwt>
<totfact> 0.29152490E+03</totfact>
</mgrwt>
</event>
<event>
 4    2  0.9452525E-001  0.1832827E+03  0.7546771E-02  0.1164663E+00
          1   -1    0    0  502    0  0.00000000000E+00  0.00000000000E+00  0.10461350865E+04  0.10461350865E+04  0.00000000000E+00 0.  1.
         -1   -1    0    0    0  501 -0.00000000000E+00 -0.00000000000E+00 -0.37050126117E+02  0.37050126117E+02  0.00000000000E+00 0. -1.
          6    1    1    2  502    0 -0.27716343068E+02 -0.53808550292E+02  0.30680079423E+03  0.35737834727E+03  0.17300000000E+03 0. -1.
         -6    1    1    2    0  501  0.27716343068E+02  0.53808550292E+02  0.70228416620E+03  0.72580686539E+03  0.17300000000E+03 0. -1.
<mgrwt>
<rscale>  2 0.18328272E+03</rscale>
<asrwt>0</asrwt>
<pdfrwt beam="1">  1        1 0.16094384E+00 0.18328272E+03</pdfrwt>
<pdfrwt beam="2">  1       -1 0.57000202E-02 0.18328272E+03</pdfrwt>
<totfact> 0.21246495E+03</totfact>
</mgrwt>
</event>
<event>
 4    2  0.9452525E-001  0.4287533E+03  0.7546771E-02  0.1034255E+00
          2   -1    0    0  502    0  0.00000000000E+00  0.00000000000E+00  0.91659878678E+03  0.91659878678E+03  0.00000000000E+00 0. -1.
         -2   -1    0    0    0  501 -0.00000000000E+00 -0.00000000000E+00 -0.27912132673E+03  0.27912132673E+03  0.00000000000E+00 0.  1.
          6    1    1    2  502    0 -0.92697701056E+02  0.38119221002E+03  0.63592804867E+03  0.76696404599E+03  0.17300000000E+03 0. -1.
         -6    1    1    2    0  501  0.92697701056E+02 -0.38119221002E+03  0.15494113825E+01  0.42875606752E+03  0.17300000000E+03 0.  1.
<mgrwt>
<rscale>  2 0.42875327E+03</rscale>
<asrwt>0</asrwt>
<pdfrwt beam="1">  1        2 0.14101520E+00 0.42875327E+03</pdfrwt>
<pdfrwt beam="2">  1       -2 0.42941743E-01 0.42875327E+03</pdfrwt>
<totfact> 0.15245938E+02</totfact>
</mgrwt>
</event>
<event>
 4    2  0.9452525E-001  0.1783892E+03  0.7546771E-02  0.1169371E+00
          2   -1    0    0  502    0  0.00000000000E+00  0.00000000000E+00  0.18394736472E+03  0.18394736472E+03  0.00000000000E+00 0.  1.
         -2   -1    0    0    0  501 -0.00000000000E+00 -0.00000000000E+00 -0.18345103322E+03  0.18345103322E+03  0.00000000000E+00 0. -1.
          6    1    1    2  502    0  0.30589288520E+02  0.30951510376E+02 -0.43599719699E+02  0.18363996331E+03  0.17300000000E+03 0. -1.
         -6    1    1    2    0  501 -0.30589288520E+02 -0.30951510376E+02  0.44096051192E+02  0.18375843463E+03  0.17300000000E+03 0.  1.
<mgrwt>
<rscale>  2 0.17838918E+03</rscale>
<asrwt>0</asrwt>
<pdfrwt beam="1">  1        2 0.28299595E-01 0.17838918E+03</pdfrwt>
<pdfrwt beam="2">  1       -2 0.28223236E-01 0.17838918E+03</pdfrwt>
<totfact> 0.21029472E+03</totfact>
</mgrwt>
</event>
<event>
 4    2  0.9452525E-001  0.2581281E+03  0.7546771E-02  0.1108273E+00
          2   -1    0    0  502    0  0.00000000000E+00  0.00000000000E+00  0.75580280795E+03  0.75580280795E+03  0.00000000000E+00 0. -1.
         -2   -1    0    0    0  501 -0.00000000000E+00 -0.00000000000E+00 -0.88158038127E+02  0.88158038127E+02  0.00000000000E+00 0.  1.
          6    1    1    2  502    0 -0.54043227932E+01  0.19149904916E+03  0.33379788324E+03  0.42196104013E+03  0.17300000000E+03 0. -1.
         -6    1    1    2    0  501  0.54043227932E+01 -0.19149904916E+03  0.33384688659E+03  0.42199980595E+03  0.17300000000E+03 0.  1.
<mgrwt>
<rscale>  2 0.25812805E+03</rscale>
<asrwt>0</asrwt>
<pdfrwt beam="1">  1        2 0.11627735E+00 0.25812805E+03</pdfrwt>
<pdfrwt beam="2">  1       -2 0.13562776E-01 0.25812805E+03</pdfrwt>
<totfact> 0.15419840E+03</totfact>
</mgrwt>
</event>
<event>
 4    2  0.9452525E-001  0.2280880E+03  0.7546771E-02  0.1127993E+00
         -2   -1    0    0    0  501 -0.00000000000E+00  0.00000000000E+00  0.41512266475E+03  0.41512266475E+03  0.00000000000E+00 0. -1.
          2   -1    0    0  502    0  0.00000000000E+00 -0.00000000000E+00 -0.13708309115E+03  0.13708309115E+03  0.00000000000E+00 0.  1.
          6    1    1    2  502    0  0.27498169961E+02  0.14607870673E+03  0.58148048464E+02  0.23538337548E+03  0.17300000000E+03 0.  1.
         -6    1    1    2    0  501 -0.27498169961E+02 -0.14607870673E+03  0.21989152513E+03  0.31682238042E+03  0.17300000000E+03 0. -1.
<mgrwt>
<rscale>  2 0.22808800E+03</rscale>
<asrwt>0</asrwt>
<pdfrwt beam="1">  1        2 0.21089706E-01 0.22808800E+03</pdfrwt>
<pdfrwt beam="2">  1       -2 0.63865025E-01 0.22808800E+03</pdfrwt>
<totfact> 0.60573000E+02</totfact>
</mgrwt>
</event>
<event>
 4    2  0.9452525E-001  0.2503867E+03  0.7546771E-02  0.1113061E+00
         -2   -1    0    0    0  501 -0.00000000000E+00  0.00000000000E+00  0.15850948590E+03  0.15850948590E+03  0.00000000000E+00 0.  1.
          2   -1    0    0  502    0  0.00000000000E+00 -0.00000000000E+00 -0.42145404705E+03  0.42145404705E+03  0.00000000000E+00 0. -1.
          6    1    1    2  502    0  0.17387300192E+03 -0.50325816202E+02 -0.20340713175E+03  0.32259567545E+03  0.17300000000E+03 0. -1.
         -6    1    1    2    0  501 -0.17387300192E+03  0.50325816202E+02 -0.59537429400E+02  0.25736785750E+03  0.17300000000E+03 0.  1.
<mgrwt>
<rscale>  2 0.25038672E+03</rscale>
<asrwt>0</asrwt>
<pdfrwt beam="1">  1        2 0.64839084E-01 0.25038672E+03</pdfrwt>
<pdfrwt beam="2">  1       -2 0.24386075E-01 0.25038672E+03</pdfrwt>
<totfact> 0.11198454E+03</totfact>
</mgrwt>
</event>
<event>
 4    2  0.9452525E-001  0.3221343E+03  0.7546771E-02  0.1074671E+00
         -1   -1    0    0    0  501 -0.00000000000E+00  0.00000000000E+00  0.12893554449E+03  0.12893554449E+03  0.00000000000E+00 0.  1.
          1   -1    0    0  502    0  0.00000000000E+00 -0.00000000000E+00 -0.80849238220E+03  0.80849238220E+03  0.00000000000E+00 0. -1.
          6    1    1    2  502    0  0.19857177746E+03 -0.18550139318E+03 -0.37134755294E+03  0.49159894503E+03  0.17300000000E+03 0.  1.
         -6    1    1    2    0  501 -0.19857177746E+03  0.18550139318E+03 -0.30820928477E+03  0.44582898167E+03  0.17300000000E+03 0. -1.
<mgrwt>
<rscale>  2 0.32213432E+03</rscale>
<asrwt>0</asrwt>
<pdfrwt beam="1">  1        1 0.12438344E+00 0.32213432E+03</pdfrwt>
<pdfrwt beam="2">  1       -1 0.19836238E-01 0.32213432E+03</pdfrwt>
<totfact> 0.46403452E+02</totfact>
</mgrwt>
</event>
<event>
 4    2  0.9452525E-001  0.1766112E+03  0.7546771E-02  0.1171124E+00
         -2   -1    0    0    0  501 -0.00000000000E+00  0.00000000000E+00  0.96260598770E+02  0.96260598770E+02  0.00000000000E+00 0. -1.
          2   -1    0    0  502    0  0.00000000000E+00 -0.00000000000E+00 -0.10731563813E+04  0.10731563813E+04  0.00000000000E+00 0.  1.
          6    1    1    2  502    0 -0.25125670146E+02 -0.25124125717E+02 -0.97697069355E+03  0.99280574990E+03  0.17300000000E+03 0.  1.
         -6    1    1    2    0  501  0.25125670146E+02  0.25124125717E+02  0.74911061426E-01  0.17661123012E+03  0.17300000000E+03 0. -1.
<mgrwt>
<rscale>  2 0.17661121E+03</rscale>
<asrwt>0</asrwt>
<pdfrwt beam="1">  1        2 0.16510098E+00 0.17661121E+03</pdfrwt>
<pdfrwt beam="2">  1       -2 0.14809323E-01 0.17661121E+03</pdfrwt>
<totfact> 0.83581005E+02</totfact>
</mgrwt>
</event>
<event>
 4    2  0.9452525E-001  0.2762794E+03  0.7546771E-02  0.1097739E+00
         -2   -1    0    0    0  501 -0.00000000000E+00  0.00000000000E+00  0.26188587516E+03  0.26188587516E+03  0.00000000000E+00 0.  1.
          2   -1    0    0  502    0  0.00000000000E+00 -0.00000000000E+00 -0.33224161073E+03  0.33224161073E+03  0.00000000000E+00 0. -1.
          6    1    1    2  502    0  0.19461448107E+03  0.92339061824E+02  0.68894072045E+02  0.28473969120E+03  0.17300000000E+03 0.  1.
         -6    1    1    2    0  501 -0.19461448107E+03 -0.92339061824E+02 -0.13924980762E+03  0.30938779469E+03  0.17300000000E+03 0. -1.
<mgrwt>
<rscale>  2 0.27627939E+03</rscale>
<asrwt>0</asrwt>
<pdfrwt beam="1">  1        2 0.51114094E-01 0.27627939E+03</pdfrwt>
<pdfrwt beam="2">  1       -2 0.40290135E-01 0.27627939E+03</pdfrwt>
<totfact> 0.57704982E+02</totfact>
</mgrwt>
</event>
<event>
 4    2  0.9452525E-001  0.1978506E+03  0.7546771E-02  0.1151565E+00
         -1   -1    0    0    0  501 -0.00000000000E+00  0.00000000000E+00  0.50619454038E+02  0.50619454038E+02  0.00000000000E+00 0.  1.
          1   -1    0    0  502    0  0.00000000000E+00 -0.00000000000E+00 -0.88839880076E+03  0.88839880076E+03  0.00000000000E+00 0. -1.
          6    1    1    2  502    0  0.24902932165E+02  0.92713049085E+02 -0.58787308906E+03  0.62027383819E+03  0.17300000000E+03 0. -1.
         -6    1    1    2    0  501 -0.24902932165E+02 -0.92713049085E+02 -0.24990625766E+03  0.31874441661E+03  0.17300000000E+03 0.  1.
<mgrwt>
<rscale>  2 0.19785061E+03</rscale>
<asrwt>0</asrwt>
<pdfrwt beam="1">  1        1 0.13667674E+00 0.19785061E+03</pdfrwt>
<pdfrwt beam="2">  1       -1 0.77876084E-02 0.19785061E+03</pdfrwt>
<totfact> 0.17457167E+03</totfact>
</mgrwt>
</event>
<event>
 4    2  0.9452525E-001  0.2448993E+03  0.7546771E-02  0.1116571E+00
          1   -1    0    0  502    0  0.00000000000E+00  0.00000000000E+00  0.97327917408E+03  0.97327917408E+03  0.00000000000E+00 0.  1.
         -1   -1    0    0    0  501 -0.00000000000E+00 -0.00000000000E+00 -0.62669646111E+02  0.62669646111E+02  0.00000000000E+00 0. -1.
          6    1    1    2  502    0  0.16962438287E+03  0.35696318256E+02  0.52226761304E+03  0.57683543410E+03  0.17300000000E+03 0.  1.
         -6    1    1    2    0  501 -0.16962438287E+03 -0.35696318256E+02  0.38834191493E+03  0.45911338609E+03  0.17300000000E+03 0. -1.
<mgrwt>
<rscale>  2 0.24489928E+03</rscale>
<asrwt>0</asrwt>
<pdfrwt beam="1">  1        1 0.14973525E+00 0.24489928E+03</pdfrwt>
<pdfrwt beam="2">  1       -1 0.96414847E-02 0.24489928E+03</pdfrwt>
<totfact> 0.10829752E+03</totfact>
</mgrwt>
</event>
<event>
 4    2  0.9452525E-001  0.2008549E+03  0.7546771E-02  0.1149020E+00
          2   -1    0    0  502    0  0.00000000000E+00  0.00000000000E+00  0.53689441545E+03  0.53689441545E+03  0.00000000000E+00 0. -1.
         -2   -1    0    0    0  501 -0.00000000000E+00 -0.00000000000E+00 -0.91574985810E+02  0.91574985810E+02  0.00000000000E+00 0.  1.
          6    1    1    2  502    0 -0.68624828526E+02 -0.75527008951E+02  0.89540940743E+02  0.21990970020E+03  0.17300000000E+03 0.  1.
         -6    1    1    2    0  501  0.68624828526E+02  0.75527008951E+02  0.35577848889E+03  0.40855970106E+03  0.17300000000E+03 0. -1.
<mgrwt>
<rscale>  2 0.20085491E+03</rscale>
<asrwt>0</asrwt>
<pdfrwt beam="1">  1        2 0.82599139E-01 0.20085491E+03</pdfrwt>
<pdfrwt beam="2">  1       -2 0.14088460E-01 0.20085491E+03</pdfrwt>
<totfact> 0.21622568E+03</totfact>
</mgrwt>
</event>
<event>
 4    2  0.9452525E-001  0.4919559E+03  0.7546771E-02  0.1015900E+00
          1   -1    0    0  502    0  0.00000000000E+00  0.00000000000E+00  0.22066595832E+03  0.22066595832E+03  0.00000000000E+00 0. -1.
         -1   -1    0    0    0  501 -0.00000000000E+00 -0.00000000000E+00 -0.12062964894E+04  0.12062964894E+04  0.00000000000E+00 0.  1.
          6    1    1    2  502    0  0.57480252553E+01 -0.46049814160E+03 -0.27783027687E+03  0.56498693875E+03  0.17300000000E+03 0. -1.
         -6    1    1    2    0  501 -0.57480252553E+01  0.46049814160E+03 -0.70780025422E+03  0.86197550898E+03  0.17300000000E+03 0.  1.
<mgrwt>
<rscale>  2 0.49195587E+03</rscale>
<asrwt>0</asrwt>
<pdfrwt beam="1">  1        1 0.33948609E-01 0.49195587E+03</pdfrwt>
<pdfrwt beam="2">  1       -1 0.18558407E+00 0.49195587E+03</pdfrwt>
<totfact> 0.26209901E+01</totfact>
</mgrwt>
</event>
<event>
 4    2  0.9452525E-001  0.1821957E+03  0.7546771E-02  0.1165695E+00
         -1   -1    0    0    0  501 -0.00000000000E+00  0.00000000000E+00  0.80614851109E+02  0.80614851109E+02  0.00000000000E+00 0. -1.
          1   -1    0    0  502    0  0.00000000000E+00 -0.00000000000E+00 -0.41204398806E+03  0.41204398806E+03  0.00000000000E+00 0.  1.
          6    1    1    2  502    0  0.13050859974E+02 -0.55641107177E+02 -0.15943204469E+03  0.24210294221E+03  0.17300000000E+03 0. -1.
         -6    1    1    2    0  501 -0.13050859974E+02  0.55641107177E+02 -0.17199709227E+03  0.25055589696E+03  0.17300000000E+03 0. -1.
<mgrwt>
<rscale>  2 0.18219566E+03</rscale>
<asrwt>0</asrwt>
<pdfrwt beam="1">  1        1 0.63391383E-01 0.18219566E+03</pdfrwt>
<pdfrwt beam="2">  1       -1 0.12402285E-01 0.18219566E+03</pdfrwt>
<totfact> 0.24990290E+03</totfact>
</mgrwt>
</event>
<event>
 4    2  0.9452525E-001  0.2149622E+03  0.7546771E-02  0.1137696E+00
         -2   -1    0    0    0  501 -0.00000000000E+00  0.00000000000E+00  0.28643185897E+03  0.28643185897E+03  0.00000000000E+00 0.  1.
          2   -1    0    0  502    0  0.00000000000E+00 -0.00000000000E+00 -0.16302174029E+03  0.16302174029E+03  0.00000000000E+00 0. -1.
          6    1    1    2  502    0 -0.26234646458E+02  0.12486591484E+03  0.84628512404E+02  0.23102107799E+03  0.17300000000E+03 0.  1.
         -6    1    1    2    0  501  0.26234646458E+02 -0.12486591484E+03  0.38781606274E+02  0.21843252127E+03  0.17300000000E+03 0. -1.
<mgrwt>
<rscale>  2 0.21496221E+03</rscale>
<asrwt>0</asrwt>
<pdfrwt beam="1">  1        2 0.25080268E-01 0.21496221E+03</pdfrwt>
<pdfrwt beam="2">  1       -2 0.44066440E-01 0.21496221E+03</pdfrwt>
<totfact> 0.10532515E+03</totfact>
</mgrwt>
</event>
<event>
 4    2  0.9452525E-001  0.2808875E+03  0.7546771E-02  0.1095205E+00
         -1   -1    0    0    0  501 -0.00000000000E+00  0.00000000000E+00  0.47216890399E+02  0.47216890399E+02  0.00000000000E+00 0. -1.
          1   -1    0    0  502    0  0.00000000000E+00 -0.00000000000E+00 -0.18377911709E+04  0.18377911709E+04  0.00000000000E+00 0.  1.
          6    1    1    2  502    0 -0.35782144961E+02  0.21837683401E+03 -0.11792531358E+04  0.12122441016E+04  0.17300000000E+03 0.  1.
         -6    1    1    2    0  501  0.35782144961E+02 -0.21837683401E+03 -0.61132114467E+03  0.67276395968E+03  0.17300000000E+03 0. -1.
<mgrwt>
<rscale>  2 0.28088753E+03</rscale>
<asrwt>0</asrwt>
<pdfrwt beam="1">  1        1 0.28273706E+00 0.28088753E+03</pdfrwt>
<pdfrwt beam="2">  1       -1 0.72641381E-02 0.28088753E+03</pdfrwt>
<totfact> 0.42897472E+02</totfact>
</mgrwt>
</event>
<event>
 4    2  0.9452525E-001  0.1740619E+03  0.7546771E-02  0.1173677E+00
         -2   -1    0    0    0  501 -0.00000000000E+00  0.00000000000E+00  0.35467502146E+03  0.35467502146E+03  0.00000000000E+00 0. -1.
          2   -1    0    0  502    0  0.00000000000E+00 -0.00000000000E+00 -0.86271531097E+02  0.86271531097E+02  0.00000000000E+00 0.  1.
          6    1    1    2  502    0 -0.19184730301E+02 -0.69060477928E+00  0.11234100689E+03  0.20716667840E+03  0.17300000000E+03 0.  1.
         -6    1    1    2    0  501  0.19184730301E+02  0.69060477928E+00  0.15606248347E+03  0.23377987415E+03  0.17300000000E+03 0.  1.
<mgrwt>
<rscale>  2 0.17406186E+03</rscale>
<asrwt>0</asrwt>
<pdfrwt beam="1">  1        2 0.13272543E-01 0.17406186E+03</pdfrwt>
<pdfrwt beam="2">  1       -2 0.54565387E-01 0.17406186E+03</pdfrwt>
<totfact> 0.14292269E+03</totfact>
</mgrwt>
</event>
<event>
 4    2  0.9452525E-001  0.2550916E+03  0.7546771E-02  0.1110129E+00
         -1   -1    0    0    0  501 -0.00000000000E+00  0.00000000000E+00  0.10320338234E+03  0.10320338234E+03  0.00000000000E+00 0. -1.
          1   -1    0    0  502    0  0.00000000000E+00 -0.00000000000E+00 -0.63054705627E+03  0.63054705627E+03  0.00000000000E+00 0.  1.
          6    1    1    2  502    0  0.63285959920E+02 -0.17645849806E+03 -0.26611024586E+03  0.36862769458E+03  0.17300000000E+03 0. -1.
         -6    1    1    2    0  501 -0.63285959920E+02  0.17645849806E+03 -0.26123342807E+03  0.36512274402E+03  0.17300000000E+03 0.  1.
<mgrwt>
<rscale>  2 0.25509158E+03</rscale>
<asrwt>0</asrwt>
<pdfrwt beam="1">  1        1 0.97007241E-01 0.25509158E+03</pdfrwt>
<pdfrwt beam="2">  1       -1 0.15877443E-01 0.25509158E+03</pdfrwt>
<totfact> 0.96395126E+02</totfact>
</mgrwt>
</event>
<event>
 4    2  0.9452525E-001  0.1799653E+03  0.7546771E-02  0.1167837E+00
         -1   -1    0    0    0  501 -0.00000000000E+00  0.00000000000E+00  0.17550552113E+03  0.17550552113E+03  0.00000000000E+00 0.  1.
          1   -1    0    0  502    0  0.00000000000E+00 -0.00000000000E+00 -0.18471184247E+03  0.18471184247E+03  0.00000000000E+00 0. -1.
          6    1    1    2  502    0 -0.49115301682E+02 -0.67981060395E+01 -0.10120492583E+02  0.18024969203E+03  0.17300000000E+03 0.  1.
         -6    1    1    2    0  501  0.49115301682E+02  0.67981060395E+01  0.91417124061E+00  0.17996767158E+03  0.17300000000E+03 0. -1.
<mgrwt>
<rscale>  2 0.17996535E+03</rscale>
<asrwt>0</asrwt>
<pdfrwt beam="1">  1        1 0.28417207E-01 0.17996535E+03</pdfrwt>
<pdfrwt beam="2">  1       -1 0.27000849E-01 0.17996535E+03</pdfrwt>
<totfact> 0.19567565E+03</totfact>
</mgrwt>
</event>
<event>
 4    2  0.9452525E-001  0.2062964E+03  0.7546771E-02  0.1144533E+00
          2   -1    0    0  502    0  0.00000000000E+00  0.00000000000E+00  0.20878868154E+04  0.20878868154E+04  0.00000000000E+00 0.  1.
         -2   -1    0    0    0  501 -0.00000000000E+00 -0.00000000000E+00 -0.25702046702E+02  0.25702046702E+02  0.00000000000E+00 0. -1.
          6    1    1    2  502    0 -0.81425674808E+02 -0.77453635759E+02  0.15118295955E+04  0.15258397465E+04  0.17300000000E+03 0.  1.
         -6    1    1    2    0  501  0.81425674808E+02  0.77453635759E+02  0.55035517321E+03  0.58774911560E+03  0.17300000000E+03 0. -1.
<mgrwt>
<rscale>  2 0.20629640E+03</rscale>
<asrwt>0</asrwt>
<pdfrwt beam="1">  1        2 0.32121322E+00 0.20629640E+03</pdfrwt>
<pdfrwt beam="2">  1       -2 0.39541627E-02 0.20629640E+03</pdfrwt>
<totfact> 0.18763433E+03</totfact>
</mgrwt>
</event>
<event>
 4    2  0.9452525E-001  0.1785994E+03  0.7546771E-02  0.1169165E+00
         -1   -1    0    0    0  501 -0.00000000000E+00  0.00000000000E+00  0.26320713790E+02  0.26320713790E+02  0.00000000000E+00 0.  1.
          1   -1    0    0  502    0  0.00000000000E+00 -0.00000000000E+00 -0.12358397868E+04  0.12358397868E+04  0.00000000000E+00 0. -1.
          6    1    1    2  502    0  0.34859024059E+02 -0.27451485626E+02 -0.69261724904E+03  0.71527364644E+03  0.17300000000E+03 0. -1.
         -6    1    1    2    0  501 -0.34859024059E+02  0.27451485626E+02 -0.51690182399E+03  0.54688685417E+03  0.17300000000E+03 0.  1.
<mgrwt>
<rscale>  2 0.17859937E+03</rscale>
<asrwt>0</asrwt>
<pdfrwt beam="1">  1        1 0.19012918E+00 0.17859937E+03</pdfrwt>
<pdfrwt beam="2">  1       -1 0.40493410E-02 0.17859937E+03</pdfrwt>
<totfact> 0.25976740E+03</totfact>
</mgrwt>
</event>
<event>
 4    2  0.9452525E-001  0.1954221E+03  0.7546771E-02  0.1153660E+00
         -2   -1    0    0    0  501 -0.00000000000E+00  0.00000000000E+00  0.81739959798E+02  0.81739959798E+02  0.00000000000E+00 0.  1.
          2   -1    0    0  502    0  0.00000000000E+00 -0.00000000000E+00 -0.53794743471E+03  0.53794743471E+03  0.00000000000E+00 0. -1.
          6    1    1    2  502    0  0.65413722920E+02  0.63101795599E+02 -0.34045939680E+03  0.39255877601E+03  0.17300000000E+03 0. -1.
         -6    1    1    2    0  501 -0.65413722920E+02 -0.63101795599E+02 -0.11574807811E+03  0.22712861850E+03  0.17300000000E+03 0.  1.
<mgrwt>
<rscale>  2 0.19542209E+03</rscale>
<asrwt>0</asrwt>
<pdfrwt beam="1">  1        2 0.82761145E-01 0.19542209E+03</pdfrwt>
<pdfrwt beam="2">  1       -2 0.12575378E-01 0.19542209E+03</pdfrwt>
<totfact> 0.25939333E+03</totfact>
</mgrwt>
</event>
<event>
 4    2  0.9452525E-001  0.2261963E+03  0.7546771E-02  0.1129346E+00
         -2   -1    0    0    0  501 -0.00000000000E+00  0.00000000000E+00  0.36082119019E+02  0.36082119019E+02  0.00000000000E+00 0. -1.
          2   -1    0    0  502    0  0.00000000000E+00 -0.00000000000E+00 -0.24981379971E+04  0.24981379971E+04  0.00000000000E+00 0.  1.
          6    1    1    2  502    0 -0.10004169593E+03 -0.10595964121E+03 -0.39783833258E+03  0.45764628847E+03  0.17300000000E+03 0. -1.
         -6    1    1    2    0  501  0.10004169593E+03  0.10595964121E+03 -0.20642175455E+04  0.20765738276E+04  0.17300000000E+03 0.  1.
<mgrwt>
<rscale>  2 0.22619634E+03</rscale>
<asrwt>0</asrwt>
<pdfrwt beam="1">  1        2 0.38432895E+00 0.22619634E+03</pdfrwt>
<pdfrwt beam="2">  1       -2 0.55510949E-02 0.22619634E+03</pdfrwt>
<totfact> 0.67690421E+02</totfact>
</mgrwt>
</event>
<event>
 4    2  0.9452525E-001  0.1819574E+03  0.7546771E-02  0.1165922E+00
         -1   -1    0    0    0  501 -0.00000000000E+00  0.00000000000E+00  0.79476269248E+02  0.79476269248E+02  0.00000000000E+00 0.  1.
          1   -1    0    0  502    0  0.00000000000E+00 -0.00000000000E+00 -0.83019025695E+03  0.83019025695E+03  0.00000000000E+00 0. -1.
          6    1    1    2  502    0 -0.37576792129E+02 -0.42041233813E+02 -0.54318315813E+02  0.18989196950E+03  0.17300000000E+03 0.  1.
         -6    1    1    2    0  501  0.37576792129E+02  0.42041233813E+02 -0.69639567188E+03  0.71977455670E+03  0.17300000000E+03 0. -1.
<mgrwt>
<rscale>  2 0.18195736E+03</rscale>
<asrwt>0</asrwt>
<pdfrwt beam="1">  1        1 0.12772158E+00 0.18195736E+03</pdfrwt>
<pdfrwt beam="2">  1       -1 0.12227118E-01 0.18195736E+03</pdfrwt>
<totfact> 0.97054054E+02</totfact>
</mgrwt>
</event>
<event>
 4    2  0.9452525E-001  0.1954055E+03  0.7546771E-02  0.1153674E+00
          4   -1    0    0  502    0  0.00000000000E+00  0.00000000000E+00  0.17270464124E+04  0.17270464124E+04  0.00000000000E+00 0.  1.
         -4   -1    0    0    0  501 -0.00000000000E+00 -0.00000000000E+00 -0.66929027259E+02  0.66929027259E+02  0.00000000000E+00 0. -1.
          6    1    1    2  502    0  0.90850960050E+02  0.65565645632E+00  0.96026449421E+02  0.21772552863E+03  0.17300000000E+03 0. -1.
         -6    1    1    2    0  501 -0.90850960050E+02 -0.65565645632E+00  0.15640909357E+04  0.15762499110E+04  0.17300000000E+03 0.  1.
<mgrwt>
<rscale>  2 0.19540554E+03</rscale>
<asrwt>0</asrwt>
<pdfrwt beam="1">  1        4 0.26569941E+00 0.19540554E+03</pdfrwt>
<pdfrwt beam="2">  1       -4 0.10296775E-01 0.19540554E+03</pdfrwt>
<totfact> 0.75126606E+00</totfact>
</mgrwt>
</event>
<event>
 4    2  0.9452525E-001  0.2023157E+03  0.7546771E-02  0.1147800E+00
          1   -1    0    0  502    0  0.00000000000E+00  0.00000000000E+00  0.16784838853E+03  0.16784838853E+03  0.00000000000E+00 0. -1.
         -1   -1    0    0    0  501 -0.00000000000E+00 -0.00000000000E+00 -0.24403187747E+03  0.24403187747E+03  0.00000000000E+00 0.  1.
          6    1    1    2  502    0  0.98258978319E+02 -0.36712408749E+02 -0.43545855473E+02  0.20694895338E+03  0.17300000000E+03 0. -1.
         -6    1    1    2    0  501 -0.98258978319E+02  0.36712408749E+02 -0.32637633467E+02  0.20493131263E+03  0.17300000000E+03 0.  1.
<mgrwt>
<rscale>  2 0.20231566E+03</rscale>
<asrwt>0</asrwt>
<pdfrwt beam="1">  1        1 0.25822829E-01 0.20231566E+03</pdfrwt>
<pdfrwt beam="2">  1       -1 0.37543366E-01 0.20231566E+03</pdfrwt>
<totfact> 0.12611516E+03</totfact>
</mgrwt>
</event>
<event>
 4    2  0.9452525E-001  0.1849138E+03  0.7546771E-02  0.1163130E+00
          2   -1    0    0  502    0  0.00000000000E+00  0.00000000000E+00  0.12916319750E+04  0.12916319750E+04  0.00000000000E+00 0.  1.
         -2   -1    0    0    0  501 -0.00000000000E+00 -0.00000000000E+00 -0.32922857598E+02  0.32922857598E+02  0.00000000000E+00 0. -1.
          6    1    1    2  502    0 -0.61360559786E+02  0.22337834824E+02  0.92249345212E+03  0.94084391179E+03  0.17300000000E+03 0.  1.
         -6    1    1    2    0  501  0.61360559786E+02 -0.22337834824E+02  0.33621566529E+03  0.38371092081E+03  0.17300000000E+03 0. -1.
<mgrwt>
<rscale>  2 0.18491376E+03</rscale>
<asrwt>0</asrwt>
<pdfrwt beam="1">  1        2 0.19871257E+00 0.18491376E+03</pdfrwt>
<pdfrwt beam="2">  1       -2 0.50650560E-02 0.18491376E+03</pdfrwt>
<totfact> 0.33862719E+03</totfact>
</mgrwt>
</event>
<event>
 4    2  0.9452525E-001  0.1825223E+03  0.7546771E-02  0.1165384E+00
          2   -1    0    0  502    0  0.00000000000E+00  0.00000000000E+00  0.16829890954E+04  0.16829890954E+04  0.00000000000E+00 0.  1.
         -2   -1    0    0    0  501 -0.00000000000E+00 -0.00000000000E+00 -0.35395503606E+02  0.35395503606E+02  0.00000000000E+00 0. -1.
          6    1    1    2  502    0 -0.10059040126E+02 -0.57308040549E+02  0.25338470191E+03  0.31227904662E+03  0.17300000000E+03 0. -1.
         -6    1    1    2    0  501  0.10059040126E+02  0.57308040549E+02  0.13942088899E+04  0.14061055524E+04  0.17300000000E+03 0.  1.
<mgrwt>
<rscale>  2 0.18252232E+03</rscale>
<asrwt>0</asrwt>
<pdfrwt beam="1">  1        2 0.25892134E+00 0.18252232E+03</pdfrwt>
<pdfrwt beam="2">  1       -2 0.54454634E-02 0.18252232E+03</pdfrwt>
<totfact> 0.18814355E+03</totfact>
</mgrwt>
</event>
<event>
 4    2  0.9452525E-001  0.1861610E+03  0.7546771E-02  0.1161970E+00
         -1   -1    0    0    0  501 -0.00000000000E+00  0.00000000000E+00  0.56855419178E+02  0.56855419178E+02  0.00000000000E+00 0. -1.
          1   -1    0    0  502    0  0.00000000000E+00 -0.00000000000E+00 -0.72355686272E+03  0.72355686272E+03  0.00000000000E+00 0.  1.
          6    1    1    2  502    0  0.30492706394E+02 -0.61620860624E+02 -0.48824408733E+03  0.52253059664E+03  0.17300000000E+03 0.  1.
         -6    1    1    2    0  501 -0.30492706394E+02  0.61620860624E+02 -0.17845735621E+03  0.25788168526E+03  0.17300000000E+03 0. -1.
<mgrwt>
<rscale>  2 0.18616105E+03</rscale>
<asrwt>0</asrwt>
<pdfrwt beam="1">  1        1 0.11131644E+00 0.18616105E+03</pdfrwt>
<pdfrwt beam="2">  1       -1 0.87469877E-02 0.18616105E+03</pdfrwt>
<totfact> 0.20002516E+03</totfact>
</mgrwt>
</event>
<event>
 4    2  0.9452525E-001  0.1730572E+03  0.7546771E-02  0.1174697E+00
          2   -1    0    0  502    0  0.00000000000E+00  0.00000000000E+00  0.15504786959E+03  0.15504786959E+03  0.00000000000E+00 0.  1.
         -2   -1    0    0    0  501 -0.00000000000E+00 -0.00000000000E+00 -0.19822540249E+03  0.19822540249E+03  0.00000000000E+00 0. -1.
          6    1    1    2  502    0  0.42185411478E+01  0.14186472895E+01  0.66518297169E+01  0.17318503252E+03  0.17300000000E+03 0.  1.
         -6    1    1    2    0  501 -0.42185411478E+01 -0.14186472895E+01 -0.49829362622E+02  0.18008823956E+03  0.17300000000E+03 0. -1.
<mgrwt>
<rscale>  2 0.17305724E+03</rscale>
<asrwt>0</asrwt>
<pdfrwt beam="1">  1        2 0.23853519E-01 0.17305724E+03</pdfrwt>
<pdfrwt beam="2">  1       -2 0.30496216E-01 0.17305724E+03</pdfrwt>
<totfact> 0.22074636E+03</totfact>
</mgrwt>
</event>
<event>
 4    2  0.9452525E-001  0.2543784E+03  0.7546771E-02  0.1110569E+00
          1   -1    0    0  502    0  0.00000000000E+00  0.00000000000E+00  0.95312737910E+03  0.95312737910E+03  0.00000000000E+00 0.  1.
         -1   -1    0    0    0  501 -0.00000000000E+00 -0.00000000000E+00 -0.80297492731E+02  0.80297492731E+02  0.00000000000E+00 0. -1.
          6    1    1    2  502    0  0.28522875748E+02 -0.18429818783E+03  0.23330570507E+03  0.34516652285E+03  0.17300000000E+03 0. -1.
         -6    1    1    2    0  501 -0.28522875748E+02  0.18429818783E+03  0.63952418130E+03  0.68825834898E+03  0.17300000000E+03 0.  1.
<mgrwt>
<rscale>  2 0.25437841E+03</rscale>
<asrwt>0</asrwt>
<pdfrwt beam="1">  1        1 0.14663497E+00 0.25437841E+03</pdfrwt>
<pdfrwt beam="2">  1       -1 0.12353461E-01 0.25437841E+03</pdfrwt>
<totfact> 0.76243216E+02</totfact>
</mgrwt>
</event>
<event>
 4    2  0.9452525E-001  0.2180119E+03  0.7546771E-02  0.1135374E+00
         -2   -1    0    0    0  501 -0.00000000000E+00  0.00000000000E+00  0.11032151711E+02  0.11032151711E+02  0.00000000000E+00 0. -1.
          2   -1    0    0  502    0  0.00000000000E+00 -0.00000000000E+00 -0.55012221589E+04  0.55012221589E+04  0.00000000000E+00 0.  1.
          6    1    1    2  502    0 -0.46376181781E+02 -0.12429580069E+03 -0.40285657927E+04  0.40344605020E+04  0.17300000000E+03 0.  1.
         -6    1    1    2    0  501  0.46376181781E+02  0.12429580069E+03 -0.14616242145E+04  0.14777938086E+04  0.17300000000E+03 0. -1.
<mgrwt>
<rscale>  2 0.21801192E+03</rscale>
<asrwt>0</asrwt>
<pdfrwt beam="1">  1        2 0.84634251E+00 0.21801192E+03</pdfrwt>
<pdfrwt beam="2">  1       -2 0.16972528E-02 0.21801192E+03</pdfrwt>
<totfact> 0.98822500E+00</totfact>
</mgrwt>
</event>
<event>
 4    2  0.9452525E-001  0.2558910E+03  0.7546771E-02  0.1109637E+00
          1   -1    0    0  502    0  0.00000000000E+00  0.00000000000E+00  0.69037453369E+03  0.69037453369E+03  0.00000000000E+00 0.  1.
         -1   -1    0    0    0  501 -0.00000000000E+00 -0.00000000000E+00 -0.37913632720E+03  0.37913632720E+03  0.00000000000E+00 0. -1.
          6    1    1    2  502    0 -0.17232386009E+03 -0.76522454467E+02 -0.30744115599E+03  0.40000032898E+03  0.17300000000E+03 0. -1.
         -6    1    1    2    0  501  0.17232386009E+03  0.76522454467E+02  0.61867936247E+03  0.66951053191E+03  0.17300000000E+03 0.  1.
<mgrwt>
<rscale>  2 0.25589099E+03</rscale>
<asrwt>0</asrwt>
<pdfrwt beam="1">  1        1 0.10621147E+00 0.25589099E+03</pdfrwt>
<pdfrwt beam="2">  1       -1 0.58328666E-01 0.25589099E+03</pdfrwt>
<totfact> 0.89798776E+01</totfact>
</mgrwt>
</event>
<event>
 4    2  0.9452525E-001  0.2276807E+03  0.7546771E-02  0.1128283E+00
         -2   -1    0    0    0  501 -0.00000000000E+00  0.00000000000E+00  0.49896556717E+03  0.49896556717E+03  0.00000000000E+00 0.  1.
          2   -1    0    0  502    0  0.00000000000E+00 -0.00000000000E+00 -0.38074496109E+03  0.38074496109E+03  0.00000000000E+00 0. -1.
          6    1    1    2  502    0  0.14279691327E+03 -0.38968405923E+02 -0.31596403728E+03  0.38945059758E+03  0.17300000000E+03 0. -1.
         -6    1    1    2    0  501 -0.14279691327E+03  0.38968405923E+02  0.43418464336E+03  0.49025993068E+03  0.17300000000E+03 0.  1.
<mgrwt>
<rscale>  2 0.22768069E+03</rscale>
<asrwt>0</asrwt>
<pdfrwt beam="1">  1        2 0.58576148E-01 0.22768069E+03</pdfrwt>
<pdfrwt beam="2">  1       -2 0.76763933E-01 0.22768069E+03</pdfrwt>
<totfact> 0.13334939E+02</totfact>
</mgrwt>
</event>
<event>
 4    2  0.9452525E-001  0.2364903E+03  0.7546771E-02  0.1122153E+00
          1   -1    0    0  502    0  0.00000000000E+00  0.00000000000E+00  0.20950738535E+03  0.20950738535E+03  0.00000000000E+00 0.  1.
         -1   -1    0    0    0  501 -0.00000000000E+00 -0.00000000000E+00 -0.26701562144E+03  0.26701562144E+03  0.00000000000E+00 0. -1.
          6    1    1    2  502    0 -0.15886245212E+03  0.27593121120E+02 -0.32534839236E+02  0.23871777225E+03  0.17300000000E+03 0. -1.
         -6    1    1    2    0  501  0.15886245212E+03 -0.27593121120E+02 -0.24973396849E+02  0.23780523454E+03  0.17300000000E+03 0. -1.
<mgrwt>
<rscale>  2 0.23649029E+03</rscale>
<asrwt>0</asrwt>
<pdfrwt beam="1">  1        1 0.32231906E-01 0.23649029E+03</pdfrwt>
<pdfrwt beam="2">  1       -1 0.41079326E-01 0.23649029E+03</pdfrwt>
<totfact> 0.81456447E+02</totfact>
</mgrwt>
</event>
<event>
 4    2  0.9452525E-001  0.1868968E+03  0.7546771E-02  0.1161290E+00
          2   -1    0    0  502    0  0.00000000000E+00  0.00000000000E+00  0.43679185266E+02  0.43679185266E+02  0.00000000000E+00 0.  1.
         -2   -1    0    0    0  501 -0.00000000000E+00 -0.00000000000E+00 -0.97428385230E+03  0.97428385230E+03  0.00000000000E+00 0. -1.
          6    1    1    2  502    0  0.35833746607E+02  0.60970046131E+02 -0.24984724466E+03  0.31201610469E+03  0.17300000000E+03 0.  1.
         -6    1    1    2    0  501 -0.35833746607E+02 -0.60970046131E+02 -0.68075742238E+03  0.70594693288E+03  0.17300000000E+03 0. -1.
<mgrwt>
<rscale>  2 0.18689677E+03</rscale>
<asrwt>0</asrwt>
<pdfrwt beam="1">  1        2 0.67198752E-02 0.18689677E+03</pdfrwt>
<pdfrwt beam="2">  1       -2 0.14988981E+00 0.18689677E+03</pdfrwt>
<totfact> 0.33647665E+02</totfact>
</mgrwt>
</event>
<event>
 4    2  0.9452525E-001  0.2371606E+03  0.7546771E-02  0.1121699E+00
         -1   -1    0    0    0  501 -0.00000000000E+00  0.00000000000E+00  0.75564249859E+02  0.75564249859E+02  0.00000000000E+00 0. -1.
          1   -1    0    0  502    0  0.00000000000E+00 -0.00000000000E+00 -0.10042096499E+04  0.10042096499E+04  0.00000000000E+00 0.  1.
          6    1    1    2  502    0  0.15917742849E+03  0.31284179689E+02 -0.73896800309E+03  0.77609204559E+03  0.17300000000E+03 0. -1.
         -6    1    1    2    0  501 -0.15917742849E+03 -0.31284179689E+02 -0.18967739697E+03  0.30368185419E+03  0.17300000000E+03 0.  1.
<mgrwt>
<rscale>  2 0.23716061E+03</rscale>
<asrwt>0</asrwt>
<pdfrwt beam="1">  1        1 0.15449378E+00 0.23716061E+03</pdfrwt>
<pdfrwt beam="2">  1       -1 0.11625270E-01 0.23716061E+03</pdfrwt>
<totfact> 0.76797719E+02</totfact>
</mgrwt>
</event>
<event>
 4    2  0.9452525E-001  0.1922176E+03  0.7546771E-02  0.1156476E+00
         -2   -1    0    0    0  501 -0.00000000000E+00  0.00000000000E+00  0.45538735272E+02  0.45538735272E+02  0.00000000000E+00 0. -1.
          2   -1    0    0  502    0  0.00000000000E+00 -0.00000000000E+00 -0.83625486169E+03  0.83625486169E+03  0.00000000000E+00 0.  1.
          6    1    1    2  502    0 -0.83257254986E+02 -0.93195301940E+01 -0.47145259873E+03  0.50913178745E+03  0.17300000000E+03 0.  1.
         -6    1    1    2    0  501  0.83257254986E+02  0.93195301940E+01 -0.31926352769E+03  0.37266180950E+03  0.17300000000E+03 0. -1.
<mgrwt>
<rscale>  2 0.19221765E+03</rscale>
<asrwt>0</asrwt>
<pdfrwt beam="1">  1        2 0.12865460E+00 0.19221765E+03</pdfrwt>
<pdfrwt beam="2">  1       -2 0.70059592E-02 0.19221765E+03</pdfrwt>
<totfact> 0.38525085E+03</totfact>
</mgrwt>
</event>
<event>
 4    2  0.9452525E-001  0.1782585E+03  0.7546771E-02  0.1169499E+00
          1   -1    0    0  502    0  0.00000000000E+00  0.00000000000E+00  0.72806103855E+03  0.72806103855E+03  0.00000000000E+00 0.  1.
         -1   -1    0    0    0  501 -0.00000000000E+00 -0.00000000000E+00 -0.57793071709E+02  0.57793071709E+02  0.00000000000E+00 0. -1.
          6    1    1    2  502    0 -0.27512027324E+01  0.42889522690E+02  0.52954716207E+03  0.55874527034E+03  0.17300000000E+03 0.  1.
         -6    1    1    2    0  501  0.27512027324E+01 -0.42889522690E+02  0.14072080477E+03  0.22710883992E+03  0.17300000000E+03 0. -1.
<mgrwt>
<rscale>  2 0.17825846E+03</rscale>
<asrwt>0</asrwt>
<pdfrwt beam="1">  1        1 0.11200938E+00 0.17825846E+03</pdfrwt>
<pdfrwt beam="2">  1       -1 0.88912423E-02 0.17825846E+03</pdfrwt>
<totfact> 0.19317750E+03</totfact>
</mgrwt>
</event>
<event>
 4    2  0.9452525E-001  0.1934609E+03  0.7546771E-02  0.1155376E+00
         -1   -1    0    0    0  501 -0.00000000000E+00  0.00000000000E+00  0.16961337937E+03  0.16961337937E+03  0.00000000000E+00 0. -1.
          1   -1    0    0  502    0  0.00000000000E+00 -0.00000000000E+00 -0.23045206438E+03  0.23045206438E+03  0.00000000000E+00 0.  1.
          6    1    1    2  502    0  0.22766337833E+02 -0.83545312156E+02  0.10810994135E+02  0.19376274904E+03  0.17300000000E+03 0. -1.
         -6    1    1    2    0  501 -0.22766337833E+02  0.83545312156E+02 -0.71649679153E+02  0.20630269471E+03  0.17300000000E+03 0.  1.
<mgrwt>
<rscale>  2 0.19346091E+03</rscale>
<asrwt>0</asrwt>
<pdfrwt beam="1">  1        1 0.35454164E-01 0.19346091E+03</pdfrwt>
<pdfrwt beam="2">  1       -1 0.26094366E-01 0.19346091E+03</pdfrwt>
<totfact> 0.15729855E+03</totfact>
</mgrwt>
</event>
<event>
 4    2  0.9452525E-001  0.1731083E+03  0.7546771E-02  0.1174645E+00
         -2   -1    0    0    0  501 -0.00000000000E+00  0.00000000000E+00  0.17265498887E+02  0.17265498887E+02  0.00000000000E+00 0.  1.
          2   -1    0    0  502    0  0.00000000000E+00 -0.00000000000E+00 -0.17760456237E+04  0.17760456237E+04  0.00000000000E+00 0. -1.
          6    1    1    2  502    0  0.39472957336E+01  0.46817842007E+01 -0.10146529650E+04  0.10293139170E+04  0.17300000000E+03 0. -1.
         -6    1    1    2    0  501 -0.39472957336E+01 -0.46817842007E+01 -0.74412715980E+03  0.76399720562E+03  0.17300000000E+03 0.  1.
<mgrwt>
<rscale>  2 0.17310835E+03</rscale>
<asrwt>0</asrwt>
<pdfrwt beam="1">  1        2 0.27323795E+00 0.17310835E+03</pdfrwt>
<pdfrwt beam="2">  1       -2 0.26562290E-02 0.17310835E+03</pdfrwt>
<totfact> 0.49201477E+03</totfact>
</mgrwt>
</event>
<event>
 4    2  0.9452525E-001  0.1818939E+03  0.7546771E-02  0.1165983E+00
         -1   -1    0    0    0  501 -0.00000000000E+00  0.00000000000E+00  0.10800281830E+04  0.10800281830E+04  0.00000000000E+00 0.  1.
          1   -1    0    0  502    0  0.00000000000E+00 -0.00000000000E+00 -0.37936163534E+02  0.37936163534E+02  0.00000000000E+00 0. -1.
          6    1    1    2  502    0 -0.34670316525E+02  0.44208171332E+02  0.27579982211E+03  0.33037998598E+03  0.17300000000E+03 0. -1.
         -6    1    1    2    0  501  0.34670316525E+02 -0.44208171332E+02  0.76629219737E+03  0.78758436057E+03  0.17300000000E+03 0.  1.
<mgrwt>
<rscale>  2 0.18189391E+03</rscale>
<asrwt>0</asrwt>
<pdfrwt beam="1">  1        1 0.58363337E-02 0.18189391E+03</pdfrwt>
<pdfrwt beam="2">  1       -1 0.16615816E+00 0.18189391E+03</pdfrwt>
<totfact> 0.38531704E+02</totfact>
</mgrwt>
</event>
<event>
 4    2  0.9452525E-001  0.1936830E+03  0.7546771E-02  0.1155181E+00
          1   -1    0    0  502    0  0.00000000000E+00  0.00000000000E+00  0.35366168836E+03  0.35366168836E+03  0.00000000000E+00 0. -1.
         -1   -1    0    0    0  501 -0.00000000000E+00 -0.00000000000E+00 -0.15756116581E+03  0.15756116581E+03  0.00000000000E+00 0.  1.
          6    1    1    2  502    0 -0.44919773018E+01 -0.86970795018E+02  0.24417361415E+03  0.31166304062E+03  0.17300000000E+03 0. -1.
         -6    1    1    2    0  501  0.44919773018E+01  0.86970795018E+02 -0.48073091590E+02  0.19955981354E+03  0.17300000000E+03 0.  1.
<mgrwt>
<rscale>  2 0.19368298E+03</rscale>
<asrwt>0</asrwt>
<pdfrwt beam="1">  1        1 0.54409490E-01 0.19368298E+03</pdfrwt>
<pdfrwt beam="2">  1       -1 0.24240179E-01 0.19368298E+03</pdfrwt>
<totfact> 0.10395608E+03</totfact>
</mgrwt>
</event>
<event>
 4    2  0.9452525E-001  0.1739774E+03  0.7546771E-02  0.1173762E+00
         -2   -1    0    0    0  501 -0.00000000000E+00  0.00000000000E+00  0.35073666112E+02  0.35073666112E+02  0.00000000000E+00 0.  1.
          2   -1    0    0  502    0  0.00000000000E+00 -0.00000000000E+00 -0.16346909330E+04  0.16346909330E+04  0.00000000000E+00 0. -1.
          6    1    1    2  502    0  0.59019701507E+01  0.17443860074E+02 -0.13734398201E+04  0.13844150609E+04  0.17300000000E+03 0. -1.
         -6    1    1    2    0  501 -0.59019701507E+01 -0.17443860074E+02 -0.22617744682E+03  0.28534953821E+03  0.17300000000E+03 0.  1.
<mgrwt>
<rscale>  2 0.17397736E+03</rscale>
<asrwt>0</asrwt>
<pdfrwt beam="1">  1        2 0.25149088E+00 0.17397736E+03</pdfrwt>
<pdfrwt beam="2">  1       -2 0.53959493E-02 0.17397736E+03</pdfrwt>
<totfact> 0.20217714E+03</totfact>
</mgrwt>
</event>
<event>
 4    2  0.9452525E-001  0.1832498E+03  0.7546771E-02  0.1164694E+00
          2   -1    0    0  502    0  0.00000000000E+00  0.00000000000E+00  0.47183377072E+03  0.47183377072E+03  0.00000000000E+00 0. -1.
         -2   -1    0    0    0  501 -0.00000000000E+00 -0.00000000000E+00 -0.10343554515E+03  0.10343554515E+03  0.00000000000E+00 0.  1.
          6    1    1    2  502    0  0.43094214349E+02 -0.42359984936E+02  0.34484692412E+03  0.39051233106E+03  0.17300000000E+03 0. -1.
         -6    1    1    2    0  501 -0.43094214349E+02  0.42359984936E+02  0.23551301446E+02  0.18475698480E+03  0.17300000000E+03 0.  1.
<mgrwt>
<rscale>  2 0.18324977E+03</rscale>
<asrwt>0</asrwt>
<pdfrwt beam="1">  1        2 0.72589809E-01 0.18324977E+03</pdfrwt>
<pdfrwt beam="2">  1       -2 0.15913161E-01 0.18324977E+03</pdfrwt>
<totfact> 0.20384605E+03</totfact>
</mgrwt>
</event>
<event>
 4    2  0.9452525E-001  0.1780622E+03  0.7546771E-02  0.1169692E+00
          1   -1    0    0  502    0  0.00000000000E+00  0.00000000000E+00  0.20168277666E+04  0.20168277666E+04  0.00000000000E+00 0.  1.
         -1   -1    0    0    0  501 -0.00000000000E+00 -0.00000000000E+00 -0.18102085581E+02  0.18102085581E+02  0.00000000000E+00 0. -1.
          6    1    1    2  502    0  0.20543577517E+00  0.42155594618E+02  0.13683925362E+04  0.13799290814E+04  0.17300000000E+03 0.  1.
         -6    1    1    2    0  501 -0.20543577517E+00 -0.42155594618E+02  0.63033314479E+03  0.65500077082E+03  0.17300000000E+03 0. -1.
<mgrwt>
<rscale>  2 0.17806217E+03</rscale>
<asrwt>0</asrwt>
<pdfrwt beam="1">  1        1 0.31028102E+00 0.17806217E+03</pdfrwt>
<pdfrwt beam="2">  1       -1 0.27849378E-02 0.17806217E+03</pdfrwt>
<totfact> 0.13937840E+03</totfact>
</mgrwt>
</event>
<event>
 4    2  0.9452525E-001  0.2066136E+03  0.7546771E-02  0.1144276E+00
          1   -1    0    0  502    0  0.00000000000E+00  0.00000000000E+00  0.18932817478E+04  0.18932817478E+04  0.00000000000E+00 0.  1.
         -1   -1    0    0    0  501 -0.00000000000E+00 -0.00000000000E+00 -0.23595215173E+02  0.23595215173E+02  0.00000000000E+00 0. -1.
          6    1    1    2  502    0  0.10012989673E+03  0.52289459029E+02  0.73290035483E+03  0.76146707995E+03  0.17300000000E+03 0. -1.
         -6    1    1    2    0  501 -0.10012989673E+03 -0.52289459029E+02  0.11367861778E+04  0.11554098830E+04  0.17300000000E+03 0.  1.
<mgrwt>
<rscale>  2 0.20661361E+03</rscale>
<asrwt>0</asrwt>
<pdfrwt beam="1">  1        1 0.29127399E+00 0.20661361E+03</pdfrwt>
<pdfrwt beam="2">  1       -1 0.36300346E-02 0.20661361E+03</pdfrwt>
<totfact> 0.11304003E+03</totfact>
</mgrwt>
</event>
<event>
 4    2  0.9452525E-001  0.2248592E+03  0.7546771E-02  0.1130311E+00
         -3   -1    0    0    0  501 -0.00000000000E+00  0.00000000000E+00  0.42877128338E+03  0.42877128338E+03  0.00000000000E+00 0.  1.
          3   -1    0    0  502    0  0.00000000000E+00 -0.00000000000E+00 -0.13098088945E+03  0.13098088945E+03  0.00000000000E+00 0. -1.
          6    1    1    2  502    0  0.12415802400E+03 -0.72231987614E+02  0.23726640084E+03  0.32688992020E+03  0.17300000000E+03 0.  1.
         -6    1    1    2    0  501 -0.12415802400E+03  0.72231987614E+02  0.60523993090E+02  0.23286225263E+03  0.17300000000E+03 0. -1.
<mgrwt>
<rscale>  2 0.22485923E+03</rscale>
<asrwt>0</asrwt>
<pdfrwt beam="1">  1        3 0.20150906E-01 0.22485923E+03</pdfrwt>
<pdfrwt beam="2">  1       -3 0.65964812E-01 0.22485923E+03</pdfrwt>
<totfact> 0.12336631E+02</totfact>
</mgrwt>
</event>
<event>
 4    2  0.9452525E-001  0.1798962E+03  0.7546771E-02  0.1167904E+00
         -4   -1    0    0    0  501 -0.00000000000E+00  0.00000000000E+00  0.18452327732E+02  0.18452327732E+02  0.00000000000E+00 0.  1.
          4   -1    0    0  502    0  0.00000000000E+00 -0.00000000000E+00 -0.17724604265E+04  0.17724604265E+04  0.00000000000E+00 0. -1.
          6    1    1    2  502    0  0.46747682467E+02  0.15757584623E+02 -0.78525239574E+03  0.80559541478E+03  0.17300000000E+03 0.  1.
         -6    1    1    2    0  501 -0.46747682467E+02 -0.15757584623E+02 -0.96875570305E+03  0.98531733948E+03  0.17300000000E+03 0.  1.
<mgrwt>
<rscale>  2 0.17989621E+03</rscale>
<asrwt>0</asrwt>
<pdfrwt beam="1">  1        4 0.27268632E+00 0.17989621E+03</pdfrwt>
<pdfrwt beam="2">  1       -4 0.28388187E-02 0.17989621E+03</pdfrwt>
<totfact> 0.55489055E+01</totfact>
</mgrwt>
</event>
<event>
 4    2  0.9452525E-001  0.3192223E+03  0.7546771E-02  0.1076008E+00
          3   -1    0    0  502    0  0.00000000000E+00  0.00000000000E+00  0.77408848709E+03  0.77408848709E+03  0.00000000000E+00 0.  1.
         -3   -1    0    0    0  501 -0.00000000000E+00 -0.00000000000E+00 -0.34103689481E+03  0.34103689481E+03  0.00000000000E+00 0. -1.
          6    1    1    2  502    0  0.22554410177E+03  0.14527127222E+03 -0.22036774894E+03  0.38789796229E+03  0.17300000000E+03 0. -1.
         -6    1    1    2    0  501 -0.22554410177E+03 -0.14527127222E+03  0.65341934121E+03  0.72722741962E+03  0.17300000000E+03 0.  1.
<mgrwt>
<rscale>  2 0.31922231E+03</rscale>
<asrwt>0</asrwt>
<pdfrwt beam="1">  1        3 0.11909054E+00 0.31922231E+03</pdfrwt>
<pdfrwt beam="2">  1       -3 0.52467215E-01 0.31922231E+03</pdfrwt>
<totfact> 0.54010186E+00</totfact>
</mgrwt>
</event>
<event>
 4    2  0.9452525E-001  0.1930329E+03  0.7546771E-02  0.1155754E+00
          1   -1    0    0  502    0  0.00000000000E+00  0.00000000000E+00  0.11976766485E+03  0.11976766485E+03  0.00000000000E+00 0. -1.
         -1   -1    0    0    0  501 -0.00000000000E+00 -0.00000000000E+00 -0.32542861440E+03  0.32542861440E+03  0.00000000000E+00 0.  1.
          6    1    1    2  502    0  0.83035449496E+02  0.20923994682E+02 -0.56148930335E+02  0.20103333506E+03  0.17300000000E+03 0. -1.
         -6    1    1    2    0  501 -0.83035449496E+02 -0.20923994682E+02 -0.14951201922E+03  0.24416294419E+03  0.17300000000E+03 0.  1.
<mgrwt>
<rscale>  2 0.19303290E+03</rscale>
<asrwt>0</asrwt>
<pdfrwt beam="1">  1        1 0.18425795E-01 0.19303290E+03</pdfrwt>
<pdfrwt beam="2">  1       -1 0.50065940E-01 0.19303290E+03</pdfrwt>
<totfact> 0.11572088E+03</totfact>
</mgrwt>
</event>
<event>
 4    2  0.9452525E-001  0.1910482E+03  0.7546771E-02  0.1157519E+00
         -1   -1    0    0    0  501 -0.00000000000E+00  0.00000000000E+00  0.58847101192E+02  0.58847101192E+02  0.00000000000E+00 0.  1.
          1   -1    0    0  502    0  0.00000000000E+00 -0.00000000000E+00 -0.71575180957E+03  0.71575180957E+03  0.00000000000E+00 0. -1.
          6    1    1    2  502    0 -0.24554866794E+02  0.77249472709E+02 -0.46993086127E+03  0.50728141785E+03  0.17300000000E+03 0. -1.
         -6    1    1    2    0  501  0.24554866794E+02 -0.77249472709E+02 -0.18697384711E+03  0.26731749292E+03  0.17300000000E+03 0.  1.
<mgrwt>
<rscale>  2 0.19104822E+03</rscale>
<asrwt>0</asrwt>
<pdfrwt beam="1">  1        1 0.11011567E+00 0.19104822E+03</pdfrwt>
<pdfrwt beam="2">  1       -1 0.90533995E-02 0.19104822E+03</pdfrwt>
<totfact> 0.19288670E+03</totfact>
</mgrwt>
</event>
<event>
 4    2  0.9452525E-001  0.2695291E+03  0.7546771E-02  0.1101549E+00
          2   -1    0    0  502    0  0.00000000000E+00  0.00000000000E+00  0.47313880932E+03  0.47313880932E+03  0.00000000000E+00 0.  1.
         -2   -1    0    0    0  501 -0.00000000000E+00 -0.00000000000E+00 -0.16921694292E+03  0.16921694292E+03  0.00000000000E+00 0. -1.
          6    1    1    2  502    0  0.12356469598E+03 -0.16567656254E+03  0.54203945640E+02  0.27492549026E+03  0.17300000000E+03 0. -1.
         -6    1    1    2    0  501 -0.12356469598E+03  0.16567656254E+03  0.24971792077E+03  0.36743026198E+03  0.17300000000E+03 0.  1.
<mgrwt>
<rscale>  2 0.26952914E+03</rscale>
<asrwt>0</asrwt>
<pdfrwt beam="1">  1        2 0.72790586E-01 0.26952914E+03</pdfrwt>
<pdfrwt beam="2">  1       -2 0.26033376E-01 0.26952914E+03</pdfrwt>
<totfact> 0.87806095E+02</totfact>
</mgrwt>
</event>
<event>
 4    2  0.9452525E-001  0.2564995E+03  0.7546771E-02  0.1109265E+00
          2   -1    0    0  502    0  0.00000000000E+00  0.00000000000E+00  0.96571291475E+02  0.96571291475E+02  0.00000000000E+00 0. -1.
         -2   -1    0    0    0  501 -0.00000000000E+00 -0.00000000000E+00 -0.83090795429E+03  0.83090795429E+03  0.00000000000E+00 0.  1.
          6    1    1    2  502    0  0.11900281195E+03  0.14731361283E+03 -0.56395964012E+03  0.61955019608E+03  0.17300000000E+03 0.  1.
         -6    1    1    2    0  501 -0.11900281195E+03 -0.14731361283E+03 -0.17037702269E+03  0.30792904968E+03  0.17300000000E+03 0. -1.
<mgrwt>
<rscale>  2 0.25649945E+03</rscale>
<asrwt>0</asrwt>
<pdfrwt beam="1">  1        2 0.14857121E-01 0.25649945E+03</pdfrwt>
<pdfrwt beam="2">  1       -2 0.12783200E+00 0.25649945E+03</pdfrwt>
<totfact> 0.18793314E+02</totfact>
</mgrwt>
</event>
<event>
 4    2  0.9452525E-001  0.1733646E+03  0.7546771E-02  0.1174384E+00
          1   -1    0    0  502    0  0.00000000000E+00  0.00000000000E+00  0.21002947264E+04  0.21002947264E+04  0.00000000000E+00 0. -1.
         -1   -1    0    0    0  501 -0.00000000000E+00 -0.00000000000E+00 -0.14562264813E+02  0.14562264813E+02  0.00000000000E+00 0.  1.
          6    1    1    2  502    0 -0.10818634047E+02  0.30389396026E+01  0.90369800032E+03  0.92017680571E+03  0.17300000000E+03 0.  1.
         -6    1    1    2    0  501  0.10818634047E+02 -0.30389396026E+01  0.11820344613E+04  0.11946801855E+04  0.17300000000E+03 0. -1.
<mgrwt>
<rscale>  2 0.17336458E+03</rscale>
<asrwt>0</asrwt>
<pdfrwt beam="1">  1        1 0.32312202E+00 0.17336458E+03</pdfrwt>
<pdfrwt beam="2">  1       -1 0.22403501E-02 0.17336458E+03</pdfrwt>
<totfact> 0.16928934E+03</totfact>
</mgrwt>
</event>
<event>
 4    2  0.9452525E-001  0.2205782E+03  0.7546771E-02  0.1133453E+00
          1   -1    0    0  502    0  0.00000000000E+00  0.00000000000E+00  0.81149206634E+03  0.81149206634E+03  0.00000000000E+00 0.  1.
         -1   -1    0    0    0  501 -0.00000000000E+00 -0.00000000000E+00 -0.60257973571E+02  0.60257973571E+02  0.00000000000E+00 0. -1.
          6    1    1    2  502    0 -0.89025304167E+02 -0.10392414775E+03  0.40641535798E+03  0.46241558848E+03  0.17300000000E+03 0. -1.
         -6    1    1    2    0  501  0.89025304167E+02  0.10392414775E+03  0.34481873479E+03  0.40933445143E+03  0.17300000000E+03 0. -1.
<mgrwt>
<rscale>  2 0.22057818E+03</rscale>
<asrwt>0</asrwt>
<pdfrwt beam="1">  1        1 0.12484493E+00 0.22057818E+03</pdfrwt>
<pdfrwt beam="2">  1       -1 0.92704581E-02 0.22057818E+03</pdfrwt>
<totfact> 0.15433644E+03</totfact>
</mgrwt>
</event>
<event>
 4    2  0.9452525E-001  0.2207510E+03  0.7546771E-02  0.1133324E+00
          4   -1    0    0  502    0  0.00000000000E+00  0.00000000000E+00  0.26607345942E+03  0.26607345942E+03  0.00000000000E+00 0.  1.
         -4   -1    0    0    0  501 -0.00000000000E+00 -0.00000000000E+00 -0.18827154534E+03  0.18827154534E+03  0.00000000000E+00 0. -1.
          6    1    1    2  502    0 -0.13378567698E+03  0.30056400674E+02  0.76374193937E+02  0.23358940919E+03  0.17300000000E+03 0.  1.
         -6    1    1    2    0  501  0.13378567698E+03 -0.30056400674E+02  0.14277201445E+01  0.22075559556E+03  0.17300000000E+03 0. -1.
<mgrwt>
<rscale>  2 0.22075098E+03</rscale>
<asrwt>0</asrwt>
<pdfrwt beam="1">  1        4 0.40934379E-01 0.22075098E+03</pdfrwt>
<pdfrwt beam="2">  1       -4 0.28964853E-01 0.22075098E+03</pdfrwt>
<totfact> 0.11891989E+02</totfact>
</mgrwt>
</event>
<event>
 4    2  0.9452525E-001  0.2967130E+03  0.7546771E-02  0.1086895E+00
         -1   -1    0    0    0  501 -0.00000000000E+00  0.00000000000E+00  0.10292473267E+03  0.10292473267E+03  0.00000000000E+00 0.  1.
          1   -1    0    0  502    0  0.00000000000E+00 -0.00000000000E+00 -0.15080008243E+04  0.15080008243E+04  0.00000000000E+00 0. -1.
          6    1    1    2  502    0 -0.14718585039E+02 -0.24060959648E+03 -0.17265643766E+03  0.34329121767E+03  0.17300000000E+03 0.  1.
         -6    1    1    2    0  501  0.14718585039E+02  0.24060959648E+03 -0.12324196540E+04  0.12676343393E+04  0.17300000000E+03 0. -1.
<mgrwt>
<rscale>  2 0.29671302E+03</rscale>
<asrwt>0</asrwt>
<pdfrwt beam="1">  1        1 0.23200013E+00 0.29671302E+03</pdfrwt>
<pdfrwt beam="2">  1       -1 0.15834574E-01 0.29671302E+03</pdfrwt>
<totfact> 0.20853199E+02</totfact>
</mgrwt>
</event>
<event>
 4    2  0.9452525E-001  0.1772940E+03  0.7546771E-02  0.1170448E+00
         -2   -1    0    0    0  501 -0.00000000000E+00  0.00000000000E+00  0.21689738884E+02  0.21689738884E+02  0.00000000000E+00 0.  1.
          2   -1    0    0  502    0  0.00000000000E+00 -0.00000000000E+00 -0.14583479513E+04  0.14583479513E+04  0.00000000000E+00 0. -1.
          6    1    1    2  502    0 -0.27372783380E+02 -0.27475618732E+02 -0.65977926547E+03  0.68318508330E+03  0.17300000000E+03 0.  1.
         -6    1    1    2    0  501  0.27372783380E+02  0.27475618732E+02 -0.77687894692E+03  0.79685260686E+03  0.17300000000E+03 0. -1.
<mgrwt>
<rscale>  2 0.17729405E+03</rscale>
<asrwt>0</asrwt>
<pdfrwt beam="1">  1        2 0.22436125E+00 0.17729405E+03</pdfrwt>
<pdfrwt beam="2">  1       -2 0.33368825E-02 0.17729405E+03</pdfrwt>
<totfact> 0.51443378E+03</totfact>
</mgrwt>
</event>
<event>
 4    2  0.9452525E-001  0.2808734E+03  0.7546771E-02  0.1095213E+00
          2   -1    0    0  502    0  0.00000000000E+00  0.00000000000E+00  0.42188184037E+03  0.42188184037E+03  0.00000000000E+00 0.  1.
         -2   -1    0    0    0  501 -0.00000000000E+00 -0.00000000000E+00 -0.22166139060E+03  0.22166139060E+03  0.00000000000E+00 0. -1.
          6    1    1    2  502    0 -0.20219118921E+03  0.89886668456E+02  0.22735958306E+03  0.36136168885E+03  0.17300000000E+03 0. -1.
         -6    1    1    2    0  501  0.20219118921E+03 -0.89886668456E+02 -0.27139133287E+02  0.28218154212E+03  0.17300000000E+03 0.  1.
<mgrwt>
<rscale>  2 0.28087344E+03</rscale>
<asrwt>0</asrwt>
<pdfrwt beam="1">  1        2 0.64904898E-01 0.28087344E+03</pdfrwt>
<pdfrwt beam="2">  1       -2 0.34101753E-01 0.28087344E+03</pdfrwt>
<totfact> 0.60959187E+02</totfact>
</mgrwt>
</event>
<event>
 4    2  0.9452525E-001  0.3529802E+03  0.7546771E-02  0.1061398E+00
         -2   -1    0    0    0  501 -0.00000000000E+00  0.00000000000E+00  0.11315901454E+03  0.11315901454E+03  0.00000000000E+00 0.  1.
          2   -1    0    0  502    0  0.00000000000E+00 -0.00000000000E+00 -0.15624349889E+04  0.15624349889E+04  0.00000000000E+00 0. -1.
          6    1    1    2  502    0  0.30658984734E+03  0.25858819373E+02 -0.26937302247E+03  0.44402346590E+03  0.17300000000E+03 0.  1.
         -6    1    1    2    0  501 -0.30658984734E+03 -0.25858819373E+02 -0.11799029519E+04  0.12315705375E+04  0.17300000000E+03 0. -1.
<mgrwt>
<rscale>  2 0.35298019E+03</rscale>
<asrwt>0</asrwt>
<pdfrwt beam="1">  1        2 0.24037460E+00 0.35298019E+03</pdfrwt>
<pdfrwt beam="2">  1       -2 0.17409080E-01 0.35298019E+03</pdfrwt>
<totfact> 0.33452352E+02</totfact>
</mgrwt>
</event>
<event>
 4    2  0.9452525E-001  0.2534907E+03  0.7546771E-02  0.1111118E+00
          2   -1    0    0  502    0  0.00000000000E+00  0.00000000000E+00  0.33522895032E+04  0.33522895032E+04  0.00000000000E+00 0. -1.
         -2   -1    0    0    0  501 -0.00000000000E+00 -0.00000000000E+00 -0.21502778858E+02  0.21502778858E+02  0.00000000000E+00 0.  1.
          6    1    1    2  502    0  0.87979663444E+02  0.16305863917E+03  0.22212210570E+04  0.22356387286E+04  0.17300000000E+03 0. -1.
         -6    1    1    2    0  501 -0.87979663444E+02 -0.16305863917E+03  0.11095656674E+04  0.11381535534E+04  0.17300000000E+03 0.  1.
<mgrwt>
<rscale>  2 0.25349071E+03</rscale>
<asrwt>0</asrwt>
<pdfrwt beam="1">  1        2 0.51573643E+00 0.25349071E+03</pdfrwt>
<pdfrwt beam="2">  1       -2 0.33081225E-02 0.25349071E+03</pdfrwt>
<totfact> 0.46513815E+02</totfact>
</mgrwt>
</event>
<event>
 4    2  0.9452525E-001  0.1769397E+03  0.7546771E-02  0.1170798E+00
          3   -1    0    0  502    0  0.00000000000E+00  0.00000000000E+00  0.66252608382E+03  0.66252608382E+03  0.00000000000E+00 0. -1.
         -3   -1    0    0    0  501 -0.00000000000E+00 -0.00000000000E+00 -0.10068128157E+03  0.10068128157E+03  0.00000000000E+00 0.  1.
          6    1    1    2  502    0  0.10856236198E+02 -0.35507718662E+02  0.55890380944E+03  0.58624322951E+03  0.17300000000E+03 0. -1.
         -6    1    1    2    0  501 -0.10856236198E+02  0.35507718662E+02  0.29409928125E+01  0.17696413588E+03  0.17300000000E+03 0.  1.
<mgrwt>
<rscale>  2 0.17693970E+03</rscale>
<asrwt>0</asrwt>
<pdfrwt beam="1">  1        3 0.10192709E+00 0.17693970E+03</pdfrwt>
<pdfrwt beam="2">  1       -3 0.15489428E-01 0.17693970E+03</pdfrwt>
<totfact> 0.73662130E+01</totfact>
</mgrwt>
</event>
<event>
 4    2  0.9452525E-001  0.1831789E+03  0.7546771E-02  0.1164761E+00
          2   -1    0    0  502    0  0.00000000000E+00  0.00000000000E+00  0.29995689772E+04  0.29995689772E+04  0.00000000000E+00 0.  1.
         -2   -1    0    0    0  501 -0.00000000000E+00 -0.00000000000E+00 -0.46500643876E+02  0.46500643876E+02  0.00000000000E+00 0. -1.
          6    1    1    2  502    0 -0.59261079018E+02 -0.10659969819E+02  0.14927714451E+03  0.23630102902E+03  0.17300000000E+03 0. -1.
         -6    1    1    2    0  501  0.59261079018E+02  0.10659969819E+02  0.28037911888E+04  0.28097685921E+04  0.17300000000E+03 0.  1.
<mgrwt>
<rscale>  2 0.18317890E+03</rscale>
<asrwt>0</asrwt>
<pdfrwt beam="1">  1        2 0.46147200E+00 0.18317890E+03</pdfrwt>
<pdfrwt beam="2">  1       -2 0.71539476E-02 0.18317890E+03</pdfrwt>
<totfact> 0.24275224E+02</totfact>
</mgrwt>
</event>
<event>
 4    2  0.9452525E-001  0.2072680E+03  0.7546771E-02  0.1143748E+00
          1   -1    0    0  502    0  0.00000000000E+00  0.00000000000E+00  0.90930112914E+03  0.90930112914E+03  0.00000000000E+00 0. -1.
         -1   -1    0    0    0  501 -0.00000000000E+00 -0.00000000000E+00 -0.50832845742E+02  0.50832845742E+02  0.00000000000E+00 0.  1.
          6    1    1    2  502    0  0.41832919490E+02 -0.10621216980E+03  0.30169579991E+03  0.36603329610E+03  0.17300000000E+03 0. -1.
         -6    1    1    2    0  501 -0.41832919490E+02  0.10621216980E+03  0.55677248348E+03  0.59410067878E+03  0.17300000000E+03 0.  1.
<mgrwt>
<rscale>  2 0.20726799E+03</rscale>
<asrwt>0</asrwt>
<pdfrwt beam="1">  1        1 0.13989247E+00 0.20726799E+03</pdfrwt>
<pdfrwt beam="2">  1       -1 0.78204385E-02 0.20726799E+03</pdfrwt>
<totfact> 0.16712530E+03</totfact>
</mgrwt>
</event>
<event>
 4    2  0.9452525E-001  0.2624412E+03  0.7546771E-02  0.1105685E+00
          2   -1    0    0  502    0  0.00000000000E+00  0.00000000000E+00  0.53905079288E+03  0.53905079288E+03  0.00000000000E+00 0.  1.
         -2   -1    0    0    0  501 -0.00000000000E+00 -0.00000000000E+00 -0.13040128693E+03  0.13040128693E+03  0.00000000000E+00 0. -1.
          6    1    1    2  502    0  0.37057999739E+02 -0.19383783843E+03  0.25185799311E+03  0.36374146264E+03  0.17300000000E+03 0. -1.
         -6    1    1    2    0  501 -0.37057999739E+02  0.19383783843E+03  0.15679151284E+03  0.30571061717E+03  0.17300000000E+03 0. -1.
<mgrwt>
<rscale>  2 0.26244124E+03</rscale>
<asrwt>0</asrwt>
<pdfrwt beam="1">  1        2 0.82930890E-01 0.26244124E+03</pdfrwt>
<pdfrwt beam="2">  1       -2 0.20061737E-01 0.26244124E+03</pdfrwt>
<totfact> 0.11953728E+03</totfact>
</mgrwt>
</event>
<event>
 4    2  0.9452525E-001  0.1818446E+03  0.7546771E-02  0.1166030E+00
          2   -1    0    0  502    0  0.00000000000E+00  0.00000000000E+00  0.17472578787E+04  0.17472578787E+04  0.00000000000E+00 0. -1.
         -2   -1    0    0    0  501 -0.00000000000E+00 -0.00000000000E+00 -0.45951549826E+02  0.45951549826E+02  0.00000000000E+00 0.  1.
          6    1    1    2  502    0  0.46044542475E+02 -0.31911674381E+02  0.15382652216E+04  0.15489762254E+04  0.17300000000E+03 0. -1.
         -6    1    1    2    0  501 -0.46044542475E+02  0.31911674381E+02  0.16304110729E+03  0.24423320315E+03  0.17300000000E+03 0.  1.
<mgrwt>
<rscale>  2 0.18184459E+03</rscale>
<asrwt>0</asrwt>
<pdfrwt beam="1">  1        2 0.26880885E+00 0.18184459E+03</pdfrwt>
<pdfrwt beam="2">  1       -2 0.70694705E-02 0.18184459E+03</pdfrwt>
<totfact> 0.11687364E+03</totfact>
</mgrwt>
</event>
<event>
 4    2  0.9452525E-001  0.3218123E+03  0.7546771E-02  0.1074818E+00
         -2   -1    0    0    0  501 -0.00000000000E+00  0.00000000000E+00  0.32779118539E+03  0.32779118539E+03  0.00000000000E+00 0.  1.
          2   -1    0    0  502    0  0.00000000000E+00 -0.00000000000E+00 -0.37539593507E+03  0.37539593507E+03  0.00000000000E+00 0. -1.
          6    1    1    2  502    0  0.12396586828E+03 -0.24138477278E+03 -0.16372400152E+03  0.36106605172E+03  0.17300000000E+03 0. -1.
         -6    1    1    2    0  501 -0.12396586828E+03  0.24138477278E+03  0.11611925183E+03  0.34212106874E+03  0.17300000000E+03 0. -1.
<mgrwt>
<rscale>  2 0.32181228E+03</rscale>
<asrwt>0</asrwt>
<pdfrwt beam="1">  1        2 0.57753221E-01 0.32181228E+03</pdfrwt>
<pdfrwt beam="2">  1       -2 0.50429413E-01 0.32181228E+03</pdfrwt>
<totfact> 0.32459510E+02</totfact>
</mgrwt>
</event>
<event>
 4    2  0.9452525E-001  0.1787102E+03  0.7546771E-02  0.1169057E+00
          2   -1    0    0  502    0  0.00000000000E+00  0.00000000000E+00  0.17469854114E+04  0.17469854114E+04  0.00000000000E+00 0.  1.
         -2   -1    0    0    0  501 -0.00000000000E+00 -0.00000000000E+00 -0.29052290587E+02  0.29052290587E+02  0.00000000000E+00 0. -1.
          6    1    1    2  502    0 -0.38091541729E+02 -0.23608442421E+02  0.31826456087E+03  0.36500637640E+03  0.17300000000E+03 0. -1.
         -6    1    1    2    0  501  0.38091541729E+02  0.23608442421E+02  0.13996685600E+04  0.14110313256E+04  0.17300000000E+03 0.  1.
<mgrwt>
<rscale>  2 0.17871017E+03</rscale>
<asrwt>0</asrwt>
<pdfrwt beam="1">  1        2 0.26876691E+00 0.17871017E+03</pdfrwt>
<pdfrwt beam="2">  1       -2 0.44695845E-02 0.17871017E+03</pdfrwt>
<totfact> 0.23495074E+03</totfact>
</mgrwt>
</event>
<event>
 4    2  0.9452525E-001  0.1772860E+03  0.7546771E-02  0.1170456E+00
          1   -1    0    0  502    0  0.00000000000E+00  0.00000000000E+00  0.35699417315E+03  0.35699417315E+03  0.00000000000E+00 0. -1.
         -1   -1    0    0    0  501 -0.00000000000E+00 -0.00000000000E+00 -0.11039998728E+03  0.11039998728E+03  0.00000000000E+00 0.  1.
          6    1    1    2  502    0  0.38746806313E+02  0.11394449808E-01  0.18127634028E+02  0.17821034270E+03  0.17300000000E+03 0.  1.
         -6    1    1    2    0  501 -0.38746806313E+02 -0.11394449808E-01  0.22846655184E+03  0.28918381774E+03  0.17300000000E+03 0. -1.
<mgrwt>
<rscale>  2 0.17728597E+03</rscale>
<asrwt>0</asrwt>
<pdfrwt beam="1">  1        1 0.54922180E-01 0.17728597E+03</pdfrwt>
<pdfrwt beam="2">  1       -1 0.16984614E-01 0.17728597E+03</pdfrwt>
<totfact> 0.18254969E+03</totfact>
</mgrwt>
</event>
<event>
 4    2  0.9452525E-001  0.1865470E+03  0.7546771E-02  0.1161613E+00
          2   -1    0    0  502    0  0.00000000000E+00  0.00000000000E+00  0.55244452704E+03  0.55244452704E+03  0.00000000000E+00 0. -1.
         -2   -1    0    0    0  501 -0.00000000000E+00 -0.00000000000E+00 -0.10596671237E+03  0.10596671237E+03  0.00000000000E+00 0.  1.
          6    1    1    2  502    0  0.63059528500E+02  0.29904723295E+02  0.43288514346E+03  0.47136964692E+03  0.17300000000E+03 0. -1.
         -6    1    1    2    0  501 -0.63059528500E+02 -0.29904723295E+02  0.13592671215E+02  0.18704159249E+03  0.17300000000E+03 0.  1.
<mgrwt>
<rscale>  2 0.18654704E+03</rscale>
<asrwt>0</asrwt>
<pdfrwt beam="1">  1        2 0.84991464E-01 0.18654704E+03</pdfrwt>
<pdfrwt beam="2">  1       -2 0.16302572E-01 0.18654704E+03</pdfrwt>
<totfact> 0.16431952E+03</totfact>
</mgrwt>
</event>
<event>
 4    2  0.9452525E-001  0.2053944E+03  0.7546771E-02  0.1145266E+00
          2   -1    0    0  502    0  0.00000000000E+00  0.00000000000E+00  0.62992852635E+03  0.62992852635E+03  0.00000000000E+00 0. -1.
         -2   -1    0    0    0  501 -0.00000000000E+00 -0.00000000000E+00 -0.10366529567E+03  0.10366529567E+03  0.00000000000E+00 0.  1.
          6    1    1    2  502    0  0.10330198705E+03 -0.39831839017E+02  0.44904412759E+02  0.21024576622E+03  0.17300000000E+03 0.  1.
         -6    1    1    2    0  501 -0.10330198705E+03  0.39831839017E+02  0.48135881792E+03  0.52334805580E+03  0.17300000000E+03 0. -1.
<mgrwt>
<rscale>  2 0.20539444E+03</rscale>
<asrwt>0</asrwt>
<pdfrwt beam="1">  1        2 0.96912079E-01 0.20539444E+03</pdfrwt>
<pdfrwt beam="2">  1       -2 0.15948507E-01 0.20539444E+03</pdfrwt>
<totfact> 0.14675895E+03</totfact>
</mgrwt>
</event>
<event>
 4    2  0.9452525E-001  0.1888866E+03  0.7546771E-02  0.1159469E+00
         -1   -1    0    0    0  501 -0.00000000000E+00  0.00000000000E+00  0.28036801991E+02  0.28036801991E+02  0.00000000000E+00 0.  1.
          1   -1    0    0  502    0  0.00000000000E+00 -0.00000000000E+00 -0.12730308834E+04  0.12730308834E+04  0.00000000000E+00 0. -1.
          6    1    1    2  502    0  0.49401328808E+02 -0.57521002525E+02 -0.60981816995E+03  0.63840140775E+03  0.17300000000E+03 0.  1.
         -6    1    1    2    0  501 -0.49401328808E+02  0.57521002525E+02 -0.63517591146E+03  0.66266627763E+03  0.17300000000E+03 0.  1.
<mgrwt>
<rscale>  2 0.18888662E+03</rscale>
<asrwt>0</asrwt>
<pdfrwt beam="1">  1        1 0.19585094E+00 0.18888662E+03</pdfrwt>
<pdfrwt beam="2">  1       -1 0.43133535E-02 0.18888662E+03</pdfrwt>
<totfact> 0.22326781E+03</totfact>
</mgrwt>
</event>
<event>
 4    2  0.9452525E-001  0.2009777E+03  0.7546771E-02  0.1148917E+00
          2   -1    0    0  502    0  0.00000000000E+00  0.00000000000E+00  0.18411082932E+04  0.18411082932E+04  0.00000000000E+00 0. -1.
         -2   -1    0    0    0  501 -0.00000000000E+00 -0.00000000000E+00 -0.22312877740E+02  0.22312877740E+02  0.00000000000E+00 0.  1.
          6    1    1    2  502    0 -0.77110023317E+02 -0.67209171964E+02  0.10300075260E+04  0.10494320045E+04  0.17300000000E+03 0. -1.
         -6    1    1    2    0  501  0.77110023317E+02  0.67209171964E+02  0.78878788944E+03  0.81398916640E+03  0.17300000000E+03 0.  1.
<mgrwt>
<rscale>  2 0.20097768E+03</rscale>
<asrwt>0</asrwt>
<pdfrwt beam="1">  1        2 0.28324731E+00 0.20097768E+03</pdfrwt>
<pdfrwt beam="2">  1       -2 0.34327519E-02 0.20097768E+03</pdfrwt>
<totfact> 0.31167024E+03</totfact>
</mgrwt>
</event>
<event>
 4    2  0.9452525E-001  0.2675858E+03  0.7546771E-02  0.1102669E+00
          1   -1    0    0  502    0  0.00000000000E+00  0.00000000000E+00  0.14625212884E+04  0.14625212884E+04  0.00000000000E+00 0.  1.
         -1   -1    0    0    0  501 -0.00000000000E+00 -0.00000000000E+00 -0.49407411058E+02  0.49407411058E+02  0.00000000000E+00 0. -1.
          6    1    1    2  502    0 -0.20120496484E+03  0.34492374035E+02  0.77865314950E+03  0.82334858290E+03  0.17300000000E+03 0.  1.
         -6    1    1    2    0  501  0.20120496484E+03 -0.34492374035E+02  0.63446072789E+03  0.68858011660E+03  0.17300000000E+03 0. -1.
<mgrwt>
<rscale>  2 0.26758580E+03</rscale>
<asrwt>0</asrwt>
<pdfrwt beam="1">  1        1 0.22500324E+00 0.26758580E+03</pdfrwt>
<pdfrwt beam="2">  1       -1 0.76011413E-02 0.26758580E+03</pdfrwt>
<totfact> 0.70704405E+02</totfact>
</mgrwt>
</event>
<event>
 4    2  0.9452525E-001  0.1956676E+03  0.7546771E-02  0.1153447E+00
          1   -1    0    0  502    0  0.00000000000E+00  0.00000000000E+00  0.57160593892E+03  0.57160593892E+03  0.00000000000E+00 0. -1.
         -1   -1    0    0    0  501 -0.00000000000E+00 -0.00000000000E+00 -0.75260404507E+02  0.75260404507E+02  0.00000000000E+00 0.  1.
          6    1    1    2  502    0  0.70914474792E+01  0.91140100776E+02  0.14088664691E+03  0.24111170414E+03  0.17300000000E+03 0.  1.
         -6    1    1    2    0  501 -0.70914474792E+01 -0.91140100776E+02  0.35545888750E+03  0.40575463929E+03  0.17300000000E+03 0. -1.
<mgrwt>
<rscale>  2 0.19566759E+03</rscale>
<asrwt>0</asrwt>
<pdfrwt beam="1">  1        1 0.87939372E-01 0.19566759E+03</pdfrwt>
<pdfrwt beam="2">  1       -1 0.11578524E-01 0.19566759E+03</pdfrwt>
<totfact> 0.18119820E+03</totfact>
</mgrwt>
</event>
<event>
 4    2  0.9452525E-001  0.2009498E+03  0.7546771E-02  0.1148940E+00
         -1   -1    0    0    0  501 -0.00000000000E+00  0.00000000000E+00  0.27269642608E+03  0.27269642608E+03  0.00000000000E+00 0. -1.
          1   -1    0    0  502    0  0.00000000000E+00 -0.00000000000E+00 -0.16994130543E+03  0.16994130543E+03  0.00000000000E+00 0.  1.
          6    1    1    2  502    0  0.95499940365E+02 -0.36490627458E+02  0.13075736090E+03  0.23974630744E+03  0.17300000000E+03 0. -1.
         -6    1    1    2    0  501 -0.95499940365E+02  0.36490627458E+02 -0.28002240251E+02  0.20289142407E+03  0.17300000000E+03 0.  1.
<mgrwt>
<rscale>  2 0.20094976E+03</rscale>
<asrwt>0</asrwt>
<pdfrwt beam="1">  1        1 0.26144816E-01 0.20094976E+03</pdfrwt>
<pdfrwt beam="2">  1       -1 0.41953296E-01 0.20094976E+03</pdfrwt>
<totfact> 0.10201112E+03</totfact>
</mgrwt>
</event>
<event>
 4    2  0.9452525E-001  0.2485138E+03  0.7546771E-02  0.1114248E+00
         -2   -1    0    0    0  501 -0.00000000000E+00  0.00000000000E+00  0.10787521204E+03  0.10787521204E+03  0.00000000000E+00 0. -1.
          2   -1    0    0  502    0  0.00000000000E+00 -0.00000000000E+00 -0.57398468164E+03  0.57398468164E+03  0.00000000000E+00 0.  1.
          6    1    1    2  502    0  0.13910783281E+03 -0.11170998326E+03 -0.21574526155E+03  0.32909744361E+03  0.17300000000E+03 0.  1.
         -6    1    1    2    0  501 -0.13910783281E+03  0.11170998326E+03 -0.25036420805E+03  0.35276245007E+03  0.17300000000E+03 0. -1.
<mgrwt>
<rscale>  2 0.24851380E+03</rscale>
<asrwt>0</asrwt>
<pdfrwt beam="1">  1        2 0.88305335E-01 0.24851380E+03</pdfrwt>
<pdfrwt beam="2">  1       -2 0.16596187E-01 0.24851380E+03</pdfrwt>
<totfact> 0.15334483E+03</totfact>
</mgrwt>
</event>
<event>
 4    2  0.9452525E-001  0.1819547E+03  0.7546771E-02  0.1165925E+00
         -2   -1    0    0    0  501 -0.00000000000E+00  0.00000000000E+00  0.76236888617E+02  0.76236888617E+02  0.00000000000E+00 0.  1.
          2   -1    0    0  502    0  0.00000000000E+00 -0.00000000000E+00 -0.90553785017E+03  0.90553785017E+03  0.00000000000E+00 0. -1.
          6    1    1    2  502    0  0.34901990456E+02 -0.44276041288E+02 -0.60521298868E+02  0.19175595007E+03  0.17300000000E+03 0.  1.
         -6    1    1    2    0  501 -0.34901990456E+02  0.44276041288E+02 -0.76877966269E+03  0.79001878872E+03  0.17300000000E+03 0. -1.
<mgrwt>
<rscale>  2 0.18195471E+03</rscale>
<asrwt>0</asrwt>
<pdfrwt beam="1">  1        2 0.13931352E+00 0.18195471E+03</pdfrwt>
<pdfrwt beam="2">  1       -2 0.11728752E-01 0.18195471E+03</pdfrwt>
<totfact> 0.15432492E+03</totfact>
</mgrwt>
</event>
<event>
 4    2  0.9452525E-001  0.2110248E+03  0.7546771E-02  0.1140757E+00
         -2   -1    0    0    0  501 -0.00000000000E+00  0.00000000000E+00  0.14885975902E+02  0.14885975902E+02  0.00000000000E+00 0. -1.
          2   -1    0    0  502    0  0.00000000000E+00 -0.00000000000E+00 -0.36676773515E+04  0.36676773515E+04  0.00000000000E+00 0.  1.
          6    1    1    2  502    0 -0.99332285527E+02  0.68815506564E+02 -0.26169892091E+04  0.26254835741E+04  0.17300000000E+03 0.  1.
         -6    1    1    2    0  501  0.99332285527E+02 -0.68815506564E+02 -0.10358021665E+04  0.10570797534E+04  0.17300000000E+03 0. -1.
<mgrwt>
<rscale>  2 0.21102483E+03</rscale>
<asrwt>0</asrwt>
<pdfrwt beam="1">  1        2 0.56425859E+00 0.21102483E+03</pdfrwt>
<pdfrwt beam="2">  1       -2 0.22901480E-02 0.21102483E+03</pdfrwt>
<totfact> 0.50350835E+02</totfact>
</mgrwt>
</event>
<event>
 4    2  0.9452525E-001  0.2811576E+03  0.7546771E-02  0.1095058E+00
          2   -1    0    0  502    0  0.00000000000E+00  0.00000000000E+00  0.28613271255E+04  0.28613271255E+04  0.00000000000E+00 0. -1.
         -2   -1    0    0    0  501 -0.00000000000E+00 -0.00000000000E+00 -0.27725887080E+02  0.27725887080E+02  0.00000000000E+00 0.  1.
          6    1    1    2  502    0  0.43816108236E+02  0.21725733422E+03  0.15031124488E+04  0.15291816878E+04  0.17300000000E+03 0. -1.
         -6    1    1    2    0  501 -0.43816108236E+02 -0.21725733422E+03  0.13304887897E+04  0.13598713248E+04  0.17300000000E+03 0.  1.
<mgrwt>
<rscale>  2 0.28115761E+03</rscale>
<asrwt>0</asrwt>
<pdfrwt beam="1">  1        2 0.44020394E+00 0.28115761E+03</pdfrwt>
<pdfrwt beam="2">  1       -2 0.42655234E-02 0.28115761E+03</pdfrwt>
<totfact> 0.62499999E+02</totfact>
</mgrwt>
</event>
<event>
 4    2  0.9452525E-001  0.2145974E+03  0.7546771E-02  0.1137976E+00
          2   -1    0    0  502    0  0.00000000000E+00  0.00000000000E+00  0.48206287224E+03  0.48206287224E+03  0.00000000000E+00 0. -1.
         -2   -1    0    0    0  501 -0.00000000000E+00 -0.00000000000E+00 -0.95561660215E+02  0.95561660215E+02  0.00000000000E+00 0.  1.
          6    1    1    2  502    0  0.27925516412E+02 -0.12386770924E+03  0.19840707176E+03  0.29226257027E+03  0.17300000000E+03 0.  1.
         -6    1    1    2    0  501 -0.27925516412E+02  0.12386770924E+03  0.18809414026E+03  0.28536196218E+03  0.17300000000E+03 0.  1.
<mgrwt>
<rscale>  2 0.21459740E+03</rscale>
<asrwt>0</asrwt>
<pdfrwt beam="1">  1        2 0.74163518E-01 0.21459740E+03</pdfrwt>
<pdfrwt beam="2">  1       -2 0.14701794E-01 0.21459740E+03</pdfrwt>
<totfact> 0.22779542E+03</totfact>
</mgrwt>
</event>
<event>
 4    2  0.9452525E-001  0.1794703E+03  0.7546771E-02  0.1168317E+00
          2   -1    0    0  502    0  0.00000000000E+00  0.00000000000E+00  0.54255964912E+03  0.54255964912E+03  0.00000000000E+00 0. -1.
         -2   -1    0    0    0  501 -0.00000000000E+00 -0.00000000000E+00 -0.60525512285E+02  0.60525512285E+02  0.00000000000E+00 0.  1.
          6    1    1    2  502    0 -0.47754425026E+02  0.31881168323E+00  0.19928015534E+03  0.26818308497E+03  0.17300000000E+03 0.  1.
         -6    1    1    2    0  501  0.47754425026E+02 -0.31881168323E+00  0.28275398150E+03  0.33490207644E+03  0.17300000000E+03 0. -1.
<mgrwt>
<rscale>  2 0.17947029E+03</rscale>
<asrwt>0</asrwt>
<pdfrwt beam="1">  1        2 0.83470712E-01 0.17947029E+03</pdfrwt>
<pdfrwt beam="2">  1       -2 0.93116177E-02 0.17947029E+03</pdfrwt>
<totfact> 0.41357182E+03</totfact>
</mgrwt>
</event>
<event>
 4    2  0.9452525E-001  0.1970883E+03  0.7546771E-02  0.1152219E+00
         -2   -1    0    0    0  501 -0.00000000000E+00  0.00000000000E+00  0.16845600188E+03  0.16845600188E+03  0.00000000000E+00 0. -1.
          2   -1    0    0  502    0  0.00000000000E+00 -0.00000000000E+00 -0.23422203621E+03  0.23422203621E+03  0.00000000000E+00 0.  1.
          6    1    1    2  502    0  0.29818977934E+02  0.89585934315E+02 -0.78016164322E+01  0.19724268375E+03  0.17300000000E+03 0. -1.
         -6    1    1    2    0  501 -0.29818977934E+02 -0.89585934315E+02 -0.57964417901E+02  0.20543535434E+03  0.17300000000E+03 0.  1.
<mgrwt>
<rscale>  2 0.19708833E+03</rscale>
<asrwt>0</asrwt>
<pdfrwt beam="1">  1        2 0.36034159E-01 0.19708833E+03</pdfrwt>
<pdfrwt beam="2">  1       -2 0.25916308E-01 0.19708833E+03</pdfrwt>
<totfact> 0.18880078E+03</totfact>
</mgrwt>
</event>
<event>
 4    2  0.9452525E-001  0.1889859E+03  0.7546771E-02  0.1159379E+00
         -1   -1    0    0    0  501 -0.00000000000E+00  0.00000000000E+00  0.31536153543E+02  0.31536153543E+02  0.00000000000E+00 0.  1.
          1   -1    0    0  502    0  0.00000000000E+00 -0.00000000000E+00 -0.12551437739E+04  0.12551437739E+04  0.00000000000E+00 0. -1.
          6    1    1    2  502    0  0.72407441384E+02 -0.23319857745E+02 -0.41072668304E+03  0.45211952125E+03  0.17300000000E+03 0.  1.
         -6    1    1    2    0  501 -0.72407441384E+02  0.23319857745E+02 -0.81288093730E+03  0.83456040618E+03  0.17300000000E+03 0. -1.
<mgrwt>
<rscale>  2 0.18898585E+03</rscale>
<asrwt>0</asrwt>
<pdfrwt beam="1">  1        1 0.19309904E+00 0.18898585E+03</pdfrwt>
<pdfrwt beam="2">  1       -1 0.48517160E-02 0.18898585E+03</pdfrwt>
<totfact> 0.19277961E+03</totfact>
</mgrwt>
</event>
<event>
 4    2  0.9452525E-001  0.1771768E+03  0.7546771E-02  0.1170564E+00
         -2   -1    0    0    0  501 -0.00000000000E+00  0.00000000000E+00  0.41722870470E+02  0.41722870470E+02  0.00000000000E+00 0. -1.
          2   -1    0    0  502    0  0.00000000000E+00 -0.00000000000E+00 -0.99553757598E+03  0.99553757598E+03  0.00000000000E+00 0.  1.
          6    1    1    2  502    0 -0.22531963933E+02  0.30902209310E+02 -0.22059532505E+03  0.28293803805E+03  0.17300000000E+03 0. -1.
         -6    1    1    2    0  501  0.22531963933E+02 -0.30902209310E+02 -0.73321938046E+03  0.75432240840E+03  0.17300000000E+03 0.  1.
<mgrwt>
<rscale>  2 0.17717685E+03</rscale>
<asrwt>0</asrwt>
<pdfrwt beam="1">  1        2 0.15315962E+00 0.17717685E+03</pdfrwt>
<pdfrwt beam="2">  1       -2 0.64189034E-02 0.17717685E+03</pdfrwt>
<totfact> 0.34854258E+03</totfact>
</mgrwt>
</event>
<event>
 4    2  0.9452525E-001  0.2202783E+03  0.7546771E-02  0.1133676E+00
          1   -1    0    0  502    0  0.00000000000E+00  0.00000000000E+00  0.87692603219E+02  0.87692603219E+02  0.00000000000E+00 0. -1.
         -1   -1    0    0    0  501 -0.00000000000E+00 -0.00000000000E+00 -0.56980547696E+03  0.56980547696E+03  0.00000000000E+00 0.  1.
          6    1    1    2  502    0  0.91446054975E+02 -0.10114918647E+03 -0.18514744237E+03  0.28775356524E+03  0.17300000000E+03 0. -1.
         -6    1    1    2    0  501 -0.91446054975E+02  0.10114918647E+03 -0.29696543137E+03  0.36974451493E+03  0.17300000000E+03 0.  1.
<mgrwt>
<rscale>  2 0.22027832E+03</rscale>
<asrwt>0</asrwt>
<pdfrwt beam="1">  1        1 0.13491169E-01 0.22027832E+03</pdfrwt>
<pdfrwt beam="2">  1       -1 0.87662383E-01 0.22027832E+03</pdfrwt>
<totfact> 0.57713550E+02</totfact>
</mgrwt>
</event>
<event>
 4    2  0.9452525E-001  0.2018169E+03  0.7546771E-02  0.1148215E+00
         -3   -1    0    0    0  501 -0.00000000000E+00  0.00000000000E+00  0.19904141288E+04  0.19904141288E+04  0.00000000000E+00 0. -1.
          3   -1    0    0  502    0  0.00000000000E+00 -0.00000000000E+00 -0.22930191876E+02  0.22930191876E+02  0.00000000000E+00 0.  1.
          6    1    1    2  502    0 -0.59786382116E+02 -0.85009758952E+02  0.13139409054E+04  0.13293497559E+04  0.17300000000E+03 0. -1.
         -6    1    1    2    0  501  0.59786382116E+02  0.85009758952E+02  0.65354303156E+03  0.68399456482E+03  0.17300000000E+03 0.  1.
<mgrwt>
<rscale>  2 0.20181692E+03</rscale>
<asrwt>0</asrwt>
<pdfrwt beam="1">  1        3 0.35277234E-02 0.20181692E+03</pdfrwt>
<pdfrwt beam="2">  1       -3 0.30621742E+00 0.20181692E+03</pdfrwt>
<totfact> 0.39850163E+01</totfact>
</mgrwt>
</event>
<event>
 4    2  0.9452525E-001  0.1777498E+03  0.7546771E-02  0.1169999E+00
          2   -1    0    0  502    0  0.00000000000E+00  0.00000000000E+00  0.23488318817E+04  0.23488318817E+04  0.00000000000E+00 0.  1.
         -2   -1    0    0    0  501 -0.00000000000E+00 -0.00000000000E+00 -0.28469074627E+02  0.28469074627E+02  0.00000000000E+00 0. -1.
          6    1    1    2  502    0 -0.21641479226E+02 -0.34606990393E+02  0.20234964901E+04  0.20312885179E+04  0.17300000000E+03 0.  1.
         -6    1    1    2    0  501  0.21641479226E+02  0.34606990393E+02  0.29686631695E+03  0.34601243843E+03  0.17300000000E+03 0. -1.
<mgrwt>
<rscale>  2 0.17774982E+03</rscale>
<asrwt>0</asrwt>
<pdfrwt beam="1">  1        2 0.36135860E+00 0.17774982E+03</pdfrwt>
<pdfrwt beam="2">  1       -2 0.43798595E-02 0.17774982E+03</pdfrwt>
<totfact> 0.11775508E+03</totfact>
</mgrwt>
</event>
<event>
 4    2  0.9452525E-001  0.2026240E+03  0.7546771E-02  0.1147544E+00
         -2   -1    0    0    0  501 -0.00000000000E+00  0.00000000000E+00  0.41127435087E+02  0.41127435087E+02  0.00000000000E+00 0.  1.
          2   -1    0    0  502    0  0.00000000000E+00 -0.00000000000E+00 -0.10804900967E+04  0.10804900967E+04  0.00000000000E+00 0. -1.
          6    1    1    2  502    0  0.10500033616E+03  0.10120311861E+02 -0.67437769871E+03  0.70416033105E+03  0.17300000000E+03 0. -1.
         -6    1    1    2    0  501 -0.10500033616E+03 -0.10120311861E+02 -0.36498496293E+03  0.41745720076E+03  0.17300000000E+03 0.  1.
<mgrwt>
<rscale>  2 0.20262401E+03</rscale>
<asrwt>0</asrwt>
<pdfrwt beam="1">  1        2 0.16622923E+00 0.20262401E+03</pdfrwt>
<pdfrwt beam="2">  1       -2 0.63272983E-02 0.20262401E+03</pdfrwt>
<totfact> 0.31800020E+03</totfact>
</mgrwt>
</event>
<event>
 4    2  0.9452525E-001  0.1941857E+03  0.7546771E-02  0.1154739E+00
         -2   -1    0    0    0  501 -0.00000000000E+00  0.00000000000E+00  0.70172741624E+02  0.70172741624E+02  0.00000000000E+00 0. -1.
          2   -1    0    0  502    0  0.00000000000E+00 -0.00000000000E+00 -0.57552795977E+03  0.57552795977E+03  0.00000000000E+00 0.  1.
          6    1    1    2  502    0 -0.69715826079E+02 -0.54025713838E+02 -0.16953694470E+03  0.25778062336E+03  0.17300000000E+03 0. -1.
         -6    1    1    2    0  501  0.69715826079E+02  0.54025713838E+02 -0.33581827345E+03  0.38792007803E+03  0.17300000000E+03 0.  1.
<mgrwt>
<rscale>  2 0.19418567E+03</rscale>
<asrwt>0</asrwt>
<pdfrwt beam="1">  1        2 0.88542762E-01 0.19418567E+03</pdfrwt>
<pdfrwt beam="2">  1       -2 0.10795807E-01 0.19418567E+03</pdfrwt>
<totfact> 0.30692053E+03</totfact>
</mgrwt>
</event>
<event>
 4    2  0.9452525E-001  0.1928424E+03  0.7546771E-02  0.1155922E+00
          2   -1    0    0  502    0  0.00000000000E+00  0.00000000000E+00  0.21889705901E+04  0.21889705901E+04  0.00000000000E+00 0. -1.
         -2   -1    0    0    0  501 -0.00000000000E+00 -0.00000000000E+00 -0.17123327185E+02  0.17123327185E+02  0.00000000000E+00 0.  1.
          6    1    1    2  502    0 -0.63241323569E+02  0.57093850572E+02  0.98818519725E+03  0.10068257828E+04  0.17300000000E+03 0.  1.
         -6    1    1    2    0  501  0.63241323569E+02 -0.57093850572E+02  0.11836620657E+04  0.11992681346E+04  0.17300000000E+03 0. -1.
<mgrwt>
<rscale>  2 0.19284235E+03</rscale>
<asrwt>0</asrwt>
<pdfrwt beam="1">  1        2 0.33676448E+00 0.19284235E+03</pdfrwt>
<pdfrwt beam="2">  1       -2 0.26343598E-02 0.19284235E+03</pdfrwt>
<totfact> 0.30418234E+03</totfact>
</mgrwt>
</event>
<event>
 4    2  0.9452525E-001  0.2110142E+03  0.7546771E-02  0.1140765E+00
          2   -1    0    0  502    0  0.00000000000E+00  0.00000000000E+00  0.71847537921E+03  0.71847537921E+03  0.00000000000E+00 0. -1.
         -2   -1    0    0    0  501 -0.00000000000E+00 -0.00000000000E+00 -0.81602138823E+02  0.81602138823E+02  0.00000000000E+00 0.  1.
          6    1    1    2  502    0  0.11046322272E+03  0.48947741338E+02  0.51463146850E+03  0.55621268713E+03  0.17300000000E+03 0. -1.
         -6    1    1    2    0  501 -0.11046322272E+03 -0.48947741338E+02  0.12224177188E+03  0.24386483090E+03  0.17300000000E+03 0.  1.
<mgrwt>
<rscale>  2 0.21101423E+03</rscale>
<asrwt>0</asrwt>
<pdfrwt beam="1">  1        2 0.11053467E+00 0.21101423E+03</pdfrwt>
<pdfrwt beam="2">  1       -2 0.12554176E-01 0.21101423E+03</pdfrwt>
<totfact> 0.18578641E+03</totfact>
</mgrwt>
</event>
<event>
 4    2  0.9452525E-001  0.2219850E+03  0.7546771E-02  0.1132412E+00
         -2   -1    0    0    0  501 -0.00000000000E+00  0.00000000000E+00  0.41087989566E+02  0.41087989566E+02  0.00000000000E+00 0. -1.
          2   -1    0    0  502    0  0.00000000000E+00 -0.00000000000E+00 -0.12232404822E+04  0.12232404822E+04  0.00000000000E+00 0.  1.
          6    1    1    2  502    0 -0.13014506368E+03  0.49097919008E+02 -0.50266119431E+03  0.54949578662E+03  0.17300000000E+03 0. -1.
         -6    1    1    2    0  501  0.13014506368E+03 -0.49097919008E+02 -0.67949129833E+03  0.71483268515E+03  0.17300000000E+03 0.  1.
<mgrwt>
<rscale>  2 0.22198501E+03</rscale>
<asrwt>0</asrwt>
<pdfrwt beam="1">  1        2 0.18819083E+00 0.22198501E+03</pdfrwt>
<pdfrwt beam="2">  1       -2 0.63212296E-02 0.22198501E+03</pdfrwt>
<totfact> 0.26407930E+03</totfact>
</mgrwt>
</event>
<event>
 4    2  0.9452525E-001  0.1902000E+03  0.7546771E-02  0.1158281E+00
          2   -1    0    0  502    0  0.00000000000E+00  0.00000000000E+00  0.16023874062E+04  0.16023874062E+04  0.00000000000E+00 0. -1.
         -2   -1    0    0    0  501 -0.00000000000E+00 -0.00000000000E+00 -0.23932652547E+02  0.23932652547E+02  0.00000000000E+00 0.  1.
          6    1    1    2  502    0 -0.70474830955E+02  0.35781793613E+02  0.59564717943E+03  0.62527721925E+03  0.17300000000E+03 0. -1.
         -6    1    1    2    0  501  0.70474830955E+02 -0.35781793613E+02  0.98280757419E+03  0.10010428395E+04  0.17300000000E+03 0. -1.
<mgrwt>
<rscale>  2 0.19020000E+03</rscale>
<asrwt>0</asrwt>
<pdfrwt beam="1">  1        2 0.24652106E+00 0.19020000E+03</pdfrwt>
<pdfrwt beam="2">  1       -2 0.36819478E-02 0.19020000E+03</pdfrwt>
<totfact> 0.37358140E+03</totfact>
</mgrwt>
</event>
<event>
 4    2  0.9452525E-001  0.2359779E+03  0.7546771E-02  0.1122502E+00
          2   -1    0    0  502    0  0.00000000000E+00  0.00000000000E+00  0.35411032019E+03  0.35411032019E+03  0.00000000000E+00 0. -1.
         -2   -1    0    0    0  501 -0.00000000000E+00 -0.00000000000E+00 -0.16176988582E+03  0.16176988582E+03  0.00000000000E+00 0.  1.
          6    1    1    2  502    0 -0.16048700563E+03 -0.68753186333E+00  0.13926279533E+03  0.27400671131E+03  0.17300000000E+03 0.  1.
         -6    1    1    2    0  501  0.16048700563E+03  0.68753186333E+00  0.53077639037E+02  0.24187349471E+03  0.17300000000E+03 0.  1.
<mgrwt>
<rscale>  2 0.23597786E+03</rscale>
<asrwt>0</asrwt>
<pdfrwt beam="1">  1        2 0.54478510E-01 0.23597786E+03</pdfrwt>
<pdfrwt beam="2">  1       -2 0.24887675E-01 0.23597786E+03</pdfrwt>
<totfact> 0.13046979E+03</totfact>
</mgrwt>
</event>
<event>
 4    2  0.9452525E-001  0.1913257E+03  0.7546771E-02  0.1157271E+00
          2   -1    0    0  502    0  0.00000000000E+00  0.00000000000E+00  0.46028252694E+03  0.46028252694E+03  0.00000000000E+00 0.  1.
         -2   -1    0    0    0  501 -0.00000000000E+00 -0.00000000000E+00 -0.97546511513E+02  0.97546511513E+02  0.00000000000E+00 0. -1.
          6    1    1    2  502    0  0.66174978703E+02  0.47931284939E+02  0.61495439834E+02  0.20096573092E+03  0.17300000000E+03 0. -1.
         -6    1    1    2    0  501 -0.66174978703E+02 -0.47931284939E+02  0.30124057560E+03  0.35686330754E+03  0.17300000000E+03 0. -1.
<mgrwt>
<rscale>  2 0.19132573E+03</rscale>
<asrwt>0</asrwt>
<pdfrwt beam="1">  1        2 0.70812695E-01 0.19132573E+03</pdfrwt>
<pdfrwt beam="2">  1       -2 0.15007156E-01 0.19132573E+03</pdfrwt>
<totfact> 0.23104578E+03</totfact>
</mgrwt>
</event>
<event>
 4    2  0.9452525E-001  0.1927077E+03  0.7546771E-02  0.1156042E+00
         -2   -1    0    0    0  501 -0.00000000000E+00  0.00000000000E+00  0.56628458228E+02  0.56628458228E+02  0.00000000000E+00 0.  1.
          2   -1    0    0  502    0  0.00000000000E+00 -0.00000000000E+00 -0.66930751359E+03  0.66930751359E+03  0.00000000000E+00 0. -1.
          6    1    1    2  502    0  0.67312222270E+02 -0.51733358348E+02 -0.35792560738E+03  0.40650586226E+03  0.17300000000E+03 0. -1.
         -6    1    1    2    0  501 -0.67312222270E+02  0.51733358348E+02 -0.25475344798E+03  0.31943010955E+03  0.17300000000E+03 0.  1.
<mgrwt>
<rscale>  2 0.19270775E+03</rscale>
<asrwt>0</asrwt>
<pdfrwt beam="1">  1        2 0.10297040E+00 0.19270775E+03</pdfrwt>
<pdfrwt beam="2">  1       -2 0.87120698E-02 0.19270775E+03</pdfrwt>
<totfact> 0.36126181E+03</totfact>
</mgrwt>
</event>
<event>
 4    2  0.9452525E-001  0.1834785E+03  0.7546771E-02  0.1164478E+00
         -2   -1    0    0    0  501 -0.00000000000E+00  0.00000000000E+00  0.20901417437E+03  0.20901417437E+03  0.00000000000E+00 0. -1.
          2   -1    0    0  502    0  0.00000000000E+00 -0.00000000000E+00 -0.16207211525E+03  0.16207211525E+03  0.00000000000E+00 0.  1.
          6    1    1    2  502    0 -0.36085543384E+02  0.49327323972E+02  0.88269300354E+01  0.18369068029E+03  0.17300000000E+03 0.  1.
         -6    1    1    2    0  501  0.36085543384E+02 -0.49327323972E+02  0.38115129083E+02  0.18739560933E+03  0.17300000000E+03 0.  1.
<mgrwt>
<rscale>  2 0.18347848E+03</rscale>
<asrwt>0</asrwt>
<pdfrwt beam="1">  1        2 0.24934171E-01 0.18347848E+03</pdfrwt>
<pdfrwt beam="2">  1       -2 0.32156027E-01 0.18347848E+03</pdfrwt>
<totfact> 0.19120042E+03</totfact>
</mgrwt>
</event>
<event>
 4    2  0.9452525E-001  0.1942067E+03  0.7546771E-02  0.1154721E+00
         -2   -1    0    0    0  501 -0.00000000000E+00  0.00000000000E+00  0.14460269642E+03  0.14460269642E+03  0.00000000000E+00 0. -1.
          2   -1    0    0  502    0  0.00000000000E+00 -0.00000000000E+00 -0.26918735557E+03  0.26918735557E+03  0.00000000000E+00 0.  1.
          6    1    1    2  502    0  0.26567438382E+02  0.84151201966E+02 -0.25830270574E+02  0.19591696316E+03  0.17300000000E+03 0. -1.
         -6    1    1    2    0  501 -0.26567438382E+02 -0.84151201966E+02 -0.98754388580E+02  0.21787308883E+03  0.17300000000E+03 0.  1.
<mgrwt>
<rscale>  2 0.19420673E+03</rscale>
<asrwt>0</asrwt>
<pdfrwt beam="1">  1        2 0.41413439E-01 0.19420673E+03</pdfrwt>
<pdfrwt beam="2">  1       -2 0.22246569E-01 0.19420673E+03</pdfrwt>
<totfact> 0.21219754E+03</totfact>
</mgrwt>
</event>
<event>
 4    2  0.9452525E-001  0.1756198E+03  0.7546771E-02  0.1172111E+00
         -2   -1    0    0    0  501 -0.00000000000E+00  0.00000000000E+00  0.31153878937E+03  0.31153878937E+03  0.00000000000E+00 0.  1.
          2   -1    0    0  502    0  0.00000000000E+00 -0.00000000000E+00 -0.11918667595E+03  0.11918667595E+03  0.00000000000E+00 0. -1.
          6    1    1    2  502    0 -0.22875432710E+02 -0.19749199236E+02  0.75441833591E+01  0.17578177094E+03  0.17300000000E+03 0. -1.
         -6    1    1    2    0  501  0.22875432710E+02  0.19749199236E+02  0.18480793006E+03  0.25494369438E+03  0.17300000000E+03 0.  1.
<mgrwt>
<rscale>  2 0.17561981E+03</rscale>
<asrwt>0</asrwt>
<pdfrwt beam="1">  1        2 0.18336412E-01 0.17561981E+03</pdfrwt>
<pdfrwt beam="2">  1       -2 0.47929044E-01 0.17561981E+03</pdfrwt>
<totfact> 0.12674651E+03</totfact>
</mgrwt>
</event>
<event>
 4    2  0.9452525E-001  0.3332816E+03  0.7546771E-02  0.1069694E+00
         -1   -1    0    0    0  501 -0.00000000000E+00  0.00000000000E+00  0.22934727573E+03  0.22934727573E+03  0.00000000000E+00 0. -1.
          1   -1    0    0  502    0  0.00000000000E+00 -0.00000000000E+00 -0.48765349793E+03  0.48765349793E+03  0.00000000000E+00 0.  1.
          6    1    1    2  502    0  0.27993800730E+03  0.52747981391E+02 -0.15880969443E+03  0.36918444783E+03  0.17300000000E+03 0.  1.
         -6    1    1    2    0  501 -0.27993800730E+03 -0.52747981391E+02 -0.99496527772E+02  0.34781632583E+03  0.17300000000E+03 0. -1.
<mgrwt>
<rscale>  2 0.33328162E+03</rscale>
<asrwt>0</asrwt>
<pdfrwt beam="1">  1        1 0.75023614E-01 0.33328162E+03</pdfrwt>
<pdfrwt beam="2">  1       -1 0.35284197E-01 0.33328162E+03</pdfrwt>
<totfact> 0.36103621E+02</totfact>
</mgrwt>
</event>
<event>
 4    2  0.9452525E-001  0.1900184E+03  0.7546771E-02  0.1158445E+00
         -2   -1    0    0    0  501 -0.00000000000E+00  0.00000000000E+00  0.14187753757E+03  0.14187753757E+03  0.00000000000E+00 0. -1.
          2   -1    0    0  502    0  0.00000000000E+00 -0.00000000000E+00 -0.29299925316E+03  0.29299925316E+03  0.00000000000E+00 0.  1.
          6    1    1    2  502    0  0.33305025641E+02 -0.71195305982E+02  0.32638558528E+01  0.19004643928E+03  0.17300000000E+03 0. -1.
         -6    1    1    2    0  501 -0.33305025641E+02  0.71195305982E+02 -0.15438557144E+03  0.24483035146E+03  0.17300000000E+03 0.  1.
<mgrwt>
<rscale>  2 0.19001841E+03</rscale>
<asrwt>0</asrwt>
<pdfrwt beam="1">  1        2 0.45076808E-01 0.19001841E+03</pdfrwt>
<pdfrwt beam="2">  1       -2 0.21827314E-01 0.19001841E+03</pdfrwt>
<totfact> 0.20010492E+03</totfact>
</mgrwt>
</event>
<event>
 4    2  0.9452525E-001  0.2184540E+03  0.7546771E-02  0.1135041E+00
          2   -1    0    0  502    0  0.00000000000E+00  0.00000000000E+00  0.10221217383E+04  0.10221217383E+04  0.00000000000E+00 0.  1.
         -2   -1    0    0    0  501 -0.00000000000E+00 -0.00000000000E+00 -0.49292498465E+02  0.49292498465E+02  0.00000000000E+00 0. -1.
          6    1    1    2  502    0  0.12654009468E+03  0.42199130178E+02  0.60952354109E+03  0.64748830823E+03  0.17300000000E+03 0. -1.
         -6    1    1    2    0  501 -0.12654009468E+03 -0.42199130178E+02  0.36330569879E+03  0.42392592858E+03  0.17300000000E+03 0. -1.
<mgrwt>
<rscale>  2 0.21845403E+03</rscale>
<asrwt>0</asrwt>
<pdfrwt beam="1">  1        2 0.15724948E+00 0.21845403E+03</pdfrwt>
<pdfrwt beam="2">  1       -2 0.75834620E-02 0.21845403E+03</pdfrwt>
<totfact> 0.26065951E+03</totfact>
</mgrwt>
</event>
<event>
 4    2  0.9452525E-001  0.2130149E+03  0.7546771E-02  0.1139201E+00
          2   -1    0    0  502    0  0.00000000000E+00  0.00000000000E+00  0.14401835210E+04  0.14401835210E+04  0.00000000000E+00 0. -1.
         -2   -1    0    0    0  501 -0.00000000000E+00 -0.00000000000E+00 -0.64895147623E+02  0.64895147623E+02  0.00000000000E+00 0.  1.
          6    1    1    2  502    0  0.11250154494E+03  0.52817911642E+02  0.14785813117E+03  0.25930167056E+03  0.17300000000E+03 0.  1.
         -6    1    1    2    0  501 -0.11250154494E+03 -0.52817911642E+02  0.12274302423E+04  0.12457769981E+04  0.17300000000E+03 0. -1.
<mgrwt>
<rscale>  2 0.21301486E+03</rscale>
<asrwt>0</asrwt>
<pdfrwt beam="1">  1        2 0.22156667E+00 0.21301486E+03</pdfrwt>
<pdfrwt beam="2">  1       -2 0.99838699E-02 0.21301486E+03</pdfrwt>
<totfact> 0.98427427E+02</totfact>
</mgrwt>
</event>
<event>
 4    2  0.9452525E-001  0.2652074E+03  0.7546771E-02  0.1104054E+00
          2   -1    0    0  502    0  0.00000000000E+00  0.00000000000E+00  0.32641881352E+04  0.32641881352E+04  0.00000000000E+00 0.  1.
         -2   -1    0    0    0  501 -0.00000000000E+00 -0.00000000000E+00 -0.23492755593E+02  0.23492755593E+02  0.00000000000E+00 0. -1.
          6    1    1    2  502    0  0.65333058501E+02 -0.19009883204E+03  0.11473215947E+04  0.11775745480E+04  0.17300000000E+03 0.  1.
         -6    1    1    2    0  501 -0.65333058501E+02  0.19009883204E+03  0.20933737850E+04  0.21101063428E+04  0.17300000000E+03 0. -1.
<mgrwt>
<rscale>  2 0.26520742E+03</rscale>
<asrwt>0</asrwt>
<pdfrwt beam="1">  1        2 0.50218243E+00 0.26520742E+03</pdfrwt>
<pdfrwt beam="2">  1       -2 0.36142727E-02 0.26520742E+03</pdfrwt>
<totfact> 0.46144637E+02</totfact>
</mgrwt>
</event>
<event>
 4    2  0.9452525E-001  0.2421178E+03  0.7546771E-02  0.1118390E+00
         -1   -1    0    0    0  501 -0.00000000000E+00  0.00000000000E+00  0.10089129079E+03  0.10089129079E+03  0.00000000000E+00 0. -1.
          1   -1    0    0  502    0  0.00000000000E+00 -0.00000000000E+00 -0.71216854002E+03  0.71216854002E+03  0.00000000000E+00 0.  1.
          6    1    1    2  502    0 -0.58459388852E+02  0.15897966023E+03 -0.48008564976E+03  0.53768323725E+03  0.17300000000E+03 0.  1.
         -6    1    1    2    0  501  0.58459388852E+02 -0.15897966023E+03 -0.13119159947E+03  0.27537659357E+03  0.17300000000E+03 0. -1.
<mgrwt>
<rscale>  2 0.24211781E+03</rscale>
<asrwt>0</asrwt>
<pdfrwt beam="1">  1        1 0.10956439E+00 0.24211781E+03</pdfrwt>
<pdfrwt beam="2">  1       -1 0.15521737E-01 0.24211781E+03</pdfrwt>
<totfact> 0.83895171E+02</totfact>
</mgrwt>
</event>
<event>
 4    2  0.9452525E-001  0.2026583E+03  0.7546771E-02  0.1147515E+00
         -3   -1    0    0    0  501 -0.00000000000E+00  0.00000000000E+00  0.19040094594E+03  0.19040094594E+03  0.00000000000E+00 0. -1.
          3   -1    0    0  502    0  0.00000000000E+00 -0.00000000000E+00 -0.30974222052E+03  0.30974222052E+03  0.00000000000E+00 0.  1.
          6    1    1    2  502    0  0.56703494827E+02  0.89028562077E+02 -0.19745972304E+03  0.28295001929E+03  0.17300000000E+03 0. -1.
         -6    1    1    2    0  501 -0.56703494827E+02 -0.89028562077E+02  0.78118448451E+02  0.21719314717E+03  0.17300000000E+03 0. -1.
<mgrwt>
<rscale>  2 0.20265826E+03</rscale>
<asrwt>0</asrwt>
<pdfrwt beam="1">  1        3 0.47652649E-01 0.20265826E+03</pdfrwt>
<pdfrwt beam="2">  1       -3 0.29292454E-01 0.20265826E+03</pdfrwt>
<totfact> 0.12079418E+02</totfact>
</mgrwt>
</event>
<event>
 4    2  0.9452525E-001  0.1778527E+03  0.7546771E-02  0.1169898E+00
          1   -1    0    0  502    0  0.00000000000E+00  0.00000000000E+00  0.68173460496E+03  0.68173460496E+03  0.00000000000E+00 0.  1.
         -1   -1    0    0    0  501 -0.00000000000E+00 -0.00000000000E+00 -0.48098979487E+02  0.48098979487E+02  0.00000000000E+00 0. -1.
          6    1    1    2  502    0  0.55779453584E+01 -0.40883733650E+02  0.38542778578E+03  0.42448341687E+03  0.17300000000E+03 0.  1.
         -6    1    1    2    0  501 -0.55779453584E+01  0.40883733650E+02  0.24820783970E+03  0.30535016758E+03  0.17300000000E+03 0. -1.
<mgrwt>
<rscale>  2 0.17785273E+03</rscale>
<asrwt>0</asrwt>
<pdfrwt beam="1">  1        1 0.10488224E+00 0.17785273E+03</pdfrwt>
<pdfrwt beam="2">  1       -1 0.73998435E-02 0.17785273E+03</pdfrwt>
<totfact> 0.28083446E+03</totfact>
</mgrwt>
</event>
<event>
 4    2  0.9452525E-001  0.1981022E+03  0.7546771E-02  0.1151350E+00
         -2   -1    0    0    0  501 -0.00000000000E+00  0.00000000000E+00  0.65751286477E+02  0.65751286477E+02  0.00000000000E+00 0. -1.
          2   -1    0    0  502    0  0.00000000000E+00 -0.00000000000E+00 -0.59702087078E+03  0.59702087078E+03  0.00000000000E+00 0.  1.
          6    1    1    2  502    0  0.37061091662E+02  0.89117762799E+02 -0.26024343374E+03  0.32706443550E+03  0.17300000000E+03 0. -1.
         -6    1    1    2    0  501 -0.37061091662E+02 -0.89117762799E+02 -0.27102615057E+03  0.33570772176E+03  0.17300000000E+03 0. -1.
<mgrwt>
<rscale>  2 0.19810225E+03</rscale>
<asrwt>0</asrwt>
<pdfrwt beam="1">  1        2 0.91849361E-01 0.19810225E+03</pdfrwt>
<pdfrwt beam="2">  1       -2 0.10115583E-01 0.19810225E+03</pdfrwt>
<totfact> 0.32656679E+03</totfact>
</mgrwt>
</event>
<event>
 4    2  0.9452525E-001  0.1737855E+03  0.7546771E-02  0.1173957E+00
         -2   -1    0    0    0  501 -0.00000000000E+00  0.00000000000E+00  0.13397034388E+02  0.13397034388E+02  0.00000000000E+00 0. -1.
          2   -1    0    0  502    0  0.00000000000E+00 -0.00000000000E+00 -0.22878062164E+04  0.22878062164E+04  0.00000000000E+00 0.  1.
          6    1    1    2  502    0 -0.85644371006E+01 -0.14108543291E+02 -0.99803237661E+03  0.10130498632E+04  0.17300000000E+03 0. -1.
         -6    1    1    2    0  501  0.85644371006E+01  0.14108543291E+02 -0.12763768054E+04  0.12881533876E+04  0.17300000000E+03 0.  1.
<mgrwt>
<rscale>  2 0.17378550E+03</rscale>
<asrwt>0</asrwt>
<pdfrwt beam="1">  1        2 0.35197001E+00 0.17378550E+03</pdfrwt>
<pdfrwt beam="2">  1       -2 0.20610833E-02 0.17378550E+03</pdfrwt>
<totfact> 0.38722223E+03</totfact>
</mgrwt>
</event>
<event>
 4    2  0.9452525E-001  0.1833294E+03  0.7546771E-02  0.1164619E+00
         -2   -1    0    0    0  501 -0.00000000000E+00  0.00000000000E+00  0.35604176017E+02  0.35604176017E+02  0.00000000000E+00 0.  1.
          2   -1    0    0  502    0  0.00000000000E+00 -0.00000000000E+00 -0.96017785211E+03  0.96017785211E+03  0.00000000000E+00 0. -1.
          6    1    1    2  502    0 -0.68333834801E+01 -0.60282492364E+02 -0.52695203671E+03  0.55793200572E+03  0.17300000000E+03 0. -1.
         -6    1    1    2    0  501  0.68333834801E+01  0.60282492364E+02 -0.39762163939E+03  0.43785002241E+03  0.17300000000E+03 0.  1.
<mgrwt>
<rscale>  2 0.18332941E+03</rscale>
<asrwt>0</asrwt>
<pdfrwt beam="1">  1        2 0.14771966E+00 0.18332941E+03</pdfrwt>
<pdfrwt beam="2">  1       -2 0.54775659E-02 0.18332941E+03</pdfrwt>
<totfact> 0.46705919E+03</totfact>
</mgrwt>
</event>
<event>
 4    2  0.9452525E-001  0.2972779E+03  0.7546771E-02  0.1086609E+00
         -2   -1    0    0    0  501 -0.00000000000E+00  0.00000000000E+00  0.24019725345E+03  0.24019725345E+03  0.00000000000E+00 0. -1.
          2   -1    0    0  502    0  0.00000000000E+00 -0.00000000000E+00 -0.40239223096E+03  0.40239223096E+03  0.00000000000E+00 0.  1.
          6    1    1    2  502    0  0.23928814337E+03 -0.34443178382E+02 -0.17513328480E+03  0.34503016614E+03  0.17300000000E+03 0.  1.
         -6    1    1    2    0  501 -0.23928814337E+03  0.34443178382E+02  0.12938307300E+02  0.29755931828E+03  0.17300000000E+03 0. -1.
<mgrwt>
<rscale>  2 0.29727790E+03</rscale>
<asrwt>0</asrwt>
<pdfrwt beam="1">  1        2 0.61906496E-01 0.29727790E+03</pdfrwt>
<pdfrwt beam="2">  1       -2 0.36953424E-01 0.29727790E+03</pdfrwt>
<totfact> 0.55207423E+02</totfact>
</mgrwt>
</event>
<event>
 4    2  0.9452525E-001  0.1757058E+03  0.7546771E-02  0.1172025E+00
         -2   -1    0    0    0  501 -0.00000000000E+00  0.00000000000E+00  0.31814438397E+02  0.31814438397E+02  0.00000000000E+00 0.  1.
          2   -1    0    0  502    0  0.00000000000E+00 -0.00000000000E+00 -0.97637888399E+03  0.97637888399E+03  0.00000000000E+00 0. -1.
          6    1    1    2  502    0  0.32710232349E+01  0.30542499052E+02 -0.51174869174E+03  0.54107233097E+03  0.17300000000E+03 0. -1.
         -6    1    1    2    0  501 -0.32710232349E+01 -0.30542499052E+02 -0.43281575386E+03  0.46712099142E+03  0.17300000000E+03 0.  1.
<mgrwt>
<rscale>  2 0.17570584E+03</rscale>
<asrwt>0</asrwt>
<pdfrwt beam="1">  1        2 0.15021211E+00 0.17570584E+03</pdfrwt>
<pdfrwt beam="2">  1       -2 0.48945299E-02 0.17570584E+03</pdfrwt>
<totfact> 0.54054253E+03</totfact>
</mgrwt>
</event>
<event>
 4    2  0.9452525E-001  0.1782851E+03  0.7546771E-02  0.1169473E+00
          2   -1    0    0  502    0  0.00000000000E+00  0.00000000000E+00  0.23093642823E+03  0.23093642823E+03  0.00000000000E+00 0.  1.
         -2   -1    0    0    0  501 -0.00000000000E+00 -0.00000000000E+00 -0.23080610957E+03  0.23080610957E+03  0.00000000000E+00 0. -1.
          6    1    1    2  502    0 -0.31624274603E+02 -0.29265524568E+02 -0.14661808648E+03  0.23082987015E+03  0.17300000000E+03 0. -1.
         -6    1    1    2    0  501  0.31624274603E+02  0.29265524568E+02  0.14674840514E+03  0.23091266765E+03  0.17300000000E+03 0.  1.
<mgrwt>
<rscale>  2 0.17828507E+03</rscale>
<asrwt>0</asrwt>
<pdfrwt beam="1">  1        2 0.35528681E-01 0.17828507E+03</pdfrwt>
<pdfrwt beam="2">  1       -2 0.35508632E-01 0.17828507E+03</pdfrwt>
<totfact> 0.10798343E+03</totfact>
</mgrwt>
</event>
<event>
 4    2  0.9452525E-001  0.1833592E+03  0.7546771E-02  0.1164591E+00
         -2   -1    0    0    0  501 -0.00000000000E+00  0.00000000000E+00  0.12923002018E+02  0.12923002018E+02  0.00000000000E+00 0.  1.
          2   -1    0    0  502    0  0.00000000000E+00 -0.00000000000E+00 -0.31746666149E+04  0.31746666149E+04  0.00000000000E+00 0. -1.
          6    1    1    2  502    0 -0.51271880626E+02 -0.32600431989E+02 -0.22580182780E+04  0.22654507581E+04  0.17300000000E+03 0. -1.
         -6    1    1    2    0  501  0.51271880626E+02  0.32600431989E+02 -0.90372533494E+03  0.92213885880E+03  0.17300000000E+03 0.  1.
<mgrwt>
<rscale>  2 0.18335919E+03</rscale>
<asrwt>0</asrwt>
<pdfrwt beam="1">  1        2 0.48840974E+00 0.18335919E+03</pdfrwt>
<pdfrwt beam="2">  1       -2 0.19881562E-02 0.18335919E+03</pdfrwt>
<totfact> 0.12978494E+03</totfact>
</mgrwt>
</event>
<event>
 4    2  0.9452525E-001  0.2129493E+03  0.7546771E-02  0.1139252E+00
         -2   -1    0    0    0  501 -0.00000000000E+00  0.00000000000E+00  0.26713823825E+03  0.26713823825E+03  0.00000000000E+00 0. -1.
          2   -1    0    0  502    0  0.00000000000E+00 -0.00000000000E+00 -0.20771703793E+03  0.20771703793E+03  0.00000000000E+00 0.  1.
          6    1    1    2  502    0  0.89719532871E+02  0.85841796222E+02  0.13121473659E+03  0.25012939782E+03  0.17300000000E+03 0. -1.
         -6    1    1    2    0  501 -0.89719532871E+02 -0.85841796222E+02 -0.71793536262E+02  0.22472587836E+03  0.17300000000E+03 0.  1.
<mgrwt>
<rscale>  2 0.21294931E+03</rscale>
<asrwt>0</asrwt>
<pdfrwt beam="1">  1        2 0.31956467E-01 0.21294931E+03</pdfrwt>
<pdfrwt beam="2">  1       -2 0.41098191E-01 0.21294931E+03</pdfrwt>
<totfact> 0.92216955E+02</totfact>
</mgrwt>
</event>
<event>
 4    2  0.9452525E-001  0.2736572E+03  0.7546771E-02  0.1099205E+00
         -2   -1    0    0    0  501 -0.00000000000E+00  0.00000000000E+00  0.94332356338E+02  0.94332356338E+02  0.00000000000E+00 0. -1.
          2   -1    0    0  502    0  0.00000000000E+00 -0.00000000000E+00 -0.86949316456E+03  0.86949316456E+03  0.00000000000E+00 0.  1.
          6    1    1    2  502    0 -0.15568958819E+02 -0.21146366267E+03 -0.24546435761E+03  0.36761532063E+03  0.17300000000E+03 0. -1.
         -6    1    1    2    0  501  0.15568958819E+02  0.21146366267E+03 -0.52969645061E+03  0.59621020026E+03  0.17300000000E+03 0.  1.
<mgrwt>
<rscale>  2 0.27365722E+03</rscale>
<asrwt>0</asrwt>
<pdfrwt beam="1">  1        2 0.13376817E+00 0.27365722E+03</pdfrwt>
<pdfrwt beam="2">  1       -2 0.14512671E-01 0.27365722E+03</pdfrwt>
<totfact> 0.11520957E+03</totfact>
</mgrwt>
</event>
<event>
 4    2  0.9452525E-001  0.2440435E+03  0.7546771E-02  0.1117128E+00
         -1   -1    0    0    0  501 -0.00000000000E+00  0.00000000000E+00  0.19553937332E+03  0.19553937332E+03  0.00000000000E+00 0. -1.
          1   -1    0    0  502    0  0.00000000000E+00 -0.00000000000E+00 -0.80319419632E+03  0.80319419632E+03  0.00000000000E+00 0.  1.
          6    1    1    2  502    0 -0.47494127379E+02 -0.16544644760E+03 -0.69727968060E+03  0.73875311988E+03  0.17300000000E+03 0.  1.
         -6    1    1    2    0  501  0.47494127379E+02  0.16544644760E+03  0.89624857595E+02  0.25998044976E+03  0.17300000000E+03 0. -1.
<mgrwt>
<rscale>  2 0.24404348E+03</rscale>
<asrwt>0</asrwt>
<pdfrwt beam="1">  1        1 0.12356834E+00 0.24404348E+03</pdfrwt>
<pdfrwt beam="2">  1       -1 0.30082980E-01 0.24404348E+03</pdfrwt>
<totfact> 0.23598062E+02</totfact>
</mgrwt>
</event>
<event>
 4    2  0.9452525E-001  0.1750252E+03  0.7546771E-02  0.1172706E+00
          1   -1    0    0  502    0  0.00000000000E+00  0.00000000000E+00  0.13387642248E+03  0.13387642248E+03  0.00000000000E+00 0. -1.
         -1   -1    0    0    0  501 -0.00000000000E+00 -0.00000000000E+00 -0.31795214307E+03  0.31795214307E+03  0.00000000000E+00 0.  1.
          6    1    1    2  502    0 -0.20492584776E+02  0.16878084640E+02 -0.21165023502E+03  0.27464456622E+03  0.17300000000E+03 0.  1.
         -6    1    1    2    0  501  0.20492584776E+02 -0.16878084640E+02  0.27574514429E+02  0.17718399933E+03  0.17300000000E+03 0. -1.
<mgrwt>
<rscale>  2 0.17502519E+03</rscale>
<asrwt>0</asrwt>
<pdfrwt beam="1">  1        1 0.20596373E-01 0.17502519E+03</pdfrwt>
<pdfrwt beam="2">  1       -1 0.48915714E-01 0.17502519E+03</pdfrwt>
<totfact> 0.10446625E+03</totfact>
</mgrwt>
</event>
<event>
 4    2  0.9452525E-001  0.2287113E+03  0.7546771E-02  0.1127550E+00
         -4   -1    0    0    0  501 -0.00000000000E+00  0.00000000000E+00  0.44827489781E+03  0.44827489781E+03  0.00000000000E+00 0. -1.
          4   -1    0    0  502    0  0.00000000000E+00 -0.00000000000E+00 -0.24584553711E+03  0.24584553711E+03  0.00000000000E+00 0.  1.
          6    1    1    2  502    0 -0.40007820412E+02  0.14414997545E+03 -0.15033949076E+03  0.27369838070E+03  0.17300000000E+03 0.  1.
         -6    1    1    2    0  501  0.40007820412E+02 -0.14414997545E+03  0.35276885146E+03  0.42042205422E+03  0.17300000000E+03 0. -1.
<mgrwt>
<rscale>  2 0.22871126E+03</rscale>
<asrwt>0</asrwt>
<pdfrwt beam="1">  1        4 0.37822390E-01 0.22871126E+03</pdfrwt>
<pdfrwt beam="2">  1       -4 0.68965369E-01 0.22871126E+03</pdfrwt>
<totfact> 0.24073010E+01</totfact>
</mgrwt>
</event>
<event>
 4    2  0.9452525E-001  0.2925337E+03  0.7546771E-02  0.1089034E+00
          2   -1    0    0  502    0  0.00000000000E+00  0.00000000000E+00  0.12865402067E+04  0.12865402067E+04  0.00000000000E+00 0. -1.
         -2   -1    0    0    0  501 -0.00000000000E+00 -0.00000000000E+00 -0.79707251151E+02  0.79707251151E+02  0.00000000000E+00 0.  1.
          6    1    1    2  502    0  0.35478678796E+02  0.23321289623E+03  0.32551729688E+03  0.43764997679E+03  0.17300000000E+03 0. -1.
         -6    1    1    2    0  501 -0.35478678796E+02 -0.23321289623E+03  0.88131565867E+03  0.92859748107E+03  0.17300000000E+03 0.  1.
<mgrwt>
<rscale>  2 0.29253374E+03</rscale>
<asrwt>0</asrwt>
<pdfrwt beam="1">  1        2 0.19792925E+00 0.29253374E+03</pdfrwt>
<pdfrwt beam="2">  1       -2 0.12262655E-01 0.29253374E+03</pdfrwt>
<totfact> 0.85276133E+02</totfact>
</mgrwt>
</event>
<event>
 4    2  0.9452525E-001  0.2205901E+03  0.7546771E-02  0.1133444E+00
         -1   -1    0    0    0  501 -0.00000000000E+00  0.00000000000E+00  0.56221512425E+03  0.56221512425E+03  0.00000000000E+00 0.  1.
          1   -1    0    0  502    0  0.00000000000E+00 -0.00000000000E+00 -0.87732792681E+02  0.87732792681E+02  0.00000000000E+00 0. -1.
          6    1    1    2  502    0  0.12531375682E+03 -0.55022131422E+02  0.19951531238E+03  0.29743290415E+03  0.17300000000E+03 0.  1.
         -6    1    1    2    0  501 -0.12531375682E+03  0.55022131422E+02  0.27496701919E+03  0.35251501279E+03  0.17300000000E+03 0. -1.
<mgrwt>
<rscale>  2 0.22059006E+03</rscale>
<asrwt>0</asrwt>
<pdfrwt beam="1">  1        1 0.13497353E-01 0.22059006E+03</pdfrwt>
<pdfrwt beam="2">  1       -1 0.86494632E-01 0.22059006E+03</pdfrwt>
<totfact> 0.59345166E+02</totfact>
</mgrwt>
</event>
<event>
 4    2  0.9452525E-001  0.2003485E+03  0.7546771E-02  0.1149445E+00
         -1   -1    0    0    0  501 -0.00000000000E+00  0.00000000000E+00  0.24890419205E+03  0.24890419205E+03  0.00000000000E+00 0. -1.
          1   -1    0    0  502    0  0.00000000000E+00 -0.00000000000E+00 -0.19396789840E+03  0.19396789840E+03  0.00000000000E+00 0.  1.
          6    1    1    2  502    0 -0.71770044772E+02 -0.71130713767E+02  0.11839181662E+03  0.23271471808E+03  0.17300000000E+03 0. -1.
         -6    1    1    2    0  501  0.71770044772E+02  0.71130713767E+02 -0.63455522969E+02  0.21015737237E+03  0.17300000000E+03 0.  1.
<mgrwt>
<rscale>  2 0.20034849E+03</rscale>
<asrwt>0</asrwt>
<pdfrwt beam="1">  1        1 0.29841215E-01 0.20034849E+03</pdfrwt>
<pdfrwt beam="2">  1       -1 0.38292953E-01 0.20034849E+03</pdfrwt>
<totfact> 0.10147015E+03</totfact>
</mgrwt>
</event>
<event>
 4    2  0.9452525E-001  0.2049146E+03  0.7546771E-02  0.1145658E+00
          1   -1    0    0  502    0  0.00000000000E+00  0.00000000000E+00  0.43620584347E+03  0.43620584347E+03  0.00000000000E+00 0. -1.
         -1   -1    0    0    0  501 -0.00000000000E+00 -0.00000000000E+00 -0.10399485694E+03  0.10399485694E+03  0.00000000000E+00 0.  1.
          6    1    1    2  502    0 -0.60007582850E+02 -0.91978738457E+02  0.92452172678E+02  0.22480525474E+03  0.17300000000E+03 0.  1.
         -6    1    1    2    0  501  0.60007582850E+02  0.91978738457E+02  0.23975881385E+03  0.31539544566E+03  0.17300000000E+03 0.  1.
<mgrwt>
<rscale>  2 0.20491461E+03</rscale>
<asrwt>0</asrwt>
<pdfrwt beam="1">  1        1 0.67108590E-01 0.20491461E+03</pdfrwt>
<pdfrwt beam="2">  1       -1 0.15999209E-01 0.20491461E+03</pdfrwt>
<totfact> 0.15601509E+03</totfact>
</mgrwt>
</event>
<event>
 4    2  0.9452525E-001  0.1733553E+03  0.7546771E-02  0.1174393E+00
         -1   -1    0    0    0  501 -0.00000000000E+00  0.00000000000E+00  0.27901704188E+03  0.27901704188E+03  0.00000000000E+00 0. -1.
          1   -1    0    0  502    0  0.00000000000E+00 -0.00000000000E+00 -0.24350730205E+03  0.24350730205E+03  0.00000000000E+00 0.  1.
          6    1    1    2  502    0  0.58642081705E+01 -0.94167915352E+01  0.21286105708E+03  0.27452120961E+03  0.17300000000E+03 0. -1.
         -6    1    1    2    0  501 -0.58642081705E+01  0.94167915352E+01 -0.17735131726E+03  0.24800313432E+03  0.17300000000E+03 0.  1.
<mgrwt>
<rscale>  2 0.17335531E+03</rscale>
<asrwt>0</asrwt>
<pdfrwt beam="1">  1        1 0.37462662E-01 0.17335531E+03</pdfrwt>
<pdfrwt beam="2">  1       -1 0.42925699E-01 0.17335531E+03</pdfrwt>
<totfact> 0.62277235E+02</totfact>
</mgrwt>
</event>
<event>
 4    2  0.9452525E-001  0.2804911E+03  0.7546771E-02  0.1095421E+00
          2   -1    0    0  502    0  0.00000000000E+00  0.00000000000E+00  0.14298350643E+04  0.14298350643E+04  0.00000000000E+00 0. -1.
         -2   -1    0    0    0  501 -0.00000000000E+00 -0.00000000000E+00 -0.61864792997E+02  0.61864792997E+02  0.00000000000E+00 0.  1.
          6    1    1    2  502    0 -0.21888482256E+03  0.28907985589E+02  0.93200305466E+03  0.97329591136E+03  0.17300000000E+03 0.  1.
         -6    1    1    2    0  501  0.21888482256E+03 -0.28907985589E+02  0.43596721667E+03  0.51840394596E+03  0.17300000000E+03 0. -1.
<mgrwt>
<rscale>  2 0.28049106E+03</rscale>
<asrwt>0</asrwt>
<pdfrwt beam="1">  1        2 0.21997460E+00 0.28049106E+03</pdfrwt>
<pdfrwt beam="2">  1       -2 0.95176616E-02 0.28049106E+03</pdfrwt>
<totfact> 0.10701426E+03</totfact>
</mgrwt>
</event>
<event>
 4    2  0.9452525E-001  0.3002301E+03  0.7546771E-02  0.1085126E+00
          2   -1    0    0  502    0  0.00000000000E+00  0.00000000000E+00  0.64460070168E+03  0.64460070168E+03  0.00000000000E+00 0.  1.
         -2   -1    0    0    0  501 -0.00000000000E+00 -0.00000000000E+00 -0.21217857143E+03  0.21217857143E+03  0.00000000000E+00 0. -1.
          6    1    1    2  502    0  0.21333334383E+03 -0.12123533703E+03 -0.33930799343E+02  0.30214139352E+03  0.17300000000E+03 0. -1.
         -6    1    1    2    0  501 -0.21333334383E+03  0.12123533703E+03  0.46635292960E+03  0.55463787959E+03  0.17300000000E+03 0.  1.
<mgrwt>
<rscale>  2 0.30023012E+03</rscale>
<asrwt>0</asrwt>
<pdfrwt beam="1">  1        2 0.99169338E-01 0.30023012E+03</pdfrwt>
<pdfrwt beam="2">  1       -2 0.32642857E-01 0.30023012E+03</pdfrwt>
<totfact> 0.40750970E+02</totfact>
</mgrwt>
</event>
<event>
 4    2  0.9452525E-001  0.1790490E+03  0.7546771E-02  0.1168727E+00
         -2   -1    0    0    0  501 -0.00000000000E+00  0.00000000000E+00  0.13968656852E+02  0.13968656852E+02  0.00000000000E+00 0.  1.
          2   -1    0    0  502    0  0.00000000000E+00 -0.00000000000E+00 -0.31156074400E+04  0.31156074400E+04  0.00000000000E+00 0. -1.
          6    1    1    2  502    0  0.28688395547E+02 -0.36145592189E+02 -0.23538704476E+04  0.23606703734E+04  0.17300000000E+03 0. -1.
         -6    1    1    2    0  501 -0.28688395547E+02  0.36145592189E+02 -0.74776833558E+03  0.76890572346E+03  0.17300000000E+03 0.  1.
<mgrwt>
<rscale>  2 0.17904895E+03</rscale>
<asrwt>0</asrwt>
<pdfrwt beam="1">  1        2 0.47932457E+00 0.17904895E+03</pdfrwt>
<pdfrwt beam="2">  1       -2 0.21490225E-02 0.17904895E+03</pdfrwt>
<totfact> 0.12582703E+03</totfact>
</mgrwt>
</event>
<event>
 4    2  0.9452525E-001  0.1736783E+03  0.7546771E-02  0.1174065E+00
         -2   -1    0    0    0  501 -0.00000000000E+00  0.00000000000E+00  0.27940336592E+03  0.27940336592E+03  0.00000000000E+00 0. -1.
          2   -1    0    0  502    0  0.00000000000E+00 -0.00000000000E+00 -0.11818350409E+03  0.11818350409E+03  0.00000000000E+00 0.  1.
          6    1    1    2  502    0 -0.15139783433E+02 -0.24386606275E+01  0.13908096452E+03  0.22250320178E+03  0.17300000000E+03 0. -1.
         -6    1    1    2    0  501  0.15139783433E+02  0.24386606275E+01  0.22138897309E+02  0.17508366823E+03  0.17300000000E+03 0.  1.
<mgrwt>
<rscale>  2 0.17367832E+03</rscale>
<asrwt>0</asrwt>
<pdfrwt beam="1">  1        2 0.18182078E-01 0.17367832E+03</pdfrwt>
<pdfrwt beam="2">  1       -2 0.42985133E-01 0.17367832E+03</pdfrwt>
<totfact> 0.15817752E+03</totfact>
</mgrwt>
</event>
<event>
 4    2  0.9452525E-001  0.1812181E+03  0.7546771E-02  0.1166629E+00
          1   -1    0    0  502    0  0.00000000000E+00  0.00000000000E+00  0.16031701941E+03  0.16031701941E+03  0.00000000000E+00 0. -1.
         -1   -1    0    0    0  501 -0.00000000000E+00 -0.00000000000E+00 -0.20990833581E+03  0.20990833581E+03  0.00000000000E+00 0.  1.
          6    1    1    2  502    0 -0.14379349354E+02 -0.52002114394E+02 -0.53548511324E+02  0.18896409356E+03  0.17300000000E+03 0. -1.
         -6    1    1    2    0  501  0.14379349354E+02  0.52002114394E+02  0.39571949254E+01  0.18126126167E+03  0.17300000000E+03 0.  1.
<mgrwt>
<rscale>  2 0.18121806E+03</rscale>
<asrwt>0</asrwt>
<pdfrwt beam="1">  1        1 0.24664157E-01 0.18121806E+03</pdfrwt>
<pdfrwt beam="2">  1       -1 0.32293590E-01 0.18121806E+03</pdfrwt>
<totfact> 0.17297448E+03</totfact>
</mgrwt>
</event>
<event>
 4    2  0.9452525E-001  0.2167821E+03  0.7546771E-02  0.1136305E+00
          2   -1    0    0  502    0  0.00000000000E+00  0.00000000000E+00  0.80239802148E+03  0.80239802148E+03  0.00000000000E+00 0. -1.
         -2   -1    0    0    0  501 -0.00000000000E+00 -0.00000000000E+00 -0.76349209033E+02  0.76349209033E+02  0.00000000000E+00 0.  1.
          6    1    1    2  502    0 -0.69707307763E+02 -0.11048247343E+03  0.15098437960E+03  0.26417942497E+03  0.17300000000E+03 0.  1.
         -6    1    1    2    0  501  0.69707307763E+02  0.11048247343E+03  0.57506443285E+03  0.61456780555E+03  0.17300000000E+03 0. -1.
<mgrwt>
<rscale>  2 0.21678212E+03</rscale>
<asrwt>0</asrwt>
<pdfrwt beam="1">  1        2 0.12344584E+00 0.21678212E+03</pdfrwt>
<pdfrwt beam="2">  1       -2 0.11746033E-01 0.21678212E+03</pdfrwt>
<totfact> 0.18038630E+03</totfact>
</mgrwt>
</event>
<event>
 4    2  0.9452525E-001  0.2637174E+03  0.7546771E-02  0.1104930E+00
          1   -1    0    0  502    0  0.00000000000E+00  0.00000000000E+00  0.49672020949E+03  0.49672020949E+03  0.00000000000E+00 0. -1.
         -1   -1    0    0    0  501 -0.00000000000E+00 -0.00000000000E+00 -0.15458746994E+03  0.15458746994E+03  0.00000000000E+00 0.  1.
          6    1    1    2  502    0  0.85984217729E+02 -0.17951212810E+03  0.27106115375E+03  0.37818122495E+03  0.17300000000E+03 0. -1.
         -6    1    1    2    0  501 -0.85984217729E+02  0.17951212810E+03  0.71071585797E+02  0.27312645449E+03  0.17300000000E+03 0.  1.
<mgrwt>
<rscale>  2 0.26371744E+03</rscale>
<asrwt>0</asrwt>
<pdfrwt beam="1">  1        1 0.76418493E-01 0.26371744E+03</pdfrwt>
<pdfrwt beam="2">  1       -1 0.23782688E-01 0.26371744E+03</pdfrwt>
<totfact> 0.69229241E+02</totfact>
</mgrwt>
</event>
<event>
 4    2  0.9452525E-001  0.1744423E+03  0.7546771E-02  0.1173293E+00
         -2   -1    0    0    0  501 -0.00000000000E+00  0.00000000000E+00  0.95785412151E+02  0.95785412151E+02  0.00000000000E+00 0.  1.
          2   -1    0    0  502    0  0.00000000000E+00 -0.00000000000E+00 -0.32752409131E+03  0.32752409131E+03  0.00000000000E+00 0. -1.
          6    1    1    2  502    0 -0.11966273447E+02 -0.18918963359E+02 -0.15254362768E+03  0.23173190808E+03  0.17300000000E+03 0. -1.
         -6    1    1    2    0  501  0.11966273447E+02  0.18918963359E+02 -0.79195051478E+02  0.19157759538E+03  0.17300000000E+03 0.  1.
<mgrwt>
<rscale>  2 0.17444231E+03</rscale>
<asrwt>0</asrwt>
<pdfrwt beam="1">  1        2 0.50388322E-01 0.17444231E+03</pdfrwt>
<pdfrwt beam="2">  1       -2 0.14736217E-01 0.17444231E+03</pdfrwt>
<totfact> 0.34264963E+03</totfact>
</mgrwt>
</event>
<event>
 4    2  0.9452525E-001  0.2140772E+03  0.7546771E-02  0.1138377E+00
          3   -1    0    0  502    0  0.00000000000E+00  0.00000000000E+00  0.58948583710E+02  0.58948583710E+02  0.00000000000E+00 0.  1.
         -3   -1    0    0    0  501 -0.00000000000E+00 -0.00000000000E+00 -0.77767571451E+03  0.77767571451E+03  0.00000000000E+00 0. -1.
          6    1    1    2  502    0  0.11655069527E+03 -0.48124826562E+02 -0.35210092950E+03  0.41207296448E+03  0.17300000000E+03 0.  1.
         -6    1    1    2    0  501 -0.11655069527E+03  0.48124826562E+02 -0.36662620130E+03  0.42455133374E+03  0.17300000000E+03 0. -1.
<mgrwt>
<rscale>  2 0.21407724E+03</rscale>
<asrwt>0</asrwt>
<pdfrwt beam="1">  1        3 0.90690139E-02 0.21407724E+03</pdfrwt>
<pdfrwt beam="2">  1       -3 0.11964240E+00 0.21407724E+03</pdfrwt>
<totfact> 0.12699815E+02</totfact>
</mgrwt>
</event>
<event>
 4    2  0.9452525E-001  0.2071167E+03  0.7546771E-02  0.1143870E+00
         -4   -1    0    0    0  501 -0.00000000000E+00  0.00000000000E+00  0.89122313353E+03  0.89122313353E+03  0.00000000000E+00 0. -1.
          4   -1    0    0  502    0  0.00000000000E+00 -0.00000000000E+00 -0.54693174516E+02  0.54693174516E+02  0.00000000000E+00 0.  1.
          6    1    1    2  502    0  0.11297112520E+03  0.14347049804E+02  0.58206398193E+03  0.61781533813E+03  0.17300000000E+03 0. -1.
         -6    1    1    2    0  501 -0.11297112520E+03 -0.14347049804E+02  0.25446597709E+03  0.32810096992E+03  0.17300000000E+03 0. -1.
<mgrwt>
<rscale>  2 0.20711667E+03</rscale>
<asrwt>0</asrwt>
<pdfrwt beam="1">  1        4 0.84143352E-02 0.20711667E+03</pdfrwt>
<pdfrwt beam="2">  1       -4 0.13711124E+00 0.20711667E+03</pdfrwt>
<totfact> 0.72307626E+01</totfact>
</mgrwt>
</event>
<event>
 4    2  0.9452525E-001  0.1995385E+03  0.7546771E-02  0.1150129E+00
          1   -1    0    0  502    0  0.00000000000E+00  0.00000000000E+00  0.64524292651E+03  0.64524292651E+03  0.00000000000E+00 0.  1.
         -1   -1    0    0    0  501 -0.00000000000E+00 -0.00000000000E+00 -0.63914524415E+02  0.63914524415E+02  0.00000000000E+00 0. -1.
          6    1    1    2  502    0 -0.60358793397E+02 -0.79015367165E+02  0.35657029417E+03  0.40860492762E+03  0.17300000000E+03 0. -1.
         -6    1    1    2    0  501  0.60358793397E+02  0.79015367165E+02  0.22475810792E+03  0.30055252330E+03  0.17300000000E+03 0. -1.
<mgrwt>
<rscale>  2 0.19953850E+03</rscale>
<asrwt>0</asrwt>
<pdfrwt beam="1">  1        1 0.99268138E-01 0.19953850E+03</pdfrwt>
<pdfrwt beam="2">  1       -1 0.98330042E-02 0.19953850E+03</pdfrwt>
<totfact> 0.19730909E+03</totfact>
</mgrwt>
</event>
<event>
 4    2  0.9452525E-001  0.1776458E+03  0.7546771E-02  0.1170101E+00
         -3   -1    0    0    0  501 -0.00000000000E+00  0.00000000000E+00  0.43067825935E+03  0.43067825935E+03  0.00000000000E+00 0. -1.
          3   -1    0    0  502    0  0.00000000000E+00 -0.00000000000E+00 -0.75168797856E+02  0.75168797856E+02  0.00000000000E+00 0.  1.
          6    1    1    2  502    0 -0.39264051822E+02 -0.93463562939E+01  0.21789852513E+03  0.28113659918E+03  0.17300000000E+03 0. -1.
         -6    1    1    2    0  501  0.39264051822E+02  0.93463562939E+01  0.13761093636E+03  0.22471045803E+03  0.17300000000E+03 0.  1.
<mgrwt>
<rscale>  2 0.17764577E+03</rscale>
<asrwt>0</asrwt>
<pdfrwt beam="1">  1        3 0.11564431E-01 0.17764577E+03</pdfrwt>
<pdfrwt beam="2">  1       -3 0.66258192E-01 0.17764577E+03</pdfrwt>
<totfact> 0.31145705E+02</totfact>
</mgrwt>
</event>
<event>
 4    2  0.9452525E-001  0.1880700E+03  0.7546771E-02  0.1160214E+00
         -2   -1    0    0    0  501 -0.00000000000E+00  0.00000000000E+00  0.93100055713E+02  0.93100055713E+02  0.00000000000E+00 0. -1.
          2   -1    0    0  502    0  0.00000000000E+00 -0.00000000000E+00 -0.41380621170E+03  0.41380621170E+03  0.00000000000E+00 0.  1.
          6    1    1    2  502    0 -0.26520361815E+02  0.68833102600E+02 -0.87821402234E+02  0.20756426546E+03  0.17300000000E+03 0. -1.
         -6    1    1    2    0  501  0.26520361815E+02 -0.68833102600E+02 -0.23288475375E+03  0.29934200196E+03  0.17300000000E+03 0.  1.
<mgrwt>
<rscale>  2 0.18807000E+03</rscale>
<asrwt>0</asrwt>
<pdfrwt beam="1">  1        2 0.63662493E-01 0.18807000E+03</pdfrwt>
<pdfrwt beam="2">  1       -2 0.14323086E-01 0.18807000E+03</pdfrwt>
<totfact> 0.28000609E+03</totfact>
</mgrwt>
</event>
<event>
 4    2  0.9452525E-001  0.1765050E+03  0.7546771E-02  0.1171229E+00
         -2   -1    0    0    0  501 -0.00000000000E+00  0.00000000000E+00  0.10304095342E+03  0.10304095342E+03  0.00000000000E+00 0.  1.
          2   -1    0    0  502    0  0.00000000000E+00 -0.00000000000E+00 -0.11206646681E+04  0.11206646681E+04  0.00000000000E+00 0. -1.
          6    1    1    2  502    0  0.31075917718E+02  0.16102396486E+02  0.14030062985E+02  0.17706169123E+03  0.17300000000E+03 0.  1.
         -6    1    1    2    0  501 -0.31075917718E+02 -0.16102396486E+02 -0.10316537777E+04  0.10466439303E+04  0.17300000000E+03 0. -1.
<mgrwt>
<rscale>  2 0.17650496E+03</rscale>
<asrwt>0</asrwt>
<pdfrwt beam="1">  1        2 0.17240994E+00 0.17650496E+03</pdfrwt>
<pdfrwt beam="2">  1       -2 0.15852455E-01 0.17650496E+03</pdfrwt>
<totfact> 0.70122961E+02</totfact>
</mgrwt>
</event>
<event>
 4    2  0.9452525E-001  0.2037717E+03  0.7546771E-02  0.1146595E+00
          3   -1    0    0  502    0  0.00000000000E+00  0.00000000000E+00  0.51127233857E+03  0.51127233857E+03  0.00000000000E+00 0. -1.
         -3   -1    0    0    0  501 -0.00000000000E+00 -0.00000000000E+00 -0.83449655402E+02  0.83449655402E+02  0.00000000000E+00 0.  1.
          6    1    1    2  502    0  0.98345231509E+01 -0.10722496706E+03  0.16524926772E+03  0.26235516364E+03  0.17300000000E+03 0.  1.
         -6    1    1    2    0  501 -0.98345231509E+01  0.10722496706E+03  0.26257341544E+03  0.33236683033E+03  0.17300000000E+03 0. -1.
<mgrwt>
<rscale>  2 0.20377171E+03</rscale>
<asrwt>0</asrwt>
<pdfrwt beam="1">  1        3 0.78657281E-01 0.20377171E+03</pdfrwt>
<pdfrwt beam="2">  1       -3 0.12838409E-01 0.20377171E+03</pdfrwt>
<totfact> 0.18364995E+02</totfact>
</mgrwt>
</event>
<event>
 4    2  0.9452525E-001  0.1778204E+03  0.7546771E-02  0.1169929E+00
         -2   -1    0    0    0  501 -0.00000000000E+00  0.00000000000E+00  0.59669133916E+02  0.59669133916E+02  0.00000000000E+00 0.  1.
          2   -1    0    0  502    0  0.00000000000E+00 -0.00000000000E+00 -0.68140922372E+03  0.68140922372E+03  0.00000000000E+00 0. -1.
          6    1    1    2  502    0  0.24288324198E+02  0.33183983800E+02 -0.48557910477E+03  0.51711426829E+03  0.17300000000E+03 0. -1.
         -6    1    1    2    0  501 -0.24288324198E+02 -0.33183983800E+02 -0.13616098503E+03  0.22396408935E+03  0.17300000000E+03 0.  1.
<mgrwt>
<rscale>  2 0.17782041E+03</rscale>
<asrwt>0</asrwt>
<pdfrwt beam="1">  1        2 0.10483219E+00 0.17782041E+03</pdfrwt>
<pdfrwt beam="2">  1       -2 0.91798665E-02 0.17782041E+03</pdfrwt>
<totfact> 0.32494839E+03</totfact>
</mgrwt>
</event>
<event>
 4    2  0.9452525E-001  0.2163596E+03  0.7546771E-02  0.1136627E+00
          2   -1    0    0  502    0  0.00000000000E+00  0.00000000000E+00  0.94784174879E+03  0.94784174879E+03  0.00000000000E+00 0. -1.
         -2   -1    0    0    0  501 -0.00000000000E+00 -0.00000000000E+00 -0.50541710350E+02  0.50541710350E+02  0.00000000000E+00 0.  1.
          6    1    1    2  502    0 -0.12970714168E+03 -0.76513783759E+01  0.52408876480E+03  0.56699252163E+03  0.17300000000E+03 0. -1.
         -6    1    1    2    0  501  0.12970714168E+03  0.76513783759E+01  0.37321127365E+03  0.43139093752E+03  0.17300000000E+03 0.  1.
<mgrwt>
<rscale>  2 0.21635962E+03</rscale>
<asrwt>0</asrwt>
<pdfrwt beam="1">  1        2 0.14582179E+00 0.21635962E+03</pdfrwt>
<pdfrwt beam="2">  1       -2 0.77756484E-02 0.21635962E+03</pdfrwt>
<totfact> 0.27842144E+03</totfact>
</mgrwt>
</event>
<event>
 4    2  0.9452525E-001  0.2296622E+03  0.7546771E-02  0.1126878E+00
         -2   -1    0    0    0  501 -0.00000000000E+00  0.00000000000E+00  0.32855457946E+03  0.32855457946E+03  0.00000000000E+00 0. -1.
          2   -1    0    0  502    0  0.00000000000E+00 -0.00000000000E+00 -0.53425289196E+03  0.53425289196E+03  0.00000000000E+00 0.  1.
          6    1    1    2  502    0 -0.61698379261E+02  0.13787322662E+03 -0.46366204224E+03  0.51742362338E+03  0.17300000000E+03 0.  1.
         -6    1    1    2    0  501  0.61698379261E+02 -0.13787322662E+03  0.25796372974E+03  0.34538384804E+03  0.17300000000E+03 0. -1.
<mgrwt>
<rscale>  2 0.22966218E+03</rscale>
<asrwt>0</asrwt>
<pdfrwt beam="1">  1        2 0.82192753E-01 0.22966218E+03</pdfrwt>
<pdfrwt beam="2">  1       -2 0.50546858E-01 0.22966218E+03</pdfrwt>
<totfact> 0.21976429E+02</totfact>
</mgrwt>
</event>
<event>
 4    2  0.9452525E-001  0.2088448E+03  0.7546771E-02  0.1142484E+00
          1   -1    0    0  502    0  0.00000000000E+00  0.00000000000E+00  0.19602561096E+03  0.19602561096E+03  0.00000000000E+00 0. -1.
         -1   -1    0    0    0  501 -0.00000000000E+00 -0.00000000000E+00 -0.22573083743E+03  0.22573083743E+03  0.00000000000E+00 0.  1.
          6    1    1    2  502    0  0.67992887412E+02  0.95205739161E+02  0.10366722293E+02  0.20910197139E+03  0.17300000000E+03 0.  1.
         -6    1    1    2    0  501 -0.67992887412E+02 -0.95205739161E+02 -0.40071948761E+02  0.21265447699E+03  0.17300000000E+03 0.  1.
<mgrwt>
<rscale>  2 0.20884484E+03</rscale>
<asrwt>0</asrwt>
<pdfrwt beam="1">  1        1 0.30157787E-01 0.20884484E+03</pdfrwt>
<pdfrwt beam="2">  1       -1 0.34727821E-01 0.20884484E+03</pdfrwt>
<totfact> 0.11881163E+03</totfact>
</mgrwt>
</event>
<event>
 4    2  0.9452525E-001  0.3568862E+03  0.7546771E-02  0.1059824E+00
         -2   -1    0    0    0  501 -0.00000000000E+00  0.00000000000E+00  0.14363915209E+03  0.14363915209E+03  0.00000000000E+00 0.  1.
          2   -1    0    0  502    0  0.00000000000E+00 -0.00000000000E+00 -0.95906253658E+03  0.95906253658E+03  0.00000000000E+00 0. -1.
          6    1    1    2  502    0 -0.21635085421E+02 -0.31140116273E+03 -0.25628572459E+03  0.43937470762E+03  0.17300000000E+03 0.  1.
         -6    1    1    2    0  501  0.21635085421E+02  0.31140116273E+03 -0.55913765990E+03  0.66332698105E+03  0.17300000000E+03 0.  1.
<mgrwt>
<rscale>  2 0.35688620E+03</rscale>
<asrwt>0</asrwt>
<pdfrwt beam="1">  1        2 0.14754809E+00 0.35688620E+03</pdfrwt>
<pdfrwt beam="2">  1       -2 0.22098330E-01 0.35688620E+03</pdfrwt>
<totfact> 0.49151614E+02</totfact>
</mgrwt>
</event>
<event>
 4    2  0.9452525E-001  0.2862343E+03  0.7546771E-02  0.1092332E+00
         -2   -1    0    0    0  501 -0.00000000000E+00  0.00000000000E+00  0.83568068068E+02  0.83568068068E+02  0.00000000000E+00 0. -1.
          2   -1    0    0  502    0  0.00000000000E+00 -0.00000000000E+00 -0.10043053752E+04  0.10043053752E+04  0.00000000000E+00 0.  1.
          6    1    1    2  502    0 -0.75154486377E+02  0.21529716001E+03 -0.54428969741E+03  0.61496450193E+03  0.17300000000E+03 0. -1.
         -6    1    1    2    0  501  0.75154486377E+02 -0.21529716001E+03 -0.37644760972E+03  0.47290894133E+03  0.17300000000E+03 0. -1.
<mgrwt>
<rscale>  2 0.28623428E+03</rscale>
<asrwt>0</asrwt>
<pdfrwt beam="1">  1        2 0.15450853E+00 0.28623428E+03</pdfrwt>
<pdfrwt beam="2">  1       -2 0.12856625E-01 0.28623428E+03</pdfrwt>
<totfact> 0.11536352E+03</totfact>
</mgrwt>
</event>
<event>
 4    2  0.9452525E-001  0.2093562E+03  0.7546771E-02  0.1142077E+00
          1   -1    0    0  502    0  0.00000000000E+00  0.00000000000E+00  0.57886367389E+03  0.57886367389E+03  0.00000000000E+00 0. -1.
         -1   -1    0    0    0  501 -0.00000000000E+00 -0.00000000000E+00 -0.80513607290E+02  0.80513607290E+02  0.00000000000E+00 0.  1.
          6    1    1    2  502    0 -0.17379025139E+01 -0.11788980213E+03  0.32964251193E+03  0.39050507222E+03  0.17300000000E+03 0. -1.
         -6    1    1    2    0  501  0.17379025139E+01  0.11788980213E+03  0.16870755467E+03  0.26887220897E+03  0.17300000000E+03 0.  1.
<mgrwt>
<rscale>  2 0.20935622E+03</rscale>
<asrwt>0</asrwt>
<pdfrwt beam="1">  1        1 0.89055947E-01 0.20935622E+03</pdfrwt>
<pdfrwt beam="2">  1       -1 0.12386709E-01 0.20935622E+03</pdfrwt>
<totfact> 0.16050324E+03</totfact>
</mgrwt>
</event>
<event>
 4    2  0.9452525E-001  0.5786823E+03  0.7546771E-02  0.9950648E-01
          2   -1    0    0  502    0  0.00000000000E+00  0.00000000000E+00  0.11240917736E+04  0.11240917736E+04  0.00000000000E+00 0.  1.
         -2   -1    0    0    0  501 -0.00000000000E+00 -0.00000000000E+00 -0.38562481265E+03  0.38562481265E+03  0.00000000000E+00 0. -1.
          6    1    1    2  502    0  0.27956857451E+03  0.47622010620E+03  0.92103256925E+01  0.57875556801E+03  0.17300000000E+03 0. -1.
         -6    1    1    2    0  501 -0.27956857451E+03 -0.47622010620E+03  0.72925663521E+03  0.93096101820E+03  0.17300000000E+03 0.  1.
<mgrwt>
<rscale>  2 0.57868228E+03</rscale>
<asrwt>0</asrwt>
<pdfrwt beam="1">  1        2 0.17293720E+00 0.57868228E+03</pdfrwt>
<pdfrwt beam="2">  1       -2 0.59326894E-01 0.57868228E+03</pdfrwt>
<totfact> 0.57761242E+01</totfact>
</mgrwt>
</event>
<event>
 4    2  0.9452525E-001  0.1967236E+03  0.7546771E-02  0.1152533E+00
          1   -1    0    0  502    0  0.00000000000E+00  0.00000000000E+00  0.11392091677E+04  0.11392091677E+04  0.00000000000E+00 0. -1.
         -1   -1    0    0    0  501 -0.00000000000E+00 -0.00000000000E+00 -0.43430673792E+02  0.43430673792E+02  0.00000000000E+00 0.  1.
          6    1    1    2  502    0  0.88345269377E+02 -0.31085440108E+02  0.27192046436E+03  0.33562021713E+03  0.17300000000E+03 0.  1.
         -6    1    1    2    0  501 -0.88345269377E+02  0.31085440108E+02  0.82385802958E+03  0.84701962440E+03  0.17300000000E+03 0. -1.
<mgrwt>
<rscale>  2 0.19672364E+03</rscale>
<asrwt>0</asrwt>
<pdfrwt beam="1">  1        1 0.17526293E+00 0.19672364E+03</pdfrwt>
<pdfrwt beam="2">  1       -1 0.66816430E-02 0.19672364E+03</pdfrwt>
<totfact> 0.14357843E+03</totfact>
</mgrwt>
</event>
<event>
 4    2  0.9452525E-001  0.2422247E+03  0.7546771E-02  0.1118320E+00
         -2   -1    0    0    0  501 -0.00000000000E+00  0.00000000000E+00  0.94129754720E+03  0.94129754720E+03  0.00000000000E+00 0. -1.
          2   -1    0    0  502    0  0.00000000000E+00 -0.00000000000E+00 -0.70946753370E+02  0.70946753370E+02  0.00000000000E+00 0.  1.
          6    1    1    2  502    0  0.16332670876E+03  0.45477585259E+02  0.25880970841E+03  0.35447889884E+03  0.17300000000E+03 0.  1.
         -6    1    1    2    0  501 -0.16332670876E+03 -0.45477585259E+02  0.61154108542E+03  0.65776540173E+03  0.17300000000E+03 0. -1.
<mgrwt>
<rscale>  2 0.24222474E+03</rscale>
<asrwt>0</asrwt>
<pdfrwt beam="1">  1        2 0.10914886E-01 0.24222474E+03</pdfrwt>
<pdfrwt beam="2">  1       -2 0.14481500E+00 0.24222474E+03</pdfrwt>
<totfact> 0.19971478E+02</totfact>
</mgrwt>
</event>
<event>
 4    2  0.9452525E-001  0.2348324E+03  0.7546771E-02  0.1123284E+00
          1   -1    0    0  502    0  0.00000000000E+00  0.00000000000E+00  0.22437567435E+03  0.22437567435E+03  0.00000000000E+00 0.  1.
         -1   -1    0    0    0  501 -0.00000000000E+00 -0.00000000000E+00 -0.28330699613E+03  0.28330699613E+03  0.00000000000E+00 0. -1.
          6    1    1    2  502    0  0.45695322189E+02  0.15208292694E+03 -0.12185578651E+03  0.26456589320E+03  0.17300000000E+03 0.  1.
         -6    1    1    2    0  501 -0.45695322189E+02 -0.15208292694E+03  0.62924464730E+02  0.24311677729E+03  0.17300000000E+03 0.  1.
<mgrwt>
<rscale>  2 0.23483245E+03</rscale>
<asrwt>0</asrwt>
<pdfrwt beam="1">  1        1 0.34519334E-01 0.23483245E+03</pdfrwt>
<pdfrwt beam="2">  1       -1 0.43585692E-01 0.23483245E+03</pdfrwt>
<totfact> 0.67185403E+02</totfact>
</mgrwt>
</event>
<event>
 4    2  0.9452525E-001  0.2712010E+03  0.7546771E-02  0.1100594E+00
         -1   -1    0    0    0  501 -0.00000000000E+00  0.00000000000E+00  0.75238479861E+03  0.75238479861E+03  0.00000000000E+00 0.  1.
          1   -1    0    0  502    0  0.00000000000E+00 -0.00000000000E+00 -0.10024862187E+03  0.10024862187E+03  0.00000000000E+00 0. -1.
          6    1    1    2  502    0  0.12377509152E+03 -0.16822817356E+03  0.25884210244E+03  0.37489895392E+03  0.17300000000E+03 0. -1.
         -6    1    1    2    0  501 -0.12377509152E+03  0.16822817356E+03  0.39329407430E+03  0.47773446656E+03  0.17300000000E+03 0.  1.
<mgrwt>
<rscale>  2 0.27120102E+03</rscale>
<asrwt>0</asrwt>
<pdfrwt beam="1">  1        1 0.15422865E-01 0.27120102E+03</pdfrwt>
<pdfrwt beam="2">  1       -1 0.11575150E+00 0.27120102E+03</pdfrwt>
<totfact> 0.25951944E+02</totfact>
</mgrwt>
</event>
<event>
 4    2  0.9452525E-001  0.2035846E+03  0.7546771E-02  0.1146749E+00
          1   -1    0    0  502    0  0.00000000000E+00  0.00000000000E+00  0.83516490833E+03  0.83516490833E+03  0.00000000000E+00 0. -1.
         -1   -1    0    0    0  501 -0.00000000000E+00 -0.00000000000E+00 -0.57589074919E+02  0.57589074919E+02  0.00000000000E+00 0.  1.
          6    1    1    2  502    0 -0.10650519483E+03 -0.13202774101E+02  0.22281133702E+03  0.30181378642E+03  0.17300000000E+03 0.  1.
         -6    1    1    2    0  501  0.10650519483E+03  0.13202774101E+02  0.55476449639E+03  0.59094019683E+03  0.17300000000E+03 0. -1.
<mgrwt>
<rscale>  2 0.20358455E+03</rscale>
<asrwt>0</asrwt>
<pdfrwt beam="1">  1        1 0.12848690E+00 0.20358455E+03</pdfrwt>
<pdfrwt beam="2">  1       -1 0.88598583E-02 0.20358455E+03</pdfrwt>
<totfact> 0.15813497E+03</totfact>
</mgrwt>
</event>
<event>
 4    2  0.9452525E-001  0.2246329E+03  0.7546771E-02  0.1130475E+00
         -1   -1    0    0    0  501 -0.00000000000E+00  0.00000000000E+00  0.23784114786E+02  0.23784114786E+02  0.00000000000E+00 0.  1.
          1   -1    0    0  502    0  0.00000000000E+00 -0.00000000000E+00 -0.21348740416E+04  0.21348740416E+04  0.00000000000E+00 0. -1.
          6    1    1    2  502    0  0.10808862403E+03  0.94062744527E+02 -0.97037958335E+03  0.99604040397E+03  0.17300000000E+03 0.  1.
         -6    1    1    2    0  501 -0.10808862403E+03 -0.94062744527E+02 -0.11407103434E+04  0.11626177524E+04  0.17300000000E+03 0. -1.
<mgrwt>
<rscale>  2 0.22463292E+03</rscale>
<asrwt>0</asrwt>
<pdfrwt beam="1">  1        1 0.32844225E+00 0.22463292E+03</pdfrwt>
<pdfrwt beam="2">  1       -1 0.36590936E-02 0.22463292E+03</pdfrwt>
<totfact> 0.77840725E+02</totfact>
</mgrwt>
</event>
<event>
 4    2  0.9452525E-001  0.2718169E+03  0.7546771E-02  0.1100244E+00
          2   -1    0    0  502    0  0.00000000000E+00  0.00000000000E+00  0.57974376095E+03  0.57974376095E+03  0.00000000000E+00 0.  1.
         -2   -1    0    0    0  501 -0.00000000000E+00 -0.00000000000E+00 -0.12814968723E+03  0.12814968723E+03  0.00000000000E+00 0. -1.
          6    1    1    2  502    0  0.50916906291E+02 -0.20337876012E+03  0.19951832590E+03  0.33718246364E+03  0.17300000000E+03 0. -1.
         -6    1    1    2    0  501 -0.50916906291E+02  0.20337876012E+03  0.25207574782E+03  0.37071098454E+03  0.17300000000E+03 0. -1.
<mgrwt>
<rscale>  2 0.27181694E+03</rscale>
<asrwt>0</asrwt>
<pdfrwt beam="1">  1        2 0.89191346E-01 0.27181694E+03</pdfrwt>
<pdfrwt beam="2">  1       -2 0.19715337E-01 0.27181694E+03</pdfrwt>
<totfact> 0.11331255E+03</totfact>
</mgrwt>
</event>
<event>
 4    2  0.9452525E-001  0.2062136E+03  0.7546771E-02  0.1144600E+00
          1   -1    0    0  502    0  0.00000000000E+00  0.00000000000E+00  0.10084957519E+04  0.10084957519E+04  0.00000000000E+00 0.  1.
         -1   -1    0    0    0  501 -0.00000000000E+00 -0.00000000000E+00 -0.42909591376E+02  0.42909591376E+02  0.00000000000E+00 0. -1.
          6    1    1    2  502    0  0.17670009849E+02 -0.11082790949E+03  0.55200508731E+03  0.58926536568E+03  0.17300000000E+03 0.  1.
         -6    1    1    2    0  501 -0.17670009849E+02  0.11082790949E+03  0.41358107317E+03  0.46213997756E+03  0.17300000000E+03 0. -1.
<mgrwt>
<rscale>  2 0.20621361E+03</rscale>
<asrwt>0</asrwt>
<pdfrwt beam="1">  1        1 0.15515317E+00 0.20621361E+03</pdfrwt>
<pdfrwt beam="2">  1       -1 0.66014764E-02 0.20621361E+03</pdfrwt>
<totfact> 0.18174748E+03</totfact>
</mgrwt>
</event>
<event>
 4    2  0.9452525E-001  0.4231745E+03  0.7546771E-02  0.1036038E+00
         -1   -1    0    0    0  501 -0.00000000000E+00  0.00000000000E+00  0.70612291819E+03  0.70612291819E+03  0.00000000000E+00 0. -1.
          1   -1    0    0  502    0  0.00000000000E+00 -0.00000000000E+00 -0.26764733855E+03  0.26764733855E+03  0.00000000000E+00 0.  1.
          6    1    1    2  502    0 -0.21757434497E+03  0.31907529165E+03  0.33075899022E+03  0.53710161696E+03  0.17300000000E+03 0.  1.
         -6    1    1    2    0  501  0.21757434497E+03 -0.31907529165E+03  0.10771658942E+03  0.43666863978E+03  0.17300000000E+03 0. -1.
<mgrwt>
<rscale>  2 0.42317448E+03</rscale>
<asrwt>0</asrwt>
<pdfrwt beam="1">  1        1 0.41176514E-01 0.42317448E+03</pdfrwt>
<pdfrwt beam="2">  1       -1 0.10863429E+00 0.42317448E+03</pdfrwt>
<totfact> 0.83635343E+01</totfact>
</mgrwt>
</event>
<event>
 4    2  0.9452525E-001  0.2180978E+03  0.7546771E-02  0.1135309E+00
         -2   -1    0    0    0  501 -0.00000000000E+00  0.00000000000E+00  0.61830320960E+02  0.61830320960E+02  0.00000000000E+00 0. -1.
          2   -1    0    0  502    0  0.00000000000E+00 -0.00000000000E+00 -0.78996696748E+03  0.78996696748E+03  0.00000000000E+00 0.  1.
          6    1    1    2  502    0  0.13215194844E+03  0.13172869361E+02 -0.29519693170E+03  0.36702573540E+03  0.17300000000E+03 0. -1.
         -6    1    1    2    0  501 -0.13215194844E+03 -0.13172869361E+02 -0.43293971482E+03  0.48477155304E+03  0.17300000000E+03 0. -1.
<mgrwt>
<rscale>  2 0.21809783E+03</rscale>
<asrwt>0</asrwt>
<pdfrwt beam="1">  1        2 0.12153338E+00 0.21809783E+03</pdfrwt>
<pdfrwt beam="2">  1       -2 0.95123569E-02 0.21809783E+03</pdfrwt>
<totfact> 0.25765938E+03</totfact>
</mgrwt>
</event>
<event>
 4    2  0.9452525E-001  0.1890914E+03  0.7546771E-02  0.1159283E+00
         -1   -1    0    0    0  501 -0.00000000000E+00  0.00000000000E+00  0.15745386036E+02  0.15745386036E+02  0.00000000000E+00 0.  1.
          1   -1    0    0  502    0  0.00000000000E+00 -0.00000000000E+00 -0.27203599500E+04  0.27203599500E+04  0.00000000000E+00 0. -1.
          6    1    1    2  502    0  0.75287098973E+02 -0.12586185819E+02 -0.19084095934E+04  0.19177546077E+04  0.17300000000E+03 0. -1.
         -6    1    1    2    0  501 -0.75287098973E+02  0.12586185819E+02 -0.79620497060E+03  0.81835072833E+03  0.17300000000E+03 0.  1.
<mgrwt>
<rscale>  2 0.18909140E+03</rscale>
<asrwt>0</asrwt>
<pdfrwt beam="1">  1        1 0.41851691E+00 0.18909140E+03</pdfrwt>
<pdfrwt beam="2">  1       -1 0.24223671E-02 0.18909140E+03</pdfrwt>
<totfact> 0.59193862E+02</totfact>
</mgrwt>
</event>
<event>
 4    2  0.9452525E-001  0.1931340E+03  0.7546771E-02  0.1155665E+00
          1   -1    0    0  502    0  0.00000000000E+00  0.00000000000E+00  0.93049999986E+03  0.93049999986E+03  0.00000000000E+00 0. -1.
         -1   -1    0    0    0  501 -0.00000000000E+00 -0.00000000000E+00 -0.40594505315E+02  0.40594505315E+02  0.00000000000E+00 0.  1.
          6    1    1    2  502    0 -0.71839240261E+02  0.47019724762E+02  0.49925532882E+03  0.53530983021E+03  0.17300000000E+03 0. -1.
         -6    1    1    2    0  501  0.71839240261E+02 -0.47019724762E+02  0.39065016573E+03  0.43578467497E+03  0.17300000000E+03 0. -1.
<mgrwt>
<rscale>  2 0.19313397E+03</rscale>
<asrwt>0</asrwt>
<pdfrwt beam="1">  1        1 0.14315383E+00 0.19313397E+03</pdfrwt>
<pdfrwt beam="2">  1       -1 0.62453092E-02 0.19313397E+03</pdfrwt>
<totfact> 0.22605643E+03</totfact>
</mgrwt>
</event>
<event>
 4    2  0.9452525E-001  0.1892110E+03  0.7546771E-02  0.1159175E+00
          3   -1    0    0  502    0  0.00000000000E+00  0.00000000000E+00  0.12743028216E+03  0.12743028216E+03  0.00000000000E+00 0.  1.
         -3   -1    0    0    0  501 -0.00000000000E+00 -0.00000000000E+00 -0.29821692641E+03  0.29821692641E+03  0.00000000000E+00 0. -1.
          6    1    1    2  502    0 -0.92884081271E+01 -0.76062721375E+02 -0.34174124482E+02  0.19227241844E+03  0.17300000000E+03 0.  1.
         -6    1    1    2    0  501  0.92884081271E+01  0.76062721375E+02 -0.13661251977E+03  0.23337479012E+03  0.17300000000E+03 0. -1.
<mgrwt>
<rscale>  2 0.18921103E+03</rscale>
<asrwt>0</asrwt>
<pdfrwt beam="1">  1        3 0.19604659E-01 0.18921103E+03</pdfrwt>
<pdfrwt beam="2">  1       -3 0.45879527E-01 0.18921103E+03</pdfrwt>
<totfact> 0.26773080E+02</totfact>
</mgrwt>
</event>
<event>
 4    2  0.9452525E-001  0.2151926E+03  0.7546771E-02  0.1137519E+00
         -1   -1    0    0    0  501 -0.00000000000E+00  0.00000000000E+00  0.88347362151E+02  0.88347362151E+02  0.00000000000E+00 0.  1.
          1   -1    0    0  502    0  0.00000000000E+00 -0.00000000000E+00 -0.53297056917E+03  0.53297056917E+03  0.00000000000E+00 0. -1.
          6    1    1    2  502    0  0.12088005288E+03  0.42034351512E+02 -0.26226118239E+03  0.33924740482E+03  0.17300000000E+03 0.  1.
         -6    1    1    2    0  501 -0.12088005288E+03 -0.42034351512E+02 -0.18236202463E+03  0.28207052650E+03  0.17300000000E+03 0. -1.
<mgrwt>
<rscale>  2 0.21519264E+03</rscale>
<asrwt>0</asrwt>
<pdfrwt beam="1">  1        1 0.81995471E-01 0.21519264E+03</pdfrwt>
<pdfrwt beam="2">  1       -1 0.13591902E-01 0.21519264E+03</pdfrwt>
<totfact> 0.15526143E+03</totfact>
</mgrwt>
</event>
<event>
 4    2  0.9452525E-001  0.1810134E+03  0.7546771E-02  0.1166826E+00
         -1   -1    0    0    0  501 -0.00000000000E+00  0.00000000000E+00  0.48557065705E+02  0.48557065705E+02  0.00000000000E+00 0. -1.
          1   -1    0    0  502    0  0.00000000000E+00 -0.00000000000E+00 -0.69469422276E+03  0.69469422276E+03  0.00000000000E+00 0.  1.
          6    1    1    2  502    0 -0.50896080968E+02  0.15698455754E+02 -0.26016510077E+03  0.31694121258E+03  0.17300000000E+03 0. -1.
         -6    1    1    2    0  501  0.50896080968E+02 -0.15698455754E+02 -0.38597205628E+03  0.42631007589E+03  0.17300000000E+03 0.  1.
<mgrwt>
<rscale>  2 0.18101340E+03</rscale>
<asrwt>0</asrwt>
<pdfrwt beam="1">  1        1 0.10687603E+00 0.18101340E+03</pdfrwt>
<pdfrwt beam="2">  1       -1 0.74703181E-02 0.18101340E+03</pdfrwt>
<totfact> 0.26957732E+03</totfact>
</mgrwt>
</event>
<event>
 4    2  0.9452525E-001  0.2709494E+03  0.7546771E-02  0.1100737E+00
         -1   -1    0    0    0  501 -0.00000000000E+00  0.00000000000E+00  0.81558745252E+02  0.81558745252E+02  0.00000000000E+00 0.  1.
          1   -1    0    0  502    0  0.00000000000E+00 -0.00000000000E+00 -0.93908669658E+03  0.93908669658E+03  0.00000000000E+00 0. -1.
          6    1    1    2  502    0 -0.76105026743E+02 -0.19414580559E+03 -0.53270251059E+03  0.59765000938E+03  0.17300000000E+03 0.  1.
         -6    1    1    2    0  501  0.76105026743E+02  0.19414580559E+03 -0.32482544074E+03  0.42299543245E+03  0.17300000000E+03 0. -1.
<mgrwt>
<rscale>  2 0.27094938E+03</rscale>
<asrwt>0</asrwt>
<pdfrwt beam="1">  1        1 0.14447487E+00 0.27094938E+03</pdfrwt>
<pdfrwt beam="2">  1       -1 0.12547500E-01 0.27094938E+03</pdfrwt>
<totfact> 0.76203771E+02</totfact>
</mgrwt>
</event>
<event>
 4    2  0.9452525E-001  0.1902829E+03  0.7546771E-02  0.1158206E+00
         -2   -1    0    0    0  501 -0.00000000000E+00  0.00000000000E+00  0.17231753984E+02  0.17231753984E+02  0.00000000000E+00 0. -1.
          2   -1    0    0  502    0  0.00000000000E+00 -0.00000000000E+00 -0.25927415476E+04  0.25927415476E+04  0.00000000000E+00 0.  1.
          6    1    1    2  502    0  0.48135412780E+02  0.62941044501E+02 -0.18559541190E+04  0.18656830612E+04  0.17300000000E+03 0.  1.
         -6    1    1    2    0  501 -0.48135412780E+02 -0.62941044501E+02 -0.71955567464E+03  0.74429024040E+03  0.17300000000E+03 0. -1.
<mgrwt>
<rscale>  2 0.19028293E+03</rscale>
<asrwt>0</asrwt>
<pdfrwt beam="1">  1        2 0.39888301E+00 0.19028293E+03</pdfrwt>
<pdfrwt beam="2">  1       -2 0.26510411E-02 0.19028293E+03</pdfrwt>
<totfact> 0.18330278E+03</totfact>
</mgrwt>
</event>
<event>
 4    2  0.9452525E-001  0.2391130E+03  0.7546771E-02  0.1120385E+00
          2   -1    0    0  502    0  0.00000000000E+00  0.00000000000E+00  0.17358324782E+04  0.17358324782E+04  0.00000000000E+00 0. -1.
         -2   -1    0    0    0  501 -0.00000000000E+00 -0.00000000000E+00 -0.35875339542E+02  0.35875339542E+02  0.00000000000E+00 0.  1.
          6    1    1    2  502    0  0.14061264038E+02  0.16446363348E+03  0.11034532238E+04  0.11290633388E+04  0.17300000000E+03 0. -1.
         -6    1    1    2    0  501 -0.14061264038E+02 -0.16446363348E+03  0.59650391479E+03  0.64264447888E+03  0.17300000000E+03 0.  1.
<mgrwt>
<rscale>  2 0.23911296E+03</rscale>
<asrwt>0</asrwt>
<pdfrwt beam="1">  1        2 0.26705109E+00 0.23911296E+03</pdfrwt>
<pdfrwt beam="2">  1       -2 0.55192843E-02 0.23911296E+03</pdfrwt>
<totfact> 0.17247456E+03</totfact>
</mgrwt>
</event>
<event>
 4    2  0.9452525E-001  0.2134490E+03  0.7546771E-02  0.1138864E+00
          1   -1    0    0  502    0  0.00000000000E+00  0.00000000000E+00  0.34837562193E+03  0.34837562193E+03  0.00000000000E+00 0.  1.
         -1   -1    0    0    0  501 -0.00000000000E+00 -0.00000000000E+00 -0.13097105506E+03  0.13097105506E+03  0.00000000000E+00 0. -1.
          6    1    1    2  502    0 -0.10282385957E+03  0.71124705265E+02  0.99541809913E+02  0.23551866533E+03  0.17300000000E+03 0.  1.
         -6    1    1    2    0  501  0.10282385957E+03 -0.71124705265E+02  0.11786275695E+03  0.24382801167E+03  0.17300000000E+03 0. -1.
<mgrwt>
<rscale>  2 0.21344899E+03</rscale>
<asrwt>0</asrwt>
<pdfrwt beam="1">  1        1 0.53596249E-01 0.21344899E+03</pdfrwt>
<pdfrwt beam="2">  1       -1 0.20149393E-01 0.21344899E+03</pdfrwt>
<totfact> 0.14359846E+03</totfact>
</mgrwt>
</event>
<event>
 4    2  0.9452525E-001  0.2082180E+03  0.7546771E-02  0.1142985E+00
         -1   -1    0    0    0  501 -0.00000000000E+00  0.00000000000E+00  0.36659480370E+03  0.36659480370E+03  0.00000000000E+00 0.  1.
          1   -1    0    0  502    0  0.00000000000E+00 -0.00000000000E+00 -0.17364028796E+03  0.17364028796E+03  0.00000000000E+00 0. -1.
          6    1    1    2  502    0  0.77052784662E+02 -0.86536714935E+02 -0.56065629036E+02  0.21563415642E+03  0.17300000000E+03 0. -1.
         -6    1    1    2    0  501 -0.77052784662E+02  0.86536714935E+02  0.24902014477E+03  0.32460093524E+03  0.17300000000E+03 0.  1.
<mgrwt>
<rscale>  2 0.20821800E+03</rscale>
<asrwt>0</asrwt>
<pdfrwt beam="1">  1        1 0.26713890E-01 0.20821800E+03</pdfrwt>
<pdfrwt beam="2">  1       -1 0.56399201E-01 0.20821800E+03</pdfrwt>
<totfact> 0.57691905E+02</totfact>
</mgrwt>
</event>
<event>
 4    2  0.9452525E-001  0.1737616E+03  0.7546771E-02  0.1173981E+00
          2   -1    0    0  502    0  0.00000000000E+00  0.00000000000E+00  0.18979587964E+04  0.18979587964E+04  0.00000000000E+00 0. -1.
         -2   -1    0    0    0  501 -0.00000000000E+00 -0.00000000000E+00 -0.18653590726E+02  0.18653590726E+02  0.00000000000E+00 0.  1.
          6    1    1    2  502    0  0.77272945239E+00 -0.16232068790E+02  0.57200948176E+03  0.59781930748E+03  0.17300000000E+03 0.  1.
         -6    1    1    2    0  501 -0.77272945239E+00  0.16232068790E+02  0.13072957239E+04  0.13187930796E+04  0.17300000000E+03 0. -1.
<mgrwt>
<rscale>  2 0.17376155E+03</rscale>
<asrwt>0</asrwt>
<pdfrwt beam="1">  1        2 0.29199351E+00 0.17376155E+03</pdfrwt>
<pdfrwt beam="2">  1       -2 0.28697847E-02 0.17376155E+03</pdfrwt>
<totfact> 0.37980588E+03</totfact>
</mgrwt>
</event>
<event>
 4    2  0.9452525E-001  0.1865433E+03  0.7546771E-02  0.1161617E+00
          1   -1    0    0  502    0  0.00000000000E+00  0.00000000000E+00  0.36046592026E+03  0.36046592026E+03  0.00000000000E+00 0. -1.
         -1   -1    0    0    0  501 -0.00000000000E+00 -0.00000000000E+00 -0.10311509745E+03  0.10311509745E+03  0.00000000000E+00 0.  1.
          6    1    1    2  502    0 -0.13451436822E+02 -0.68472358848E+02  0.18721840357E+03  0.26428987062E+03  0.17300000000E+03 0. -1.
         -6    1    1    2    0  501  0.13451436822E+02  0.68472358848E+02  0.70132419246E+02  0.19929114709E+03  0.17300000000E+03 0.  1.
<mgrwt>
<rscale>  2 0.18654331E+03</rscale>
<asrwt>0</asrwt>
<pdfrwt beam="1">  1        1 0.55456295E-01 0.18654331E+03</pdfrwt>
<pdfrwt beam="2">  1       -1 0.15863861E-01 0.18654331E+03</pdfrwt>
<totfact> 0.20127738E+03</totfact>
</mgrwt>
</event>
<event>
 4    2  0.9452525E-001  0.1916853E+03  0.7546771E-02  0.1156950E+00
          2   -1    0    0  502    0  0.00000000000E+00  0.00000000000E+00  0.82541664615E+03  0.82541664615E+03  0.00000000000E+00 0. -1.
         -2   -1    0    0    0  501 -0.00000000000E+00 -0.00000000000E+00 -0.44913007544E+02  0.44913007544E+02  0.00000000000E+00 0.  1.
          6    1    1    2  502    0 -0.39263578866E+02  0.72612940841E+02  0.34927716786E+03  0.39841913582E+03  0.17300000000E+03 0. -1.
         -6    1    1    2    0  501  0.39263578866E+02 -0.72612940841E+02  0.43122647074E+03  0.47191051787E+03  0.17300000000E+03 0.  1.
<mgrwt>
<rscale>  2 0.19168534E+03</rscale>
<asrwt>0</asrwt>
<pdfrwt beam="1">  1        2 0.12698717E+00 0.19168534E+03</pdfrwt>
<pdfrwt beam="2">  1       -2 0.69096941E-02 0.19168534E+03</pdfrwt>
<totfact> 0.40016078E+03</totfact>
</mgrwt>
</event>
<event>
 4    2  0.9452525E-001  0.1842624E+03  0.7546771E-02  0.1163740E+00
         -1   -1    0    0    0  501 -0.00000000000E+00  0.00000000000E+00  0.81690575996E+02  0.81690575996E+02  0.00000000000E+00 0.  1.
          1   -1    0    0  502    0  0.00000000000E+00 -0.00000000000E+00 -0.49813184557E+03  0.49813184557E+03  0.00000000000E+00 0. -1.
          6    1    1    2  502    0  0.15782316333E+01  0.63412595609E+02 -0.32620861562E+03  0.37465278459E+03  0.17300000000E+03 0. -1.
         -6    1    1    2    0  501 -0.15782316333E+01 -0.63412595609E+02 -0.90232653954E+02  0.20516963698E+03  0.17300000000E+03 0.  1.
<mgrwt>
<rscale>  2 0.18426244E+03</rscale>
<asrwt>0</asrwt>
<pdfrwt beam="1">  1        1 0.76635668E-01 0.18426244E+03</pdfrwt>
<pdfrwt beam="2">  1       -1 0.12567781E-01 0.18426244E+03</pdfrwt>
<totfact> 0.19149845E+03</totfact>
</mgrwt>
</event>
<event>
 4    2  0.9452525E-001  0.2806886E+03  0.7546771E-02  0.1095313E+00
          2   -1    0    0  502    0  0.00000000000E+00  0.00000000000E+00  0.89050971216E+03  0.89050971216E+03  0.00000000000E+00 0. -1.
         -2   -1    0    0    0  501 -0.00000000000E+00 -0.00000000000E+00 -0.88473244520E+02  0.88473244520E+02  0.00000000000E+00 0.  1.
          6    1    1    2  502    0 -0.20925341169E+03  0.71204658644E+02  0.40025849647E+03  0.48886905988E+03  0.17300000000E+03 0. -1.
         -6    1    1    2    0  501  0.20925341169E+03 -0.71204658644E+02  0.40177797117E+03  0.49011389679E+03  0.17300000000E+03 0. -1.
<mgrwt>
<rscale>  2 0.28068861E+03</rscale>
<asrwt>0</asrwt>
<pdfrwt beam="1">  1        2 0.13700149E+00 0.28068861E+03</pdfrwt>
<pdfrwt beam="2">  1       -2 0.13611269E-01 0.28068861E+03</pdfrwt>
<totfact> 0.12403908E+03</totfact>
</mgrwt>
</event>
<event>
 4    2  0.9452525E-001  0.1742455E+03  0.7546771E-02  0.1173491E+00
         -3   -1    0    0    0  501 -0.00000000000E+00  0.00000000000E+00  0.47678342086E+03  0.47678342086E+03  0.00000000000E+00 0.  1.
          3   -1    0    0  502    0  0.00000000000E+00 -0.00000000000E+00 -0.66753400877E+02  0.66753400877E+02  0.00000000000E+00 0. -1.
          6    1    1    2  502    0 -0.16325525887E+02  0.12882392631E+02  0.14669935868E+03  0.22777660256E+03  0.17300000000E+03 0. -1.
         -6    1    1    2    0  501  0.16325525887E+02 -0.12882392631E+02  0.26333066130E+03  0.31576021918E+03  0.17300000000E+03 0.  1.
<mgrwt>
<rscale>  2 0.17424546E+03</rscale>
<asrwt>0</asrwt>
<pdfrwt beam="1">  1        3 0.10269754E-01 0.17424546E+03</pdfrwt>
<pdfrwt beam="2">  1       -3 0.73351293E-01 0.17424546E+03</pdfrwt>
<totfact> 0.30528506E+02</totfact>
</mgrwt>
</event>
<event>
 4    2  0.9452525E-001  0.2745149E+03  0.7546771E-02  0.1098723E+00
         -2   -1    0    0    0  501 -0.00000000000E+00  0.00000000000E+00  0.28780087495E+03  0.28780087495E+03  0.00000000000E+00 0. -1.
          2   -1    0    0  502    0  0.00000000000E+00 -0.00000000000E+00 -0.26673591147E+03  0.26673591147E+03  0.00000000000E+00 0.  1.
          6    1    1    2  502    0  0.21077711881E+03  0.31661667061E+02 -0.27022929614E+02  0.27584179107E+03  0.17300000000E+03 0.  1.
         -6    1    1    2    0  501 -0.21077711881E+03 -0.31661667061E+02  0.48087893091E+02  0.27869499536E+03  0.17300000000E+03 0. -1.
<mgrwt>
<rscale>  2 0.27451494E+03</rscale>
<asrwt>0</asrwt>
<pdfrwt beam="1">  1        2 0.41036294E-01 0.27451494E+03</pdfrwt>
<pdfrwt beam="2">  1       -2 0.44277058E-01 0.27451494E+03</pdfrwt>
<totfact> 0.60970577E+02</totfact>
</mgrwt>
</event>
<event>
 4    2  0.9452525E-001  0.2269624E+03  0.7546771E-02  0.1128796E+00
          1   -1    0    0  502    0  0.00000000000E+00  0.00000000000E+00  0.70448835326E+03  0.70448835326E+03  0.00000000000E+00 0. -1.
         -1   -1    0    0    0  501 -0.00000000000E+00 -0.00000000000E+00 -0.88842978244E+02  0.88842978244E+02  0.00000000000E+00 0.  1.
          6    1    1    2  502    0  0.11907102190E+03 -0.86052416595E+02  0.47469550326E+03  0.52616323272E+03  0.17300000000E+03 0. -1.
         -6    1    1    2    0  501 -0.11907102190E+03  0.86052416595E+02  0.14094987176E+03  0.26716809878E+03  0.17300000000E+03 0.  1.
<mgrwt>
<rscale>  2 0.22696239E+03</rscale>
<asrwt>0</asrwt>
<pdfrwt beam="1">  1        1 0.10838282E+00 0.22696239E+03</pdfrwt>
<pdfrwt beam="2">  1       -1 0.13668151E-01 0.22696239E+03</pdfrwt>
<totfact> 0.10428785E+03</totfact>
</mgrwt>
</event>
<event>
 4    2  0.9452525E-001  0.1930493E+03  0.7546771E-02  0.1155739E+00
          3   -1    0    0  502    0  0.00000000000E+00  0.00000000000E+00  0.92828355884E+02  0.92828355884E+02  0.00000000000E+00 0. -1.
         -3   -1    0    0    0  501 -0.00000000000E+00 -0.00000000000E+00 -0.44422937918E+03  0.44422937918E+03  0.00000000000E+00 0.  1.
          6    1    1    2  502    0  0.30422641440E+02  0.80084296371E+02 -0.25900921340E+03  0.32303839441E+03  0.17300000000E+03 0.  1.
         -6    1    1    2    0  501 -0.30422641440E+02 -0.80084296371E+02 -0.92391809894E+02  0.21401934065E+03  0.17300000000E+03 0. -1.
<mgrwt>
<rscale>  2 0.19304930E+03</rscale>
<asrwt>0</asrwt>
<pdfrwt beam="1">  1        3 0.14281286E-01 0.19304930E+03</pdfrwt>
<pdfrwt beam="2">  1       -3 0.68342981E-01 0.19304930E+03</pdfrwt>
<totfact> 0.20579523E+02</totfact>
</mgrwt>
</event>
<event>
 4    2  0.9452525E-001  0.2511494E+03  0.7546771E-02  0.1112581E+00
          2   -1    0    0  502    0  0.00000000000E+00  0.00000000000E+00  0.51122558591E+03  0.51122558591E+03  0.00000000000E+00 0.  1.
         -2   -1    0    0    0  501 -0.00000000000E+00 -0.00000000000E+00 -0.17031996696E+03  0.17031996696E+03  0.00000000000E+00 0. -1.
          6    1    1    2  502    0  0.17279812592E+03 -0.57339765104E+02 -0.84405402201E+01  0.25129123284E+03  0.17300000000E+03 0. -1.
         -6    1    1    2    0  501 -0.17279812592E+03  0.57339765104E+02  0.34934615917E+03  0.43025432004E+03  0.17300000000E+03 0.  1.
<mgrwt>
<rscale>  2 0.25114944E+03</rscale>
<asrwt>0</asrwt>
<pdfrwt beam="1">  1        2 0.78650089E-01 0.25114944E+03</pdfrwt>
<pdfrwt beam="2">  1       -2 0.26203072E-01 0.25114944E+03</pdfrwt>
<totfact> 0.79569486E+02</totfact>
</mgrwt>
</event>
<event>
 4    2  0.9452525E-001  0.2895597E+03  0.7546771E-02  0.1090579E+00
         -2   -1    0    0    0  501 -0.00000000000E+00  0.00000000000E+00  0.15067027844E+03  0.15067027844E+03  0.00000000000E+00 0.  1.
          2   -1    0    0  502    0  0.00000000000E+00 -0.00000000000E+00 -0.13045429441E+04  0.13045429441E+04  0.00000000000E+00 0. -1.
          6    1    1    2  502    0  0.22147323196E+03  0.69752729488E+02 -0.11279175922E+04  0.11644925635E+04  0.17300000000E+03 0. -1.
         -6    1    1    2    0  501 -0.22147323196E+03 -0.69752729488E+02 -0.25955073495E+02  0.29072065903E+03  0.17300000000E+03 0.  1.
<mgrwt>
<rscale>  2 0.28955973E+03</rscale>
<asrwt>0</asrwt>
<pdfrwt beam="1">  1        2 0.20069891E+00 0.28955973E+03</pdfrwt>
<pdfrwt beam="2">  1       -2 0.23180044E-01 0.28955973E+03</pdfrwt>
<totfact> 0.28486750E+02</totfact>
</mgrwt>
</event>
<event>
 4    2  0.9452525E-001  0.1943852E+03  0.7546771E-02  0.1154565E+00
         -1   -1    0    0    0  501 -0.00000000000E+00  0.00000000000E+00  0.35333703588E+02  0.35333703588E+02  0.00000000000E+00 0. -1.
          1   -1    0    0  502    0  0.00000000000E+00 -0.00000000000E+00 -0.10988865687E+04  0.10988865687E+04  0.00000000000E+00 0.  1.
          6    1    1    2  502    0 -0.88625520410E+02 -0.14592610129E+01 -0.62468489189E+03  0.65422994923E+03  0.17300000000E+03 0.  1.
         -6    1    1    2    0  501  0.88625520410E+02  0.14592610129E+01 -0.43886797321E+03  0.47999032305E+03  0.17300000000E+03 0. -1.
<mgrwt>
<rscale>  2 0.19438522E+03</rscale>
<asrwt>0</asrwt>
<pdfrwt beam="1">  1        1 0.16905943E+00 0.19438522E+03</pdfrwt>
<pdfrwt beam="2">  1       -1 0.54359559E-02 0.19438522E+03</pdfrwt>
<totfact> 0.20913076E+03</totfact>
</mgrwt>
</event>
<event>
 4    2  0.9452525E-001  0.2045034E+03  0.7546771E-02  0.1145994E+00
         -1   -1    0    0    0  501 -0.00000000000E+00  0.00000000000E+00  0.94136895767E+02  0.94136895767E+02  0.00000000000E+00 0.  1.
          1   -1    0    0  502    0  0.00000000000E+00 -0.00000000000E+00 -0.52386991630E+03  0.52386991630E+03  0.00000000000E+00 0. -1.
          6    1    1    2  502    0 -0.98267416599E+02 -0.47288076525E+02 -0.33532122927E+03  0.39276198155E+03  0.17300000000E+03 0. -1.
         -6    1    1    2    0  501  0.98267416599E+02  0.47288076525E+02 -0.94411791257E+02  0.22524483052E+03  0.17300000000E+03 0.  1.
<mgrwt>
<rscale>  2 0.20450342E+03</rscale>
<asrwt>0</asrwt>
<pdfrwt beam="1">  1        1 0.80595371E-01 0.20450342E+03</pdfrwt>
<pdfrwt beam="2">  1       -1 0.14482599E-01 0.20450342E+03</pdfrwt>
<totfact> 0.14365705E+03</totfact>
</mgrwt>
</event>
<event>
 4    2  0.9452525E-001  0.2160238E+03  0.7546771E-02  0.1136883E+00
          3   -1    0    0  502    0  0.00000000000E+00  0.00000000000E+00  0.64917827536E+02  0.64917827536E+02  0.00000000000E+00 0.  1.
         -3   -1    0    0    0  501 -0.00000000000E+00 -0.00000000000E+00 -0.74148096768E+03  0.74148096768E+03  0.00000000000E+00 0. -1.
          6    1    1    2  502    0  0.12372205445E+03  0.37816980709E+02 -0.26784340053E+03  0.34410224934E+03  0.17300000000E+03 0.  1.
         -6    1    1    2    0  501 -0.12372205445E+03 -0.37816980709E+02 -0.40871973961E+03  0.46229654588E+03  0.17300000000E+03 0. -1.
<mgrwt>
<rscale>  2 0.21602377E+03</rscale>
<asrwt>0</asrwt>
<pdfrwt beam="1">  1        3 0.99873578E-02 0.21602377E+03</pdfrwt>
<pdfrwt beam="2">  1       -3 0.11407400E+00 0.21602377E+03</pdfrwt>
<totfact> 0.12118297E+02</totfact>
</mgrwt>
</event>
<event>
 4    2  0.9452525E-001  0.1922508E+03  0.7546771E-02  0.1156447E+00
          2   -1    0    0  502    0  0.00000000000E+00  0.00000000000E+00  0.97274075916E+03  0.97274075916E+03  0.00000000000E+00 0. -1.
         -2   -1    0    0    0  501 -0.00000000000E+00 -0.00000000000E+00 -0.38054288876E+02  0.38054288876E+02  0.00000000000E+00 0.  1.
          6    1    1    2  502    0  0.22485252385E+02  0.80782338216E+02  0.44758337707E+03  0.48712549941E+03  0.17300000000E+03 0. -1.
         -6    1    1    2    0  501 -0.22485252385E+02 -0.80782338216E+02  0.48710309321E+03  0.52366954862E+03  0.17300000000E+03 0.  1.
<mgrwt>
<rscale>  2 0.19225081E+03</rscale>
<asrwt>0</asrwt>
<pdfrwt beam="1">  1        2 0.14965241E+00 0.19225081E+03</pdfrwt>
<pdfrwt beam="2">  1       -2 0.58545067E-02 0.19225081E+03</pdfrwt>
<totfact> 0.41516811E+03</totfact>
</mgrwt>
</event>
<event>
 4    2  0.9452525E-001  0.1931702E+03  0.7546771E-02  0.1155633E+00
          2   -1    0    0  502    0  0.00000000000E+00  0.00000000000E+00  0.28507913535E+04  0.28507913535E+04  0.00000000000E+00 0. -1.
         -2   -1    0    0    0  501 -0.00000000000E+00 -0.00000000000E+00 -0.24366231802E+02  0.24366231802E+02  0.00000000000E+00 0.  1.
          6    1    1    2  502    0 -0.67635971223E+02  0.53019830839E+02  0.23912013324E+04  0.23989911503E+04  0.17300000000E+03 0. -1.
         -6    1    1    2    0  501  0.67635971223E+02 -0.53019830839E+02  0.43522378928E+03  0.47616643500E+03  0.17300000000E+03 0.  1.
<mgrwt>
<rscale>  2 0.19317020E+03</rscale>
<asrwt>0</asrwt>
<pdfrwt beam="1">  1        2 0.43858302E+00 0.19317020E+03</pdfrwt>
<pdfrwt beam="2">  1       -2 0.37486533E-02 0.19317020E+03</pdfrwt>
<totfact> 0.78586408E+02</totfact>
</mgrwt>
</event>
<event>
 4    2  0.9452525E-001  0.3014397E+03  0.7546771E-02  0.1084523E+00
         -2   -1    0    0    0  501 -0.00000000000E+00  0.00000000000E+00  0.32316987114E+03  0.32316987114E+03  0.00000000000E+00 0.  1.
          2   -1    0    0  502    0  0.00000000000E+00 -0.00000000000E+00 -0.29118702092E+03  0.29118702092E+03  0.00000000000E+00 0. -1.
          6    1    1    2  502    0 -0.22946755549E+03  0.91003010628E+02  0.72963010589E+02  0.31014433395E+03  0.17300000000E+03 0.  1.
         -6    1    1    2    0  501  0.22946755549E+03 -0.91003010628E+02 -0.40980160370E+02  0.30421255811E+03  0.17300000000E+03 0. -1.
<mgrwt>
<rscale>  2 0.30143972E+03</rscale>
<asrwt>0</asrwt>
<pdfrwt beam="1">  1        2 0.44798003E-01 0.30143972E+03</pdfrwt>
<pdfrwt beam="2">  1       -2 0.49718442E-01 0.30143972E+03</pdfrwt>
<totfact> 0.44069171E+02</totfact>
</mgrwt>
</event>
<event>
 4    2  0.9452525E-001  0.1754536E+03  0.7546771E-02  0.1172277E+00
          2   -1    0    0  502    0  0.00000000000E+00  0.00000000000E+00  0.24339222404E+03  0.24339222404E+03  0.00000000000E+00 0.  1.
         -2   -1    0    0    0  501 -0.00000000000E+00 -0.00000000000E+00 -0.12649456424E+03  0.12649456424E+03  0.00000000000E+00 0. -1.
          6    1    1    2  502    0 -0.29122074897E+01 -0.29094541689E+02  0.56388760614E+02  0.18429233742E+03  0.17300000000E+03 0.  1.
         -6    1    1    2    0  501  0.29122074897E+01  0.29094541689E+02  0.60508899190E+02  0.18559445086E+03  0.17300000000E+03 0.  1.
<mgrwt>
<rscale>  2 0.17545362E+03</rscale>
<asrwt>0</asrwt>
<pdfrwt beam="1">  1        2 0.37444957E-01 0.17545362E+03</pdfrwt>
<pdfrwt beam="2">  1       -2 0.19460702E-01 0.17545362E+03</pdfrwt>
<totfact> 0.29620961E+03</totfact>
</mgrwt>
</event>
<event>
 4    2  0.9452525E-001  0.2173819E+03  0.7546771E-02  0.1135850E+00
         -2   -1    0    0    0  501 -0.00000000000E+00  0.00000000000E+00  0.52917587006E+02  0.52917587006E+02  0.00000000000E+00 0.  1.
          2   -1    0    0  502    0  0.00000000000E+00 -0.00000000000E+00 -0.18266790996E+04  0.18266790996E+04  0.00000000000E+00 0. -1.
          6    1    1    2  502    0 -0.49393716183E+01 -0.13153512898E+03 -0.21498075968E+03  0.30573127838E+03  0.17300000000E+03 0.  1.
         -6    1    1    2    0  501  0.49393716183E+01  0.13153512898E+03 -0.15587807529E+04  0.15738654082E+04  0.17300000000E+03 0. -1.
<mgrwt>
<rscale>  2 0.21738189E+03</rscale>
<asrwt>0</asrwt>
<pdfrwt beam="1">  1        2 0.28102752E+00 0.21738189E+03</pdfrwt>
<pdfrwt beam="2">  1       -2 0.81411683E-02 0.21738189E+03</pdfrwt>
<totfact> 0.84973196E+02</totfact>
</mgrwt>
</event>
<event>
 4    2  0.9452525E-001  0.3228427E+03  0.7546771E-02  0.1074348E+00
          2   -1    0    0  502    0  0.00000000000E+00  0.00000000000E+00  0.12049004691E+04  0.12049004691E+04  0.00000000000E+00 0.  1.
         -2   -1    0    0    0  501 -0.00000000000E+00 -0.00000000000E+00 -0.15974397516E+03  0.15974397516E+03  0.00000000000E+00 0. -1.
          6    1    1    2  502    0  0.14435366759E+03 -0.23121507262E+03  0.60564804312E+02  0.32847448405E+03  0.17300000000E+03 0. -1.
         -6    1    1    2    0  501 -0.14435366759E+03  0.23121507262E+03  0.98459168967E+03  0.10361699602E+04  0.17300000000E+03 0.  1.
<mgrwt>
<rscale>  2 0.32284267E+03</rscale>
<asrwt>0</asrwt>
<pdfrwt beam="1">  1        2 0.18536930E+00 0.32284267E+03</pdfrwt>
<pdfrwt beam="2">  1       -2 0.24575997E-01 0.32284267E+03</pdfrwt>
<totfact> 0.29112976E+02</totfact>
</mgrwt>
</event>
<event>
 4    2  0.9452525E-001  0.1946372E+03  0.7546771E-02  0.1154344E+00
          1   -1    0    0  502    0  0.00000000000E+00  0.00000000000E+00  0.18941120168E+04  0.18941120168E+04  0.00000000000E+00 0. -1.
         -1   -1    0    0    0  501 -0.00000000000E+00 -0.00000000000E+00 -0.30721697667E+02  0.30721697667E+02  0.00000000000E+00 0.  1.
          6    1    1    2  502    0 -0.70076386024E+02  0.55171981531E+02  0.15002303460E+04  0.15128036020E+04  0.17300000000E+03 0. -1.
         -6    1    1    2    0  501  0.70076386024E+02 -0.55171981531E+02  0.36315997316E+03  0.41203011241E+03  0.17300000000E+03 0.  1.
<mgrwt>
<rscale>  2 0.19463722E+03</rscale>
<asrwt>0</asrwt>
<pdfrwt beam="1">  1        1 0.29140176E+00 0.19463722E+03</pdfrwt>
<pdfrwt beam="2">  1       -1 0.47264165E-02 0.19463722E+03</pdfrwt>
<totfact> 0.76408974E+02</totfact>
</mgrwt>
</event>
<event>
 4    2  0.9452525E-001  0.3030407E+03  0.7546771E-02  0.1083730E+00
         -2   -1    0    0    0  501 -0.00000000000E+00  0.00000000000E+00  0.10877473290E+03  0.10877473290E+03  0.00000000000E+00 0. -1.
          2   -1    0    0  502    0  0.00000000000E+00 -0.00000000000E+00 -0.12458906115E+04  0.12458906115E+04  0.00000000000E+00 0.  1.
          6    1    1    2  502    0  0.16699808109E+03 -0.18443516222E+03 -0.18398581868E+03  0.35452005532E+03  0.17300000000E+03 0. -1.
         -6    1    1    2    0  501 -0.16699808109E+03  0.18443516222E+03 -0.95313005992E+03  0.10001452891E+04  0.17300000000E+03 0.  1.
<mgrwt>
<rscale>  2 0.30304074E+03</rscale>
<asrwt>0</asrwt>
<pdfrwt beam="1">  1        2 0.19167547E+00 0.30304074E+03</pdfrwt>
<pdfrwt beam="2">  1       -2 0.16734575E-01 0.30304074E+03</pdfrwt>
<totfact> 0.53684291E+02</totfact>
</mgrwt>
</event>
<event>
 4    2  0.9452525E-001  0.2817042E+03  0.7546771E-02  0.1094762E+00
          2   -1    0    0  502    0  0.00000000000E+00  0.00000000000E+00  0.41535937983E+03  0.41535937983E+03  0.00000000000E+00 0. -1.
         -2   -1    0    0    0  501 -0.00000000000E+00 -0.00000000000E+00 -0.26485306613E+03  0.26485306613E+03  0.00000000000E+00 0.  1.
          6    1    1    2  502    0  0.22232112446E+03 -0.12546622913E+01  0.25477988250E+03  0.37982896821E+03  0.17300000000E+03 0. -1.
         -6    1    1    2    0  501 -0.22232112446E+03  0.12546622913E+01 -0.10427356881E+03  0.30038347776E+03  0.17300000000E+03 0.  1.
<mgrwt>
<rscale>  2 0.28170420E+03</rscale>
<asrwt>0</asrwt>
<pdfrwt beam="1">  1        2 0.63901443E-01 0.28170420E+03</pdfrwt>
<pdfrwt beam="2">  1       -2 0.40746626E-01 0.28170420E+03</pdfrwt>
<totfact> 0.44260801E+02</totfact>
</mgrwt>
</event>
<event>
 4    2  0.9452525E-001  0.1881996E+03  0.7546771E-02  0.1160095E+00
         -2   -1    0    0    0  501 -0.00000000000E+00  0.00000000000E+00  0.34251043166E+03  0.34251043166E+03  0.00000000000E+00 0. -1.
          2   -1    0    0  502    0  0.00000000000E+00 -0.00000000000E+00 -0.10620276427E+03  0.10620276427E+03  0.00000000000E+00 0.  1.
          6    1    1    2  502    0  0.24695259885E+02  0.69858769034E+02  0.81773604278E+02  0.20519752881E+03  0.17300000000E+03 0.  1.
         -6    1    1    2    0  501 -0.24695259885E+02 -0.69858769034E+02  0.15453406312E+03  0.24351566712E+03  0.17300000000E+03 0. -1.
<mgrwt>
<rscale>  2 0.18819964E+03</rscale>
<asrwt>0</asrwt>
<pdfrwt beam="1">  1        2 0.16338887E-01 0.18819964E+03</pdfrwt>
<pdfrwt beam="2">  1       -2 0.52693912E-01 0.18819964E+03</pdfrwt>
<totfact> 0.12024693E+03</totfact>
</mgrwt>
</event>
<event>
 4    2  0.9452525E-001  0.1882774E+03  0.7546771E-02  0.1160024E+00
         -2   -1    0    0    0  501 -0.00000000000E+00  0.00000000000E+00  0.13302147723E+03  0.13302147723E+03  0.00000000000E+00 0. -1.
          2   -1    0    0  502    0  0.00000000000E+00 -0.00000000000E+00 -0.33673983816E+03  0.33673983816E+03  0.00000000000E+00 0.  1.
          6    1    1    2  502    0  0.69109921127E+02 -0.27261766285E+02  0.54247020249E+01  0.18835554808E+03  0.17300000000E+03 0. -1.
         -6    1    1    2    0  501 -0.69109921127E+02  0.27261766285E+02 -0.20914306295E+03  0.28140576732E+03  0.17300000000E+03 0.  1.
<mgrwt>
<rscale>  2 0.18827742E+03</rscale>
<asrwt>0</asrwt>
<pdfrwt beam="1">  1        2 0.51806129E-01 0.18827742E+03</pdfrwt>
<pdfrwt beam="2">  1       -2 0.20464843E-01 0.18827742E+03</pdfrwt>
<totfact> 0.19251827E+03</totfact>
</mgrwt>
</event>
<event>
 4    2  0.9452525E-001  0.2662589E+03  0.7546771E-02  0.1103440E+00
          3   -1    0    0  502    0  0.00000000000E+00  0.00000000000E+00  0.55524978402E+03  0.55524978402E+03  0.00000000000E+00 0.  1.
         -3   -1    0    0    0  501 -0.00000000000E+00 -0.00000000000E+00 -0.14606375320E+03  0.14606375320E+03  0.00000000000E+00 0. -1.
          6    1    1    2  502    0  0.13215984819E+03  0.15329250482E+03  0.32899811742E+03  0.42324174979E+03  0.17300000000E+03 0.  1.
         -6    1    1    2    0  501 -0.13215984819E+03 -0.15329250482E+03  0.80187913403E+02  0.27807178742E+03  0.17300000000E+03 0. -1.
<mgrwt>
<rscale>  2 0.26625893E+03</rscale>
<asrwt>0</asrwt>
<pdfrwt beam="1">  1        3 0.85423043E-01 0.26625893E+03</pdfrwt>
<pdfrwt beam="2">  1       -3 0.22471347E-01 0.26625893E+03</pdfrwt>
<totfact> 0.58717874E+01</totfact>
</mgrwt>
</event>
<event>
 4    2  0.9452525E-001  0.2283135E+03  0.7546771E-02  0.1127832E+00
         -1   -1    0    0    0  501 -0.00000000000E+00  0.00000000000E+00  0.33934627822E+03  0.33934627822E+03  0.00000000000E+00 0.  1.
          1   -1    0    0  502    0  0.00000000000E+00 -0.00000000000E+00 -0.17523688749E+03  0.17523688749E+03  0.00000000000E+00 0. -1.
          6    1    1    2  502    0 -0.28969634674E+02 -0.14614658164E+03  0.17244199659E+03  0.28611764232E+03  0.17300000000E+03 0.  1.
         -6    1    1    2    0  501  0.28969634674E+02  0.14614658164E+03 -0.83326058613E+01  0.22846552339E+03  0.17300000000E+03 0. -1.
<mgrwt>
<rscale>  2 0.22831352E+03</rscale>
<asrwt>0</asrwt>
<pdfrwt beam="1">  1        1 0.26959521E-01 0.22831352E+03</pdfrwt>
<pdfrwt beam="2">  1       -1 0.52207120E-01 0.22831352E+03</pdfrwt>
<totfact> 0.65939333E+02</totfact>
</mgrwt>
</event>
<event>
 4    2  0.9452525E-001  0.2187024E+03  0.7546771E-02  0.1134854E+00
         -1   -1    0    0    0  501 -0.00000000000E+00  0.00000000000E+00  0.19398561325E+03  0.19398561325E+03  0.00000000000E+00 0.  1.
          1   -1    0    0  502    0  0.00000000000E+00 -0.00000000000E+00 -0.28691222421E+03  0.28691222421E+03  0.00000000000E+00 0. -1.
          6    1    1    2  502    0  0.11785118755E+03 -0.63346795020E+02 -0.13662808584E+03  0.25787196956E+03  0.17300000000E+03 0. -1.
         -6    1    1    2    0  501 -0.11785118755E+03  0.63346795020E+02  0.43701474880E+02  0.22302586790E+03  0.17300000000E+03 0.  1.
<mgrwt>
<rscale>  2 0.21870235E+03</rscale>
<asrwt>0</asrwt>
<pdfrwt beam="1">  1        1 0.44140342E-01 0.21870235E+03</pdfrwt>
<pdfrwt beam="2">  1       -1 0.29843941E-01 0.21870235E+03</pdfrwt>
<totfact> 0.95583339E+02</totfact>
</mgrwt>
</event>
<event>
 4    2  0.9452525E-001  0.3366672E+03  0.7546771E-02  0.1068224E+00
          2   -1    0    0  502    0  0.00000000000E+00  0.00000000000E+00  0.50469162550E+03  0.50469162550E+03  0.00000000000E+00 0.  1.
         -2   -1    0    0    0  501 -0.00000000000E+00 -0.00000000000E+00 -0.24437075652E+03  0.24437075652E+03  0.00000000000E+00 0. -1.
          6    1    1    2  502    0 -0.22768349024E+03 -0.17769648626E+03  0.23582037175E+02  0.33749211166E+03  0.17300000000E+03 0. -1.
         -6    1    1    2    0  501  0.22768349024E+03  0.17769648626E+03  0.23673883180E+03  0.41157027035E+03  0.17300000000E+03 0.  1.
<mgrwt>
<rscale>  2 0.33666721E+03</rscale>
<asrwt>0</asrwt>
<pdfrwt beam="1">  1        2 0.77644865E-01 0.33666721E+03</pdfrwt>
<pdfrwt beam="2">  1       -2 0.37595501E-01 0.33666721E+03</pdfrwt>
<totfact> 0.41463089E+02</totfact>
</mgrwt>
</event>
<event>
 4    2  0.9452525E-001  0.2956326E+03  0.7546771E-02  0.1087444E+00
         -2   -1    0    0    0  501 -0.00000000000E+00  0.00000000000E+00  0.20501570830E+03  0.20501570830E+03  0.00000000000E+00 0.  1.
          2   -1    0    0  502    0  0.00000000000E+00 -0.00000000000E+00 -0.52928674148E+03  0.52928674148E+03  0.00000000000E+00 0. -1.
          6    1    1    2  502    0  0.16437131077E+03 -0.17450421739E+03 -0.18383155608E+00  0.29563268339E+03  0.17300000000E+03 0.  1.
         -6    1    1    2    0  501 -0.16437131077E+03  0.17450421739E+03 -0.32408720162E+03  0.43866976639E+03  0.17300000000E+03 0. -1.
<mgrwt>
<rscale>  2 0.29563263E+03</rscale>
<asrwt>0</asrwt>
<pdfrwt beam="1">  1        2 0.81428729E-01 0.29563263E+03</pdfrwt>
<pdfrwt beam="2">  1       -2 0.31540878E-01 0.29563263E+03</pdfrwt>
<totfact> 0.54641910E+02</totfact>
</mgrwt>
</event>
<event>
 4    2  0.9452525E-001  0.2145985E+03  0.7546771E-02  0.1137975E+00
         -2   -1    0    0    0  501 -0.00000000000E+00  0.00000000000E+00  0.63030709978E+02  0.63030709978E+02  0.00000000000E+00 0. -1.
          2   -1    0    0  502    0  0.00000000000E+00 -0.00000000000E+00 -0.79708998588E+03  0.79708998588E+03  0.00000000000E+00 0.  1.
          6    1    1    2  502    0  0.12283763109E+03 -0.32162614438E+02 -0.49120505961E+03  0.53603631217E+03  0.17300000000E+03 0.  1.
         -6    1    1    2    0  501 -0.12283763109E+03  0.32162614438E+02 -0.24285421629E+03  0.32408438368E+03  0.17300000000E+03 0.  1.
<mgrwt>
<rscale>  2 0.21459850E+03</rscale>
<asrwt>0</asrwt>
<pdfrwt beam="1">  1        2 0.12262922E+00 0.21459850E+03</pdfrwt>
<pdfrwt beam="2">  1       -2 0.96970329E-02 0.21459850E+03</pdfrwt>
<totfact> 0.24703835E+03</totfact>
</mgrwt>
</event>
<event>
 4    2  0.9452525E-001  0.1989275E+03  0.7546771E-02  0.1150647E+00
          2   -1    0    0  502    0  0.00000000000E+00  0.00000000000E+00  0.19732235014E+03  0.19732235014E+03  0.00000000000E+00 0.  1.
         -2   -1    0    0    0  501 -0.00000000000E+00 -0.00000000000E+00 -0.28029733351E+03  0.28029733351E+03  0.00000000000E+00 0. -1.
          6    1    1    2  502    0 -0.58660869438E+02  0.78753040973E+02  0.85895858372E+02  0.21668003496E+03  0.17300000000E+03 0.  1.
         -6    1    1    2    0  501  0.58660869438E+02 -0.78753040973E+02 -0.16887084174E+03  0.26093964869E+03  0.17300000000E+03 0. -1.
<mgrwt>
<rscale>  2 0.19892747E+03</rscale>
<asrwt>0</asrwt>
<pdfrwt beam="1">  1        2 0.30357285E-01 0.19892747E+03</pdfrwt>
<pdfrwt beam="2">  1       -2 0.43122667E-01 0.19892747E+03</pdfrwt>
<totfact> 0.88808735E+02</totfact>
</mgrwt>
</event>
<event>
 4    2  0.9452525E-001  0.1911986E+03  0.7546771E-02  0.1157385E+00
          1   -1    0    0  502    0  0.00000000000E+00  0.00000000000E+00  0.13203909059E+04  0.13203909059E+04  0.00000000000E+00 0. -1.
         -1   -1    0    0    0  501 -0.00000000000E+00 -0.00000000000E+00 -0.32546683179E+02  0.32546683179E+02  0.00000000000E+00 0.  1.
          6    1    1    2  502    0  0.75536567958E+02  0.30366772521E+02  0.90533303069E+03  0.92530255076E+03  0.17300000000E+03 0. -1.
         -6    1    1    2    0  501 -0.75536567958E+02 -0.30366772521E+02  0.38251119201E+03  0.42763503830E+03  0.17300000000E+03 0.  1.
<mgrwt>
<rscale>  2 0.19119862E+03</rscale>
<asrwt>0</asrwt>
<pdfrwt beam="1">  1        1 0.20313702E+00 0.19119862E+03</pdfrwt>
<pdfrwt beam="2">  1       -1 0.50071830E-02 0.19119862E+03</pdfrwt>
<totfact> 0.16610299E+03</totfact>
</mgrwt>
</event>
<event>
 4    2  0.9452525E-001  0.2730267E+03  0.7546771E-02  0.1099560E+00
         -1   -1    0    0    0  501 -0.00000000000E+00  0.00000000000E+00  0.38729474901E+02  0.38729474901E+02  0.00000000000E+00 0.  1.
          1   -1    0    0  502    0  0.00000000000E+00 -0.00000000000E+00 -0.21864271841E+04  0.21864271841E+04  0.00000000000E+00 0. -1.
          6    1    1    2  502    0  0.17241561876E+03 -0.12201404858E+03 -0.14587658447E+04  0.14840961435E+04  0.17300000000E+03 0. -1.
         -6    1    1    2    0  501 -0.17241561876E+03  0.12201404858E+03 -0.68893186458E+03  0.74106051553E+03  0.17300000000E+03 0. -1.
<mgrwt>
<rscale>  2 0.27302669E+03</rscale>
<asrwt>0</asrwt>
<pdfrwt beam="1">  1        1 0.33637351E+00 0.27302669E+03</pdfrwt>
<pdfrwt beam="2">  1       -1 0.59583790E-02 0.27302669E+03</pdfrwt>
<totfact> 0.34434786E+02</totfact>
</mgrwt>
</event>
<event>
 4    2  0.9452525E-001  0.1964611E+03  0.7546771E-02  0.1152760E+00
         -2   -1    0    0    0  501 -0.00000000000E+00  0.00000000000E+00  0.23538658550E+02  0.23538658550E+02  0.00000000000E+00 0.  1.
          2   -1    0    0  502    0  0.00000000000E+00 -0.00000000000E+00 -0.20451184285E+04  0.20451184285E+04  0.00000000000E+00 0. -1.
          6    1    1    2  502    0 -0.89295681560E+02  0.26348635306E+02 -0.55028243004E+03  0.58430105437E+03  0.17300000000E+03 0.  1.
         -6    1    1    2    0  501  0.89295681560E+02 -0.26348635306E+02 -0.14712973399E+04  0.14843560327E+04  0.17300000000E+03 0. -1.
<mgrwt>
<rscale>  2 0.19646111E+03</rscale>
<asrwt>0</asrwt>
<pdfrwt beam="1">  1        2 0.31463347E+00 0.19646111E+03</pdfrwt>
<pdfrwt beam="2">  1       -2 0.36213337E-02 0.19646111E+03</pdfrwt>
<totfact> 0.22547628E+03</totfact>
</mgrwt>
</event>
<event>
 4    2  0.9452525E-001  0.1906794E+03  0.7546771E-02  0.1157850E+00
         -2   -1    0    0    0  501 -0.00000000000E+00  0.00000000000E+00  0.62070208000E+03  0.62070208000E+03  0.00000000000E+00 0. -1.
          2   -1    0    0  502    0  0.00000000000E+00 -0.00000000000E+00 -0.62847026364E+02  0.62847026364E+02  0.00000000000E+00 0.  1.
          6    1    1    2  502    0 -0.53302956490E+02  0.59903627339E+02  0.36801780844E+03  0.41448251721E+03  0.17300000000E+03 0.  1.
         -6    1    1    2    0  501  0.53302956490E+02 -0.59903627339E+02  0.18983724520E+03  0.26906658916E+03  0.17300000000E+03 0.  1.
<mgrwt>
<rscale>  2 0.19067944E+03</rscale>
<asrwt>0</asrwt>
<pdfrwt beam="1">  1        2 0.96687737E-02 0.19067944E+03</pdfrwt>
<pdfrwt beam="2">  1       -2 0.95492623E-01 0.19067944E+03</pdfrwt>
<totfact> 0.63290066E+02</totfact>
</mgrwt>
</event>
<event>
 4    2  0.9452525E-001  0.1775364E+03  0.7546771E-02  0.1170209E+00
          2   -1    0    0  502    0  0.00000000000E+00  0.00000000000E+00  0.33884849364E+03  0.33884849364E+03  0.00000000000E+00 0. -1.
         -2   -1    0    0    0  501 -0.00000000000E+00 -0.00000000000E+00 -0.93641932287E+02  0.93641932287E+02  0.00000000000E+00 0.  1.
          6    1    1    2  502    0  0.26600340683E+02 -0.29708562020E+02  0.10495884232E+03  0.20624144919E+03  0.17300000000E+03 0.  1.
         -6    1    1    2    0  501 -0.26600340683E+02  0.29708562020E+02  0.14024771903E+03  0.22624897674E+03  0.17300000000E+03 0.  1.
<mgrwt>
<rscale>  2 0.17753641E+03</rscale>
<asrwt>0</asrwt>
<pdfrwt beam="1">  1        2 0.52130537E-01 0.17753641E+03</pdfrwt>
<pdfrwt beam="2">  1       -2 0.14406451E-01 0.17753641E+03</pdfrwt>
<totfact> 0.34315067E+03</totfact>
</mgrwt>
</event>
<event>
 4    2  0.9452525E-001  0.1742191E+03  0.7546771E-02  0.1173518E+00
          2   -1    0    0  502    0  0.00000000000E+00  0.00000000000E+00  0.27132710991E+03  0.27132710991E+03  0.00000000000E+00 0.  1.
         -2   -1    0    0    0  501 -0.00000000000E+00 -0.00000000000E+00 -0.11726219991E+03  0.11726219991E+03  0.00000000000E+00 0. -1.
          6    1    1    2  502    0  0.17199244078E+02 -0.11290753693E+02  0.35352870409E+02  0.17776985279E+03  0.17300000000E+03 0. -1.
         -6    1    1    2    0  501 -0.17199244078E+02  0.11290753693E+02  0.11871203959E+03  0.21081945702E+03  0.17300000000E+03 0.  1.
<mgrwt>
<rscale>  2 0.17421910E+03</rscale>
<asrwt>0</asrwt>
<pdfrwt beam="1">  1        2 0.41742632E-01 0.17421910E+03</pdfrwt>
<pdfrwt beam="2">  1       -2 0.18040338E-01 0.17421910E+03</pdfrwt>
<totfact> 0.29950995E+03</totfact>
</mgrwt>
</event>
<event>
 4    2  0.9452525E-001  0.1932636E+03  0.7546771E-02  0.1155550E+00
          2   -1    0    0  502    0  0.00000000000E+00  0.00000000000E+00  0.56684654767E+03  0.56684654767E+03  0.00000000000E+00 0.  1.
         -2   -1    0    0    0  501 -0.00000000000E+00 -0.00000000000E+00 -0.10780378486E+03  0.10780378486E+03  0.00000000000E+00 0. -1.
          6    1    1    2  502    0  0.83595592275E+02  0.20823425790E+02  0.19192882508E+02  0.19421432709E+03  0.17300000000E+03 0. -1.
         -6    1    1    2    0  501 -0.83595592275E+02 -0.20823425790E+02  0.43984988031E+03  0.48043600543E+03  0.17300000000E+03 0.  1.
<mgrwt>
<rscale>  2 0.19326365E+03</rscale>
<asrwt>0</asrwt>
<pdfrwt beam="1">  1        2 0.87207160E-01 0.19326365E+03</pdfrwt>
<pdfrwt beam="2">  1       -2 0.16585198E-01 0.19326365E+03</pdfrwt>
<totfact> 0.15519056E+03</totfact>
</mgrwt>
</event>
<event>
 4    2  0.9452525E-001  0.1735278E+03  0.7546771E-02  0.1174218E+00
          2   -1    0    0  502    0  0.00000000000E+00  0.00000000000E+00  0.25664878672E+04  0.25664878672E+04  0.00000000000E+00 0.  1.
         -2   -1    0    0    0  501 -0.00000000000E+00 -0.00000000000E+00 -0.13823262644E+02  0.13823262644E+02  0.00000000000E+00 0. -1.
          6    1    1    2  502    0 -0.13320377920E+02  0.23371431790E+01  0.77460716183E+03  0.79380611604E+03  0.17300000000E+03 0. -1.
         -6    1    1    2    0  501  0.13320377920E+02 -0.23371431790E+01  0.17780574427E+04  0.17865050138E+04  0.17300000000E+03 0.  1.
<mgrwt>
<rscale>  2 0.17352779E+03</rscale>
<asrwt>0</asrwt>
<pdfrwt beam="1">  1        2 0.39484391E+00 0.17352779E+03</pdfrwt>
<pdfrwt beam="2">  1       -2 0.21266578E-02 0.17352779E+03</pdfrwt>
<totfact> 0.26244684E+03</totfact>
</mgrwt>
</event>
<event>
 4    2  0.9452525E-001  0.1950047E+03  0.7546771E-02  0.1154023E+00
         -2   -1    0    0    0  501 -0.00000000000E+00  0.00000000000E+00  0.61104546633E+02  0.61104546633E+02  0.00000000000E+00 0.  1.
          2   -1    0    0  502    0  0.00000000000E+00 -0.00000000000E+00 -0.90426278026E+03  0.90426278026E+03  0.00000000000E+00 0. -1.
          6    1    1    2  502    0  0.82262962906E+02 -0.36477992620E+02 -0.69110005842E+03  0.71808504355E+03  0.17300000000E+03 0. -1.
         -6    1    1    2    0  501 -0.82262962906E+02  0.36477992620E+02 -0.15205817521E+03  0.24728228335E+03  0.17300000000E+03 0.  1.
<mgrwt>
<rscale>  2 0.19500472E+03</rscale>
<asrwt>0</asrwt>
<pdfrwt beam="1">  1        2 0.13911735E+00 0.19500472E+03</pdfrwt>
<pdfrwt beam="2">  1       -2 0.94006996E-02 0.19500472E+03</pdfrwt>
<totfact> 0.21997868E+03</totfact>
</mgrwt>
</event>
<event>
 4    2  0.9452525E-001  0.2617313E+03  0.7546771E-02  0.1106107E+00
          2   -1    0    0  502    0  0.00000000000E+00  0.00000000000E+00  0.20470343545E+04  0.20470343545E+04  0.00000000000E+00 0. -1.
         -2   -1    0    0    0  501 -0.00000000000E+00 -0.00000000000E+00 -0.33805706704E+02  0.33805706704E+02  0.00000000000E+00 0.  1.
          6    1    1    2  502    0 -0.15838711547E+03  0.11613692929E+03  0.11111186590E+04  0.11415287728E+04  0.17300000000E+03 0. -1.
         -6    1    1    2    0  501  0.15838711547E+03 -0.11613692929E+03  0.90210998879E+03  0.93931128843E+03  0.17300000000E+03 0.  1.
<mgrwt>
<rscale>  2 0.26173128E+03</rscale>
<asrwt>0</asrwt>
<pdfrwt beam="1">  1        2 0.31492826E+00 0.26173128E+03</pdfrwt>
<pdfrwt beam="2">  1       -2 0.52008796E-02 0.26173128E+03</pdfrwt>
<totfact> 0.12948012E+03</totfact>
</mgrwt>
</event>
<event>
 4    2  0.9452525E-001  0.2711113E+03  0.7546771E-02  0.1100645E+00
          1   -1    0    0  502    0  0.00000000000E+00  0.00000000000E+00  0.22250866054E+04  0.22250866054E+04  0.00000000000E+00 0.  1.
         -1   -1    0    0    0  501 -0.00000000000E+00 -0.00000000000E+00 -0.37849258884E+02  0.37849258884E+02  0.00000000000E+00 0. -1.
          6    1    1    2  502    0 -0.20494494620E+03  0.39622071884E+02  0.69000359444E+03  0.74135436863E+03  0.17300000000E+03 0. -1.
         -6    1    1    2    0  501  0.20494494620E+03 -0.39622071884E+02  0.14972337521E+04  0.15215814957E+04  0.17300000000E+03 0. -1.
<mgrwt>
<rscale>  2 0.27111130E+03</rscale>
<asrwt>0</asrwt>
<pdfrwt beam="1">  1        1 0.34232091E+00 0.27111130E+03</pdfrwt>
<pdfrwt beam="2">  1       -1 0.58229646E-02 0.27111130E+03</pdfrwt>
<totfact> 0.33651141E+02</totfact>
</mgrwt>
</event>
<event>
 4    2  0.9452525E-001  0.1771561E+03  0.7546771E-02  0.1170584E+00
         -2   -1    0    0    0  501 -0.00000000000E+00  0.00000000000E+00  0.15367911455E+03  0.15367911455E+03  0.00000000000E+00 0.  1.
          2   -1    0    0  502    0  0.00000000000E+00 -0.00000000000E+00 -0.25865868879E+03  0.25865868879E+03  0.00000000000E+00 0. -1.
          6    1    1    2  502    0  0.28824807613E+02 -0.24988028465E+02 -0.14707330561E+03  0.23024949147E+03  0.17300000000E+03 0. -1.
         -6    1    1    2    0  501 -0.28824807613E+02  0.24988028465E+02  0.42093731362E+02  0.18208831187E+03  0.17300000000E+03 0.  1.
<mgrwt>
<rscale>  2 0.17715606E+03</rscale>
<asrwt>0</asrwt>
<pdfrwt beam="1">  1        2 0.39793644E-01 0.17715606E+03</pdfrwt>
<pdfrwt beam="2">  1       -2 0.23642941E-01 0.17715606E+03</pdfrwt>
<totfact> 0.19865273E+03</totfact>
</mgrwt>
</event>
<event>
 4    2  0.9452525E-001  0.1910440E+03  0.7546771E-02  0.1157523E+00
          2   -1    0    0  502    0  0.00000000000E+00  0.00000000000E+00  0.33287544396E+03  0.33287544396E+03  0.00000000000E+00 0.  1.
         -2   -1    0    0    0  501 -0.00000000000E+00 -0.00000000000E+00 -0.19297819825E+03  0.19297819825E+03  0.00000000000E+00 0. -1.
          6    1    1    2  502    0 -0.79287773718E+02 -0.16800082546E+02  0.24272820058E+03  0.30889281829E+03  0.17300000000E+03 0.  1.
         -6    1    1    2    0  501  0.79287773718E+02  0.16800082546E+02 -0.10283095487E+03  0.21696082392E+03  0.17300000000E+03 0. -1.
<mgrwt>
<rscale>  2 0.19104396E+03</rscale>
<asrwt>0</asrwt>
<pdfrwt beam="1">  1        2 0.51211607E-01 0.19104396E+03</pdfrwt>
<pdfrwt beam="2">  1       -2 0.29688954E-01 0.19104396E+03</pdfrwt>
<totfact> 0.10143260E+03</totfact>
</mgrwt>
</event>
<event>
 4    2  0.9452525E-001  0.2904224E+03  0.7546771E-02  0.1090129E+00
          1   -1    0    0  502    0  0.00000000000E+00  0.00000000000E+00  0.10281627550E+04  0.10281627550E+04  0.00000000000E+00 0. -1.
         -1   -1    0    0    0  501 -0.00000000000E+00 -0.00000000000E+00 -0.48905574479E+03  0.48905574479E+03  0.00000000000E+00 0.  1.
          6    1    1    2  502    0  0.21931117365E+03 -0.79490905097E+02 -0.42251214605E+03  0.51270040808E+03  0.17300000000E+03 0.  1.
         -6    1    1    2    0  501 -0.21931117365E+03  0.79490905097E+02  0.96161915622E+03  0.10045180917E+04  0.17300000000E+03 0. -1.
<mgrwt>
<rscale>  2 0.29042244E+03</rscale>
<asrwt>0</asrwt>
<pdfrwt beam="1">  1        1 0.15817889E+00 0.29042244E+03</pdfrwt>
<pdfrwt beam="2">  1       -1 0.75239345E-01 0.29042244E+03</pdfrwt>
<totfact> 0.28537702E+01</totfact>
</mgrwt>
</event>
<event>
 4    2  0.9452525E-001  0.3484671E+03  0.7546771E-02  0.1063246E+00
         -2   -1    0    0    0  501 -0.00000000000E+00  0.00000000000E+00  0.19712323608E+03  0.19712323608E+03  0.00000000000E+00 0.  1.
          2   -1    0    0  502    0  0.00000000000E+00 -0.00000000000E+00 -0.86811771778E+03  0.86811771778E+03  0.00000000000E+00 0. -1.
          6    1    1    2  502    0 -0.18398723279E+03  0.24010214408E+03 -0.48469420352E+02  0.35182186705E+03  0.17300000000E+03 0.  1.
         -6    1    1    2    0  501  0.18398723279E+03 -0.24010214408E+03 -0.62252506134E+03  0.71341908681E+03  0.17300000000E+03 0. -1.
<mgrwt>
<rscale>  2 0.34846713E+03</rscale>
<asrwt>0</asrwt>
<pdfrwt beam="1">  1        2 0.13355657E+00 0.34846713E+03</pdfrwt>
<pdfrwt beam="2">  1       -2 0.30326652E-01 0.34846713E+03</pdfrwt>
<totfact> 0.31974581E+02</totfact>
</mgrwt>
</event>
<event>
 4    2  0.9452525E-001  0.2133478E+03  0.7546771E-02  0.1138942E+00
          1   -1    0    0  502    0  0.00000000000E+00  0.00000000000E+00  0.78152345945E+02  0.78152345945E+02  0.00000000000E+00 0. -1.
         -1   -1    0    0    0  501 -0.00000000000E+00 -0.00000000000E+00 -0.58288554016E+03  0.58288554016E+03  0.00000000000E+00 0.  1.
          6    1    1    2  502    0 -0.10761622917E+03 -0.63300973446E+02 -0.26173600145E+03  0.33767291937E+03  0.17300000000E+03 0.  1.
         -6    1    1    2    0  501  0.10761622917E+03  0.63300973446E+02 -0.24299719277E+03  0.32336496674E+03  0.17300000000E+03 0. -1.
<mgrwt>
<rscale>  2 0.21334776E+03</rscale>
<asrwt>0</asrwt>
<pdfrwt beam="1">  1        1 0.12023438E-01 0.21334776E+03</pdfrwt>
<pdfrwt beam="2">  1       -1 0.89674697E-01 0.21334776E+03</pdfrwt>
<totfact> 0.64033424E+02</totfact>
</mgrwt>
</event>
<event>
 4    2  0.9452525E-001  0.3091396E+03  0.7546771E-02  0.1080759E+00
         -2   -1    0    0    0  501 -0.00000000000E+00  0.00000000000E+00  0.47802427946E+02  0.47802427946E+02  0.00000000000E+00 0.  1.
          2   -1    0    0  502    0  0.00000000000E+00 -0.00000000000E+00 -0.24442403848E+04  0.24442403848E+04  0.00000000000E+00 0. -1.
          6    1    1    2  502    0 -0.25575641433E+03 -0.15063902423E+02 -0.66654351865E+03  0.73474317069E+03  0.17300000000E+03 0.  1.
         -6    1    1    2    0  501  0.25575641433E+03  0.15063902423E+02 -0.17298944382E+04  0.17572996420E+04  0.17300000000E+03 0. -1.
<mgrwt>
<rscale>  2 0.30913956E+03</rscale>
<asrwt>0</asrwt>
<pdfrwt beam="1">  1        2 0.37603707E+00 0.30913956E+03</pdfrwt>
<pdfrwt beam="2">  1       -2 0.73542179E-02 0.30913956E+03</pdfrwt>
<totfact> 0.46104996E+02</totfact>
</mgrwt>
</event>
<event>
 4    2  0.9452525E-001  0.2304232E+03  0.7546771E-02  0.1126342E+00
         -1   -1    0    0    0  501 -0.00000000000E+00  0.00000000000E+00  0.66778627670E+03  0.66778627670E+03  0.00000000000E+00 0. -1.
          1   -1    0    0  502    0  0.00000000000E+00 -0.00000000000E+00 -0.82116855090E+02  0.82116855090E+02  0.00000000000E+00 0.  1.
          6    1    1    2  502    0  0.80609860389E+02 -0.12910423527E+03  0.22601240886E+03  0.32276378687E+03  0.17300000000E+03 0. -1.
         -6    1    1    2    0  501 -0.80609860389E+02  0.12910423527E+03  0.35965701275E+03  0.42713934492E+03  0.17300000000E+03 0. -1.
<mgrwt>
<rscale>  2 0.23042320E+03</rscale>
<asrwt>0</asrwt>
<pdfrwt beam="1">  1        1 0.12633363E-01 0.23042320E+03</pdfrwt>
<pdfrwt beam="2">  1       -1 0.10273635E+00 0.23042320E+03</pdfrwt>
<totfact> 0.44510703E+02</totfact>
</mgrwt>
</event>
<event>
 4    2  0.9452525E-001  0.1730806E+03  0.7546771E-02  0.1174673E+00
          2   -1    0    0  502    0  0.00000000000E+00  0.00000000000E+00  0.98629539882E+02  0.98629539882E+02  0.00000000000E+00 0.  1.
         -2   -1    0    0    0  501 -0.00000000000E+00 -0.00000000000E+00 -0.42629084730E+03  0.42629084730E+03  0.00000000000E+00 0. -1.
          6    1    1    2  502    0 -0.41509958527E+01 -0.32653285281E+01 -0.30455970161E+03  0.35030487433E+03  0.17300000000E+03 0. -1.
         -6    1    1    2    0  501  0.41509958527E+01  0.32653285281E+01 -0.23101605811E+02  0.17461551285E+03  0.17300000000E+03 0.  1.
<mgrwt>
<rscale>  2 0.17308060E+03</rscale>
<asrwt>0</asrwt>
<pdfrwt beam="1">  1        2 0.15173775E-01 0.17308060E+03</pdfrwt>
<pdfrwt beam="2">  1       -2 0.65583209E-01 0.17308060E+03</pdfrwt>
<totfact> 0.83431322E+02</totfact>
</mgrwt>
</event>
<event>
 4    2  0.9452525E-001  0.2209653E+03  0.7546771E-02  0.1133165E+00
         -2   -1    0    0    0  501 -0.00000000000E+00  0.00000000000E+00  0.73183957676E+02  0.73183957676E+02  0.00000000000E+00 0.  1.
          2   -1    0    0  502    0  0.00000000000E+00 -0.00000000000E+00 -0.93388960680E+03  0.93388960680E+03  0.00000000000E+00 0. -1.
          6    1    1    2  502    0  0.13380491666E+03  0.31510573019E+02 -0.69945432476E+03  0.73352711222E+03  0.17300000000E+03 0. -1.
         -6    1    1    2    0  501 -0.13380491666E+03 -0.31510573019E+02 -0.16125132436E+03  0.27354645226E+03  0.17300000000E+03 0.  1.
<mgrwt>
<rscale>  2 0.22096532E+03</rscale>
<asrwt>0</asrwt>
<pdfrwt beam="1">  1        2 0.14367532E+00 0.22096532E+03</pdfrwt>
<pdfrwt beam="2">  1       -2 0.11259071E-01 0.22096532E+03</pdfrwt>
<totfact> 0.15827965E+03</totfact>
</mgrwt>
</event>
<event>
 4    2  0.9452525E-001  0.3079655E+03  0.7546771E-02  0.1081325E+00
         -2   -1    0    0    0  501 -0.00000000000E+00  0.00000000000E+00  0.38008063054E+03  0.38008063054E+03  0.00000000000E+00 0.  1.
          2   -1    0    0  502    0  0.00000000000E+00 -0.00000000000E+00 -0.47539857473E+03  0.47539857473E+03  0.00000000000E+00 0. -1.
          6    1    1    2  502    0  0.18150983160E+03  0.17879586246E+03 -0.34249139633E+03  0.46058998682E+03  0.17300000000E+03 0. -1.
         -6    1    1    2    0  501 -0.18150983160E+03 -0.17879586246E+03  0.24717345214E+03  0.39488921845E+03  0.17300000000E+03 0.  1.
<mgrwt>
<rscale>  2 0.30796555E+03</rscale>
<asrwt>0</asrwt>
<pdfrwt beam="1">  1        2 0.73138242E-01 0.30796555E+03</pdfrwt>
<pdfrwt beam="2">  1       -2 0.58473943E-01 0.30796555E+03</pdfrwt>
<totfact> 0.18494302E+02</totfact>
</mgrwt>
</event>
<event>
 4    2  0.9452525E-001  0.1815437E+03  0.7546771E-02  0.1166317E+00
         -4   -1    0    0    0  501 -0.00000000000E+00  0.00000000000E+00  0.27117069883E+03  0.27117069883E+03  0.00000000000E+00 0.  1.
          4   -1    0    0  502    0  0.00000000000E+00 -0.00000000000E+00 -0.12162373643E+03  0.12162373643E+03  0.00000000000E+00 0. -1.
          6    1    1    2  502    0 -0.34282685695E+02  0.43055998538E+02  0.79922805209E+02  0.19835769796E+03  0.17300000000E+03 0.  1.
         -6    1    1    2    0  501  0.34282685695E+02 -0.43055998538E+02  0.69624157186E+02  0.19443673730E+03  0.17300000000E+03 0.  1.
<mgrwt>
<rscale>  2 0.18154372E+03</rscale>
<asrwt>0</asrwt>
<pdfrwt beam="1">  1        4 0.18711344E-01 0.18154372E+03</pdfrwt>
<pdfrwt beam="2">  1       -4 0.41718569E-01 0.18154372E+03</pdfrwt>
<totfact> 0.24930801E+02</totfact>
</mgrwt>
</event>
<event>
 4    2  0.9452525E-001  0.1927268E+03  0.7546771E-02  0.1156025E+00
         -2   -1    0    0    0  501 -0.00000000000E+00  0.00000000000E+00  0.96738156700E+02  0.96738156700E+02  0.00000000000E+00 0.  1.
          2   -1    0    0  502    0  0.00000000000E+00 -0.00000000000E+00 -0.44708404344E+03  0.44708404344E+03  0.00000000000E+00 0. -1.
          6    1    1    2  502    0  0.76669138244E+02  0.36557819019E+02 -0.73001849910E+02  0.20608954603E+03  0.17300000000E+03 0.  1.
         -6    1    1    2    0  501 -0.76669138244E+02 -0.36557819019E+02 -0.27734403683E+03  0.33773265412E+03  0.17300000000E+03 0. -1.
<mgrwt>
<rscale>  2 0.19272683E+03</rscale>
<asrwt>0</asrwt>
<pdfrwt beam="1">  1        2 0.68782160E-01 0.19272683E+03</pdfrwt>
<pdfrwt beam="2">  1       -2 0.14882794E-01 0.19272683E+03</pdfrwt>
<totfact> 0.24187767E+03</totfact>
</mgrwt>
</event>
<event>
 4    2  0.9452525E-001  0.1771196E+03  0.7546771E-02  0.1170620E+00
          2   -1    0    0  502    0  0.00000000000E+00  0.00000000000E+00  0.50865165833E+03  0.50865165833E+03  0.00000000000E+00 0.  1.
         -2   -1    0    0    0  501 -0.00000000000E+00 -0.00000000000E+00 -0.72054271938E+02  0.72054271938E+02  0.00000000000E+00 0. -1.
          6    1    1    2  502    0  0.18100168461E+02  0.33387705087E+02  0.10810189197E+03  0.20750270841E+03  0.17300000000E+03 0. -1.
         -6    1    1    2    0  501 -0.18100168461E+02 -0.33387705087E+02  0.32849549442E+03  0.37320322186E+03  0.17300000000E+03 0.  1.
<mgrwt>
<rscale>  2 0.17711961E+03</rscale>
<asrwt>0</asrwt>
<pdfrwt beam="1">  1        2 0.78254099E-01 0.17711961E+03</pdfrwt>
<pdfrwt beam="2">  1       -2 0.11085273E-01 0.17711961E+03</pdfrwt>
<totfact> 0.33710568E+03</totfact>
</mgrwt>
</event>
<event>
 4    2  0.9452525E-001  0.2553239E+03  0.7546771E-02  0.1109986E+00
         -2   -1    0    0    0  501 -0.00000000000E+00  0.00000000000E+00  0.19229508343E+04  0.19229508343E+04  0.00000000000E+00 0.  1.
          2   -1    0    0  502    0  0.00000000000E+00 -0.00000000000E+00 -0.35245983766E+02  0.35245983766E+02  0.00000000000E+00 0. -1.
          6    1    1    2  502    0 -0.17707192723E+03 -0.62504653046E+02  0.11351023451E+04  0.11634636362E+04  0.17300000000E+03 0.  1.
         -6    1    1    2    0  501  0.17707192723E+03  0.62504653046E+02  0.75260250543E+03  0.79473318180E+03  0.17300000000E+03 0.  1.
<mgrwt>
<rscale>  2 0.25532391E+03</rscale>
<asrwt>0</asrwt>
<pdfrwt beam="1">  1        2 0.54224605E-02 0.25532391E+03</pdfrwt>
<pdfrwt beam="2">  1       -2 0.29583851E+00 0.25532391E+03</pdfrwt>
<totfact> 0.54630166E+01</totfact>
</mgrwt>
</event>
<event>
 4    2  0.9452525E-001  0.1814517E+03  0.7546771E-02  0.1166405E+00
         -1   -1    0    0    0  501 -0.00000000000E+00  0.00000000000E+00  0.65069421972E+02  0.65069421972E+02  0.00000000000E+00 0. -1.
          1   -1    0    0  502    0  0.00000000000E+00 -0.00000000000E+00 -0.56683996169E+03  0.56683996169E+03  0.00000000000E+00 0.  1.
          6    1    1    2  502    0 -0.70179798894E-02  0.54733079829E+02 -0.14736820703E+03  0.23375649407E+03  0.17300000000E+03 0. -1.
         -6    1    1    2    0  501  0.70179798894E-02 -0.54733079829E+02 -0.35440233269E+03  0.39815288960E+03  0.17300000000E+03 0.  1.
<mgrwt>
<rscale>  2 0.18145167E+03</rscale>
<asrwt>0</asrwt>
<pdfrwt beam="1">  1        1 0.87206143E-01 0.18145167E+03</pdfrwt>
<pdfrwt beam="2">  1       -1 0.10010681E-01 0.18145167E+03</pdfrwt>
<totfact> 0.22909351E+03</totfact>
</mgrwt>
</event>
<event>
 4    2  0.9452525E-001  0.1996767E+03  0.7546771E-02  0.1150012E+00
         -2   -1    0    0    0  501 -0.00000000000E+00  0.00000000000E+00  0.13388818114E+03  0.13388818114E+03  0.00000000000E+00 0.  1.
          2   -1    0    0  502    0  0.00000000000E+00 -0.00000000000E+00 -0.36852440144E+03  0.36852440144E+03  0.00000000000E+00 0. -1.
          6    1    1    2  502    0 -0.20134134675E+02 -0.97654590471E+02 -0.22737245772E+03  0.30260376228E+03  0.17300000000E+03 0. -1.
         -6    1    1    2    0  501  0.20134134675E+02  0.97654590471E+02 -0.72637625795E+01  0.19980882029E+03  0.17300000000E+03 0.  1.
<mgrwt>
<rscale>  2 0.19967674E+03</rscale>
<asrwt>0</asrwt>
<pdfrwt beam="1">  1        2 0.56696061E-01 0.19967674E+03</pdfrwt>
<pdfrwt beam="2">  1       -2 0.20598182E-01 0.19967674E+03</pdfrwt>
<totfact> 0.17305291E+03</totfact>
</mgrwt>
</event>
<event>
 4    2  0.9452525E-001  0.1872118E+03  0.7546771E-02  0.1161000E+00
         -1   -1    0    0    0  501 -0.00000000000E+00  0.00000000000E+00  0.13117458704E+03  0.13117458704E+03  0.00000000000E+00 0.  1.
          1   -1    0    0  502    0  0.00000000000E+00 -0.00000000000E+00 -0.27300971013E+03  0.27300971013E+03  0.00000000000E+00 0. -1.
          6    1    1    2  502    0  0.26591507455E+02 -0.66423896597E+02 -0.10042932348E+03  0.21244832624E+03  0.17300000000E+03 0. -1.
         -6    1    1    2    0  501 -0.26591507455E+02  0.66423896597E+02 -0.41405799613E+02  0.19173597093E+03  0.17300000000E+03 0.  1.
<mgrwt>
<rscale>  2 0.18721176E+03</rscale>
<asrwt>0</asrwt>
<pdfrwt beam="1">  1        1 0.42001494E-01 0.18721176E+03</pdfrwt>
<pdfrwt beam="2">  1       -1 0.20180706E-01 0.18721176E+03</pdfrwt>
<totfact> 0.19391918E+03</totfact>
</mgrwt>
</event>
<event>
 4    2  0.9452525E-001  0.1931820E+03  0.7546771E-02  0.1155622E+00
          1   -1    0    0  502    0  0.00000000000E+00  0.00000000000E+00  0.30996590599E+04  0.30996590599E+04  0.00000000000E+00 0.  1.
         -1   -1    0    0    0  501 -0.00000000000E+00 -0.00000000000E+00 -0.12257661450E+02  0.12257661450E+02  0.00000000000E+00 0. -1.
          6    1    1    2  502    0  0.68823474462E+02  0.51513186681E+02  0.17511362092E+04  0.17617597175E+04  0.17300000000E+03 0.  1.
         -6    1    1    2    0  501 -0.68823474462E+02 -0.51513186681E+02  0.13362651893E+04  0.13501570039E+04  0.17300000000E+03 0.  1.
<mgrwt>
<rscale>  2 0.19318198E+03</rscale>
<asrwt>0</asrwt>
<pdfrwt beam="1">  1        1 0.47687000E+00 0.19318198E+03</pdfrwt>
<pdfrwt beam="2">  1       -1 0.18857965E-02 0.19318198E+03</pdfrwt>
<totfact> 0.46754466E+02</totfact>
</mgrwt>
</event>
<event>
 4    2  0.9452525E-001  0.1898243E+03  0.7546771E-02  0.1158620E+00
         -1   -1    0    0    0  501 -0.00000000000E+00  0.00000000000E+00  0.70376060275E+02  0.70376060275E+02  0.00000000000E+00 0.  1.
          1   -1    0    0  502    0  0.00000000000E+00 -0.00000000000E+00 -0.65006164647E+03  0.65006164647E+03  0.00000000000E+00 0. -1.
          6    1    1    2  502    0  0.77879635200E+02  0.62479746308E+01 -0.45584326933E+03  0.49378776914E+03  0.17300000000E+03 0. -1.
         -6    1    1    2    0  501 -0.77879635200E+02 -0.62479746308E+01 -0.12384231686E+03  0.22664993760E+03  0.17300000000E+03 0.  1.
<mgrwt>
<rscale>  2 0.18982433E+03</rscale>
<asrwt>0</asrwt>
<pdfrwt beam="1">  1        1 0.10000948E+00 0.18982433E+03</pdfrwt>
<pdfrwt beam="2">  1       -1 0.10827086E-01 0.18982433E+03</pdfrwt>
<totfact> 0.16815560E+03</totfact>
</mgrwt>
</event>
<event>
 4    2  0.9452525E-001  0.1813315E+03  0.7546771E-02  0.1166521E+00
         -2   -1    0    0    0  501 -0.00000000000E+00  0.00000000000E+00  0.18137682472E+03  0.18137682472E+03  0.00000000000E+00 0.  1.
          2   -1    0    0  502    0  0.00000000000E+00 -0.00000000000E+00 -0.18902751658E+03  0.18902751658E+03  0.00000000000E+00 0. -1.
          6    1    1    2  502    0  0.43745006046E+02 -0.32225832978E+02  0.33653716918E+02  0.18442804160E+03  0.17300000000E+03 0.  1.
         -6    1    1    2    0  501 -0.43745006046E+02  0.32225832978E+02 -0.41304408774E+02  0.18597629970E+03  0.17300000000E+03 0. -1.
<mgrwt>
<rscale>  2 0.18133155E+03</rscale>
<asrwt>0</asrwt>
<pdfrwt beam="1">  1        2 0.29081156E-01 0.18133155E+03</pdfrwt>
<pdfrwt beam="2">  1       -2 0.27904127E-01 0.18133155E+03</pdfrwt>
<totfact> 0.20842834E+03</totfact>
</mgrwt>
</event>
<event>
 4    2  0.9452525E-001  0.2246841E+03  0.7546771E-02  0.1130438E+00
         -2   -1    0    0    0  501 -0.00000000000E+00  0.00000000000E+00  0.20347511823E+03  0.20347511823E+03  0.00000000000E+00 0. -1.
          2   -1    0    0  502    0  0.00000000000E+00 -0.00000000000E+00 -0.38305011759E+03  0.38305011759E+03  0.00000000000E+00 0.  1.
          6    1    1    2  502    0  0.10771524762E+03 -0.94611738837E+02 -0.26385166882E+03  0.34655541957E+03  0.17300000000E+03 0.  1.
         -6    1    1    2    0  501 -0.10771524762E+03  0.94611738837E+02  0.84276669462E+02  0.23996981625E+03  0.17300000000E+03 0. -1.
<mgrwt>
<rscale>  2 0.22468412E+03</rscale>
<asrwt>0</asrwt>
<pdfrwt beam="1">  1        2 0.58930787E-01 0.22468412E+03</pdfrwt>
<pdfrwt beam="2">  1       -2 0.31303864E-01 0.22468412E+03</pdfrwt>
<totfact> 0.79309108E+02</totfact>
</mgrwt>
</event>
<event>
 4    2  0.9452525E-001  0.2200241E+03  0.7546771E-02  0.1133865E+00
          2   -1    0    0  502    0  0.00000000000E+00  0.00000000000E+00  0.30251394366E+04  0.30251394366E+04  0.00000000000E+00 0. -1.
         -2   -1    0    0    0  501 -0.00000000000E+00 -0.00000000000E+00 -0.16157096710E+02  0.16157096710E+02  0.00000000000E+00 0.  1.
          6    1    1    2  502    0 -0.84308101229E+02 -0.10664786176E+03  0.13558763218E+04  0.13736124717E+04  0.17300000000E+03 0. -1.
         -6    1    1    2    0  501  0.84308101229E+02  0.10664786176E+03  0.16531060181E+04  0.16676840616E+04  0.17300000000E+03 0. -1.
<mgrwt>
<rscale>  2 0.22002414E+03</rscale>
<asrwt>0</asrwt>
<pdfrwt beam="1">  1        2 0.46540562E+00 0.22002414E+03</pdfrwt>
<pdfrwt beam="2">  1       -2 0.24857096E-02 0.22002414E+03</pdfrwt>
<totfact> 0.11390106E+03</totfact>
</mgrwt>
</event>
<event>
 4    2  0.9452525E-001  0.1747270E+03  0.7546771E-02  0.1173006E+00
          2   -1    0    0  502    0  0.00000000000E+00  0.00000000000E+00  0.28416683858E+03  0.28416683858E+03  0.00000000000E+00 0.  1.
         -2   -1    0    0    0  501 -0.00000000000E+00 -0.00000000000E+00 -0.10795232087E+03  0.10795232087E+03  0.00000000000E+00 0. -1.
          6    1    1    2  502    0 -0.50252419138E+01  0.23984616118E+02  0.10167718151E+03  0.20215777033E+03  0.17300000000E+03 0.  1.
         -6    1    1    2    0  501  0.50252419138E+01 -0.23984616118E+02  0.74537336198E+02  0.18996138911E+03  0.17300000000E+03 0. -1.
<mgrwt>
<rscale>  2 0.17472697E+03</rscale>
<asrwt>0</asrwt>
<pdfrwt beam="1">  1        2 0.43717975E-01 0.17472697E+03</pdfrwt>
<pdfrwt beam="2">  1       -2 0.16608049E-01 0.17472697E+03</pdfrwt>
<totfact> 0.32735206E+03</totfact>
</mgrwt>
</event>
<event>
 4    2  0.9452525E-001  0.3548417E+03  0.7546771E-02  0.1060645E+00
          2   -1    0    0  502    0  0.00000000000E+00  0.00000000000E+00  0.34019606660E+03  0.34019606660E+03  0.00000000000E+00 0. -1.
         -2   -1    0    0    0  501 -0.00000000000E+00 -0.00000000000E+00 -0.37865315085E+03  0.37865315085E+03  0.00000000000E+00 0.  1.
          6    1    1    2  502    0 -0.29531933179E+03  0.93648899407E+02 -0.73191703491E+02  0.36231153660E+03  0.17300000000E+03 0. -1.
         -6    1    1    2    0  501  0.29531933179E+03 -0.93648899407E+02  0.34734619245E+02  0.35653768085E+03  0.17300000000E+03 0.  1.
<mgrwt>
<rscale>  2 0.35484169E+03</rscale>
<asrwt>0</asrwt>
<pdfrwt beam="1">  1        2 0.52337857E-01 0.35484169E+03</pdfrwt>
<pdfrwt beam="2">  1       -2 0.58254331E-01 0.35484169E+03</pdfrwt>
<totfact> 0.26885527E+02</totfact>
</mgrwt>
</event>
<event>
 4    2  0.9452525E-001  0.2151153E+03  0.7546771E-02  0.1137578E+00
         -4   -1    0    0    0  501 -0.00000000000E+00  0.00000000000E+00  0.17246102801E+03  0.17246102801E+03  0.00000000000E+00 0.  1.
          4   -1    0    0  502    0  0.00000000000E+00 -0.00000000000E+00 -0.28984942897E+03  0.28984942897E+03  0.00000000000E+00 0. -1.
          6    1    1    2  502    0 -0.14775280908E+02 -0.12699325219E+03  0.43060691301E+01  0.21515840039E+03  0.17300000000E+03 0. -1.
         -6    1    1    2    0  501  0.14775280908E+02  0.12699325219E+03 -0.12169447009E+03  0.24715205659E+03  0.17300000000E+03 0. -1.
<mgrwt>
<rscale>  2 0.21511531E+03</rscale>
<asrwt>0</asrwt>
<pdfrwt beam="1">  1        4 0.44592219E-01 0.21511531E+03</pdfrwt>
<pdfrwt beam="2">  1       -4 0.26532466E-01 0.21511531E+03</pdfrwt>
<totfact> 0.11778543E+02</totfact>
</mgrwt>
</event>
<event>
 4    2  0.9452525E-001  0.1828398E+03  0.7546771E-02  0.1165083E+00
         -2   -1    0    0    0  501 -0.00000000000E+00  0.00000000000E+00  0.61612053462E+02  0.61612053462E+02  0.00000000000E+00 0. -1.
          2   -1    0    0  502    0  0.00000000000E+00 -0.00000000000E+00 -0.57961830246E+03  0.57961830246E+03  0.00000000000E+00 0.  1.
          6    1    1    2  502    0  0.40718268063E+02 -0.42935049052E+02 -0.34003395003E+03  0.38607445262E+03  0.17300000000E+03 0.  1.
         -6    1    1    2    0  501 -0.40718268063E+02  0.42935049052E+02 -0.17797229897E+03  0.25515590330E+03  0.17300000000E+03 0. -1.
<mgrwt>
<rscale>  2 0.18283981E+03</rscale>
<asrwt>0</asrwt>
<pdfrwt beam="1">  1        2 0.89172041E-01 0.18283981E+03</pdfrwt>
<pdfrwt beam="2">  1       -2 0.94787780E-02 0.18283981E+03</pdfrwt>
<totfact> 0.37340478E+03</totfact>
</mgrwt>
</event>
<event>
 4    2  0.9452525E-001  0.2531761E+03  0.7546771E-02  0.1111314E+00
          1   -1    0    0  502    0  0.00000000000E+00  0.00000000000E+00  0.32436562842E+03  0.32436562842E+03  0.00000000000E+00 0. -1.
         -1   -1    0    0    0  501 -0.00000000000E+00 -0.00000000000E+00 -0.21668646846E+03  0.21668646846E+03  0.00000000000E+00 0.  1.
          6    1    1    2  502    0  0.14248546377E+03 -0.11775839975E+03  0.13410586987E+03  0.28650049290E+03  0.17300000000E+03 0.  1.
         -6    1    1    2    0  501 -0.14248546377E+03  0.11775839975E+03 -0.26426709908E+02  0.25455160399E+03  0.17300000000E+03 0.  1.
<mgrwt>
<rscale>  2 0.25317612E+03</rscale>
<asrwt>0</asrwt>
<pdfrwt beam="1">  1        1 0.49902404E-01 0.25317612E+03</pdfrwt>
<pdfrwt beam="2">  1       -1 0.33336380E-01 0.25317612E+03</pdfrwt>
<totfact> 0.67783566E+02</totfact>
</mgrwt>
</event>
<event>
 4    2  0.9452525E-001  0.2374073E+03  0.7546771E-02  0.1121532E+00
          2   -1    0    0  502    0  0.00000000000E+00  0.00000000000E+00  0.69020956824E+03  0.69020956824E+03  0.00000000000E+00 0. -1.
         -2   -1    0    0    0  501 -0.00000000000E+00 -0.00000000000E+00 -0.83517134917E+02  0.83517134917E+02  0.00000000000E+00 0.  1.
          6    1    1    2  502    0 -0.13566229506E+03  0.89604423460E+02  0.24565061109E+03  0.34162323359E+03  0.17300000000E+03 0. -1.
         -6    1    1    2    0  501  0.13566229506E+03 -0.89604423460E+02  0.36104182224E+03  0.43210346956E+03  0.17300000000E+03 0.  1.
<mgrwt>
<rscale>  2 0.23740727E+03</rscale>
<asrwt>0</asrwt>
<pdfrwt beam="1">  1        2 0.10618608E+00 0.23740727E+03</pdfrwt>
<pdfrwt beam="2">  1       -2 0.12848790E-01 0.23740727E+03</pdfrwt>
<totfact> 0.18816327E+03</totfact>
</mgrwt>
</event>
<event>
 4    2  0.9452525E-001  0.2065147E+03  0.7546771E-02  0.1144356E+00
         -1   -1    0    0    0  501 -0.00000000000E+00  0.00000000000E+00  0.25003586898E+03  0.25003586898E+03  0.00000000000E+00 0.  1.
          1   -1    0    0  502    0  0.00000000000E+00 -0.00000000000E+00 -0.17649165693E+03  0.17649165693E+03  0.00000000000E+00 0. -1.
          6    1    1    2  502    0  0.73629496536E+02 -0.85428482852E+02 -0.22957057335E+01  0.20652747688E+03  0.17300000000E+03 0. -1.
         -6    1    1    2    0  501 -0.73629496536E+02  0.85428482852E+02  0.75839917791E+02  0.22000004903E+03  0.17300000000E+03 0.  1.
<mgrwt>
<rscale>  2 0.20651472E+03</rscale>
<asrwt>0</asrwt>
<pdfrwt beam="1">  1        1 0.27152562E-01 0.20651472E+03</pdfrwt>
<pdfrwt beam="2">  1       -1 0.38467057E-01 0.20651472E+03</pdfrwt>
<totfact> 0.11344519E+03</totfact>
</mgrwt>
</event>
<event>
 4    2  0.9452525E-001  0.2885581E+03  0.7546771E-02  0.1091104E+00
          1   -1    0    0  502    0  0.00000000000E+00  0.00000000000E+00  0.34391124980E+03  0.34391124980E+03  0.00000000000E+00 0.  1.
         -1   -1    0    0    0  501 -0.00000000000E+00 -0.00000000000E+00 -0.24520824522E+03  0.24520824522E+03  0.00000000000E+00 0. -1.
          6    1    1    2  502    0  0.18291433228E+03 -0.14099336605E+03  0.16263371649E+02  0.28901605402E+03  0.17300000000E+03 0.  1.
         -6    1    1    2    0  501 -0.18291433228E+03  0.14099336605E+03  0.82439632930E+02  0.30010344100E+03  0.17300000000E+03 0.  1.
<mgrwt>
<rscale>  2 0.28855811E+03</rscale>
<asrwt>0</asrwt>
<pdfrwt beam="1">  1        1 0.52909423E-01 0.28855811E+03</pdfrwt>
<pdfrwt beam="2">  1       -1 0.37724345E-01 0.28855811E+03</pdfrwt>
<totfact> 0.50660517E+02</totfact>
</mgrwt>
</event>
<event>
 4    2  0.9452525E-001  0.1925090E+03  0.7546771E-02  0.1156218E+00
         -1   -1    0    0    0  501 -0.00000000000E+00  0.00000000000E+00  0.13453248223E+02  0.13453248223E+02  0.00000000000E+00 0. -1.
          1   -1    0    0  502    0  0.00000000000E+00 -0.00000000000E+00 -0.30771227455E+04  0.30771227455E+04  0.00000000000E+00 0.  1.
          6    1    1    2  502    0 -0.75918410522E+02  0.36974371295E+02 -0.10316303130E+04  0.10494383316E+04  0.17300000000E+03 0. -1.
         -6    1    1    2    0  501  0.75918410522E+02 -0.36974371295E+02 -0.20320391842E+04  0.20411376620E+04  0.17300000000E+03 0. -1.
<mgrwt>
<rscale>  2 0.19250898E+03</rscale>
<asrwt>0</asrwt>
<pdfrwt beam="1">  1        1 0.47340445E+00 0.19250898E+03</pdfrwt>
<pdfrwt beam="2">  1       -1 0.20697263E-02 0.19250898E+03</pdfrwt>
<totfact> 0.42356428E+02</totfact>
</mgrwt>
</event>
<event>
 4    2  0.9452525E-001  0.2638972E+03  0.7546771E-02  0.1104824E+00
          2   -1    0    0  502    0  0.00000000000E+00  0.00000000000E+00  0.12944854045E+04  0.12944854045E+04  0.00000000000E+00 0. -1.
         -2   -1    0    0    0  501 -0.00000000000E+00 -0.00000000000E+00 -0.53917263389E+02  0.53917263389E+02  0.00000000000E+00 0.  1.
          6    1    1    2  502    0  0.19254903771E+02  0.19834810722E+03  0.58867787960E+03  0.64512275490E+03  0.17300000000E+03 0.  1.
         -6    1    1    2    0  501 -0.19254903771E+02 -0.19834810722E+03  0.65189026148E+03  0.70327991296E+03  0.17300000000E+03 0. -1.
<mgrwt>
<rscale>  2 0.26389718E+03</rscale>
<asrwt>0</asrwt>
<pdfrwt beam="1">  1        2 0.19915158E+00 0.26389718E+03</pdfrwt>
<pdfrwt beam="2">  1       -2 0.82949646E-02 0.26389718E+03</pdfrwt>
<totfact> 0.15792993E+03</totfact>
</mgrwt>
</event>
<event>
 4    2  0.9452525E-001  0.1763147E+03  0.7546771E-02  0.1171418E+00
          2   -1    0    0  502    0  0.00000000000E+00  0.00000000000E+00  0.13897824190E+04  0.13897824190E+04  0.00000000000E+00 0. -1.
         -2   -1    0    0    0  501 -0.00000000000E+00 -0.00000000000E+00 -0.17829501749E+03  0.17829501749E+03  0.00000000000E+00 0.  1.
          6    1    1    2  502    0  0.91646858367E+01 -0.32770169449E+02  0.13389536843E+04  0.13505124377E+04  0.17300000000E+03 0. -1.
         -6    1    1    2    0  501 -0.91646858367E+01  0.32770169449E+02 -0.12746628280E+03  0.21756499885E+03  0.17300000000E+03 0.  1.
<mgrwt>
<rscale>  2 0.17631471E+03</rscale>
<asrwt>0</asrwt>
<pdfrwt beam="1">  1        2 0.21381267E+00 0.17631471E+03</pdfrwt>
<pdfrwt beam="2">  1       -2 0.27430004E-01 0.17631471E+03</pdfrwt>
<totfact> 0.19459187E+02</totfact>
</mgrwt>
</event>
<event>
 4    2  0.9452525E-001  0.1804678E+03  0.7546771E-02  0.1167351E+00
          4   -1    0    0  502    0  0.00000000000E+00  0.00000000000E+00  0.15662348917E+02  0.15662348917E+02  0.00000000000E+00 0. -1.
         -4   -1    0    0    0  501 -0.00000000000E+00 -0.00000000000E+00 -0.20861006444E+04  0.20861006444E+04  0.00000000000E+00 0.  1.
          6    1    1    2  502    0 -0.46475874962E+02 -0.21900033814E+02 -0.10946839973E+04  0.11094600815E+04  0.17300000000E+03 0.  1.
         -6    1    1    2    0  501  0.46475874962E+02  0.21900033814E+02 -0.97575429813E+03  0.99230291179E+03  0.17300000000E+03 0. -1.
<mgrwt>
<rscale>  2 0.18046778E+03</rscale>
<asrwt>0</asrwt>
<pdfrwt beam="1">  1        4 0.24095934E-02 0.18046778E+03</pdfrwt>
<pdfrwt beam="2">  1       -4 0.32093839E+00 0.18046778E+03</pdfrwt>
<totfact> 0.37444144E+01</totfact>
</mgrwt>
</event>
<event>
 4    2  0.9452525E-001  0.2153350E+03  0.7546771E-02  0.1137410E+00
         -2   -1    0    0    0  501 -0.00000000000E+00  0.00000000000E+00  0.26331174838E+03  0.26331174838E+03  0.00000000000E+00 0. -1.
          2   -1    0    0  502    0  0.00000000000E+00 -0.00000000000E+00 -0.18093877681E+03  0.18093877681E+03  0.00000000000E+00 0.  1.
          6    1    1    2  502    0 -0.87666984914E+02 -0.93566246344E+02  0.48611614369E+01  0.21538981775E+03  0.17300000000E+03 0.  1.
         -6    1    1    2    0  501  0.87666984914E+02  0.93566246344E+02  0.77511810133E+02  0.22886070744E+03  0.17300000000E+03 0.  1.
<mgrwt>
<rscale>  2 0.21533495E+03</rscale>
<asrwt>0</asrwt>
<pdfrwt beam="1">  1        2 0.27836735E-01 0.21533495E+03</pdfrwt>
<pdfrwt beam="2">  1       -2 0.40509500E-01 0.21533495E+03</pdfrwt>
<totfact> 0.11034174E+03</totfact>
</mgrwt>
</event>
<event>
 4    2  0.9452525E-001  0.2197933E+03  0.7546771E-02  0.1134037E+00
          2   -1    0    0  502    0  0.00000000000E+00  0.00000000000E+00  0.15713330166E+03  0.15713330166E+03  0.00000000000E+00 0.  1.
         -2   -1    0    0    0  501 -0.00000000000E+00 -0.00000000000E+00 -0.38505839562E+03  0.38505839562E+03  0.00000000000E+00 0. -1.
          6    1    1    2  502    0 -0.42397280027E+02  0.12877323149E+03 -0.23567686823E+03  0.32226178911E+03  0.17300000000E+03 0.  1.
         -6    1    1    2    0  501  0.42397280027E+02 -0.12877323149E+03  0.77517742707E+01  0.21992990817E+03  0.17300000000E+03 0.  1.
<mgrwt>
<rscale>  2 0.21979325E+03</rscale>
<asrwt>0</asrwt>
<pdfrwt beam="1">  1        2 0.24174354E-01 0.21979325E+03</pdfrwt>
<pdfrwt beam="2">  1       -2 0.59239752E-01 0.21979325E+03</pdfrwt>
<totfact> 0.60677375E+02</totfact>
</mgrwt>
</event>
<event>
 4    2  0.9452525E-001  0.2055448E+03  0.7546771E-02  0.1145143E+00
         -1   -1    0    0    0  501 -0.00000000000E+00  0.00000000000E+00  0.58921209130E+02  0.58921209130E+02  0.00000000000E+00 0.  1.
          1   -1    0    0  502    0  0.00000000000E+00 -0.00000000000E+00 -0.71732060054E+03  0.71732060054E+03  0.00000000000E+00 0. -1.
          6    1    1    2  502    0 -0.55687202948E+02 -0.96013533467E+02 -0.32147691641E+03  0.38157053210E+03  0.17300000000E+03 0.  1.
         -6    1    1    2    0  501  0.55687202948E+02  0.96013533467E+02 -0.33692247500E+03  0.39467127758E+03  0.17300000000E+03 0. -1.
<mgrwt>
<rscale>  2 0.20554480E+03</rscale>
<asrwt>0</asrwt>
<pdfrwt beam="1">  1        1 0.11035701E+00 0.20554480E+03</pdfrwt>
<pdfrwt beam="2">  1       -1 0.90648016E-02 0.20554480E+03</pdfrwt>
<totfact> 0.19211856E+03</totfact>
</mgrwt>
</event>
<event>
 4    2  0.9452525E-001  0.1943022E+03  0.7546771E-02  0.1154637E+00
          2   -1    0    0  502    0  0.00000000000E+00  0.00000000000E+00  0.40799731297E+03  0.40799731297E+03  0.00000000000E+00 0.  1.
         -2   -1    0    0    0  501 -0.00000000000E+00 -0.00000000000E+00 -0.98952839719E+02  0.98952839719E+02  0.00000000000E+00 0. -1.
          6    1    1    2  502    0 -0.13531631728E+02  0.87414158106E+02  0.21908362827E+03  0.29283267623E+03  0.17300000000E+03 0.  1.
         -6    1    1    2    0  501  0.13531631728E+02 -0.87414158106E+02  0.89960844987E+02  0.21411747646E+03  0.17300000000E+03 0. -1.
<mgrwt>
<rscale>  2 0.19430219E+03</rscale>
<asrwt>0</asrwt>
<pdfrwt beam="1">  1        2 0.62768816E-01 0.19430219E+03</pdfrwt>
<pdfrwt beam="2">  1       -2 0.15223514E-01 0.19430219E+03</pdfrwt>
<totfact> 0.25749550E+03</totfact>
</mgrwt>
</event>
<event>
 4    2  0.9452525E-001  0.1831191E+03  0.7546771E-02  0.1164818E+00
          2   -1    0    0  502    0  0.00000000000E+00  0.00000000000E+00  0.87579105735E+03  0.87579105735E+03  0.00000000000E+00 0. -1.
         -2   -1    0    0    0  501 -0.00000000000E+00 -0.00000000000E+00 -0.40216238021E+02  0.40216238021E+02  0.00000000000E+00 0.  1.
          6    1    1    2  502    0 -0.21728193424E+02  0.55959610914E+02  0.31750855006E+03  0.36653004216E+03  0.17300000000E+03 0.  1.
         -6    1    1    2    0  501  0.21728193424E+02 -0.55959610914E+02  0.51806626927E+03  0.54947725321E+03  0.17300000000E+03 0. -1.
<mgrwt>
<rscale>  2 0.18311907E+03</rscale>
<asrwt>0</asrwt>
<pdfrwt beam="1">  1        2 0.13473707E+00 0.18311907E+03</pdfrwt>
<pdfrwt beam="2">  1       -2 0.61871142E-02 0.18311907E+03</pdfrwt>
<totfact> 0.43857942E+03</totfact>
</mgrwt>
</event>
<event>
 4    2  0.9452525E-001  0.1888106E+03  0.7546771E-02  0.1159538E+00
          1   -1    0    0  502    0  0.00000000000E+00  0.00000000000E+00  0.34405156146E+02  0.34405156146E+02  0.00000000000E+00 0.  1.
         -1   -1    0    0    0  501 -0.00000000000E+00 -0.00000000000E+00 -0.11287684257E+04  0.11287684257E+04  0.00000000000E+00 0. -1.
          6    1    1    2  502    0 -0.11479632514E+02  0.74757397263E+02 -0.38060140087E+03  0.42486100875E+03  0.17300000000E+03 0.  1.
         -6    1    1    2    0  501  0.11479632514E+02 -0.74757397263E+02 -0.71376186866E+03  0.73831257307E+03  0.17300000000E+03 0. -1.
<mgrwt>
<rscale>  2 0.18881062E+03</rscale>
<asrwt>0</asrwt>
<pdfrwt beam="1">  1        1 0.52931012E-02 0.18881062E+03</pdfrwt>
<pdfrwt beam="2">  1       -1 0.17365667E+00 0.18881062E+03</pdfrwt>
<totfact> 0.38986943E+02</totfact>
</mgrwt>
</event>
<event>
 4    2  0.9452525E-001  0.1794769E+03  0.7546771E-02  0.1168310E+00
         -4   -1    0    0    0  501 -0.00000000000E+00  0.00000000000E+00  0.16212389955E+03  0.16212389955E+03  0.00000000000E+00 0. -1.
          4   -1    0    0  502    0  0.00000000000E+00 -0.00000000000E+00 -0.23709620875E+03  0.23709620875E+03  0.00000000000E+00 0.  1.
          6    1    1    2  502    0 -0.35081479394E+02  0.32438521223E+02  0.42854582752E+02  0.18452231063E+03  0.17300000000E+03 0. -1.
         -6    1    1    2    0  501  0.35081479394E+02 -0.32438521223E+02 -0.11782689195E+03  0.21469779767E+03  0.17300000000E+03 0.  1.
<mgrwt>
<rscale>  2 0.17947693E+03</rscale>
<asrwt>0</asrwt>
<pdfrwt beam="1">  1        4 0.36476340E-01 0.17947693E+03</pdfrwt>
<pdfrwt beam="2">  1       -4 0.24942138E-01 0.17947693E+03</pdfrwt>
<totfact> 0.19189047E+02</totfact>
</mgrwt>
</event>
<event>
 4    2  0.9452525E-001  0.2270366E+03  0.7546771E-02  0.1128743E+00
          2   -1    0    0  502    0  0.00000000000E+00  0.00000000000E+00  0.22340691282E+04  0.22340691282E+04  0.00000000000E+00 0. -1.
         -2   -1    0    0    0  501 -0.00000000000E+00 -0.00000000000E+00 -0.29863459441E+02  0.29863459441E+02  0.00000000000E+00 0.  1.
          6    1    1    2  502    0 -0.11656825836E+02 -0.14656305305E+03  0.56230854234E+03  0.60641281888E+03  0.17300000000E+03 0.  1.
         -6    1    1    2    0  501  0.11656825836E+02  0.14656305305E+03  0.16418971264E+04  0.16575197688E+04  0.17300000000E+03 0. -1.
<mgrwt>
<rscale>  2 0.22703658E+03</rscale>
<asrwt>0</asrwt>
<pdfrwt beam="1">  1        2 0.34370281E+00 0.22703658E+03</pdfrwt>
<pdfrwt beam="2">  1       -2 0.45943801E-02 0.22703658E+03</pdfrwt>
<totfact> 0.12506476E+03</totfact>
</mgrwt>
</event>
<event>
 4    2  0.9452525E-001  0.2705960E+03  0.7546771E-02  0.1100939E+00
          2   -1    0    0  502    0  0.00000000000E+00  0.00000000000E+00  0.10893325761E+03  0.10893325761E+03  0.00000000000E+00 0. -1.
         -2   -1    0    0    0  501 -0.00000000000E+00 -0.00000000000E+00 -0.16274861923E+04  0.16274861923E+04  0.00000000000E+00 0.  1.
          6    1    1    2  502    0  0.12470731894E+03 -0.16655716255E+03 -0.94097603846E+02  0.28649007460E+03  0.17300000000E+03 0. -1.
         -6    1    1    2    0  501 -0.12470731894E+03  0.16655716255E+03 -0.14244553309E+04  0.14499293753E+04  0.17300000000E+03 0.  1.
<mgrwt>
<rscale>  2 0.27059602E+03</rscale>
<asrwt>0</asrwt>
<pdfrwt beam="1">  1        2 0.16758963E-01 0.27059602E+03</pdfrwt>
<pdfrwt beam="2">  1       -2 0.25038249E+00 0.27059602E+03</pdfrwt>
<totfact> 0.24419446E+01</totfact>
</mgrwt>
</event>
<event>
 4    2  0.9452525E-001  0.2126195E+03  0.7546771E-02  0.1139508E+00
         -2   -1    0    0    0  501 -0.00000000000E+00  0.00000000000E+00  0.12137096627E+03  0.12137096627E+03  0.00000000000E+00 0. -1.
          2   -1    0    0  502    0  0.00000000000E+00 -0.00000000000E+00 -0.10736917233E+04  0.10736917233E+04  0.00000000000E+00 0.  1.
          6    1    1    2  502    0  0.16169485643E+02 -0.12254223526E+03  0.67299976693E+01  0.21272598468E+03  0.17300000000E+03 0. -1.
         -6    1    1    2    0  501 -0.16169485643E+02  0.12254223526E+03 -0.95905075475E+03  0.98233670494E+03  0.17300000000E+03 0.  1.
<mgrwt>
<rscale>  2 0.21261950E+03</rscale>
<asrwt>0</asrwt>
<pdfrwt beam="1">  1        2 0.16518334E+00 0.21261950E+03</pdfrwt>
<pdfrwt beam="2">  1       -2 0.18672456E-01 0.21261950E+03</pdfrwt>
<totfact> 0.56583075E+02</totfact>
</mgrwt>
</event>
<event>
 4    2  0.9452525E-001  0.1958711E+03  0.7546771E-02  0.1153270E+00
          2   -1    0    0  502    0  0.00000000000E+00  0.00000000000E+00  0.32716753254E+03  0.32716753254E+03  0.00000000000E+00 0.  1.
         -2   -1    0    0    0  501 -0.00000000000E+00 -0.00000000000E+00 -0.14067392972E+03  0.14067392972E+03  0.00000000000E+00 0. -1.
          6    1    1    2  502    0  0.17169822490E+02 -0.90231201626E+02 -0.21750435536E+01  0.19588313701E+03  0.17300000000E+03 0. -1.
         -6    1    1    2    0  501 -0.17169822490E+02  0.90231201626E+02  0.18866864637E+03  0.27195832525E+03  0.17300000000E+03 0.  1.
<mgrwt>
<rscale>  2 0.19587106E+03</rscale>
<asrwt>0</asrwt>
<pdfrwt beam="1">  1        2 0.50333466E-01 0.19587106E+03</pdfrwt>
<pdfrwt beam="2">  1       -2 0.21642143E-01 0.19587106E+03</pdfrwt>
<totfact> 0.18058322E+03</totfact>
</mgrwt>
</event>
<event>
 4    2  0.9452525E-001  0.1843355E+03  0.7546771E-02  0.1163672E+00
         -2   -1    0    0    0  501 -0.00000000000E+00  0.00000000000E+00  0.35479819147E+02  0.35479819147E+02  0.00000000000E+00 0. -1.
          2   -1    0    0  502    0  0.00000000000E+00 -0.00000000000E+00 -0.99018226043E+03  0.99018226043E+03  0.00000000000E+00 0.  1.
          6    1    1    2  502    0 -0.51747268649E+02 -0.37051360139E+02 -0.38449002807E+03  0.42639437706E+03  0.17300000000E+03 0. -1.
         -6    1    1    2    0  501  0.51747268649E+02  0.37051360139E+02 -0.57021241321E+03  0.59926770252E+03  0.17300000000E+03 0.  1.
<mgrwt>
<rscale>  2 0.18433552E+03</rscale>
<asrwt>0</asrwt>
<pdfrwt beam="1">  1        2 0.15233574E+00 0.18433552E+03</pdfrwt>
<pdfrwt beam="2">  1       -2 0.54584334E-02 0.18433552E+03</pdfrwt>
<totfact> 0.45016291E+03</totfact>
</mgrwt>
</event>
<event>
 4    2  0.9452525E-001  0.2488736E+03  0.7546771E-02  0.1114019E+00
          3   -1    0    0  502    0  0.00000000000E+00  0.00000000000E+00  0.32135563256E+03  0.32135563256E+03  0.00000000000E+00 0. -1.
         -3   -1    0    0    0  501 -0.00000000000E+00 -0.00000000000E+00 -0.25480868717E+03  0.25480868717E+03  0.00000000000E+00 0.  1.
          6    1    1    2  502    0 -0.82729675639E+02 -0.15863441157E+03 -0.10890885685E+03  0.27166010908E+03  0.17300000000E+03 0.  1.
         -6    1    1    2    0  501  0.82729675639E+02  0.15863441157E+03  0.17545580224E+03  0.30450421065E+03  0.17300000000E+03 0. -1.
<mgrwt>
<rscale>  2 0.24887361E+03</rscale>
<asrwt>0</asrwt>
<pdfrwt beam="1">  1        3 0.49439328E-01 0.24887361E+03</pdfrwt>
<pdfrwt beam="2">  1       -3 0.39201337E-01 0.24887361E+03</pdfrwt>
<totfact> 0.65577474E+01</totfact>
</mgrwt>
</event>
<event>
 4    2  0.9452525E-001  0.2627032E+03  0.7546771E-02  0.1105530E+00
          1   -1    0    0  502    0  0.00000000000E+00  0.00000000000E+00  0.38276230958E+03  0.38276230958E+03  0.00000000000E+00 0.  1.
         -1   -1    0    0    0  501 -0.00000000000E+00 -0.00000000000E+00 -0.18525154928E+03  0.18525154928E+03  0.00000000000E+00 0. -1.
          6    1    1    2  502    0 -0.27326515221E+02  0.19579898994E+03  0.52334751898E+02  0.26786546838E+03  0.17300000000E+03 0.  1.
         -6    1    1    2    0  501  0.27326515221E+02 -0.19579898994E+03  0.14517600840E+03  0.30014839048E+03  0.17300000000E+03 0.  1.
<mgrwt>
<rscale>  2 0.26270322E+03</rscale>
<asrwt>0</asrwt>
<pdfrwt beam="1">  1        1 0.58886509E-01 0.26270322E+03</pdfrwt>
<pdfrwt beam="2">  1       -1 0.28500238E-01 0.26270322E+03</pdfrwt>
<totfact> 0.71793775E+02</totfact>
</mgrwt>
</event>
<event>
 4    2  0.9452525E-001  0.2396155E+03  0.7546771E-02  0.1120049E+00
          2   -1    0    0  502    0  0.00000000000E+00  0.00000000000E+00  0.38641210383E+03  0.38641210383E+03  0.00000000000E+00 0. -1.
         -2   -1    0    0    0  501 -0.00000000000E+00 -0.00000000000E+00 -0.15138676832E+03  0.15138676832E+03  0.00000000000E+00 0.  1.
          6    1    1    2  502    0  0.26289097202E+02 -0.16369318311E+03  0.80940118375E+02  0.25291674043E+03  0.17300000000E+03 0.  1.
         -6    1    1    2    0  501 -0.26289097202E+02  0.16369318311E+03  0.15408521714E+03  0.28488213172E+03  0.17300000000E+03 0.  1.
<mgrwt>
<rscale>  2 0.23961547E+03</rscale>
<asrwt>0</asrwt>
<pdfrwt beam="1">  1        2 0.59448015E-01 0.23961547E+03</pdfrwt>
<pdfrwt beam="2">  1       -2 0.23290272E-01 0.23961547E+03</pdfrwt>
<totfact> 0.13338989E+03</totfact>
</mgrwt>
</event>
<event>
 4    2  0.9452525E-001  0.2379831E+03  0.7546771E-02  0.1121144E+00
          2   -1    0    0  502    0  0.00000000000E+00  0.00000000000E+00  0.12144419839E+04  0.12144419839E+04  0.00000000000E+00 0.  1.
         -2   -1    0    0    0  501 -0.00000000000E+00 -0.00000000000E+00 -0.76350536780E+02  0.76350536780E+02  0.00000000000E+00 0. -1.
          6    1    1    2  502    0  0.13736226409E+03 -0.88535639761E+02  0.97167883234E+03  0.10003977730E+04  0.17300000000E+03 0.  1.
         -6    1    1    2    0  501 -0.13736226409E+03  0.88535639761E+02  0.16641261482E+03  0.29039474767E+03  0.17300000000E+03 0. -1.
<mgrwt>
<rscale>  2 0.23798309E+03</rscale>
<asrwt>0</asrwt>
<pdfrwt beam="1">  1        2 0.18683721E+00 0.23798309E+03</pdfrwt>
<pdfrwt beam="2">  1       -2 0.11746237E-01 0.23798309E+03</pdfrwt>
<totfact> 0.10072995E+03</totfact>
</mgrwt>
</event>
<event>
 4    2  0.9452525E-001  0.1819804E+03  0.7546771E-02  0.1165900E+00
          2   -1    0    0  502    0  0.00000000000E+00  0.00000000000E+00  0.62945036544E+02  0.62945036544E+02  0.00000000000E+00 0. -1.
         -2   -1    0    0    0  501 -0.00000000000E+00 -0.00000000000E+00 -0.52833073322E+03  0.52833073322E+03  0.00000000000E+00 0.  1.
          6    1    1    2  502    0 -0.42323151523E+02  0.37371224316E+02 -0.21358377366E+03  0.28059737335E+03  0.17300000000E+03 0. -1.
         -6    1    1    2    0  501  0.42323151523E+02 -0.37371224316E+02 -0.25180192302E+03  0.31067839641E+03  0.17300000000E+03 0.  1.
<mgrwt>
<rscale>  2 0.18198038E+03</rscale>
<asrwt>0</asrwt>
<pdfrwt beam="1">  1        2 0.96838516E-02 0.18198038E+03</pdfrwt>
<pdfrwt beam="2">  1       -2 0.81281653E-01 0.18198038E+03</pdfrwt>
<totfact> 0.90594298E+02</totfact>
</mgrwt>
</event>
<event>
 4    2  0.9452525E-001  0.3255351E+03  0.7546771E-02  0.1073130E+00
          2   -1    0    0  502    0  0.00000000000E+00  0.00000000000E+00  0.13667606078E+04  0.13667606078E+04  0.00000000000E+00 0. -1.
         -2   -1    0    0    0  501 -0.00000000000E+00 -0.00000000000E+00 -0.81427586645E+02  0.81427586645E+02  0.00000000000E+00 0.  1.
          6    1    1    2  502    0 -0.13681265523E+02 -0.27542131050E+03  0.48436843072E+03  0.58359733719E+03  0.17300000000E+03 0.  1.
         -6    1    1    2    0  501  0.13681265523E+02  0.27542131050E+03  0.80096459041E+03  0.86459085722E+03  0.17300000000E+03 0. -1.
<mgrwt>
<rscale>  2 0.32553506E+03</rscale>
<asrwt>0</asrwt>
<pdfrwt beam="1">  1        2 0.21027085E+00 0.32553506E+03</pdfrwt>
<pdfrwt beam="2">  1       -2 0.12527322E-01 0.32553506E+03</pdfrwt>
<totfact> 0.74144265E+02</totfact>
</mgrwt>
</event>
<event>
 4    2  0.9452525E-001  0.1875000E+03  0.7546771E-02  0.1160736E+00
          1   -1    0    0  502    0  0.00000000000E+00  0.00000000000E+00  0.26968998084E+03  0.26968998084E+03  0.00000000000E+00 0.  1.
         -1   -1    0    0    0  501 -0.00000000000E+00 -0.00000000000E+00 -0.16209569637E+03  0.16209569637E+03  0.00000000000E+00 0. -1.
          6    1    1    2  502    0 -0.72234650617E+02  0.30687686135E+01  0.14932714710E+03  0.23969743209E+03  0.17300000000E+03 0.  1.
         -6    1    1    2    0  501  0.72234650617E+02 -0.30687686135E+01 -0.41732862630E+02  0.19208824512E+03  0.17300000000E+03 0. -1.
<mgrwt>
<rscale>  2 0.18750003E+03</rscale>
<asrwt>0</asrwt>
<pdfrwt beam="1">  1        1 0.41490766E-01 0.18750003E+03</pdfrwt>
<pdfrwt beam="2">  1       -1 0.24937800E-01 0.18750003E+03</pdfrwt>
<totfact> 0.13924746E+03</totfact>
</mgrwt>
</event>
<event>
 4    2  0.9452525E-001  0.1977633E+03  0.7546771E-02  0.1151640E+00
         -2   -1    0    0    0  501 -0.00000000000E+00  0.00000000000E+00  0.55946757935E+02  0.55946757935E+02  0.00000000000E+00 0. -1.
          2   -1    0    0  502    0  0.00000000000E+00 -0.00000000000E+00 -0.10823720278E+04  0.10823720278E+04  0.00000000000E+00 0.  1.
          6    1    1    2  502    0 -0.52387067365E+02  0.80230334759E+02 -0.85191647537E+03  0.87456960412E+03  0.17300000000E+03 0.  1.
         -6    1    1    2    0  501  0.52387067365E+02 -0.80230334759E+02 -0.17450879447E+03  0.26374918159E+03  0.17300000000E+03 0. -1.
<mgrwt>
<rscale>  2 0.19776327E+03</rscale>
<asrwt>0</asrwt>
<pdfrwt beam="1">  1        2 0.16651876E+00 0.19776327E+03</pdfrwt>
<pdfrwt beam="2">  1       -2 0.86071940E-02 0.19776327E+03</pdfrwt>
<totfact> 0.19678204E+03</totfact>
</mgrwt>
</event>
<event>
 4    2  0.9452525E-001  0.2038349E+03  0.7546771E-02  0.1146543E+00
          2   -1    0    0  502    0  0.00000000000E+00  0.00000000000E+00  0.20147836012E+04  0.20147836012E+04  0.00000000000E+00 0.  1.
         -2   -1    0    0    0  501 -0.00000000000E+00 -0.00000000000E+00 -0.22988455473E+02  0.22988455473E+02  0.00000000000E+00 0. -1.
          6    1    1    2  502    0  0.72101126257E+02  0.80131702538E+02  0.66898680385E+03  0.69935113204E+03  0.17300000000E+03 0. -1.
         -6    1    1    2    0  501 -0.72101126257E+02 -0.80131702538E+02  0.13228083419E+04  0.13384209246E+04  0.17300000000E+03 0.  1.
<mgrwt>
<rscale>  2 0.20383489E+03</rscale>
<asrwt>0</asrwt>
<pdfrwt beam="1">  1        2 0.30996657E+00 0.20383489E+03</pdfrwt>
<pdfrwt beam="2">  1       -2 0.35366871E-02 0.20383489E+03</pdfrwt>
<totfact> 0.24214208E+03</totfact>
</mgrwt>
</event>
<event>
 4    2  0.9452525E-001  0.2278327E+03  0.7546771E-02  0.1128175E+00
          3   -1    0    0  502    0  0.00000000000E+00  0.00000000000E+00  0.13202125782E+04  0.13202125782E+04  0.00000000000E+00 0.  1.
         -3   -1    0    0    0  501 -0.00000000000E+00 -0.00000000000E+00 -0.40163898990E+02  0.40163898990E+02  0.00000000000E+00 0. -1.
          6    1    1    2  502    0  0.22693148617E+02  0.14650512440E+03  0.54129509672E+03  0.58728878092E+03  0.17300000000E+03 0. -1.
         -6    1    1    2    0  501 -0.22693148617E+02 -0.14650512440E+03  0.73875358245E+03  0.77308769622E+03  0.17300000000E+03 0. -1.
<mgrwt>
<rscale>  2 0.22783268E+03</rscale>
<asrwt>0</asrwt>
<pdfrwt beam="1">  1        3 0.20310959E+00 0.22783268E+03</pdfrwt>
<pdfrwt beam="2">  1       -3 0.61790624E-02 0.22783268E+03</pdfrwt>
<totfact> 0.61744861E+01</totfact>
</mgrwt>
</event>
<event>
 4    2  0.9452525E-001  0.1773955E+03  0.7546771E-02  0.1170348E+00
          2   -1    0    0  502    0  0.00000000000E+00  0.00000000000E+00  0.84355948891E+03  0.84355948891E+03  0.00000000000E+00 0.  1.
         -2   -1    0    0    0  501 -0.00000000000E+00 -0.00000000000E+00 -0.49210053355E+02  0.49210053355E+02  0.00000000000E+00 0. -1.
          6    1    1    2  502    0 -0.39157926946E+02  0.26098781211E+01  0.61673030470E+03  0.64173625692E+03  0.17300000000E+03 0.  1.
         -6    1    1    2    0  501  0.39157926946E+02 -0.26098781211E+01  0.17761913085E+03  0.25103328534E+03  0.17300000000E+03 0. -1.
<mgrwt>
<rscale>  2 0.17739548E+03</rscale>
<asrwt>0</asrwt>
<pdfrwt beam="1">  1        2 0.12977837E+00 0.17739548E+03</pdfrwt>
<pdfrwt beam="2">  1       -2 0.75707781E-02 0.17739548E+03</pdfrwt>
<totfact> 0.33715956E+03</totfact>
</mgrwt>
</event>
<event>
 4    2  0.9452525E-001  0.1951389E+03  0.7546771E-02  0.1153906E+00
          2   -1    0    0  502    0  0.00000000000E+00  0.00000000000E+00  0.11518878265E+03  0.11518878265E+03  0.00000000000E+00 0.  1.
         -2   -1    0    0    0  501 -0.00000000000E+00 -0.00000000000E+00 -0.67698618417E+03  0.67698618417E+03  0.00000000000E+00 0. -1.
          6    1    1    2  502    0  0.85845222125E+02  0.27942357047E+02  0.24320123826E+01  0.19515402164E+03  0.17300000000E+03 0.  1.
         -6    1    1    2    0  501 -0.85845222125E+02 -0.27942357047E+02 -0.56422941390E+03  0.59702094519E+03  0.17300000000E+03 0. -1.
<mgrwt>
<rscale>  2 0.19513887E+03</rscale>
<asrwt>0</asrwt>
<pdfrwt beam="1">  1        2 0.17721351E-01 0.19513887E+03</pdfrwt>
<pdfrwt beam="2">  1       -2 0.10415172E+00 0.19513887E+03</pdfrwt>
<totfact> 0.25003552E+02</totfact>
</mgrwt>
</event>
<event>
 4    2  0.9452525E-001  0.1832879E+03  0.7546771E-02  0.1164658E+00
          1   -1    0    0  502    0  0.00000000000E+00  0.00000000000E+00  0.16462488346E+03  0.16462488346E+03  0.00000000000E+00 0. -1.
         -1   -1    0    0    0  501 -0.00000000000E+00 -0.00000000000E+00 -0.23397020654E+03  0.23397020654E+03  0.00000000000E+00 0.  1.
          6    1    1    2  502    0  0.16738890956E+02 -0.58183129770E+02 -0.10592223549E+03  0.21169314356E+03  0.17300000000E+03 0.  1.
         -6    1    1    2    0  501 -0.16738890956E+02  0.58183129770E+02  0.36576912405E+02  0.18690194644E+03  0.17300000000E+03 0. -1.
<mgrwt>
<rscale>  2 0.18328793E+03</rscale>
<asrwt>0</asrwt>
<pdfrwt beam="1">  1        1 0.25326905E-01 0.18328793E+03</pdfrwt>
<pdfrwt beam="2">  1       -1 0.35995416E-01 0.18328793E+03</pdfrwt>
<totfact> 0.13879637E+03</totfact>
</mgrwt>
</event>
<event>
 4    2  0.9452525E-001  0.1934107E+03  0.7546771E-02  0.1155421E+00
         -1   -1    0    0    0  501 -0.00000000000E+00  0.00000000000E+00  0.15744739882E+03  0.15744739882E+03  0.00000000000E+00 0. -1.
          1   -1    0    0  502    0  0.00000000000E+00 -0.00000000000E+00 -0.56611408482E+03  0.56611408482E+03  0.00000000000E+00 0.  1.
          6    1    1    2  502    0  0.11247011694E+02  0.85745034507E+02 -0.47993257362E+03  0.51743886734E+03  0.17300000000E+03 0.  1.
         -6    1    1    2    0  501 -0.11247011694E+02 -0.85745034507E+02  0.71265887617E+02  0.20612261631E+03  0.17300000000E+03 0. -1.
<mgrwt>
<rscale>  2 0.19341072E+03</rscale>
<asrwt>0</asrwt>
<pdfrwt beam="1">  1        1 0.87094474E-01 0.19341072E+03</pdfrwt>
<pdfrwt beam="2">  1       -1 0.24222677E-01 0.19341072E+03</pdfrwt>
<totfact> 0.56466231E+02</totfact>
</mgrwt>
</event>
<event>
 4    2  0.9452525E-001  0.1852639E+03  0.7546771E-02  0.1162804E+00
          3   -1    0    0  502    0  0.00000000000E+00  0.00000000000E+00  0.32390324261E+03  0.32390324261E+03  0.00000000000E+00 0. -1.
         -3   -1    0    0    0  501 -0.00000000000E+00 -0.00000000000E+00 -0.10677273284E+03  0.10677273284E+03  0.00000000000E+00 0.  1.
          6    1    1    2  502    0 -0.63642525882E+02  0.18529811721E+02  0.12728329233E+03  0.22477491303E+03  0.17300000000E+03 0. -1.
         -6    1    1    2    0  501  0.63642525882E+02 -0.18529811721E+02  0.89847217436E+02  0.20590106242E+03  0.17300000000E+03 0.  1.
<mgrwt>
<rscale>  2 0.18526393E+03</rscale>
<asrwt>0</asrwt>
<pdfrwt beam="1">  1        3 0.49831268E-01 0.18526393E+03</pdfrwt>
<pdfrwt beam="2">  1       -3 0.16426574E-01 0.18526393E+03</pdfrwt>
<totfact> 0.30896917E+02</totfact>
</mgrwt>
</event>
<event>
 4    2  0.9452525E-001  0.2290796E+03  0.7546771E-02  0.1127289E+00
          1   -1    0    0  502    0  0.00000000000E+00  0.00000000000E+00  0.18261984930E+04  0.18261984930E+04  0.00000000000E+00 0. -1.
         -1   -1    0    0    0  501 -0.00000000000E+00 -0.00000000000E+00 -0.28861453910E+02  0.28861453910E+02  0.00000000000E+00 0.  1.
          6    1    1    2  502    0  0.14332528689E+03  0.44791944240E+02  0.95984507974E+03  0.98680293536E+03  0.17300000000E+03 0.  1.
         -6    1    1    2    0  501 -0.14332528689E+03 -0.44791944240E+02  0.83749195930E+03  0.86825701151E+03  0.17300000000E+03 0. -1.
<mgrwt>
<rscale>  2 0.22907958E+03</rscale>
<asrwt>0</asrwt>
<pdfrwt beam="1">  1        1 0.28095352E+00 0.22907958E+03</pdfrwt>
<pdfrwt beam="2">  1       -1 0.44402251E-02 0.22907958E+03</pdfrwt>
<totfact> 0.92383113E+02</totfact>
</mgrwt>
</event>
<event>
 4    2  0.9452525E-001  0.1819405E+03  0.7546771E-02  0.1165938E+00
         -2   -1    0    0    0  501 -0.00000000000E+00  0.00000000000E+00  0.53053802296E+02  0.53053802296E+02  0.00000000000E+00 0.  1.
          2   -1    0    0  502    0  0.00000000000E+00 -0.00000000000E+00 -0.63479539252E+03  0.63479539252E+03  0.00000000000E+00 0. -1.
          6    1    1    2  502    0  0.53179210638E+02  0.18582830460E+02 -0.24589447025E+03  0.30588631962E+03  0.17300000000E+03 0.  1.
         -6    1    1    2    0  501 -0.53179210638E+02 -0.18582830460E+02 -0.33584711998E+03  0.38196287520E+03  0.17300000000E+03 0. -1.
<mgrwt>
<rscale>  2 0.18194051E+03</rscale>
<asrwt>0</asrwt>
<pdfrwt beam="1">  1        2 0.97660834E-01 0.18194051E+03</pdfrwt>
<pdfrwt beam="2">  1       -2 0.81621231E-02 0.18194051E+03</pdfrwt>
<totfact> 0.42485453E+03</totfact>
</mgrwt>
</event>
<event>
 4    2  0.9452525E-001  0.1981002E+03  0.7546771E-02  0.1151352E+00
          1   -1    0    0  502    0  0.00000000000E+00  0.00000000000E+00  0.23796987820E+04  0.23796987820E+04  0.00000000000E+00 0.  1.
         -1   -1    0    0    0  501 -0.00000000000E+00 -0.00000000000E+00 -0.16497863434E+02  0.16497863434E+02  0.00000000000E+00 0. -1.
          6    1    1    2  502    0  0.51735030982E+02  0.81475021310E+02  0.12059776839E+04  0.12221398720E+04  0.17300000000E+03 0.  1.
         -6    1    1    2    0  501 -0.51735030982E+02 -0.81475021310E+02  0.11572232346E+04  0.11740567734E+04  0.17300000000E+03 0. -1.
<mgrwt>
<rscale>  2 0.19810021E+03</rscale>
<asrwt>0</asrwt>
<pdfrwt beam="1">  1        1 0.36610723E+00 0.19810021E+03</pdfrwt>
<pdfrwt beam="2">  1       -1 0.25381347E-02 0.19810021E+03</pdfrwt>
<totfact> 0.92792621E+02</totfact>
</mgrwt>
</event>
<event>
 4    2  0.9452525E-001  0.2885100E+03  0.7546771E-02  0.1091130E+00
         -1   -1    0    0    0  501 -0.00000000000E+00  0.00000000000E+00  0.14409515420E+04  0.14409515420E+04  0.00000000000E+00 0.  1.
          1   -1    0    0  502    0  0.00000000000E+00 -0.00000000000E+00 -0.81905536041E+02  0.81905536041E+02  0.00000000000E+00 0. -1.
          6    1    1    2  502    0 -0.61569598759E+02  0.22252683838E+03  0.26615489627E+03  0.39252571648E+03  0.17300000000E+03 0. -1.
         -6    1    1    2    0  501  0.61569598759E+02 -0.22252683838E+03  0.10928911097E+04  0.11303313616E+04  0.17300000000E+03 0.  1.
<mgrwt>
<rscale>  2 0.28850998E+03</rscale>
<asrwt>0</asrwt>
<pdfrwt beam="1">  1        1 0.12600853E-01 0.28850998E+03</pdfrwt>
<pdfrwt beam="2">  1       -1 0.22168483E+00 0.28850998E+03</pdfrwt>
<totfact> 0.56502740E+01</totfact>
</mgrwt>
</event>
<event>
 4    2  0.9452525E-001  0.3237337E+03  0.7546771E-02  0.1073944E+00
          2   -1    0    0  502    0  0.00000000000E+00  0.00000000000E+00  0.49130120741E+03  0.49130120741E+03  0.00000000000E+00 0. -1.
         -2   -1    0    0    0  501 -0.00000000000E+00 -0.00000000000E+00 -0.22898363552E+03  0.22898363552E+03  0.00000000000E+00 0.  1.
          6    1    1    2  502    0 -0.22336098963E+03 -0.15806441206E+03  0.22535713048E+03  0.39444812879E+03  0.17300000000E+03 0.  1.
         -6    1    1    2    0  501  0.22336098963E+03  0.15806441206E+03  0.36960441407E+02  0.32583671413E+03  0.17300000000E+03 0. -1.
<mgrwt>
<rscale>  2 0.32373367E+03</rscale>
<asrwt>0</asrwt>
<pdfrwt beam="1">  1        2 0.75584801E-01 0.32373367E+03</pdfrwt>
<pdfrwt beam="2">  1       -2 0.35228252E-01 0.32373367E+03</pdfrwt>
<totfact> 0.48361651E+02</totfact>
</mgrwt>
</event>
<event>
 4    2  0.9452525E-001  0.1794946E+03  0.7546771E-02  0.1168293E+00
          1   -1    0    0  502    0  0.00000000000E+00  0.00000000000E+00  0.19878963946E+04  0.19878963946E+04  0.00000000000E+00 0. -1.
         -1   -1    0    0    0  501 -0.00000000000E+00 -0.00000000000E+00 -0.18289106991E+02  0.18289106991E+02  0.00000000000E+00 0.  1.
          6    1    1    2  502    0 -0.24925828050E+02  0.40841245271E+02  0.64637131495E+03  0.67083096306E+03  0.17300000000E+03 0.  1.
         -6    1    1    2    0  501  0.24925828050E+02 -0.40841245271E+02  0.13232359727E+04  0.13353545385E+04  0.17300000000E+03 0. -1.
<mgrwt>
<rscale>  2 0.17949458E+03</rscale>
<asrwt>0</asrwt>
<pdfrwt beam="1">  1        1 0.30583004E+00 0.17949458E+03</pdfrwt>
<pdfrwt beam="2">  1       -1 0.28137103E-02 0.17949458E+03</pdfrwt>
<totfact> 0.14327679E+03</totfact>
</mgrwt>
</event>
<event>
 4    2  0.9452525E-001  0.2268013E+03  0.7546771E-02  0.1128912E+00
          2   -1    0    0  502    0  0.00000000000E+00  0.00000000000E+00  0.84259562012E+03  0.84259562012E+03  0.00000000000E+00 0.  1.
         -2   -1    0    0    0  501 -0.00000000000E+00 -0.00000000000E+00 -0.85871177699E+02  0.85871177699E+02  0.00000000000E+00 0. -1.
          6    1    1    2  502    0 -0.13745450763E+03  0.51147663429E+02  0.62796008569E+03  0.66766211092E+03  0.17300000000E+03 0.  1.
         -6    1    1    2    0  501  0.13745450763E+03 -0.51147663429E+02  0.12876435673E+03  0.26080468689E+03  0.17300000000E+03 0. -1.
<mgrwt>
<rscale>  2 0.22680129E+03</rscale>
<asrwt>0</asrwt>
<pdfrwt beam="1">  1        2 0.12963009E+00 0.22680129E+03</pdfrwt>
<pdfrwt beam="2">  1       -2 0.13210951E-01 0.22680129E+03</pdfrwt>
<totfact> 0.14008542E+03</totfact>
</mgrwt>
</event>
<event>
 4    2  0.9452525E-001  0.1917132E+03  0.7546771E-02  0.1156925E+00
         -2   -1    0    0    0  501 -0.00000000000E+00  0.00000000000E+00  0.46107660527E+02  0.46107660527E+02  0.00000000000E+00 0.  1.
          2   -1    0    0  502    0  0.00000000000E+00 -0.00000000000E+00 -0.84254282156E+03  0.84254282156E+03  0.00000000000E+00 0. -1.
          6    1    1    2  502    0  0.82598816250E+02 -0.15490918559E+01 -0.50136946255E+03  0.53677304525E+03  0.17300000000E+03 0.  1.
         -6    1    1    2    0  501 -0.82598816250E+02  0.15490918559E+01 -0.29506569848E+03  0.35187743683E+03  0.17300000000E+03 0. -1.
<mgrwt>
<rscale>  2 0.19171323E+03</rscale>
<asrwt>0</asrwt>
<pdfrwt beam="1">  1        2 0.12962196E+00 0.19171323E+03</pdfrwt>
<pdfrwt beam="2">  1       -2 0.70934871E-02 0.19171323E+03</pdfrwt>
<totfact> 0.37428172E+03</totfact>
</mgrwt>
</event>
<event>
 4    2  0.9452525E-001  0.3705076E+03  0.7546771E-02  0.1054499E+00
          1   -1    0    0  502    0  0.00000000000E+00  0.00000000000E+00  0.72118411364E+03  0.72118411364E+03  0.00000000000E+00 0. -1.
         -1   -1    0    0    0  501 -0.00000000000E+00 -0.00000000000E+00 -0.29675978568E+03  0.29675978568E+03  0.00000000000E+00 0.  1.
          6    1    1    2  502    0  0.20360760832E+03  0.25669202563E+03  0.51699216831E+03  0.63604776258E+03  0.17300000000E+03 0. -1.
         -6    1    1    2    0  501 -0.20360760832E+03 -0.25669202563E+03 -0.92567840357E+02  0.38189613674E+03  0.17300000000E+03 0.  1.
<mgrwt>
<rscale>  2 0.37050756E+03</rscale>
<asrwt>0</asrwt>
<pdfrwt beam="1">  1        1 0.11095140E+00 0.37050756E+03</pdfrwt>
<pdfrwt beam="2">  1       -1 0.45655352E-01 0.37050756E+03</pdfrwt>
<totfact> 0.13065841E+02</totfact>
</mgrwt>
</event>
<event>
 4    2  0.9452525E-001  0.2160034E+03  0.7546771E-02  0.1136898E+00
          1   -1    0    0  502    0  0.00000000000E+00  0.00000000000E+00  0.31381132680E+03  0.31381132680E+03  0.00000000000E+00 0.  1.
         -1   -1    0    0    0  501 -0.00000000000E+00 -0.00000000000E+00 -0.30958671035E+03  0.30958671035E+03  0.00000000000E+00 0. -1.
          6    1    1    2  502    0 -0.11474405629E+03 -0.59684757296E+02  0.22682694206E+03  0.31322185484E+03  0.17300000000E+03 0.  1.
         -6    1    1    2    0  501  0.11474405629E+03  0.59684757296E+02 -0.22260232561E+03  0.31017618231E+03  0.17300000000E+03 0. -1.
<mgrwt>
<rscale>  2 0.21600340E+03</rscale>
<asrwt>0</asrwt>
<pdfrwt beam="1">  1        1 0.48278666E-01 0.21600340E+03</pdfrwt>
<pdfrwt beam="2">  1       -1 0.47628725E-01 0.21600340E+03</pdfrwt>
<totfact> 0.37544256E+02</totfact>
</mgrwt>
</event>
<event>
 4    2  0.9452525E-001  0.1886628E+03  0.7546771E-02  0.1159673E+00
         -2   -1    0    0    0  501 -0.00000000000E+00  0.00000000000E+00  0.53720163162E+02  0.53720163162E+02  0.00000000000E+00 0.  1.
          2   -1    0    0  502    0  0.00000000000E+00 -0.00000000000E+00 -0.91073999897E+03  0.91073999897E+03  0.00000000000E+00 0. -1.
          6    1    1    2  502    0  0.45832919444E+02 -0.59699128627E+02 -0.17678438465E+03  0.25854663239E+03  0.17300000000E+03 0.  1.
         -6    1    1    2    0  501 -0.45832919444E+02  0.59699128627E+02 -0.68023545116E+03  0.70591352974E+03  0.17300000000E+03 0. -1.
<mgrwt>
<rscale>  2 0.18866277E+03</rscale>
<asrwt>0</asrwt>
<pdfrwt beam="1">  1        2 0.14011385E+00 0.18866277E+03</pdfrwt>
<pdfrwt beam="2">  1       -2 0.82646404E-02 0.18866277E+03</pdfrwt>
<totfact> 0.26652709E+03</totfact>
</mgrwt>
</event>
<event>
 4    2  0.9452525E-001  0.1731525E+03  0.7546771E-02  0.1174600E+00
          2   -1    0    0  502    0  0.00000000000E+00  0.00000000000E+00  0.76145811080E+02  0.76145811080E+02  0.00000000000E+00 0. -1.
         -2   -1    0    0    0  501 -0.00000000000E+00 -0.00000000000E+00 -0.42070713535E+03  0.42070713535E+03  0.00000000000E+00 0.  1.
          6    1    1    2  502    0  0.69443147552E+01 -0.21338510497E+01 -0.23517508050E+03  0.29204296827E+03  0.17300000000E+03 0.  1.
         -6    1    1    2    0  501 -0.69443147552E+01  0.21338510497E+01 -0.10938624377E+03  0.20480997816E+03  0.17300000000E+03 0. -1.
<mgrwt>
<rscale>  2 0.17315247E+03</rscale>
<asrwt>0</asrwt>
<pdfrwt beam="1">  1        2 0.11714740E-01 0.17315247E+03</pdfrwt>
<pdfrwt beam="2">  1       -2 0.64724174E-01 0.17315247E+03</pdfrwt>
<totfact> 0.11686337E+03</totfact>
</mgrwt>
</event>
<event>
 4    2  0.9452525E-001  0.1782630E+03  0.7546771E-02  0.1169495E+00
          2   -1    0    0  502    0  0.00000000000E+00  0.00000000000E+00  0.23184676864E+04  0.23184676864E+04  0.00000000000E+00 0.  1.
         -2   -1    0    0    0  501 -0.00000000000E+00 -0.00000000000E+00 -0.20677282858E+02  0.20677282858E+02  0.00000000000E+00 0. -1.
          6    1    1    2  502    0 -0.66568199702E+01 -0.42477953078E+02  0.18279837285E+04  0.18366551668E+04  0.17300000000E+03 0.  1.
         -6    1    1    2    0  501  0.66568199702E+01  0.42477953078E+02  0.46980667505E+03  0.50248980255E+03  0.17300000000E+03 0. -1.
<mgrwt>
<rscale>  2 0.17826298E+03</rscale>
<asrwt>0</asrwt>
<pdfrwt beam="1">  1        2 0.35668713E+00 0.17826298E+03</pdfrwt>
<pdfrwt beam="2">  1       -2 0.31811223E-02 0.17826298E+03</pdfrwt>
<totfact> 0.19689434E+03</totfact>
</mgrwt>
</event>
<event>
 4    2  0.9452525E-001  0.1804566E+03  0.7546771E-02  0.1167362E+00
          1   -1    0    0  502    0  0.00000000000E+00  0.00000000000E+00  0.21586755418E+03  0.21586755418E+03  0.00000000000E+00 0.  1.
         -1   -1    0    0    0  501 -0.00000000000E+00 -0.00000000000E+00 -0.16464181915E+03  0.16464181915E+03  0.00000000000E+00 0. -1.
          6    1    1    2  502    0 -0.51323566953E+02  0.12118196867E+01 -0.29443339571E+02  0.18284279389E+03  0.17300000000E+03 0. -1.
         -6    1    1    2    0  501  0.51323566953E+02 -0.12118196867E+01  0.80669074607E+02  0.19766657945E+03  0.17300000000E+03 0.  1.
<mgrwt>
<rscale>  2 0.18045658E+03</rscale>
<asrwt>0</asrwt>
<pdfrwt beam="1">  1        1 0.33210393E-01 0.18045658E+03</pdfrwt>
<pdfrwt beam="2">  1       -1 0.25329510E-01 0.18045658E+03</pdfrwt>
<totfact> 0.17900949E+03</totfact>
</mgrwt>
</event>
<event>
 4    2  0.9452525E-001  0.4424129E+03  0.7546771E-02  0.1030009E+00
         -2   -1    0    0    0  501 -0.00000000000E+00  0.00000000000E+00  0.31409069524E+03  0.31409069524E+03  0.00000000000E+00 0. -1.
          2   -1    0    0  502    0  0.00000000000E+00 -0.00000000000E+00 -0.96204745403E+03  0.96204745403E+03  0.00000000000E+00 0.  1.
          6    1    1    2  502    0  0.14667520956E+03 -0.37985068770E+03 -0.70267930741E+03  0.83035376263E+03  0.17300000000E+03 0.  1.
         -6    1    1    2    0  501 -0.14667520956E+03  0.37985068770E+03  0.54722548625E+02  0.44578438664E+03  0.17300000000E+03 0. -1.
<mgrwt>
<rscale>  2 0.44241289E+03</rscale>
<asrwt>0</asrwt>
<pdfrwt beam="1">  1        2 0.14800730E+00 0.44241289E+03</pdfrwt>
<pdfrwt beam="2">  1       -2 0.48321645E-01 0.44241289E+03</pdfrwt>
<totfact> 0.11260430E+02</totfact>
</mgrwt>
</event>
<event>
 4    2  0.9452525E-001  0.1928040E+03  0.7546771E-02  0.1155956E+00
         -1   -1    0    0    0  501 -0.00000000000E+00  0.00000000000E+00  0.90400050124E+02  0.90400050124E+02  0.00000000000E+00 0. -1.
          1   -1    0    0  502    0  0.00000000000E+00 -0.00000000000E+00 -0.47196805016E+03  0.47196805016E+03  0.00000000000E+00 0.  1.
          6    1    1    2  502    0  0.72969991257E+02 -0.43814939714E+02 -0.89896416185E+02  0.21273160134E+03  0.17300000000E+03 0. -1.
         -6    1    1    2    0  501 -0.72969991257E+02  0.43814939714E+02 -0.29167158385E+03  0.34963649894E+03  0.17300000000E+03 0.  1.
<mgrwt>
<rscale>  2 0.19280396E+03</rscale>
<asrwt>0</asrwt>
<pdfrwt beam="1">  1        1 0.72610469E-01 0.19280396E+03</pdfrwt>
<pdfrwt beam="2">  1       -1 0.13907700E-01 0.19280396E+03</pdfrwt>
<totfact> 0.17556881E+03</totfact>
</mgrwt>
</event>
<event>
 4    2  0.9452525E-001  0.2448609E+03  0.7546771E-02  0.1116596E+00
         -2   -1    0    0    0  501 -0.00000000000E+00  0.00000000000E+00  0.26142333416E+02  0.26142333416E+02  0.00000000000E+00 0. -1.
          2   -1    0    0  502    0  0.00000000000E+00 -0.00000000000E+00 -0.23039308268E+04  0.23039308268E+04  0.00000000000E+00 0.  1.
          6    1    1    2  502    0 -0.15168584662E+03  0.83781070136E+02 -0.10604205826E+04  0.10883237918E+04  0.17300000000E+03 0.  1.
         -6    1    1    2    0  501  0.15168584662E+03 -0.83781070136E+02 -0.12173679108E+04  0.12417493684E+04  0.17300000000E+03 0.  1.
<mgrwt>
<rscale>  2 0.24486091E+03</rscale>
<asrwt>0</asrwt>
<pdfrwt beam="1">  1        2 0.35445090E+00 0.24486091E+03</pdfrwt>
<pdfrwt beam="2">  1       -2 0.40218975E-02 0.24486091E+03</pdfrwt>
<totfact> 0.14004275E+03</totfact>
</mgrwt>
</event>
<event>
 4    2  0.9452525E-001  0.1899176E+03  0.7546771E-02  0.1158536E+00
         -1   -1    0    0    0  501 -0.00000000000E+00  0.00000000000E+00  0.13980403395E+04  0.13980403395E+04  0.00000000000E+00 0. -1.
          1   -1    0    0  502    0  0.00000000000E+00 -0.00000000000E+00 -0.17963647781E+03  0.17963647781E+03  0.00000000000E+00 0.  1.
          6    1    1    2  502    0  0.74379756105E+02 -0.24644637166E+02 -0.12079525898E+03  0.22507821052E+03  0.17300000000E+03 0.  1.
         -6    1    1    2    0  501 -0.74379756105E+02  0.24644637166E+02  0.13391991207E+04  0.13525986068E+04  0.17300000000E+03 0. -1.
<mgrwt>
<rscale>  2 0.18991763E+03</rscale>
<asrwt>0</asrwt>
<pdfrwt beam="1">  1        1 0.27636382E-01 0.18991763E+03</pdfrwt>
<pdfrwt beam="2">  1       -1 0.21508312E+00 0.18991763E+03</pdfrwt>
<totfact> 0.23102110E+01</totfact>
</mgrwt>
</event>
<event>
 4    2  0.9452525E-001  0.2827325E+03  0.7546771E-02  0.1094206E+00
         -1   -1    0    0    0  501 -0.00000000000E+00  0.00000000000E+00  0.27645406724E+03  0.27645406724E+03  0.00000000000E+00 0.  1.
          1   -1    0    0  502    0  0.00000000000E+00 -0.00000000000E+00 -0.29249603665E+03  0.29249603665E+03  0.00000000000E+00 0. -1.
          6    1    1    2  502    0  0.13266005408E+03 -0.18002777686E+03  0.22388944238E+02  0.28361762148E+03  0.17300000000E+03 0. -1.
         -6    1    1    2    0  501 -0.13266005408E+03  0.18002777686E+03 -0.38430913652E+02  0.28533248240E+03  0.17300000000E+03 0. -1.
<mgrwt>
<rscale>  2 0.28273254E+03</rscale>
<asrwt>0</asrwt>
<pdfrwt beam="1">  1        1 0.44999390E-01 0.28273254E+03</pdfrwt>
<pdfrwt beam="2">  1       -1 0.42531395E-01 0.28273254E+03</pdfrwt>
<totfact> 0.50241816E+02</totfact>
</mgrwt>
</event>
<event>
 4    2  0.9452525E-001  0.1922509E+03  0.7546771E-02  0.1156447E+00
          1   -1    0    0  502    0  0.00000000000E+00  0.00000000000E+00  0.42352123331E+03  0.42352123331E+03  0.00000000000E+00 0. -1.
         -1   -1    0    0    0  501 -0.00000000000E+00 -0.00000000000E+00 -0.89107726010E+02  0.89107726010E+02  0.00000000000E+00 0.  1.
          6    1    1    2  502    0  0.83452130954E+02  0.81940425081E+01  0.13039056407E+03  0.23229743798E+03  0.17300000000E+03 0. -1.
         -6    1    1    2    0  501 -0.83452130954E+02 -0.81940425081E+01  0.20402294323E+03  0.28033152135E+03  0.17300000000E+03 0. -1.
<mgrwt>
<rscale>  2 0.19225088E+03</rscale>
<asrwt>0</asrwt>
<pdfrwt beam="1">  1        1 0.65157112E-01 0.19225088E+03</pdfrwt>
<pdfrwt beam="2">  1       -1 0.13708881E-01 0.19225088E+03</pdfrwt>
<totfact> 0.20660490E+03</totfact>
</mgrwt>
</event>
<event>
 4    2  0.9452525E-001  0.1772604E+03  0.7546771E-02  0.1170481E+00
         -1   -1    0    0    0  501 -0.00000000000E+00  0.00000000000E+00  0.49467928621E+03  0.49467928621E+03  0.00000000000E+00 0. -1.
          1   -1    0    0  502    0  0.00000000000E+00 -0.00000000000E+00 -0.77054763670E+02  0.77054763670E+02  0.00000000000E+00 0.  1.
          6    1    1    2  502    0  0.36533591294E+02  0.12551591626E+02  0.32862832049E+03  0.37338695582E+03  0.17300000000E+03 0. -1.
         -6    1    1    2    0  501 -0.36533591294E+02 -0.12551591626E+02  0.88996202051E+02  0.19834709407E+03  0.17300000000E+03 0.  1.
<mgrwt>
<rscale>  2 0.17726039E+03</rscale>
<asrwt>0</asrwt>
<pdfrwt beam="1">  1        1 0.11854579E-01 0.17726039E+03</pdfrwt>
<pdfrwt beam="2">  1       -1 0.76104504E-01 0.17726039E+03</pdfrwt>
<totfact> 0.91636902E+02</totfact>
</mgrwt>
</event>
<event>
 4    2  0.9452525E-001  0.2084018E+03  0.7546771E-02  0.1142838E+00
          2   -1    0    0  502    0  0.00000000000E+00  0.00000000000E+00  0.71815752171E+03  0.71815752171E+03  0.00000000000E+00 0.  1.
         -2   -1    0    0    0  501 -0.00000000000E+00 -0.00000000000E+00 -0.62499027164E+02  0.62499027164E+02  0.00000000000E+00 0. -1.
          6    1    1    2  502    0  0.11115090785E+03  0.33879052930E+02  0.39805416063E+03  0.44930883514E+03  0.17300000000E+03 0. -1.
         -6    1    1    2    0  501 -0.11115090785E+03 -0.33879052930E+02  0.25760433391E+03  0.33134771373E+03  0.17300000000E+03 0.  1.
<mgrwt>
<rscale>  2 0.20840181E+03</rscale>
<asrwt>0</asrwt>
<pdfrwt beam="1">  1        2 0.11048577E+00 0.20840181E+03</pdfrwt>
<pdfrwt beam="2">  1       -2 0.96152355E-02 0.20840181E+03</pdfrwt>
<totfact> 0.28478325E+03</totfact>
</mgrwt>
</event>
<event>
 4    2  0.9452525E-001  0.2395021E+03  0.7546771E-02  0.1120125E+00
          2   -1    0    0  502    0  0.00000000000E+00  0.00000000000E+00  0.18958520059E+04  0.18958520059E+04  0.00000000000E+00 0. -1.
         -2   -1    0    0    0  501 -0.00000000000E+00 -0.00000000000E+00 -0.31034797951E+02  0.31034797951E+02  0.00000000000E+00 0.  1.
          6    1    1    2  502    0 -0.15529562400E+03  0.57580781814E+02  0.10850099634E+04  0.11111291095E+04  0.17300000000E+03 0. -1.
         -6    1    1    2    0  501  0.15529562400E+03 -0.57580781814E+02  0.77980724458E+03  0.81575769440E+03  0.17300000000E+03 0.  1.
<mgrwt>
<rscale>  2 0.23950214E+03</rscale>
<asrwt>0</asrwt>
<pdfrwt beam="1">  1        2 0.29166945E+00 0.23950214E+03</pdfrwt>
<pdfrwt beam="2">  1       -2 0.47745858E-02 0.23950214E+03</pdfrwt>
<totfact> 0.17739401E+03</totfact>
</mgrwt>
</event>
<event>
 4    2  0.9452525E-001  0.2381390E+03  0.7546771E-02  0.1121039E+00
          1   -1    0    0  502    0  0.00000000000E+00  0.00000000000E+00  0.12557647300E+04  0.12557647300E+04  0.00000000000E+00 0.  1.
         -1   -1    0    0    0  501 -0.00000000000E+00 -0.00000000000E+00 -0.46636959337E+02  0.46636959337E+02  0.00000000000E+00 0. -1.
          6    1    1    2  502    0  0.11504439939E+03 -0.11638718410E+03  0.48867252575E+03  0.54360926029E+03  0.17300000000E+03 0. -1.
         -6    1    1    2    0  501 -0.11504439939E+03  0.11638718410E+03  0.72045524495E+03  0.75879242908E+03  0.17300000000E+03 0.  1.
<mgrwt>
<rscale>  2 0.23813901E+03</rscale>
<asrwt>0</asrwt>
<pdfrwt beam="1">  1        1 0.19319455E+00 0.23813901E+03</pdfrwt>
<pdfrwt beam="2">  1       -1 0.71749178E-02 0.23813901E+03</pdfrwt>
<totfact> 0.10678299E+03</totfact>
</mgrwt>
</event>
<event>
 4    2  0.9452525E-001  0.2801993E+03  0.7546771E-02  0.1095580E+00
          2   -1    0    0  502    0  0.00000000000E+00  0.00000000000E+00  0.29023322362E+03  0.29023322362E+03  0.00000000000E+00 0.  1.
         -2   -1    0    0    0  501 -0.00000000000E+00 -0.00000000000E+00 -0.32880245339E+03  0.32880245339E+03  0.00000000000E+00 0. -1.
          6    1    1    2  502    0 -0.23187095841E+02 -0.21919174255E+03  0.11103677399E+03  0.30139811976E+03  0.17300000000E+03 0.  1.
         -6    1    1    2    0  501  0.23187095841E+02  0.21919174255E+03 -0.14960600377E+03  0.31763755725E+03  0.17300000000E+03 0.  1.
<mgrwt>
<rscale>  2 0.28019932E+03</rscale>
<asrwt>0</asrwt>
<pdfrwt beam="1">  1        2 0.44651265E-01 0.28019932E+03</pdfrwt>
<pdfrwt beam="2">  1       -2 0.50584993E-01 0.28019932E+03</pdfrwt>
<totfact> 0.42733650E+02</totfact>
</mgrwt>
</event>
<event>
 4    2  0.9452525E-001  0.1919262E+03  0.7546771E-02  0.1156735E+00
          2   -1    0    0  502    0  0.00000000000E+00  0.00000000000E+00  0.45062236061E+04  0.45062236061E+04  0.00000000000E+00 0. -1.
         -2   -1    0    0    0  501 -0.00000000000E+00 -0.00000000000E+00 -0.85260463815E+01  0.85260463815E+01  0.00000000000E+00 0.  1.
          6    1    1    2  502    0  0.57148067556E+02 -0.60338730555E+02  0.27072906847E+04  0.27140852078E+04  0.17300000000E+03 0. -1.
         -6    1    1    2    0  501 -0.57148067556E+02  0.60338730555E+02  0.17904068750E+04  0.18006644446E+04  0.17300000000E+03 0.  1.
<mgrwt>
<rscale>  2 0.19192619E+03</rscale>
<asrwt>0</asrwt>
<pdfrwt beam="1">  1        2 0.69326327E+00 0.19192619E+03</pdfrwt>
<pdfrwt beam="2">  1       -2 0.13117030E-02 0.19192619E+03</pdfrwt>
<totfact> 0.24947201E+02</totfact>
</mgrwt>
</event>
<event>
 4    2  0.9452525E-001  0.2047063E+03  0.7546771E-02  0.1145828E+00
          2   -1    0    0  502    0  0.00000000000E+00  0.00000000000E+00  0.13195628868E+04  0.13195628868E+04  0.00000000000E+00 0. -1.
         -2   -1    0    0    0  501 -0.00000000000E+00 -0.00000000000E+00 -0.39556854162E+02  0.39556854162E+02  0.00000000000E+00 0.  1.
          6    1    1    2  502    0  0.56955117539E+02  0.93443944413E+02  0.94177221692E+03  0.96376323063E+03  0.17300000000E+03 0. -1.
         -6    1    1    2    0  501 -0.56955117539E+02 -0.93443944413E+02  0.33823381570E+03  0.39535651031E+03  0.17300000000E+03 0.  1.
<mgrwt>
<rscale>  2 0.20470627E+03</rscale>
<asrwt>0</asrwt>
<pdfrwt beam="1">  1        2 0.20300964E+00 0.20470627E+03</pdfrwt>
<pdfrwt beam="2">  1       -2 0.60856709E-02 0.20470627E+03</pdfrwt>
<totfact> 0.24744577E+03</totfact>
</mgrwt>
</event>
<event>
 4    2  0.9452525E-001  0.2070257E+03  0.7546771E-02  0.1143943E+00
         -2   -1    0    0    0  501 -0.00000000000E+00  0.00000000000E+00  0.57879765192E+02  0.57879765192E+02  0.00000000000E+00 0. -1.
          2   -1    0    0  502    0  0.00000000000E+00 -0.00000000000E+00 -0.75548441739E+03  0.75548441739E+03  0.00000000000E+00 0.  1.
          6    1    1    2  502    0 -0.59228286084E+01  0.11355858001E+03 -0.29151664049E+03  0.35754941292E+03  0.17300000000E+03 0. -1.
         -6    1    1    2    0  501  0.59228286084E+01 -0.11355858001E+03 -0.40608801171E+03  0.45581476967E+03  0.17300000000E+03 0.  1.
<mgrwt>
<rscale>  2 0.20702568E+03</rscale>
<asrwt>0</asrwt>
<pdfrwt beam="1">  1        2 0.11622837E+00 0.20702568E+03</pdfrwt>
<pdfrwt beam="2">  1       -2 0.89045793E-02 0.20702568E+03</pdfrwt>
<totfact> 0.30200850E+03</totfact>
</mgrwt>
</event>
<event>
 4    2  0.9452525E-001  0.2913148E+03  0.7546771E-02  0.1089665E+00
          1   -1    0    0  502    0  0.00000000000E+00  0.00000000000E+00  0.25091007127E+04  0.25091007127E+04  0.00000000000E+00 0. -1.
         -1   -1    0    0    0  501 -0.00000000000E+00 -0.00000000000E+00 -0.33838933963E+02  0.33838933963E+02  0.00000000000E+00 0.  1.
          6    1    1    2  502    0 -0.17641403635E+03 -0.15431597062E+03  0.12097034635E+04  0.12442856588E+04  0.17300000000E+03 0. -1.
         -6    1    1    2    0  501  0.17641403635E+03  0.15431597062E+03  0.12655583152E+04  0.12986539879E+04  0.17300000000E+03 0.  1.
<mgrwt>
<rscale>  2 0.29131483E+03</rscale>
<asrwt>0</asrwt>
<pdfrwt beam="1">  1        1 0.38601535E+00 0.29131483E+03</pdfrwt>
<pdfrwt beam="2">  1       -1 0.52059918E-02 0.29131483E+03</pdfrwt>
<totfact> 0.25777603E+02</totfact>
</mgrwt>
</event>
<event>
 4    2  0.9452525E-001  0.2472026E+03  0.7546771E-02  0.1115086E+00
          1   -1    0    0  502    0  0.00000000000E+00  0.00000000000E+00  0.10943936951E+04  0.10943936951E+04  0.00000000000E+00 0.  1.
         -1   -1    0    0    0  501 -0.00000000000E+00 -0.00000000000E+00 -0.14493382095E+03  0.14493382095E+03  0.00000000000E+00 0. -1.
          6    1    1    2  502    0 -0.81291865120E+02  0.15675380435E+03 -0.11116558398E+02  0.24745242044E+03  0.17300000000E+03 0. -1.
         -6    1    1    2    0  501  0.81291865120E+02 -0.15675380435E+03  0.96057643251E+03  0.99187509557E+03  0.17300000000E+03 0.  1.
<mgrwt>
<rscale>  2 0.24720259E+03</rscale>
<asrwt>0</asrwt>
<pdfrwt beam="1">  1        1 0.16836826E+00 0.24720259E+03</pdfrwt>
<pdfrwt beam="2">  1       -1 0.22297512E-01 0.24720259E+03</pdfrwt>
<totfact> 0.23237990E+02</totfact>
</mgrwt>
</event>
<event>
 4    2  0.9452525E-001  0.1756686E+03  0.7546771E-02  0.1172062E+00
         -1   -1    0    0    0  501 -0.00000000000E+00  0.00000000000E+00  0.40325613527E+02  0.40325613527E+02  0.00000000000E+00 0. -1.
          1   -1    0    0  502    0  0.00000000000E+00 -0.00000000000E+00 -0.77819474633E+03  0.77819474633E+03  0.00000000000E+00 0.  1.
          6    1    1    2  502    0  0.29832263900E+02  0.63622988071E+01 -0.42170504001E+03  0.45683102301E+03  0.17300000000E+03 0. -1.
         -6    1    1    2    0  501 -0.29832263900E+02 -0.63622988071E+01 -0.31616409279E+03  0.36168933684E+03  0.17300000000E+03 0. -1.
<mgrwt>
<rscale>  2 0.17566856E+03</rscale>
<asrwt>0</asrwt>
<pdfrwt beam="1">  1        1 0.11972227E+00 0.17566856E+03</pdfrwt>
<pdfrwt beam="2">  1       -1 0.62039407E-02 0.17566856E+03</pdfrwt>
<totfact> 0.30163440E+03</totfact>
</mgrwt>
</event>
<event>
 4    2  0.9452525E-001  0.1953836E+03  0.7546771E-02  0.1153693E+00
         -2   -1    0    0    0  501 -0.00000000000E+00  0.00000000000E+00  0.62360177483E+02  0.62360177483E+02  0.00000000000E+00 0.  1.
          2   -1    0    0  502    0  0.00000000000E+00 -0.00000000000E+00 -0.64626681623E+03  0.64626681623E+03  0.00000000000E+00 0. -1.
          6    1    1    2  502    0  0.78364640343E+02  0.45877483154E+02 -0.21056422677E+03  0.28724911473E+03  0.17300000000E+03 0. -1.
         -6    1    1    2    0  501 -0.78364640343E+02 -0.45877483154E+02 -0.37334241197E+03  0.42137787898E+03  0.17300000000E+03 0. -1.
<mgrwt>
<rscale>  2 0.19538362E+03</rscale>
<asrwt>0</asrwt>
<pdfrwt beam="1">  1        2 0.99425669E-01 0.19538362E+03</pdfrwt>
<pdfrwt beam="2">  1       -2 0.95938730E-02 0.19538362E+03</pdfrwt>
<totfact> 0.32367681E+03</totfact>
</mgrwt>
</event>
<event>
 4    2  0.9452525E-001  0.1932496E+03  0.7546771E-02  0.1155563E+00
         -2   -1    0    0    0  501 -0.00000000000E+00  0.00000000000E+00  0.26118357329E+02  0.26118357329E+02  0.00000000000E+00 0.  1.
          2   -1    0    0  502    0  0.00000000000E+00 -0.00000000000E+00 -0.14303980833E+04  0.14303980833E+04  0.00000000000E+00 0. -1.
          6    1    1    2  502    0  0.38770035934E+02 -0.76897808148E+02 -0.68791202657E+03  0.71454065306E+03  0.17300000000E+03 0.  1.
         -6    1    1    2    0  501 -0.38770035934E+02  0.76897808148E+02 -0.71636769941E+03  0.74197578757E+03  0.17300000000E+03 0.  1.
<mgrwt>
<rscale>  2 0.19324955E+03</rscale>
<asrwt>0</asrwt>
<pdfrwt beam="1">  1        2 0.22006120E+00 0.19324955E+03</pdfrwt>
<pdfrwt beam="2">  1       -2 0.40182096E-02 0.19324955E+03</pdfrwt>
<totfact> 0.40411281E+03</totfact>
</mgrwt>
</event>
<event>
 4    2  0.9452525E-001  0.2070420E+03  0.7546771E-02  0.1143930E+00
         -2   -1    0    0    0  501 -0.00000000000E+00  0.00000000000E+00  0.25940653938E+02  0.25940653938E+02  0.00000000000E+00 0.  1.
          2   -1    0    0  502    0  0.00000000000E+00 -0.00000000000E+00 -0.17791524042E+04  0.17791524042E+04  0.00000000000E+00 0. -1.
          6    1    1    2  502    0  0.97723291429E+00 -0.11373840476E+03 -0.11174334175E+04  0.11364522965E+04  0.17300000000E+03 0.  1.
         -6    1    1    2    0  501 -0.97723291429E+00  0.11373840476E+03 -0.63577833284E+03  0.66864076170E+03  0.17300000000E+03 0.  1.
<mgrwt>
<rscale>  2 0.20704198E+03</rscale>
<asrwt>0</asrwt>
<pdfrwt beam="1">  1        2 0.27371581E+00 0.20704198E+03</pdfrwt>
<pdfrwt beam="2">  1       -2 0.39908690E-02 0.20704198E+03</pdfrwt>
<totfact> 0.26790829E+03</totfact>
</mgrwt>
</event>
<event>
 4    2  0.9452525E-001  0.2327815E+03  0.7546771E-02  0.1124697E+00
         -1   -1    0    0    0  501 -0.00000000000E+00  0.00000000000E+00  0.43533970369E+02  0.43533970369E+02  0.00000000000E+00 0. -1.
          1   -1    0    0  502    0  0.00000000000E+00 -0.00000000000E+00 -0.12566140194E+04  0.12566140194E+04  0.00000000000E+00 0.  1.
          6    1    1    2  502    0 -0.29794026690E+01  0.15572195950E+03 -0.54327072208E+03  0.59104169309E+03  0.17300000000E+03 0. -1.
         -6    1    1    2    0  501  0.29794026690E+01 -0.15572195950E+03 -0.66980932698E+03  0.70910629670E+03  0.17300000000E+03 0.  1.
<mgrwt>
<rscale>  2 0.23278145E+03</rscale>
<asrwt>0</asrwt>
<pdfrwt beam="1">  1        1 0.19332525E+00 0.23278145E+03</pdfrwt>
<pdfrwt beam="2">  1       -1 0.66975333E-02 0.23278145E+03</pdfrwt>
<totfact> 0.11842453E+03</totfact>
</mgrwt>
</event>
<event>
 4    2  0.9452525E-001  0.2026884E+03  0.7546771E-02  0.1147490E+00
         -1   -1    0    0    0  501 -0.00000000000E+00  0.00000000000E+00  0.12365747081E+03  0.12365747081E+03  0.00000000000E+00 0.  1.
          1   -1    0    0  502    0  0.00000000000E+00 -0.00000000000E+00 -0.34560847988E+03  0.34560847988E+03  0.00000000000E+00 0. -1.
          6    1    1    2  502    0 -0.65284475402E+02 -0.83015127440E+02 -0.64809787376E+02  0.21279775058E+03  0.17300000000E+03 0.  1.
         -6    1    1    2    0  501  0.65284475402E+02  0.83015127440E+02 -0.15714122169E+03  0.25646820011E+03  0.17300000000E+03 0.  1.
<mgrwt>
<rscale>  2 0.20268837E+03</rscale>
<asrwt>0</asrwt>
<pdfrwt beam="1">  1        1 0.53170536E-01 0.20268837E+03</pdfrwt>
<pdfrwt beam="2">  1       -1 0.19024226E-01 0.20268837E+03</pdfrwt>
<totfact> 0.15904458E+03</totfact>
</mgrwt>
</event>
<event>
 4    2  0.9452525E-001  0.1815212E+03  0.7546771E-02  0.1166339E+00
         -2   -1    0    0    0  501 -0.00000000000E+00  0.00000000000E+00  0.26624293994E+02  0.26624293994E+02  0.00000000000E+00 0. -1.
          2   -1    0    0  502    0  0.00000000000E+00 -0.00000000000E+00 -0.19507953979E+04  0.19507953979E+04  0.00000000000E+00 0.  1.
          6    1    1    2  502    0 -0.38877610336E+02 -0.38852181109E+02 -0.15599053620E+04  0.15704313735E+04  0.17300000000E+03 0.  1.
         -6    1    1    2    0  501  0.38877610336E+02  0.38852181109E+02 -0.36426574193E+03  0.40698831839E+03  0.17300000000E+03 0. -1.
<mgrwt>
<rscale>  2 0.18152124E+03</rscale>
<asrwt>0</asrwt>
<pdfrwt beam="1">  1        2 0.30012230E+00 0.18152124E+03</pdfrwt>
<pdfrwt beam="2">  1       -2 0.40960462E-02 0.18152124E+03</pdfrwt>
<totfact> 0.21010850E+03</totfact>
</mgrwt>
</event>
<event>
 4    2  0.9452525E-001  0.1913321E+03  0.7546771E-02  0.1157265E+00
          1   -1    0    0  502    0  0.00000000000E+00  0.00000000000E+00  0.78525999240E+03  0.78525999240E+03  0.00000000000E+00 0.  1.
         -1   -1    0    0    0  501 -0.00000000000E+00 -0.00000000000E+00 -0.52772112529E+02  0.52772112529E+02  0.00000000000E+00 0. -1.
          6    1    1    2  502    0 -0.33066731512E+02 -0.74736608789E+02  0.50932390428E+03  0.54407610579E+03  0.17300000000E+03 0.  1.
         -6    1    1    2    0  501  0.33066731512E+02  0.74736608789E+02  0.22316397560E+03  0.29395599914E+03  0.17300000000E+03 0. -1.
<mgrwt>
<rscale>  2 0.19133209E+03</rscale>
<asrwt>0</asrwt>
<pdfrwt beam="1">  1        1 0.12080922E+00 0.19133209E+03</pdfrwt>
<pdfrwt beam="2">  1       -1 0.81187871E-02 0.19133209E+03</pdfrwt>
<totfact> 0.19850002E+03</totfact>
</mgrwt>
</event>
<event>
 4    2  0.9452525E-001  0.2954869E+03  0.7546771E-02  0.1087519E+00
          2   -1    0    0  502    0  0.00000000000E+00  0.00000000000E+00  0.47667846312E+03  0.47667846312E+03  0.00000000000E+00 0. -1.
         -2   -1    0    0    0  501 -0.00000000000E+00 -0.00000000000E+00 -0.50789785444E+03  0.50789785444E+03  0.00000000000E+00 0.  1.
          6    1    1    2  502    0 -0.18913480020E+03 -0.14700865669E+03 -0.40924307694E+03  0.50476966412E+03  0.17300000000E+03 0.  1.
         -6    1    1    2    0  501  0.18913480020E+03  0.14700865669E+03  0.37802368562E+03  0.47980665344E+03  0.17300000000E+03 0. -1.
<mgrwt>
<rscale>  2 0.29548692E+03</rscale>
<asrwt>0</asrwt>
<pdfrwt beam="1">  1        2 0.73335148E-01 0.29548692E+03</pdfrwt>
<pdfrwt beam="2">  1       -2 0.78138132E-01 0.29548692E+03</pdfrwt>
<totfact> 0.99359656E+01</totfact>
</mgrwt>
</event>
<event>
 4    2  0.9452525E-001  0.3536254E+03  0.7546771E-02  0.1061137E+00
         -2   -1    0    0    0  501 -0.00000000000E+00  0.00000000000E+00  0.11878358506E+03  0.11878358506E+03  0.00000000000E+00 0.  1.
          2   -1    0    0  502    0  0.00000000000E+00 -0.00000000000E+00 -0.10844738562E+04  0.10844738562E+04  0.00000000000E+00 0. -1.
          6    1    1    2  502    0 -0.82368666610E+02  0.29721590410E+03 -0.37996603023E+03  0.51906172564E+03  0.17300000000E+03 0. -1.
         -6    1    1    2    0  501  0.82368666610E+02 -0.29721590410E+03 -0.58572424090E+03  0.68419571562E+03  0.17300000000E+03 0. -1.
<mgrwt>
<rscale>  2 0.35362535E+03</rscale>
<asrwt>0</asrwt>
<pdfrwt beam="1">  1        2 0.16684213E+00 0.35362535E+03</pdfrwt>
<pdfrwt beam="2">  1       -2 0.18274398E-01 0.35362535E+03</pdfrwt>
<totfact> 0.57149572E+02</totfact>
</mgrwt>
</event>
<event>
 4    2  0.9452525E-001  0.1748811E+03  0.7546771E-02  0.1172851E+00
         -2   -1    0    0    0  501 -0.00000000000E+00  0.00000000000E+00  0.64865664433E+02  0.64865664433E+02  0.00000000000E+00 0. -1.
          2   -1    0    0  502    0  0.00000000000E+00 -0.00000000000E+00 -0.53721032647E+03  0.53721032647E+03  0.00000000000E+00 0.  1.
          6    1    1    2  502    0  0.25286785429E+02 -0.38681811178E+01 -0.13087787574E+03  0.21843168887E+03  0.17300000000E+03 0. -1.
         -6    1    1    2    0  501 -0.25286785429E+02  0.38681811178E+01 -0.34146678630E+03  0.38364430204E+03  0.17300000000E+03 0. -1.
<mgrwt>
<rscale>  2 0.17488106E+03</rscale>
<asrwt>0</asrwt>
<pdfrwt beam="1">  1        2 0.82647742E-01 0.17488106E+03</pdfrwt>
<pdfrwt beam="2">  1       -2 0.99793330E-02 0.17488106E+03</pdfrwt>
<totfact> 0.37456345E+03</totfact>
</mgrwt>
</event>
<event>
 4    2  0.9452525E-001  0.1911596E+03  0.7546771E-02  0.1157420E+00
         -2   -1    0    0    0  501 -0.00000000000E+00  0.00000000000E+00  0.11953386243E+04  0.11953386243E+04  0.00000000000E+00 0. -1.
          2   -1    0    0  502    0  0.00000000000E+00 -0.00000000000E+00 -0.42161925746E+02  0.42161925746E+02  0.00000000000E+00 0.  1.
          6    1    1    2  502    0  0.43928175434E+02  0.68434645995E+02  0.25215506611E+03  0.31642402364E+03  0.17300000000E+03 0.  1.
         -6    1    1    2    0  501 -0.43928175434E+02 -0.68434645995E+02  0.90102163240E+03  0.92107652636E+03  0.17300000000E+03 0. -1.
<mgrwt>
<rscale>  2 0.19115958E+03</rscale>
<asrwt>0</asrwt>
<pdfrwt beam="1">  1        2 0.64864510E-02 0.19115958E+03</pdfrwt>
<pdfrwt beam="2">  1       -2 0.18389822E+00 0.19115958E+03</pdfrwt>
<totfact> 0.20408562E+02</totfact>
</mgrwt>
</event>
<event>
 4    2  0.9452525E-001  0.2404867E+03  0.7546771E-02  0.1119469E+00
          2   -1    0    0  502    0  0.00000000000E+00  0.00000000000E+00  0.64622074727E+03  0.64622074727E+03  0.00000000000E+00 0. -1.
         -2   -1    0    0    0  501 -0.00000000000E+00 -0.00000000000E+00 -0.89667942013E+02  0.89667942013E+02  0.00000000000E+00 0.  1.
          6    1    1    2  502    0  0.74995087775E+02  0.14926690181E+03  0.26214241745E+03  0.35574220749E+03  0.17300000000E+03 0.  1.
         -6    1    1    2    0  501 -0.74995087775E+02 -0.14926690181E+03  0.29441038781E+03  0.38014648179E+03  0.17300000000E+03 0. -1.
<mgrwt>
<rscale>  2 0.24048674E+03</rscale>
<asrwt>0</asrwt>
<pdfrwt beam="1">  1        2 0.99418573E-01 0.24048674E+03</pdfrwt>
<pdfrwt beam="2">  1       -2 0.13795068E-01 0.24048674E+03</pdfrwt>
<totfact> 0.18130118E+03</totfact>
</mgrwt>
</event>
<event>
 4    2  0.9452525E-001  0.1834882E+03  0.7546771E-02  0.1164469E+00
         -1   -1    0    0    0  501 -0.00000000000E+00  0.00000000000E+00  0.68735484772E+02  0.68735484772E+02  0.00000000000E+00 0. -1.
          1   -1    0    0  502    0  0.00000000000E+00 -0.00000000000E+00 -0.52541330409E+03  0.52541330409E+03  0.00000000000E+00 0.  1.
          6    1    1    2  502    0 -0.57087695332E+02 -0.21907316265E+02 -0.15101640508E+03  0.23764235747E+03  0.17300000000E+03 0. -1.
         -6    1    1    2    0  501  0.57087695332E+02  0.21907316265E+02 -0.30566141424E+03  0.35650643139E+03  0.17300000000E+03 0.  1.
<mgrwt>
<rscale>  2 0.18348824E+03</rscale>
<asrwt>0</asrwt>
<pdfrwt beam="1">  1        1 0.80832818E-01 0.18348824E+03</pdfrwt>
<pdfrwt beam="2">  1       -1 0.10574690E-01 0.18348824E+03</pdfrwt>
<totfact> 0.23321070E+03</totfact>
</mgrwt>
</event>
<event>
 4    2  0.9452525E-001  0.2332514E+03  0.7546771E-02  0.1124372E+00
          1   -1    0    0  502    0  0.00000000000E+00  0.00000000000E+00  0.11527996387E+03  0.11527996387E+03  0.00000000000E+00 0. -1.
         -1   -1    0    0    0  501 -0.00000000000E+00 -0.00000000000E+00 -0.96492350844E+03  0.96492350844E+03  0.00000000000E+00 0.  1.
          6    1    1    2  502    0 -0.85343092153E+02 -0.13112507022E+03 -0.81086994355E+03  0.84375132164E+03  0.17300000000E+03 0.  1.
         -6    1    1    2    0  501  0.85343092153E+02  0.13112507022E+03 -0.38773601025E+02  0.23645215067E+03  0.17300000000E+03 0. -1.
<mgrwt>
<rscale>  2 0.23325143E+03</rscale>
<asrwt>0</asrwt>
<pdfrwt beam="1">  1        1 0.17735378E-01 0.23325143E+03</pdfrwt>
<pdfrwt beam="2">  1       -1 0.14844978E+00 0.23325143E+03</pdfrwt>
<totfact> 0.11721439E+02</totfact>
</mgrwt>
</event>
<event>
 4    2  0.9452525E-001  0.2013327E+03  0.7546771E-02  0.1148619E+00
          2   -1    0    0  502    0  0.00000000000E+00  0.00000000000E+00  0.23573730117E+03  0.23573730117E+03  0.00000000000E+00 0.  1.
         -2   -1    0    0    0  501 -0.00000000000E+00 -0.00000000000E+00 -0.29181666083E+03  0.29181666083E+03  0.00000000000E+00 0. -1.
          6    1    1    2  502    0 -0.38220910020E+02  0.95629488494E+02 -0.19709643533E+03  0.28174783380E+03  0.17300000000E+03 0. -1.
         -6    1    1    2    0  501  0.38220910020E+02 -0.95629488494E+02  0.14101707566E+03  0.24580612820E+03  0.17300000000E+03 0.  1.
<mgrwt>
<rscale>  2 0.20133265E+03</rscale>
<asrwt>0</asrwt>
<pdfrwt beam="1">  1        2 0.36267277E-01 0.20133265E+03</pdfrwt>
<pdfrwt beam="2">  1       -2 0.44894871E-01 0.20133265E+03</pdfrwt>
<totfact> 0.67692931E+02</totfact>
</mgrwt>
</event>
<event>
 4    2  0.9452525E-001  0.1963694E+03  0.7546771E-02  0.1152839E+00
         -2   -1    0    0    0  501 -0.00000000000E+00  0.00000000000E+00  0.11117617478E+02  0.11117617478E+02  0.00000000000E+00 0.  1.
          2   -1    0    0  502    0  0.00000000000E+00 -0.00000000000E+00 -0.34943528002E+04  0.34943528002E+04  0.00000000000E+00 0. -1.
          6    1    1    2  502    0  0.42493695433E+02  0.82620949708E+02 -0.18925143090E+04  0.19026747870E+04  0.17300000000E+03 0. -1.
         -6    1    1    2    0  501 -0.42493695433E+02 -0.82620949708E+02 -0.15907208737E+04  0.16027956306E+04  0.17300000000E+03 0. -1.
<mgrwt>
<rscale>  2 0.19636939E+03</rscale>
<asrwt>0</asrwt>
<pdfrwt beam="1">  1        2 0.53759380E+00 0.19636939E+03</pdfrwt>
<pdfrwt beam="2">  1       -2 0.17103993E-02 0.19636939E+03</pdfrwt>
<totfact> 0.10139877E+03</totfact>
</mgrwt>
</event>
<event>
 4    2  0.9452525E-001  0.3707473E+03  0.7546771E-02  0.1054408E+00
          2   -1    0    0  502    0  0.00000000000E+00  0.00000000000E+00  0.59364161390E+03  0.59364161390E+03  0.00000000000E+00 0. -1.
         -2   -1    0    0    0  501 -0.00000000000E+00 -0.00000000000E+00 -0.32070686850E+03  0.32070686850E+03  0.00000000000E+00 0.  1.
          6    1    1    2  502    0 -0.12692371839E+03  0.30234904127E+03 -0.10459088919E+03  0.38521789567E+03  0.17300000000E+03 0.  1.
         -6    1    1    2    0  501  0.12692371839E+03 -0.30234904127E+03  0.37752563459E+03  0.52913058673E+03  0.17300000000E+03 0. -1.
<mgrwt>
<rscale>  2 0.37074732E+03</rscale>
<asrwt>0</asrwt>
<pdfrwt beam="1">  1        2 0.91329479E-01 0.37074732E+03</pdfrwt>
<pdfrwt beam="2">  1       -2 0.49339518E-01 0.37074732E+03</pdfrwt>
<totfact> 0.20164801E+02</totfact>
</mgrwt>
</event>
<event>
 4    2  0.9452525E-001  0.1771468E+03  0.7546771E-02  0.1170593E+00
          2   -1    0    0  502    0  0.00000000000E+00  0.00000000000E+00  0.76444171065E+03  0.76444171065E+03  0.00000000000E+00 0.  1.
         -2   -1    0    0    0  501 -0.00000000000E+00 -0.00000000000E+00 -0.41056810786E+02  0.41056810786E+02  0.00000000000E+00 0. -1.
          6    1    1    2  502    0  0.21101971053E+02 -0.31728632312E+02  0.36653604960E+03  0.40709909721E+03  0.17300000000E+03 0.  1.
         -6    1    1    2    0  501 -0.21101971053E+02  0.31728632312E+02  0.35684885026E+03  0.39839942423E+03  0.17300000000E+03 0.  1.
<mgrwt>
<rscale>  2 0.17714683E+03</rscale>
<asrwt>0</asrwt>
<pdfrwt beam="1">  1        2 0.11760641E+00 0.17714683E+03</pdfrwt>
<pdfrwt beam="2">  1       -2 0.63164330E-02 0.17714683E+03</pdfrwt>
<totfact> 0.50444081E+03</totfact>
</mgrwt>
</event>
<event>
 4    2  0.9452525E-001  0.3265113E+03  0.7546771E-02  0.1072691E+00
         -2   -1    0    0    0  501 -0.00000000000E+00  0.00000000000E+00  0.53883625349E+02  0.53883625349E+02  0.00000000000E+00 0. -1.
          2   -1    0    0  502    0  0.00000000000E+00 -0.00000000000E+00 -0.19798940196E+04  0.19798940196E+04  0.00000000000E+00 0.  1.
          6    1    1    2  502    0  0.25907172048E+03 -0.97788035122E+02 -0.93618515478E+03  0.99148993953E+03  0.17300000000E+03 0.  1.
         -6    1    1    2    0  501 -0.25907172048E+03  0.97788035122E+02 -0.98982523945E+03  0.10422877054E+04  0.17300000000E+03 0. -1.
<mgrwt>
<rscale>  2 0.32651134E+03</rscale>
<asrwt>0</asrwt>
<pdfrwt beam="1">  1        2 0.30459910E+00 0.32651134E+03</pdfrwt>
<pdfrwt beam="2">  1       -2 0.82897881E-02 0.32651134E+03</pdfrwt>
<totfact> 0.67610482E+02</totfact>
</mgrwt>
</event>
<event>
 4    2  0.9452525E-001  0.2048067E+03  0.7546771E-02  0.1145746E+00
         -1   -1    0    0    0  501 -0.00000000000E+00  0.00000000000E+00  0.60283619101E+02  0.60283619101E+02  0.00000000000E+00 0.  1.
          1   -1    0    0  502    0  0.00000000000E+00 -0.00000000000E+00 -0.69805126391E+03  0.69805126391E+03  0.00000000000E+00 0. -1.
          6    1    1    2  502    0  0.10563183074E+03  0.29303660926E+02 -0.34038121230E+03  0.39724697343E+03  0.17300000000E+03 0. -1.
         -6    1    1    2    0  501 -0.10563183074E+03 -0.29303660926E+02 -0.29738643251E+03  0.36108790959E+03  0.17300000000E+03 0. -1.
<mgrwt>
<rscale>  2 0.20480671E+03</rscale>
<asrwt>0</asrwt>
<pdfrwt beam="1">  1        1 0.10739251E+00 0.20480671E+03</pdfrwt>
<pdfrwt beam="2">  1       -1 0.92744026E-02 0.20480671E+03</pdfrwt>
<totfact> 0.19299100E+03</totfact>
</mgrwt>
</event>
<event>
 4    2  0.9452525E-001  0.2631594E+03  0.7546771E-02  0.1105260E+00
         -2   -1    0    0    0  501 -0.00000000000E+00  0.00000000000E+00  0.39695898857E+02  0.39695898857E+02  0.00000000000E+00 0. -1.
          2   -1    0    0  502    0  0.00000000000E+00 -0.00000000000E+00 -0.18835206419E+04  0.18835206419E+04  0.00000000000E+00 0.  1.
          6    1    1    2  502    0 -0.73053383362E+02 -0.18435586885E+03 -0.66074476888E+03  0.71122185906E+03  0.17300000000E+03 0.  1.
         -6    1    1    2    0  501  0.73053383362E+02  0.18435586885E+03 -0.11830799741E+04  0.12119946817E+04  0.17300000000E+03 0. -1.
<mgrwt>
<rscale>  2 0.26315943E+03</rscale>
<asrwt>0</asrwt>
<pdfrwt beam="1">  1        2 0.28977244E+00 0.26315943E+03</pdfrwt>
<pdfrwt beam="2">  1       -2 0.61070608E-02 0.26315943E+03</pdfrwt>
<totfact> 0.12331571E+03</totfact>
</mgrwt>
</event>
<event>
 4    2  0.9452525E-001  0.1732840E+03  0.7546771E-02  0.1174466E+00
         -1   -1    0    0    0  501 -0.00000000000E+00  0.00000000000E+00  0.39406609187E+02  0.39406609187E+02  0.00000000000E+00 0. -1.
          1   -1    0    0  502    0  0.00000000000E+00 -0.00000000000E+00 -0.76245418099E+03  0.76245418099E+03  0.00000000000E+00 0.  1.
          6    1    1    2  502    0  0.79792630627E+01  0.58877082630E+01 -0.37144554498E+03  0.40987696524E+03  0.17300000000E+03 0.  1.
         -6    1    1    2    0  501 -0.79792630627E+01 -0.58877082630E+01 -0.35160202683E+03  0.39198382494E+03  0.17300000000E+03 0. -1.
<mgrwt>
<rscale>  2 0.17328397E+03</rscale>
<asrwt>0</asrwt>
<pdfrwt beam="1">  1        1 0.11730063E+00 0.17328397E+03</pdfrwt>
<pdfrwt beam="2">  1       -1 0.60625560E-02 0.17328397E+03</pdfrwt>
<totfact> 0.32182297E+03</totfact>
</mgrwt>
</event>
<event>
 4    2  0.9452525E-001  0.2314749E+03  0.7546771E-02  0.1125606E+00
          1   -1    0    0  502    0  0.00000000000E+00  0.00000000000E+00  0.31724756191E+03  0.31724756191E+03  0.00000000000E+00 0. -1.
         -1   -1    0    0    0  501 -0.00000000000E+00 -0.00000000000E+00 -0.20954352485E+03  0.20954352485E+03  0.00000000000E+00 0.  1.
          6    1    1    2  502    0  0.14609780336E+03 -0.48031866090E+02 -0.62161560901E+02  0.23967621484E+03  0.17300000000E+03 0.  1.
         -6    1    1    2    0  501 -0.14609780336E+03  0.48031866090E+02  0.16986559796E+03  0.28711487192E+03  0.17300000000E+03 0.  1.
<mgrwt>
<rscale>  2 0.23147490E+03</rscale>
<asrwt>0</asrwt>
<pdfrwt beam="1">  1        1 0.48807317E-01 0.23147490E+03</pdfrwt>
<pdfrwt beam="2">  1       -1 0.32237465E-01 0.23147490E+03</pdfrwt>
<totfact> 0.73859831E+02</totfact>
</mgrwt>
</event>
<event>
 4    2  0.9452525E-001  0.1974061E+03  0.7546771E-02  0.1151946E+00
          2   -1    0    0  502    0  0.00000000000E+00  0.00000000000E+00  0.99831161191E+02  0.99831161191E+02  0.00000000000E+00 0.  1.
         -2   -1    0    0    0  501 -0.00000000000E+00 -0.00000000000E+00 -0.39039760223E+03  0.39039760223E+03  0.00000000000E+00 0. -1.
          6    1    1    2  502    0 -0.15820675531E+01  0.95066733487E+02 -0.14796324005E+03  0.24670287222E+03  0.17300000000E+03 0. -1.
         -6    1    1    2    0  501  0.15820675531E+01 -0.95066733487E+02 -0.14260320098E+03  0.24352589120E+03  0.17300000000E+03 0. -1.
<mgrwt>
<rscale>  2 0.19740615E+03</rscale>
<asrwt>0</asrwt>
<pdfrwt beam="1">  1        2 0.15358640E-01 0.19740615E+03</pdfrwt>
<pdfrwt beam="2">  1       -2 0.60061170E-01 0.19740615E+03</pdfrwt>
<totfact> 0.99156927E+02</totfact>
</mgrwt>
</event>
<event>
 4    2  0.9452525E-001  0.1762902E+03  0.7546771E-02  0.1171442E+00
          1   -1    0    0  502    0  0.00000000000E+00  0.00000000000E+00  0.49136937246E+03  0.49136937246E+03  0.00000000000E+00 0.  1.
         -1   -1    0    0    0  501 -0.00000000000E+00 -0.00000000000E+00 -0.74570985983E+02  0.74570985983E+02  0.00000000000E+00 0. -1.
          6    1    1    2  502    0 -0.82845056427E+01  0.32872379118E+02  0.98135520405E+02  0.20176423545E+03  0.17300000000E+03 0. -1.
         -6    1    1    2    0  501  0.82845056427E+01 -0.32872379118E+02  0.31866286607E+03  0.36417612299E+03  0.17300000000E+03 0.  1.
<mgrwt>
<rscale>  2 0.17629018E+03</rscale>
<asrwt>0</asrwt>
<pdfrwt beam="1">  1        1 0.75595286E-01 0.17629018E+03</pdfrwt>
<pdfrwt beam="2">  1       -1 0.11472460E-01 0.17629018E+03</pdfrwt>
<totfact> 0.22439919E+03</totfact>
</mgrwt>
</event>
<event>
 4    2  0.9452525E-001  0.1936355E+03  0.7546771E-02  0.1155223E+00
         -2   -1    0    0    0  501 -0.00000000000E+00  0.00000000000E+00  0.21192526115E+02  0.21192526115E+02  0.00000000000E+00 0.  1.
          2   -1    0    0  502    0  0.00000000000E+00 -0.00000000000E+00 -0.25380841609E+04  0.25380841609E+04  0.00000000000E+00 0. -1.
          6    1    1    2  502    0  0.18760497442E+02  0.84933772979E+02 -0.19627380530E+04  0.19722665557E+04  0.17300000000E+03 0. -1.
         -6    1    1    2    0  501 -0.18760497442E+02 -0.84933772979E+02 -0.55415358182E+03  0.58701013134E+03  0.17300000000E+03 0.  1.
<mgrwt>
<rscale>  2 0.19363549E+03</rscale>
<asrwt>0</asrwt>
<pdfrwt beam="1">  1        2 0.39047453E+00 0.19363549E+03</pdfrwt>
<pdfrwt beam="2">  1       -2 0.32603883E-02 0.19363549E+03</pdfrwt>
<totfact> 0.14443386E+03</totfact>
</mgrwt>
</event>
<event>
 4    2  0.9452525E-001  0.1998847E+03  0.7546771E-02  0.1149836E+00
          2   -1    0    0  502    0  0.00000000000E+00  0.00000000000E+00  0.10226507164E+04  0.10226507164E+04  0.00000000000E+00 0.  1.
         -2   -1    0    0    0  501 -0.00000000000E+00 -0.00000000000E+00 -0.46194168947E+02  0.46194168947E+02  0.00000000000E+00 0. -1.
          6    1    1    2  502    0 -0.99760943128E+02  0.85238729322E+01  0.69811735370E+03  0.72616922389E+03  0.17300000000E+03 0.  1.
         -6    1    1    2    0  501  0.99760943128E+02 -0.85238729322E+01  0.27833919379E+03  0.34267566150E+03  0.17300000000E+03 0. -1.
<mgrwt>
<rscale>  2 0.19988472E+03</rscale>
<asrwt>0</asrwt>
<pdfrwt beam="1">  1        2 0.15733086E+00 0.19988472E+03</pdfrwt>
<pdfrwt beam="2">  1       -2 0.71067960E-02 0.19988472E+03</pdfrwt>
<totfact> 0.28768295E+03</totfact>
</mgrwt>
</event>
<event>
 4    2  0.9452525E-001  0.2182254E+03  0.7546771E-02  0.1135213E+00
          2   -1    0    0  502    0  0.00000000000E+00  0.00000000000E+00  0.20511937724E+04  0.20511937724E+04  0.00000000000E+00 0. -1.
         -2   -1    0    0    0  501 -0.00000000000E+00 -0.00000000000E+00 -0.28241381121E+02  0.28241381121E+02  0.00000000000E+00 0.  1.
          6    1    1    2  502    0 -0.12482410263E+03  0.45959628197E+02  0.14500254538E+04  0.14663547185E+04  0.17300000000E+03 0. -1.
         -6    1    1    2    0  501  0.12482410263E+03 -0.45959628197E+02  0.57292693750E+03  0.61308043496E+03  0.17300000000E+03 0.  1.
<mgrwt>
<rscale>  2 0.21822544E+03</rscale>
<asrwt>0</asrwt>
<pdfrwt beam="1">  1        2 0.31556816E+00 0.21822544E+03</pdfrwt>
<pdfrwt beam="2">  1       -2 0.43448295E-02 0.21822544E+03</pdfrwt>
<totfact> 0.17001280E+03</totfact>
</mgrwt>
</event>
<event>
 4    2  0.9452525E-001  0.1762193E+03  0.7546771E-02  0.1171513E+00
         -2   -1    0    0    0  501 -0.00000000000E+00  0.00000000000E+00  0.68607798255E+02  0.68607798255E+02  0.00000000000E+00 0. -1.
          2   -1    0    0  502    0  0.00000000000E+00 -0.00000000000E+00 -0.13657608021E+04  0.13657608021E+04  0.00000000000E+00 0.  1.
          6    1    1    2  502    0  0.14173454826E+02  0.30386496257E+02 -0.12350014660E+04  0.12475102593E+04  0.17300000000E+03 0.  1.
         -6    1    1    2    0  501 -0.14173454826E+02 -0.30386496257E+02 -0.62151537854E+02  0.18685834109E+03  0.17300000000E+03 0. -1.
<mgrwt>
<rscale>  2 0.17621926E+03</rscale>
<asrwt>0</asrwt>
<pdfrwt beam="1">  1        2 0.21011703E+00 0.17621926E+03</pdfrwt>
<pdfrwt beam="2">  1       -2 0.10555047E-01 0.17621926E+03</pdfrwt>
<totfact> 0.99101019E+02</totfact>
</mgrwt>
</event>
<event>
 4    2  0.9452525E-001  0.1781907E+03  0.7546771E-02  0.1169566E+00
         -2   -1    0    0    0  501 -0.00000000000E+00  0.00000000000E+00  0.25891863350E+02  0.25891863350E+02  0.00000000000E+00 0. -1.
          2   -1    0    0  502    0  0.00000000000E+00 -0.00000000000E+00 -0.12519919486E+04  0.12519919486E+04  0.00000000000E+00 0.  1.
          6    1    1    2  502    0  0.39883473062E+02  0.15239136840E+02 -0.52157123926E+03  0.55117010110E+03  0.17300000000E+03 0.  1.
         -6    1    1    2    0  501 -0.39883473062E+02 -0.15239136840E+02 -0.70452884595E+03  0.72671371081E+03  0.17300000000E+03 0.  1.
<mgrwt>
<rscale>  2 0.17819069E+03</rscale>
<asrwt>0</asrwt>
<pdfrwt beam="1">  1        2 0.19261413E+00 0.17819069E+03</pdfrwt>
<pdfrwt beam="2">  1       -2 0.39833640E-02 0.17819069E+03</pdfrwt>
<totfact> 0.51069529E+03</totfact>
</mgrwt>
</event>
<event>
 4    2  0.9452525E-001  0.2079342E+03  0.7546771E-02  0.1143212E+00
         -2   -1    0    0    0  501 -0.00000000000E+00  0.00000000000E+00  0.27286339474E+02  0.27286339474E+02  0.00000000000E+00 0.  1.
          2   -1    0    0  502    0  0.00000000000E+00 -0.00000000000E+00 -0.22314614478E+04  0.22314614478E+04  0.00000000000E+00 0. -1.
          6    1    1    2  502    0 -0.15277835861E+02  0.11434255270E+03 -0.17101731287E+04  0.17227677620E+04  0.17300000000E+03 0. -1.
         -6    1    1    2    0  501  0.15277835861E+02 -0.11434255270E+03 -0.49400197961E+03  0.53598002526E+03  0.17300000000E+03 0.  1.
<mgrwt>
<rscale>  2 0.20793420E+03</rscale>
<asrwt>0</asrwt>
<pdfrwt beam="1">  1        2 0.34330191E+00 0.20793420E+03</pdfrwt>
<pdfrwt beam="2">  1       -2 0.41978966E-02 0.20793420E+03</pdfrwt>
<totfact> 0.14413920E+03</totfact>
</mgrwt>
</event>
<event>
 4    2  0.9452525E-001  0.1883676E+03  0.7546771E-02  0.1159942E+00
         -1   -1    0    0    0  501 -0.00000000000E+00  0.00000000000E+00  0.19317242836E+03  0.19317242836E+03  0.00000000000E+00 0. -1.
          1   -1    0    0  502    0  0.00000000000E+00 -0.00000000000E+00 -0.19048217759E+03  0.19048217759E+03  0.00000000000E+00 0.  1.
          6    1    1    2  502    0 -0.74498773888E+02  0.18112106921E+01 -0.34898792723E+02  0.19157315451E+03  0.17300000000E+03 0.  1.
         -6    1    1    2    0  501  0.74498773888E+02 -0.18112106921E+01  0.37589043496E+02  0.19208145144E+03  0.17300000000E+03 0.  1.
<mgrwt>
<rscale>  2 0.18836759E+03</rscale>
<asrwt>0</asrwt>
<pdfrwt beam="1">  1        1 0.29304950E-01 0.18836759E+03</pdfrwt>
<pdfrwt beam="2">  1       -1 0.29718835E-01 0.18836759E+03</pdfrwt>
<totfact> 0.16045007E+03</totfact>
</mgrwt>
</event>
<event>
 4    2  0.9452525E-001  0.1921320E+03  0.7546771E-02  0.1156552E+00
          1   -1    0    0  502    0  0.00000000000E+00  0.00000000000E+00  0.25204671631E+04  0.25204671631E+04  0.00000000000E+00 0. -1.
         -1   -1    0    0    0  501 -0.00000000000E+00 -0.00000000000E+00 -0.19785608464E+02  0.19785608464E+02  0.00000000000E+00 0.  1.
          6    1    1    2  502    0  0.83307477626E+02  0.67507622715E+01  0.18976892783E+04  0.19073907061E+04  0.17300000000E+03 0. -1.
         -6    1    1    2    0  501 -0.83307477626E+02 -0.67507622715E+01  0.60299227629E+03  0.63286206545E+03  0.17300000000E+03 0.  1.
<mgrwt>
<rscale>  2 0.19213201E+03</rscale>
<asrwt>0</asrwt>
<pdfrwt beam="1">  1        1 0.38776392E+00 0.19213201E+03</pdfrwt>
<pdfrwt beam="2">  1       -1 0.30439418E-02 0.19213201E+03</pdfrwt>
<totfact> 0.57510721E+02</totfact>
</mgrwt>
</event>
<event>
 4    2  0.9452525E-001  0.2280086E+03  0.7546771E-02  0.1128049E+00
          2   -1    0    0  502    0  0.00000000000E+00  0.00000000000E+00  0.68526715309E+02  0.68526715309E+02  0.00000000000E+00 0.  1.
         -2   -1    0    0    0  501 -0.00000000000E+00 -0.00000000000E+00 -0.86517594210E+03  0.86517594210E+03  0.00000000000E+00 0. -1.
          6    1    1    2  502    0 -0.78396136297E+02  0.12614667934E+03 -0.23451110148E+03  0.32708316314E+03  0.17300000000E+03 0.  1.
         -6    1    1    2    0  501  0.78396136297E+02 -0.12614667934E+03 -0.56213812532E+03  0.60661949427E+03  0.17300000000E+03 0. -1.
<mgrwt>
<rscale>  2 0.22800864E+03</rscale>
<asrwt>0</asrwt>
<pdfrwt beam="1">  1        2 0.10542572E-01 0.22800864E+03</pdfrwt>
<pdfrwt beam="2">  1       -2 0.13310398E+00 0.22800864E+03</pdfrwt>
<totfact> 0.25793417E+02</totfact>
</mgrwt>
</event>
<event>
 4    2  0.9452525E-001  0.2771691E+03  0.7546771E-02  0.1097245E+00
         -1   -1    0    0    0  501 -0.00000000000E+00  0.00000000000E+00  0.50298661770E+03  0.50298661770E+03  0.00000000000E+00 0. -1.
          1   -1    0    0  502    0  0.00000000000E+00 -0.00000000000E+00 -0.19531559542E+03  0.19531559542E+03  0.00000000000E+00 0.  1.
          6    1    1    2  502    0 -0.15124810458E+03 -0.15497653746E+03 -0.91918148775E+01  0.27732148450E+03  0.17300000000E+03 0.  1.
         -6    1    1    2    0  501  0.15124810458E+03  0.15497653746E+03  0.31686283716E+03  0.42098072863E+03  0.17300000000E+03 0. -1.
<mgrwt>
<rscale>  2 0.27716911E+03</rscale>
<asrwt>0</asrwt>
<pdfrwt beam="1">  1        1 0.30048553E-01 0.27716911E+03</pdfrwt>
<pdfrwt beam="2">  1       -1 0.77382556E-01 0.27716911E+03</pdfrwt>
<totfact> 0.26563020E+02</totfact>
</mgrwt>
</event>
<event>
 4    2  0.9452525E-001  0.3130713E+03  0.7546771E-02  0.1078883E+00
         -1   -1    0    0    0  501 -0.00000000000E+00  0.00000000000E+00  0.35954763194E+03  0.35954763194E+03  0.00000000000E+00 0. -1.
          1   -1    0    0  502    0  0.00000000000E+00 -0.00000000000E+00 -0.37590177973E+03  0.37590177973E+03  0.00000000000E+00 0.  1.
          6    1    1    2  502    0  0.22856595948E+03  0.12586600343E+03  0.18459045629E+03  0.36343814495E+03  0.17300000000E+03 0. -1.
         -6    1    1    2    0  501 -0.22856595948E+03 -0.12586600343E+03 -0.20094460408E+03  0.37201126671E+03  0.17300000000E+03 0.  1.
<mgrwt>
<rscale>  2 0.31307132E+03</rscale>
<asrwt>0</asrwt>
<pdfrwt beam="1">  1        1 0.57831043E-01 0.31307132E+03</pdfrwt>
<pdfrwt beam="2">  1       -1 0.55315020E-01 0.31307132E+03</pdfrwt>
<totfact> 0.22405065E+02</totfact>
</mgrwt>
</event>
<event>
 4    2  0.9452525E-001  0.1927127E+03  0.7546771E-02  0.1156037E+00
         -1   -1    0    0    0  501 -0.00000000000E+00  0.00000000000E+00  0.84604647512E+02  0.84604647512E+02  0.00000000000E+00 0.  1.
          1   -1    0    0  502    0  0.00000000000E+00 -0.00000000000E+00 -0.85583374707E+03  0.85583374707E+03  0.00000000000E+00 0. -1.
          6    1    1    2  502    0 -0.43673811182E+02 -0.72813460641E+02 -0.71379070869E+03  0.73934794086E+03  0.17300000000E+03 0. -1.
         -6    1    1    2    0  501  0.43673811182E+02  0.72813460641E+02 -0.57438390863E+02  0.20109045372E+03  0.17300000000E+03 0.  1.
<mgrwt>
<rscale>  2 0.19271274E+03</rscale>
<asrwt>0</asrwt>
<pdfrwt beam="1">  1        1 0.13166673E+00 0.19271274E+03</pdfrwt>
<pdfrwt beam="2">  1       -1 0.13016099E-01 0.19271274E+03</pdfrwt>
<totfact> 0.83928711E+02</totfact>
</mgrwt>
</event>
<event>
 4    2  0.9452525E-001  0.1777711E+03  0.7546771E-02  0.1169978E+00
         -2   -1    0    0    0  501 -0.00000000000E+00  0.00000000000E+00  0.33501358005E+03  0.33501358005E+03  0.00000000000E+00 0. -1.
          2   -1    0    0  502    0  0.00000000000E+00 -0.00000000000E+00 -0.97838999198E+02  0.97838999198E+02  0.00000000000E+00 0.  1.
          6    1    1    2  502    0 -0.17893596993E+02 -0.36788214193E+02  0.15956164734E+03  0.23887752682E+03  0.17300000000E+03 0. -1.
         -6    1    1    2    0  501  0.17893596993E+02  0.36788214193E+02  0.77612933513E+02  0.19397505243E+03  0.17300000000E+03 0.  1.
<mgrwt>
<rscale>  2 0.17777107E+03</rscale>
<asrwt>0</asrwt>
<pdfrwt beam="1">  1        2 0.15052154E-01 0.17777107E+03</pdfrwt>
<pdfrwt beam="2">  1       -2 0.51540550E-01 0.17777107E+03</pdfrwt>
<totfact> 0.13815172E+03</totfact>
</mgrwt>
</event>
<event>
 4    2  0.9452525E-001  0.3384957E+03  0.7546771E-02  0.1067438E+00
         -4   -1    0    0    0  501 -0.00000000000E+00  0.00000000000E+00  0.95024516589E+03  0.95024516589E+03  0.00000000000E+00 0.  1.
          4   -1    0    0  502    0  0.00000000000E+00 -0.00000000000E+00 -0.13603330599E+03  0.13603330599E+03  0.00000000000E+00 0. -1.
          6    1    1    2  502    0 -0.14802877443E+03 -0.25047516181E+03  0.22403577485E+03  0.40592037785E+03  0.17300000000E+03 0. -1.
         -6    1    1    2    0  501  0.14802877443E+03  0.25047516181E+03  0.59017608506E+03  0.68035809403E+03  0.17300000000E+03 0.  1.
<mgrwt>
<rscale>  2 0.33849568E+03</rscale>
<asrwt>0</asrwt>
<pdfrwt beam="1">  1        4 0.20928202E-01 0.33849568E+03</pdfrwt>
<pdfrwt beam="2">  1       -4 0.14619156E+00 0.33849568E+03</pdfrwt>
<totfact> 0.13007041E+01</totfact>
</mgrwt>
</event>
<event>
 4    2  0.9452525E-001  0.1779037E+03  0.7546771E-02  0.1169847E+00
          1   -1    0    0  502    0  0.00000000000E+00  0.00000000000E+00  0.17458858004E+03  0.17458858004E+03  0.00000000000E+00 0. -1.
         -1   -1    0    0    0  501 -0.00000000000E+00 -0.00000000000E+00 -0.18516042428E+03  0.18516042428E+03  0.00000000000E+00 0.  1.
          6    1    1    2  502    0  0.12367519315E+02  0.39595173421E+02  0.20747662942E+02  0.17910946041E+03  0.17300000000E+03 0. -1.
         -6    1    1    2    0  501 -0.12367519315E+02 -0.39595173421E+02 -0.31319507188E+02  0.18063954391E+03  0.17300000000E+03 0.  1.
<mgrwt>
<rscale>  2 0.17790372E+03</rscale>
<asrwt>0</asrwt>
<pdfrwt beam="1">  1        1 0.26859782E-01 0.17790372E+03</pdfrwt>
<pdfrwt beam="2">  1       -1 0.28486219E-01 0.17790372E+03</pdfrwt>
<totfact> 0.19196957E+03</totfact>
</mgrwt>
</event>
<event>
 4    2  0.9452525E-001  0.2657134E+03  0.7546771E-02  0.1103758E+00
          2   -1    0    0  502    0  0.00000000000E+00  0.00000000000E+00  0.15426709698E+04  0.15426709698E+04  0.00000000000E+00 0.  1.
         -2   -1    0    0    0  501 -0.00000000000E+00 -0.00000000000E+00 -0.70592441786E+02  0.70592441786E+02  0.00000000000E+00 0. -1.
          6    1    1    2  502    0 -0.36938467758E+02  0.19826789706E+03  0.12143868849E+04  0.12431166943E+04  0.17300000000E+03 0.  1.
         -6    1    1    2    0  501  0.36938467758E+02 -0.19826789706E+03  0.25769164317E+03  0.37014671735E+03  0.17300000000E+03 0. -1.
<mgrwt>
<rscale>  2 0.26571340E+03</rscale>
<asrwt>0</asrwt>
<pdfrwt beam="1">  1        2 0.23733397E+00 0.26571340E+03</pdfrwt>
<pdfrwt beam="2">  1       -2 0.10860377E-01 0.26571340E+03</pdfrwt>
<totfact> 0.75457471E+02</totfact>
</mgrwt>
</event>
<event>
 4    2  0.9452525E-001  0.1910542E+03  0.7546771E-02  0.1157514E+00
         -1   -1    0    0    0  501 -0.00000000000E+00  0.00000000000E+00  0.48619875688E+02  0.48619875688E+02  0.00000000000E+00 0. -1.
          1   -1    0    0  502    0  0.00000000000E+00 -0.00000000000E+00 -0.11426261899E+04  0.11426261899E+04  0.00000000000E+00 0.  1.
          6    1    1    2  502    0  0.41068278843E+02 -0.69900595082E+02 -0.19819219078E+03  0.27528501813E+03  0.17300000000E+03 0. -1.
         -6    1    1    2    0  501 -0.41068278843E+02  0.69900595082E+02 -0.89581412339E+03  0.91596104742E+03  0.17300000000E+03 0.  1.
<mgrwt>
<rscale>  2 0.19105417E+03</rscale>
<asrwt>0</asrwt>
<pdfrwt beam="1">  1        1 0.17578866E+00 0.19105417E+03</pdfrwt>
<pdfrwt beam="2">  1       -1 0.74799802E-02 0.19105417E+03</pdfrwt>
<totfact> 0.12037309E+03</totfact>
</mgrwt>
</event>
<event>
 4    2  0.9452525E-001  0.4508708E+03  0.7546771E-02  0.1027463E+00
          2   -1    0    0  502    0  0.00000000000E+00  0.00000000000E+00  0.16945973265E+04  0.16945973265E+04  0.00000000000E+00 0.  1.
         -2   -1    0    0    0  501 -0.00000000000E+00 -0.00000000000E+00 -0.12416695807E+03  0.12416695807E+03  0.00000000000E+00 0. -1.
          6    1    1    2  502    0  0.31892204496E+03 -0.26766427481E+03  0.61783229509E+03  0.76485369818E+03  0.17300000000E+03 0. -1.
         -6    1    1    2    0  501 -0.31892204496E+03  0.26766427481E+03  0.95259807334E+03  0.10539105864E+04  0.17300000000E+03 0.  1.
<mgrwt>
<rscale>  2 0.45087075E+03</rscale>
<asrwt>0</asrwt>
<pdfrwt beam="1">  1        2 0.26070726E+00 0.45087075E+03</pdfrwt>
<pdfrwt beam="2">  1       -2 0.19102610E-01 0.45087075E+03</pdfrwt>
<totfact> 0.23924885E+02</totfact>
</mgrwt>
</event>
<event>
 4    2  0.9452525E-001  0.1788595E+03  0.7546771E-02  0.1168911E+00
          2   -1    0    0  502    0  0.00000000000E+00  0.00000000000E+00  0.13787617461E+04  0.13787617461E+04  0.00000000000E+00 0. -1.
         -2   -1    0    0    0  501 -0.00000000000E+00 -0.00000000000E+00 -0.45513157736E+02  0.45513157736E+02  0.00000000000E+00 0.  1.
          6    1    1    2  502    0  0.45403463784E+02  0.50138899444E+00  0.11652233861E+04  0.11788707586E+04  0.17300000000E+03 0. -1.
         -6    1    1    2    0  501 -0.45403463784E+02 -0.50138899444E+00  0.16802520227E+03  0.24540414526E+03  0.17300000000E+03 0.  1.
<mgrwt>
<rscale>  2 0.17885951E+03</rscale>
<asrwt>0</asrwt>
<pdfrwt beam="1">  1        2 0.21211716E+00 0.17885951E+03</pdfrwt>
<pdfrwt beam="2">  1       -2 0.70020253E-02 0.17885951E+03</pdfrwt>
<totfact> 0.18520892E+03</totfact>
</mgrwt>
</event>
<event>
 4    2  0.9452525E-001  0.1821298E+03  0.7546771E-02  0.1165758E+00
          1   -1    0    0  502    0  0.00000000000E+00  0.00000000000E+00  0.85055254744E+03  0.85055254744E+03  0.00000000000E+00 0. -1.
         -1   -1    0    0    0  501 -0.00000000000E+00 -0.00000000000E+00 -0.48197200993E+02  0.48197200993E+02  0.00000000000E+00 0.  1.
          6    1    1    2  502    0 -0.55739650259E+02 -0.11634185014E+02  0.20487163058E+03  0.27412341725E+03  0.17300000000E+03 0.  1.
         -6    1    1    2    0  501  0.55739650259E+02  0.11634185014E+02  0.59748371587E+03  0.62462633118E+03  0.17300000000E+03 0. -1.
<mgrwt>
<rscale>  2 0.18212980E+03</rscale>
<asrwt>0</asrwt>
<pdfrwt beam="1">  1        1 0.13085423E+00 0.18212980E+03</pdfrwt>
<pdfrwt beam="2">  1       -1 0.74149546E-02 0.18212980E+03</pdfrwt>
<totfact> 0.20128401E+03</totfact>
</mgrwt>
</event>
<event>
 4    2  0.9452525E-001  0.1760898E+03  0.7546771E-02  0.1171642E+00
          1   -1    0    0  502    0  0.00000000000E+00  0.00000000000E+00  0.80926671958E+03  0.80926671958E+03  0.00000000000E+00 0.  1.
         -1   -1    0    0    0  501 -0.00000000000E+00 -0.00000000000E+00 -0.43872128189E+02  0.43872128189E+02  0.00000000000E+00 0. -1.
          6    1    1    2  502    0 -0.21627499652E+01 -0.32771127727E+02  0.53450473604E+03  0.56276366012E+03  0.17300000000E+03 0.  1.
         -6    1    1    2    0  501  0.21627499652E+01  0.32771127727E+02  0.23088985536E+03  0.29037518766E+03  0.17300000000E+03 0. -1.
<mgrwt>
<rscale>  2 0.17608982E+03</rscale>
<asrwt>0</asrwt>
<pdfrwt beam="1">  1        1 0.12450256E+00 0.17608982E+03</pdfrwt>
<pdfrwt beam="2">  1       -1 0.67495588E-02 0.17608982E+03</pdfrwt>
<totfact> 0.25041364E+03</totfact>
</mgrwt>
</event>
<event>
 4    2  0.9452525E-001  0.2619470E+03  0.7546771E-02  0.1105979E+00
          1   -1    0    0  502    0  0.00000000000E+00  0.00000000000E+00  0.34582203160E+03  0.34582203160E+03  0.00000000000E+00 0.  1.
         -1   -1    0    0    0  501 -0.00000000000E+00 -0.00000000000E+00 -0.36272732011E+03  0.36272732011E+03  0.00000000000E+00 0. -1.
          6    1    1    2  502    0 -0.15686655073E+03 -0.11865963445E+03 -0.24689601313E+03  0.35996369940E+03  0.17300000000E+03 0. -1.
         -6    1    1    2    0  501  0.15686655073E+03  0.11865963445E+03  0.22999072462E+03  0.34858565231E+03  0.17300000000E+03 0.  1.
<mgrwt>
<rscale>  2 0.26194699E+03</rscale>
<asrwt>0</asrwt>
<pdfrwt beam="1">  1        1 0.53203390E-01 0.26194699E+03</pdfrwt>
<pdfrwt beam="2">  1       -1 0.55804203E-01 0.26194699E+03</pdfrwt>
<totfact> 0.24632705E+02</totfact>
</mgrwt>
</event>
<event>
 4    2  0.9452525E-001  0.2163262E+03  0.7546771E-02  0.1136652E+00
          2   -1    0    0  502    0  0.00000000000E+00  0.00000000000E+00  0.14657818398E+03  0.14657818398E+03  0.00000000000E+00 0.  1.
         -2   -1    0    0    0  501 -0.00000000000E+00 -0.00000000000E+00 -0.34920428240E+03  0.34920428240E+03  0.00000000000E+00 0. -1.
          6    1    1    2  502    0  0.12986067328E+03 -0.20604335141E+01 -0.17389926522E+03  0.27755719103E+03  0.17300000000E+03 0.  1.
         -6    1    1    2    0  501 -0.12986067328E+03  0.20604335141E+01 -0.28726833201E+02  0.21822527534E+03  0.17300000000E+03 0. -1.
<mgrwt>
<rscale>  2 0.21632623E+03</rscale>
<asrwt>0</asrwt>
<pdfrwt beam="1">  1        2 0.22550490E-01 0.21632623E+03</pdfrwt>
<pdfrwt beam="2">  1       -2 0.53723735E-01 0.21632623E+03</pdfrwt>
<totfact> 0.80118918E+02</totfact>
</mgrwt>
</event>
<event>
 4    2  0.9452525E-001  0.1989915E+03  0.7546771E-02  0.1150593E+00
          2   -1    0    0  502    0  0.00000000000E+00  0.00000000000E+00  0.11782332329E+04  0.11782332329E+04  0.00000000000E+00 0.  1.
         -2   -1    0    0    0  501 -0.00000000000E+00 -0.00000000000E+00 -0.34227260411E+02  0.34227260411E+02  0.00000000000E+00 0. -1.
          6    1    1    2  502    0 -0.76283419168E+02  0.62044038594E+02  0.65357083682E+03  0.68319284357E+03  0.17300000000E+03 0. -1.
         -6    1    1    2    0  501  0.76283419168E+02 -0.62044038594E+02  0.49043513571E+03  0.52926764978E+03  0.17300000000E+03 0. -1.
<mgrwt>
<rscale>  2 0.19899151E+03</rscale>
<asrwt>0</asrwt>
<pdfrwt beam="1">  1        2 0.18126662E+00 0.19899151E+03</pdfrwt>
<pdfrwt beam="2">  1       -2 0.52657333E-02 0.19899151E+03</pdfrwt>
<totfact> 0.36964765E+03</totfact>
</mgrwt>
</event>
<event>
 4    2  0.9452525E-001  0.2448080E+03  0.7546771E-02  0.1116631E+00
          1   -1    0    0  502    0  0.00000000000E+00  0.00000000000E+00  0.49272467416E+02  0.49272467416E+02  0.00000000000E+00 0. -1.
         -1   -1    0    0    0  501 -0.00000000000E+00 -0.00000000000E+00 -0.12221129826E+04  0.12221129826E+04  0.00000000000E+00 0.  1.
          6    1    1    2  502    0 -0.84659986762E+02  0.15111137570E+03 -0.54264398595E+03  0.59530954697E+03  0.17300000000E+03 0.  1.
         -6    1    1    2    0  501  0.84659986762E+02 -0.15111137570E+03 -0.63019652922E+03  0.67607590304E+03  0.17300000000E+03 0. -1.
<mgrwt>
<rscale>  2 0.24480801E+03</rscale>
<asrwt>0</asrwt>
<pdfrwt beam="1">  1        1 0.75803810E-02 0.24480801E+03</pdfrwt>
<pdfrwt beam="2">  1       -1 0.18801735E+00 0.24480801E+03</pdfrwt>
<totfact> 0.18896401E+02</totfact>
</mgrwt>
</event>
<event>
 4    2  0.9452525E-001  0.1874469E+03  0.7546771E-02  0.1160784E+00
          2   -1    0    0  502    0  0.00000000000E+00  0.00000000000E+00  0.74662040521E+03  0.74662040521E+03  0.00000000000E+00 0.  1.
         -2   -1    0    0    0  501 -0.00000000000E+00 -0.00000000000E+00 -0.71846086854E+02  0.71846086854E+02  0.00000000000E+00 0. -1.
          6    1    1    2  502    0 -0.36058521303E+02 -0.62507045930E+02  0.57775078073E+03  0.60739798517E+03  0.17300000000E+03 0.  1.
         -6    1    1    2    0  501  0.36058521303E+02  0.62507045930E+02  0.97023537619E+02  0.21106850689E+03  0.17300000000E+03 0. -1.
<mgrwt>
<rscale>  2 0.18744692E+03</rscale>
<asrwt>0</asrwt>
<pdfrwt beam="1">  1        2 0.11486467E+00 0.18744692E+03</pdfrwt>
<pdfrwt beam="2">  1       -2 0.11053245E-01 0.18744692E+03</pdfrwt>
<totfact> 0.21711518E+03</totfact>
</mgrwt>
</event>
<event>
 4    2  0.9452525E-001  0.1806043E+03  0.7546771E-02  0.1167219E+00
          2   -1    0    0  502    0  0.00000000000E+00  0.00000000000E+00  0.10216697016E+03  0.10216697016E+03  0.00000000000E+00 0. -1.
         -2   -1    0    0    0  501 -0.00000000000E+00 -0.00000000000E+00 -0.35566688073E+03  0.35566688073E+03  0.00000000000E+00 0.  1.
          6    1    1    2  502    0 -0.15155479932E+02  0.49590511017E+02 -0.19998909416E+03  0.26946900590E+03  0.17300000000E+03 0.  1.
         -6    1    1    2    0  501  0.15155479932E+02 -0.49590511017E+02 -0.53510816407E+02  0.18836484499E+03  0.17300000000E+03 0. -1.
<mgrwt>
<rscale>  2 0.18060428E+03</rscale>
<asrwt>0</asrwt>
<pdfrwt beam="1">  1        2 0.15717995E-01 0.18060428E+03</pdfrwt>
<pdfrwt beam="2">  1       -2 0.54717982E-01 0.18060428E+03</pdfrwt>
<totfact> 0.11646079E+03</totfact>
</mgrwt>
</event>
<event>
 4    2  0.9452525E-001  0.2106859E+03  0.7546771E-02  0.1141024E+00
          3   -1    0    0  502    0  0.00000000000E+00  0.00000000000E+00  0.15171978615E+03  0.15171978615E+03  0.00000000000E+00 0.  1.
         -3   -1    0    0    0  501 -0.00000000000E+00 -0.00000000000E+00 -0.35789250861E+03  0.35789250861E+03  0.00000000000E+00 0. -1.
          6    1    1    2  502    0 -0.11004703813E+03 -0.48468692225E+02  0.57733216704E+01  0.21076502549E+03  0.17300000000E+03 0.  1.
         -6    1    1    2    0  501  0.11004703813E+03  0.48468692225E+02 -0.21194604413E+03  0.29884726927E+03  0.17300000000E+03 0. -1.
<mgrwt>
<rscale>  2 0.21068594E+03</rscale>
<asrwt>0</asrwt>
<pdfrwt beam="1">  1        3 0.23341506E-01 0.21068594E+03</pdfrwt>
<pdfrwt beam="2">  1       -3 0.55060385E-01 0.21068594E+03</pdfrwt>
<totfact> 0.13720297E+02</totfact>
</mgrwt>
</event>
<event>
 4    2  0.9452525E-001  0.2145192E+03  0.7546771E-02  0.1138036E+00
          1   -1    0    0  502    0  0.00000000000E+00  0.00000000000E+00  0.14638980416E+04  0.14638980416E+04  0.00000000000E+00 0.  1.
         -1   -1    0    0    0  501 -0.00000000000E+00 -0.00000000000E+00 -0.43872023380E+02  0.43872023380E+02  0.00000000000E+00 0. -1.
          6    1    1    2  502    0  0.54845502471E+01 -0.12672572140E+03  0.11113963380E+04  0.11319100268E+04  0.17300000000E+03 0.  1.
         -6    1    1    2    0  501 -0.54845502471E+01  0.12672572140E+03  0.30862968024E+03  0.37586003816E+03  0.17300000000E+03 0. -1.
<mgrwt>
<rscale>  2 0.21451920E+03</rscale>
<asrwt>0</asrwt>
<pdfrwt beam="1">  1        1 0.22521505E+00 0.21451920E+03</pdfrwt>
<pdfrwt beam="2">  1       -1 0.67495432E-02 0.21451920E+03</pdfrwt>
<totfact> 0.84964687E+02</totfact>
</mgrwt>
</event>
<event>
 4    2  0.9452525E-001  0.1818906E+03  0.7546771E-02  0.1165986E+00
          1   -1    0    0  502    0  0.00000000000E+00  0.00000000000E+00  0.26113421533E+04  0.26113421533E+04  0.00000000000E+00 0.  1.
         -1   -1    0    0    0  501 -0.00000000000E+00 -0.00000000000E+00 -0.15888972138E+02  0.15888972138E+02  0.00000000000E+00 0. -1.
          6    1    1    2  502    0 -0.54616238496E+02 -0.13125095878E+02  0.70641304654E+03  0.72945431247E+03  0.17300000000E+03 0. -1.
         -6    1    1    2    0  501  0.54616238496E+02  0.13125095878E+02  0.18890401346E+04  0.18977768130E+04  0.17300000000E+03 0.  1.
<mgrwt>
<rscale>  2 0.18189063E+03</rscale>
<asrwt>0</asrwt>
<pdfrwt beam="1">  1        1 0.40174461E+00 0.18189063E+03</pdfrwt>
<pdfrwt beam="2">  1       -1 0.24444593E-02 0.18189063E+03</pdfrwt>
<totfact> 0.69184109E+02</totfact>
</mgrwt>
</event>
