<event>
 4    1  0.4999097E-001  0.1164523E+03  0.7546771E-02  0.1249067E+00
         -1   -1    0    0    0  501 -0.00000000000E+00  0.00000000000E+00  0.52571443927E+02  0.52571443927E+02  0.00000000000E+00 0.  1.
          1   -1    0    0  501    0  0.00000000000E+00 -0.00000000000E+00 -0.37608924562E+03  0.37608924562E+03  0.00000000000E+00 0. -1.
         24    1    1    2    0    0  0.19780629844E+02 -0.81869671158E+02 -0.41636550584E+02  0.12367188311E+03  0.80419002446E+02 0.  1.
        -24    1    1    2    0    0 -0.19780629844E+02  0.81869671158E+02 -0.28188125111E+03  0.30498880644E+03  0.80419002446E+02 0. -1.
<mgrwt>
<rscale>  0 0.11645227E+03</rscale>
<asrwt>0</asrwt>
<pdfrwt beam="1">  1        1 0.57859886E-01 0.11645227E+03</pdfrwt>
<pdfrwt beam="2">  1       -1 0.80879142E-02 0.11645227E+03</pdfrwt>
<totfact> 0.52835973E+03</totfact>
</mgrwt>
</event>
<event>
 4    1  0.4999097E-001  0.8480578E+02  0.7546771E-02  0.1315941E+00
         -2   -1    0    0    0  501 -0.00000000000E+00  0.00000000000E+00  0.81867914144E+01  0.81867914144E+01  0.00000000000E+00 0.  1.
          2   -1    0    0  501    0  0.00000000000E+00 -0.00000000000E+00 -0.13781900698E+04  0.13781900698E+04  0.00000000000E+00 0. -1.
         24    1    1    2    0    0  0.18033638459E+02 -0.19989812271E+02 -0.11024003654E+04  0.11056575357E+04  0.80419002446E+02 0. -1.
        -24    1    1    2    0    0 -0.18033638459E+02  0.19989812271E+02 -0.26760291293E+03  0.28071932544E+03  0.80419002446E+02 0.  1.
<mgrwt>
<rscale>  0 0.84805782E+02</rscale>
<asrwt>0</asrwt>
<pdfrwt beam="1">  1        2 0.21202918E+00 0.84805782E+02</pdfrwt>
<pdfrwt beam="2">  1       -2 0.12595067E-02 0.84805782E+02</pdfrwt>
<totfact> 0.22436927E+04</totfact>
</mgrwt>
</event>
<event>
 4    1  0.4999097E-001  0.8246312E+02  0.7546771E-02  0.1322203E+00
          1   -1    0    0  501    0  0.00000000000E+00  0.00000000000E+00  0.31697730325E+02  0.31697730325E+02  0.00000000000E+00 0. -1.
         -1   -1    0    0    0  501 -0.00000000000E+00 -0.00000000000E+00 -0.23203858758E+03  0.23203858758E+03  0.00000000000E+00 0.  1.
         24    1    1    2    0    0  0.13616774453E+02  0.12146362701E+02 -0.13639179542E+03  0.15938283623E+03  0.80419002446E+02 0.  0.
        -24    1    1    2    0    0 -0.13616774453E+02 -0.12146362701E+02 -0.63949061839E+02  0.10435348168E+03  0.80419002446E+02 0.  1.
<mgrwt>
<rscale>  0 0.82463123E+02</rscale>
<asrwt>0</asrwt>
<pdfrwt beam="1">  1        1 0.48765739E-02 0.82463123E+02</pdfrwt>
<pdfrwt beam="2">  1       -1 0.35698245E-01 0.82463123E+02</pdfrwt>
<totfact> 0.11607005E+04</totfact>
</mgrwt>
</event>
<event>
 4    1  0.4999097E-001  0.9496055E+02  0.7546771E-02  0.1291265E+00
         -3   -1    0    0    0  501 -0.00000000000E+00  0.00000000000E+00  0.44470677687E+02  0.44470677687E+02  0.00000000000E+00 0.  1.
          3   -1    0    0  501    0  0.00000000000E+00 -0.00000000000E+00 -0.33307653908E+03  0.33307653908E+03  0.00000000000E+00 0. -1.
         24    1    1    2    0    0  0.44796405583E+02  0.23314625292E+02 -0.26231349899E+02  0.98516949697E+02  0.80419002446E+02 0.  0.
        -24    1    1    2    0    0 -0.44796405583E+02 -0.23314625292E+02 -0.26237451149E+03  0.27903026707E+03  0.80419002446E+02 0.  0.
<mgrwt>
<rscale>  0 0.94960548E+02</rscale>
<asrwt>0</asrwt>
<pdfrwt beam="1">  1        3 0.51242547E-01 0.94960548E+02</pdfrwt>
<pdfrwt beam="2">  1       -3 0.68416424E-02 0.94960548E+02</pdfrwt>
<totfact> 0.11336361E+03</totfact>
</mgrwt>
</event>
<event>
 4    1  0.4999097E-001  0.9417364E+02  0.7546771E-02  0.1293048E+00
          1   -1    0    0  501    0  0.00000000000E+00  0.00000000000E+00  0.20101747877E+03  0.20101747877E+03  0.00000000000E+00 0. -1.
         -1   -1    0    0    0  501 -0.00000000000E+00 -0.00000000000E+00 -0.16137990021E+03  0.16137990021E+03  0.00000000000E+00 0.  1.
         24    1    1    2    0    0 -0.46780039211E+02 -0.14597496818E+02 -0.13463802855E+03  0.16430481937E+03  0.80419002446E+02 0.  1.
        -24    1    1    2    0    0  0.46780039211E+02  0.14597496818E+02  0.17427560712E+03  0.19809255961E+03  0.80419002446E+02 0. -1.
<mgrwt>
<rscale>  0 0.94173642E+02</rscale>
<asrwt>0</asrwt>
<pdfrwt beam="1">  1        1 0.30925766E-01 0.94173642E+02</pdfrwt>
<pdfrwt beam="2">  1       -1 0.24827677E-01 0.94173642E+02</pdfrwt>
<totfact> 0.19741146E+03</totfact>
</mgrwt>
</event>
<event>
 4    1  0.4999097E-001  0.8315914E+02  0.7546771E-02  0.1320318E+00
         -1   -1    0    0    0  501 -0.00000000000E+00  0.00000000000E+00  0.71716595770E+02  0.71716595770E+02  0.00000000000E+00 0.  1.
          1   -1    0    0  501    0  0.00000000000E+00 -0.00000000000E+00 -0.96695970852E+02  0.96695970852E+02  0.00000000000E+00 0. -1.
         24    1    1    2    0    0  0.28974533426E+01  0.20972056086E+02 -0.16928261595E+02  0.84864623768E+02  0.80419002446E+02 0.  1.
        -24    1    1    2    0    0 -0.28974533426E+01 -0.20972056086E+02 -0.80511134859E+01  0.83547942854E+02  0.80419002446E+02 0.  0.
<mgrwt>
<rscale>  0 0.83159125E+02</rscale>
<asrwt>0</asrwt>
<pdfrwt beam="1">  1        1 0.14876303E-01 0.83159135E+02</pdfrwt>
<pdfrwt beam="2">  1       -1 0.11033322E-01 0.83159135E+02</pdfrwt>
<totfact> 0.17351753E+04</totfact>
</mgrwt>
</event>
<event>
 4    1  0.4999097E-001  0.8282994E+02  0.7546771E-02  0.1321207E+00
         -1   -1    0    0    0  501 -0.00000000000E+00  0.00000000000E+00  0.54132959483E+02  0.54132959483E+02  0.00000000000E+00 0.  1.
          1   -1    0    0  501    0  0.00000000000E+00 -0.00000000000E+00 -0.26968287833E+03  0.26968287833E+03  0.00000000000E+00 0. -1.
         24    1    1    2    0    0  0.76266858456E+01 -0.18314378125E+02  0.10100396412E+02  0.83443494325E+02  0.80419002446E+02 0.  1.
        -24    1    1    2    0    0 -0.76266858456E+01  0.18314378125E+02 -0.22565031526E+03  0.24037234349E+03  0.80419002446E+02 0. -1.
<mgrwt>
<rscale>  0 0.82829939E+02</rscale>
<asrwt>0</asrwt>
<pdfrwt beam="1">  1        1 0.41489673E-01 0.82829939E+02</pdfrwt>
<pdfrwt beam="2">  1       -1 0.83281478E-02 0.82829939E+02</pdfrwt>
<totfact> 0.74264603E+03</totfact>
</mgrwt>
</event>
<event>
 4    1  0.4999097E-001  0.8412715E+02  0.7546771E-02  0.1317731E+00
          3   -1    0    0  501    0  0.00000000000E+00  0.00000000000E+00  0.17469152769E+03  0.17469152769E+03  0.00000000000E+00 0. -1.
         -3   -1    0    0    0  501 -0.00000000000E+00 -0.00000000000E+00 -0.83631938966E+02  0.83631938966E+02  0.00000000000E+00 0.  1.
         24    1    1    2    0    0  0.21783660858E+02  0.11646170469E+02 -0.47212738571E+02  0.96469787005E+02  0.80419002446E+02 0.  1.
        -24    1    1    2    0    0 -0.21783660858E+02 -0.11646170469E+02  0.13827232730E+03  0.16185367966E+03  0.80419002446E+02 0.  0.
<mgrwt>
<rscale>  0 0.84127149E+02</rscale>
<asrwt>0</asrwt>
<pdfrwt beam="1">  1        3 0.26875620E-01 0.84127149E+02</pdfrwt>
<pdfrwt beam="2">  1       -3 0.12866452E-01 0.84127149E+02</pdfrwt>
<totfact> 0.13387518E+03</totfact>
</mgrwt>
</event>
<event>
 4    1  0.4999097E-001  0.1277879E+03  0.7546771E-02  0.1230776E+00
          1   -1    0    0  501    0  0.00000000000E+00  0.00000000000E+00  0.13758777041E+04  0.13758777041E+04  0.00000000000E+00 0. -1.
         -1   -1    0    0    0  501 -0.00000000000E+00 -0.00000000000E+00 -0.11941007856E+02  0.11941007856E+02  0.00000000000E+00 0.  1.
         24    1    1    2    0    0 -0.12185274573E+02  0.98559818790E+02  0.62793135769E+03  0.64080225087E+03  0.80419002446E+02 0.  1.
        -24    1    1    2    0    0  0.12185274573E+02 -0.98559818790E+02  0.73600533853E+03  0.74701646106E+03  0.80419002446E+02 0. -1.
<mgrwt>
<rscale>  0 0.12778785E+03</rscale>
<asrwt>0</asrwt>
<pdfrwt beam="1">  1        1 0.21167337E+00 0.12778785E+03</pdfrwt>
<pdfrwt beam="2">  1       -1 0.18370792E-02 0.12778785E+03</pdfrwt>
<totfact> 0.65612048E+03</totfact>
</mgrwt>
</event>
<event>
 4    1  0.4999097E-001  0.8051712E+02  0.7546771E-02  0.1327590E+00
         -1   -1    0    0    0  501 -0.00000000000E+00  0.00000000000E+00  0.23200162538E+02  0.23200162538E+02  0.00000000000E+00 0.  1.
          1   -1    0    0  501    0  0.00000000000E+00 -0.00000000000E+00 -0.28230142482E+03  0.28230142482E+03  0.00000000000E+00 0. -1.
         24    1    1    2    0    0  0.35181595669E+01 -0.18473861354E+01 -0.11416652063E+03  0.13970325934E+03  0.80419002446E+02 0.  0.
        -24    1    1    2    0    0 -0.35181595669E+01  0.18473861354E+01 -0.14493474166E+03  0.16579832802E+03  0.80419002446E+02 0. -1.
<mgrwt>
<rscale>  0 0.80517118E+02</rscale>
<asrwt>0</asrwt>
<pdfrwt beam="1">  1        1 0.43430990E-01 0.80517118E+02</pdfrwt>
<pdfrwt beam="2">  1       -1 0.35692557E-02 0.80517118E+02</pdfrwt>
<totfact> 0.24230278E+04</totfact>
</mgrwt>
</event>
<event>
 4    1  0.4999097E-001  0.8595059E+02  0.7546771E-02  0.1312965E+00
         -1   -1    0    0    0  501 -0.00000000000E+00  0.00000000000E+00  0.90705254888E+02  0.90705254888E+02  0.00000000000E+00 0.  1.
          1   -1    0    0  501    0  0.00000000000E+00 -0.00000000000E+00 -0.35611015859E+03  0.35611015859E+03  0.00000000000E+00 0. -1.
         24    1    1    2    0    0  0.30228658614E+02 -0.25527685536E+01  0.63501443561E+02  0.10686410865E+03  0.80419002446E+02 0.  1.
        -24    1    1    2    0    0 -0.30228658614E+02  0.25527685536E+01 -0.32890634726E+03  0.33995130482E+03  0.80419002446E+02 0. -1.
<mgrwt>
<rscale>  0 0.85950593E+02</rscale>
<asrwt>0</asrwt>
<pdfrwt beam="1">  1        1 0.54786179E-01 0.85950593E+02</pdfrwt>
<pdfrwt beam="2">  1       -1 0.13954654E-01 0.85950593E+02</pdfrwt>
<totfact> 0.24274119E+03</totfact>
</mgrwt>
</event>
<event>
 4    1  0.4999097E-001  0.8895801E+02  0.7546771E-02  0.1305395E+00
          1   -1    0    0  501    0  0.00000000000E+00  0.00000000000E+00  0.37311208676E+03  0.37311208676E+03  0.00000000000E+00 0. -1.
         -1   -1    0    0    0  501 -0.00000000000E+00 -0.00000000000E+00 -0.22430999848E+02  0.22430999848E+02  0.00000000000E+00 0.  1.
         24    1    1    2    0    0 -0.12230277128E+02  0.36010171446E+02  0.12918937213E+03  0.15685477982E+03  0.80419002446E+02 0. -1.
        -24    1    1    2    0    0  0.12230277128E+02 -0.36010171446E+02  0.22149171478E+03  0.23868830678E+03  0.80419002446E+02 0.  1.
<mgrwt>
<rscale>  0 0.88958013E+02</rscale>
<asrwt>0</asrwt>
<pdfrwt beam="1">  1        1 0.57401855E-01 0.88958013E+02</pdfrwt>
<pdfrwt beam="2">  1       -1 0.34509233E-02 0.88958013E+02</pdfrwt>
<totfact> 0.18288993E+04</totfact>
</mgrwt>
</event>
<event>
 4    1  0.4999097E-001  0.9804221E+02  0.7546771E-02  0.1284468E+00
          4   -1    0    0  501    0  0.00000000000E+00  0.00000000000E+00  0.98546456027E+02  0.98546456027E+02  0.00000000000E+00 0. -1.
         -4   -1    0    0    0  501 -0.00000000000E+00 -0.00000000000E+00 -0.27678237592E+03  0.27678237592E+03  0.00000000000E+00 0.  1.
         24    1    1    2    0    0  0.45868342807E+02 -0.32266926141E+02  0.61901320574E+02  0.11594847493E+03  0.80419002446E+02 0. -1.
        -24    1    1    2    0    0 -0.45868342807E+02  0.32266926141E+02 -0.24013724047E+03  0.25938035703E+03  0.80419002446E+02 0.  1.
<mgrwt>
<rscale>  0 0.98042212E+02</rscale>
<asrwt>0</asrwt>
<pdfrwt beam="1">  1        4 0.15160993E-01 0.98042212E+02</pdfrwt>
<pdfrwt beam="2">  1       -4 0.42581904E-01 0.98042212E+02</pdfrwt>
<totfact> 0.30976648E+02</totfact>
</mgrwt>
</event>
<event>
 4    1  0.4999097E-001  0.8070940E+02  0.7546771E-02  0.1327050E+00
          1   -1    0    0  501    0  0.00000000000E+00  0.00000000000E+00  0.28030680654E+02  0.28030680654E+02  0.00000000000E+00 0. -1.
         -1   -1    0    0    0  501 -0.00000000000E+00 -0.00000000000E+00 -0.25463495000E+03  0.25463495000E+03  0.00000000000E+00 0.  1.
         24    1    1    2    0    0  0.57659222195E+01 -0.36803945622E+01 -0.15507695697E+03  0.17482239474E+03  0.80419002446E+02 0.  0.
        -24    1    1    2    0    0 -0.57659222195E+01  0.36803945622E+01 -0.71527312372E+02  0.10784323592E+03  0.80419002446E+02 0.  0.
<mgrwt>
<rscale>  0 0.80709399E+02</rscale>
<asrwt>0</asrwt>
<pdfrwt beam="1">  1        1 0.43124125E-02 0.80709399E+02</pdfrwt>
<pdfrwt beam="2">  1       -1 0.39174607E-01 0.80709399E+02</pdfrwt>
<totfact> 0.11661948E+04</totfact>
</mgrwt>
</event>
<event>
 4    1  0.4999097E-001  0.8442326E+02  0.7546771E-02  0.1316948E+00
          1   -1    0    0  501    0  0.00000000000E+00  0.00000000000E+00  0.12435283204E+04  0.12435283204E+04  0.00000000000E+00 0. -1.
         -1   -1    0    0    0  501 -0.00000000000E+00 -0.00000000000E+00 -0.93204530880E+01  0.93204530880E+01  0.00000000000E+00 0.  1.
         24    1    1    2    0    0 -0.61483521729E+01 -0.24945304583E+02  0.22838665293E+03  0.24349075885E+03  0.80419002446E+02 0.  1.
        -24    1    1    2    0    0  0.61483521729E+01  0.24945304583E+02  0.10058212144E+04  0.10093580146E+04  0.80419002446E+02 0. -1.
<mgrwt>
<rscale>  0 0.84423258E+02</rscale>
<asrwt>0</asrwt>
<pdfrwt beam="1">  1        1 0.19131192E+00 0.84423258E+02</pdfrwt>
<pdfrwt beam="2">  1       -1 0.14339168E-02 0.84423258E+02</pdfrwt>
<totfact> 0.11172224E+04</totfact>
</mgrwt>
</event>
<event>
 4    1  0.4999097E-001  0.8579562E+02  0.7546771E-02  0.1313365E+00
         -2   -1    0    0    0  501 -0.00000000000E+00  0.00000000000E+00  0.79932562384E+02  0.79932562384E+02  0.00000000000E+00 0.  1.
          2   -1    0    0  501    0  0.00000000000E+00 -0.00000000000E+00 -0.14369185472E+03  0.14369185472E+03  0.00000000000E+00 0. -1.
         24    1    1    2    0    0 -0.10688338415E+02 -0.27918317700E+02 -0.98885247113E+02  0.13091669524E+03  0.80419002446E+02 0. -1.
        -24    1    1    2    0    0  0.10688338415E+02  0.27918317700E+02  0.35125954773E+02  0.92707721870E+02  0.80419002446E+02 0.  1.
<mgrwt>
<rscale>  0 0.85795623E+02</rscale>
<asrwt>0</asrwt>
<pdfrwt beam="1">  1        2 0.22106439E-01 0.85795623E+02</pdfrwt>
<pdfrwt beam="2">  1       -2 0.12297317E-01 0.85795623E+02</pdfrwt>
<totfact> 0.10600804E+04</totfact>
</mgrwt>
</event>
<event>
 4    1  0.4999097E-001  0.1490023E+03  0.7546771E-02  0.1201704E+00
          1   -1    0    0  501    0  0.00000000000E+00  0.00000000000E+00  0.39293747937E+02  0.39293747937E+02  0.00000000000E+00 0. -1.
         -1   -1    0    0    0  501 -0.00000000000E+00 -0.00000000000E+00 -0.57067837348E+03  0.57067837348E+03  0.00000000000E+00 0.  1.
         24    1    1    2    0    0  0.12543702069E+03 -0.15057357572E+00 -0.29606597423E+03  0.33144644497E+03  0.80419002446E+02 0. -1.
        -24    1    1    2    0    0 -0.12543702069E+03  0.15057357572E+00 -0.23531865131E+03  0.27852567645E+03  0.80419002446E+02 0.  0.
<mgrwt>
<rscale>  0 0.14900230E+03</rscale>
<asrwt>0</asrwt>
<pdfrwt beam="1">  1        1 0.60451925E-02 0.14900230E+03</pdfrwt>
<pdfrwt beam="2">  1       -1 0.87796666E-01 0.14900230E+03</pdfrwt>
<totfact> 0.16765434E+03</totfact>
</mgrwt>
</event>
<event>
 4    1  0.4999097E-001  0.1120965E+03  0.7546771E-02  0.1256736E+00
         -2   -1    0    0    0  501 -0.00000000000E+00  0.00000000000E+00  0.31970627976E+02  0.31970627976E+02  0.00000000000E+00 0.  1.
          2   -1    0    0  501    0  0.00000000000E+00 -0.00000000000E+00 -0.46287649248E+03  0.46287649248E+03  0.00000000000E+00 0. -1.
         24    1    1    2    0    0 -0.52115975911E+02 -0.58157803267E+02 -0.31156122171E+03  0.33111329761E+03  0.80419002446E+02 0.  1.
        -24    1    1    2    0    0  0.52115975911E+02  0.58157803267E+02 -0.11934464280E+03  0.16373382285E+03  0.80419002446E+02 0. -1.
<mgrwt>
<rscale>  0 0.11209648E+03</rscale>
<asrwt>0</asrwt>
<pdfrwt beam="1">  1        2 0.71211768E-01 0.11209648E+03</pdfrwt>
<pdfrwt beam="2">  1       -2 0.49185582E-02 0.11209648E+03</pdfrwt>
<totfact> 0.12715620E+04</totfact>
</mgrwt>
</event>
<event>
 4    1  0.4999097E-001  0.8216258E+02  0.7546771E-02  0.1323024E+00
         -2   -1    0    0    0  501 -0.00000000000E+00  0.00000000000E+00  0.39632048955E+02  0.39632048955E+02  0.00000000000E+00 0.  1.
          2   -1    0    0  501    0  0.00000000000E+00 -0.00000000000E+00 -0.32171993497E+03  0.32171993497E+03  0.00000000000E+00 0. -1.
         24    1    1    2    0    0  0.33310084442E+01  0.16503856208E+02 -0.26498183404E+03  0.27742757832E+03  0.80419002446E+02 0.  0.
        -24    1    1    2    0    0 -0.33310084442E+01 -0.16503856208E+02 -0.17106051971E+02  0.83924405600E+02  0.80419002446E+02 0.  1.
<mgrwt>
<rscale>  0 0.82162576E+02</rscale>
<asrwt>0</asrwt>
<pdfrwt beam="1">  1        2 0.49495373E-01 0.82162576E+02</pdfrwt>
<pdfrwt beam="2">  1       -2 0.60972385E-02 0.82162576E+02</pdfrwt>
<totfact> 0.13169774E+04</totfact>
</mgrwt>
</event>
<event>
 4    1  0.4999097E-001  0.8282521E+02  0.7546771E-02  0.1321220E+00
          3   -1    0    0  501    0  0.00000000000E+00  0.00000000000E+00  0.14919185631E+03  0.14919185631E+03  0.00000000000E+00 0. -1.
         -3   -1    0    0    0  501 -0.00000000000E+00 -0.00000000000E+00 -0.18015758424E+03  0.18015758424E+03  0.00000000000E+00 0.  1.
         24    1    1    2    0    0 -0.58550358477E+01  0.18934562371E+02 -0.15759748515E+03  0.17803646362E+03  0.80419002446E+02 0.  1.
        -24    1    1    2    0    0  0.58550358477E+01 -0.18934562371E+02  0.12663175722E+03  0.15131297693E+03  0.80419002446E+02 0. -1.
<mgrwt>
<rscale>  0 0.82825208E+02</rscale>
<asrwt>0</asrwt>
<pdfrwt beam="1">  1        3 0.22952593E-01 0.82825208E+02</pdfrwt>
<pdfrwt beam="2">  1       -3 0.27716551E-01 0.82825208E+02</pdfrwt>
<totfact> 0.46798827E+02</totfact>
</mgrwt>
</event>
<event>
 4    1  0.4999097E-001  0.8416897E+02  0.7546771E-02  0.1317620E+00
          4   -1    0    0  501    0  0.00000000000E+00  0.00000000000E+00  0.12215866703E+04  0.12215866703E+04  0.00000000000E+00 0. -1.
         -4   -1    0    0    0  501 -0.00000000000E+00 -0.00000000000E+00 -0.58983295587E+01  0.58983295587E+01  0.00000000000E+00 0.  1.
         24    1    1    2    0    0  0.23903540546E+02  0.67690457215E+01  0.68734702307E+03  0.69248129600E+03  0.80419002446E+02 0. -1.
        -24    1    1    2    0    0 -0.23903540546E+02 -0.67690457215E+01  0.52834131766E+03  0.53500370385E+03  0.80419002446E+02 0.  1.
<mgrwt>
<rscale>  0 0.84168968E+02</rscale>
<asrwt>0</asrwt>
<pdfrwt beam="1">  1        4 0.18793621E+00 0.84168968E+02</pdfrwt>
<pdfrwt beam="2">  1       -4 0.90743629E-03 0.84168968E+02</pdfrwt>
<totfact> 0.88940255E+02</totfact>
</mgrwt>
</event>
<event>
 4    1  0.4999097E-001  0.8438155E+02  0.7546771E-02  0.1317058E+00
         -2   -1    0    0    0  501 -0.00000000000E+00  0.00000000000E+00  0.55225488905E+01  0.55225488905E+01  0.00000000000E+00 0.  1.
          2   -1    0    0  501    0  0.00000000000E+00 -0.00000000000E+00 -0.16258596591E+04  0.16258596591E+04  0.00000000000E+00 0. -1.
         24    1    1    2    0    0  0.17269635426E+02  0.18835881854E+02 -0.11812868588E+04  0.11842967911E+04  0.80419002446E+02 0. -1.
        -24    1    1    2    0    0 -0.17269635426E+02 -0.18835881854E+02 -0.43905025147E+03  0.44708541692E+03  0.80419002446E+02 0.  1.
<mgrwt>
<rscale>  0 0.84381554E+02</rscale>
<asrwt>0</asrwt>
<pdfrwt beam="1">  1        2 0.25013233E+00 0.84381554E+02</pdfrwt>
<pdfrwt beam="2">  1       -2 0.84962265E-03 0.84381554E+02</pdfrwt>
<totfact> 0.29257828E+04</totfact>
</mgrwt>
</event>
<event>
 4    1  0.4999097E-001  0.1137924E+03  0.7546771E-02  0.1253704E+00
         -1   -1    0    0    0  501 -0.00000000000E+00  0.00000000000E+00  0.10525588321E+02  0.10525588321E+02  0.00000000000E+00 0.  1.
          1   -1    0    0  501    0  0.00000000000E+00 -0.00000000000E+00 -0.14060931695E+04  0.14060931695E+04  0.00000000000E+00 0. -1.
         24    1    1    2    0    0 -0.44760770536E+02 -0.66917551391E+02 -0.44727321419E+03  0.46152142891E+03  0.80419002446E+02 0.  1.
        -24    1    1    2    0    0  0.44760770536E+02  0.66917551391E+02 -0.94829436695E+03  0.95509732887E+03  0.80419002446E+02 0. -1.
<mgrwt>
<rscale>  0 0.11379236E+03</rscale>
<asrwt>0</asrwt>
<pdfrwt beam="1">  1        1 0.21632195E+00 0.11379236E+03</pdfrwt>
<pdfrwt beam="2">  1       -1 0.16193218E-02 0.11379236E+03</pdfrwt>
<totfact> 0.74746483E+03</totfact>
</mgrwt>
</event>
<event>
 4    1  0.4999097E-001  0.1028607E+03  0.7546771E-02  0.1274393E+00
          1   -1    0    0  501    0  0.00000000000E+00  0.00000000000E+00  0.43245562364E+02  0.43245562364E+02  0.00000000000E+00 0. -1.
         -1   -1    0    0    0  501 -0.00000000000E+00 -0.00000000000E+00 -0.25247813642E+03  0.25247813642E+03  0.00000000000E+00 0.  1.
         24    1    1    2    0    0 -0.63536638479E+02 -0.87294405288E+01 -0.13064082640E+03  0.16627492005E+03  0.80419002446E+02 0.  1.
        -24    1    1    2    0    0  0.63536638479E+02  0.87294405288E+01 -0.78591747658E+02  0.12944877873E+03  0.80419002446E+02 0. -1.
<mgrwt>
<rscale>  0 0.10286070E+03</rscale>
<asrwt>0</asrwt>
<pdfrwt beam="1">  1        1 0.66531634E-02 0.10286070E+03</pdfrwt>
<pdfrwt beam="2">  1       -1 0.38842791E-01 0.10286070E+03</pdfrwt>
<totfact> 0.67546760E+03</totfact>
</mgrwt>
</event>
<event>
 4    1  0.4999097E-001  0.8424772E+02  0.7546771E-02  0.1317412E+00
          2   -1    0    0  501    0  0.00000000000E+00  0.00000000000E+00  0.26322156622E+04  0.26322156622E+04  0.00000000000E+00 0. -1.
         -2   -1    0    0    0  501 -0.00000000000E+00 -0.00000000000E+00 -0.27030457826E+01  0.27030457826E+01  0.00000000000E+00 0.  1.
         24    1    1    2    0    0 -0.78793417247E+01  0.23840699266E+02  0.13797588423E+04  0.13823285217E+04  0.80419002446E+02 0. -1.
        -24    1    1    2    0    0  0.78793417247E+01 -0.23840699266E+02  0.12497537741E+04  0.12525901863E+04  0.80419002446E+02 0.  1.
<mgrwt>
<rscale>  0 0.84247724E+02</rscale>
<asrwt>0</asrwt>
<pdfrwt beam="1">  1        2 0.40495421E+00 0.84247724E+02</pdfrwt>
<pdfrwt beam="2">  1       -2 0.41585530E-03 0.84247724E+02</pdfrwt>
<totfact> 0.24497990E+04</totfact>
</mgrwt>
</event>
<event>
 4    1  0.4999097E-001  0.1297738E+03  0.7546771E-02  0.1227792E+00
         -2   -1    0    0    0  501 -0.00000000000E+00  0.00000000000E+00  0.92986242872E+01  0.92986242872E+01  0.00000000000E+00 0.  1.
          2   -1    0    0  501    0  0.00000000000E+00 -0.00000000000E+00 -0.23892471003E+04  0.23892471003E+04  0.00000000000E+00 0. -1.
         24    1    1    2    0    0  0.45545631685E+02 -0.91102239951E+02 -0.17798851687E+04  0.17846098881E+04  0.80419002446E+02 0.  1.
        -24    1    1    2    0    0 -0.45545631685E+02  0.91102239951E+02 -0.60006330731E+03  0.61393583657E+03  0.80419002446E+02 0. -1.
<mgrwt>
<rscale>  0 0.12977380E+03</rscale>
<asrwt>0</asrwt>
<pdfrwt beam="1">  1        2 0.36757693E+00 0.12977380E+03</pdfrwt>
<pdfrwt beam="2">  1       -2 0.14305558E-02 0.12977380E+03</pdfrwt>
<totfact> 0.58078442E+03</totfact>
</mgrwt>
</event>
<event>
 4    1  0.4999097E-001  0.8150508E+02  0.7546771E-02  0.1324834E+00
          2   -1    0    0  501    0  0.00000000000E+00  0.00000000000E+00  0.67768865679E+03  0.67768865679E+03  0.00000000000E+00 0. -1.
         -2   -1    0    0    0  501 -0.00000000000E+00 -0.00000000000E+00 -0.17876202240E+02  0.17876202240E+02  0.00000000000E+00 0.  1.
         24    1    1    2    0    0  0.91855716856E+01  0.95649340892E+01  0.56363111467E+03  0.56949373313E+03  0.80419002446E+02 0.  0.
        -24    1    1    2    0    0 -0.91855716856E+01 -0.95649340892E+01  0.96181339886E+02  0.12607112591E+03  0.80419002446E+02 0.  0.
<mgrwt>
<rscale>  0 0.81505084E+02</rscale>
<asrwt>0</asrwt>
<pdfrwt beam="1">  1        2 0.10425977E+00 0.81505084E+02</pdfrwt>
<pdfrwt beam="2">  1       -2 0.27501855E-02 0.81505084E+02</pdfrwt>
<totfact> 0.19018905E+04</totfact>
</mgrwt>
</event>
<event>
 4    1  0.4999097E-001  0.8864160E+02  0.7546771E-02  0.1306175E+00
         -2   -1    0    0    0  501 -0.00000000000E+00  0.00000000000E+00  0.18586168363E+03  0.18586168363E+03  0.00000000000E+00 0.  1.
          2   -1    0    0  501    0  0.00000000000E+00 -0.00000000000E+00 -0.78896533815E+02  0.78896533815E+02  0.00000000000E+00 0. -1.
         24    1    1    2    0    0 -0.20710177558E+01 -0.37226705928E+02 -0.36707302768E+02  0.95941434113E+02  0.80419002446E+02 0. -1.
        -24    1    1    2    0    0  0.20710177558E+01  0.37226705928E+02  0.14367245258E+03  0.16881678333E+03  0.80419002446E+02 0.  1.
<mgrwt>
<rscale>  0 0.88641597E+02</rscale>
<asrwt>0</asrwt>
<pdfrwt beam="1">  1        2 0.12137928E-01 0.88641597E+02</pdfrwt>
<pdfrwt beam="2">  1       -2 0.28594105E-01 0.88641597E+02</pdfrwt>
<totfact> 0.51771068E+03</totfact>
</mgrwt>
</event>
<event>
 4    1  0.4999097E-001  0.8658218E+02  0.7546771E-02  0.1311346E+00
          2   -1    0    0  501    0  0.00000000000E+00  0.00000000000E+00  0.18783399133E+04  0.18783399133E+04  0.00000000000E+00 0. -1.
         -2   -1    0    0    0  501 -0.00000000000E+00 -0.00000000000E+00 -0.14453484145E+02  0.14453484145E+02  0.00000000000E+00 0.  1.
         24    1    1    2    0    0 -0.60161108444E+01 -0.31512917086E+02  0.17371439061E+04  0.17393002685E+04  0.80419002446E+02 0.  0.
        -24    1    1    2    0    0  0.60161108444E+01  0.31512917086E+02  0.12674252311E+03  0.15349312900E+03  0.80419002446E+02 0.  0.
<mgrwt>
<rscale>  0 0.86582178E+02</rscale>
<asrwt>0</asrwt>
<pdfrwt beam="1">  1        2 0.28897518E+00 0.86582178E+02</pdfrwt>
<pdfrwt beam="2">  1       -2 0.22236144E-02 0.86582178E+02</pdfrwt>
<totfact> 0.55743922E+03</totfact>
</mgrwt>
</event>
<event>
 4    1  0.4999097E-001  0.9137846E+02  0.7546771E-02  0.1299547E+00
          2   -1    0    0  501    0  0.00000000000E+00  0.00000000000E+00  0.32457863909E+04  0.32457863909E+04  0.00000000000E+00 0. -1.
         -2   -1    0    0    0  501 -0.00000000000E+00 -0.00000000000E+00 -0.31393253481E+01  0.31393253481E+01  0.00000000000E+00 0.  1.
         24    1    1    2    0    0 -0.42941968847E+02  0.62282252229E+01  0.93110178202E+03  0.93557498252E+03  0.80419002446E+02 0.  0.
        -24    1    1    2    0    0  0.42941968847E+02 -0.62282252229E+01  0.23115452836E+04  0.23133507338E+04  0.80419002446E+02 0. -1.
<mgrwt>
<rscale>  0 0.91378452E+02</rscale>
<asrwt>0</asrwt>
<pdfrwt beam="1">  1        2 0.49934907E+00 0.91378464E+02</pdfrwt>
<pdfrwt beam="2">  1       -2 0.48297573E-03 0.91378464E+02</pdfrwt>
<totfact> 0.89893028E+03</totfact>
</mgrwt>
</event>
<event>
 4    1  0.4999097E-001  0.8492015E+02  0.7546771E-02  0.1315641E+00
          1   -1    0    0  501    0  0.00000000000E+00  0.00000000000E+00  0.32652496947E+02  0.32652496947E+02  0.00000000000E+00 0. -1.
         -1   -1    0    0    0  501 -0.00000000000E+00 -0.00000000000E+00 -0.24978498103E+03  0.24978498103E+03  0.00000000000E+00 0.  1.
         24    1    1    2    0    0 -0.23221282307E+02 -0.14317407335E+02 -0.15662707833E+03  0.17816698270E+03  0.80419002446E+02 0.  1.
        -24    1    1    2    0    0  0.23221282307E+02  0.14317407335E+02 -0.60505405752E+02  0.10427049527E+03  0.80419002446E+02 0. -1.
<mgrwt>
<rscale>  0 0.84920151E+02</rscale>
<asrwt>0</asrwt>
<pdfrwt beam="1">  1        1 0.50234612E-02 0.84920151E+02</pdfrwt>
<pdfrwt beam="2">  1       -1 0.38428457E-01 0.84920151E+02</pdfrwt>
<totfact> 0.98629687E+03</totfact>
</mgrwt>
</event>
<event>
 4    1  0.4999097E-001  0.8658673E+02  0.7546771E-02  0.1311334E+00
         -4   -1    0    0    0  501 -0.00000000000E+00  0.00000000000E+00  0.16530447189E+03  0.16530447189E+03  0.00000000000E+00 0.  1.
          4   -1    0    0  501    0  0.00000000000E+00 -0.00000000000E+00 -0.93244344723E+02  0.93244344723E+02  0.00000000000E+00 0. -1.
         24    1    1    2    0    0 -0.30670379158E+02 -0.94537298796E+01 -0.56615394869E+02  0.10345319742E+03  0.80419002446E+02 0. -1.
        -24    1    1    2    0    0  0.30670379158E+02  0.94537298796E+01  0.12867552203E+03  0.15509561919E+03  0.80419002446E+02 0. -1.
<mgrwt>
<rscale>  0 0.86586726E+02</rscale>
<asrwt>0</asrwt>
<pdfrwt beam="1">  1        4 0.14345284E-01 0.86586726E+02</pdfrwt>
<pdfrwt beam="2">  1       -4 0.25431457E-01 0.86586726E+02</pdfrwt>
<totfact> 0.88147213E+02</totfact>
</mgrwt>
</event>
<event>
 4    1  0.4999097E-001  0.8116768E+02  0.7546771E-02  0.1325770E+00
          2   -1    0    0  501    0  0.00000000000E+00  0.00000000000E+00  0.14514365724E+04  0.14514365724E+04  0.00000000000E+00 0. -1.
         -2   -1    0    0    0  501 -0.00000000000E+00 -0.00000000000E+00 -0.92735933738E+01  0.92735933738E+01  0.00000000000E+00 0.  1.
         24    1    1    2    0    0  0.60472618741E+01  0.91872903679E+01  0.12429337270E+04  0.12455811661E+04  0.80419002446E+02 0. -1.
        -24    1    1    2    0    0 -0.60472618741E+01 -0.91872903679E+01  0.19922925197E+03  0.21512899961E+03  0.80419002446E+02 0.  1.
<mgrwt>
<rscale>  0 0.81167676E+02</rscale>
<asrwt>0</asrwt>
<pdfrwt beam="1">  1        2 0.22329775E+00 0.81167676E+02</pdfrwt>
<pdfrwt beam="2">  1       -2 0.14267078E-02 0.81167676E+02</pdfrwt>
<totfact> 0.17177258E+04</totfact>
</mgrwt>
</event>
<event>
 4    1  0.4999097E-001  0.8598798E+02  0.7546771E-02  0.1312869E+00
          1   -1    0    0  501    0  0.00000000000E+00  0.00000000000E+00  0.50206677093E+02  0.50206677093E+02  0.00000000000E+00 0. -1.
         -1   -1    0    0    0  501 -0.00000000000E+00 -0.00000000000E+00 -0.15368928671E+03  0.15368928671E+03  0.00000000000E+00 0.  1.
         24    1    1    2    0    0 -0.21119563069E+02  0.21924438972E+02 -0.72576769723E+02  0.11252253297E+03  0.80419002446E+02 0. -1.
        -24    1    1    2    0    0  0.21119563069E+02 -0.21924438972E+02 -0.30905839897E+02  0.91373430835E+02  0.80419002446E+02 0.  0.
<mgrwt>
<rscale>  0 0.85987981E+02</rscale>
<asrwt>0</asrwt>
<pdfrwt beam="1">  1        1 0.77241041E-02 0.85987981E+02</pdfrwt>
<pdfrwt beam="2">  1       -1 0.23644506E-01 0.85987981E+02</pdfrwt>
<totfact> 0.12456117E+04</totfact>
</mgrwt>
</event>
<event>
 4    1  0.4999097E-001  0.9198507E+02  0.7546771E-02  0.1298115E+00
          2   -1    0    0  501    0  0.00000000000E+00  0.00000000000E+00  0.34185947879E+03  0.34185947879E+03  0.00000000000E+00 0. -1.
         -2   -1    0    0    0  501 -0.00000000000E+00 -0.00000000000E+00 -0.36868027991E+02  0.36868027991E+02  0.00000000000E+00 0.  1.
         24    1    1    2    0    0 -0.42737852936E+02 -0.12942674045E+02  0.26105721143E+03  0.27678894573E+03  0.80419002446E+02 0. -1.
        -24    1    1    2    0    0  0.42737852936E+02  0.12942674045E+02  0.43934239363E+02  0.10193856104E+03  0.80419002446E+02 0.  1.
<mgrwt>
<rscale>  0 0.91985069E+02</rscale>
<asrwt>0</asrwt>
<pdfrwt beam="1">  1        2 0.52593764E-01 0.91985069E+02</pdfrwt>
<pdfrwt beam="2">  1       -2 0.56720045E-02 0.91985069E+02</pdfrwt>
<totfact> 0.13922747E+04</totfact>
</mgrwt>
</event>
<event>
 4    1  0.4999097E-001  0.2605123E+03  0.7546771E-02  0.1106836E+00
         -1   -1    0    0    0  501 -0.00000000000E+00  0.00000000000E+00  0.50701875828E+02  0.50701875828E+02  0.00000000000E+00 0.  1.
          1   -1    0    0  501    0  0.00000000000E+00 -0.00000000000E+00 -0.13500936202E+04  0.13500936202E+04  0.00000000000E+00 0. -1.
         24    1    1    2    0    0 -0.55454950774E+02 -0.24150398896E+03 -0.71447934934E+03  0.76049154160E+03  0.80419002446E+02 0. -1.
        -24    1    1    2    0    0  0.55454950774E+02  0.24150398896E+03 -0.58491239505E+03  0.64030395445E+03  0.80419002446E+02 0.  1.
<mgrwt>
<rscale>  0 0.26051231E+03</rscale>
<asrwt>0</asrwt>
<pdfrwt beam="1">  1        1 0.20770673E+00 0.26051234E+03</pdfrwt>
<pdfrwt beam="2">  1       -1 0.78002878E-02 0.26051234E+03</pdfrwt>
<totfact> 0.80922305E+02</totfact>
</mgrwt>
</event>
<event>
 4    1  0.4999097E-001  0.1272085E+03  0.7546771E-02  0.1231658E+00
         -3   -1    0    0    0  501 -0.00000000000E+00  0.00000000000E+00  0.12007629707E+04  0.12007629707E+04  0.00000000000E+00 0.  1.
          3   -1    0    0  501    0  0.00000000000E+00 -0.00000000000E+00 -0.21180211089E+02  0.21180211089E+02  0.00000000000E+00 0. -1.
         24    1    1    2    0    0 -0.86239324868E+02 -0.47723952278E+02  0.95826593091E+03  0.96667244042E+03  0.80419002446E+02 0.  1.
        -24    1    1    2    0    0  0.86239324868E+02  0.47723952278E+02  0.22131682866E+03  0.25527074133E+03  0.80419002446E+02 0. -1.
<mgrwt>
<rscale>  0 0.12720854E+03</rscale>
<asrwt>0</asrwt>
<pdfrwt beam="1">  1        3 0.32584949E-02 0.12720854E+03</pdfrwt>
<pdfrwt beam="2">  1       -3 0.18473271E+00 0.12720854E+03</pdfrwt>
<totfact> 0.20761624E+02</totfact>
</mgrwt>
</event>
<event>
 4    1  0.4999097E-001  0.8665704E+02  0.7546771E-02  0.1311155E+00
          4   -1    0    0  501    0  0.00000000000E+00  0.00000000000E+00  0.19189712033E+03  0.19189712033E+03  0.00000000000E+00 0. -1.
         -4   -1    0    0    0  501 -0.00000000000E+00 -0.00000000000E+00 -0.39438333730E+02  0.39438333730E+02  0.00000000000E+00 0.  1.
         24    1    1    2    0    0 -0.28491148722E+02 -0.15181597125E+02  0.86412744721E+02  0.12237893957E+03  0.80419002446E+02 0. -1.
        -24    1    1    2    0    0  0.28491148722E+02  0.15181597125E+02  0.66046041879E+02  0.10895651449E+03  0.80419002446E+02 0.  1.
<mgrwt>
<rscale>  0 0.86657039E+02</rscale>
<asrwt>0</asrwt>
<pdfrwt beam="1">  1        4 0.29522633E-01 0.86657039E+02</pdfrwt>
<pdfrwt beam="2">  1       -4 0.60674361E-02 0.86657039E+02</pdfrwt>
<totfact> 0.27946822E+03</totfact>
</mgrwt>
</event>
<event>
 4    1  0.4999097E-001  0.1261443E+03  0.7546771E-02  0.1233292E+00
          3   -1    0    0  501    0  0.00000000000E+00  0.00000000000E+00  0.23232639462E+03  0.23232639462E+03  0.00000000000E+00 0. -1.
         -3   -1    0    0    0  501 -0.00000000000E+00 -0.00000000000E+00 -0.76990693914E+02  0.76990693914E+02  0.00000000000E+00 0.  1.
         24    1    1    2    0    0 -0.51448464273E+02  0.82451361905E+02  0.26282040874E+02  0.12885314580E+03  0.80419002446E+02 0.  1.
        -24    1    1    2    0    0  0.51448464273E+02 -0.82451361905E+02  0.12905365983E+03  0.18046394273E+03  0.80419002446E+02 0. -1.
<mgrwt>
<rscale>  0 0.12614431E+03</rscale>
<asrwt>0</asrwt>
<pdfrwt beam="1">  1        3 0.35742522E-01 0.12614431E+03</pdfrwt>
<pdfrwt beam="2">  1       -3 0.11844722E-01 0.12614431E+03</pdfrwt>
<totfact> 0.97672625E+02</totfact>
</mgrwt>
</event>
<event>
 4    1  0.4999097E-001  0.1784567E+03  0.7546771E-02  0.1169305E+00
          2   -1    0    0  501    0  0.00000000000E+00  0.00000000000E+00  0.69851357482E+03  0.69851357482E+03  0.00000000000E+00 0. -1.
         -2   -1    0    0    0  501 -0.00000000000E+00 -0.00000000000E+00 -0.77859338015E+02  0.77859338015E+02  0.00000000000E+00 0.  1.
         24    1    1    2    0    0 -0.10018435890E+03  0.12386550051E+03  0.56022646493E+03  0.58796298859E+03  0.80419002446E+02 0. -1.
        -24    1    1    2    0    0  0.10018435890E+03 -0.12386550051E+03  0.60427771871E+02  0.18840992424E+03  0.80419002446E+02 0.  1.
<mgrwt>
<rscale>  0 0.17845667E+03</rscale>
<asrwt>0</asrwt>
<pdfrwt beam="1">  1        2 0.10746362E+00 0.17845667E+03</pdfrwt>
<pdfrwt beam="2">  1       -2 0.11978360E-01 0.17845667E+03</pdfrwt>
<totfact> 0.20676195E+03</totfact>
</mgrwt>
</event>
<event>
 4    1  0.4999097E-001  0.9044316E+02  0.7546771E-02  0.1301782E+00
          4   -1    0    0  501    0  0.00000000000E+00  0.00000000000E+00  0.58644919658E+02  0.58644919658E+02  0.00000000000E+00 0. -1.
         -4   -1    0    0    0  501 -0.00000000000E+00 -0.00000000000E+00 -0.51616401913E+03  0.51616401913E+03  0.00000000000E+00 0.  1.
         24    1    1    2    0    0 -0.16955928416E+02 -0.37752435099E+02  0.16760270085E+02  0.91983000995E+02  0.80419002446E+02 0. -1.
        -24    1    1    2    0    0  0.16955928416E+02  0.37752435099E+02 -0.47427936955E+03  0.48282593779E+03  0.80419002446E+02 0.  1.
<mgrwt>
<rscale>  0 0.90443163E+02</rscale>
<asrwt>0</asrwt>
<pdfrwt beam="1">  1        4 0.90222955E-02 0.90443163E+02</pdfrwt>
<pdfrwt beam="2">  1       -4 0.79409847E-01 0.90443163E+02</pdfrwt>
<totfact> 0.20143931E+02</totfact>
</mgrwt>
</event>
<event>
 4    1  0.4999097E-001  0.9289463E+02  0.7546771E-02  0.1295990E+00
         -1   -1    0    0    0  501 -0.00000000000E+00  0.00000000000E+00  0.16614056817E+02  0.16614056817E+02  0.00000000000E+00 0.  1.
          1   -1    0    0  501    0  0.00000000000E+00 -0.00000000000E+00 -0.11367922074E+04  0.11367922074E+04  0.00000000000E+00 0. -1.
         24    1    1    2    0    0  0.10874862088E+02 -0.45209886018E+02 -0.13508721666E+03  0.16394501663E+03  0.80419002446E+02 0.  1.
        -24    1    1    2    0    0 -0.10874862088E+02  0.45209886018E+02 -0.98509093397E+03  0.98946124763E+03  0.80419002446E+02 0. -1.
<mgrwt>
<rscale>  0 0.92894630E+02</rscale>
<asrwt>0</asrwt>
<pdfrwt beam="1">  1        1 0.17489111E+00 0.92894630E+02</pdfrwt>
<pdfrwt beam="2">  1       -1 0.25560087E-02 0.92894630E+02</pdfrwt>
<totfact> 0.58192744E+03</totfact>
</mgrwt>
</event>
<event>
 4    1  0.4999097E-001  0.8208495E+02  0.7546771E-02  0.1323237E+00
         -4   -1    0    0    0  501 -0.00000000000E+00  0.00000000000E+00  0.67821278176E+02  0.67821278176E+02  0.00000000000E+00 0.  1.
          4   -1    0    0  501    0  0.00000000000E+00 -0.00000000000E+00 -0.10306377822E+03  0.10306377822E+03  0.00000000000E+00 0. -1.
         24    1    1    2    0    0  0.77396904595E+01  0.14519515737E+02 -0.13985589743E+01  0.82096839569E+02  0.80419002446E+02 0.  1.
        -24    1    1    2    0    0 -0.77396904595E+01 -0.14519515737E+02 -0.33843941067E+02  0.88788216825E+02  0.80419002446E+02 0. -1.
<mgrwt>
<rscale>  0 0.82084936E+02</rscale>
<asrwt>0</asrwt>
<pdfrwt beam="1">  1        4 0.15855966E-01 0.82084947E+02</pdfrwt>
<pdfrwt beam="2">  1       -4 0.10434043E-01 0.82084947E+02</pdfrwt>
<totfact> 0.34592748E+03</totfact>
</mgrwt>
</event>
<event>
 4    1  0.4999097E-001  0.8057281E+02  0.7546771E-02  0.1327434E+00
          1   -1    0    0  501    0  0.00000000000E+00  0.00000000000E+00  0.43579077989E+03  0.43579077989E+03  0.00000000000E+00 0. -1.
         -1   -1    0    0    0  501 -0.00000000000E+00 -0.00000000000E+00 -0.42966366052E+02  0.42966366052E+02  0.00000000000E+00 0.  1.
         24    1    1    2    0    0  0.48142467911E+01  0.12590175385E+01  0.29317011794E+01  0.80626130525E+02  0.80419002446E+02 0.  0.
        -24    1    1    2    0    0 -0.48142467911E+01 -0.12590175385E+01  0.38989271266E+03  0.39813101541E+03  0.80419002446E+02 0. -1.
<mgrwt>
<rscale>  0 0.80572812E+02</rscale>
<asrwt>0</asrwt>
<pdfrwt beam="1">  1        1 0.67044733E-01 0.80572812E+02</pdfrwt>
<pdfrwt beam="2">  1       -1 0.66102104E-02 0.80572812E+02</pdfrwt>
<totfact> 0.57947424E+03</totfact>
</mgrwt>
</event>
<event>
 4    1  0.4999097E-001  0.9436277E+02  0.7546771E-02  0.1292618E+00
         -1   -1    0    0    0  501 -0.00000000000E+00  0.00000000000E+00  0.18496939740E+02  0.18496939740E+02  0.00000000000E+00 0.  1.
          1   -1    0    0  501    0  0.00000000000E+00 -0.00000000000E+00 -0.67831288426E+03  0.67831288426E+03  0.00000000000E+00 0. -1.
         24    1    1    2    0    0  0.45961299961E+02 -0.18018759691E+02 -0.14218738275E+03  0.17065047484E+03  0.80419002446E+02 0.  1.
        -24    1    1    2    0    0 -0.45961299961E+02  0.18018759691E+02 -0.51762856177E+03  0.52615934916E+03  0.80419002446E+02 0. -1.
<mgrwt>
<rscale>  0 0.94362772E+02</rscale>
<asrwt>0</asrwt>
<pdfrwt beam="1">  1        1 0.10435581E+00 0.94362772E+02</pdfrwt>
<pdfrwt beam="2">  1       -1 0.28456836E-02 0.94362772E+02</pdfrwt>
<totfact> 0.11195802E+04</totfact>
</mgrwt>
</event>
<event>
 4    1  0.4999097E-001  0.8894318E+02  0.7546771E-02  0.1305431E+00
         -2   -1    0    0    0  501 -0.00000000000E+00  0.00000000000E+00  0.99078904441E+01  0.99078904441E+01  0.00000000000E+00 0.  1.
          2   -1    0    0  501    0  0.00000000000E+00 -0.00000000000E+00 -0.13885182952E+04  0.13885182952E+04  0.00000000000E+00 0. -1.
         24    1    1    2    0    0 -0.35554712578E+02 -0.13399068323E+02 -0.11451188882E+04  0.11485678721E+04  0.80419002446E+02 0. -1.
        -24    1    1    2    0    0  0.35554712578E+02  0.13399068323E+02 -0.23349151655E+03  0.24985831360E+03  0.80419002446E+02 0.  1.
<mgrwt>
<rscale>  0 0.88943176E+02</rscale>
<asrwt>0</asrwt>
<pdfrwt beam="1">  1        2 0.21361801E+00 0.88943176E+02</pdfrwt>
<pdfrwt beam="2">  1       -2 0.15242922E-02 0.88943176E+02</pdfrwt>
<totfact> 0.16955023E+04</totfact>
</mgrwt>
</event>
<event>
 4    1  0.4999097E-001  0.8664872E+02  0.7546771E-02  0.1311176E+00
         -2   -1    0    0    0  501 -0.00000000000E+00  0.00000000000E+00  0.57631228314E+02  0.57631228314E+02  0.00000000000E+00 0.  1.
          2   -1    0    0  501    0  0.00000000000E+00 -0.00000000000E+00 -0.15538546096E+03  0.15538546096E+03  0.00000000000E+00 0. -1.
         24    1    1    2    0    0 -0.21999037789E+02  0.23597167344E+02 -0.91691730400E+02  0.12615614669E+03  0.80419002446E+02 0. -1.
        -24    1    1    2    0    0  0.21999037789E+02 -0.23597167344E+02 -0.60625022502E+01  0.86860542585E+02  0.80419002446E+02 0.  1.
<mgrwt>
<rscale>  0 0.86648716E+02</rscale>
<asrwt>0</asrwt>
<pdfrwt beam="1">  1        2 0.23905456E-01 0.86648716E+02</pdfrwt>
<pdfrwt beam="2">  1       -2 0.88663427E-02 0.86648716E+02</pdfrwt>
<totfact> 0.16217837E+04</totfact>
</mgrwt>
</event>
<event>
 4    1  0.4999097E-001  0.8084220E+02  0.7546771E-02  0.1326678E+00
         -2   -1    0    0    0  501 -0.00000000000E+00  0.00000000000E+00  0.11420025773E+02  0.11420025773E+02  0.00000000000E+00 0.  1.
          2   -1    0    0  501    0  0.00000000000E+00 -0.00000000000E+00 -0.73762301840E+03  0.73762301840E+03  0.00000000000E+00 0. -1.
         24    1    1    2    0    0  0.20754097981E+01  0.79961495542E+01 -0.54041891733E+03  0.54643212560E+03  0.80419002446E+02 0. -1.
        -24    1    1    2    0    0 -0.20754097981E+01 -0.79961495542E+01 -0.18578407530E+03  0.20261091857E+03  0.80419002446E+02 0.  0.
<mgrwt>
<rscale>  0 0.80842202E+02</rscale>
<asrwt>0</asrwt>
<pdfrwt beam="1">  1        2 0.11348050E+00 0.80842202E+02</pdfrwt>
<pdfrwt beam="2">  1       -2 0.17569266E-02 0.80842202E+02</pdfrwt>
<totfact> 0.32760386E+04</totfact>
</mgrwt>
</event>
<event>
 4    1  0.4999097E-001  0.8893137E+02  0.7546771E-02  0.1305460E+00
          2   -1    0    0  501    0  0.00000000000E+00  0.00000000000E+00  0.21677084649E+02  0.21677084649E+02  0.00000000000E+00 0. -1.
         -2   -1    0    0    0  501 -0.00000000000E+00 -0.00000000000E+00 -0.75258374035E+03  0.75258374035E+03  0.00000000000E+00 0.  1.
         24    1    1    2    0    0 -0.16220323192E+02  0.34328893391E+02 -0.87578525285E+02  0.12481500651E+03  0.80419002446E+02 0. -1.
        -24    1    1    2    0    0  0.16220323192E+02 -0.34328893391E+02 -0.64332813042E+03  0.64944581848E+03  0.80419002446E+02 0.  1.
<mgrwt>
<rscale>  0 0.88931365E+02</rscale>
<asrwt>0</asrwt>
<pdfrwt beam="1">  1        2 0.33349358E-02 0.88931365E+02</pdfrwt>
<pdfrwt beam="2">  1       -2 0.11578213E+00 0.88931365E+02</pdfrwt>
<totfact> 0.15346963E+03</totfact>
</mgrwt>
</event>
<event>
 4    1  0.4999097E-001  0.1050115E+03  0.7546771E-02  0.1270097E+00
         -1   -1    0    0    0  501 -0.00000000000E+00  0.00000000000E+00  0.35308390192E+02  0.35308390192E+02  0.00000000000E+00 0.  1.
          1   -1    0    0  501    0  0.00000000000E+00 -0.00000000000E+00 -0.38801822342E+03  0.38801822342E+03  0.00000000000E+00 0. -1.
         24    1    1    2    0    0  0.65171161396E+02 -0.17689335896E+02 -0.82863637945E+02  0.13376767670E+03  0.80419002446E+02 0.  1.
        -24    1    1    2    0    0 -0.65171161396E+02  0.17689335896E+02 -0.26984619528E+03  0.28955893691E+03  0.80419002446E+02 0. -1.
<mgrwt>
<rscale>  0 0.10501147E+03</rscale>
<asrwt>0</asrwt>
<pdfrwt beam="1">  1        1 0.59695109E-01 0.10501147E+03</pdfrwt>
<pdfrwt beam="2">  1       -1 0.54320602E-02 0.10501147E+03</pdfrwt>
<totfact> 0.91234409E+03</totfact>
</mgrwt>
</event>
<event>
 4    1  0.4999097E-001  0.1225351E+03  0.7546771E-02  0.1238973E+00
         -2   -1    0    0    0  501 -0.00000000000E+00  0.00000000000E+00  0.13365432857E+03  0.13365432857E+03  0.00000000000E+00 0.  1.
          2   -1    0    0  501    0  0.00000000000E+00 -0.00000000000E+00 -0.37095939814E+03  0.37095939814E+03  0.00000000000E+00 0. -1.
         24    1    1    2    0    0 -0.87726081948E+02  0.29185202617E+02 -0.32931909585E+03  0.35137718246E+03  0.80419002446E+02 0. -1.
        -24    1    1    2    0    0  0.87726081948E+02 -0.29185202617E+02  0.92014026284E+02  0.15323654425E+03  0.80419002446E+02 0.  1.
<mgrwt>
<rscale>  0 0.12253513E+03</rscale>
<asrwt>0</asrwt>
<pdfrwt beam="1">  1        2 0.57070677E-01 0.12253513E+03</pdfrwt>
<pdfrwt beam="2">  1       -2 0.20562204E-01 0.12253513E+03</pdfrwt>
<totfact> 0.17002855E+03</totfact>
</mgrwt>
</event>
<event>
 4    1  0.4999097E-001  0.1937633E+03  0.7546771E-02  0.1155110E+00
         -2   -1    0    0    0  501 -0.00000000000E+00  0.00000000000E+00  0.21247012317E+03  0.21247012317E+03  0.00000000000E+00 0.  1.
          2   -1    0    0  501    0  0.00000000000E+00 -0.00000000000E+00 -0.40764919192E+03  0.40764919192E+03  0.00000000000E+00 0. -1.
         24    1    1    2    0    0 -0.70601282330E+02  0.16153165971E+03 -0.33096586954E+03  0.38351354723E+03  0.80419002446E+02 0. -1.
        -24    1    1    2    0    0  0.70601282330E+02 -0.16153165971E+03  0.13578680079E+03  0.23660576785E+03  0.80419002446E+02 0.  1.
<mgrwt>
<rscale>  0 0.19376335E+03</rscale>
<asrwt>0</asrwt>
<pdfrwt beam="1">  1        2 0.62715260E-01 0.19376335E+03</pdfrwt>
<pdfrwt beam="2">  1       -2 0.32687711E-01 0.19376335E+03</pdfrwt>
<totfact> 0.68433350E+02</totfact>
</mgrwt>
</event>
<event>
 4    1  0.4999097E-001  0.8190231E+02  0.7546771E-02  0.1323738E+00
          4   -1    0    0  501    0  0.00000000000E+00  0.00000000000E+00  0.34564118042E+02  0.34564118042E+02  0.00000000000E+00 0. -1.
         -4   -1    0    0    0  501 -0.00000000000E+00 -0.00000000000E+00 -0.22702632893E+03  0.22702632893E+03  0.00000000000E+00 0.  1.
         24    1    1    2    0    0 -0.15497406730E+02  0.77588911434E+00 -0.46400225358E+02  0.94132717410E+02  0.80419002446E+02 0. -1.
        -24    1    1    2    0    0  0.15497406730E+02 -0.77588911434E+00 -0.14606198553E+03  0.16745772957E+03  0.80419002446E+02 0.  1.
<mgrwt>
<rscale>  0 0.81902305E+02</rscale>
<asrwt>0</asrwt>
<pdfrwt beam="1">  1        4 0.53175566E-02 0.81902305E+02</pdfrwt>
<pdfrwt beam="2">  1       -4 0.34927127E-01 0.81902305E+02</pdfrwt>
<totfact> 0.24747644E+03</totfact>
</mgrwt>
</event>
<event>
 4    1  0.4999097E-001  0.8394311E+02  0.7546771E-02  0.1318220E+00
          1   -1    0    0  501    0  0.00000000000E+00  0.00000000000E+00  0.26689936208E+04  0.26689936208E+04  0.00000000000E+00 0. -1.
         -1   -1    0    0    0  501 -0.00000000000E+00 -0.00000000000E+00 -0.58985859656E+01  0.58985859656E+01  0.00000000000E+00 0.  1.
         24    1    1    2    0    0  0.23414396802E+02 -0.55674255856E+01  0.33749493200E+03  0.34777762332E+03  0.80419002446E+02 0.  1.
        -24    1    1    2    0    0 -0.23414396802E+02  0.55674255856E+01  0.23256001029E+04  0.23271145835E+04  0.80419002446E+02 0. -1.
<mgrwt>
<rscale>  0 0.83943113E+02</rscale>
<asrwt>0</asrwt>
<pdfrwt beam="1">  1        1 0.41061344E+00 0.83943113E+02</pdfrwt>
<pdfrwt beam="2">  1       -1 0.90747689E-03 0.83943113E+02</pdfrwt>
<totfact> 0.26490237E+03</totfact>
</mgrwt>
</event>
<event>
 4    1  0.4999097E-001  0.8260072E+02  0.7546771E-02  0.1321829E+00
          1   -1    0    0  501    0  0.00000000000E+00  0.00000000000E+00  0.17747792125E+03  0.17747792125E+03  0.00000000000E+00 0. -1.
         -1   -1    0    0    0  501 -0.00000000000E+00 -0.00000000000E+00 -0.39140540407E+02  0.39140540407E+02  0.00000000000E+00 0.  1.
         24    1    1    2    0    0  0.18115545206E+02  0.52427476199E+01  0.83622289471E+02  0.11753962154E+03  0.80419002446E+02 0.  1.
        -24    1    1    2    0    0 -0.18115545206E+02 -0.52427476199E+01  0.54715091368E+02  0.99078840115E+02  0.80419002446E+02 0.  1.
<mgrwt>
<rscale>  0 0.82600708E+02</rscale>
<asrwt>0</asrwt>
<pdfrwt beam="1">  1        1 0.27304295E-01 0.82600719E+02</pdfrwt>
<pdfrwt beam="2">  1       -1 0.60216217E-02 0.82600719E+02</pdfrwt>
<totfact> 0.19993244E+04</totfact>
</mgrwt>
</event>
<event>
 4    1  0.4999097E-001  0.8077909E+02  0.7546771E-02  0.1326855E+00
         -1   -1    0    0    0  501 -0.00000000000E+00  0.00000000000E+00  0.11443048284E+02  0.11443048284E+02  0.00000000000E+00 0.  1.
          1   -1    0    0  501    0  0.00000000000E+00 -0.00000000000E+00 -0.11075609305E+04  0.11075609305E+04  0.00000000000E+00 0. -1.
         24    1    1    2    0    0 -0.63633778541E+01  0.41895569621E+01 -0.15835436069E+03  0.17776772617E+03  0.80419002446E+02 0.  1.
        -24    1    1    2    0    0  0.63633778541E+01 -0.41895569621E+01 -0.93776352152E+03  0.94123625260E+03  0.80419002446E+02 0.  0.
<mgrwt>
<rscale>  0 0.80779087E+02</rscale>
<asrwt>0</asrwt>
<pdfrwt beam="1">  1        1 0.17039407E+00 0.80779087E+02</pdfrwt>
<pdfrwt beam="2">  1       -1 0.17604681E-02 0.80779087E+02</pdfrwt>
<totfact> 0.10288484E+04</totfact>
</mgrwt>
</event>
<event>
 4    1  0.4999097E-001  0.1016679E+03  0.7546771E-02  0.1276827E+00
         -1   -1    0    0    0  501 -0.00000000000E+00  0.00000000000E+00  0.19289744023E+02  0.19289744023E+02  0.00000000000E+00 0.  1.
          1   -1    0    0  501    0  0.00000000000E+00 -0.00000000000E+00 -0.54310411132E+03  0.54310411132E+03  0.00000000000E+00 0. -1.
         24    1    1    2    0    0  0.56716904663E+02 -0.25540788492E+02 -0.29441181700E+03  0.31147178539E+03  0.80419002446E+02 0.  1.
        -24    1    1    2    0    0 -0.56716904663E+02  0.25540788492E+02 -0.22940255030E+03  0.25092206995E+03  0.80419002446E+02 0. -1.
<mgrwt>
<rscale>  0 0.10166788E+03</rscale>
<asrwt>0</asrwt>
<pdfrwt beam="1">  1        1 0.83554469E-01 0.10166789E+03</pdfrwt>
<pdfrwt beam="2">  1       -1 0.29676533E-02 0.10166789E+03</pdfrwt>
<totfact> 0.14314643E+04</totfact>
</mgrwt>
</event>
<event>
 4    1  0.4999097E-001  0.8141060E+02  0.7546771E-02  0.1325095E+00
          1   -1    0    0  501    0  0.00000000000E+00  0.00000000000E+00  0.14662217460E+04  0.14662217460E+04  0.00000000000E+00 0. -1.
         -1   -1    0    0    0  501 -0.00000000000E+00 -0.00000000000E+00 -0.46691294443E+01  0.46691294443E+01  0.00000000000E+00 0.  1.
         24    1    1    2    0    0  0.10411438864E+02 -0.72160669519E+01  0.59944959802E+03  0.60495248260E+03  0.80419002446E+02 0.  1.
        -24    1    1    2    0    0 -0.10411438864E+02  0.72160669519E+01  0.86210301854E+03  0.86593839285E+03  0.80419002446E+02 0. -1.
<mgrwt>
<rscale>  0 0.81410599E+02</rscale>
<asrwt>0</asrwt>
<pdfrwt beam="1">  1        1 0.22557221E+00 0.81410599E+02</pdfrwt>
<pdfrwt beam="2">  1       -1 0.71832878E-03 0.81410599E+02</pdfrwt>
<totfact> 0.21126288E+04</totfact>
</mgrwt>
</event>
<event>
 4    1  0.4999097E-001  0.8360085E+02  0.7546771E-02  0.1319133E+00
          1   -1    0    0  501    0  0.00000000000E+00  0.00000000000E+00  0.41206589040E+03  0.41206589040E+03  0.00000000000E+00 0. -1.
         -1   -1    0    0    0  501 -0.00000000000E+00 -0.00000000000E+00 -0.17081190176E+02  0.17081190176E+02  0.00000000000E+00 0.  1.
         24    1    1    2    0    0  0.33595986393E+01  0.22596429458E+02  0.17950265303E+03  0.19801591837E+03  0.80419002446E+02 0.  1.
        -24    1    1    2    0    0 -0.33595986393E+01 -0.22596429458E+02  0.21548204719E+03  0.23113116220E+03  0.80419002446E+02 0.  0.
<mgrwt>
<rscale>  0 0.83600846E+02</rscale>
<asrwt>0</asrwt>
<pdfrwt beam="1">  1        1 0.63394745E-01 0.83600846E+02</pdfrwt>
<pdfrwt beam="2">  1       -1 0.26278757E-02 0.83600846E+02</pdfrwt>
<totfact> 0.23773791E+04</totfact>
</mgrwt>
</event>
<event>
 4    1  0.4999097E-001  0.8258309E+02  0.7546771E-02  0.1321877E+00
         -2   -1    0    0    0  501 -0.00000000000E+00  0.00000000000E+00  0.10814744460E+03  0.10814744460E+03  0.00000000000E+00 0.  1.
          2   -1    0    0  501    0  0.00000000000E+00 -0.00000000000E+00 -0.63316057261E+02  0.63316057261E+02  0.00000000000E+00 0. -1.
         24    1    1    2    0    0  0.59474352103E+01 -0.17815116190E+02  0.16982307954E+02  0.84311120787E+02  0.80419002446E+02 0. -1.
        -24    1    1    2    0    0 -0.59474352103E+01  0.17815116190E+02  0.27849079387E+02  0.87152381078E+02  0.80419002446E+02 0.  1.
<mgrwt>
<rscale>  0 0.82583087E+02</rscale>
<asrwt>0</asrwt>
<pdfrwt beam="1">  1        2 0.97409319E-02 0.82583087E+02</pdfrwt>
<pdfrwt beam="2">  1       -2 0.16638068E-01 0.82583087E+02</pdfrwt>
<totfact> 0.16761495E+04</totfact>
</mgrwt>
</event>
<event>
 4    1  0.4999097E-001  0.8130780E+02  0.7546771E-02  0.1325381E+00
          2   -1    0    0  501    0  0.00000000000E+00  0.00000000000E+00  0.53789193891E+03  0.53789193891E+03  0.00000000000E+00 0. -1.
         -2   -1    0    0    0  501 -0.00000000000E+00 -0.00000000000E+00 -0.12298008098E+02  0.12298008098E+02  0.00000000000E+00 0.  1.
         24    1    1    2    0    0  0.52468946981E+01  0.10780165643E+02  0.26959673090E+03  0.28159075827E+03  0.80419002446E+02 0.  1.
        -24    1    1    2    0    0 -0.52468946981E+01 -0.10780165643E+02  0.25599719990E+03  0.26859918873E+03  0.80419002446E+02 0.  0.
<mgrwt>
<rscale>  0 0.81307797E+02</rscale>
<asrwt>0</asrwt>
<pdfrwt beam="1">  1        2 0.82752588E-01 0.81307797E+02</pdfrwt>
<pdfrwt beam="2">  1       -2 0.18920017E-02 0.81307797E+02</pdfrwt>
<totfact> 0.42125049E+04</totfact>
</mgrwt>
</event>
<event>
 4    1  0.4999097E-001  0.8650752E+02  0.7546771E-02  0.1311537E+00
         -2   -1    0    0    0  501 -0.00000000000E+00  0.00000000000E+00  0.76088470903E+01  0.76088470903E+01  0.00000000000E+00 0.  1.
          2   -1    0    0  501    0  0.00000000000E+00 -0.00000000000E+00 -0.13334142361E+04  0.13334142361E+04  0.00000000000E+00 0. -1.
         24    1    1    2    0    0  0.33251200418E+01  0.31706129086E+02 -0.10063689999E+04  0.10100802517E+04  0.80419002446E+02 0. -1.
        -24    1    1    2    0    0 -0.33251200418E+01 -0.31706129086E+02 -0.31943638910E+03  0.33094283144E+03  0.80419002446E+02 0.  0.
<mgrwt>
<rscale>  0 0.86507520E+02</rscale>
<asrwt>0</asrwt>
<pdfrwt beam="1">  1        2 0.20514049E+00 0.86507520E+02</pdfrwt>
<pdfrwt beam="2">  1       -2 0.11705928E-02 0.86507520E+02</pdfrwt>
<totfact> 0.26308784E+04</totfact>
</mgrwt>
</event>
<event>
 4    1  0.4999097E-001  0.9342109E+02  0.7546771E-02  0.1294772E+00
          1   -1    0    0  501    0  0.00000000000E+00  0.00000000000E+00  0.12775202394E+04  0.12775202394E+04  0.00000000000E+00 0. -1.
         -1   -1    0    0    0  501 -0.00000000000E+00 -0.00000000000E+00 -0.70349285531E+01  0.70349285531E+01  0.00000000000E+00 0.  1.
         24    1    1    2    0    0 -0.51009167924E+01 -0.47268005533E+02  0.52604873234E+03  0.53427967250E+03  0.80419002446E+02 0.  1.
        -24    1    1    2    0    0  0.51009167924E+01  0.47268005533E+02  0.74443657849E+03  0.75027549544E+03  0.80419002446E+02 0. -1.
<mgrwt>
<rscale>  0 0.93421088E+02</rscale>
<asrwt>0</asrwt>
<pdfrwt beam="1">  1        1 0.19654139E+00 0.93421088E+02</pdfrwt>
<pdfrwt beam="2">  1       -1 0.10822977E-02 0.93421088E+02</pdfrwt>
<totfact> 0.15904915E+04</totfact>
</mgrwt>
</event>
<event>
 4    1  0.4999097E-001  0.1112315E+03  0.7546771E-02  0.1258306E+00
         -2   -1    0    0    0  501 -0.00000000000E+00  0.00000000000E+00  0.18632402376E+02  0.18632402376E+02  0.00000000000E+00 0.  1.
          2   -1    0    0  501    0  0.00000000000E+00 -0.00000000000E+00 -0.67417544455E+03  0.67417544455E+03  0.00000000000E+00 0. -1.
         24    1    1    2    0    0 -0.76756394961E+02 -0.36999322862E+01 -0.28527434690E+03  0.30619259073E+03  0.80419002446E+02 0.  0.
        -24    1    1    2    0    0  0.76756394961E+02  0.36999322862E+01 -0.37026869528E+03  0.38661525620E+03  0.80419002446E+02 0.  1.
<mgrwt>
<rscale>  0 0.11123153E+03</rscale>
<asrwt>0</asrwt>
<pdfrwt beam="1">  1        2 0.10371931E+00 0.11123154E+03</pdfrwt>
<pdfrwt beam="2">  1       -2 0.28665231E-02 0.11123154E+03</pdfrwt>
<totfact> 0.18533175E+04</totfact>
</mgrwt>
</event>
<event>
 4    1  0.4999097E-001  0.9564102E+02  0.7546771E-02  0.1289739E+00
          1   -1    0    0  501    0  0.00000000000E+00  0.00000000000E+00  0.19527478361E+03  0.19527478361E+03  0.00000000000E+00 0. -1.
         -1   -1    0    0    0  501 -0.00000000000E+00 -0.00000000000E+00 -0.56018208618E+02  0.56018208618E+02  0.00000000000E+00 0.  1.
         24    1    1    2    0    0  0.36592377463E+02 -0.36619423638E+02  0.12047941537E+03  0.15382616734E+03  0.80419002446E+02 0. -1.
        -24    1    1    2    0    0 -0.36592377463E+02  0.36619423638E+02  0.18777159621E+02  0.97466824888E+02  0.80419002446E+02 0.  1.
<mgrwt>
<rscale>  0 0.95641009E+02</rscale>
<asrwt>0</asrwt>
<pdfrwt beam="1">  1        1 0.30042274E-01 0.95641021E+02</pdfrwt>
<pdfrwt beam="2">  1       -1 0.86181860E-02 0.95641021E+02</pdfrwt>
<totfact> 0.10598555E+04</totfact>
</mgrwt>
</event>
<event>
 4    1  0.4999097E-001  0.1221483E+03  0.7546771E-02  0.1239595E+00
          1   -1    0    0  501    0  0.00000000000E+00  0.00000000000E+00  0.13445572368E+04  0.13445572368E+04  0.00000000000E+00 0. -1.
         -1   -1    0    0    0  501 -0.00000000000E+00 -0.00000000000E+00 -0.23194344484E+02  0.23194344484E+02  0.00000000000E+00 0.  1.
         24    1    1    2    0    0  0.90505551404E+02  0.16178052504E+02  0.16678500754E+03  0.20673035315E+03  0.80419002446E+02 0.  1.
        -24    1    1    2    0    0 -0.90505551404E+02 -0.16178052504E+02  0.11545778847E+04  0.11610212281E+04  0.80419002446E+02 0. -1.
<mgrwt>
<rscale>  0 0.12214827E+03</rscale>
<asrwt>0</asrwt>
<pdfrwt beam="1">  1        1 0.20685490E+00 0.12214827E+03</pdfrwt>
<pdfrwt beam="2">  1       -1 0.35683617E-02 0.12214827E+03</pdfrwt>
<totfact> 0.26280653E+03</totfact>
</mgrwt>
</event>
<event>
 4    1  0.4999097E-001  0.1140728E+03  0.7546771E-02  0.1253208E+00
          1   -1    0    0  501    0  0.00000000000E+00  0.00000000000E+00  0.64218503253E+03  0.64218503253E+03  0.00000000000E+00 0. -1.
         -1   -1    0    0    0  501 -0.00000000000E+00 -0.00000000000E+00 -0.20826361579E+02  0.20826361579E+02  0.00000000000E+00 0.  1.
         24    1    1    2    0    0  0.75036562926E+02 -0.30247433007E+02  0.25615759241E+03  0.28040920292E+03  0.80419002446E+02 0. -1.
        -24    1    1    2    0    0 -0.75036562926E+02  0.30247433007E+02  0.36520107855E+03  0.38260219119E+03  0.80419002446E+02 0.  1.
<mgrwt>
<rscale>  0 0.11407282E+03</rscale>
<asrwt>0</asrwt>
<pdfrwt beam="1">  1        1 0.98797682E-01 0.11407282E+03</pdfrwt>
<pdfrwt beam="2">  1       -1 0.32040561E-02 0.11407282E+03</pdfrwt>
<totfact> 0.10320818E+04</totfact>
</mgrwt>
</event>
<event>
 4    1  0.4999097E-001  0.1022768E+03  0.7546771E-02  0.1275580E+00
         -3   -1    0    0    0  501 -0.00000000000E+00  0.00000000000E+00  0.58803655996E+02  0.58803655996E+02  0.00000000000E+00 0.  1.
          3   -1    0    0  501    0  0.00000000000E+00 -0.00000000000E+00 -0.22822118554E+03  0.22822118554E+03  0.00000000000E+00 0. -1.
         24    1    1    2    0    0 -0.35092298529E+02  0.52553448460E+02 -0.17313025238E+02  0.10373182327E+03  0.80419002446E+02 0.  1.
        -24    1    1    2    0    0  0.35092298529E+02 -0.52553448460E+02 -0.15210450431E+03  0.18329301827E+03  0.80419002446E+02 0. -1.
<mgrwt>
<rscale>  0 0.10227683E+03</rscale>
<asrwt>0</asrwt>
<pdfrwt beam="1">  1        3 0.35110952E-01 0.10227683E+03</pdfrwt>
<pdfrwt beam="2">  1       -3 0.90467163E-02 0.10227683E+03</pdfrwt>
<totfact> 0.15192731E+03</totfact>
</mgrwt>
</event>
<event>
 4    1  0.4999097E-001  0.8794006E+02  0.7546771E-02  0.1307918E+00
         -2   -1    0    0    0  501 -0.00000000000E+00  0.00000000000E+00  0.22956349254E+03  0.22956349254E+03  0.00000000000E+00 0.  1.
          2   -1    0    0  501    0  0.00000000000E+00 -0.00000000000E+00 -0.34419794519E+02  0.34419794519E+02  0.00000000000E+00 0. -1.
         24    1    1    2    0    0  0.16630518405E+02 -0.31458855132E+02  0.11682257323E+03  0.14622230773E+03  0.80419002446E+02 0.  1.
        -24    1    1    2    0    0 -0.16630518405E+02  0.31458855132E+02  0.78321124793E+02  0.11776097933E+03  0.80419002446E+02 0. -1.
<mgrwt>
<rscale>  0 0.87940045E+02</rscale>
<asrwt>0</asrwt>
<pdfrwt beam="1">  1        2 0.52953531E-02 0.87940056E+02</pdfrwt>
<pdfrwt beam="2">  1       -2 0.35317459E-01 0.87940056E+02</pdfrwt>
<totfact> 0.98719254E+03</totfact>
</mgrwt>
</event>
<event>
 4    1  0.4999097E-001  0.8328915E+02  0.7546771E-02  0.1319968E+00
         -1   -1    0    0    0  501 -0.00000000000E+00  0.00000000000E+00  0.22245172351E+02  0.22245172351E+02  0.00000000000E+00 0.  1.
          1   -1    0    0  501    0  0.00000000000E+00 -0.00000000000E+00 -0.23151271425E+04  0.23151271425E+04  0.00000000000E+00 0. -1.
         24    1    1    2    0    0  0.21262308465E+02 -0.42168166473E+01 -0.59311302049E+02  0.10224927290E+03  0.80419002446E+02 0.  1.
        -24    1    1    2    0    0 -0.21262308465E+02  0.42168166473E+01 -0.22335706681E+04  0.22351230419E+04  0.80419002446E+02 0. -1.
<mgrwt>
<rscale>  0 0.83289155E+02</rscale>
<asrwt>0</asrwt>
<pdfrwt beam="1">  1        1 0.35617331E+00 0.83289155E+02</pdfrwt>
<pdfrwt beam="2">  1       -1 0.34223351E-02 0.83289155E+02</pdfrwt>
<totfact> 0.67762751E+02</totfact>
</mgrwt>
</event>
<event>
 4    1  0.4999097E-001  0.8389800E+02  0.7546771E-02  0.1318340E+00
         -1   -1    0    0    0  501 -0.00000000000E+00  0.00000000000E+00  0.20364780031E+02  0.20364780031E+02  0.00000000000E+00 0.  1.
          1   -1    0    0  501    0  0.00000000000E+00 -0.00000000000E+00 -0.56545227806E+03  0.56545227806E+03  0.00000000000E+00 0. -1.
         24    1    1    2    0    0 -0.23034907733E+02  0.64071463838E+01 -0.89918674510E+02  0.12298065896E+03  0.80419002446E+02 0.  1.
        -24    1    1    2    0    0  0.23034907733E+02 -0.64071463838E+01 -0.45516882352E+03  0.46283639912E+03  0.80419002446E+02 0. -1.
<mgrwt>
<rscale>  0 0.83898000E+02</rscale>
<asrwt>0</asrwt>
<pdfrwt beam="1">  1        1 0.86992672E-01 0.83898000E+02</pdfrwt>
<pdfrwt beam="2">  1       -1 0.31330426E-02 0.83898000E+02</pdfrwt>
<totfact> 0.12345574E+04</totfact>
</mgrwt>
</event>
<event>
 4    1  0.4999097E-001  0.9792075E+02  0.7546771E-02  0.1284730E+00
          1   -1    0    0  501    0  0.00000000000E+00  0.00000000000E+00  0.39535195196E+02  0.39535195196E+02  0.00000000000E+00 0. -1.
         -1   -1    0    0    0  501 -0.00000000000E+00 -0.00000000000E+00 -0.32519096773E+03  0.32519096773E+03  0.00000000000E+00 0.  1.
         24    1    1    2    0    0 -0.49236024480E+02 -0.26402091700E+02 -0.23477070630E+03  0.25437326323E+03  0.80419002446E+02 0.  1.
        -24    1    1    2    0    0  0.49236024480E+02  0.26402091700E+02 -0.50885066234E+02  0.11035289970E+03  0.80419002446E+02 0. -1.
<mgrwt>
<rscale>  0 0.97920746E+02</rscale>
<asrwt>0</asrwt>
<pdfrwt beam="1">  1        1 0.60823377E-02 0.97920746E+02</pdfrwt>
<pdfrwt beam="2">  1       -1 0.50029380E-01 0.97920746E+02</pdfrwt>
<totfact> 0.48495995E+03</totfact>
</mgrwt>
</event>
<event>
 4    1  0.4999097E-001  0.8544281E+02  0.7546771E-02  0.1314279E+00
         -2   -1    0    0    0  501 -0.00000000000E+00  0.00000000000E+00  0.11755319883E+02  0.11755319883E+02  0.00000000000E+00 0.  1.
          2   -1    0    0  501    0  0.00000000000E+00 -0.00000000000E+00 -0.80823829567E+03  0.80823829567E+03  0.00000000000E+00 0. -1.
         24    1    1    2    0    0 -0.27528933098E+02 -0.86842157854E+01 -0.59555946593E+03  0.60165733701E+03  0.80419002446E+02 0. -1.
        -24    1    1    2    0    0  0.27528933098E+02  0.86842157854E+01 -0.20092350986E+03  0.21833627855E+03  0.80419002446E+02 0.  1.
<mgrwt>
<rscale>  0 0.85442810E+02</rscale>
<asrwt>0</asrwt>
<pdfrwt beam="1">  1        2 0.12434438E+00 0.85442810E+02</pdfrwt>
<pdfrwt beam="2">  1       -2 0.18085104E-02 0.85442810E+02</pdfrwt>
<totfact> 0.28332004E+04</totfact>
</mgrwt>
</event>
<event>
 4    1  0.4999097E-001  0.1518667E+03  0.7546771E-02  0.1198198E+00
         -1   -1    0    0    0  501 -0.00000000000E+00  0.00000000000E+00  0.35617069269E+02  0.35617069269E+02  0.00000000000E+00 0.  1.
          1   -1    0    0  501    0  0.00000000000E+00 -0.00000000000E+00 -0.91156851272E+03  0.91156851272E+03  0.00000000000E+00 0. -1.
         24    1    1    2    0    0 -0.62840056890E+02  0.11246068841E+03 -0.18309591932E+03  0.23788150582E+03  0.80419002446E+02 0. -1.
        -24    1    1    2    0    0  0.62840056890E+02 -0.11246068841E+03 -0.69285552413E+03  0.70930407616E+03  0.80419002446E+02 0.  1.
<mgrwt>
<rscale>  0 0.15186670E+03</rscale>
<asrwt>0</asrwt>
<pdfrwt beam="1">  1        1 0.14024130E+00 0.15186670E+03</pdfrwt>
<pdfrwt beam="2">  1       -1 0.54795494E-02 0.15186670E+03</pdfrwt>
<totfact> 0.28291837E+03</totfact>
</mgrwt>
</event>
<event>
 4    1  0.4999097E-001  0.8100229E+02  0.7546771E-02  0.1326231E+00
          2   -1    0    0  501    0  0.00000000000E+00  0.00000000000E+00  0.19335387642E+03  0.19335387642E+03  0.00000000000E+00 0. -1.
         -2   -1    0    0    0  501 -0.00000000000E+00 -0.00000000000E+00 -0.36059339963E+02  0.36059339963E+02  0.00000000000E+00 0.  1.
         24    1    1    2    0    0  0.71192480966E+01 -0.65933095703E+01  0.10649183168E+03  0.13379791326E+03  0.80419002446E+02 0.  0.
        -24    1    1    2    0    0 -0.71192480966E+01  0.65933095703E+01  0.50802704786E+02  0.95615303129E+02  0.80419002446E+02 0.  1.
<mgrwt>
<rscale>  0 0.81002292E+02</rscale>
<asrwt>0</asrwt>
<pdfrwt beam="1">  1        2 0.29746750E-01 0.81002292E+02</pdfrwt>
<pdfrwt beam="2">  1       -2 0.55475909E-02 0.81002292E+02</pdfrwt>
<totfact> 0.25831564E+04</totfact>
</mgrwt>
</event>
<event>
 4    1  0.4999097E-001  0.8370647E+02  0.7546771E-02  0.1318850E+00
          4   -1    0    0  501    0  0.00000000000E+00  0.00000000000E+00  0.23146923914E+03  0.23146923914E+03  0.00000000000E+00 0. -1.
         -4   -1    0    0    0  501 -0.00000000000E+00 -0.00000000000E+00 -0.57735887227E+02  0.57735887227E+02  0.00000000000E+00 0.  1.
         24    1    1    2    0    0 -0.19143659049E+02 -0.13155882899E+02  0.18660064153E+03  0.20451545738E+03  0.80419002446E+02 0. -1.
        -24    1    1    2    0    0  0.19143659049E+02  0.13155882899E+02 -0.12867289610E+02  0.84689668986E+02  0.80419002446E+02 0.  1.
<mgrwt>
<rscale>  0 0.83706469E+02</rscale>
<asrwt>0</asrwt>
<pdfrwt beam="1">  1        4 0.35610652E-01 0.83706469E+02</pdfrwt>
<pdfrwt beam="2">  1       -4 0.88824444E-02 0.83706469E+02</pdfrwt>
<totfact> 0.10436234E+03</totfact>
</mgrwt>
</event>
<event>
 4    1  0.4999097E-001  0.1326895E+03  0.7546771E-02  0.1223519E+00
          3   -1    0    0  501    0  0.00000000000E+00  0.00000000000E+00  0.16897366607E+03  0.16897366607E+03  0.00000000000E+00 0. -1.
         -3   -1    0    0    0  501 -0.00000000000E+00 -0.00000000000E+00 -0.16414875924E+03  0.16414875924E+03  0.00000000000E+00 0.  1.
         24    1    1    2    0    0 -0.37912419290E+02 -0.98498383501E+02 -0.98247589305E+02  0.16510326419E+03  0.80419002446E+02 0.  1.
        -24    1    1    2    0    0  0.37912419290E+02  0.98498383501E+02  0.10307249614E+03  0.16801916112E+03  0.80419002446E+02 0. -1.
<mgrwt>
<rscale>  0 0.13268948E+03</rscale>
<asrwt>0</asrwt>
<pdfrwt beam="1">  1        3 0.25995949E-01 0.13268948E+03</pdfrwt>
<pdfrwt beam="2">  1       -3 0.25253655E-01 0.13268948E+03</pdfrwt>
<totfact> 0.47730409E+02</totfact>
</mgrwt>
</event>
<event>
 4    1  0.4999097E-001  0.9004882E+02  0.7546771E-02  0.1302734E+00
          2   -1    0    0  501    0  0.00000000000E+00  0.00000000000E+00  0.19420337906E+04  0.19420337906E+04  0.00000000000E+00 0. -1.
         -2   -1    0    0    0  501 -0.00000000000E+00 -0.00000000000E+00 -0.75343902681E+01  0.75343902681E+01  0.00000000000E+00 0.  1.
         24    1    1    2    0    0  0.32957670902E+02  0.23566204128E+02  0.16181103463E+04  0.16206140450E+04  0.80419002446E+02 0. -1.
        -24    1    1    2    0    0 -0.32957670902E+02 -0.23566204128E+02  0.31638905403E+03  0.32895413588E+03  0.80419002446E+02 0.  1.
<mgrwt>
<rscale>  0 0.90048820E+02</rscale>
<asrwt>0</asrwt>
<pdfrwt beam="1">  1        2 0.29877403E+00 0.90048820E+02</pdfrwt>
<pdfrwt beam="2">  1       -2 0.11591385E-02 0.90048820E+02</pdfrwt>
<totfact> 0.13150305E+04</totfact>
</mgrwt>
</event>
<event>
 4    1  0.4999097E-001  0.1519859E+03  0.7546771E-02  0.1198054E+00
         -1   -1    0    0    0  501 -0.00000000000E+00  0.00000000000E+00  0.80378498174E+03  0.80378498174E+03  0.00000000000E+00 0.  1.
          1   -1    0    0  501    0  0.00000000000E+00 -0.00000000000E+00 -0.13290888519E+03  0.13290888519E+03  0.00000000000E+00 0. -1.
         24    1    1    2    0    0  0.12658483523E+03  0.24673135063E+02  0.75006973011E+03  0.76531320392E+03  0.80419002446E+02 0.  1.
        -24    1    1    2    0    0 -0.12658483523E+03 -0.24673135063E+02 -0.79193633565E+02  0.17138066302E+03  0.80419002446E+02 0. -1.
<mgrwt>
<rscale>  0 0.15198585E+03</rscale>
<asrwt>0</asrwt>
<pdfrwt beam="1">  1        1 0.20447521E-01 0.15198585E+03</pdfrwt>
<pdfrwt beam="2">  1       -1 0.12365923E+00 0.15198585E+03</pdfrwt>
<totfact> 0.15583303E+02</totfact>
</mgrwt>
</event>
<event>
 4    1  0.4999097E-001  0.1307062E+03  0.7546771E-02  0.1226412E+00
         -1   -1    0    0    0  501 -0.00000000000E+00  0.00000000000E+00  0.45975526634E+02  0.45975526634E+02  0.00000000000E+00 0.  1.
          1   -1    0    0  501    0  0.00000000000E+00 -0.00000000000E+00 -0.84685379190E+03  0.84685379190E+03  0.00000000000E+00 0. -1.
         24    1    1    2    0    0  0.10286941501E+03 -0.58962698129E+01 -0.66012334182E+02  0.14642993806E+03  0.80419002446E+02 0.  1.
        -24    1    1    2    0    0 -0.10286941501E+03  0.58962698129E+01 -0.73486593109E+03  0.74639938047E+03  0.80419002446E+02 0. -1.
<mgrwt>
<rscale>  0 0.13070615E+03</rscale>
<asrwt>0</asrwt>
<pdfrwt beam="1">  1        1 0.13028520E+00 0.13070615E+03</pdfrwt>
<pdfrwt beam="2">  1       -1 0.70731581E-02 0.13070615E+03</pdfrwt>
<totfact> 0.21625670E+03</totfact>
</mgrwt>
</event>
<event>
 4    1  0.4999097E-001  0.1020017E+03  0.7546771E-02  0.1276142E+00
         -4   -1    0    0    0  501 -0.00000000000E+00  0.00000000000E+00  0.16134324453E+03  0.16134324453E+03  0.00000000000E+00 0.  1.
          4   -1    0    0  501    0  0.00000000000E+00 -0.00000000000E+00 -0.66384330188E+02  0.66384330188E+02  0.00000000000E+00 0. -1.
         24    1    1    2    0    0 -0.59387821080E+02  0.20253842687E+02  0.28223630747E+02  0.10583440236E+03  0.80419002446E+02 0. -1.
        -24    1    1    2    0    0  0.59387821080E+02 -0.20253842687E+02  0.66735283592E+02  0.12189317235E+03  0.80419002446E+02 0.  0.
<mgrwt>
<rscale>  0 0.10200170E+03</rscale>
<asrwt>0</asrwt>
<pdfrwt beam="1">  1        4 0.10212974E-01 0.10200170E+03</pdfrwt>
<pdfrwt beam="2">  1       -4 0.24822038E-01 0.10200170E+03</pdfrwt>
<totfact> 0.17090297E+03</totfact>
</mgrwt>
</event>
<event>
 4    1  0.4999097E-001  0.9444643E+02  0.7546771E-02  0.1292428E+00
          2   -1    0    0  501    0  0.00000000000E+00  0.00000000000E+00  0.58803072898E+03  0.58803072898E+03  0.00000000000E+00 0. -1.
         -2   -1    0    0    0  501 -0.00000000000E+00 -0.00000000000E+00 -0.16777334424E+02  0.16777334424E+02  0.00000000000E+00 0.  1.
         24    1    1    2    0    0  0.38642545540E+02  0.30978480066E+02  0.37924216096E+03  0.39082572223E+03  0.80419002446E+02 0. -1.
        -24    1    1    2    0    0 -0.38642545540E+02 -0.30978480066E+02  0.19201123360E+03  0.21398234117E+03  0.80419002446E+02 0.  1.
<mgrwt>
<rscale>  0 0.94446432E+02</rscale>
<asrwt>0</asrwt>
<pdfrwt beam="1">  1        2 0.90466250E-01 0.94446432E+02</pdfrwt>
<pdfrwt beam="2">  1       -2 0.25811288E-02 0.94446432E+02</pdfrwt>
<totfact> 0.24839361E+04</totfact>
</mgrwt>
</event>
<event>
 4    1  0.4999097E-001  0.8128235E+02  0.7546771E-02  0.1325451E+00
          2   -1    0    0  501    0  0.00000000000E+00  0.00000000000E+00  0.76217061212E+02  0.76217061212E+02  0.00000000000E+00 0. -1.
         -2   -1    0    0    0  501 -0.00000000000E+00 -0.00000000000E+00 -0.15071290901E+03  0.15071290901E+03  0.00000000000E+00 0.  1.
         24    1    1    2    0    0  0.11815358669E+02 -0.38744357650E-01  0.36708137866E+02  0.89186924723E+02  0.80419002446E+02 0.  0.
        -24    1    1    2    0    0 -0.11815358669E+02  0.38744357650E-01 -0.11120398567E+03  0.13774304550E+03  0.80419002446E+02 0.  1.
<mgrwt>
<rscale>  0 0.81282348E+02</rscale>
<asrwt>0</asrwt>
<pdfrwt beam="1">  1        2 0.11725702E-01 0.81282348E+02</pdfrwt>
<pdfrwt beam="2">  1       -2 0.23186601E-01 0.81282348E+02</pdfrwt>
<totfact> 0.77015445E+03</totfact>
</mgrwt>
</event>
<event>
 4    1  0.4999097E-001  0.9503852E+02  0.7546771E-02  0.1291089E+00
          1   -1    0    0  501    0  0.00000000000E+00  0.00000000000E+00  0.40863390926E+03  0.40863390926E+03  0.00000000000E+00 0. -1.
         -1   -1    0    0    0  501 -0.00000000000E+00 -0.00000000000E+00 -0.28666742779E+02  0.28666742779E+02  0.00000000000E+00 0.  1.
         24    1    1    2    0    0  0.97546059961E+01  0.49698613625E+02  0.85363842151E+02  0.12774703924E+03  0.80419002446E+02 0.  1.
        -24    1    1    2    0    0 -0.97546059961E+01 -0.49698613625E+02  0.29460332433E+03  0.30955361280E+03  0.80419002446E+02 0. -1.
<mgrwt>
<rscale>  0 0.95038521E+02</rscale>
<asrwt>0</asrwt>
<pdfrwt beam="1">  1        1 0.62866751E-01 0.95038521E+02</pdfrwt>
<pdfrwt beam="2">  1       -1 0.44102684E-02 0.95038521E+02</pdfrwt>
<totfact> 0.11515067E+04</totfact>
</mgrwt>
</event>
<event>
 4    1  0.4999097E-001  0.9264836E+02  0.7546771E-02  0.1296562E+00
         -2   -1    0    0    0  501 -0.00000000000E+00  0.00000000000E+00  0.77266837356E+02  0.77266837356E+02  0.00000000000E+00 0.  1.
          2   -1    0    0  501    0  0.00000000000E+00 -0.00000000000E+00 -0.24767993758E+03  0.24767993758E+03  0.00000000000E+00 0. -1.
         24    1    1    2    0    0 -0.45521678463E+02 -0.66542147112E+01 -0.20586095865E+03  0.22574864792E+03  0.80419002446E+02 0. -1.
        -24    1    1    2    0    0  0.45521678463E+02  0.66542147112E+01  0.35447858427E+02  0.99198127023E+02  0.80419002446E+02 0.  1.
<mgrwt>
<rscale>  0 0.92648355E+02</rscale>
<asrwt>0</asrwt>
<pdfrwt beam="1">  1        2 0.38104606E-01 0.92648355E+02</pdfrwt>
<pdfrwt beam="2">  1       -2 0.11887206E-01 0.92648355E+02</pdfrwt>
<totfact> 0.62743974E+03</totfact>
</mgrwt>
</event>
<event>
 4    1  0.4999097E-001  0.8132398E+02  0.7546771E-02  0.1325336E+00
         -2   -1    0    0    0  501 -0.00000000000E+00  0.00000000000E+00  0.59872337725E+01  0.59872337725E+01  0.00000000000E+00 0.  1.
          2   -1    0    0  501    0  0.00000000000E+00 -0.00000000000E+00 -0.19115524938E+04  0.19115524938E+04  0.00000000000E+00 0. -1.
         24    1    1    2    0    0  0.52391727891E+01  0.10905130833E+02 -0.32984972235E+03  0.33972698759E+03  0.80419002446E+02 0.  0.
        -24    1    1    2    0    0 -0.52391727891E+01 -0.10905130833E+02 -0.15757155377E+04  0.15778127400E+04  0.80419002446E+02 0. -1.
<mgrwt>
<rscale>  0 0.81323972E+02</rscale>
<asrwt>0</asrwt>
<pdfrwt beam="1">  1        2 0.29408478E+00 0.81323982E+02</pdfrwt>
<pdfrwt beam="2">  1       -2 0.92111358E-03 0.81323982E+02</pdfrwt>
<totfact> 0.18743251E+04</totfact>
</mgrwt>
</event>
<event>
 4    1  0.4999097E-001  0.8394272E+02  0.7546771E-02  0.1318221E+00
          1   -1    0    0  501    0  0.00000000000E+00  0.00000000000E+00  0.62472984729E+02  0.62472984729E+02  0.00000000000E+00 0. -1.
         -1   -1    0    0    0  501 -0.00000000000E+00 -0.00000000000E+00 -0.54604580988E+03  0.54604580988E+03  0.00000000000E+00 0.  1.
         24    1    1    2    0    0  0.11257084889E+02 -0.21270709960E+02 -0.51280634527E+03  0.51963133928E+03  0.80419002446E+02 0.  1.
        -24    1    1    2    0    0 -0.11257084889E+02  0.21270709960E+02  0.29233520114E+02  0.88887455330E+02  0.80419002446E+02 0.  0.
<mgrwt>
<rscale>  0 0.83942725E+02</rscale>
<asrwt>0</asrwt>
<pdfrwt beam="1">  1        1 0.96112282E-02 0.83942725E+02</pdfrwt>
<pdfrwt beam="2">  1       -1 0.84007049E-01 0.83942725E+02</pdfrwt>
<totfact> 0.96841963E+02</totfact>
</mgrwt>
</event>
<event>
 4    1  0.4999097E-001  0.1089466E+03  0.7546771E-02  0.1262533E+00
         -3   -1    0    0    0  501 -0.00000000000E+00  0.00000000000E+00  0.42281320287E+03  0.42281320287E+03  0.00000000000E+00 0.  1.
          3   -1    0    0  501    0  0.00000000000E+00 -0.00000000000E+00 -0.43422040132E+02  0.43422040132E+02  0.00000000000E+00 0. -1.
         24    1    1    2    0    0 -0.59997877811E+02  0.42454653665E+02  0.32829769113E+03  0.34590277957E+03  0.80419002446E+02 0.  1.
        -24    1    1    2    0    0  0.59997877811E+02 -0.42454653665E+02  0.51093471607E+02  0.12033246343E+03  0.80419002446E+02 0. -1.
<mgrwt>
<rscale>  0 0.10894659E+03</rscale>
<asrwt>0</asrwt>
<pdfrwt beam="1">  1        3 0.66803142E-02 0.10894659E+03</pdfrwt>
<pdfrwt beam="2">  1       -3 0.65048182E-01 0.10894659E+03</pdfrwt>
<totfact> 0.74262222E+02</totfact>
</mgrwt>
</event>
<event>
 4    1  0.4999097E-001  0.8088393E+02  0.7546771E-02  0.1326562E+00
          2   -1    0    0  501    0  0.00000000000E+00  0.00000000000E+00  0.28834239070E+04  0.28834239070E+04  0.00000000000E+00 0. -1.
         -2   -1    0    0    0  501 -0.00000000000E+00 -0.00000000000E+00 -0.29967711514E+01  0.29967711514E+01  0.00000000000E+00 0.  1.
         24    1    1    2    0    0  0.81286170452E+01  0.29867233515E+01  0.21514746087E+04  0.21529944735E+04  0.80419002446E+02 0. -1.
        -24    1    1    2    0    0 -0.81286170452E+01 -0.29867233515E+01  0.72895252715E+03  0.73342620468E+03  0.80419002446E+02 0.  1.
<mgrwt>
<rscale>  0 0.80883935E+02</rscale>
<asrwt>0</asrwt>
<pdfrwt beam="1">  1        2 0.44360146E+00 0.80883935E+02</pdfrwt>
<pdfrwt beam="2">  1       -2 0.46104402E-03 0.80883935E+02</pdfrwt>
<totfact> 0.15465883E+04</totfact>
</mgrwt>
</event>
<event>
 4    1  0.4999097E-001  0.8384435E+02  0.7546771E-02  0.1318483E+00
          4   -1    0    0  501    0  0.00000000000E+00  0.00000000000E+00  0.99747966889E+02  0.99747966889E+02  0.00000000000E+00 0. -1.
         -4   -1    0    0    0  501 -0.00000000000E+00 -0.00000000000E+00 -0.14158144401E+03  0.14158144401E+03  0.00000000000E+00 0.  1.
         24    1    1    2    0    0 -0.15995840710E+02 -0.17515487286E+02  0.64595321281E+02  0.10584153580E+03  0.80419002446E+02 0. -1.
        -24    1    1    2    0    0  0.15995840710E+02  0.17515487286E+02 -0.10642879840E+03  0.13548787510E+03  0.80419002446E+02 0.  1.
<mgrwt>
<rscale>  0 0.83844351E+02</rscale>
<asrwt>0</asrwt>
<pdfrwt beam="1">  1        4 0.15345841E-01 0.83844351E+02</pdfrwt>
<pdfrwt beam="2">  1       -4 0.21781761E-01 0.83844351E+02</pdfrwt>
<totfact> 0.10307617E+03</totfact>
</mgrwt>
</event>
<event>
 4    1  0.4999097E-001  0.9074365E+02  0.7546771E-02  0.1301061E+00
         -2   -1    0    0    0  501 -0.00000000000E+00  0.00000000000E+00  0.59000365341E+02  0.59000365341E+02  0.00000000000E+00 0.  1.
          2   -1    0    0  501    0  0.00000000000E+00 -0.00000000000E+00 -0.16471678878E+03  0.16471678878E+03  0.00000000000E+00 0. -1.
         24    1    1    2    0    0  0.42021616371E+02 -0.11721082872E+01 -0.91481054599E+01  0.91203584733E+02  0.80419002446E+02 0.  1.
        -24    1    1    2    0    0 -0.42021616371E+02  0.11721082872E+01 -0.96568317977E+02  0.13251356939E+03  0.80419002446E+02 0. -1.
<mgrwt>
<rscale>  0 0.90743639E+02</rscale>
<asrwt>0</asrwt>
<pdfrwt beam="1">  1        2 0.25341045E-01 0.90743651E+02</pdfrwt>
<pdfrwt beam="2">  1       -2 0.90769792E-02 0.90743651E+02</pdfrwt>
<totfact> 0.14749667E+04</totfact>
</mgrwt>
</event>
<event>
 4    1  0.4999097E-001  0.1120750E+03  0.7546771E-02  0.1256775E+00
         -2   -1    0    0    0  501 -0.00000000000E+00  0.00000000000E+00  0.22216083453E+03  0.22216083453E+03  0.00000000000E+00 0.  1.
          2   -1    0    0  501    0  0.00000000000E+00 -0.00000000000E+00 -0.63838954936E+02  0.63838954936E+02  0.00000000000E+00 0. -1.
         24    1    1    2    0    0 -0.37820899911E+02  0.68287441267E+02  0.30805544517E+02  0.11623163353E+03  0.80419002446E+02 0. -1.
        -24    1    1    2    0    0  0.37820899911E+02 -0.68287441267E+02  0.12751633508E+03  0.16976815594E+03  0.80419002446E+02 0.  1.
<mgrwt>
<rscale>  0 0.11207502E+03</rscale>
<asrwt>0</asrwt>
<pdfrwt beam="1">  1        2 0.98213778E-02 0.11207502E+03</pdfrwt>
<pdfrwt beam="2">  1       -2 0.34178590E-01 0.11207502E+03</pdfrwt>
<totfact> 0.49364508E+03</totfact>
</mgrwt>
</event>
<event>
 4    1  0.4999097E-001  0.3617959E+03  0.7546771E-02  0.1057875E+00
         -1   -1    0    0    0  501 -0.00000000000E+00  0.00000000000E+00  0.97364105315E+02  0.97364105315E+02  0.00000000000E+00 0.  1.
          1   -1    0    0  501    0  0.00000000000E+00 -0.00000000000E+00 -0.13452892314E+04  0.13452892314E+04  0.00000000000E+00 0. -1.
         24    1    1    2    0    0  0.16598461175E+03  0.31125241646E+03 -0.64252158967E+03  0.73738061219E+03  0.80419002446E+02 0.  1.
        -24    1    1    2    0    0 -0.16598461175E+03 -0.31125241646E+03 -0.60540353637E+03  0.70527272447E+03  0.80419002446E+02 0. -1.
<mgrwt>
<rscale>  0 0.36179581E+03</rscale>
<asrwt>0</asrwt>
<pdfrwt beam="1">  1        1 0.20696757E+00 0.36179585E+03</pdfrwt>
<pdfrwt beam="2">  1       -1 0.14979094E-01 0.36179585E+03</pdfrwt>
<totfact> 0.29066510E+02</totfact>
</mgrwt>
</event>
<event>
 4    1  0.4999097E-001  0.8761382E+02  0.7546771E-02  0.1308735E+00
         -2   -1    0    0    0  501 -0.00000000000E+00  0.00000000000E+00  0.94419236752E+03  0.94419236752E+03  0.00000000000E+00 0.  1.
          2   -1    0    0  501    0  0.00000000000E+00 -0.00000000000E+00 -0.81565209581E+01  0.81565209581E+01  0.00000000000E+00 0. -1.
         24    1    1    2    0    0 -0.98879682916E+01 -0.33334563542E+02  0.44080976581E+03  0.44943234266E+03  0.80419002446E+02 0. -1.
        -24    1    1    2    0    0  0.98879682916E+01  0.33334563542E+02  0.49522608074E+03  0.50291654581E+03  0.80419002446E+02 0.  0.
<mgrwt>
<rscale>  0 0.87613817E+02</rscale>
<asrwt>0</asrwt>
<pdfrwt beam="1">  1        2 0.12548501E-02 0.87613817E+02</pdfrwt>
<pdfrwt beam="2">  1       -2 0.14526028E+00 0.87613817E+02</pdfrwt>
<totfact> 0.32867788E+03</totfact>
</mgrwt>
</event>
<event>
 4    1  0.4999097E-001  0.8981281E+02  0.7546771E-02  0.1303306E+00
          2   -1    0    0  501    0  0.00000000000E+00  0.00000000000E+00  0.11131437140E+04  0.11131437140E+04  0.00000000000E+00 0. -1.
         -2   -1    0    0    0  501 -0.00000000000E+00 -0.00000000000E+00 -0.10707453209E+02  0.10707453209E+02  0.00000000000E+00 0.  1.
         24    1    1    2    0    0  0.37328488639E+02  0.14342558211E+02  0.87069297872E+03  0.87531286074E+03  0.80419002446E+02 0. -1.
        -24    1    1    2    0    0 -0.37328488639E+02 -0.14342558211E+02  0.23174328207E+03  0.24853830646E+03  0.80419002446E+02 0.  1.
<mgrwt>
<rscale>  0 0.89812811E+02</rscale>
<asrwt>0</asrwt>
<pdfrwt beam="1">  1        2 0.17125279E+00 0.89812811E+02</pdfrwt>
<pdfrwt beam="2">  1       -2 0.16473014E-02 0.89812811E+02</pdfrwt>
<totfact> 0.21338334E+04</totfact>
</mgrwt>
</event>
<event>
 4    1  0.4999097E-001  0.8755578E+02  0.7546771E-02  0.1308881E+00
         -2   -1    0    0    0  501 -0.00000000000E+00  0.00000000000E+00  0.41408836059E+01  0.41408836059E+01  0.00000000000E+00 0.  1.
          2   -1    0    0  501    0  0.00000000000E+00 -0.00000000000E+00 -0.19711008805E+04  0.19711008805E+04  0.00000000000E+00 0. -1.
         24    1    1    2    0    0  0.12601422788E+02  0.32249066944E+02 -0.12269623336E+04  0.12300823477E+04  0.80419002446E+02 0. -1.
        -24    1    1    2    0    0 -0.12601422788E+02 -0.32249066944E+02 -0.73999766328E+03  0.74515941636E+03  0.80419002446E+02 0.  1.
<mgrwt>
<rscale>  0 0.87555777E+02</rscale>
<asrwt>0</asrwt>
<pdfrwt beam="1">  1        2 0.30324644E+00 0.87555777E+02</pdfrwt>
<pdfrwt beam="2">  1       -2 0.63705871E-03 0.87555777E+02</pdfrwt>
<totfact> 0.29544816E+04</totfact>
</mgrwt>
</event>
<event>
 4    1  0.4999097E-001  0.9453430E+02  0.7546771E-02  0.1292228E+00
          2   -1    0    0  501    0  0.00000000000E+00  0.00000000000E+00  0.13371399876E+04  0.13371399876E+04  0.00000000000E+00 0. -1.
         -2   -1    0    0    0  501 -0.00000000000E+00 -0.00000000000E+00 -0.69642509539E+01  0.69642509539E+01  0.00000000000E+00 0.  1.
         24    1    1    2    0    0 -0.13764434483E+01  0.49675185236E+02  0.80003069727E+03  0.80559658090E+03  0.80419002446E+02 0. -1.
        -24    1    1    2    0    0  0.13764434483E+01 -0.49675185236E+02  0.53014503934E+03  0.53850765762E+03  0.80419002446E+02 0.  1.
<mgrwt>
<rscale>  0 0.94534304E+02</rscale>
<asrwt>0</asrwt>
<pdfrwt beam="1">  1        2 0.20571364E+00 0.94534304E+02</pdfrwt>
<pdfrwt beam="2">  1       -2 0.10714243E-02 0.94534304E+02</pdfrwt>
<totfact> 0.29919654E+04</totfact>
</mgrwt>
</event>
<event>
 4    1  0.4999097E-001  0.9028177E+02  0.7546771E-02  0.1302171E+00
         -2   -1    0    0    0  501 -0.00000000000E+00  0.00000000000E+00  0.56809547869E+01  0.56809547869E+01  0.00000000000E+00 0.  1.
          2   -1    0    0  501    0  0.00000000000E+00 -0.00000000000E+00 -0.14367394721E+04  0.14367394721E+04  0.00000000000E+00 0. -1.
         24    1    1    2    0    0  0.82489503756E+01 -0.40193700566E+02 -0.68874504417E+03  0.69463697754E+03  0.80419002446E+02 0. -1.
        -24    1    1    2    0    0 -0.82489503756E+01  0.40193700566E+02 -0.74231347311E+03  0.74778344931E+03  0.80419002446E+02 0.  0.
<mgrwt>
<rscale>  0 0.90281763E+02</rscale>
<asrwt>0</asrwt>
<pdfrwt beam="1">  1        2 0.22103681E+00 0.90281774E+02</pdfrwt>
<pdfrwt beam="2">  1       -2 0.87399316E-03 0.90281774E+02</pdfrwt>
<totfact> 0.35284536E+04</totfact>
</mgrwt>
</event>
<event>
 4    1  0.4999097E-001  0.1110141E+03  0.7546771E-02  0.1258703E+00
          2   -1    0    0  501    0  0.00000000000E+00  0.00000000000E+00  0.30561157483E+04  0.30561157483E+04  0.00000000000E+00 0. -1.
         -2   -1    0    0    0  501 -0.00000000000E+00 -0.00000000000E+00 -0.54222750084E+01  0.54222750084E+01  0.00000000000E+00 0.  1.
         24    1    1    2    0    0 -0.90510921849E+01  0.75993335367E+02  0.23002970074E+04  0.23029742611E+04  0.80419002446E+02 0. -1.
        -24    1    1    2    0    0  0.90510921849E+01 -0.75993335367E+02  0.75039646589E+03  0.75856376216E+03  0.80419002446E+02 0.  1.
<mgrwt>
<rscale>  0 0.11101408E+03</rscale>
<asrwt>0</asrwt>
<pdfrwt beam="1">  1        2 0.47017028E+00 0.11101408E+03</pdfrwt>
<pdfrwt beam="2">  1       -2 0.83419860E-03 0.11101408E+03</pdfrwt>
<totfact> 0.53893028E+03</totfact>
</mgrwt>
</event>
<event>
 4    1  0.4999097E-001  0.8229506E+02  0.7546771E-02  0.1322662E+00
          1   -1    0    0  501    0  0.00000000000E+00  0.00000000000E+00  0.47218175430E+02  0.47218175430E+02  0.00000000000E+00 0. -1.
         -1   -1    0    0    0  501 -0.00000000000E+00 -0.00000000000E+00 -0.25873593541E+03  0.25873593541E+03  0.00000000000E+00 0.  1.
         24    1    1    2    0    0 -0.11489180125E+02 -0.13162808255E+02 -0.20788216979E+03  0.22357878533E+03  0.80419002446E+02 0.  1.
        -24    1    1    2    0    0  0.11489180125E+02  0.13162808255E+02 -0.36355901867E+01  0.82375325502E+02  0.80419002446E+02 0. -1.
<mgrwt>
<rscale>  0 0.82295059E+02</rscale>
<asrwt>0</asrwt>
<pdfrwt beam="1">  1        1 0.72643348E-02 0.82295059E+02</pdfrwt>
<pdfrwt beam="2">  1       -1 0.39805528E-01 0.82295059E+02</pdfrwt>
<totfact> 0.56510446E+03</totfact>
</mgrwt>
</event>
<event>
 4    1  0.4999097E-001  0.8870302E+02  0.7546771E-02  0.1306023E+00
          3   -1    0    0  501    0  0.00000000000E+00  0.00000000000E+00  0.45997306008E+02  0.45997306008E+02  0.00000000000E+00 0. -1.
         -3   -1    0    0    0  501 -0.00000000000E+00 -0.00000000000E+00 -0.27356209249E+03  0.27356209249E+03  0.00000000000E+00 0.  1.
         24    1    1    2    0    0 -0.21507565869E+01 -0.37368216632E+02 -0.21158792246E+03  0.22942901790E+03  0.80419002446E+02 0.  1.
        -24    1    1    2    0    0  0.21507565869E+01  0.37368216632E+02 -0.15976864018E+02  0.90130380596E+02  0.80419002446E+02 0. -1.
<mgrwt>
<rscale>  0 0.88703018E+02</rscale>
<asrwt>0</asrwt>
<pdfrwt beam="1">  1        3 0.70765086E-02 0.88703018E+02</pdfrwt>
<pdfrwt beam="2">  1       -3 0.42086476E-01 0.88703018E+02</pdfrwt>
<totfact> 0.15569002E+03</totfact>
</mgrwt>
</event>
<event>
 4    1  0.4999097E-001  0.8333727E+02  0.7546771E-02  0.1319839E+00
          1   -1    0    0  501    0  0.00000000000E+00  0.00000000000E+00  0.12014630468E+03  0.12014630468E+03  0.00000000000E+00 0. -1.
         -1   -1    0    0    0  501 -0.00000000000E+00 -0.00000000000E+00 -0.30015695436E+03  0.30015695436E+03  0.00000000000E+00 0.  1.
         24    1    1    2    0    0 -0.19624794109E+02  0.96308232614E+01 -0.27883988936E+03  0.29102712099E+03  0.80419002446E+02 0.  1.
        -24    1    1    2    0    0  0.19624794109E+02 -0.96308232614E+01  0.98829239679E+02  0.12927613805E+03  0.80419002446E+02 0. -1.
<mgrwt>
<rscale>  0 0.83337274E+02</rscale>
<asrwt>0</asrwt>
<pdfrwt beam="1">  1        1 0.18484047E-01 0.83337274E+02</pdfrwt>
<pdfrwt beam="2">  1       -1 0.46177992E-01 0.83337274E+02</pdfrwt>
<totfact> 0.13020674E+03</totfact>
</mgrwt>
</event>
<event>
 4    1  0.4999097E-001  0.9643143E+02  0.7546771E-02  0.1287984E+00
         -2   -1    0    0    0  501 -0.00000000000E+00  0.00000000000E+00  0.15420423148E+02  0.15420423148E+02  0.00000000000E+00 0.  1.
          2   -1    0    0  501    0  0.00000000000E+00 -0.00000000000E+00 -0.98985482759E+03  0.98985482759E+03  0.00000000000E+00 0. -1.
         24    1    1    2    0    0  0.47549670450E+02  0.23892113679E+02 -0.80143072194E+03  0.80721138637E+03  0.80419002446E+02 0. -1.
        -24    1    1    2    0    0 -0.47549670450E+02 -0.23892113679E+02 -0.17300368250E+03  0.19806386437E+03  0.80419002446E+02 0.  1.
<mgrwt>
<rscale>  0 0.96431428E+02</rscale>
<asrwt>0</asrwt>
<pdfrwt beam="1">  1        2 0.15228543E+00 0.96431428E+02</pdfrwt>
<pdfrwt beam="2">  1       -2 0.23723717E-02 0.96431428E+02</pdfrwt>
<totfact> 0.14952790E+04</totfact>
</mgrwt>
</event>
<event>
 4    1  0.4999097E-001  0.1059605E+03  0.7546771E-02  0.1268239E+00
          2   -1    0    0  501    0  0.00000000000E+00  0.00000000000E+00  0.61996862002E+02  0.61996862002E+02  0.00000000000E+00 0. -1.
         -2   -1    0    0    0  501 -0.00000000000E+00 -0.00000000000E+00 -0.46955732167E+03  0.46955732167E+03  0.00000000000E+00 0.  1.
         24    1    1    2    0    0  0.24248229622E+01  0.68953123773E+02  0.45316571218E+01  0.10605736615E+03  0.80419002446E+02 0. -1.
        -24    1    1    2    0    0 -0.24248229622E+01 -0.68953123773E+02 -0.41209211679E+03  0.42549681752E+03  0.80419002446E+02 0.  1.
<mgrwt>
<rscale>  0 0.10596051E+03</rscale>
<asrwt>0</asrwt>
<pdfrwt beam="1">  1        2 0.95379789E-02 0.10596051E+03</pdfrwt>
<pdfrwt beam="2">  1       -2 0.72239587E-01 0.10596051E+03</pdfrwt>
<totfact> 0.11664172E+03</totfact>
</mgrwt>
</event>
<event>
 4    1  0.4999097E-001  0.1353644E+03  0.7546771E-02  0.1219706E+00
         -2   -1    0    0    0  501 -0.00000000000E+00  0.00000000000E+00  0.19916243222E+03  0.19916243222E+03  0.00000000000E+00 0.  1.
          2   -1    0    0  501    0  0.00000000000E+00 -0.00000000000E+00 -0.21260863788E+03  0.21260863788E+03  0.00000000000E+00 0. -1.
         24    1    1    2    0    0  0.93790538030E+02  0.55313889710E+02 -0.16179014181E+03  0.21094918194E+03  0.80419002446E+02 0. -1.
        -24    1    1    2    0    0 -0.93790538030E+02 -0.55313889710E+02  0.14834393615E+03  0.20082188816E+03  0.80419002446E+02 0.  1.
<mgrwt>
<rscale>  0 0.13536435E+03</rscale>
<asrwt>0</asrwt>
<pdfrwt beam="1">  1        2 0.32709021E-01 0.13536435E+03</pdfrwt>
<pdfrwt beam="2">  1       -2 0.30640374E-01 0.13536435E+03</pdfrwt>
<totfact> 0.15350759E+03</totfact>
</mgrwt>
</event>
<event>
 4    1  0.4999097E-001  0.8532888E+02  0.7546771E-02  0.1314575E+00
          2   -1    0    0  501    0  0.00000000000E+00  0.00000000000E+00  0.36882242578E+03  0.36882242578E+03  0.00000000000E+00 0. -1.
         -2   -1    0    0    0  501 -0.00000000000E+00 -0.00000000000E+00 -0.37925612045E+02  0.37925612045E+02  0.00000000000E+00 0.  1.
         24    1    1    2    0    0  0.20674250331E+02 -0.19656500080E+02  0.30627287310E+03  0.31793724440E+03  0.80419002446E+02 0. -1.
        -24    1    1    2    0    0 -0.20674250331E+02  0.19656500080E+02  0.24623940629E+02  0.88810793424E+02  0.80419002446E+02 0.  1.
<mgrwt>
<rscale>  0 0.85328885E+02</rscale>
<asrwt>0</asrwt>
<pdfrwt beam="1">  1        2 0.56741909E-01 0.85328885E+02</pdfrwt>
<pdfrwt beam="2">  1       -2 0.58347098E-02 0.85328885E+02</pdfrwt>
<totfact> 0.12240329E+04</totfact>
</mgrwt>
</event>
<event>
 4    1  0.4999097E-001  0.8527965E+02  0.7546771E-02  0.1314703E+00
          3   -1    0    0  501    0  0.00000000000E+00  0.00000000000E+00  0.96096417839E+01  0.96096417839E+01  0.00000000000E+00 0. -1.
         -3   -1    0    0    0  501 -0.00000000000E+00 -0.00000000000E+00 -0.23577851051E+04  0.23577851051E+04  0.00000000000E+00 0.  1.
         24    1    1    2    0    0 -0.24182814048E+02  0.14852402680E+02 -0.21494852252E+04  0.21511762716E+04  0.80419002446E+02 0.  1.
        -24    1    1    2    0    0  0.24182814048E+02 -0.14852402680E+02 -0.19869023815E+03  0.21621847527E+03  0.80419002446E+02 0. -1.
<mgrwt>
<rscale>  0 0.85279648E+02</rscale>
<asrwt>0</asrwt>
<pdfrwt beam="1">  1        3 0.14784067E-02 0.85279648E+02</pdfrwt>
<pdfrwt beam="2">  1       -3 0.36273610E+00 0.85279648E+02</pdfrwt>
<totfact> 0.72743310E+01</totfact>
</mgrwt>
</event>
<event>
 4    1  0.4999097E-001  0.9333725E+02  0.7546771E-02  0.1294966E+00
         -2   -1    0    0    0  501 -0.00000000000E+00  0.00000000000E+00  0.15789639869E+02  0.15789639869E+02  0.00000000000E+00 0.  1.
          2   -1    0    0  501    0  0.00000000000E+00 -0.00000000000E+00 -0.71724150157E+03  0.71724150157E+03  0.00000000000E+00 0. -1.
         24    1    1    2    0    0 -0.45485458166E+02  0.13255193816E+02 -0.52678366803E+03  0.53498866897E+03  0.80419002446E+02 0. -1.
        -24    1    1    2    0    0  0.45485458166E+02 -0.13255193816E+02 -0.17466819367E+03  0.19804247247E+03  0.80419002446E+02 0.  1.
<mgrwt>
<rscale>  0 0.93337254E+02</rscale>
<asrwt>0</asrwt>
<pdfrwt beam="1">  1        2 0.11034485E+00 0.93337254E+02</pdfrwt>
<pdfrwt beam="2">  1       -2 0.24291752E-02 0.93337254E+02</pdfrwt>
<totfact> 0.21580151E+04</totfact>
</mgrwt>
</event>
<event>
 4    1  0.4999097E-001  0.1024245E+03  0.7546771E-02  0.1275279E+00
          2   -1    0    0  501    0  0.00000000000E+00  0.00000000000E+00  0.66246091271E+03  0.66246091271E+03  0.00000000000E+00 0. -1.
         -2   -1    0    0    0  501 -0.00000000000E+00 -0.00000000000E+00 -0.21204824083E+02  0.21204824083E+02  0.00000000000E+00 0.  1.
         24    1    1    2    0    0 -0.62285899916E+02  0.12001111512E+02  0.49262997632E+03  0.50316505198E+03  0.80419002446E+02 0. -1.
        -24    1    1    2    0    0  0.62285899916E+02 -0.12001111512E+02  0.14862611231E+03  0.18050068482E+03  0.80419002446E+02 0.  1.
<mgrwt>
<rscale>  0 0.10242449E+03</rscale>
<asrwt>0</asrwt>
<pdfrwt beam="1">  1        2 0.10191705E+00 0.10242449E+03</pdfrwt>
<pdfrwt beam="2">  1       -2 0.32622811E-02 0.10242449E+03</pdfrwt>
<totfact> 0.15546556E+04</totfact>
</mgrwt>
</event>
<event>
 4    1  0.4999097E-001  0.1369838E+03  0.7546771E-02  0.1217446E+00
         -2   -1    0    0    0  501 -0.00000000000E+00  0.00000000000E+00  0.11465168427E+03  0.11465168427E+03  0.00000000000E+00 0.  1.
          2   -1    0    0  501    0  0.00000000000E+00 -0.00000000000E+00 -0.16380887053E+03  0.16380887053E+03  0.00000000000E+00 0. -1.
         24    1    1    2    0    0  0.74730357134E+02  0.81931182016E+02 -0.20464024597E+02  0.13850392457E+03  0.80419002446E+02 0.  1.
        -24    1    1    2    0    0 -0.74730357134E+02 -0.81931182016E+02 -0.28693161669E+02  0.13995663023E+03  0.80419002446E+02 0. -1.
<mgrwt>
<rscale>  0 0.13698381E+03</rscale>
<asrwt>0</asrwt>
<pdfrwt beam="1">  1        2 0.25201364E-01 0.13698383E+03</pdfrwt>
<pdfrwt beam="2">  1       -2 0.17638721E-01 0.13698383E+03</pdfrwt>
<totfact> 0.53032209E+03</totfact>
</mgrwt>
</event>
<event>
 4    1  0.4999097E-001  0.8042152E+02  0.7546771E-02  0.1327859E+00
         -2   -1    0    0    0  501 -0.00000000000E+00  0.00000000000E+00  0.21797542686E+02  0.21797542686E+02  0.00000000000E+00 0.  1.
          2   -1    0    0  501    0  0.00000000000E+00 -0.00000000000E+00 -0.31383206955E+03  0.31383206955E+03  0.00000000000E+00 0. -1.
         24    1    1    2    0    0 -0.26026029056E+00 -0.58006678910E+00 -0.18521114438E+03  0.20191777576E+03  0.80419002446E+02 0. -1.
        -24    1    1    2    0    0  0.26026029056E+00  0.58006678910E+00 -0.10682338249E+03  0.13371183647E+03  0.80419002446E+02 0.  0.
<mgrwt>
<rscale>  0 0.80421516E+02</rscale>
<asrwt>0</asrwt>
<pdfrwt beam="1">  1        2 0.48281858E-01 0.80421516E+02</pdfrwt>
<pdfrwt beam="2">  1       -2 0.33534681E-02 0.80421516E+02</pdfrwt>
<totfact> 0.32555581E+04</totfact>
</mgrwt>
</event>
<event>
 4    1  0.4999097E-001  0.8329070E+02  0.7546771E-02  0.1319964E+00
         -2   -1    0    0    0  501 -0.00000000000E+00  0.00000000000E+00  0.12903218778E+02  0.12903218778E+02  0.00000000000E+00 0.  1.
          2   -1    0    0  501    0  0.00000000000E+00 -0.00000000000E+00 -0.57388829328E+03  0.57388829328E+03  0.00000000000E+00 0. -1.
         24    1    1    2    0    0  0.20648104738E+02 -0.66164010979E+01 -0.20675977159E+03  0.22290567533E+03  0.80419002446E+02 0.  0.
        -24    1    1    2    0    0 -0.20648104738E+02  0.66164010979E+01 -0.35422530291E+03  0.36388583673E+03  0.80419002446E+02 0.  0.
<mgrwt>
<rscale>  0 0.83290688E+02</rscale>
<asrwt>0</asrwt>
<pdfrwt beam="1">  1        2 0.88290499E-01 0.83290698E+02</pdfrwt>
<pdfrwt beam="2">  1       -2 0.19851108E-02 0.83290698E+02</pdfrwt>
<totfact> 0.36738450E+04</totfact>
</mgrwt>
</event>
<event>
 4    1  0.4999097E-001  0.8449880E+02  0.7546771E-02  0.1316748E+00
         -2   -1    0    0    0  501 -0.00000000000E+00  0.00000000000E+00  0.25681308278E+02  0.25681308278E+02  0.00000000000E+00 0.  1.
          2   -1    0    0  501    0  0.00000000000E+00 -0.00000000000E+00 -0.47662048813E+03  0.47662048813E+03  0.00000000000E+00 0. -1.
         24    1    1    2    0    0  0.13722515264E+02  0.22011893682E+02 -0.38758825676E+03  0.39669220262E+03  0.80419002446E+02 0. -1.
        -24    1    1    2    0    0 -0.13722515264E+02 -0.22011893682E+02 -0.63350923091E+02  0.10560959379E+03  0.80419002446E+02 0.  1.
<mgrwt>
<rscale>  0 0.84498798E+02</rscale>
<asrwt>0</asrwt>
<pdfrwt beam="1">  1        2 0.73326222E-01 0.84498798E+02</pdfrwt>
<pdfrwt beam="2">  1       -2 0.39509709E-02 0.84498798E+02</pdfrwt>
<totfact> 0.16614354E+04</totfact>
</mgrwt>
</event>
<event>
 4    1  0.4999097E-001  0.1030051E+03  0.7546771E-02  0.1274101E+00
          1   -1    0    0  501    0  0.00000000000E+00  0.00000000000E+00  0.23211635766E+03  0.23211635766E+03  0.00000000000E+00 0. -1.
         -1   -1    0    0    0  501 -0.00000000000E+00 -0.00000000000E+00 -0.55162506653E+02  0.55162506653E+02  0.00000000000E+00 0.  1.
         24    1    1    2    0    0 -0.56642708260E+02  0.30568518176E+02  0.29016995667E+02  0.10701417053E+03  0.80419002446E+02 0.  1.
        -24    1    1    2    0    0  0.56642708260E+02 -0.30568518176E+02  0.14793685534E+03  0.18026469379E+03  0.80419002446E+02 0. -1.
<mgrwt>
<rscale>  0 0.10300508E+03</rscale>
<asrwt>0</asrwt>
<pdfrwt beam="1">  1        1 0.35710208E-01 0.10300508E+03</pdfrwt>
<pdfrwt beam="2">  1       -1 0.84865396E-02 0.10300508E+03</pdfrwt>
<totfact> 0.88279109E+03</totfact>
</mgrwt>
</event>
<event>
 4    1  0.4999097E-001  0.9070230E+02  0.7546771E-02  0.1301160E+00
         -1   -1    0    0    0  501 -0.00000000000E+00  0.00000000000E+00  0.70270353855E+01  0.70270353855E+01  0.00000000000E+00 0.  1.
          1   -1    0    0  501    0  0.00000000000E+00 -0.00000000000E+00 -0.15445109743E+04  0.15445109743E+04  0.00000000000E+00 0. -1.
         24    1    1    2    0    0  0.13019995439E+02 -0.39876939989E+02 -0.38711988802E+03  0.39760371512E+03  0.80419002446E+02 0.  1.
        -24    1    1    2    0    0 -0.13019995439E+02  0.39876939989E+02 -0.11503640509E+04  0.11539342946E+04  0.80419002446E+02 0. -1.
<mgrwt>
<rscale>  0 0.90702296E+02</rscale>
<asrwt>0</asrwt>
<pdfrwt beam="1">  1        1 0.23761715E+00 0.90702296E+02</pdfrwt>
<pdfrwt beam="2">  1       -1 0.10810820E-02 0.90702296E+02</pdfrwt>
<totfact> 0.10683439E+04</totfact>
</mgrwt>
</event>
<event>
 4    1  0.4999097E-001  0.8639375E+02  0.7546771E-02  0.1311827E+00
          1   -1    0    0  501    0  0.00000000000E+00  0.00000000000E+00  0.29274064191E+02  0.29274064191E+02  0.00000000000E+00 0. -1.
         -1   -1    0    0    0  501 -0.00000000000E+00 -0.00000000000E+00 -0.41283564930E+03  0.41283564930E+03  0.00000000000E+00 0.  1.
         24    1    1    2    0    0 -0.25496783312E+02 -0.18616597096E+02 -0.32847852954E+03  0.33964985495E+03  0.80419002446E+02 0.  1.
        -24    1    1    2    0    0  0.25496783312E+02  0.18616597096E+02 -0.55083055572E+02  0.10245985854E+03  0.80419002446E+02 0. -1.
<mgrwt>
<rscale>  0 0.86393747E+02</rscale>
<asrwt>0</asrwt>
<pdfrwt beam="1">  1        1 0.45037025E-02 0.86393747E+02</pdfrwt>
<pdfrwt beam="2">  1       -1 0.63513173E-01 0.86393747E+02</pdfrwt>
<totfact> 0.46264895E+03</totfact>
</mgrwt>
</event>
<event>
 4    1  0.4999097E-001  0.9054263E+02  0.7546771E-02  0.1301543E+00
         -1   -1    0    0    0  501 -0.00000000000E+00  0.00000000000E+00  0.13813189647E+02  0.13813189647E+02  0.00000000000E+00 0.  1.
          1   -1    0    0  501    0  0.00000000000E+00 -0.00000000000E+00 -0.65057238354E+03  0.65057238354E+03  0.00000000000E+00 0. -1.
         24    1    1    2    0    0 -0.40629177355E+02  0.89455143842E+01 -0.21997862038E+03  0.23788350439E+03  0.80419002446E+02 0.  1.
        -24    1    1    2    0    0  0.40629177355E+02 -0.89455143842E+01 -0.41678057351E+03  0.42650206880E+03  0.80419002446E+02 0. -1.
<mgrwt>
<rscale>  0 0.90542632E+02</rscale>
<asrwt>0</asrwt>
<pdfrwt beam="1">  1        1 0.10008804E+00 0.90542632E+02</pdfrwt>
<pdfrwt beam="2">  1       -1 0.21251065E-02 0.90542632E+02</pdfrwt>
<totfact> 0.17965547E+04</totfact>
</mgrwt>
</event>
<event>
 4    1  0.4999097E-001  0.8743102E+02  0.7546771E-02  0.1309195E+00
         -2   -1    0    0    0  501 -0.00000000000E+00  0.00000000000E+00  0.12721163659E+02  0.12721163659E+02  0.00000000000E+00 0.  1.
          2   -1    0    0  501    0  0.00000000000E+00 -0.00000000000E+00 -0.78723570523E+03  0.78723570523E+03  0.00000000000E+00 0. -1.
         24    1    1    2    0    0 -0.15705657938E+02  0.30500800339E+02 -0.58185107050E+03  0.58838325155E+03  0.80419002446E+02 0. -1.
        -24    1    1    2    0    0  0.15705657938E+02 -0.30500800339E+02 -0.19266347107E+03  0.21157361733E+03  0.80419002446E+02 0.  1.
<mgrwt>
<rscale>  0 0.87431015E+02</rscale>
<asrwt>0</asrwt>
<pdfrwt beam="1">  1        2 0.12111317E+00 0.87431015E+02</pdfrwt>
<pdfrwt beam="2">  1       -2 0.19571024E-02 0.87431015E+02</pdfrwt>
<totfact> 0.26188193E+04</totfact>
</mgrwt>
</event>
<event>
 4    1  0.4999097E-001  0.8122203E+02  0.7546771E-02  0.1325619E+00
          3   -1    0    0  501    0  0.00000000000E+00  0.00000000000E+00  0.21385857161E+02  0.21385857161E+02  0.00000000000E+00 0. -1.
         -3   -1    0    0    0  501 -0.00000000000E+00 -0.00000000000E+00 -0.46073797287E+03  0.46073797287E+03  0.00000000000E+00 0.  1.
         24    1    1    2    0    0 -0.87686904657E+01 -0.72740926546E+01 -0.35825514068E+03  0.36734692612E+03  0.80419002446E+02 0.  0.
        -24    1    1    2    0    0  0.87686904657E+01  0.72740926546E+01 -0.81096975027E+02  0.11477690390E+03  0.80419002446E+02 0. -1.
<mgrwt>
<rscale>  0 0.81222031E+02</rscale>
<asrwt>0</asrwt>
<pdfrwt beam="1">  1        3 0.32901321E-02 0.81222031E+02</pdfrwt>
<pdfrwt beam="2">  1       -3 0.70882761E-01 0.81222031E+02</pdfrwt>
<totfact> 0.17786231E+03</totfact>
</mgrwt>
</event>
<event>
 4    1  0.4999097E-001  0.1479112E+03  0.7546771E-02  0.1203063E+00
         -3   -1    0    0    0  501 -0.00000000000E+00  0.00000000000E+00  0.10244267713E+04  0.10244267713E+04  0.00000000000E+00 0.  1.
          3   -1    0    0  501    0  0.00000000000E+00 -0.00000000000E+00 -0.33010237164E+02  0.33010237164E+02  0.00000000000E+00 0. -1.
         24    1    1    2    0    0 -0.10290816659E+03 -0.69429230766E+02  0.80986104285E+03  0.82325733128E+03  0.80419002446E+02 0.  1.
        -24    1    1    2    0    0  0.10290816659E+03  0.69429230766E+02  0.18155549131E+03  0.23417967720E+03  0.80419002446E+02 0. -1.
<mgrwt>
<rscale>  0 0.14791121E+03</rscale>
<asrwt>0</asrwt>
<pdfrwt beam="1">  1        3 0.50784988E-02 0.14791121E+03</pdfrwt>
<pdfrwt beam="2">  1       -3 0.15760409E+00 0.14791121E+03</pdfrwt>
<totfact> 0.15919480E+02</totfact>
</mgrwt>
</event>
<event>
 4    1  0.4999097E-001  0.9726445E+02  0.7546771E-02  0.1286156E+00
          1   -1    0    0  501    0  0.00000000000E+00  0.00000000000E+00  0.58104748836E+02  0.58104748836E+02  0.00000000000E+00 0. -1.
         -1   -1    0    0    0  501 -0.00000000000E+00 -0.00000000000E+00 -0.17625571929E+03  0.17625571929E+03  0.00000000000E+00 0.  1.
         24    1    1    2    0    0  0.52603771294E+02  0.15033328276E+02 -0.91433389559E+02  0.13349321479E+03  0.80419002446E+02 0.  1.
        -24    1    1    2    0    0 -0.52603771294E+02 -0.15033328276E+02 -0.26717580897E+02  0.10086725334E+03  0.80419002446E+02 0. -1.
<mgrwt>
<rscale>  0 0.97264452E+02</rscale>
<asrwt>0</asrwt>
<pdfrwt beam="1">  1        1 0.89391924E-02 0.97264452E+02</pdfrwt>
<pdfrwt beam="2">  1       -1 0.27116264E-01 0.97264452E+02</pdfrwt>
<totfact> 0.83139421E+03</totfact>
</mgrwt>
</event>
<event>
 4    1  0.4999097E-001  0.1113540E+03  0.7546771E-02  0.1258083E+00
          1   -1    0    0  501    0  0.00000000000E+00  0.00000000000E+00  0.64662974438E+03  0.64662974438E+03  0.00000000000E+00 0. -1.
         -1   -1    0    0    0  501 -0.00000000000E+00 -0.00000000000E+00 -0.19330377148E+02  0.19330377148E+02  0.00000000000E+00 0.  1.
         24    1    1    2    0    0  0.64614204110E+02  0.41922624619E+02  0.28388457775E+03  0.30494289837E+03  0.80419002446E+02 0. -1.
        -24    1    1    2    0    0 -0.64614204110E+02 -0.41922624619E+02  0.34341478948E+03  0.36101722316E+03  0.80419002446E+02 0.  1.
<mgrwt>
<rscale>  0 0.11135402E+03</rscale>
<asrwt>0</asrwt>
<pdfrwt beam="1">  1        1 0.99481482E-01 0.11135402E+03</pdfrwt>
<pdfrwt beam="2">  1       -1 0.29739047E-02 0.11135402E+03</pdfrwt>
<totfact> 0.11370166E+04</totfact>
</mgrwt>
</event>
<event>
 4    1  0.4999097E-001  0.8453706E+02  0.7546771E-02  0.1316648E+00
         -1   -1    0    0    0  501 -0.00000000000E+00  0.00000000000E+00  0.25694511065E+01  0.25694511065E+01  0.00000000000E+00 0.  1.
          1   -1    0    0  501    0  0.00000000000E+00 -0.00000000000E+00 -0.28718563491E+04  0.28718563491E+04  0.00000000000E+00 0. -1.
         24    1    1    2    0    0 -0.10992147761E+02 -0.23631998821E+02 -0.11794875555E+04  0.11825131746E+04  0.80419002446E+02 0.  0.
        -24    1    1    2    0    0  0.10992147761E+02  0.23631998821E+02 -0.16897993425E+04  0.16919126256E+04  0.80419002446E+02 0.  0.
<mgrwt>
<rscale>  0 0.84537061E+02</rscale>
<asrwt>0</asrwt>
<pdfrwt beam="1">  1        1 0.44182581E+00 0.84537061E+02</pdfrwt>
<pdfrwt beam="2">  1       -1 0.39529860E-03 0.84537061E+02</pdfrwt>
<totfact> 0.62261787E+03</totfact>
</mgrwt>
</event>
<event>
 4    1  0.4999097E-001  0.8109717E+02  0.7546771E-02  0.1325966E+00
          2   -1    0    0  501    0  0.00000000000E+00  0.00000000000E+00  0.10473050597E+04  0.10473050597E+04  0.00000000000E+00 0. -1.
         -2   -1    0    0    0  501 -0.00000000000E+00 -0.00000000000E+00 -0.65078712922E+01  0.65078712922E+01  0.00000000000E+00 0.  1.
         24    1    1    2    0    0 -0.14763815518E+01  0.10361258256E+02  0.61906149242E+03  0.62435076898E+03  0.80419002446E+02 0. -1.
        -24    1    1    2    0    0  0.14763815518E+01 -0.10361258256E+02  0.42173569600E+03  0.42946216202E+03  0.80419002446E+02 0.  1.
<mgrwt>
<rscale>  0 0.81097172E+02</rscale>
<asrwt>0</asrwt>
<pdfrwt beam="1">  1        2 0.16112372E+00 0.81097172E+02</pdfrwt>
<pdfrwt beam="2">  1       -2 0.10012118E-02 0.81097172E+02</pdfrwt>
<totfact> 0.46662243E+04</totfact>
</mgrwt>
</event>
<event>
 4    1  0.4999097E-001  0.8088110E+02  0.7546771E-02  0.1326569E+00
         -2   -1    0    0    0  501 -0.00000000000E+00  0.00000000000E+00  0.63534509000E+02  0.63534509000E+02  0.00000000000E+00 0.  1.
          2   -1    0    0  501    0  0.00000000000E+00 -0.00000000000E+00 -0.12782062940E+03  0.12782062940E+03  0.00000000000E+00 0. -1.
         24    1    1    2    0    0 -0.75953018509E+01 -0.41046001149E+01 -0.74335323384E+02  0.10985213976E+03  0.80419002446E+02 0.  0.
        -24    1    1    2    0    0  0.75953018509E+01  0.41046001149E+01  0.10049202987E+02  0.81502998640E+02  0.80419002446E+02 0.  1.
<mgrwt>
<rscale>  0 0.80881100E+02</rscale>
<asrwt>0</asrwt>
<pdfrwt beam="1">  1        2 0.19664712E-01 0.80881100E+02</pdfrwt>
<pdfrwt beam="2">  1       -2 0.97745398E-02 0.80881100E+02</pdfrwt>
<totfact> 0.17178369E+04</totfact>
</mgrwt>
</event>
<event>
 4    1  0.4999097E-001  0.8302203E+02  0.7546771E-02  0.1320688E+00
          2   -1    0    0  501    0  0.00000000000E+00  0.00000000000E+00  0.34011745969E+03  0.34011745969E+03  0.00000000000E+00 0. -1.
         -2   -1    0    0    0  501 -0.00000000000E+00 -0.00000000000E+00 -0.40767257802E+02  0.40767257802E+02  0.00000000000E+00 0.  1.
         24    1    1    2    0    0  0.17649961759E+01  0.20550583372E+02  0.28472775554E+03  0.29658481488E+03  0.80419002446E+02 0. -1.
        -24    1    1    2    0    0 -0.17649961759E+01 -0.20550583372E+02  0.14622446345E+02  0.84299902609E+02  0.80419002446E+02 0.  1.
<mgrwt>
<rscale>  0 0.83022031E+02</rscale>
<asrwt>0</asrwt>
<pdfrwt beam="1">  1        2 0.52325761E-01 0.83022031E+02</pdfrwt>
<pdfrwt beam="2">  1       -2 0.62718860E-02 0.83022031E+02</pdfrwt>
<totfact> 0.11924968E+04</totfact>
</mgrwt>
</event>
<event>
 4    1  0.4999097E-001  0.1595021E+03  0.7546771E-02  0.1189260E+00
          1   -1    0    0  501    0  0.00000000000E+00  0.00000000000E+00  0.35919560076E+03  0.35919560076E+03  0.00000000000E+00 0. -1.
         -1   -1    0    0    0  501 -0.00000000000E+00 -0.00000000000E+00 -0.54051932548E+03  0.54051932548E+03  0.00000000000E+00 0.  1.
         24    1    1    2    0    0 -0.90187888966E+02  0.10411463817E+03 -0.51001105778E+03  0.53437085270E+03  0.80419002446E+02 0.  1.
        -24    1    1    2    0    0  0.90187888966E+02 -0.10411463817E+03  0.32868733307E+03  0.36534407354E+03  0.80419002446E+02 0. -1.
<mgrwt>
<rscale>  0 0.15950213E+03</rscale>
<asrwt>0</asrwt>
<pdfrwt beam="1">  1        1 0.55260862E-01 0.15950213E+03</pdfrwt>
<pdfrwt beam="2">  1       -1 0.83156819E-01 0.15950213E+03</pdfrwt>
<totfact> 0.10828052E+02</totfact>
</mgrwt>
</event>
<event>
 4    1  0.4999097E-001  0.8461776E+02  0.7546771E-02  0.1316435E+00
          2   -1    0    0  501    0  0.00000000000E+00  0.00000000000E+00  0.15010419943E+04  0.15010419943E+04  0.00000000000E+00 0. -1.
         -2   -1    0    0    0  501 -0.00000000000E+00 -0.00000000000E+00 -0.61224217389E+01  0.61224217389E+01  0.00000000000E+00 0.  1.
         24    1    1    2    0    0  0.61787375695E+01 -0.25588508325E+02  0.11016237038E+04  0.11048687476E+04  0.80419002446E+02 0. -1.
        -24    1    1    2    0    0 -0.61787375695E+01  0.25588508325E+02  0.39329586876E+03  0.40229566850E+03  0.80419002446E+02 0.  1.
<mgrwt>
<rscale>  0 0.84617755E+02</rscale>
<asrwt>0</asrwt>
<pdfrwt beam="1">  1        2 0.23092925E+00 0.84617755E+02</pdfrwt>
<pdfrwt beam="2">  1       -2 0.94191223E-03 0.84617755E+02</pdfrwt>
<totfact> 0.29263917E+04</totfact>
</mgrwt>
</event>
<event>
 4    1  0.4999097E-001  0.8905064E+02  0.7546771E-02  0.1305167E+00
         -1   -1    0    0    0  501 -0.00000000000E+00  0.00000000000E+00  0.64452035919E+01  0.64452035919E+01  0.00000000000E+00 0.  1.
          1   -1    0    0  501    0  0.00000000000E+00 -0.00000000000E+00 -0.19056363366E+04  0.19056363366E+04  0.00000000000E+00 0. -1.
         24    1    1    2    0    0  0.36420704496E+02 -0.11676194741E+02 -0.38049063210E+03  0.39077248920E+03  0.80419002446E+02 0. -1.
        -24    1    1    2    0    0 -0.36420704496E+02  0.11676194741E+02 -0.15187005010E+04  0.15213090510E+04  0.80419002446E+02 0. -1.
<mgrwt>
<rscale>  0 0.89050644E+02</rscale>
<asrwt>0</asrwt>
<pdfrwt beam="1">  1        1 0.29317497E+00 0.89050644E+02</pdfrwt>
<pdfrwt beam="2">  1       -1 0.99156927E-03 0.89050644E+02</pdfrwt>
<totfact> 0.71485207E+03</totfact>
</mgrwt>
</event>
<event>
 4    1  0.4999097E-001  0.8500440E+02  0.7546771E-02  0.1315421E+00
         -2   -1    0    0    0  501 -0.00000000000E+00  0.00000000000E+00  0.91517619461E+02  0.91517619461E+02  0.00000000000E+00 0.  1.
          2   -1    0    0  501    0  0.00000000000E+00 -0.00000000000E+00 -0.82203420359E+02  0.82203420359E+02  0.00000000000E+00 0. -1.
         24    1    1    2    0    0 -0.26076086775E+02 -0.88639616071E+01 -0.12610512024E+02  0.85934702447E+02  0.80419002446E+02 0.  1.
        -24    1    1    2    0    0  0.26076086775E+02  0.88639616071E+01  0.21924711126E+02  0.87786337372E+02  0.80419002446E+02 0.  0.
<mgrwt>
<rscale>  0 0.85004400E+02</rscale>
<asrwt>0</asrwt>
<pdfrwt beam="1">  1        2 0.12646680E-01 0.85004400E+02</pdfrwt>
<pdfrwt beam="2">  1       -2 0.14079634E-01 0.85004400E+02</pdfrwt>
<totfact> 0.16128618E+04</totfact>
</mgrwt>
</event>
<event>
 4    1  0.4999097E-001  0.9528048E+02  0.7546771E-02  0.1290546E+00
         -3   -1    0    0    0  501 -0.00000000000E+00  0.00000000000E+00  0.16331627784E+03  0.16331627784E+03  0.00000000000E+00 0.  1.
          3   -1    0    0  501    0  0.00000000000E+00 -0.00000000000E+00 -0.13202651629E+03  0.13202651629E+03  0.00000000000E+00 0. -1.
         24    1    1    2    0    0 -0.46070750201E+02 -0.22105201420E+02  0.12800776761E+03  0.15957555726E+03  0.80419002446E+02 0.  1.
        -24    1    1    2    0    0  0.46070750201E+02  0.22105201420E+02 -0.96718006067E+02  0.13576723686E+03  0.80419002446E+02 0. -1.
<mgrwt>
<rscale>  0 0.95280480E+02</rscale>
<asrwt>0</asrwt>
<pdfrwt beam="1">  1        3 0.20311772E-01 0.95280480E+02</pdfrwt>
<pdfrwt beam="2">  1       -3 0.25125581E-01 0.95280480E+02</pdfrwt>
<totfact> 0.70941648E+02</totfact>
</mgrwt>
</event>
<event>
 4    1  0.4999097E-001  0.9242053E+02  0.7546771E-02  0.1297094E+00
          2   -1    0    0  501    0  0.00000000000E+00  0.00000000000E+00  0.12804412363E+03  0.12804412363E+03  0.00000000000E+00 0. -1.
         -2   -1    0    0    0  501 -0.00000000000E+00 -0.00000000000E+00 -0.66712739061E+02  0.66712739061E+02  0.00000000000E+00 0.  1.
         24    1    1    2    0    0  0.44740898727E+02  0.85197134863E+01  0.29832931683E+02  0.97116184563E+02  0.80419002446E+02 0.  0.
        -24    1    1    2    0    0 -0.44740898727E+02 -0.85197134863E+01  0.31498452885E+02  0.97640678128E+02  0.80419002446E+02 0.  0.
<mgrwt>
<rscale>  0 0.92420515E+02</rscale>
<asrwt>0</asrwt>
<pdfrwt beam="1">  1        2 0.19699096E-01 0.92420527E+02</pdfrwt>
<pdfrwt beam="2">  1       -2 0.10263498E-01 0.92420527E+02</pdfrwt>
<totfact> 0.16124546E+04</totfact>
</mgrwt>
</event>
<event>
 4    1  0.4999097E-001  0.9171087E+02  0.7546771E-02  0.1298761E+00
          1   -1    0    0  501    0  0.00000000000E+00  0.00000000000E+00  0.35168448502E+03  0.35168448502E+03  0.00000000000E+00 0. -1.
         -1   -1    0    0    0  501 -0.00000000000E+00 -0.00000000000E+00 -0.32668270596E+02  0.32668270596E+02  0.00000000000E+00 0.  1.
         24    1    1    2    0    0  0.41439826294E+02 -0.15046903629E+02  0.60036893332E+02  0.10961438331E+03  0.80419002446E+02 0. -1.
        -24    1    1    2    0    0 -0.41439826294E+02  0.15046903629E+02  0.25897932109E+03  0.27473837231E+03  0.80419002446E+02 0.  1.
<mgrwt>
<rscale>  0 0.91710874E+02</rscale>
<asrwt>0</asrwt>
<pdfrwt beam="1">  1        1 0.54105303E-01 0.91710874E+02</pdfrwt>
<pdfrwt beam="2">  1       -1 0.50258880E-02 0.91710874E+02</pdfrwt>
<totfact> 0.11421290E+04</totfact>
</mgrwt>
</event>
<event>
 4    1  0.4999097E-001  0.8270130E+02  0.7546771E-02  0.1321556E+00
         -1   -1    0    0    0  501 -0.00000000000E+00  0.00000000000E+00  0.10788653226E+03  0.10788653226E+03  0.00000000000E+00 0.  1.
          1   -1    0    0  501    0  0.00000000000E+00 -0.00000000000E+00 -0.67211178028E+02  0.67211178028E+02  0.00000000000E+00 0. -1.
         24    1    1    2    0    0  0.11761723094E+02 -0.15295474185E+02  0.41198119402E+02  0.92394754490E+02  0.80419002446E+02 0. -1.
        -24    1    1    2    0    0 -0.11761723094E+02  0.15295474185E+02 -0.52276516537E+00  0.82702955803E+02  0.80419002446E+02 0. -1.
<mgrwt>
<rscale>  0 0.82701304E+02</rscale>
<asrwt>0</asrwt>
<pdfrwt beam="1">  1        1 0.10340181E-01 0.82701304E+02</pdfrwt>
<pdfrwt beam="2">  1       -1 0.16597928E-01 0.82701304E+02</pdfrwt>
<totfact> 0.14808901E+04</totfact>
</mgrwt>
</event>
<event>
 4    1  0.4999097E-001  0.8189822E+02  0.7546771E-02  0.1323749E+00
         -2   -1    0    0    0  501 -0.00000000000E+00  0.00000000000E+00  0.16594902532E+02  0.16594902532E+02  0.00000000000E+00 0.  1.
          2   -1    0    0  501    0  0.00000000000E+00 -0.00000000000E+00 -0.55966305656E+03  0.55966305656E+03  0.00000000000E+00 0. -1.
         24    1    1    2    0    0  0.46758034541E+01 -0.14772919161E+02 -0.42340196493E+03  0.43124997640E+03  0.80419002446E+02 0.  0.
        -24    1    1    2    0    0 -0.46758034541E+01  0.14772919161E+02 -0.11966618909E+03  0.14500798269E+03  0.80419002446E+02 0.  1.
<mgrwt>
<rscale>  0 0.81898219E+02</rscale>
<asrwt>0</asrwt>
<pdfrwt beam="1">  1        2 0.86102002E-01 0.81898219E+02</pdfrwt>
<pdfrwt beam="2">  1       -2 0.25530621E-02 0.81898219E+02</pdfrwt>
<totfact> 0.26256377E+04</totfact>
</mgrwt>
</event>
<event>
 4    1  0.4999097E-001  0.9152648E+02  0.7546771E-02  0.1299197E+00
          2   -1    0    0  501    0  0.00000000000E+00  0.00000000000E+00  0.40057932051E+02  0.40057932051E+02  0.00000000000E+00 0. -1.
         -2   -1    0    0    0  501 -0.00000000000E+00 -0.00000000000E+00 -0.24382107856E+03  0.24382107856E+03  0.00000000000E+00 0.  1.
         24    1    1    2    0    0 -0.37902752360E+02 -0.21754594930E+02 -0.48337589610E+02  0.10350661602E+03  0.80419002446E+02 0.  1.
        -24    1    1    2    0    0  0.37902752360E+02  0.21754594930E+02 -0.15542555690E+03  0.18037239458E+03  0.80419002446E+02 0.  0.
<mgrwt>
<rscale>  0 0.91526482E+02</rscale>
<asrwt>0</asrwt>
<pdfrwt beam="1">  1        2 0.61627588E-02 0.91526482E+02</pdfrwt>
<pdfrwt beam="2">  1       -2 0.37510935E-01 0.91526482E+02</pdfrwt>
<totfact> 0.73090805E+03</totfact>
</mgrwt>
</event>
<event>
 4    1  0.4999097E-001  0.8100982E+02  0.7546771E-02  0.1326210E+00
          1   -1    0    0  501    0  0.00000000000E+00  0.00000000000E+00  0.29930819049E+04  0.29930819049E+04  0.00000000000E+00 0. -1.
         -1   -1    0    0    0  501 -0.00000000000E+00 -0.00000000000E+00 -0.34566826027E+01  0.34566826027E+01  0.00000000000E+00 0.  1.
         24    1    1    2    0    0 -0.53007313457E+01 -0.82022413288E+01  0.58876670504E+03  0.59431374159E+03  0.80419002446E+02 0.  1.
        -24    1    1    2    0    0  0.53007313457E+01  0.82022413288E+01  0.24008585173E+04  0.24022248460E+04  0.80419002446E+02 0.  0.
<mgrwt>
<rscale>  0 0.81009817E+02</rscale>
<asrwt>0</asrwt>
<pdfrwt beam="1">  1        1 0.46047207E+00 0.81009817E+02</pdfrwt>
<pdfrwt beam="2">  1       -1 0.53179972E-03 0.81009817E+02</pdfrwt>
<totfact> 0.34106768E+03</totfact>
</mgrwt>
</event>
<event>
 4    1  0.4999097E-001  0.8134914E+02  0.7546771E-02  0.1325266E+00
         -2   -1    0    0    0  501 -0.00000000000E+00  0.00000000000E+00  0.37104827711E+03  0.37104827711E+03  0.00000000000E+00 0.  1.
          2   -1    0    0  501    0  0.00000000000E+00 -0.00000000000E+00 -0.22253398278E+02  0.22253398278E+02  0.00000000000E+00 0. -1.
         24    1    1    2    0    0 -0.12118964445E+02 -0.18967853717E+01  0.86773019352E+02  0.11894217055E+03  0.80419002446E+02 0. -1.
        -24    1    1    2    0    0  0.12118964445E+02  0.18967853717E+01  0.26202185948E+03  0.27435950484E+03  0.80419002446E+02 0.  0.
<mgrwt>
<rscale>  0 0.81349143E+02</rscale>
<asrwt>0</asrwt>
<pdfrwt beam="1">  1        2 0.34236000E-02 0.81349143E+02</pdfrwt>
<pdfrwt beam="2">  1       -2 0.57084346E-01 0.81349143E+02</pdfrwt>
<totfact> 0.68696019E+03</totfact>
</mgrwt>
</event>
<event>
 4    1  0.4999097E-001  0.9069333E+02  0.7546771E-02  0.1301181E+00
          2   -1    0    0  501    0  0.00000000000E+00  0.00000000000E+00  0.90588734386E+01  0.90588734386E+01  0.00000000000E+00 0. -1.
         -2   -1    0    0    0  501 -0.00000000000E+00 -0.00000000000E+00 -0.97392898771E+03  0.97392898771E+03  0.00000000000E+00 0.  1.
         24    1    1    2    0    0 -0.18688612942E+02 -0.37533992732E+02 -0.35453910663E+03  0.36595526906E+03  0.80419002446E+02 0.  1.
        -24    1    1    2    0    0  0.18688612942E+02  0.37533992732E+02 -0.61033100764E+03  0.61703259209E+03  0.80419002446E+02 0.  0.
<mgrwt>
<rscale>  0 0.90693334E+02</rscale>
<asrwt>0</asrwt>
<pdfrwt beam="1">  1        2 0.13936730E-02 0.90693334E+02</pdfrwt>
<pdfrwt beam="2">  1       -2 0.14983521E+00 0.90693334E+02</pdfrwt>
<totfact> 0.26446520E+03</totfact>
</mgrwt>
</event>
<event>
 4    1  0.4999097E-001  0.9196008E+02  0.7546771E-02  0.1298173E+00
          1   -1    0    0  501    0  0.00000000000E+00  0.00000000000E+00  0.11677818499E+03  0.11677818499E+03  0.00000000000E+00 0. -1.
         -1   -1    0    0    0  501 -0.00000000000E+00 -0.00000000000E+00 -0.75361521941E+02  0.75361521941E+02  0.00000000000E+00 0.  1.
         24    1    1    2    0    0 -0.35649810428E+02  0.26805433089E+02  0.17166390230E+01  0.91976100323E+02  0.80419002446E+02 0. -1.
        -24    1    1    2    0    0  0.35649810428E+02 -0.26805433089E+02  0.39700024024E+02  0.10016360661E+03  0.80419002446E+02 0.  1.
<mgrwt>
<rscale>  0 0.91960079E+02</rscale>
<asrwt>0</asrwt>
<pdfrwt beam="1">  1        1 0.17965875E-01 0.91960079E+02</pdfrwt>
<pdfrwt beam="2">  1       -1 0.11594080E-01 0.91960079E+02</pdfrwt>
<totfact> 0.12800378E+04</totfact>
</mgrwt>
</event>
<event>
 4    1  0.4999097E-001  0.9929658E+02  0.7546771E-02  0.1281782E+00
          2   -1    0    0  501    0  0.00000000000E+00  0.00000000000E+00  0.57863058736E+03  0.57863058736E+03  0.00000000000E+00 0. -1.
         -2   -1    0    0    0  501 -0.00000000000E+00 -0.00000000000E+00 -0.35820039509E+02  0.35820039509E+02  0.00000000000E+00 0.  1.
         24    1    1    2    0    0  0.58110072028E+02  0.39767129616E+01  0.49386085515E+03  0.50374433487E+03  0.80419002446E+02 0. -1.
        -24    1    1    2    0    0 -0.58110072028E+02 -0.39767129616E+01  0.48949692704E+02  0.11070629199E+03  0.80419002446E+02 0.  1.
<mgrwt>
<rscale>  0 0.99296579E+02</rscale>
<asrwt>0</asrwt>
<pdfrwt beam="1">  1        2 0.89020083E-01 0.99296579E+02</pdfrwt>
<pdfrwt beam="2">  1       -2 0.55107758E-02 0.99296579E+02</pdfrwt>
<totfact> 0.83264149E+03</totfact>
</mgrwt>
</event>
<event>
 4    1  0.4999097E-001  0.8339645E+02  0.7546771E-02  0.1319680E+00
         -2   -1    0    0    0  501 -0.00000000000E+00  0.00000000000E+00  0.28563423871E+01  0.28563423871E+01  0.00000000000E+00 0.  1.
          2   -1    0    0  501    0  0.00000000000E+00 -0.00000000000E+00 -0.24543116175E+04  0.24543116175E+04  0.00000000000E+00 0. -1.
         24    1    1    2    0    0  0.64260947111E+01 -0.21129536781E+02 -0.13349310392E+04  0.13375334939E+04  0.80419002446E+02 0. -1.
        -24    1    1    2    0    0 -0.64260947111E+01  0.21129536781E+02 -0.11165242359E+04  0.11196344660E+04  0.80419002446E+02 0.  1.
<mgrwt>
<rscale>  0 0.83396451E+02</rscale>
<asrwt>0</asrwt>
<pdfrwt beam="1">  1        2 0.37758568E+00 0.83396451E+02</pdfrwt>
<pdfrwt beam="2">  1       -2 0.43943813E-03 0.83396451E+02</pdfrwt>
<totfact> 0.28122219E+04</totfact>
</mgrwt>
</event>
<event>
 4    1  0.4999097E-001  0.8429088E+02  0.7546771E-02  0.1317297E+00
         -2   -1    0    0    0  501 -0.00000000000E+00  0.00000000000E+00  0.87170945675E+01  0.87170945675E+01  0.00000000000E+00 0.  1.
          2   -1    0    0  501    0  0.00000000000E+00 -0.00000000000E+00 -0.11002341015E+04  0.11002341015E+04  0.00000000000E+00 0. -1.
         24    1    1    2    0    0  0.21134479923E+02 -0.13822825551E+02 -0.82804827187E+03  0.83232739547E+03  0.80419002446E+02 0. -1.
        -24    1    1    2    0    0 -0.21134479923E+02  0.13822825551E+02 -0.26346873508E+03  0.27662380061E+03  0.80419002446E+02 0.  1.
<mgrwt>
<rscale>  0 0.84290881E+02</rscale>
<asrwt>0</asrwt>
<pdfrwt beam="1">  1        2 0.16926692E+00 0.84290881E+02</pdfrwt>
<pdfrwt beam="2">  1       -2 0.13410904E-02 0.84290881E+02</pdfrwt>
<totfact> 0.28915768E+04</totfact>
</mgrwt>
</event>
<event>
 4    1  0.4999097E-001  0.8613281E+02  0.7546771E-02  0.1312496E+00
         -2   -1    0    0    0  501 -0.00000000000E+00  0.00000000000E+00  0.13733150273E+02  0.13733150273E+02  0.00000000000E+00 0.  1.
          2   -1    0    0  501    0  0.00000000000E+00 -0.00000000000E+00 -0.54059347794E+03  0.54059347794E+03  0.00000000000E+00 0. -1.
         24    1    1    2    0    0 -0.10402080989E+01 -0.30831136988E+02 -0.25609877847E+03  0.27019519117E+03  0.80419002446E+02 0.  1.
        -24    1    1    2    0    0  0.10402080989E+01  0.30831136988E+02 -0.27076154920E+03  0.28413143705E+03  0.80419002446E+02 0. -1.
<mgrwt>
<rscale>  0 0.86132798E+02</rscale>
<asrwt>0</asrwt>
<pdfrwt beam="1">  1        2 0.83168238E-01 0.86132809E+02</pdfrwt>
<pdfrwt beam="2">  1       -2 0.21127921E-02 0.86132809E+02</pdfrwt>
<totfact> 0.36015186E+04</totfact>
</mgrwt>
</event>
<event>
 4    1  0.4999097E-001  0.1116703E+03  0.7546771E-02  0.1257508E+00
         -2   -1    0    0    0  501 -0.00000000000E+00  0.00000000000E+00  0.63187822051E+01  0.63187822051E+01  0.00000000000E+00 0.  1.
          2   -1    0    0  501    0  0.00000000000E+00 -0.00000000000E+00 -0.19983963347E+04  0.19983963347E+04  0.00000000000E+00 0. -1.
         24    1    1    2    0    0 -0.58107139032E+01 -0.77261031551E+02 -0.11078715578E+04  0.11134853551E+04  0.80419002446E+02 0.  1.
        -24    1    1    2    0    0  0.58107139032E+01  0.77261031551E+02 -0.88420599463E+03  0.89122976178E+03  0.80419002446E+02 0.  0.
<mgrwt>
<rscale>  0 0.11167026E+03</rscale>
<asrwt>0</asrwt>
<pdfrwt beam="1">  1        2 0.30744534E+00 0.11167026E+03</pdfrwt>
<pdfrwt beam="2">  1       -2 0.97212112E-03 0.11167026E+03</pdfrwt>
<totfact> 0.15981883E+04</totfact>
</mgrwt>
</event>
<event>
 4    1  0.4999097E-001  0.8510839E+02  0.7546771E-02  0.1315149E+00
          2   -1    0    0  501    0  0.00000000000E+00  0.00000000000E+00  0.50504526633E+03  0.50504526633E+03  0.00000000000E+00 0. -1.
         -2   -1    0    0    0  501 -0.00000000000E+00 -0.00000000000E+00 -0.16621931869E+02  0.16621931869E+02  0.00000000000E+00 0.  1.
         24    1    1    2    0    0 -0.19296524396E+02  0.20096408139E+02  0.34080985269E+03  0.35127595010E+03  0.80419002446E+02 0. -1.
        -24    1    1    2    0    0  0.19296524396E+02 -0.20096408139E+02  0.14761348177E+03  0.17039124810E+03  0.80419002446E+02 0.  1.
<mgrwt>
<rscale>  0 0.85108386E+02</rscale>
<asrwt>0</asrwt>
<pdfrwt beam="1">  1        2 0.77699260E-01 0.85108386E+02</pdfrwt>
<pdfrwt beam="2">  1       -2 0.25572207E-02 0.85108386E+02</pdfrwt>
<totfact> 0.29415861E+04</totfact>
</mgrwt>
</event>
<event>
 4    1  0.4999097E-001  0.8353076E+02  0.7546771E-02  0.1319320E+00
          2   -1    0    0  501    0  0.00000000000E+00  0.00000000000E+00  0.13257869737E+04  0.13257869737E+04  0.00000000000E+00 0. -1.
         -2   -1    0    0    0  501 -0.00000000000E+00 -0.00000000000E+00 -0.98121738584E+01  0.98121738584E+01  0.00000000000E+00 0.  1.
         24    1    1    2    0    0 -0.78814180763E+01 -0.21167300329E+02  0.11127011129E+04  0.11158320455E+04  0.80419002446E+02 0. -1.
        -24    1    1    2    0    0  0.78814180763E+01  0.21167300329E+02  0.20327368701E+03  0.21976710204E+03  0.80419002446E+02 0.  1.
<mgrwt>
<rscale>  0 0.83530757E+02</rscale>
<asrwt>0</asrwt>
<pdfrwt beam="1">  1        2 0.20396708E+00 0.83530757E+02</pdfrwt>
<pdfrwt beam="2">  1       -2 0.15095663E-02 0.83530757E+02</pdfrwt>
<totfact> 0.18450064E+04</totfact>
</mgrwt>
</event>
<event>
 4    1  0.4999097E-001  0.8804556E+02  0.7546771E-02  0.1307655E+00
          2   -1    0    0  501    0  0.00000000000E+00  0.00000000000E+00  0.46008931283E+03  0.46008931283E+03  0.00000000000E+00 0. -1.
         -2   -1    0    0    0  501 -0.00000000000E+00 -0.00000000000E+00 -0.17547429465E+02  0.17547429465E+02  0.00000000000E+00 0.  1.
         24    1    1    2    0    0 -0.35187902230E+02 -0.68275628422E+01  0.26891832044E+03  0.28296480894E+03  0.80419002446E+02 0. -1.
        -24    1    1    2    0    0  0.35187902230E+02  0.68275628422E+01  0.17362356293E+03  0.19467193335E+03  0.80419002446E+02 0.  1.
<mgrwt>
<rscale>  0 0.88045557E+02</rscale>
<asrwt>0</asrwt>
<pdfrwt beam="1">  1        2 0.70782962E-01 0.88045557E+02</pdfrwt>
<pdfrwt beam="2">  1       -2 0.26996049E-02 0.88045557E+02</pdfrwt>
<totfact> 0.30176797E+04</totfact>
</mgrwt>
</event>
<event>
 4    1  0.4999097E-001  0.8678049E+02  0.7546771E-02  0.1310841E+00
          2   -1    0    0  501    0  0.00000000000E+00  0.00000000000E+00  0.69971735639E+03  0.69971735639E+03  0.00000000000E+00 0. -1.
         -2   -1    0    0    0  501 -0.00000000000E+00 -0.00000000000E+00 -0.11056439601E+02  0.11056439601E+02  0.00000000000E+00 0.  1.
         24    1    1    2    0    0 -0.21629224461E+02  0.24409312088E+02  0.40225583343E+03  0.41151015705E+03  0.80419002446E+02 0. -1.
        -24    1    1    2    0    0  0.21629224461E+02 -0.24409312088E+02  0.28640508335E+03  0.29926363894E+03  0.80419002446E+02 0.  1.
<mgrwt>
<rscale>  0 0.86780492E+02</rscale>
<asrwt>0</asrwt>
<pdfrwt beam="1">  1        2 0.10764879E+00 0.86780492E+02</pdfrwt>
<pdfrwt beam="2">  1       -2 0.17009912E-02 0.86780492E+02</pdfrwt>
<totfact> 0.36787103E+04</totfact>
</mgrwt>
</event>
<event>
 4    1  0.4999097E-001  0.8887755E+02  0.7546771E-02  0.1305593E+00
          2   -1    0    0  501    0  0.00000000000E+00  0.00000000000E+00  0.99690688146E+03  0.99690688146E+03  0.00000000000E+00 0. -1.
         -2   -1    0    0    0  501 -0.00000000000E+00 -0.00000000000E+00 -0.80799817128E+01  0.80799817128E+01  0.00000000000E+00 0.  1.
         24    1    1    2    0    0  0.25596116480E+02 -0.27871821283E+02  0.42453469890E+03  0.43373831526E+03  0.80419002446E+02 0. -1.
        -24    1    1    2    0    0 -0.25596116480E+02  0.27871821283E+02  0.56429220084E+03  0.57124854791E+03  0.80419002446E+02 0. -1.
<mgrwt>
<rscale>  0 0.88877542E+02</rscale>
<asrwt>0</asrwt>
<pdfrwt beam="1">  1        2 0.15337019E+00 0.88877553E+02</pdfrwt>
<pdfrwt beam="2">  1       -2 0.12430749E-02 0.88877553E+02</pdfrwt>
<totfact> 0.37099894E+04</totfact>
</mgrwt>
</event>
<event>
 4    1  0.4999097E-001  0.8550748E+02  0.7546771E-02  0.1314111E+00
          1   -1    0    0  501    0  0.00000000000E+00  0.00000000000E+00  0.11322466071E+03  0.11322466071E+03  0.00000000000E+00 0. -1.
         -1   -1    0    0    0  501 -0.00000000000E+00 -0.00000000000E+00 -0.66684536637E+02  0.66684536637E+02  0.00000000000E+00 0.  1.
         24    1    1    2    0    0  0.15732787089E+02  0.24429324458E+02  0.72721781940E+01  0.85816158229E+02  0.80419002446E+02 0.  0.
        -24    1    1    2    0    0 -0.15732787089E+02 -0.24429324458E+02  0.39267945882E+02  0.94093039122E+02  0.80419002446E+02 0.  0.
<mgrwt>
<rscale>  0 0.85507476E+02</rscale>
<asrwt>0</asrwt>
<pdfrwt beam="1">  1        1 0.17419179E-01 0.85507476E+02</pdfrwt>
<pdfrwt beam="2">  1       -1 0.10259159E-01 0.85507476E+02</pdfrwt>
<totfact> 0.15901106E+04</totfact>
</mgrwt>
</event>
<event>
 4    1  0.4999097E-001  0.1002838E+03  0.7546771E-02  0.1279700E+00
          2   -1    0    0  501    0  0.00000000000E+00  0.00000000000E+00  0.48173489012E+03  0.48173489012E+03  0.00000000000E+00 0. -1.
         -2   -1    0    0    0  501 -0.00000000000E+00 -0.00000000000E+00 -0.21868310547E+02  0.21868310547E+02  0.00000000000E+00 0.  1.
         24    1    1    2    0    0 -0.59565206730E+02 -0.64504635281E+01  0.28356365334E+03  0.30077430705E+03  0.80419002446E+02 0. -1.
        -24    1    1    2    0    0  0.59565206730E+02  0.64504635281E+01  0.17630292624E+03  0.20282889362E+03  0.80419002446E+02 0.  1.
<mgrwt>
<rscale>  0 0.10028379E+03</rscale>
<asrwt>0</asrwt>
<pdfrwt beam="1">  1        2 0.74113052E-01 0.10028379E+03</pdfrwt>
<pdfrwt beam="2">  1       -2 0.33643558E-02 0.10028379E+03</pdfrwt>
<totfact> 0.21136398E+04</totfact>
</mgrwt>
</event>
<event>
 4    1  0.4999097E-001  0.8387765E+02  0.7546771E-02  0.1318394E+00
         -2   -1    0    0    0  501 -0.00000000000E+00  0.00000000000E+00  0.58790474817E+02  0.58790474817E+02  0.00000000000E+00 0.  1.
          2   -1    0    0  501    0  0.00000000000E+00 -0.00000000000E+00 -0.11970263123E+03  0.11970263123E+03  0.00000000000E+00 0. -1.
         24    1    1    2    0    0 -0.23687944889E+02  0.26687226974E+01 -0.28982805662E+02  0.88743787345E+02  0.80419002446E+02 0. -1.
        -24    1    1    2    0    0  0.23687944889E+02 -0.26687226974E+01 -0.31929350752E+02  0.89749318703E+02  0.80419002446E+02 0.  1.
<mgrwt>
<rscale>  0 0.83877640E+02</rscale>
<asrwt>0</asrwt>
<pdfrwt beam="1">  1        2 0.18415789E-01 0.83877651E+02</pdfrwt>
<pdfrwt beam="2">  1       -2 0.90446884E-02 0.83877651E+02</pdfrwt>
<totfact> 0.20926401E+04</totfact>
</mgrwt>
</event>
<event>
 4    1  0.4999097E-001  0.8666637E+02  0.7546771E-02  0.1311131E+00
         -1   -1    0    0    0  501 -0.00000000000E+00  0.00000000000E+00  0.13119432781E+03  0.13119432781E+03  0.00000000000E+00 0.  1.
          1   -1    0    0  501    0  0.00000000000E+00 -0.00000000000E+00 -0.73901546716E+03  0.73901546716E+03  0.00000000000E+00 0. -1.
         24    1    1    2    0    0 -0.25619450784E+02 -0.19684717691E+02  0.11400086877E+03  0.14320355584E+03  0.80419002446E+02 0.  1.
        -24    1    1    2    0    0  0.25619450784E+02  0.19684717691E+02 -0.72182200812E+03  0.72700623913E+03  0.80419002446E+02 0. -1.
<mgrwt>
<rscale>  0 0.86666374E+02</rscale>
<asrwt>0</asrwt>
<pdfrwt beam="1">  1        1 0.11369469E+00 0.86666374E+02</pdfrwt>
<pdfrwt beam="2">  1       -1 0.20183743E-01 0.86666374E+02</pdfrwt>
<totfact> 0.52715283E+02</totfact>
</mgrwt>
</event>
<event>
 4    1  0.4999097E-001  0.9168817E+02  0.7546771E-02  0.1298814E+00
          4   -1    0    0  501    0  0.00000000000E+00  0.00000000000E+00  0.27236104350E+02  0.27236104350E+02  0.00000000000E+00 0. -1.
         -4   -1    0    0    0  501 -0.00000000000E+00 -0.00000000000E+00 -0.39628073234E+03  0.39628073234E+03  0.00000000000E+00 0.  1.
         24    1    1    2    0    0  0.35302285732E+02 -0.26329715033E+02 -0.84949599407E+02  0.12499262244E+03  0.80419002446E+02 0. -1.
        -24    1    1    2    0    0 -0.35302285732E+02  0.26329715033E+02 -0.28409502859E+03  0.29852421425E+03  0.80419002446E+02 0.  1.
<mgrwt>
<rscale>  0 0.91688174E+02</rscale>
<asrwt>0</asrwt>
<pdfrwt beam="1">  1        4 0.41901698E-02 0.91688174E+02</pdfrwt>
<pdfrwt beam="2">  1       -4 0.60966267E-01 0.91688174E+02</pdfrwt>
<totfact> 0.12262673E+03</totfact>
</mgrwt>
</event>
<event>
 4    1  0.4999097E-001  0.8865813E+02  0.7546771E-02  0.1306134E+00
          1   -1    0    0  501    0  0.00000000000E+00  0.00000000000E+00  0.38983812765E+02  0.38983812765E+02  0.00000000000E+00 0. -1.
         -1   -1    0    0    0  501 -0.00000000000E+00 -0.00000000000E+00 -0.76035908154E+03  0.76035908154E+03  0.00000000000E+00 0.  1.
         24    1    1    2    0    0 -0.24114009099E+02 -0.28487951466E+02 -0.70329350895E+03  0.70885966488E+03  0.80419002446E+02 0.  1.
        -24    1    1    2    0    0  0.24114009099E+02  0.28487951466E+02 -0.18081759824E+02  0.90483229420E+02  0.80419002446E+02 0. -1.
<mgrwt>
<rscale>  0 0.88658134E+02</rscale>
<asrwt>0</asrwt>
<pdfrwt beam="1">  1        1 0.59975098E-02 0.88658134E+02</pdfrwt>
<pdfrwt beam="2">  1       -1 0.11697832E+00 0.88658134E+02</pdfrwt>
<totfact> 0.88386376E+02</totfact>
</mgrwt>
</event>
<event>
 4    1  0.4999097E-001  0.1022189E+03  0.7546771E-02  0.1275698E+00
         -2   -1    0    0    0  501 -0.00000000000E+00  0.00000000000E+00  0.47270895142E+02  0.47270895142E+02  0.00000000000E+00 0.  1.
          2   -1    0    0  501    0  0.00000000000E+00 -0.00000000000E+00 -0.11037038649E+04  0.11037038649E+04  0.00000000000E+00 0. -1.
         24    1    1    2    0    0  0.17270229125E+02  0.60689522022E+02 -0.10428612132E+04  0.10478588669E+04  0.80419002446E+02 0. -1.
        -24    1    1    2    0    0 -0.17270229125E+02 -0.60689522022E+02 -0.13571756560E+02  0.10311589319E+03  0.80419002446E+02 0.  1.
<mgrwt>
<rscale>  0 0.10221886E+03</rscale>
<asrwt>0</asrwt>
<pdfrwt beam="1">  1        2 0.16980060E+00 0.10221886E+03</pdfrwt>
<pdfrwt beam="2">  1       -2 0.72724453E-02 0.10221886E+03</pdfrwt>
<totfact> 0.24591830E+03</totfact>
</mgrwt>
</event>
<event>
 4    1  0.4999097E-001  0.1522201E+03  0.7546771E-02  0.1197771E+00
          2   -1    0    0  501    0  0.00000000000E+00  0.00000000000E+00  0.35682941966E+04  0.35682941966E+04  0.00000000000E+00 0. -1.
         -2   -1    0    0    0  501 -0.00000000000E+00 -0.00000000000E+00 -0.84198362572E+01  0.84198362572E+01  0.00000000000E+00 0.  1.
         24    1    1    2    0    0 -0.51944577641E+02 -0.11834489266E+03  0.26353200340E+04  0.26397126075E+04  0.80419002446E+02 0. -1.
        -24    1    1    2    0    0  0.51944577641E+02  0.11834489266E+03  0.92455432638E+03  0.93700142537E+03  0.80419002446E+02 0.  1.
<mgrwt>
<rscale>  0 0.15222013E+03</rscale>
<asrwt>0</asrwt>
<pdfrwt beam="1">  1        2 0.54896713E+00 0.15222013E+03</pdfrwt>
<pdfrwt beam="2">  1       -2 0.12953623E-02 0.15222013E+03</pdfrwt>
<totfact> 0.13745804E+03</totfact>
</mgrwt>
</event>
<event>
 4    1  0.4999097E-001  0.8928395E+02  0.7546771E-02  0.1304595E+00
         -2   -1    0    0    0  501 -0.00000000000E+00  0.00000000000E+00  0.12396980423E+02  0.12396980423E+02  0.00000000000E+00 0.  1.
          2   -1    0    0  501    0  0.00000000000E+00 -0.00000000000E+00 -0.10575231775E+04  0.10575231775E+04  0.00000000000E+00 0. -1.
         24    1    1    2    0    0 -0.34889941116E+02  0.16944040535E+02 -0.85747869174E+03  0.86211445368E+03  0.80419002446E+02 0. -1.
        -24    1    1    2    0    0  0.34889941116E+02 -0.16944040535E+02 -0.18764750530E+03  0.20780570420E+03  0.80419002446E+02 0.  1.
<mgrwt>
<rscale>  0 0.89283954E+02</rscale>
<asrwt>0</asrwt>
<pdfrwt beam="1">  1        2 0.16269593E+00 0.89283954E+02</pdfrwt>
<pdfrwt beam="2">  1       -2 0.19072271E-02 0.89283954E+02</pdfrwt>
<totfact> 0.18589505E+04</totfact>
</mgrwt>
</event>
<event>
 4    1  0.4999097E-001  0.8649655E+02  0.7546771E-02  0.1311565E+00
         -2   -1    0    0    0  501 -0.00000000000E+00  0.00000000000E+00  0.50903740719E+03  0.50903740719E+03  0.00000000000E+00 0.  1.
          2   -1    0    0  501    0  0.00000000000E+00 -0.00000000000E+00 -0.18893583631E+02  0.18893583631E+02  0.00000000000E+00 0. -1.
         24    1    1    2    0    0 -0.26499849914E+02  0.17669054974E+02  0.12067651468E+03  0.14847381823E+03  0.80419002446E+02 0. -1.
        -24    1    1    2    0    0  0.26499849914E+02 -0.17669054974E+02  0.36946730888E+03  0.37945717260E+03  0.80419002446E+02 0.  1.
<mgrwt>
<rscale>  0 0.86496552E+02</rscale>
<asrwt>0</asrwt>
<pdfrwt beam="1">  1        2 0.29067056E-02 0.86496552E+02</pdfrwt>
<pdfrwt beam="2">  1       -2 0.78313437E-01 0.86496552E+02</pdfrwt>
<totfact> 0.44400982E+03</totfact>
</mgrwt>
</event>
<event>
 4    1  0.4999097E-001  0.8773220E+02  0.7546771E-02  0.1308438E+00
          1   -1    0    0  501    0  0.00000000000E+00  0.00000000000E+00  0.83348381430E+03  0.83348381430E+03  0.00000000000E+00 0. -1.
         -1   -1    0    0    0  501 -0.00000000000E+00 -0.00000000000E+00 -0.98932681278E+01  0.98932681278E+01  0.00000000000E+00 0.  1.
         24    1    1    2    0    0 -0.46149120632E+01 -0.34762353220E+02  0.52059741854E+03  0.52793807095E+03  0.80419002446E+02 0.  1.
        -24    1    1    2    0    0  0.46149120632E+01  0.34762353220E+02  0.30299312764E+03  0.31543901148E+03  0.80419002446E+02 0.  1.
<mgrwt>
<rscale>  0 0.87732186E+02</rscale>
<asrwt>0</asrwt>
<pdfrwt beam="1">  1        1 0.12822822E+00 0.87732197E+02</pdfrwt>
<pdfrwt beam="2">  1       -1 0.15220419E-02 0.87732197E+02</pdfrwt>
<totfact> 0.20187225E+04</totfact>
</mgrwt>
</event>
<event>
 4    1  0.4999097E-001  0.1136759E+03  0.7546771E-02  0.1253910E+00
          2   -1    0    0  501    0  0.00000000000E+00  0.00000000000E+00  0.29687519859E+04  0.29687519859E+04  0.00000000000E+00 0. -1.
         -2   -1    0    0    0  501 -0.00000000000E+00 -0.00000000000E+00 -0.12946739721E+02  0.12946739721E+02  0.00000000000E+00 0.  1.
         24    1    1    2    0    0 -0.73292854893E+01 -0.80007908574E+02  0.26925529507E+04  0.26949515009E+04  0.80419002446E+02 0. -1.
        -24    1    1    2    0    0  0.73292854893E+01  0.80007908574E+02  0.26325229543E+03  0.28674722468E+03  0.80419002446E+02 0.  1.
<mgrwt>
<rscale>  0 0.11367585E+03</rscale>
<asrwt>0</asrwt>
<pdfrwt beam="1">  1        2 0.45673053E+00 0.11367585E+03</pdfrwt>
<pdfrwt beam="2">  1       -2 0.19918085E-02 0.11367585E+03</pdfrwt>
<totfact> 0.17412782E+03</totfact>
</mgrwt>
</event>
<event>
 4    1  0.4999097E-001  0.1054228E+03  0.7546771E-02  0.1269289E+00
          2   -1    0    0  501    0  0.00000000000E+00  0.00000000000E+00  0.13978555679E+04  0.13978555679E+04  0.00000000000E+00 0. -1.
         -2   -1    0    0    0  501 -0.00000000000E+00 -0.00000000000E+00 -0.12591716667E+02  0.12591716667E+02  0.00000000000E+00 0.  1.
         24    1    1    2    0    0  0.54319269691E+02 -0.41184655443E+02  0.11207755324E+04  0.11257227763E+04  0.80419002446E+02 0. -1.
        -24    1    1    2    0    0 -0.54319269691E+02  0.41184655443E+02  0.26448831881E+03  0.28472450833E+03  0.80419002446E+02 0.  1.
<mgrwt>
<rscale>  0 0.10542284E+03</rscale>
<asrwt>0</asrwt>
<pdfrwt beam="1">  1        2 0.21505458E+00 0.10542284E+03</pdfrwt>
<pdfrwt beam="2">  1       -2 0.19371883E-02 0.10542284E+03</pdfrwt>
<totfact> 0.12019028E+04</totfact>
</mgrwt>
</event>
<event>
 4    1  0.4999097E-001  0.8141444E+02  0.7546771E-02  0.1325085E+00
         -1   -1    0    0    0  501 -0.00000000000E+00  0.00000000000E+00  0.58119962979E+03  0.58119962979E+03  0.00000000000E+00 0.  1.
          1   -1    0    0  501    0  0.00000000000E+00 -0.00000000000E+00 -0.16721337991E+02  0.16721337991E+02  0.00000000000E+00 0. -1.
         24    1    1    2    0    0  0.62533246613E+01  0.11044947971E+02  0.45081819616E+03  0.45811063826E+03  0.80419002446E+02 0.  1.
        -24    1    1    2    0    0 -0.62533246613E+01 -0.11044947971E+02  0.11366009564E+03  0.13981032952E+03  0.80419002446E+02 0.  0.
<mgrwt>
<rscale>  0 0.81414439E+02</rscale>
<asrwt>0</asrwt>
<pdfrwt beam="1">  1        1 0.25725140E-02 0.81414439E+02</pdfrwt>
<pdfrwt beam="2">  1       -1 0.89415312E-01 0.81414439E+02</pdfrwt>
<totfact> 0.49946642E+03</totfact>
</mgrwt>
</event>
<event>
 4    1  0.4999097E-001  0.8261840E+02  0.7546771E-02  0.1321781E+00
          2   -1    0    0  501    0  0.00000000000E+00  0.00000000000E+00  0.39308444753E+03  0.39308444753E+03  0.00000000000E+00 0. -1.
         -2   -1    0    0    0  501 -0.00000000000E+00 -0.00000000000E+00 -0.32539315940E+02  0.32539315940E+02  0.00000000000E+00 0.  1.
         24    1    1    2    0    0  0.18914633148E+02  0.90615610599E+00  0.32560088973E+03  0.33591924597E+03  0.80419002446E+02 0.  0.
        -24    1    1    2    0    0 -0.18914633148E+02 -0.90615610599E+00  0.34944241858E+02  0.89704517497E+02  0.80419002446E+02 0.  0.
<mgrwt>
<rscale>  0 0.82618402E+02</rscale>
<asrwt>0</asrwt>
<pdfrwt beam="1">  1        2 0.60474527E-01 0.82618402E+02</pdfrwt>
<pdfrwt beam="2">  1       -2 0.50060489E-02 0.82618402E+02</pdfrwt>
<totfact> 0.14339418E+04</totfact>
</mgrwt>
</event>
<event>
 4    1  0.4999097E-001  0.1332720E+03  0.7546771E-02  0.1222680E+00
          4   -1    0    0  501    0  0.00000000000E+00  0.00000000000E+00  0.28515041189E+02  0.28515041189E+02  0.00000000000E+00 0. -1.
         -4   -1    0    0    0  501 -0.00000000000E+00 -0.00000000000E+00 -0.64137037882E+03  0.64137037882E+03  0.00000000000E+00 0.  1.
         24    1    1    2    0    0  0.95880588907E+02 -0.45838132930E+02 -0.24955631409E+03  0.28291304603E+03  0.80419002446E+02 0.  0.
        -24    1    1    2    0    0 -0.95880588907E+02  0.45838132930E+02 -0.36329902354E+03  0.38697237398E+03  0.80419002446E+02 0.  1.
<mgrwt>
<rscale>  0 0.13327204E+03</rscale>
<asrwt>0</asrwt>
<pdfrwt beam="1">  1        4 0.43869296E-02 0.13327204E+03</pdfrwt>
<pdfrwt beam="2">  1       -4 0.98672361E-01 0.13327204E+03</pdfrwt>
<totfact> 0.43142273E+02</totfact>
</mgrwt>
</event>
<event>
 4    1  0.4999097E-001  0.8687079E+02  0.7546771E-02  0.1310611E+00
         -2   -1    0    0    0  501 -0.00000000000E+00  0.00000000000E+00  0.17540362471E+02  0.17540362471E+02  0.00000000000E+00 0.  1.
          2   -1    0    0  501    0  0.00000000000E+00 -0.00000000000E+00 -0.60030843473E+03  0.60030843473E+03  0.00000000000E+00 0. -1.
         24    1    1    2    0    0 -0.12753665333E+02 -0.30276428630E+02 -0.45581330900E+03  0.46401757157E+03  0.80419002446E+02 0. -1.
        -24    1    1    2    0    0  0.12753665333E+02  0.30276428630E+02 -0.12695476325E+03  0.15383122562E+03  0.80419002446E+02 0.  1.
<mgrwt>
<rscale>  0 0.86870789E+02</rscale>
<asrwt>0</asrwt>
<pdfrwt beam="1">  1        2 0.92355139E-01 0.86870789E+02</pdfrwt>
<pdfrwt beam="2">  1       -2 0.26985174E-02 0.86870789E+02</pdfrwt>
<totfact> 0.22567226E+04</totfact>
</mgrwt>
</event>
<event>
 4    1  0.4999097E-001  0.8076330E+02  0.7546771E-02  0.1326899E+00
          3   -1    0    0  501    0  0.00000000000E+00  0.00000000000E+00  0.44471424427E+02  0.44471424427E+02  0.00000000000E+00 0. -1.
         -3   -1    0    0    0  501 -0.00000000000E+00 -0.00000000000E+00 -0.18024021514E+03  0.18024021514E+03  0.00000000000E+00 0.  1.
         24    1    1    2    0    0  0.32542186326E+01  0.67010898823E+01 -0.11637238504E+03  0.14165183549E+03  0.80419002446E+02 0.  0.
        -24    1    1    2    0    0 -0.32542186326E+01 -0.67010898823E+01 -0.19396405668E+02  0.83059804067E+02  0.80419002446E+02 0. -1.
<mgrwt>
<rscale>  0 0.80763299E+02</rscale>
<asrwt>0</asrwt>
<pdfrwt beam="1">  1        3 0.68417575E-02 0.80763299E+02</pdfrwt>
<pdfrwt beam="2">  1       -3 0.27729264E-01 0.80763299E+02</pdfrwt>
<totfact> 0.35037924E+03</totfact>
</mgrwt>
</event>
<event>
 4    1  0.4999097E-001  0.8345854E+02  0.7546771E-02  0.1319514E+00
         -2   -1    0    0    0  501 -0.00000000000E+00  0.00000000000E+00  0.62041583475E+01  0.62041583475E+01  0.00000000000E+00 0.  1.
          2   -1    0    0  501    0  0.00000000000E+00 -0.00000000000E+00 -0.11326586770E+04  0.11326586770E+04  0.00000000000E+00 0. -1.
         24    1    1    2    0    0 -0.15535252766E+02 -0.16023884496E+02 -0.50979708603E+03  0.51658338516E+03  0.80419002446E+02 0.  1.
        -24    1    1    2    0    0  0.15535252766E+02  0.16023884496E+02 -0.61665743266E+03  0.62227945022E+03  0.80419002446E+02 0. -1.
<mgrwt>
<rscale>  0 0.83458533E+02</rscale>
<asrwt>0</asrwt>
<pdfrwt beam="1">  1        2 0.17425518E+00 0.83458543E+02</pdfrwt>
<pdfrwt beam="2">  1       -2 0.95448593E-03 0.83458543E+02</pdfrwt>
<totfact> 0.44845056E+04</totfact>
</mgrwt>
</event>
<event>
 4    1  0.4999097E-001  0.1112459E+03  0.7546771E-02  0.1258280E+00
          2   -1    0    0  501    0  0.00000000000E+00  0.00000000000E+00  0.74166541112E+03  0.74166541112E+03  0.00000000000E+00 0. -1.
         -2   -1    0    0    0  501 -0.00000000000E+00 -0.00000000000E+00 -0.34992746888E+02  0.34992746888E+02  0.00000000000E+00 0.  1.
         24    1    1    2    0    0 -0.68160344819E+02 -0.35533042169E+02  0.63421128944E+03  0.64389409479E+03  0.80419002446E+02 0. -1.
        -24    1    1    2    0    0  0.68160344819E+02  0.35533042169E+02  0.72461374788E+02  0.13276406322E+03  0.80419002446E+02 0.  1.
<mgrwt>
<rscale>  0 0.11124588E+03</rscale>
<asrwt>0</asrwt>
<pdfrwt beam="1">  1        2 0.11410236E+00 0.11124588E+03</pdfrwt>
<pdfrwt beam="2">  1       -2 0.53835001E-02 0.11124588E+03</pdfrwt>
<totfact> 0.65231390E+03</totfact>
</mgrwt>
</event>
<event>
 4    1  0.4999097E-001  0.8370914E+02  0.7546771E-02  0.1318843E+00
         -1   -1    0    0    0  501 -0.00000000000E+00  0.00000000000E+00  0.25335239305E+03  0.25335239305E+03  0.00000000000E+00 0.  1.
          1   -1    0    0  501    0  0.00000000000E+00 -0.00000000000E+00 -0.49833171210E+02  0.49833171210E+02  0.00000000000E+00 0. -1.
         24    1    1    2    0    0 -0.23192386799E+02  0.14548764240E+01  0.20288327396E+03  0.21947401276E+03  0.80419002446E+02 0.  1.
        -24    1    1    2    0    0  0.23192386799E+02 -0.14548764240E+01  0.63594788558E+00  0.83711551502E+02  0.80419002446E+02 0. -1.
<mgrwt>
<rscale>  0 0.83709136E+02</rscale>
<asrwt>0</asrwt>
<pdfrwt beam="1">  1        1 0.76666418E-02 0.83709136E+02</pdfrwt>
<pdfrwt beam="2">  1       -1 0.38977291E-01 0.83709136E+02</pdfrwt>
<totfact> 0.54636454E+03</totfact>
</mgrwt>
</event>
<event>
 4    1  0.4999097E-001  0.8701892E+02  0.7546771E-02  0.1310236E+00
         -4   -1    0    0    0  501 -0.00000000000E+00  0.00000000000E+00  0.21143251361E+03  0.21143251361E+03  0.00000000000E+00 0.  1.
          4   -1    0    0  501    0  0.00000000000E+00 -0.00000000000E+00 -0.61334213761E+02  0.61334213761E+02  0.00000000000E+00 0. -1.
         24    1    1    2    0    0 -0.39562682713E+01 -0.33006443070E+02 -0.12924005169E+02  0.87973423298E+02  0.80419002446E+02 0. -1.
        -24    1    1    2    0    0  0.39562682713E+01  0.33006443070E+02  0.16302230502E+03  0.18479330408E+03  0.80419002446E+02 0.  1.
<mgrwt>
<rscale>  0 0.87018925E+02</rscale>
<asrwt>0</asrwt>
<pdfrwt beam="1">  1        4 0.94360330E-02 0.87018925E+02</pdfrwt>
<pdfrwt beam="2">  1       -4 0.32528079E-01 0.87018925E+02</pdfrwt>
<totfact> 0.11329720E+03</totfact>
</mgrwt>
</event>
<event>
 4    1  0.4999097E-001  0.8082829E+02  0.7546771E-02  0.1326717E+00
         -1   -1    0    0    0  501 -0.00000000000E+00  0.00000000000E+00  0.31804111680E+02  0.31804111680E+02  0.00000000000E+00 0.  1.
          1   -1    0    0  501    0  0.00000000000E+00 -0.00000000000E+00 -0.20671132258E+03  0.20671132258E+03  0.00000000000E+00 0. -1.
         24    1    1    2    0    0  0.36595075864E+01 -0.72526566300E+01 -0.96878522601E+02  0.12616916073E+03  0.80419002446E+02 0.  0.
        -24    1    1    2    0    0 -0.36595075864E+01  0.72526566300E+01 -0.78028688299E+02  0.11234627353E+03  0.80419002446E+02 0.  0.
<mgrwt>
<rscale>  0 0.80828279E+02</rscale>
<asrwt>0</asrwt>
<pdfrwt beam="1">  1        1 0.31801740E-01 0.80828289E+02</pdfrwt>
<pdfrwt beam="2">  1       -1 0.48929406E-02 0.80828289E+02</pdfrwt>
<totfact> 0.22418774E+04</totfact>
</mgrwt>
</event>
<event>
 4    1  0.4999097E-001  0.8548881E+02  0.7546771E-02  0.1314159E+00
          1   -1    0    0  501    0  0.00000000000E+00  0.00000000000E+00  0.78064920005E+02  0.78064920005E+02  0.00000000000E+00 0. -1.
         -1   -1    0    0    0  501 -0.00000000000E+00 -0.00000000000E+00 -0.10900605638E+03  0.10900605638E+03  0.00000000000E+00 0.  1.
         24    1    1    2    0    0 -0.28833043626E+02 -0.31266591953E+01 -0.50613104649E+02  0.99347987997E+02  0.80419002446E+02 0.  1.
        -24    1    1    2    0    0  0.28833043626E+02  0.31266591953E+01  0.19671968269E+02  0.87722988392E+02  0.80419002446E+02 0. -1.
<mgrwt>
<rscale>  0 0.85488808E+02</rscale>
<asrwt>0</asrwt>
<pdfrwt beam="1">  1        1 0.12009988E-01 0.85488808E+02</pdfrwt>
<pdfrwt beam="2">  1       -1 0.16770162E-01 0.85488808E+02</pdfrwt>
<totfact> 0.12040418E+04</totfact>
</mgrwt>
</event>
<event>
 4    1  0.4999097E-001  0.8483424E+02  0.7546771E-02  0.1315867E+00
          2   -1    0    0  501    0  0.00000000000E+00  0.00000000000E+00  0.47228206269E+03  0.47228206269E+03  0.00000000000E+00 0. -1.
         -2   -1    0    0    0  501 -0.00000000000E+00 -0.00000000000E+00 -0.20499638798E+02  0.20499638798E+02  0.00000000000E+00 0.  1.
         24    1    1    2    0    0  0.61140020844E+01  0.26310680597E+02  0.35071380944E+03  0.36082824865E+03  0.80419002446E+02 0. -1.
        -24    1    1    2    0    0 -0.61140020844E+01 -0.26310680597E+02  0.10106861445E+03  0.13195345284E+03  0.80419002446E+02 0.  1.
<mgrwt>
<rscale>  0 0.84834244E+02</rscale>
<asrwt>0</asrwt>
<pdfrwt beam="1">  1        2 0.72658771E-01 0.84834244E+02</pdfrwt>
<pdfrwt beam="2">  1       -2 0.31537909E-02 0.84834244E+02</pdfrwt>
<totfact> 0.23323459E+04</totfact>
</mgrwt>
</event>
<event>
 4    1  0.4999097E-001  0.8513845E+02  0.7546771E-02  0.1315071E+00
         -1   -1    0    0    0  501 -0.00000000000E+00  0.00000000000E+00  0.41105472279E+01  0.41105472279E+01  0.00000000000E+00 0.  1.
          1   -1    0    0  501    0  0.00000000000E+00 -0.00000000000E+00 -0.18565990584E+04  0.18565990584E+04  0.00000000000E+00 0. -1.
         24    1    1    2    0    0 -0.21947716902E+02 -0.17310039341E+02 -0.71780196809E+03  0.72283346705E+03  0.80419002446E+02 0.  1.
        -24    1    1    2    0    0  0.21947716902E+02  0.17310039341E+02 -0.11346865431E+04  0.11378761386E+04  0.80419002446E+02 0. -1.
<mgrwt>
<rscale>  0 0.85138450E+02</rscale>
<asrwt>0</asrwt>
<pdfrwt beam="1">  1        1 0.28563124E+00 0.85138450E+02</pdfrwt>
<pdfrwt beam="2">  1       -1 0.63239051E-03 0.85138450E+02</pdfrwt>
<totfact> 0.14395186E+04</totfact>
</mgrwt>
</event>
<event>
 4    1  0.4999097E-001  0.8861692E+02  0.7546771E-02  0.1306236E+00
         -1   -1    0    0    0  501 -0.00000000000E+00  0.00000000000E+00  0.86934188233E+01  0.86934188233E+01  0.00000000000E+00 0.  1.
          1   -1    0    0  501    0  0.00000000000E+00 -0.00000000000E+00 -0.95977688714E+03  0.95977688714E+03  0.00000000000E+00 0. -1.
         24    1    1    2    0    0 -0.13396704979E+02 -0.34731351327E+02 -0.59298357528E+03  0.59956857404E+03  0.80419002446E+02 0.  1.
        -24    1    1    2    0    0  0.13396704979E+02  0.34731351327E+02 -0.35809989304E+03  0.36890173193E+03  0.80419002446E+02 0.  1.
<mgrwt>
<rscale>  0 0.88616908E+02</rscale>
<asrwt>0</asrwt>
<pdfrwt beam="1">  1        1 0.14765801E+00 0.88616919E+02</pdfrwt>
<pdfrwt beam="2">  1       -1 0.13374488E-02 0.88616919E+02</pdfrwt>
<totfact> 0.19471742E+04</totfact>
</mgrwt>
</event>
<event>
 4    1  0.4999097E-001  0.8781773E+02  0.7546771E-02  0.1308224E+00
          2   -1    0    0  501    0  0.00000000000E+00  0.00000000000E+00  0.29841900574E+02  0.29841900574E+02  0.00000000000E+00 0. -1.
         -2   -1    0    0    0  501 -0.00000000000E+00 -0.00000000000E+00 -0.37847312696E+03  0.37847312696E+03  0.00000000000E+00 0.  1.
         24    1    1    2    0    0  0.34024481258E+02  0.93312931596E+01 -0.59335738411E+02  0.10598435811E+03  0.80419002446E+02 0. -1.
        -24    1    1    2    0    0 -0.34024481258E+02 -0.93312931596E+01 -0.28929548797E+03  0.30233066942E+03  0.80419002446E+02 0.  1.
<mgrwt>
<rscale>  0 0.87817733E+02</rscale>
<asrwt>0</asrwt>
<pdfrwt beam="1">  1        2 0.45910617E-02 0.87817733E+02</pdfrwt>
<pdfrwt beam="2">  1       -2 0.58226634E-01 0.87817733E+02</pdfrwt>
<totfact> 0.45342718E+03</totfact>
</mgrwt>
</event>
<event>
 4    1  0.4999097E-001  0.9014554E+02  0.7546771E-02  0.1302500E+00
         -2   -1    0    0    0  501 -0.00000000000E+00  0.00000000000E+00  0.14801445818E+03  0.14801445818E+03  0.00000000000E+00 0.  1.
          2   -1    0    0  501    0  0.00000000000E+00 -0.00000000000E+00 -0.15501553455E+03  0.15501553455E+03  0.00000000000E+00 0. -1.
         24    1    1    2    0    0  0.40237088681E+02  0.63229665698E+01 -0.12526356651E+03  0.15432815770E+03  0.80419002446E+02 0. -1.
        -24    1    1    2    0    0 -0.40237088681E+02 -0.63229665698E+01  0.11826249014E+03  0.14870183503E+03  0.80419002446E+02 0.  1.
<mgrwt>
<rscale>  0 0.90145544E+02</rscale>
<asrwt>0</asrwt>
<pdfrwt beam="1">  1        2 0.23848544E-01 0.90145544E+02</pdfrwt>
<pdfrwt beam="2">  1       -2 0.22771455E-01 0.90145544E+02</pdfrwt>
<totfact> 0.35666060E+03</totfact>
</mgrwt>
</event>
<event>
 4    1  0.4999097E-001  0.9261523E+02  0.7546771E-02  0.1296639E+00
          3   -1    0    0  501    0  0.00000000000E+00  0.00000000000E+00  0.26734136044E+04  0.26734136044E+04  0.00000000000E+00 0. -1.
         -3   -1    0    0    0  501 -0.00000000000E+00 -0.00000000000E+00 -0.33806347330E+01  0.33806347330E+01  0.00000000000E+00 0.  1.
         24    1    1    2    0    0  0.30674053867E+02  0.34197482042E+02  0.10329855850E+04  0.10371291145E+04  0.80419002446E+02 0.  1.
        -24    1    1    2    0    0 -0.30674053867E+02 -0.34197482042E+02  0.16370473847E+04  0.16396651247E+04  0.80419002446E+02 0. -1.
<mgrwt>
<rscale>  0 0.92615233E+02</rscale>
<asrwt>0</asrwt>
<pdfrwt beam="1">  1        3 0.41129271E+00 0.92615233E+02</pdfrwt>
<pdfrwt beam="2">  1       -3 0.52009979E-03 0.92615233E+02</pdfrwt>
<totfact> 0.20159952E+02</totfact>
</mgrwt>
</event>
<event>
 4    1  0.4999097E-001  0.8777188E+02  0.7546771E-02  0.1308339E+00
          2   -1    0    0  501    0  0.00000000000E+00  0.00000000000E+00  0.97220135530E+03  0.97220135530E+03  0.00000000000E+00 0. -1.
         -2   -1    0    0    0  501 -0.00000000000E+00 -0.00000000000E+00 -0.87214967534E+01  0.87214967534E+01  0.00000000000E+00 0.  1.
         24    1    1    2    0    0 -0.20717477493E+02 -0.28416007779E+02  0.33344559177E+03  0.34480409219E+03  0.80419002446E+02 0.  0.
        -24    1    1    2    0    0  0.20717477493E+02  0.28416007779E+02  0.63003426678E+03  0.63611875986E+03  0.80419002446E+02 0.  0.
<mgrwt>
<rscale>  0 0.87771871E+02</rscale>
<asrwt>0</asrwt>
<pdfrwt beam="1">  1        2 0.14956935E+00 0.87771881E+02</pdfrwt>
<pdfrwt beam="2">  1       -2 0.13417695E-02 0.87771881E+02</pdfrwt>
<totfact> 0.34374771E+04</totfact>
</mgrwt>
</event>
<event>
 4    1  0.4999097E-001  0.9542509E+02  0.7546771E-02  0.1290222E+00
          2   -1    0    0  501    0  0.00000000000E+00  0.00000000000E+00  0.16667464081E+03  0.16667464081E+03  0.00000000000E+00 0. -1.
         -2   -1    0    0    0  501 -0.00000000000E+00 -0.00000000000E+00 -0.18513201914E+03  0.18513201914E+03  0.00000000000E+00 0.  1.
         24    1    1    2    0    0 -0.68673668137E+00 -0.51363993857E+02  0.13845645059E+03  0.16815509548E+03  0.80419002446E+02 0. -1.
        -24    1    1    2    0    0  0.68673668137E+00  0.51363993857E+02 -0.15691382892E+03  0.18365156447E+03  0.80419002446E+02 0.  1.
<mgrwt>
<rscale>  0 0.95425088E+02</rscale>
<asrwt>0</asrwt>
<pdfrwt beam="1">  1        2 0.25642253E-01 0.95425088E+02</pdfrwt>
<pdfrwt beam="2">  1       -2 0.28481849E-01 0.95425088E+02</pdfrwt>
<totfact> 0.22416510E+03</totfact>
</mgrwt>
</event>
<event>
 4    1  0.4999097E-001  0.9840252E+02  0.7546771E-02  0.1283692E+00
          2   -1    0    0  501    0  0.00000000000E+00  0.00000000000E+00  0.87121355742E+03  0.87121355742E+03  0.00000000000E+00 0. -1.
         -2   -1    0    0    0  501 -0.00000000000E+00 -0.00000000000E+00 -0.17441112237E+02  0.17441112237E+02  0.00000000000E+00 0.  1.
         24    1    1    2    0    0 -0.15965532964E+02 -0.54414532972E+02  0.69449689091E+03  0.70143352293E+03  0.80419002446E+02 0. -1.
        -24    1    1    2    0    0  0.15965532964E+02  0.54414532972E+02  0.15927555427E+03  0.18722114673E+03  0.80419002446E+02 0.  1.
<mgrwt>
<rscale>  0 0.98402518E+02</rscale>
<asrwt>0</asrwt>
<pdfrwt beam="1">  1        2 0.13403282E+00 0.98402518E+02</pdfrwt>
<pdfrwt beam="2">  1       -2 0.26832487E-02 0.98402518E+02</pdfrwt>
<totfact> 0.14803518E+04</totfact>
</mgrwt>
</event>
<event>
 4    1  0.4999097E-001  0.9053037E+02  0.7546771E-02  0.1301572E+00
         -2   -1    0    0    0  501 -0.00000000000E+00  0.00000000000E+00  0.11654386815E+02  0.11654386815E+02  0.00000000000E+00 0.  1.
          2   -1    0    0  501    0  0.00000000000E+00 -0.00000000000E+00 -0.22628804546E+04  0.22628804546E+04  0.00000000000E+00 0. -1.
         24    1    1    2    0    0  0.15224783093E+02  0.38687706342E+02 -0.20697717843E+04  0.20717507059E+04  0.80419002446E+02 0. -1.
        -24    1    1    2    0    0 -0.15224783093E+02 -0.38687706342E+02 -0.18145428354E+03  0.20278413551E+03  0.80419002446E+02 0.  1.
<mgrwt>
<rscale>  0 0.90530374E+02</rscale>
<asrwt>0</asrwt>
<pdfrwt beam="1">  1        2 0.34813544E+00 0.90530374E+02</pdfrwt>
<pdfrwt beam="2">  1       -2 0.17929826E-02 0.90530374E+02</pdfrwt>
<totfact> 0.48619612E+03</totfact>
</mgrwt>
</event>
<event>
 4    1  0.4999097E-001  0.8807132E+02  0.7546771E-02  0.1307591E+00
         -2   -1    0    0    0  501 -0.00000000000E+00  0.00000000000E+00  0.12067093178E+02  0.12067093178E+02  0.00000000000E+00 0.  1.
          2   -1    0    0  501    0  0.00000000000E+00 -0.00000000000E+00 -0.69186530314E+03  0.69186530314E+03  0.00000000000E+00 0. -1.
         24    1    1    2    0    0  0.18033625992E+02 -0.31050449650E+02 -0.43364225926E+03  0.44249538649E+03  0.80419002446E+02 0. -1.
        -24    1    1    2    0    0 -0.18033625992E+02  0.31050449650E+02 -0.24615595069E+03  0.26143700983E+03  0.80419002446E+02 0.  1.
<mgrwt>
<rscale>  0 0.88071324E+02</rscale>
<asrwt>0</asrwt>
<pdfrwt beam="1">  1        2 0.10644081E+00 0.88071324E+02</pdfrwt>
<pdfrwt beam="2">  1       -2 0.18564760E-02 0.88071324E+02</pdfrwt>
<totfact> 0.32943241E+04</totfact>
</mgrwt>
</event>
<event>
 4    1  0.4999097E-001  0.1092666E+03  0.7546771E-02  0.1261934E+00
         -1   -1    0    0    0  501 -0.00000000000E+00  0.00000000000E+00  0.16371029051E+02  0.16371029051E+02  0.00000000000E+00 0.  1.
          1   -1    0    0  501    0  0.00000000000E+00 -0.00000000000E+00 -0.16959224792E+04  0.16959224792E+04  0.00000000000E+00 0. -1.
         24    1    1    2    0    0  0.69513239399E+02 -0.25296070895E+02 -0.19341297237E+03  0.22214359205E+03  0.80419002446E+02 0.  1.
        -24    1    1    2    0    0 -0.69513239399E+02  0.25296070895E+02 -0.14861384778E+04  0.14901499162E+04  0.80419002446E+02 0. -1.
<mgrwt>
<rscale>  0 0.10926664E+03</rscale>
<asrwt>0</asrwt>
<pdfrwt beam="1">  1        1 0.26091131E+00 0.10926664E+03</pdfrwt>
<pdfrwt beam="2">  1       -1 0.25186183E-02 0.10926664E+03</pdfrwt>
<totfact> 0.25819847E+03</totfact>
</mgrwt>
</event>
<event>
 4    1  0.4999097E-001  0.1241483E+03  0.7546771E-02  0.1236406E+00
         -2   -1    0    0    0  501 -0.00000000000E+00  0.00000000000E+00  0.90580795968E+03  0.90580795968E+03  0.00000000000E+00 0.  1.
          2   -1    0    0  501    0  0.00000000000E+00 -0.00000000000E+00 -0.43049993114E+02  0.43049993114E+02  0.00000000000E+00 0. -1.
         24    1    1    2    0    0 -0.36288913643E+01  0.94511496563E+02  0.62436278307E+02  0.13896437183E+03  0.80419002446E+02 0. -1.
        -24    1    1    2    0    0  0.36288913643E+01 -0.94511496563E+02  0.80032168826E+03  0.80989358097E+03  0.80419002446E+02 0.  1.
<mgrwt>
<rscale>  0 0.12414833E+03</rscale>
<asrwt>0</asrwt>
<pdfrwt beam="1">  1        2 0.66230766E-02 0.12414833E+03</pdfrwt>
<pdfrwt beam="2">  1       -2 0.13935506E+00 0.12414833E+03</pdfrwt>
<totfact> 0.40838440E+02</totfact>
</mgrwt>
</event>
<event>
 4    1  0.4999097E-001  0.8150347E+02  0.7546771E-02  0.1324838E+00
         -4   -1    0    0    0  501 -0.00000000000E+00  0.00000000000E+00  0.53291861923E+02  0.53291861923E+02  0.00000000000E+00 0.  1.
          4   -1    0    0  501    0  0.00000000000E+00 -0.00000000000E+00 -0.13443281671E+03  0.13443281671E+03  0.00000000000E+00 0. -1.
         24    1    1    2    0    0  0.13212599414E+02 -0.10134508463E+01 -0.65891243066E+02  0.10480683056E+03  0.80419002446E+02 0. -1.
        -24    1    1    2    0    0 -0.13212599414E+02  0.10134508463E+01 -0.15249711718E+02  0.82917848065E+02  0.80419002446E+02 0.  0.
<mgrwt>
<rscale>  0 0.81503471E+02</rscale>
<asrwt>0</asrwt>
<pdfrwt beam="1">  1        4 0.20681972E-01 0.81503471E+02</pdfrwt>
<pdfrwt beam="2">  1       -4 0.81987481E-02 0.81503471E+02</pdfrwt>
<totfact> 0.32240442E+03</totfact>
</mgrwt>
</event>
<event>
 4    1  0.4999097E-001  0.8385261E+02  0.7546771E-02  0.1318461E+00
         -1   -1    0    0    0  501 -0.00000000000E+00  0.00000000000E+00  0.71859713556E+03  0.71859713556E+03  0.00000000000E+00 0.  1.
          1   -1    0    0  501    0  0.00000000000E+00 -0.00000000000E+00 -0.27184454681E+03  0.27184454681E+03  0.00000000000E+00 0. -1.
         24    1    1    2    0    0 -0.21361680006E+01  0.23653354886E+02  0.70960303392E+03  0.71454022008E+03  0.80419002446E+02 0.  1.
        -24    1    1    2    0    0  0.21361680006E+01 -0.23653354886E+02 -0.26285044517E+03  0.27590146229E+03  0.80419002446E+02 0. -1.
<mgrwt>
<rscale>  0 0.83852611E+02</rscale>
<asrwt>0</asrwt>
<pdfrwt beam="1">  1        1 0.41822238E-01 0.83852611E+02</pdfrwt>
<pdfrwt beam="2">  1       -1 0.11055340E+00 0.83852611E+02</pdfrwt>
<totfact> 0.84795632E+01</totfact>
</mgrwt>
</event>
<event>
 4    1  0.4999097E-001  0.8045683E+02  0.7546771E-02  0.1327760E+00
          1   -1    0    0  501    0  0.00000000000E+00  0.00000000000E+00  0.20641479924E+04  0.20641479924E+04  0.00000000000E+00 0. -1.
         -1   -1    0    0    0  501 -0.00000000000E+00 -0.00000000000E+00 -0.32185361829E+01  0.32185361829E+01  0.00000000000E+00 0.  1.
         24    1    1    2    0    0 -0.22974962258E+01 -0.89825956352E+00  0.86499802119E+03  0.86873176411E+03  0.80419002446E+02 0.  0.
        -24    1    1    2    0    0  0.22974962258E+01  0.89825956352E+00  0.11959314350E+04  0.11986347644E+04  0.80419002446E+02 0. -1.
<mgrwt>
<rscale>  0 0.80456829E+02</rscale>
<asrwt>0</asrwt>
<pdfrwt beam="1">  1        1 0.31756017E+00 0.80456829E+02</pdfrwt>
<pdfrwt beam="2">  1       -1 0.49516106E-03 0.80456829E+02</pdfrwt>
<totfact> 0.14978319E+04</totfact>
</mgrwt>
</event>
<event>
 4    1  0.4999097E-001  0.8361770E+02  0.7546771E-02  0.1319087E+00
         -2   -1    0    0    0  501 -0.00000000000E+00  0.00000000000E+00  0.80980692927E+01  0.80980692927E+01  0.00000000000E+00 0.  1.
          2   -1    0    0  501    0  0.00000000000E+00 -0.00000000000E+00 -0.89859988803E+03  0.89859988803E+03  0.00000000000E+00 0. -1.
         24    1    1    2    0    0  0.10393426650E+02  0.20412765333E+02 -0.53496984612E+03  0.54146528653E+03  0.80419002446E+02 0. -1.
        -24    1    1    2    0    0 -0.10393426650E+02 -0.20412765333E+02 -0.35553197261E+03  0.36523267078E+03  0.80419002446E+02 0.  1.
<mgrwt>
<rscale>  0 0.83617703E+02</rscale>
<asrwt>0</asrwt>
<pdfrwt beam="1">  1        2 0.13824609E+00 0.83617703E+02</pdfrwt>
<pdfrwt beam="2">  1       -2 0.12458573E-02 0.83617703E+02</pdfrwt>
<totfact> 0.42094638E+04</totfact>
</mgrwt>
</event>
<event>
 4    1  0.4999097E-001  0.8728038E+02  0.7546771E-02  0.1309575E+00
         -1   -1    0    0    0  501 -0.00000000000E+00  0.00000000000E+00  0.48129862653E+01  0.48129862653E+01  0.00000000000E+00 0.  1.
          1   -1    0    0  501    0  0.00000000000E+00 -0.00000000000E+00 -0.29853015045E+04  0.29853015045E+04  0.00000000000E+00 0. -1.
         24    1    1    2    0    0  0.71346590580E+01 -0.33162420592E+02 -0.46549043797E+03  0.47360237889E+03  0.80419002446E+02 0.  1.
        -24    1    1    2    0    0 -0.71346590580E+01  0.33162420592E+02 -0.25149980803E+04  0.25165121119E+04  0.80419002446E+02 0.  0.
<mgrwt>
<rscale>  0 0.87280384E+02</rscale>
<asrwt>0</asrwt>
<pdfrwt beam="1">  1        1 0.45927617E+00 0.87280384E+02</pdfrwt>
<pdfrwt beam="2">  1       -1 0.74046101E-03 0.87280384E+02</pdfrwt>
<totfact> 0.21734732E+03</totfact>
</mgrwt>
</event>
<event>
 4    1  0.4999097E-001  0.8560860E+02  0.7546771E-02  0.1313849E+00
          2   -1    0    0  501    0  0.00000000000E+00  0.00000000000E+00  0.25693271300E+03  0.25693271300E+03  0.00000000000E+00 0. -1.
         -2   -1    0    0    0  501 -0.00000000000E+00 -0.00000000000E+00 -0.57024261111E+02  0.57024261111E+02  0.00000000000E+00 0.  1.
         24    1    1    2    0    0 -0.12229430474E+01  0.29327819842E+02  0.21093103635E+03  0.22764168040E+03  0.80419002446E+02 0. -1.
        -24    1    1    2    0    0  0.12229430474E+01 -0.29327819842E+02 -0.11022584456E+02  0.86315293713E+02  0.80419002446E+02 0.  1.
<mgrwt>
<rscale>  0 0.85608601E+02</rscale>
<asrwt>0</asrwt>
<pdfrwt beam="1">  1        2 0.39528109E-01 0.85608601E+02</pdfrwt>
<pdfrwt beam="2">  1       -2 0.87729634E-02 0.85608601E+02</pdfrwt>
<totfact> 0.96271353E+03</totfact>
</mgrwt>
</event>
<event>
 4    1  0.4999097E-001  0.8320774E+02  0.7546771E-02  0.1320187E+00
         -1   -1    0    0    0  501 -0.00000000000E+00  0.00000000000E+00  0.72111681201E+01  0.72111681201E+01  0.00000000000E+00 0.  1.
          1   -1    0    0  501    0  0.00000000000E+00 -0.00000000000E+00 -0.12190220905E+04  0.12190220905E+04  0.00000000000E+00 0. -1.
         24    1    1    2    0    0 -0.12843036241E+02 -0.17069504344E+02 -0.32334462040E+03  0.33387912641E+03  0.80419002446E+02 0.  0.
        -24    1    1    2    0    0  0.12843036241E+02  0.17069504344E+02 -0.88846630197E+03  0.89235413219E+03  0.80419002446E+02 0.  0.
<mgrwt>
<rscale>  0 0.83207737E+02</rscale>
<asrwt>0</asrwt>
<pdfrwt beam="1">  1        1 0.18754198E+00 0.83207737E+02</pdfrwt>
<pdfrwt beam="2">  1       -1 0.11094098E-02 0.83207737E+02</pdfrwt>
<totfact> 0.16646442E+04</totfact>
</mgrwt>
</event>
<event>
 4    1  0.4999097E-001  0.9540169E+02  0.7546771E-02  0.1290274E+00
          2   -1    0    0  501    0  0.00000000000E+00  0.00000000000E+00  0.37735215062E+02  0.37735215062E+02  0.00000000000E+00 0. -1.
         -2   -1    0    0    0  501 -0.00000000000E+00 -0.00000000000E+00 -0.41495596169E+03  0.41495596169E+03  0.00000000000E+00 0.  1.
         24    1    1    2    0    0 -0.13417292479E+02  0.49540320434E+02 -0.42140200423E+02  0.10429419702E+03  0.80419002446E+02 0. -1.
        -24    1    1    2    0    0  0.13417292479E+02 -0.49540320434E+02 -0.33508054620E+03  0.34839697973E+03  0.80419002446E+02 0.  1.
<mgrwt>
<rscale>  0 0.95401693E+02</rscale>
<asrwt>0</asrwt>
<pdfrwt beam="1">  1        2 0.58054177E-02 0.95401693E+02</pdfrwt>
<pdfrwt beam="2">  1       -2 0.63839379E-01 0.95401693E+02</pdfrwt>
<totfact> 0.27964326E+03</totfact>
</mgrwt>
</event>
<event>
 4    1  0.4999097E-001  0.8262616E+02  0.7546771E-02  0.1321760E+00
         -2   -1    0    0    0  501 -0.00000000000E+00  0.00000000000E+00  0.67812419171E+03  0.67812419171E+03  0.00000000000E+00 0.  1.
          2   -1    0    0  501    0  0.00000000000E+00 -0.00000000000E+00 -0.48649240315E+02  0.48649240315E+02  0.00000000000E+00 0. -1.
         24    1    1    2    0    0 -0.43345295054E+00 -0.18965187923E+02 -0.88721024672E+01  0.83101121478E+02  0.80419002446E+02 0.  0.
        -24    1    1    2    0    0  0.43345295054E+00  0.18965187923E+02  0.63834705386E+03  0.64367231054E+03  0.80419002446E+02 0.  1.
<mgrwt>
<rscale>  0 0.82626159E+02</rscale>
<asrwt>0</asrwt>
<pdfrwt beam="1">  1        2 0.74844990E-02 0.82626159E+02</pdfrwt>
<pdfrwt beam="2">  1       -2 0.10432679E+00 0.82626159E+02</pdfrwt>
<totfact> 0.68895854E+02</totfact>
</mgrwt>
</event>
<event>
 4    1  0.4999097E-001  0.8184831E+02  0.7546771E-02  0.1323887E+00
          2   -1    0    0  501    0  0.00000000000E+00  0.00000000000E+00  0.97605069960E+01  0.97605069960E+01  0.00000000000E+00 0. -1.
         -2   -1    0    0    0  501 -0.00000000000E+00 -0.00000000000E+00 -0.96753454261E+03  0.96753454261E+03  0.00000000000E+00 0.  1.
         24    1    1    2    0    0  0.27392683473E+01 -0.14980883858E+02 -0.21546236953E+03  0.23048466133E+03  0.80419002446E+02 0. -1.
        -24    1    1    2    0    0 -0.27392683473E+01  0.14980883858E+02 -0.74231166609E+03  0.74681038827E+03  0.80419002446E+02 0.  0.
<mgrwt>
<rscale>  0 0.81848314E+02</rscale>
<asrwt>0</asrwt>
<pdfrwt beam="1">  1        2 0.15016169E-02 0.81848314E+02</pdfrwt>
<pdfrwt beam="2">  1       -2 0.14885142E+00 0.81848314E+02</pdfrwt>
<totfact> 0.24054344E+03</totfact>
</mgrwt>
</event>
<event>
 4    1  0.4999097E-001  0.8091152E+02  0.7546771E-02  0.1326484E+00
         -2   -1    0    0    0  501 -0.00000000000E+00  0.00000000000E+00  0.30720170480E+03  0.30720170480E+03  0.00000000000E+00 0.  1.
          2   -1    0    0  501    0  0.00000000000E+00 -0.00000000000E+00 -0.27801938269E+02  0.27801938269E+02  0.00000000000E+00 0. -1.
         24    1    1    2    0    0 -0.40569253232E+01 -0.79372379145E+01  0.58762948044E+02  0.99998792023E+02  0.80419002446E+02 0. -1.
        -24    1    1    2    0    0  0.40569253232E+01  0.79372379145E+01  0.22063681849E+03  0.23500485105E+03  0.80419002446E+02 0.  0.
<mgrwt>
<rscale>  0 0.80911522E+02</rscale>
<asrwt>0</asrwt>
<pdfrwt beam="1">  1        2 0.42772215E-02 0.80911522E+02</pdfrwt>
<pdfrwt beam="2">  1       -2 0.47261798E-01 0.80911522E+02</pdfrwt>
<totfact> 0.74502567E+03</totfact>
</mgrwt>
</event>
<event>
 4    1  0.4999097E-001  0.8829946E+02  0.7546771E-02  0.1307023E+00
         -1   -1    0    0    0  501 -0.00000000000E+00  0.00000000000E+00  0.35903281544E+03  0.35903281544E+03  0.00000000000E+00 0.  1.
          1   -1    0    0  501    0  0.00000000000E+00 -0.00000000000E+00 -0.50520105793E+02  0.50520105793E+02  0.00000000000E+00 0. -1.
         24    1    1    2    0    0  0.33679688640E+02  0.13973422260E+02  0.30887943569E+03  0.32125270380E+03  0.80419002446E+02 0.  1.
        -24    1    1    2    0    0 -0.33679688640E+02 -0.13973422260E+02 -0.36672603581E+00  0.88300217434E+02  0.80419002446E+02 0. -1.
<mgrwt>
<rscale>  0 0.88299456E+02</rscale>
<asrwt>0</asrwt>
<pdfrwt beam="1">  1        1 0.77723242E-02 0.88299456E+02</pdfrwt>
<pdfrwt beam="2">  1       -1 0.55235816E-01 0.88299456E+02</pdfrwt>
<totfact> 0.28967308E+03</totfact>
</mgrwt>
</event>
<event>
 4    1  0.4999097E-001  0.1005715E+03  0.7546771E-02  0.1279099E+00
         -1   -1    0    0    0  501 -0.00000000000E+00  0.00000000000E+00  0.16935709587E+02  0.16935709587E+02  0.00000000000E+00 0.  1.
          1   -1    0    0  501    0  0.00000000000E+00 -0.00000000000E+00 -0.10176147619E+04  0.10176147619E+04  0.00000000000E+00 0. -1.
         24    1    1    2    0    0 -0.24247082434E+02 -0.55312708535E+02 -0.16787153004E+03  0.19569231789E+03  0.80419002446E+02 0.  1.
        -24    1    1    2    0    0  0.24247082434E+02  0.55312708535E+02 -0.83280752227E+03  0.83885815359E+03  0.80419002446E+02 0. -1.
<mgrwt>
<rscale>  0 0.10057153E+03</rscale>
<asrwt>0</asrwt>
<pdfrwt beam="1">  1        1 0.15655612E+00 0.10057153E+03</pdfrwt>
<pdfrwt beam="2">  1       -1 0.26054937E-02 0.10057153E+03</pdfrwt>
<totfact> 0.68900029E+03</totfact>
</mgrwt>
</event>
<event>
 4    1  0.4999097E-001  0.8705689E+02  0.7546771E-02  0.1310140E+00
          1   -1    0    0  501    0  0.00000000000E+00  0.00000000000E+00  0.38229149931E+03  0.38229149931E+03  0.00000000000E+00 0. -1.
         -1   -1    0    0    0  501 -0.00000000000E+00 -0.00000000000E+00 -0.34442396569E+02  0.34442396569E+02  0.00000000000E+00 0.  1.
         24    1    1    2    0    0 -0.31300941721E+02  0.11486393575E+02  0.38181312832E+02  0.95061636815E+02  0.80419002446E+02 0.  1.
        -24    1    1    2    0    0  0.31300941721E+02 -0.11486393575E+02  0.30966778991E+03  0.32167225906E+03  0.80419002446E+02 0. -1.
<mgrwt>
<rscale>  0 0.87056890E+02</rscale>
<asrwt>0</asrwt>
<pdfrwt beam="1">  1        1 0.58814074E-01 0.87056890E+02</pdfrwt>
<pdfrwt beam="2">  1       -1 0.52988305E-02 0.87056890E+02</pdfrwt>
<totfact> 0.94930954E+03</totfact>
</mgrwt>
</event>
<event>
 4    1  0.4999097E-001  0.1046233E+03  0.7546771E-02  0.1270864E+00
          2   -1    0    0  501    0  0.00000000000E+00  0.00000000000E+00  0.16695282687E+03  0.16695282687E+03  0.00000000000E+00 0. -1.
         -2   -1    0    0    0  501 -0.00000000000E+00 -0.00000000000E+00 -0.22070961191E+03  0.22070961191E+03  0.00000000000E+00 0.  1.
         24    1    1    2    0    0  0.23722070662E+02 -0.62578615120E+02  0.13563282773E+03  0.17129594163E+03  0.80419002446E+02 0. -1.
        -24    1    1    2    0    0 -0.23722070662E+02  0.62578615120E+02 -0.18938961278E+03  0.21636649715E+03  0.80419002446E+02 0.  1.
<mgrwt>
<rscale>  0 0.10462330E+03</rscale>
<asrwt>0</asrwt>
<pdfrwt beam="1">  1        2 0.25685050E-01 0.10462330E+03</pdfrwt>
<pdfrwt beam="2">  1       -2 0.33955325E-01 0.10462330E+03</pdfrwt>
<totfact> 0.16386453E+03</totfact>
</mgrwt>
</event>
<event>
 4    1  0.4999097E-001  0.8355997E+02  0.7546771E-02  0.1319242E+00
         -2   -1    0    0    0  501 -0.00000000000E+00  0.00000000000E+00  0.33626028686E+01  0.33626028686E+01  0.00000000000E+00 0.  1.
          2   -1    0    0  501    0  0.00000000000E+00 -0.00000000000E+00 -0.22272455127E+04  0.22272455127E+04  0.00000000000E+00 0. -1.
         24    1    1    2    0    0 -0.84073838840E+01  0.21080035734E+02 -0.14021479961E+04  0.14046356364E+04  0.80419002446E+02 0. -1.
        -24    1    1    2    0    0  0.84073838840E+01 -0.21080035734E+02 -0.82173491367E+03  0.82597247915E+03  0.80419002446E+02 0.  1.
<mgrwt>
<rscale>  0 0.83559966E+02</rscale>
<asrwt>0</asrwt>
<pdfrwt beam="1">  1        2 0.34265279E+00 0.83559966E+02</pdfrwt>
<pdfrwt beam="2">  1       -2 0.51732408E-03 0.83559966E+02</pdfrwt>
<totfact> 0.29288323E+04</totfact>
</mgrwt>
</event>
<event>
 4    1  0.4999097E-001  0.9110704E+02  0.7546771E-02  0.1300193E+00
         -2   -1    0    0    0  501 -0.00000000000E+00  0.00000000000E+00  0.11028379748E+02  0.11028379748E+02  0.00000000000E+00 0.  1.
          2   -1    0    0  501    0  0.00000000000E+00 -0.00000000000E+00 -0.12244411420E+04  0.12244411420E+04  0.00000000000E+00 0. -1.
         24    1    1    2    0    0 -0.42816771280E+02  0.33341247573E-01 -0.99015633193E+03  0.99433900388E+03  0.80419002446E+02 0. -1.
        -24    1    1    2    0    0  0.42816771280E+02 -0.33341247573E-01 -0.22325643031E+03  0.24113051786E+03  0.80419002446E+02 0.  1.
<mgrwt>
<rscale>  0 0.91107041E+02</rscale>
<asrwt>0</asrwt>
<pdfrwt beam="1">  1        2 0.18837566E+00 0.91107041E+02</pdfrwt>
<pdfrwt beam="2">  1       -2 0.16966729E-02 0.91107041E+02</pdfrwt>
<totfact> 0.17794476E+04</totfact>
</mgrwt>
</event>
<event>
 4    1  0.4999097E-001  0.8268011E+02  0.7546771E-02  0.1321613E+00
         -2   -1    0    0    0  501 -0.00000000000E+00  0.00000000000E+00  0.84337479938E+02  0.84337479938E+02  0.00000000000E+00 0.  1.
          2   -1    0    0  501    0  0.00000000000E+00 -0.00000000000E+00 -0.16041265408E+04  0.16041265408E+04  0.00000000000E+00 0. -1.
         24    1    1    2    0    0 -0.18487403985E+02  0.51962313652E+01 -0.15825208676E+04  0.15846792412E+04  0.80419002446E+02 0. -1.
        -24    1    1    2    0    0  0.18487403985E+02 -0.51962313652E+01  0.62731806800E+02  0.10378477955E+03  0.80419002446E+02 0.  1.
<mgrwt>
<rscale>  0 0.82680112E+02</rscale>
<asrwt>0</asrwt>
<pdfrwt beam="1">  1        2 0.24678871E+00 0.82680112E+02</pdfrwt>
<pdfrwt beam="2">  1       -2 0.12974997E-01 0.82680112E+02</pdfrwt>
<totfact> 0.54586674E+02</totfact>
</mgrwt>
</event>
<event>
 4    1  0.4999097E-001  0.8066940E+02  0.7546771E-02  0.1327162E+00
         -2   -1    0    0    0  501 -0.00000000000E+00  0.00000000000E+00  0.27200907080E+02  0.27200907080E+02  0.00000000000E+00 0.  1.
          2   -1    0    0  501    0  0.00000000000E+00 -0.00000000000E+00 -0.84361633678E+03  0.84361633678E+03  0.00000000000E+00 0. -1.
         24    1    1    2    0    0  0.40747268822E+01 -0.48716323863E+01 -0.77674222797E+03  0.78091999646E+03  0.80419002446E+02 0. -1.
        -24    1    1    2    0    0 -0.40747268822E+01  0.48716323863E+01 -0.39673201735E+02  0.89897247408E+02  0.80419002446E+02 0.  1.
<mgrwt>
<rscale>  0 0.80669400E+02</rscale>
<asrwt>0</asrwt>
<pdfrwt beam="1">  1        2 0.12978715E+00 0.80669400E+02</pdfrwt>
<pdfrwt beam="2">  1       -2 0.41847543E-02 0.80669400E+02</pdfrwt>
<totfact> 0.79431878E+03</totfact>
</mgrwt>
</event>
<event>
 4    1  0.4999097E-001  0.1941832E+03  0.7546771E-02  0.1154742E+00
         -1   -1    0    0    0  501 -0.00000000000E+00  0.00000000000E+00  0.91359712724E+02  0.91359712724E+02  0.00000000000E+00 0.  1.
          1   -1    0    0  501    0  0.00000000000E+00 -0.00000000000E+00 -0.47348633042E+03  0.47348633042E+03  0.00000000000E+00 0. -1.
         24    1    1    2    0    0 -0.13334642971E+03  0.11601140392E+03 -0.89897715315E+02  0.21398301645E+03  0.80419002446E+02 0.  1.
        -24    1    1    2    0    0  0.13334642971E+03 -0.11601140392E+03 -0.29222890238E+03  0.35086302669E+03  0.80419002446E+02 0. -1.
<mgrwt>
<rscale>  0 0.19418324E+03</rscale>
<asrwt>0</asrwt>
<pdfrwt beam="1">  1        1 0.72844051E-01 0.19418324E+03</pdfrwt>
<pdfrwt beam="2">  1       -1 0.14055340E-01 0.19418324E+03</pdfrwt>
<totfact> 0.17197760E+03</totfact>
</mgrwt>
</event>
<event>
 4    1  0.4999097E-001  0.8715794E+02  0.7546771E-02  0.1309884E+00
          1   -1    0    0  501    0  0.00000000000E+00  0.00000000000E+00  0.20159630266E+03  0.20159630266E+03  0.00000000000E+00 0. -1.
         -1   -1    0    0    0  501 -0.00000000000E+00 -0.00000000000E+00 -0.86724063401E+02  0.86724063401E+02  0.00000000000E+00 0.  1.
         24    1    1    2    0    0  0.29683561217E+02 -0.15753629678E+02 -0.50971766817E+02  0.10096844864E+03  0.80419002446E+02 0.  1.
        -24    1    1    2    0    0 -0.29683561217E+02  0.15753629678E+02  0.16584400607E+03  0.18735191741E+03  0.80419002446E+02 0. -1.
<mgrwt>
<rscale>  0 0.87157941E+02</rscale>
<asrwt>0</asrwt>
<pdfrwt beam="1">  1        1 0.31014816E-01 0.87157941E+02</pdfrwt>
<pdfrwt beam="2">  1       -1 0.13342164E-01 0.87157941E+02</pdfrwt>
<totfact> 0.52132114E+03</totfact>
</mgrwt>
</event>
<event>
 4    1  0.4999097E-001  0.1268938E+03  0.7546771E-02  0.1232139E+00
         -1   -1    0    0    0  501 -0.00000000000E+00  0.00000000000E+00  0.35565050401E+03  0.35565050401E+03  0.00000000000E+00 0.  1.
          1   -1    0    0  501    0  0.00000000000E+00 -0.00000000000E+00 -0.50450871927E+02  0.50450871927E+02  0.00000000000E+00 0. -1.
         24    1    1    2    0    0  0.54956864220E+02  0.81329977463E+02  0.21763770320E+03  0.25192897405E+03  0.80419002446E+02 0.  1.
        -24    1    1    2    0    0 -0.54956864220E+02 -0.81329977463E+02  0.87561928889E+02  0.15417240189E+03  0.80419002446E+02 0. -1.
<mgrwt>
<rscale>  0 0.12689381E+03</rscale>
<asrwt>0</asrwt>
<pdfrwt beam="1">  1        1 0.77616729E-02 0.12689381E+03</pdfrwt>
<pdfrwt beam="2">  1       -1 0.54715460E-01 0.12689381E+03</pdfrwt>
<totfact> 0.30180888E+03</totfact>
</mgrwt>
</event>
<event>
 4    1  0.4999097E-001  0.9686239E+02  0.7546771E-02  0.1287036E+00
          2   -1    0    0  501    0  0.00000000000E+00  0.00000000000E+00  0.53363110255E+03  0.53363110255E+03  0.00000000000E+00 0. -1.
         -2   -1    0    0    0  501 -0.00000000000E+00 -0.00000000000E+00 -0.18022151791E+02  0.18022151791E+02  0.00000000000E+00 0.  1.
         24    1    1    2    0    0  0.53775693995E+02  0.48250076703E+01  0.30090829239E+03  0.31611409704E+03  0.80419002446E+02 0. -1.
        -24    1    1    2    0    0 -0.53775693995E+02 -0.48250076703E+01  0.21470065836E+03  0.23553915730E+03  0.80419002446E+02 0.  1.
<mgrwt>
<rscale>  0 0.96862386E+02</rscale>
<asrwt>0</asrwt>
<pdfrwt beam="1">  1        2 0.82097081E-01 0.96862386E+02</pdfrwt>
<pdfrwt beam="2">  1       -2 0.27726391E-02 0.96862386E+02</pdfrwt>
<totfact> 0.24988388E+04</totfact>
</mgrwt>
</event>
<event>
 4    1  0.4999097E-001  0.8083973E+02  0.7546771E-02  0.1326685E+00
          1   -1    0    0  501    0  0.00000000000E+00  0.00000000000E+00  0.26346379858E+02  0.26346379858E+02  0.00000000000E+00 0. -1.
         -1   -1    0    0    0  501 -0.00000000000E+00 -0.00000000000E+00 -0.37202477972E+03  0.37202477972E+03  0.00000000000E+00 0.  1.
         24    1    1    2    0    0  0.22197658217E+00  0.82338326475E+01 -0.28782630920E+03  0.29896328453E+03  0.80419002446E+02 0.  1.
        -24    1    1    2    0    0 -0.22197658217E+00 -0.82338326475E+01 -0.57852090662E+02  0.99407875050E+02  0.80419002446E+02 0.  0.
<mgrwt>
<rscale>  0 0.80839726E+02</rscale>
<asrwt>0</asrwt>
<pdfrwt beam="1">  1        1 0.40532892E-02 0.80839726E+02</pdfrwt>
<pdfrwt beam="2">  1       -1 0.57234581E-01 0.80839726E+02</pdfrwt>
<totfact> 0.64504084E+03</totfact>
</mgrwt>
</event>
<event>
 4    1  0.4999097E-001  0.8686547E+02  0.7546771E-02  0.1310625E+00
         -2   -1    0    0    0  501 -0.00000000000E+00  0.00000000000E+00  0.26923641691E+02  0.26923641691E+02  0.00000000000E+00 0.  1.
          2   -1    0    0  501    0  0.00000000000E+00 -0.00000000000E+00 -0.47528708035E+03  0.47528708035E+03  0.00000000000E+00 0. -1.
         24    1    1    2    0    0  0.32397827844E+02  0.53641911112E+01 -0.38503349384E+03  0.39471052827E+03  0.80419002446E+02 0. -1.
        -24    1    1    2    0    0 -0.32397827844E+02 -0.53641911112E+01 -0.63329944817E+02  0.10750019377E+03  0.80419002446E+02 0.  1.
<mgrwt>
<rscale>  0 0.86865469E+02</rscale>
<asrwt>0</asrwt>
<pdfrwt beam="1">  1        2 0.73121082E-01 0.86865469E+02</pdfrwt>
<pdfrwt beam="2">  1       -2 0.41420991E-02 0.86865469E+02</pdfrwt>
<totfact> 0.15588905E+04</totfact>
</mgrwt>
</event>
<event>
 4    1  0.4999097E-001  0.1452830E+03  0.7546771E-02  0.1206392E+00
          1   -1    0    0  501    0  0.00000000000E+00  0.00000000000E+00  0.83238118410E+03  0.83238118410E+03  0.00000000000E+00 0. -1.
         -1   -1    0    0    0  501 -0.00000000000E+00 -0.00000000000E+00 -0.26333773270E+02  0.26333773270E+02  0.00000000000E+00 0.  1.
         24    1    1    2    0    0 -0.11236934969E+03  0.44867058621E+02  0.32035537633E+03  0.35175944450E+03  0.80419002446E+02 0.  0.
        -24    1    1    2    0    0  0.11236934969E+03 -0.44867058621E+02  0.48569203450E+03  0.50695551287E+03  0.80419002446E+02 0.  0.
<mgrwt>
<rscale>  0 0.14528296E+03</rscale>
<asrwt>0</asrwt>
<pdfrwt beam="1">  1        1 0.12805862E+00 0.14528296E+03</pdfrwt>
<pdfrwt beam="2">  1       -1 0.40513504E-02 0.14528296E+03</pdfrwt>
<totfact> 0.50949560E+03</totfact>
</mgrwt>
</event>
<event>
 4    1  0.4999097E-001  0.9572923E+02  0.7546771E-02  0.1289542E+00
         -2   -1    0    0    0  501 -0.00000000000E+00  0.00000000000E+00  0.13730074111E+02  0.13730074111E+02  0.00000000000E+00 0.  1.
          2   -1    0    0  501    0  0.00000000000E+00 -0.00000000000E+00 -0.67557440510E+03  0.67557440510E+03  0.00000000000E+00 0. -1.
         24    1    1    2    0    0 -0.57418199509E+01  0.51612939375E+02 -0.29311682272E+03  0.30835296613E+03  0.80419002446E+02 0. -1.
        -24    1    1    2    0    0  0.57418199509E+01 -0.51612939375E+02 -0.36872750827E+03  0.38095151308E+03  0.80419002446E+02 0.  1.
<mgrwt>
<rscale>  0 0.95729213E+02</rscale>
<asrwt>0</asrwt>
<pdfrwt beam="1">  1        2 0.10393452E+00 0.95729225E+02</pdfrwt>
<pdfrwt beam="2">  1       -2 0.21123192E-02 0.95729225E+02</pdfrwt>
<totfact> 0.28381298E+04</totfact>
</mgrwt>
</event>
<event>
 4    1  0.4999097E-001  0.1000980E+03  0.7546771E-02  0.1280090E+00
          1   -1    0    0  501    0  0.00000000000E+00  0.00000000000E+00  0.82718601778E+03  0.82718601778E+03  0.00000000000E+00 0. -1.
         -1   -1    0    0    0  501 -0.00000000000E+00 -0.00000000000E+00 -0.18855927111E+02  0.18855927111E+02  0.00000000000E+00 0.  1.
         24    1    1    2    0    0 -0.14216439618E+02  0.57881608939E+02  0.15119674784E+03  0.18132859764E+03  0.80419002446E+02 0.  1.
        -24    1    1    2    0    0  0.14216439618E+02 -0.57881608939E+02  0.65713334283E+03  0.66471334726E+03  0.80419002446E+02 0. -1.
<mgrwt>
<rscale>  0 0.10009797E+03</rscale>
<asrwt>0</asrwt>
<pdfrwt beam="1">  1        1 0.12725936E+00 0.10009797E+03</pdfrwt>
<pdfrwt beam="2">  1       -1 0.29009125E-02 0.10009797E+03</pdfrwt>
<totfact> 0.82043040E+03</totfact>
</mgrwt>
</event>
<event>
 4    1  0.4999097E-001  0.1096995E+03  0.7546771E-02  0.1261127E+00
         -1   -1    0    0    0  501 -0.00000000000E+00  0.00000000000E+00  0.32774115191E+02  0.32774115191E+02  0.00000000000E+00 0.  1.
          1   -1    0    0  501    0  0.00000000000E+00 -0.00000000000E+00 -0.10225436049E+04  0.10225436049E+04  0.00000000000E+00 0. -1.
         24    1    1    2    0    0  0.51229400547E+02  0.54243021299E+02 -0.72455723259E+02  0.13146788440E+03  0.80419002446E+02 0.  1.
        -24    1    1    2    0    0 -0.51229400547E+02 -0.54243021299E+02 -0.91731376642E+03  0.92384983567E+03  0.80419002446E+02 0. -1.
<mgrwt>
<rscale>  0 0.10969947E+03</rscale>
<asrwt>0</asrwt>
<pdfrwt beam="1">  1        1 0.15731438E+00 0.10969947E+03</pdfrwt>
<pdfrwt beam="2">  1       -1 0.50421723E-02 0.10969947E+03</pdfrwt>
<totfact> 0.26255120E+03</totfact>
</mgrwt>
</event>
<event>
 4    1  0.4999097E-001  0.1075462E+03  0.7546771E-02  0.1265183E+00
          3   -1    0    0  501    0  0.00000000000E+00  0.00000000000E+00  0.10409959938E+04  0.10409959938E+04  0.00000000000E+00 0. -1.
         -3   -1    0    0    0  501 -0.00000000000E+00 -0.00000000000E+00 -0.17977618644E+02  0.17977618644E+02  0.00000000000E+00 0.  1.
         24    1    1    2    0    0  0.23677852860E+01  0.71367751783E+02  0.18426609144E+03  0.21335456594E+03  0.80419002446E+02 0.  1.
        -24    1    1    2    0    0 -0.23677852860E+01 -0.71367751783E+02  0.83875228368E+03  0.84561904646E+03  0.80419002446E+02 0. -1.
<mgrwt>
<rscale>  0 0.10754617E+03</rscale>
<asrwt>0</asrwt>
<pdfrwt beam="1">  1        3 0.16015318E+00 0.10754617E+03</pdfrwt>
<pdfrwt beam="2">  1       -3 0.27657883E-02 0.10754617E+03</pdfrwt>
<totfact> 0.38000143E+02</totfact>
</mgrwt>
</event>
<event>
 4    1  0.4999097E-001  0.9172734E+02  0.7546771E-02  0.1298722E+00
         -1   -1    0    0    0  501 -0.00000000000E+00  0.00000000000E+00  0.41464060168E+01  0.41464060168E+01  0.00000000000E+00 0.  1.
          1   -1    0    0  501    0  0.00000000000E+00 -0.00000000000E+00 -0.24223485199E+04  0.24223485199E+04  0.00000000000E+00 0. -1.
         24    1    1    2    0    0  0.44077349841E+02 -0.19688929348E+01 -0.72032831346E+03  0.72614515384E+03  0.80419002446E+02 0.  1.
        -24    1    1    2    0    0 -0.44077349841E+02  0.19688929348E+01 -0.16978738004E+04  0.17003497721E+04  0.80419002446E+02 0. -1.
<mgrwt>
<rscale>  0 0.91727342E+02</rscale>
<asrwt>0</asrwt>
<pdfrwt beam="1">  1        1 0.37266934E+00 0.91727342E+02</pdfrwt>
<pdfrwt beam="2">  1       -1 0.63790805E-03 0.91727342E+02</pdfrwt>
<totfact> 0.62814985E+03</totfact>
</mgrwt>
</event>
<event>
 4    1  0.4999097E-001  0.1134498E+03  0.7546771E-02  0.1254312E+00
          3   -1    0    0  501    0  0.00000000000E+00  0.00000000000E+00  0.11177198590E+02  0.11177198590E+02  0.00000000000E+00 0. -1.
         -3   -1    0    0    0  501 -0.00000000000E+00 -0.00000000000E+00 -0.13787136200E+04  0.13787136200E+04  0.00000000000E+00 0.  1.
         24    1    1    2    0    0 -0.41092137334E+02  0.68666348378E+02 -0.96586941155E+03  0.97250941758E+03  0.80419002446E+02 0.  1.
        -24    1    1    2    0    0  0.41092137334E+02 -0.68666348378E+02 -0.40166700990E+03  0.41738140106E+03  0.80419002446E+02 0. -1.
<mgrwt>
<rscale>  0 0.11344976E+03</rscale>
<asrwt>0</asrwt>
<pdfrwt beam="1">  1        3 0.17195702E-02 0.11344976E+03</pdfrwt>
<pdfrwt beam="2">  1       -3 0.21210964E+00 0.11344976E+03</pdfrwt>
<totfact> 0.37240145E+02</totfact>
</mgrwt>
</event>
<event>
 4    1  0.4999097E-001  0.8767140E+02  0.7546771E-02  0.1308591E+00
         -1   -1    0    0    0  501 -0.00000000000E+00  0.00000000000E+00  0.11830125517E+03  0.11830125517E+03  0.00000000000E+00 0.  1.
          1   -1    0    0  501    0  0.00000000000E+00 -0.00000000000E+00 -0.66057118382E+02  0.66057118382E+02  0.00000000000E+00 0. -1.
         24    1    1    2    0    0  0.24285566193E+02  0.25085185089E+02  0.14307763634E+02  0.88831206740E+02  0.80419002446E+02 0. -1.
        -24    1    1    2    0    0 -0.24285566193E+02 -0.25085185089E+02  0.37936373151E+02  0.95527166809E+02  0.80419002446E+02 0.  1.
<mgrwt>
<rscale>  0 0.87671393E+02</rscale>
<asrwt>0</asrwt>
<pdfrwt beam="1">  1        1 0.10162634E-01 0.87671404E+02</pdfrwt>
<pdfrwt beam="2">  1       -1 0.18200193E-01 0.87671404E+02</pdfrwt>
<totfact> 0.13195600E+04</totfact>
</mgrwt>
</event>
<event>
 4    1  0.4999097E-001  0.8474531E+02  0.7546771E-02  0.1316100E+00
         -2   -1    0    0    0  501 -0.00000000000E+00  0.00000000000E+00  0.42005548658E+02  0.42005548658E+02  0.00000000000E+00 0.  1.
          2   -1    0    0  501    0  0.00000000000E+00 -0.00000000000E+00 -0.73458508399E+03  0.73458508399E+03  0.00000000000E+00 0. -1.
         24    1    1    2    0    0 -0.10491350551E+02 -0.24586243000E+02 -0.68640938181E+03  0.69162099966E+03  0.80419002446E+02 0. -1.
        -24    1    1    2    0    0  0.10491350551E+02  0.24586243000E+02 -0.61701535221E+01  0.84969632988E+02  0.80419002446E+02 0.  1.
<mgrwt>
<rscale>  0 0.84745311E+02</rscale>
<asrwt>0</asrwt>
<pdfrwt beam="1">  1        2 0.11301309E+00 0.84745311E+02</pdfrwt>
<pdfrwt beam="2">  1       -2 0.64623922E-02 0.84745311E+02</pdfrwt>
<totfact> 0.49397705E+03</totfact>
</mgrwt>
</event>
<event>
 4    1  0.4999097E-001  0.9361219E+02  0.7546771E-02  0.1294333E+00
          2   -1    0    0  501    0  0.00000000000E+00  0.00000000000E+00  0.47200701982E+03  0.47200701982E+03  0.00000000000E+00 0. -1.
         -2   -1    0    0    0  501 -0.00000000000E+00 -0.00000000000E+00 -0.28022410328E+02  0.28022410328E+02  0.00000000000E+00 0.  1.
         24    1    1    2    0    0  0.35558059557E+02 -0.32119316045E+02  0.36722952965E+03  0.37897330970E+03  0.80419002446E+02 0.  0.
        -24    1    1    2    0    0 -0.35558059557E+02  0.32119316045E+02  0.76755079844E+02  0.12105612045E+03  0.80419002446E+02 0.  0.
<mgrwt>
<rscale>  0 0.93612189E+02</rscale>
<asrwt>0</asrwt>
<pdfrwt beam="1">  1        2 0.72616459E-01 0.93612189E+02</pdfrwt>
<pdfrwt beam="2">  1       -2 0.43111404E-02 0.93612189E+02</pdfrwt>
<totfact> 0.14909501E+04</totfact>
</mgrwt>
</event>
<event>
 4    1  0.4999097E-001  0.8230434E+02  0.7546771E-02  0.1322636E+00
          1   -1    0    0  501    0  0.00000000000E+00  0.00000000000E+00  0.63530544497E+03  0.63530544497E+03  0.00000000000E+00 0. -1.
         -1   -1    0    0    0  501 -0.00000000000E+00 -0.00000000000E+00 -0.32547409542E+02  0.32547409542E+02  0.00000000000E+00 0.  1.
         24    1    1    2    0    0 -0.14228543830E+02 -0.10214546912E+02  0.27559742711E+02  0.86795989543E+02  0.80419002446E+02 0.  1.
        -24    1    1    2    0    0  0.14228543830E+02  0.10214546912E+02  0.57519829272E+03  0.58105686497E+03  0.80419002446E+02 0. -1.
<mgrwt>
<rscale>  0 0.82304340E+02</rscale>
<asrwt>0</asrwt>
<pdfrwt beam="1">  1        1 0.97739290E-01 0.82304340E+02</pdfrwt>
<pdfrwt beam="2">  1       -1 0.50072942E-02 0.82304340E+02</pdfrwt>
<totfact> 0.53505000E+03</totfact>
</mgrwt>
</event>
<event>
 4    1  0.4999097E-001  0.8157018E+02  0.7546771E-02  0.1324654E+00
          2   -1    0    0  501    0  0.00000000000E+00  0.00000000000E+00  0.14240262136E+04  0.14240262136E+04  0.00000000000E+00 0. -1.
         -2   -1    0    0    0  501 -0.00000000000E+00 -0.00000000000E+00 -0.47148491436E+01  0.47148491436E+01  0.00000000000E+00 0.  1.
         24    1    1    2    0    0 -0.12863986847E+02  0.45817937631E+01  0.64191190930E+03  0.64707386769E+03  0.80419002446E+02 0.  1.
        -24    1    1    2    0    0  0.12863986847E+02 -0.45817937631E+01  0.77739945519E+03  0.78166719509E+03  0.80419002446E+02 0. -1.
<mgrwt>
<rscale>  0 0.81570170E+02</rscale>
<asrwt>0</asrwt>
<pdfrwt beam="1">  1        2 0.21908061E+00 0.81570180E+02</pdfrwt>
<pdfrwt beam="2">  1       -2 0.72536254E-03 0.81570180E+02</pdfrwt>
<totfact> 0.46124328E+04</totfact>
</mgrwt>
</event>
<event>
 4    1  0.4999097E-001  0.1006609E+03  0.7546771E-02  0.1278912E+00
          1   -1    0    0  501    0  0.00000000000E+00  0.00000000000E+00  0.47375716876E+03  0.47375716876E+03  0.00000000000E+00 0. -1.
         -1   -1    0    0    0  501 -0.00000000000E+00 -0.00000000000E+00 -0.27564231110E+02  0.27564231110E+02  0.00000000000E+00 0.  1.
         24    1    1    2    0    0 -0.58061587261E+02 -0.17154083374E+02  0.10444260242E+03  0.14505476085E+03  0.80419002446E+02 0.  1.
        -24    1    1    2    0    0  0.58061587261E+02  0.17154083374E+02  0.34175033523E+03  0.35626663902E+03  0.80419002446E+02 0. -1.
<mgrwt>
<rscale>  0 0.10066095E+03</rscale>
<asrwt>0</asrwt>
<pdfrwt beam="1">  1        1 0.72885712E-01 0.10066095E+03</pdfrwt>
<pdfrwt beam="2">  1       -1 0.42406513E-02 0.10066095E+03</pdfrwt>
<totfact> 0.10166482E+04</totfact>
</mgrwt>
</event>
<event>
 4    1  0.4999097E-001  0.8600351E+02  0.7546771E-02  0.1312829E+00
          2   -1    0    0  501    0  0.00000000000E+00  0.00000000000E+00  0.17350567607E+03  0.17350567607E+03  0.00000000000E+00 0. -1.
         -2   -1    0    0    0  501 -0.00000000000E+00 -0.00000000000E+00 -0.11151315617E+03  0.11151315617E+03  0.00000000000E+00 0.  1.
         24    1    1    2    0    0 -0.14649851632E+02 -0.26735186223E+02  0.14300089216E+03  0.16687078669E+03  0.80419002446E+02 0. -1.
        -24    1    1    2    0    0  0.14649851632E+02  0.26735186223E+02 -0.81008372264E+02  0.11814804555E+03  0.80419002446E+02 0.  1.
<mgrwt>
<rscale>  0 0.86003513E+02</rscale>
<asrwt>0</asrwt>
<pdfrwt beam="1">  1        2 0.26693181E-01 0.86003513E+02</pdfrwt>
<pdfrwt beam="2">  1       -2 0.17155870E-01 0.86003513E+02</pdfrwt>
<totfact> 0.50497646E+03</totfact>
</mgrwt>
</event>
<event>
 4    1  0.4999097E-001  0.8412715E+02  0.7546771E-02  0.1317731E+00
          1   -1    0    0  501    0  0.00000000000E+00  0.00000000000E+00  0.96165473242E+03  0.96165473242E+03  0.00000000000E+00 0. -1.
         -1   -1    0    0    0  501 -0.00000000000E+00 -0.00000000000E+00 -0.92791381553E+01  0.92791381553E+01  0.00000000000E+00 0.  1.
         24    1    1    2    0    0 -0.23970354743E+02 -0.59651906672E+01  0.25538417816E+03  0.26888372174E+03  0.80419002446E+02 0.  1.
        -24    1    1    2    0    0  0.23970354743E+02  0.59651906672E+01  0.69699141610E+03  0.70205014883E+03  0.80419002446E+02 0. -1.
<mgrwt>
<rscale>  0 0.84127150E+02</rscale>
<asrwt>0</asrwt>
<pdfrwt beam="1">  1        1 0.14794680E+00 0.84127150E+02</pdfrwt>
<pdfrwt beam="2">  1       -1 0.14275605E-02 0.84127150E+02</pdfrwt>
<totfact> 0.17617787E+04</totfact>
</mgrwt>
</event>
<event>
 4    1  0.4999097E-001  0.9023577E+02  0.7546771E-02  0.1302282E+00
         -2   -1    0    0    0  501 -0.00000000000E+00  0.00000000000E+00  0.11141057521E+04  0.11141057521E+04  0.00000000000E+00 0.  1.
          2   -1    0    0  501    0  0.00000000000E+00 -0.00000000000E+00 -0.12366905364E+02  0.12366905364E+02  0.00000000000E+00 0. -1.
         24    1    1    2    0    0  0.40597276314E+02  0.52095433799E+01  0.19065181234E+03  0.21092796801E+03  0.80419002446E+02 0. -1.
        -24    1    1    2    0    0 -0.40597276314E+02 -0.52095433799E+01  0.91108703440E+03  0.91554468946E+03  0.80419002446E+02 0.  1.
<mgrwt>
<rscale>  0 0.90235770E+02</rscale>
<asrwt>0</asrwt>
<pdfrwt beam="1">  1        2 0.19026017E-02 0.90235770E+02</pdfrwt>
<pdfrwt beam="2">  1       -2 0.17140081E+00 0.90235770E+02</pdfrwt>
<totfact> 0.12242094E+03</totfact>
</mgrwt>
</event>
<event>
 4    1  0.4999097E-001  0.1317056E+03  0.7546771E-02  0.1224947E+00
         -2   -1    0    0    0  501 -0.00000000000E+00  0.00000000000E+00  0.20130307809E+03  0.20130307809E+03  0.00000000000E+00 0.  1.
          2   -1    0    0  501    0  0.00000000000E+00 -0.00000000000E+00 -0.13381918048E+03  0.13381918048E+03  0.00000000000E+00 0. -1.
         24    1    1    2    0    0 -0.23887334700E+02 -0.10153100600E+03 -0.66244238999E+02  0.14742681267E+03  0.80419002446E+02 0. -1.
        -24    1    1    2    0    0  0.23887334700E+02  0.10153100600E+03  0.13372813660E+03  0.18769544590E+03  0.80419002446E+02 0.  1.
<mgrwt>
<rscale>  0 0.13170560E+03</rscale>
<asrwt>0</asrwt>
<pdfrwt beam="1">  1        2 0.20587566E-01 0.13170560E+03</pdfrwt>
<pdfrwt beam="2">  1       -2 0.30969704E-01 0.13170560E+03</pdfrwt>
<totfact> 0.25015154E+03</totfact>
</mgrwt>
</event>
<event>
 4    1  0.4999097E-001  0.8339679E+02  0.7546771E-02  0.1319679E+00
          4   -1    0    0  501    0  0.00000000000E+00  0.00000000000E+00  0.13906620819E+02  0.13906620819E+02  0.00000000000E+00 0. -1.
         -4   -1    0    0    0  501 -0.00000000000E+00 -0.00000000000E+00 -0.54879880107E+03  0.54879880107E+03  0.00000000000E+00 0.  1.
         24    1    1    2    0    0  0.12632883415E+02 -0.18116834969E+02 -0.18365465230E+03  0.20170289220E+03  0.80419002446E+02 0.  1.
        -24    1    1    2    0    0 -0.12632883415E+02  0.18116834969E+02 -0.35123752794E+03  0.36100252969E+03  0.80419002446E+02 0.  1.
<mgrwt>
<rscale>  0 0.83396795E+02</rscale>
<asrwt>0</asrwt>
<pdfrwt beam="1">  1        4 0.21394798E-02 0.83396795E+02</pdfrwt>
<pdfrwt beam="2">  1       -4 0.84430600E-01 0.83396795E+02</pdfrwt>
<totfact> 0.16881862E+03</totfact>
</mgrwt>
</event>
<event>
 4    1  0.4999097E-001  0.8592190E+02  0.7546771E-02  0.1313039E+00
         -2   -1    0    0    0  501 -0.00000000000E+00  0.00000000000E+00  0.36758723125E+02  0.36758723125E+02  0.00000000000E+00 0.  1.
          2   -1    0    0  501    0  0.00000000000E+00 -0.00000000000E+00 -0.39349422340E+03  0.39349422340E+03  0.00000000000E+00 0. -1.
         24    1    1    2    0    0 -0.13759364337E+02  0.26945074978E+02 -0.32889510884E+03  0.33993317836E+03  0.80419002446E+02 0. -1.
        -24    1    1    2    0    0  0.13759364337E+02 -0.26945074978E+02 -0.27840391434E+02  0.90319768169E+02  0.80419002446E+02 0.  1.
<mgrwt>
<rscale>  0 0.85921901E+02</rscale>
<asrwt>0</asrwt>
<pdfrwt beam="1">  1        2 0.60537573E-01 0.85921901E+02</pdfrwt>
<pdfrwt beam="2">  1       -2 0.56551882E-02 0.85921901E+02</pdfrwt>
<totfact> 0.11992140E+04</totfact>
</mgrwt>
</event>
<event>
 4    1  0.4999097E-001  0.8257510E+02  0.7546771E-02  0.1321899E+00
          1   -1    0    0  501    0  0.00000000000E+00  0.00000000000E+00  0.38871705921E+03  0.38871705921E+03  0.00000000000E+00 0. -1.
         -1   -1    0    0    0  501 -0.00000000000E+00 -0.00000000000E+00 -0.34216989284E+02  0.34216989284E+02  0.00000000000E+00 0.  1.
         24    1    1    2    0    0  0.18645814002E+02 -0.19404140704E+01  0.29624274738E+02  0.87728246276E+02  0.80419002446E+02 0.  0.
        -24    1    1    2    0    0 -0.18645814002E+02  0.19404140704E+01  0.32487579519E+03  0.33520580222E+03  0.80419002446E+02 0. -1.
<mgrwt>
<rscale>  0 0.82575102E+02</rscale>
<asrwt>0</asrwt>
<pdfrwt beam="1">  1        1 0.59802621E-01 0.82575102E+02</pdfrwt>
<pdfrwt beam="2">  1       -1 0.52641525E-02 0.82575102E+02</pdfrwt>
<totfact> 0.93471068E+03</totfact>
</mgrwt>
</event>
<event>
 4    1  0.4999097E-001  0.8672829E+02  0.7546771E-02  0.1310974E+00
         -2   -1    0    0    0  501 -0.00000000000E+00  0.00000000000E+00  0.45749740261E+02  0.45749740261E+02  0.00000000000E+00 0.  1.
          2   -1    0    0  501    0  0.00000000000E+00 -0.00000000000E+00 -0.11271337544E+04  0.11271337544E+04  0.00000000000E+00 0. -1.
         24    1    1    2    0    0  0.16084517963E+02  0.28211139919E+02 -0.10826774153E+04  0.10861455619E+04  0.80419002446E+02 0. -1.
        -24    1    1    2    0    0 -0.16084517963E+02 -0.28211139919E+02  0.12934011659E+01  0.86737932732E+02  0.80419002446E+02 0.  0.
<mgrwt>
<rscale>  0 0.86728289E+02</rscale>
<asrwt>0</asrwt>
<pdfrwt beam="1">  1        2 0.17340521E+00 0.86728289E+02</pdfrwt>
<pdfrwt beam="2">  1       -2 0.70384210E-02 0.86728289E+02</pdfrwt>
<totfact> 0.24980918E+03</totfact>
</mgrwt>
</event>
<event>
 4    1  0.4999097E-001  0.8562292E+02  0.7546771E-02  0.1313812E+00
          1   -1    0    0  501    0  0.00000000000E+00  0.00000000000E+00  0.17496224826E+04  0.17496224826E+04  0.00000000000E+00 0. -1.
         -1   -1    0    0    0  501 -0.00000000000E+00 -0.00000000000E+00 -0.41905401129E+01  0.41905401129E+01  0.00000000000E+00 0.  1.
         24    1    1    2    0    0  0.29141092224E+02 -0.38550891599E+01  0.88053061988E+03  0.88468381553E+03  0.80419002446E+02 0.  1.
        -24    1    1    2    0    0 -0.29141092224E+02  0.38550891599E+01  0.86490132263E+03  0.86912920720E+03  0.80419002446E+02 0. -1.
<mgrwt>
<rscale>  0 0.85622910E+02</rscale>
<asrwt>0</asrwt>
<pdfrwt beam="1">  1        1 0.26917211E+00 0.85622921E+02</pdfrwt>
<pdfrwt beam="2">  1       -1 0.64469988E-03 0.85622921E+02</pdfrwt>
<totfact> 0.16351223E+04</totfact>
</mgrwt>
</event>
<event>
 4    1  0.4999097E-001  0.9676077E+02  0.7546771E-02  0.1287259E+00
         -1   -1    0    0    0  501 -0.00000000000E+00  0.00000000000E+00  0.56469542102E+02  0.56469542102E+02  0.00000000000E+00 0.  1.
          1   -1    0    0  501    0  0.00000000000E+00 -0.00000000000E+00 -0.44984553632E+03  0.44984553632E+03  0.00000000000E+00 0. -1.
         24    1    1    2    0    0 -0.53669276867E+02  0.38780370190E+01  0.44773597458E+01  0.96864302791E+02  0.80419002446E+02 0.  1.
        -24    1    1    2    0    0  0.53669276867E+02 -0.38780370190E+01 -0.39785335396E+03  0.40945077563E+03  0.80419002446E+02 0. -1.
<mgrwt>
<rscale>  0 0.96760769E+02</rscale>
<asrwt>0</asrwt>
<pdfrwt beam="1">  1        1 0.69207009E-01 0.96760769E+02</pdfrwt>
<pdfrwt beam="2">  1       -1 0.86876214E-02 0.96760769E+02</pdfrwt>
<totfact> 0.37508072E+03</totfact>
</mgrwt>
</event>
<event>
 4    1  0.4999097E-001  0.8602492E+02  0.7546771E-02  0.1312774E+00
          3   -1    0    0  501    0  0.00000000000E+00  0.00000000000E+00  0.37370143088E+02  0.37370143088E+02  0.00000000000E+00 0. -1.
         -3   -1    0    0    0  501 -0.00000000000E+00 -0.00000000000E+00 -0.25116997927E+03  0.25116997927E+03  0.00000000000E+00 0.  1.
         24    1    1    2    0    0 -0.18121203360E+02 -0.24590504035E+02 -0.17326145643E+03  0.19344203043E+03  0.80419002446E+02 0.  1.
        -24    1    1    2    0    0  0.18121203360E+02  0.24590504035E+02 -0.40538379750E+02  0.95098091921E+02  0.80419002446E+02 0. -1.
<mgrwt>
<rscale>  0 0.86024920E+02</rscale>
<asrwt>0</asrwt>
<pdfrwt beam="1">  1        3 0.57492529E-02 0.86024920E+02</pdfrwt>
<pdfrwt beam="2">  1       -3 0.38641534E-01 0.86024920E+02</pdfrwt>
<totfact> 0.25320629E+03</totfact>
</mgrwt>
</event>
<event>
 4    1  0.4999097E-001  0.1253078E+03  0.7546771E-02  0.1234589E+00
          1   -1    0    0  501    0  0.00000000000E+00  0.00000000000E+00  0.11277187250E+04  0.11277187250E+04  0.00000000000E+00 0. -1.
         -1   -1    0    0    0  501 -0.00000000000E+00 -0.00000000000E+00 -0.14993934362E+02  0.14993934362E+02  0.00000000000E+00 0.  1.
         24    1    1    2    0    0  0.49257645453E+02 -0.82513667694E+02  0.40371649845E+03  0.42271627372E+03  0.80419002446E+02 0.  1.
        -24    1    1    2    0    0 -0.49257645453E+02  0.82513667694E+02  0.70900829215E+03  0.71999638560E+03  0.80419002446E+02 0. -1.
<mgrwt>
<rscale>  0 0.12530777E+03</rscale>
<asrwt>0</asrwt>
<pdfrwt beam="1">  1        1 0.17349512E+00 0.12530777E+03</pdfrwt>
<pdfrwt beam="2">  1       -1 0.23067600E-02 0.12530777E+03</pdfrwt>
<totfact> 0.69433383E+03</totfact>
</mgrwt>
</event>
<event>
 4    1  0.4999097E-001  0.8529128E+02  0.7546771E-02  0.1314673E+00
          1   -1    0    0  501    0  0.00000000000E+00  0.00000000000E+00  0.66770647466E+03  0.66770647466E+03  0.00000000000E+00 0. -1.
         -1   -1    0    0    0  501 -0.00000000000E+00 -0.00000000000E+00 -0.20179199970E+02  0.20179199970E+02  0.00000000000E+00 0.  1.
         24    1    1    2    0    0 -0.24681694525E+02  0.14078373923E+02  0.90466923043E+02  0.12433369124E+03  0.80419002446E+02 0.  1.
        -24    1    1    2    0    0  0.24681694525E+02 -0.14078373923E+02  0.55706035165E+03  0.56355198340E+03  0.80419002446E+02 0. -1.
<mgrwt>
<rscale>  0 0.85291281E+02</rscale>
<asrwt>0</asrwt>
<pdfrwt beam="1">  1        1 0.10272406E+00 0.85291281E+02</pdfrwt>
<pdfrwt beam="2">  1       -1 0.31044928E-02 0.85291281E+02</pdfrwt>
<totfact> 0.10015435E+04</totfact>
</mgrwt>
</event>
<event>
 4    1  0.4999097E-001  0.1394288E+03  0.7546771E-02  0.1214100E+00
         -2   -1    0    0    0  501 -0.00000000000E+00  0.00000000000E+00  0.17003591340E+03  0.17003591340E+03  0.00000000000E+00 0.  1.
          2   -1    0    0  501    0  0.00000000000E+00 -0.00000000000E+00 -0.74848086062E+03  0.74848086062E+03  0.00000000000E+00 0. -1.
         24    1    1    2    0    0  0.69603086855E+02 -0.90158649945E+02 -0.71195208787E+03  0.72547650771E+03  0.80419002446E+02 0. -1.
        -24    1    1    2    0    0 -0.69603086855E+02  0.90158649945E+02  0.13350714065E+03  0.19304026632E+03  0.80419002446E+02 0.  1.
<mgrwt>
<rscale>  0 0.13942879E+03</rscale>
<asrwt>0</asrwt>
<pdfrwt beam="1">  1        2 0.11515090E+00 0.13942879E+03</pdfrwt>
<pdfrwt beam="2">  1       -2 0.26159371E-01 0.13942879E+03</pdfrwt>
<totfact> 0.51331134E+02</totfact>
</mgrwt>
</event>
<event>
 4    1  0.4999097E-001  0.8123064E+02  0.7546771E-02  0.1325595E+00
          2   -1    0    0  501    0  0.00000000000E+00  0.00000000000E+00  0.80550045129E+02  0.80550045129E+02  0.00000000000E+00 0. -1.
         -2   -1    0    0    0  501 -0.00000000000E+00 -0.00000000000E+00 -0.31725011031E+03  0.31725011031E+03  0.00000000000E+00 0.  1.
         24    1    1    2    0    0  0.10577490197E+02  0.43951606429E+01  0.52957158815E+02  0.96968434865E+02  0.80419002446E+02 0. -1.
        -24    1    1    2    0    0 -0.10577490197E+02 -0.43951606429E+01 -0.28965722400E+03  0.30083172058E+03  0.80419002446E+02 0.  1.
<mgrwt>
<rscale>  0 0.81230639E+02</rscale>
<asrwt>0</asrwt>
<pdfrwt beam="1">  1        2 0.12392315E-01 0.81230639E+02</pdfrwt>
<pdfrwt beam="2">  1       -2 0.48807709E-01 0.81230639E+02</pdfrwt>
<totfact> 0.18647729E+03</totfact>
</mgrwt>
</event>
<event>
 4    1  0.4999097E-001  0.9479799E+02  0.7546771E-02  0.1291632E+00
         -2   -1    0    0    0  501 -0.00000000000E+00  0.00000000000E+00  0.51263243251E+01  0.51263243251E+01  0.00000000000E+00 0.  1.
          2   -1    0    0  501    0  0.00000000000E+00 -0.00000000000E+00 -0.20106354831E+04  0.20106354831E+04  0.00000000000E+00 0. -1.
         24    1    1    2    0    0 -0.49501559601E+02  0.83089876918E+01 -0.13635079066E+04  0.13667993529E+04  0.80419002446E+02 0. -1.
        -24    1    1    2    0    0  0.49501559601E+02 -0.83089876918E+01 -0.64200125218E+03  0.64896245457E+03  0.80419002446E+02 0.  1.
<mgrwt>
<rscale>  0 0.94797994E+02</rscale>
<asrwt>0</asrwt>
<pdfrwt beam="1">  1        2 0.30932899E+00 0.94797994E+02</pdfrwt>
<pdfrwt beam="2">  1       -2 0.78866411E-03 0.94797994E+02</pdfrwt>
<totfact> 0.21006031E+04</totfact>
</mgrwt>
</event>
<event>
 4    1  0.4999097E-001  0.8534667E+02  0.7546771E-02  0.1314528E+00
         -2   -1    0    0    0  501 -0.00000000000E+00  0.00000000000E+00  0.12925755511E+02  0.12925755511E+02  0.00000000000E+00 0.  1.
          2   -1    0    0  501    0  0.00000000000E+00 -0.00000000000E+00 -0.73880097127E+03  0.73880097127E+03  0.00000000000E+00 0. -1.
         24    1    1    2    0    0  0.36886134512E+01  0.28341349206E+02 -0.54600921160E+03  0.55263922504E+03  0.80419002446E+02 0. -1.
        -24    1    1    2    0    0 -0.36886134512E+01 -0.28341349206E+02 -0.17986600416E+03  0.19908750174E+03  0.80419002446E+02 0.  1.
<mgrwt>
<rscale>  0 0.85346669E+02</rscale>
<asrwt>0</asrwt>
<pdfrwt beam="1">  1        2 0.11366172E+00 0.85346669E+02</pdfrwt>
<pdfrwt beam="2">  1       -2 0.19885773E-02 0.85346669E+02</pdfrwt>
<totfact> 0.27550167E+04</totfact>
</mgrwt>
</event>
<event>
 4    1  0.4999097E-001  0.1271412E+03  0.7546771E-02  0.1231760E+00
          2   -1    0    0  501    0  0.00000000000E+00  0.00000000000E+00  0.91283663220E+03  0.91283663220E+03  0.00000000000E+00 0.  1.
         -2   -1    0    0    0  501 -0.00000000000E+00 -0.00000000000E+00 -0.19689975583E+02  0.19689975583E+02  0.00000000000E+00 0. -1.
         24    1    1    2    0    0  0.39188818796E+02  0.90343229889E+02  0.29865783172E+03  0.32459417602E+03  0.80419002446E+02 0. -1.
        -24    1    1    2    0    0 -0.39188818796E+02 -0.90343229889E+02  0.59448882489E+03  0.60793243176E+03  0.80419002446E+02 0. -1.
<mgrwt>
<rscale>  0 0.12714119E+03</rscale>
<asrwt>0</asrwt>
<pdfrwt beam="1">  1        2 0.14043637E+00 0.12714121E+03</pdfrwt>
<pdfrwt beam="2">  1       -2 0.30292277E-02 0.12714121E+03</pdfrwt>
<totfact> 0.11889971E+04</totfact>
</mgrwt>
</event>
<event>
 4    1  0.4999097E-001  0.1020019E+03  0.7546771E-02  0.1276142E+00
          2   -1    0    0  501    0  0.00000000000E+00  0.00000000000E+00  0.10545281426E+04  0.10545281426E+04  0.00000000000E+00 0. -1.
         -2   -1    0    0    0  501 -0.00000000000E+00 -0.00000000000E+00 -0.17369690124E+02  0.17369690124E+02  0.00000000000E+00 0.  1.
         24    1    1    2    0    0 -0.43493833085E+02  0.45226630224E+02  0.87083145575E+03  0.87678492339E+03  0.80419002446E+02 0. -1.
        -24    1    1    2    0    0  0.43493833085E+02 -0.45226630224E+02  0.16632699675E+03  0.19511290936E+03  0.80419002446E+02 0.  1.
<mgrwt>
<rscale>  0 0.10200185E+03</rscale>
<asrwt>0</asrwt>
<pdfrwt beam="1">  1        2 0.16223505E+00 0.10200185E+03</pdfrwt>
<pdfrwt beam="2">  1       -2 0.26722608E-02 0.10200185E+03</pdfrwt>
<totfact> 0.11582982E+04</totfact>
</mgrwt>
</event>
<event>
 4    1  0.4999097E-001  0.1156915E+03  0.7546771E-02  0.1250379E+00
          4   -1    0    0  501    0  0.00000000000E+00  0.00000000000E+00  0.34282089242E+02  0.34282089242E+02  0.00000000000E+00 0. -1.
         -4   -1    0    0    0  501 -0.00000000000E+00 -0.00000000000E+00 -0.39218768660E+03  0.39218768660E+03  0.00000000000E+00 0.  1.
         24    1    1    2    0    0  0.31765986256E+02 -0.76864920875E+02 -0.19325712598E+03  0.22523948731E+03  0.80419002446E+02 0. -1.
        -24    1    1    2    0    0 -0.31765986256E+02  0.76864920875E+02 -0.16464847138E+03  0.20123028854E+03  0.80419002446E+02 0.  1.
<mgrwt>
<rscale>  0 0.11569146E+03</rscale>
<asrwt>0</asrwt>
<pdfrwt beam="1">  1        4 0.52741679E-02 0.11569147E+03</pdfrwt>
<pdfrwt beam="2">  1       -4 0.60336563E-01 0.11569147E+03</pdfrwt>
<totfact> 0.91748123E+02</totfact>
</mgrwt>
</event>
<event>
 4    1  0.4999097E-001  0.8849281E+02  0.7546771E-02  0.1306543E+00
          1   -1    0    0  501    0  0.00000000000E+00  0.00000000000E+00  0.19906021592E+03  0.19906021592E+03  0.00000000000E+00 0. -1.
         -1   -1    0    0    0  501 -0.00000000000E+00 -0.00000000000E+00 -0.39632529378E+02  0.39632529378E+02  0.00000000000E+00 0.  1.
         24    1    1    2    0    0 -0.16058909791E+02  0.33254677512E+02  0.69455969484E+02  0.11249493238E+03  0.80419002446E+02 0.  1.
        -24    1    1    2    0    0  0.16058909791E+02 -0.33254677512E+02  0.89971717058E+02  0.12619781292E+03  0.80419002446E+02 0. -1.
<mgrwt>
<rscale>  0 0.88492814E+02</rscale>
<asrwt>0</asrwt>
<pdfrwt beam="1">  1        1 0.30624648E-01 0.88492814E+02</pdfrwt>
<pdfrwt beam="2">  1       -1 0.60973123E-02 0.88492814E+02</pdfrwt>
<totfact> 0.17180931E+04</totfact>
</mgrwt>
</event>
<event>
 4    1  0.4999097E-001  0.9540383E+02  0.7546771E-02  0.1290269E+00
         -2   -1    0    0    0  501 -0.00000000000E+00  0.00000000000E+00  0.24092801474E+03  0.24092801474E+03  0.00000000000E+00 0.  1.
          2   -1    0    0  501    0  0.00000000000E+00 -0.00000000000E+00 -0.38014093139E+02  0.38014093139E+02  0.00000000000E+00 0. -1.
         24    1    1    2    0    0  0.45536134843E+02  0.23688286893E+02  0.90476369006E+02  0.13148332143E+03  0.80419002446E+02 0. -1.
        -24    1    1    2    0    0 -0.45536134843E+02 -0.23688286893E+02  0.11243755260E+03  0.14745878645E+03  0.80419002446E+02 0.  1.
<mgrwt>
<rscale>  0 0.95403828E+02</rscale>
<asrwt>0</asrwt>
<pdfrwt beam="1">  1        2 0.58483222E-02 0.95403828E+02</pdfrwt>
<pdfrwt beam="2">  1       -2 0.37065848E-01 0.95403828E+02</pdfrwt>
<totfact> 0.80191021E+03</totfact>
</mgrwt>
</event>
<event>
 4    1  0.4999097E-001  0.8608918E+02  0.7546771E-02  0.1312609E+00
         -2   -1    0    0    0  501 -0.00000000000E+00  0.00000000000E+00  0.69345341469E+01  0.69345341469E+01  0.00000000000E+00 0.  1.
          2   -1    0    0  501    0  0.00000000000E+00 -0.00000000000E+00 -0.10975532174E+04  0.10975532174E+04  0.00000000000E+00 0. -1.
         24    1    1    2    0    0 -0.20028860277E+02  0.23301777823E+02 -0.45586092894E+03  0.46391866807E+03  0.80419002446E+02 0.  1.
        -24    1    1    2    0    0  0.20028860277E+02 -0.23301777823E+02 -0.63475775430E+03  0.64056908347E+03  0.80419002446E+02 0. -1.
<mgrwt>
<rscale>  0 0.86089174E+02</rscale>
<asrwt>0</asrwt>
<pdfrwt beam="1">  1        2 0.16885428E+00 0.86089185E+02</pdfrwt>
<pdfrwt beam="2">  1       -2 0.10668518E-02 0.86089185E+02</pdfrwt>
<totfact> 0.40214218E+04</totfact>
</mgrwt>
</event>
<event>
 4    1  0.4999097E-001  0.8916555E+02  0.7546771E-02  0.1304885E+00
          1   -1    0    0  501    0  0.00000000000E+00  0.00000000000E+00  0.15077790252E+03  0.15077790252E+03  0.00000000000E+00 0. -1.
         -1   -1    0    0    0  501 -0.00000000000E+00 -0.00000000000E+00 -0.53410593240E+02  0.53410593240E+02  0.00000000000E+00 0.  1.
         24    1    1    2    0    0 -0.17100066549E+01 -0.38475379417E+02  0.37157565860E+02  0.96598031031E+02  0.80419002446E+02 0.  1.
        -24    1    1    2    0    0  0.17100066549E+01  0.38475379417E+02  0.60209743423E+02  0.10759046473E+03  0.80419002446E+02 0. -1.
<mgrwt>
<rscale>  0 0.89165548E+02</rscale>
<asrwt>0</asrwt>
<pdfrwt beam="1">  1        1 0.23196600E-01 0.89165548E+02</pdfrwt>
<pdfrwt beam="2">  1       -1 0.82170144E-02 0.89165548E+02</pdfrwt>
<totfact> 0.15565295E+04</totfact>
</mgrwt>
</event>
<event>
 4    1  0.4999097E-001  0.9668056E+02  0.7546771E-02  0.1287435E+00
          2   -1    0    0  501    0  0.00000000000E+00  0.00000000000E+00  0.12924569093E+03  0.12924569093E+03  0.00000000000E+00 0. -1.
         -2   -1    0    0    0  501 -0.00000000000E+00 -0.00000000000E+00 -0.17470760336E+03  0.17470760336E+03  0.00000000000E+00 0.  1.
         24    1    1    2    0    0  0.81623181391E+01 -0.53040472651E+02  0.93612855046E+02  0.13457524944E+03  0.80419002446E+02 0. -1.
        -24    1    1    2    0    0 -0.81623181391E+01  0.53040472651E+02 -0.13907476748E+03  0.16937804486E+03  0.80419002446E+02 0.  1.
<mgrwt>
<rscale>  0 0.96680562E+02</rscale>
<asrwt>0</asrwt>
<pdfrwt beam="1">  1        2 0.19883953E-01 0.96680562E+02</pdfrwt>
<pdfrwt beam="2">  1       -2 0.26878093E-01 0.96680562E+02</pdfrwt>
<totfact> 0.32892171E+03</totfact>
</mgrwt>
</event>
<event>
 4    1  0.4999097E-001  0.8117893E+02  0.7546771E-02  0.1325739E+00
          1   -1    0    0  501    0  0.00000000000E+00  0.00000000000E+00  0.72250250621E+02  0.72250250621E+02  0.00000000000E+00 0. -1.
         -1   -1    0    0    0  501 -0.00000000000E+00 -0.00000000000E+00 -0.10507243992E+03  0.10507243992E+03  0.00000000000E+00 0.  1.
         24    1    1    2    0    0 -0.61541798653E+01  0.92156970954E+01 -0.48613906099E+02  0.94622041953E+02  0.80419002446E+02 0.  0.
        -24    1    1    2    0    0  0.61541798653E+01 -0.92156970954E+01  0.15791716802E+02  0.82700648587E+02  0.80419002446E+02 0. -1.
<mgrwt>
<rscale>  0 0.81178932E+02</rscale>
<asrwt>0</asrwt>
<pdfrwt beam="1">  1        1 0.11115423E-01 0.81178932E+02</pdfrwt>
<pdfrwt beam="2">  1       -1 0.16164991E-01 0.81178932E+02</pdfrwt>
<totfact> 0.14017650E+04</totfact>
</mgrwt>
</event>
<event>
 4    1  0.4999097E-001  0.9187184E+02  0.7546771E-02  0.1298381E+00
         -1   -1    0    0    0  501 -0.00000000000E+00  0.00000000000E+00  0.47033423243E+02  0.47033423243E+02  0.00000000000E+00 0.  1.
          1   -1    0    0  501    0  0.00000000000E+00 -0.00000000000E+00 -0.22320873339E+03  0.22320873339E+03  0.00000000000E+00 0. -1.
         24    1    1    2    0    0 -0.44414647190E+02  0.74765164399E+00 -0.28264475517E+02  0.96121362863E+02  0.80419002446E+02 0.  1.
        -24    1    1    2    0    0  0.44414647190E+02 -0.74765164399E+00 -0.14791083463E+03  0.17412079377E+03  0.80419002446E+02 0. -1.
<mgrwt>
<rscale>  0 0.91871845E+02</rscale>
<asrwt>0</asrwt>
<pdfrwt beam="1">  1        1 0.34339806E-01 0.91871845E+02</pdfrwt>
<pdfrwt beam="2">  1       -1 0.72359112E-02 0.91871845E+02</pdfrwt>
<totfact> 0.11635549E+04</totfact>
</mgrwt>
</event>
<event>
 4    1  0.4999097E-001  0.1013820E+03  0.7546771E-02  0.1277416E+00
          2   -1    0    0  501    0  0.00000000000E+00  0.00000000000E+00  0.28577464333E+04  0.28577464333E+04  0.00000000000E+00 0. -1.
         -2   -1    0    0    0  501 -0.00000000000E+00 -0.00000000000E+00 -0.45572413869E+01  0.45572413869E+01  0.00000000000E+00 0.  1.
         24    1    1    2    0    0  0.16273928876E+02 -0.59550402481E+02  0.20836538843E+04  0.20861188405E+04  0.80419002446E+02 0. -1.
        -24    1    1    2    0    0 -0.16273928876E+02  0.59550402481E+02  0.76953530764E+03  0.77618483421E+03  0.80419002446E+02 0.  1.
<mgrwt>
<rscale>  0 0.10138199E+03</rscale>
<asrwt>0</asrwt>
<pdfrwt beam="1">  1        2 0.43965186E+00 0.10138199E+03</pdfrwt>
<pdfrwt beam="2">  1       -2 0.70111634E-03 0.10138199E+03</pdfrwt>
<totfact> 0.89296852E+03</totfact>
</mgrwt>
</event>
<event>
 4    1  0.4999097E-001  0.8872698E+02  0.7546771E-02  0.1305964E+00
          2   -1    0    0  501    0  0.00000000000E+00  0.00000000000E+00  0.15771014763E+04  0.15771014763E+04  0.00000000000E+00 0. -1.
         -2   -1    0    0    0  501 -0.00000000000E+00 -0.00000000000E+00 -0.41171219375E+02  0.41171219375E+02  0.00000000000E+00 0.  1.
         24    1    1    2    0    0 -0.36044762405E+02 -0.10297395990E+02  0.15264658795E+04  0.15290423665E+04  0.80419002446E+02 0. -1.
        -24    1    1    2    0    0  0.36044762405E+02  0.10297395990E+02  0.94643774703E+01  0.89230329240E+02  0.80419002446E+02 0.  1.
<mgrwt>
<rscale>  0 0.88726981E+02</rscale>
<asrwt>0</asrwt>
<pdfrwt beam="1">  1        2 0.24263095E+00 0.88726981E+02</pdfrwt>
<pdfrwt beam="2">  1       -2 0.63340350E-02 0.88726981E+02</pdfrwt>
<totfact> 0.17006976E+03</totfact>
</mgrwt>
</event>
<event>
 4    1  0.4999097E-001  0.9154197E+02  0.7546771E-02  0.1299160E+00
         -2   -1    0    0    0  501 -0.00000000000E+00  0.00000000000E+00  0.51339709150E+01  0.51339709150E+01  0.00000000000E+00 0.  1.
          2   -1    0    0  501    0  0.00000000000E+00 -0.00000000000E+00 -0.17905898143E+04  0.17905898143E+04  0.00000000000E+00 0. -1.
         24    1    1    2    0    0 -0.43713340350E+02 -0.13635632379E+01 -0.11597238170E+04  0.11633311064E+04  0.80419002446E+02 0. -1.
        -24    1    1    2    0    0  0.43713340350E+02  0.13635632379E+01 -0.62573202633E+03  0.63239267877E+03  0.80419002446E+02 0.  1.
<mgrwt>
<rscale>  0 0.91541965E+02</rscale>
<asrwt>0</asrwt>
<pdfrwt beam="1">  1        2 0.27547561E+00 0.91541965E+02</pdfrwt>
<pdfrwt beam="2">  1       -2 0.78984095E-03 0.91541965E+02</pdfrwt>
<totfact> 0.26973072E+04</totfact>
</mgrwt>
</event>
<event>
 4    1  0.4999097E-001  0.9698290E+02  0.7546771E-02  0.1286772E+00
         -2   -1    0    0    0  501 -0.00000000000E+00  0.00000000000E+00  0.23130873534E+03  0.23130873534E+03  0.00000000000E+00 0.  1.
          2   -1    0    0  501    0  0.00000000000E+00 -0.00000000000E+00 -0.90433878545E+02  0.90433878545E+02  0.00000000000E+00 0. -1.
         24    1    1    2    0    0  0.19657786595E+02 -0.50517712662E+02 -0.48906712920E+02  0.10861652908E+03  0.80419002446E+02 0. -1.
        -24    1    1    2    0    0 -0.19657786595E+02  0.50517712662E+02  0.18978156972E+03  0.21312608481E+03  0.80419002446E+02 0.  1.
<mgrwt>
<rscale>  0 0.96982905E+02</rscale>
<asrwt>0</asrwt>
<pdfrwt beam="1">  1        2 0.13912904E-01 0.96982905E+02</pdfrwt>
<pdfrwt beam="2">  1       -2 0.35585959E-01 0.96982905E+02</pdfrwt>
<totfact> 0.29918847E+03</totfact>
</mgrwt>
</event>
<event>
 4    1  0.4999097E-001  0.8996127E+02  0.7546771E-02  0.1302946E+00
          2   -1    0    0  501    0  0.00000000000E+00  0.00000000000E+00  0.47604163104E+03  0.47604163104E+03  0.00000000000E+00 0. -1.
         -2   -1    0    0    0  501 -0.00000000000E+00 -0.00000000000E+00 -0.22039193177E+02  0.22039193177E+02  0.00000000000E+00 0.  1.
         24    1    1    2    0    0 -0.38383530496E+02  0.12349719174E+02  0.10792539707E+03  0.14050237814E+03  0.80419002446E+02 0.  0.
        -24    1    1    2    0    0  0.38383530496E+02 -0.12349719174E+02  0.34607704079E+03  0.35757844607E+03  0.80419002446E+02 0.  0.
<mgrwt>
<rscale>  0 0.89961264E+02</rscale>
<asrwt>0</asrwt>
<pdfrwt beam="1">  1        2 0.73237167E-01 0.89961275E+02</pdfrwt>
<pdfrwt beam="2">  1       -2 0.33906455E-02 0.89961275E+02</pdfrwt>
<totfact> 0.20939499E+04</totfact>
</mgrwt>
</event>
<event>
 4    1  0.4999097E-001  0.8048352E+02  0.7546771E-02  0.1327685E+00
          1   -1    0    0  501    0  0.00000000000E+00  0.00000000000E+00  0.19239446126E+03  0.19239446126E+03  0.00000000000E+00 0. -1.
         -1   -1    0    0    0  501 -0.00000000000E+00 -0.00000000000E+00 -0.38785472462E+02  0.38785472462E+02  0.00000000000E+00 0.  1.
         24    1    1    2    0    0 -0.12153958378E+01 -0.29833380301E+01  0.11879014063E+03  0.14348759862E+03  0.80419002446E+02 0.  0.
        -24    1    1    2    0    0  0.12153958378E+01  0.29833380301E+01  0.34818848165E+02  0.87692335097E+02  0.80419002446E+02 0.  0.
<mgrwt>
<rscale>  0 0.80483508E+02</rscale>
<asrwt>0</asrwt>
<pdfrwt beam="1">  1        1 0.29599147E-01 0.80483518E+02</pdfrwt>
<pdfrwt beam="2">  1       -1 0.59669959E-02 0.80483518E+02</pdfrwt>
<totfact> 0.18299880E+04</totfact>
</mgrwt>
</event>
<event>
 4    1  0.4999097E-001  0.9935347E+02  0.7546771E-02  0.1281661E+00
         -2   -1    0    0    0  501 -0.00000000000E+00  0.00000000000E+00  0.76125452438E+02  0.76125452438E+02  0.00000000000E+00 0.  1.
          2   -1    0    0  501    0  0.00000000000E+00 -0.00000000000E+00 -0.22182849069E+03  0.22182849069E+03  0.00000000000E+00 0. -1.
         24    1    1    2    0    0 -0.54191380807E+02  0.21614600763E+02 -0.16887566872E+03  0.19593392805E+03  0.80419002446E+02 0.  1.
        -24    1    1    2    0    0  0.54191380807E+02 -0.21614600763E+02  0.23172630469E+02  0.10202001508E+03  0.80419002446E+02 0.  0.
<mgrwt>
<rscale>  0 0.99353473E+02</rscale>
<asrwt>0</asrwt>
<pdfrwt beam="1">  1        2 0.34127460E-01 0.99353473E+02</pdfrwt>
<pdfrwt beam="2">  1       -2 0.11711608E-01 0.99353473E+02</pdfrwt>
<totfact> 0.72557875E+03</totfact>
</mgrwt>
</event>
<event>
 4    1  0.4999097E-001  0.9747107E+02  0.7546771E-02  0.1285706E+00
          3   -1    0    0  501    0  0.00000000000E+00  0.00000000000E+00  0.54849401414E+03  0.54849401414E+03  0.00000000000E+00 0. -1.
         -3   -1    0    0    0  501 -0.00000000000E+00 -0.00000000000E+00 -0.23223063643E+02  0.23223063643E+02  0.00000000000E+00 0.  1.
         24    1    1    2    0    0 -0.17234510435E+02 -0.52310269033E+02  0.11852892688E+03  0.15345916413E+03  0.80419002446E+02 0.  1.
        -24    1    1    2    0    0  0.17234510435E+02  0.52310269033E+02  0.40674202363E+03  0.41825791365E+03  0.80419002446E+02 0. -1.
<mgrwt>
<rscale>  0 0.97471065E+02</rscale>
<asrwt>0</asrwt>
<pdfrwt beam="1">  1        3 0.84383685E-01 0.97471065E+02</pdfrwt>
<pdfrwt beam="2">  1       -3 0.35727794E-02 0.97471065E+02</pdfrwt>
<totfact> 0.11206190E+03</totfact>
</mgrwt>
</event>
<event>
 4    1  0.4999097E-001  0.8929115E+02  0.7546771E-02  0.1304577E+00
         -4   -1    0    0    0  501 -0.00000000000E+00  0.00000000000E+00  0.40926026651E+02  0.40926026651E+02  0.00000000000E+00 0.  1.
          4   -1    0    0  501    0  0.00000000000E+00 -0.00000000000E+00 -0.35508442331E+03  0.35508442331E+03  0.00000000000E+00 0. -1.
         24    1    1    2    0    0  0.30601454709E+02 -0.23858860229E+02 -0.29010603952E+03  0.30353652888E+03  0.80419002446E+02 0. -1.
        -24    1    1    2    0    0 -0.30601454709E+02  0.23858860229E+02 -0.24052357134E+02  0.92473921080E+02  0.80419002446E+02 0.  1.
<mgrwt>
<rscale>  0 0.89291154E+02</rscale>
<asrwt>0</asrwt>
<pdfrwt beam="1">  1        4 0.54628374E-01 0.89291154E+02</pdfrwt>
<pdfrwt beam="2">  1       -4 0.62963116E-02 0.89291154E+02</pdfrwt>
<totfact> 0.79794123E+02</totfact>
</mgrwt>
</event>
<event>
 4    1  0.4999097E-001  0.8187479E+02  0.7546771E-02  0.1323814E+00
         -1   -1    0    0    0  501 -0.00000000000E+00  0.00000000000E+00  0.14838884978E+02  0.14838884978E+02  0.00000000000E+00 0.  1.
          1   -1    0    0  501    0  0.00000000000E+00 -0.00000000000E+00 -0.66709536982E+03  0.66709536982E+03  0.00000000000E+00 0. -1.
         24    1    1    2    0    0  0.10572691670E+02  0.11157228229E+02 -0.13240341498E+03  0.15567320194E+03  0.80419002446E+02 0.  0.
        -24    1    1    2    0    0 -0.10572691670E+02 -0.11157228229E+02 -0.51985306986E+03  0.52626105285E+03  0.80419002446E+02 0. -1.
<mgrwt>
<rscale>  0 0.81874792E+02</rscale>
<asrwt>0</asrwt>
<pdfrwt beam="1">  1        1 0.10263007E+00 0.81874792E+02</pdfrwt>
<pdfrwt beam="2">  1       -1 0.22829051E-02 0.81874792E+02</pdfrwt>
<totfact> 0.15521936E+04</totfact>
</mgrwt>
</event>
<event>
 4    1  0.4999097E-001  0.1084398E+03  0.7546771E-02  0.1263487E+00
         -2   -1    0    0    0  501 -0.00000000000E+00  0.00000000000E+00  0.12814871702E+02  0.12814871702E+02  0.00000000000E+00 0.  1.
          2   -1    0    0  501    0  0.00000000000E+00 -0.00000000000E+00 -0.14671260695E+04  0.14671260695E+04  0.00000000000E+00 0. -1.
         24    1    1    2    0    0  0.49855530009E+02 -0.52975519823E+02 -0.11800182653E+04  0.11849904227E+04  0.80419002446E+02 0. -1.
        -24    1    1    2    0    0 -0.49855530009E+02  0.52975519823E+02 -0.27429293250E+03  0.29495051848E+03  0.80419002446E+02 0.  1.
<mgrwt>
<rscale>  0 0.10843982E+03</rscale>
<asrwt>0</asrwt>
<pdfrwt beam="1">  1        2 0.22571159E+00 0.10843982E+03</pdfrwt>
<pdfrwt beam="2">  1       -2 0.19715197E-02 0.10843982E+03</pdfrwt>
<totfact> 0.10802093E+04</totfact>
</mgrwt>
</event>
<event>
 4    1  0.4999097E-001  0.1209951E+03  0.7546771E-02  0.1241465E+00
         -1   -1    0    0    0  501 -0.00000000000E+00  0.00000000000E+00  0.73357064786E+02  0.73357064786E+02  0.00000000000E+00 0.  1.
          1   -1    0    0  501    0  0.00000000000E+00 -0.00000000000E+00 -0.20239582418E+03  0.20239582418E+03  0.00000000000E+00 0. -1.
         24    1    1    2    0    0 -0.24255556144E+02 -0.87087623571E+02 -0.48225206111E+02  0.13025157443E+03  0.80419002446E+02 0.  1.
        -24    1    1    2    0    0  0.24255556144E+02  0.87087623571E+02 -0.80813553287E+02  0.14550131454E+03  0.80419002446E+02 0. -1.
<mgrwt>
<rscale>  0 0.12099505E+03</rscale>
<asrwt>0</asrwt>
<pdfrwt beam="1">  1        1 0.31137819E-01 0.12099505E+03</pdfrwt>
<pdfrwt beam="2">  1       -1 0.11285702E-01 0.12099505E+03</pdfrwt>
<totfact> 0.68667695E+03</totfact>
</mgrwt>
</event>
<event>
 4    1  0.4999097E-001  0.8628764E+02  0.7546771E-02  0.1312099E+00
         -1   -1    0    0    0  501 -0.00000000000E+00  0.00000000000E+00  0.76785547709E+01  0.76785547709E+01  0.00000000000E+00 0.  1.
          1   -1    0    0  501    0  0.00000000000E+00 -0.00000000000E+00 -0.22567762202E+04  0.22567762202E+04  0.00000000000E+00 0. -1.
         24    1    1    2    0    0  0.97780650367E+01  0.29710791786E+02 -0.26948420116E+03  0.28296164463E+03  0.80419002446E+02 0.  1.
        -24    1    1    2    0    0 -0.97780650367E+01 -0.29710791786E+02 -0.19796134643E+04  0.19814931303E+04  0.80419002446E+02 0. -1.
<mgrwt>
<rscale>  0 0.86287645E+02</rscale>
<asrwt>0</asrwt>
<pdfrwt beam="1">  1        1 0.34719653E+00 0.86287645E+02</pdfrwt>
<pdfrwt beam="2">  1       -1 0.11813155E-02 0.86287645E+02</pdfrwt>
<totfact> 0.33583591E+03</totfact>
</mgrwt>
</event>
<event>
 4    1  0.4999097E-001  0.8213586E+02  0.7546771E-02  0.1323097E+00
         -1   -1    0    0    0  501 -0.00000000000E+00  0.00000000000E+00  0.68262617562E+03  0.68262617562E+03  0.00000000000E+00 0.  1.
          1   -1    0    0  501    0  0.00000000000E+00 -0.00000000000E+00 -0.35103282964E+02  0.35103282964E+02  0.00000000000E+00 0. -1.
         24    1    1    2    0    0  0.14523250150E+02  0.82558086240E+01  0.62794315077E+03  0.63329211247E+03  0.80419002446E+02 0.  0.
        -24    1    1    2    0    0 -0.14523250150E+02 -0.82558086240E+01  0.19579741886E+02  0.84437346107E+02  0.80419002446E+02 0. -1.
<mgrwt>
<rscale>  0 0.82135858E+02</rscale>
<asrwt>0</asrwt>
<pdfrwt beam="1">  1        1 0.54005056E-02 0.82135858E+02</pdfrwt>
<pdfrwt beam="2">  1       -1 0.10501940E+00 0.82135858E+02</pdfrwt>
<totfact> 0.12931444E+03</totfact>
</mgrwt>
</event>
<event>
 4    1  0.4999097E-001  0.9007244E+02  0.7546771E-02  0.1302676E+00
         -2   -1    0    0    0  501 -0.00000000000E+00  0.00000000000E+00  0.27079346868E+03  0.27079346868E+03  0.00000000000E+00 0.  1.
          2   -1    0    0  501    0  0.00000000000E+00 -0.00000000000E+00 -0.39983862746E+02  0.39983862746E+02  0.00000000000E+00 0. -1.
         24    1    1    2    0    0  0.32158315752E+02 -0.24731973661E+02  0.37603153385E+02  0.97606561726E+02  0.80419002446E+02 0.  0.
        -24    1    1    2    0    0 -0.32158315752E+02  0.24731973661E+02  0.19320645255E+03  0.21317076970E+03  0.80419002446E+02 0.  0.
<mgrwt>
<rscale>  0 0.90072436E+02</rscale>
<asrwt>0</asrwt>
<pdfrwt beam="1">  1        2 0.61513637E-02 0.90072436E+02</pdfrwt>
<pdfrwt beam="2">  1       -2 0.41660533E-01 0.90072436E+02</pdfrwt>
<totfact> 0.60104855E+03</totfact>
</mgrwt>
</event>
<event>
 4    1  0.4999097E-001  0.8362842E+02  0.7546771E-02  0.1319059E+00
          3   -1    0    0  501    0  0.00000000000E+00  0.00000000000E+00  0.22724711894E+03  0.22724711894E+03  0.00000000000E+00 0. -1.
         -3   -1    0    0    0  501 -0.00000000000E+00 -0.00000000000E+00 -0.43027788778E+02  0.43027788778E+02  0.00000000000E+00 0.  1.
         24    1    1    2    0    0  0.20695067421E+02  0.99101087769E+01  0.19998169624E+02  0.85986271080E+02  0.80419002446E+02 0.  1.
        -24    1    1    2    0    0 -0.20695067421E+02 -0.99101087769E+01  0.16422116054E+03  0.18428863664E+03  0.80419002446E+02 0. -1.
<mgrwt>
<rscale>  0 0.83628416E+02</rscale>
<asrwt>0</asrwt>
<pdfrwt beam="1">  1        3 0.34961095E-01 0.83628416E+02</pdfrwt>
<pdfrwt beam="2">  1       -3 0.66196599E-02 0.83628416E+02</pdfrwt>
<totfact> 0.24311979E+03</totfact>
</mgrwt>
</event>
<event>
 4    1  0.4999097E-001  0.1053825E+03  0.7546771E-02  0.1269368E+00
         -2   -1    0    0    0  501 -0.00000000000E+00  0.00000000000E+00  0.37729411096E+02  0.37729411096E+02  0.00000000000E+00 0.  1.
          2   -1    0    0  501    0  0.00000000000E+00 -0.00000000000E+00 -0.29783196416E+03  0.29783196416E+03  0.00000000000E+00 0. -1.
         24    1    1    2    0    0 -0.22251781606E+02 -0.64367095678E+02 -0.14820441031E+03  0.18185166477E+03  0.80419002446E+02 0.  0.
        -24    1    1    2    0    0  0.22251781606E+02  0.64367095678E+02 -0.11189814276E+03  0.15370971049E+03  0.80419002446E+02 0.  1.
<mgrwt>
<rscale>  0 0.10538254E+03</rscale>
<asrwt>0</asrwt>
<pdfrwt beam="1">  1        2 0.45820303E-01 0.10538254E+03</pdfrwt>
<pdfrwt beam="2">  1       -2 0.58045247E-02 0.10538254E+03</pdfrwt>
<totfact> 0.15737952E+04</totfact>
</mgrwt>
</event>
<event>
 4    1  0.4999097E-001  0.8984764E+02  0.7546771E-02  0.1303221E+00
          2   -1    0    0  501    0  0.00000000000E+00  0.00000000000E+00  0.18642869274E+04  0.18642869274E+04  0.00000000000E+00 0. -1.
         -2   -1    0    0    0  501 -0.00000000000E+00 -0.00000000000E+00 -0.55892781556E+01  0.55892781556E+01  0.00000000000E+00 0.  1.
         24    1    1    2    0    0  0.32470395637E+02 -0.23474571937E+02  0.13731046144E+04  0.13760410169E+04  0.80419002446E+02 0. -1.
        -24    1    1    2    0    0 -0.32470395637E+02  0.23474571937E+02  0.48559303478E+03  0.49383518860E+03  0.80419002446E+02 0.  1.
<mgrwt>
<rscale>  0 0.89847638E+02</rscale>
<asrwt>0</asrwt>
<pdfrwt beam="1">  1        2 0.28681288E+00 0.89847638E+02</pdfrwt>
<pdfrwt beam="2">  1       -2 0.85989043E-03 0.89847638E+02</pdfrwt>
<totfact> 0.21946712E+04</totfact>
</mgrwt>
</event>
<event>
 4    1  0.4999097E-001  0.1040739E+03  0.7546771E-02  0.1271955E+00
         -2   -1    0    0    0  501 -0.00000000000E+00  0.00000000000E+00  0.74673854911E+03  0.74673854911E+03  0.00000000000E+00 0.  1.
          2   -1    0    0  501    0  0.00000000000E+00 -0.00000000000E+00 -0.97127553151E+02  0.97127553151E+02  0.00000000000E+00 0. -1.
         24    1    1    2    0    0  0.65623285061E+02  0.75995257787E+01 -0.64348801586E+02  0.12236074760E+03  0.80419002446E+02 0. -1.
        -24    1    1    2    0    0 -0.65623285061E+02 -0.75995257787E+01  0.71395979755E+03  0.72150535466E+03  0.80419002446E+02 0.  1.
<mgrwt>
<rscale>  0 0.10407394E+03</rscale>
<asrwt>0</asrwt>
<pdfrwt beam="1">  1        2 0.14942701E-01 0.10407394E+03</pdfrwt>
<pdfrwt beam="2">  1       -2 0.11488285E+00 0.10407394E+03</pdfrwt>
<totfact> 0.24093757E+02</totfact>
</mgrwt>
</event>
<event>
 4    1  0.4999097E-001  0.9026352E+02  0.7546771E-02  0.1302215E+00
          1   -1    0    0  501    0  0.00000000000E+00  0.00000000000E+00  0.34747936422E+03  0.34747936422E+03  0.00000000000E+00 0. -1.
         -1   -1    0    0    0  501 -0.00000000000E+00 -0.00000000000E+00 -0.81296807920E+02  0.81296807920E+02  0.00000000000E+00 0.  1.
         24    1    1    2    0    0 -0.40972760489E+02  0.12326122712E+01 -0.47756509491E+02  0.10211849288E+03  0.80419002446E+02 0.  1.
        -24    1    1    2    0    0  0.40972760489E+02 -0.12326122712E+01  0.31393906579E+03  0.32665767926E+03  0.80419002446E+02 0. -1.
<mgrwt>
<rscale>  0 0.90263516E+02</rscale>
<asrwt>0</asrwt>
<pdfrwt beam="1">  1        1 0.53458363E-01 0.90263516E+02</pdfrwt>
<pdfrwt beam="2">  1       -1 0.12507201E-01 0.90263516E+02</pdfrwt>
<totfact> 0.29669658E+03</totfact>
</mgrwt>
</event>
<event>
 4    1  0.4999097E-001  0.8536711E+02  0.7546771E-02  0.1314475E+00
          2   -1    0    0  501    0  0.00000000000E+00  0.00000000000E+00  0.34255580887E+03  0.34255580887E+03  0.00000000000E+00 0. -1.
         -2   -1    0    0    0  501 -0.00000000000E+00 -0.00000000000E+00 -0.24510800947E+02  0.24510800947E+02  0.00000000000E+00 0.  1.
         24    1    1    2    0    0 -0.42646502996E+01  0.28322007483E+02  0.92327584312E+02  0.12574546564E+03  0.80419002446E+02 0.  1.
        -24    1    1    2    0    0  0.42646502996E+01 -0.28322007483E+02  0.22571742361E+03  0.24132114417E+03  0.80419002446E+02 0. -1.
<mgrwt>
<rscale>  0 0.85367096E+02</rscale>
<asrwt>0</asrwt>
<pdfrwt beam="1">  1        2 0.52700890E-01 0.85367107E+02</pdfrwt>
<pdfrwt beam="2">  1       -2 0.37708927E-02 0.85367107E+02</pdfrwt>
<totfact> 0.25217157E+04</totfact>
</mgrwt>
</event>
<event>
 4    1  0.4999097E-001  0.8367620E+02  0.7546771E-02  0.1318931E+00
          1   -1    0    0  501    0  0.00000000000E+00  0.00000000000E+00  0.72318232696E+02  0.72318232696E+02  0.00000000000E+00 0. -1.
         -1   -1    0    0    0  501 -0.00000000000E+00 -0.00000000000E+00 -0.11531003419E+03  0.11531003419E+03  0.00000000000E+00 0.  1.
         24    1    1    2    0    0 -0.20583953293E+02  0.10525724562E+02 -0.59064688047E+02  0.10242237714E+03  0.80419002446E+02 0. -1.
        -24    1    1    2    0    0  0.20583953293E+02 -0.10525724562E+02  0.16072886553E+02  0.85205889745E+02  0.80419002446E+02 0. -1.
<mgrwt>
<rscale>  0 0.83676197E+02</rscale>
<asrwt>0</asrwt>
<pdfrwt beam="1">  1        1 0.11125882E-01 0.83676197E+02</pdfrwt>
<pdfrwt beam="2">  1       -1 0.17740005E-01 0.83676197E+02</pdfrwt>
<totfact> 0.12148460E+04</totfact>
</mgrwt>
</event>
<event>
 4    1  0.4999097E-001  0.8384524E+02  0.7546771E-02  0.1318480E+00
          3   -1    0    0  501    0  0.00000000000E+00  0.00000000000E+00  0.19693436848E+04  0.19693436848E+04  0.00000000000E+00 0. -1.
         -3   -1    0    0    0  501 -0.00000000000E+00 -0.00000000000E+00 -0.36541134213E+01  0.36541134213E+01  0.00000000000E+00 0.  1.
         24    1    1    2    0    0  0.23565409004E+02  0.27343629613E+01  0.11327578325E+04  0.11358566495E+04  0.80419002446E+02 0. -1.
        -24    1    1    2    0    0 -0.23565409004E+02 -0.27343629613E+01  0.83293173887E+03  0.83714114868E+03  0.80419002446E+02 0.  1.
<mgrwt>
<rscale>  0 0.83845232E+02</rscale>
<asrwt>0</asrwt>
<pdfrwt beam="1">  1        3 0.30297510E+00 0.83845243E+02</pdfrwt>
<pdfrwt beam="2">  1       -3 0.56217287E-03 0.83845243E+02</pdfrwt>
<totfact> 0.62113770E+02</totfact>
</mgrwt>
</event>
<event>
 4    1  0.4999097E-001  0.9261402E+02  0.7546771E-02  0.1296642E+00
         -1   -1    0    0    0  501 -0.00000000000E+00  0.00000000000E+00  0.51497418439E+01  0.51497418439E+01  0.00000000000E+00 0.  1.
          1   -1    0    0  501    0  0.00000000000E+00 -0.00000000000E+00 -0.19048441632E+04  0.19048441632E+04  0.00000000000E+00 0. -1.
         24    1    1    2    0    0 -0.24459782787E+02  0.38882634579E+02 -0.61139105270E+03  0.61836589130E+03  0.80419002446E+02 0.  1.
        -24    1    1    2    0    0  0.24459782787E+02 -0.38882634579E+02 -0.12883033686E+04  0.12916280137E+04  0.80419002446E+02 0. -1.
<mgrwt>
<rscale>  0 0.92614017E+02</rscale>
<asrwt>0</asrwt>
<pdfrwt beam="1">  1        1 0.29305294E+00 0.92614017E+02</pdfrwt>
<pdfrwt beam="2">  1       -1 0.79226800E-03 0.92614017E+02</pdfrwt>
<totfact> 0.98342350E+03</totfact>
</mgrwt>
</event>
<event>
 4    1  0.4999097E-001  0.1268913E+03  0.7546771E-02  0.1232143E+00
          1   -1    0    0  501    0  0.00000000000E+00  0.00000000000E+00  0.20673997726E+04  0.20673997726E+04  0.00000000000E+00 0. -1.
         -1   -1    0    0    0  501 -0.00000000000E+00 -0.00000000000E+00 -0.61573964307E+02  0.61573964307E+02  0.00000000000E+00 0.  1.
         24    1    1    2    0    0  0.70358022801E+02  0.68439186258E+02  0.80223841687E+01  0.12714459560E+03  0.80419002446E+02 0.  1.
        -24    1    1    2    0    0 -0.70358022801E+02 -0.68439186258E+02  0.19978034241E+04  0.20018291413E+04  0.80419002446E+02 0. -1.
<mgrwt>
<rscale>  0 0.12689125E+03</rscale>
<asrwt>0</asrwt>
<pdfrwt beam="1">  1        1 0.31806145E+00 0.12689125E+03</pdfrwt>
<pdfrwt beam="2">  1       -1 0.94729192E-02 0.12689125E+03</pdfrwt>
<totfact> 0.21219256E+02</totfact>
</mgrwt>
</event>
<event>
 4    1  0.4999097E-001  0.2651049E+03  0.7546771E-02  0.1104114E+00
         -1   -1    0    0    0  501 -0.00000000000E+00  0.00000000000E+00  0.13212472063E+03  0.13212472063E+03  0.00000000000E+00 0.  1.
          1   -1    0    0  501    0  0.00000000000E+00 -0.00000000000E+00 -0.57889071175E+03  0.57889071175E+03  0.00000000000E+00 0. -1.
         24    1    1    2    0    0 -0.37250197527E+02  0.24985158006E+03 -0.12212356436E+03  0.29188143175E+03  0.80419002446E+02 0.  1.
        -24    1    1    2    0    0  0.37250197527E+02 -0.24985158006E+03 -0.32464242676E+03  0.41913400062E+03  0.80419002446E+02 0. -1.
<mgrwt>
<rscale>  0 0.26510489E+03</rscale>
<asrwt>0</asrwt>
<pdfrwt beam="1">  1        1 0.89060109E-01 0.26510489E+03</pdfrwt>
<pdfrwt beam="2">  1       -1 0.20326880E-01 0.26510489E+03</pdfrwt>
<totfact> 0.72861042E+02</totfact>
</mgrwt>
</event>
<event>
 4    1  0.4999097E-001  0.8782268E+02  0.7546771E-02  0.1308212E+00
          2   -1    0    0  501    0  0.00000000000E+00  0.00000000000E+00  0.19096290231E+04  0.19096290231E+04  0.00000000000E+00 0. -1.
         -2   -1    0    0    0  501 -0.00000000000E+00 -0.00000000000E+00 -0.49494814477E+01  0.49494814477E+01  0.00000000000E+00 0.  1.
         24    1    1    2    0    0 -0.35292431529E+02 -0.22723024386E+00  0.13629406766E+04  0.13657672243E+04  0.80419002446E+02 0. -1.
        -24    1    1    2    0    0  0.35292431529E+02  0.22723024386E+00  0.54173886510E+03  0.54881128020E+03  0.80419002446E+02 0. -1.
<mgrwt>
<rscale>  0 0.87822681E+02</rscale>
<asrwt>0</asrwt>
<pdfrwt beam="1">  1        2 0.29378849E+00 0.87822681E+02</pdfrwt>
<pdfrwt beam="2">  1       -2 0.76146021E-03 0.87822681E+02</pdfrwt>
<totfact> 0.24685211E+04</totfact>
</mgrwt>
</event>
<event>
 4    1  0.4999097E-001  0.8810536E+02  0.7546771E-02  0.1307506E+00
          1   -1    0    0  501    0  0.00000000000E+00  0.00000000000E+00  0.15319218606E+03  0.15319218606E+03  0.00000000000E+00 0. -1.
         -1   -1    0    0    0  501 -0.00000000000E+00 -0.00000000000E+00 -0.89332449439E+02  0.89332449439E+02  0.00000000000E+00 0.  1.
         24    1    1    2    0    0 -0.46011356281E+01 -0.35695497599E+02 -0.47842902073E+02  0.10025716050E+03  0.80419002446E+02 0.  1.
        -24    1    1    2    0    0  0.46011356281E+01  0.35695497599E+02  0.11170263870E+03  0.14226747501E+03  0.80419002446E+02 0. -1.
<mgrwt>
<rscale>  0 0.88105363E+02</rscale>
<asrwt>0</asrwt>
<pdfrwt beam="1">  1        1 0.23568029E-01 0.88105363E+02</pdfrwt>
<pdfrwt beam="2">  1       -1 0.13743454E-01 0.88105363E+02</pdfrwt>
<totfact> 0.69938834E+03</totfact>
</mgrwt>
</event>
<event>
 4    1  0.4999097E-001  0.8224602E+02  0.7546771E-02  0.1322796E+00
          2   -1    0    0  501    0  0.00000000000E+00  0.00000000000E+00  0.15202945128E+04  0.15202945128E+04  0.00000000000E+00 0. -1.
         -2   -1    0    0    0  501 -0.00000000000E+00 -0.00000000000E+00 -0.46766446992E+01  0.46766446992E+01  0.00000000000E+00 0.  1.
         24    1    1    2    0    0 -0.15685920225E+02  0.71515071365E+01  0.92588475135E+03  0.92953051638E+03  0.80419002446E+02 0.  0.
        -24    1    1    2    0    0  0.15685920225E+02 -0.71515071365E+01  0.58973311675E+03  0.59544064111E+03  0.80419002446E+02 0.  0.
<mgrwt>
<rscale>  0 0.82246022E+02</rscale>
<asrwt>0</asrwt>
<pdfrwt beam="1">  1        2 0.23389107E+00 0.82246022E+02</pdfrwt>
<pdfrwt beam="2">  1       -2 0.71948501E-03 0.82246022E+02</pdfrwt>
<totfact> 0.41698642E+04</totfact>
</mgrwt>
</event>
<event>
 4    1  0.4999097E-001  0.1122203E+03  0.7546771E-02  0.1256513E+00
         -2   -1    0    0    0  501 -0.00000000000E+00  0.00000000000E+00  0.59008561485E+02  0.59008561485E+02  0.00000000000E+00 0.  1.
          2   -1    0    0  501    0  0.00000000000E+00 -0.00000000000E+00 -0.21534753235E+03  0.21534753235E+03  0.00000000000E+00 0. -1.
         24    1    1    2    0    0  0.32040327821E+02  0.71411500511E+02 -0.91159476749E+02  0.14458025857E+03  0.80419002446E+02 0. -1.
        -24    1    1    2    0    0 -0.32040327821E+02 -0.71411500511E+02 -0.65179494118E+02  0.12977583527E+03  0.80419002446E+02 0.  1.
<mgrwt>
<rscale>  0 0.11222032E+03</rscale>
<asrwt>0</asrwt>
<pdfrwt beam="1">  1        2 0.33130389E-01 0.11222032E+03</pdfrwt>
<pdfrwt beam="2">  1       -2 0.90782404E-02 0.11222032E+03</pdfrwt>
<totfact> 0.11269971E+04</totfact>
</mgrwt>
</event>
<event>
 4    1  0.4999097E-001  0.8836727E+02  0.7546771E-02  0.1306854E+00
          1   -1    0    0  501    0  0.00000000000E+00  0.00000000000E+00  0.39833958163E+03  0.39833958163E+03  0.00000000000E+00 0. -1.
         -1   -1    0    0    0  501 -0.00000000000E+00 -0.00000000000E+00 -0.36427706788E+02  0.36427706788E+02  0.00000000000E+00 0.  1.
         24    1    1    2    0    0 -0.25325149371E+02 -0.26461205923E+02  0.33221857567E+02  0.94405859904E+02  0.80419002446E+02 0.  1.
        -24    1    1    2    0    0  0.25325149371E+02  0.26461205923E+02  0.32869001727E+03  0.34036142851E+03  0.80419002446E+02 0. -1.
<mgrwt>
<rscale>  0 0.88367271E+02</rscale>
<asrwt>0</asrwt>
<pdfrwt beam="1">  1        1 0.61283009E-01 0.88367271E+02</pdfrwt>
<pdfrwt beam="2">  1       -1 0.56042629E-02 0.88367271E+02</pdfrwt>
<totfact> 0.83205486E+03</totfact>
</mgrwt>
</event>
<event>
 4    1  0.4999097E-001  0.8546194E+02  0.7546771E-02  0.1314229E+00
          1   -1    0    0  501    0  0.00000000000E+00  0.00000000000E+00  0.73738012279E+02  0.73738012279E+02  0.00000000000E+00 0. -1.
         -1   -1    0    0    0  501 -0.00000000000E+00 -0.00000000000E+00 -0.10342722952E+03  0.10342722952E+03  0.00000000000E+00 0.  1.
         24    1    1    2    0    0 -0.12086951076E+02  0.26276072999E+02 -0.33068283654E+02  0.91636530580E+02  0.80419002446E+02 0.  1.
        -24    1    1    2    0    0  0.12086951076E+02 -0.26276072999E+02  0.33790664136E+01  0.85528711219E+02  0.80419002446E+02 0. -1.
<mgrwt>
<rscale>  0 0.85461935E+02</rscale>
<asrwt>0</asrwt>
<pdfrwt beam="1">  1        1 0.11344310E-01 0.85461935E+02</pdfrwt>
<pdfrwt beam="2">  1       -1 0.15911881E-01 0.85461935E+02</pdfrwt>
<totfact> 0.14068948E+04</totfact>
</mgrwt>
</event>
<event>
 4    1  0.4999097E-001  0.1370183E+03  0.7546771E-02  0.1217398E+00
         -2   -1    0    0    0  501 -0.00000000000E+00  0.00000000000E+00  0.20720297597E+02  0.20720297597E+02  0.00000000000E+00 0.  1.
          2   -1    0    0  501    0  0.00000000000E+00 -0.00000000000E+00 -0.10340030576E+04  0.10340030576E+04  0.00000000000E+00 0. -1.
         24    1    1    2    0    0  0.10192477816E+03  0.43796612144E+02 -0.69214001613E+03  0.70557198182E+03  0.80419002446E+02 0. -1.
        -24    1    1    2    0    0 -0.10192477816E+03 -0.43796612144E+02 -0.32114274388E+03  0.34915137339E+03  0.80419002446E+02 0.  1.
<mgrwt>
<rscale>  0 0.13701832E+03</rscale>
<asrwt>0</asrwt>
<pdfrwt beam="1">  1        2 0.15907742E+00 0.13701832E+03</pdfrwt>
<pdfrwt beam="2">  1       -2 0.31877375E-02 0.13701832E+03</pdfrwt>
<totfact> 0.93579726E+03</totfact>
</mgrwt>
</event>
<event>
 4    1  0.4999097E-001  0.8939198E+02  0.7546771E-02  0.1304331E+00
         -1   -1    0    0    0  501 -0.00000000000E+00  0.00000000000E+00  0.98614336481E+02  0.98614336481E+02  0.00000000000E+00 0.  1.
          1   -1    0    0  501    0  0.00000000000E+00 -0.00000000000E+00 -0.14689998280E+03  0.14689998280E+03  0.00000000000E+00 0. -1.
         24    1    1    2    0    0  0.39032087701E+02 -0.45319846416E+00  0.58057374705E+02  0.10659073117E+03  0.80419002446E+02 0.  1.
        -24    1    1    2    0    0 -0.39032087701E+02  0.45319846416E+00 -0.10634302103E+03  0.13892358811E+03  0.80419002446E+02 0. -1.
<mgrwt>
<rscale>  0 0.89391975E+02</rscale>
<asrwt>0</asrwt>
<pdfrwt beam="1">  1        1 0.22599997E-01 0.89391975E+02</pdfrwt>
<pdfrwt beam="2">  1       -1 0.15171436E-01 0.89391975E+02</pdfrwt>
<totfact> 0.63324655E+03</totfact>
</mgrwt>
</event>
<event>
 4    1  0.4999097E-001  0.1530985E+03  0.7546771E-02  0.1196716E+00
         -1   -1    0    0    0  501 -0.00000000000E+00  0.00000000000E+00  0.19429753225E+03  0.19429753225E+03  0.00000000000E+00 0.  1.
          1   -1    0    0  501    0  0.00000000000E+00 -0.00000000000E+00 -0.18246886162E+03  0.18246886162E+03  0.00000000000E+00 0. -1.
         24    1    1    2    0    0 -0.73587753226E+02 -0.10750244144E+03 -0.10374857886E+03  0.18494030364E+03  0.80419002446E+02 0. -1.
        -24    1    1    2    0    0  0.73587753226E+02  0.10750244144E+03  0.11557724949E+03  0.19182609023E+03  0.80419002446E+02 0.  1.
<mgrwt>
<rscale>  0 0.15309851E+03</rscale>
<asrwt>0</asrwt>
<pdfrwt beam="1">  1        1 0.28072133E-01 0.15309853E+03</pdfrwt>
<pdfrwt beam="2">  1       -1 0.29891928E-01 0.15309853E+03</pdfrwt>
<totfact> 0.16670253E+03</totfact>
</mgrwt>
</event>
<event>
 4    1  0.4999097E-001  0.9986641E+02  0.7546771E-02  0.1280577E+00
         -1   -1    0    0    0  501 -0.00000000000E+00  0.00000000000E+00  0.38707348538E+02  0.38707348538E+02  0.00000000000E+00 0.  1.
          1   -1    0    0  501    0  0.00000000000E+00 -0.00000000000E+00 -0.26254217166E+03  0.26254217166E+03  0.00000000000E+00 0. -1.
         24    1    1    2    0    0  0.49838547623E+02  0.31971906593E+02 -0.91375326599E+02  0.13536155254E+03  0.80419002446E+02 0.  0.
        -24    1    1    2    0    0 -0.49838547623E+02 -0.31971906593E+02 -0.13245949652E+03  0.16588796766E+03  0.80419002446E+02 0. -1.
<mgrwt>
<rscale>  0 0.99866409E+02</rscale>
<asrwt>0</asrwt>
<pdfrwt beam="1">  1        1 0.40391102E-01 0.99866409E+02</pdfrwt>
<pdfrwt beam="2">  1       -1 0.59549769E-02 0.99866409E+02</pdfrwt>
<totfact> 0.12829749E+04</totfact>
</mgrwt>
</event>
<event>
 4    1  0.4999097E-001  0.9924337E+02  0.7546771E-02  0.1281895E+00
          1   -1    0    0  501    0  0.00000000000E+00  0.00000000000E+00  0.20840574788E+03  0.20840574788E+03  0.00000000000E+00 0. -1.
         -1   -1    0    0    0  501 -0.00000000000E+00 -0.00000000000E+00 -0.98089138280E+02  0.98089138280E+02  0.00000000000E+00 0.  1.
         24    1    1    2    0    0  0.50367484266E+02 -0.29071415781E+02 -0.55157905875E+02  0.11354136348E+03  0.80419002446E+02 0.  1.
        -24    1    1    2    0    0 -0.50367484266E+02  0.29071415781E+02  0.16547451547E+03  0.19295352267E+03  0.80419002446E+02 0. -1.
<mgrwt>
<rscale>  0 0.99243371E+02</rscale>
<asrwt>0</asrwt>
<pdfrwt beam="1">  1        1 0.32062423E-01 0.99243371E+02</pdfrwt>
<pdfrwt beam="2">  1       -1 0.15090637E-01 0.99243371E+02</pdfrwt>
<totfact> 0.41744241E+03</totfact>
</mgrwt>
</event>
<event>
 4    1  0.4999097E-001  0.8638557E+02  0.7546771E-02  0.1311848E+00
          2   -1    0    0  501    0  0.00000000000E+00  0.00000000000E+00  0.21739434301E+03  0.21739434301E+03  0.00000000000E+00 0. -1.
         -2   -1    0    0    0  501 -0.00000000000E+00 -0.00000000000E+00 -0.46372334132E+02  0.46372334132E+02  0.00000000000E+00 0.  1.
         24    1    1    2    0    0 -0.30171332943E+02 -0.92163264710E+01  0.15272695413E+03  0.17546506341E+03  0.80419002446E+02 0. -1.
        -24    1    1    2    0    0  0.30171332943E+02  0.92163264710E+01  0.18295054749E+02  0.88301613733E+02  0.80419002446E+02 0.  1.
<mgrwt>
<rscale>  0 0.86385566E+02</rscale>
<asrwt>0</asrwt>
<pdfrwt beam="1">  1        2 0.33445283E-01 0.86385566E+02</pdfrwt>
<pdfrwt beam="2">  1       -2 0.71342054E-02 0.86385566E+02</pdfrwt>
<totfact> 0.15747964E+04</totfact>
</mgrwt>
</event>
<event>
 4    1  0.4999097E-001  0.8185462E+02  0.7546771E-02  0.1323869E+00
          2   -1    0    0  501    0  0.00000000000E+00  0.00000000000E+00  0.12743595238E+04  0.12743595238E+04  0.00000000000E+00 0. -1.
         -2   -1    0    0    0  501 -0.00000000000E+00 -0.00000000000E+00 -0.55172739601E+01  0.55172739601E+01  0.00000000000E+00 0.  1.
         24    1    1    2    0    0 -0.15034967300E+02  0.26292935039E+01  0.77323089567E+03  0.77755141141E+03  0.80419002446E+02 0. -1.
        -24    1    1    2    0    0  0.15034967300E+02 -0.26292935039E+01  0.49561135413E+03  0.50232538631E+03  0.80419002446E+02 0.  1.
<mgrwt>
<rscale>  0 0.81854623E+02</rscale>
<asrwt>0</asrwt>
<pdfrwt beam="1">  1        2 0.19605508E+00 0.81854623E+02</pdfrwt>
<pdfrwt beam="2">  1       -2 0.84881239E-03 0.81854623E+02</pdfrwt>
<totfact> 0.44267971E+04</totfact>
</mgrwt>
</event>
<event>
 4    1  0.4999097E-001  0.8253215E+02  0.7546771E-02  0.1322015E+00
         -2   -1    0    0    0  501 -0.00000000000E+00  0.00000000000E+00  0.60123379065E+02  0.60123379065E+02  0.00000000000E+00 0.  1.
          2   -1    0    0  501    0  0.00000000000E+00 -0.00000000000E+00 -0.36015202570E+03  0.36015202570E+03  0.00000000000E+00 0. -1.
         24    1    1    2    0    0  0.14212058833E+02 -0.11931321570E+02 -0.32398882347E+03  0.33433562888E+03  0.80419002446E+02 0. -1.
        -24    1    1    2    0    0 -0.14212058833E+02  0.11931321570E+02  0.23960176836E+02  0.85939775884E+02  0.80419002446E+02 0.  1.
<mgrwt>
<rscale>  0 0.82532145E+02</rscale>
<asrwt>0</asrwt>
<pdfrwt beam="1">  1        2 0.55408005E-01 0.82532145E+02</pdfrwt>
<pdfrwt beam="2">  1       -2 0.92497505E-02 0.82532145E+02</pdfrwt>
<totfact> 0.62212110E+03</totfact>
</mgrwt>
</event>
<event>
 4    1  0.4999097E-001  0.1657399E+03  0.7546771E-02  0.1182365E+00
          3   -1    0    0  501    0  0.00000000000E+00  0.00000000000E+00  0.13538998123E+04  0.13538998123E+04  0.00000000000E+00 0. -1.
         -3   -1    0    0    0  501 -0.00000000000E+00 -0.00000000000E+00 -0.22818691540E+02  0.22818691540E+02  0.00000000000E+00 0.  1.
         24    1    1    2    0    0 -0.11510590527E+03 -0.88051863515E+02  0.43636120379E+03  0.46677705194E+03  0.80419002446E+02 0.  1.
        -24    1    1    2    0    0  0.11510590527E+03  0.88051863515E+02  0.89471991693E+03  0.90994145185E+03  0.80419002446E+02 0. -1.
<mgrwt>
<rscale>  0 0.16573990E+03</rscale>
<asrwt>0</asrwt>
<pdfrwt beam="1">  1        3 0.20829222E+00 0.16573990E+03</pdfrwt>
<pdfrwt beam="2">  1       -3 0.35105690E-02 0.16573990E+03</pdfrwt>
<totfact> 0.13776749E+02</totfact>
</mgrwt>
</event>
<event>
 4    1  0.4999097E-001  0.8060028E+02  0.7546771E-02  0.1327357E+00
         -2   -1    0    0    0  501 -0.00000000000E+00  0.00000000000E+00  0.64695703893E+02  0.64695703893E+02  0.00000000000E+00 0.  1.
          2   -1    0    0  501    0  0.00000000000E+00 -0.00000000000E+00 -0.30669512951E+03  0.30669512951E+03  0.00000000000E+00 0. -1.
         24    1    1    2    0    0  0.45650322673E+01 -0.28896392268E+01 -0.27329156351E+03  0.28492926170E+03  0.80419002446E+02 0.  0.
        -24    1    1    2    0    0 -0.45650322673E+01  0.28896392268E+01  0.31292137885E+02  0.86461571708E+02  0.80419002446E+02 0.  1.
<mgrwt>
<rscale>  0 0.80600282E+02</rscale>
<asrwt>0</asrwt>
<pdfrwt beam="1">  1        2 0.47183867E-01 0.80600282E+02</pdfrwt>
<pdfrwt beam="2">  1       -2 0.99531850E-02 0.80600282E+02</pdfrwt>
<totfact> 0.65553002E+03</totfact>
</mgrwt>
</event>
<event>
 4    1  0.4999097E-001  0.9081392E+02  0.7546771E-02  0.1300893E+00
         -1   -1    0    0    0  501 -0.00000000000E+00  0.00000000000E+00  0.11743135638E+03  0.11743135638E+03  0.00000000000E+00 0.  1.
          1   -1    0    0  501    0  0.00000000000E+00 -0.00000000000E+00 -0.57437472780E+03  0.57437472780E+03  0.00000000000E+00 0. -1.
         24    1    1    2    0    0 -0.93713255229E+01  0.41135520206E+02  0.95595057751E+02  0.13185440374E+03  0.80419002446E+02 0.  1.
        -24    1    1    2    0    0  0.93713255229E+01 -0.41135520206E+02 -0.55253842917E+03  0.55995168044E+03  0.80419002446E+02 0. -1.
<mgrwt>
<rscale>  0 0.90813924E+02</rscale>
<asrwt>0</asrwt>
<pdfrwt beam="1">  1        1 0.88365340E-01 0.90813924E+02</pdfrwt>
<pdfrwt beam="2">  1       -1 0.18066363E-01 0.90813924E+02</pdfrwt>
<totfact> 0.88808771E+02</totfact>
</mgrwt>
</event>
<event>
 4    1  0.4999097E-001  0.8207381E+02  0.7546771E-02  0.1323267E+00
          2   -1    0    0  501    0  0.00000000000E+00  0.00000000000E+00  0.52195353436E+03  0.52195353436E+03  0.00000000000E+00 0. -1.
         -2   -1    0    0    0  501 -0.00000000000E+00 -0.00000000000E+00 -0.13316336914E+02  0.13316336914E+02  0.00000000000E+00 0.  1.
         24    1    1    2    0    0 -0.46507922365E+01  0.15724628263E+02  0.30132383468E+03  0.31230139786E+03  0.80419002446E+02 0. -1.
        -24    1    1    2    0    0  0.46507922365E+01 -0.15724628263E+02  0.20731336276E+03  0.22296847341E+03  0.80419002446E+02 0.  1.
<mgrwt>
<rscale>  0 0.82073807E+02</rscale>
<asrwt>0</asrwt>
<pdfrwt beam="1">  1        2 0.80300528E-01 0.82073807E+02</pdfrwt>
<pdfrwt beam="2">  1       -2 0.20486676E-02 0.82073807E+02</pdfrwt>
<totfact> 0.38884408E+04</totfact>
</mgrwt>
</event>
<event>
 4    1  0.4999097E-001  0.8771656E+02  0.7546771E-02  0.1308478E+00
          4   -1    0    0  501    0  0.00000000000E+00  0.00000000000E+00  0.18772979938E+02  0.18772979938E+02  0.00000000000E+00 0. -1.
         -4   -1    0    0    0  501 -0.00000000000E+00 -0.00000000000E+00 -0.41161624524E+03  0.41161624524E+03  0.00000000000E+00 0.  1.
         24    1    1    2    0    0  0.27191996940E+02 -0.22081006226E+02 -0.21049989113E+03  0.22804472293E+03  0.80419002446E+02 0.  1.
        -24    1    1    2    0    0 -0.27191996940E+02  0.22081006226E+02 -0.18234337416E+03  0.20234450225E+03  0.80419002446E+02 0. -1.
<mgrwt>
<rscale>  0 0.87716552E+02</rscale>
<asrwt>0</asrwt>
<pdfrwt beam="1">  1        4 0.28881512E-02 0.87716562E+02</pdfrwt>
<pdfrwt beam="2">  1       -4 0.63325567E-01 0.87716562E+02</pdfrwt>
<totfact> 0.20030436E+03</totfact>
</mgrwt>
</event>
<event>
 4    1  0.4999097E-001  0.8572849E+02  0.7546771E-02  0.1313538E+00
         -2   -1    0    0    0  501 -0.00000000000E+00  0.00000000000E+00  0.35423639021E+03  0.35423639021E+03  0.00000000000E+00 0.  1.
          2   -1    0    0  501    0  0.00000000000E+00 -0.00000000000E+00 -0.35410413194E+02  0.35410413194E+02  0.00000000000E+00 0. -1.
         24    1    1    2    0    0 -0.10248559491E+02  0.27876905563E+02  0.28478251158E+03  0.29740620318E+03  0.80419002446E+02 0.  0.
        -24    1    1    2    0    0  0.10248559491E+02 -0.27876905563E+02  0.34043465432E+02  0.92240600217E+02  0.80419002446E+02 0.  0.
<mgrwt>
<rscale>  0 0.85728482E+02</rscale>
<asrwt>0</asrwt>
<pdfrwt beam="1">  1        2 0.54477561E-02 0.85728493E+02</pdfrwt>
<pdfrwt beam="2">  1       -2 0.54497904E-01 0.85728493E+02</pdfrwt>
<totfact> 0.41461659E+03</totfact>
</mgrwt>
</event>
<event>
 4    1  0.4999097E-001  0.8433104E+02  0.7546771E-02  0.1317191E+00
         -1   -1    0    0    0  501 -0.00000000000E+00  0.00000000000E+00  0.87871511074E+01  0.87871511074E+01  0.00000000000E+00 0.  1.
          1   -1    0    0  501    0  0.00000000000E+00 -0.00000000000E+00 -0.95322255011E+03  0.95322255011E+03  0.00000000000E+00 0. -1.
         24    1    1    2    0    0 -0.25301601701E+02  0.20825022177E+01 -0.28533537564E+03  0.29753655307E+03  0.80419002446E+02 0.  1.
        -24    1    1    2    0    0  0.25301601701E+02 -0.20825022177E+01 -0.65910002336E+03  0.66447314815E+03  0.80419002446E+02 0. -1.
<mgrwt>
<rscale>  0 0.84331037E+02</rscale>
<asrwt>0</asrwt>
<pdfrwt beam="1">  1        1 0.14664956E+00 0.84331037E+02</pdfrwt>
<pdfrwt beam="2">  1       -1 0.13518700E-02 0.84331037E+02</pdfrwt>
<totfact> 0.19305340E+04</totfact>
</mgrwt>
</event>
<event>
 4    1  0.4999097E-001  0.1302008E+03  0.7546771E-02  0.1227158E+00
          2   -1    0    0  501    0  0.00000000000E+00  0.00000000000E+00  0.34000974636E+02  0.34000974636E+02  0.00000000000E+00 0. -1.
         -2   -1    0    0    0  501 -0.00000000000E+00 -0.00000000000E+00 -0.66477914278E+03  0.66477914278E+03  0.00000000000E+00 0.  1.
         24    1    1    2    0    0  0.28573851426E+02 -0.98328867338E+02 -0.14069240096E+03  0.19169402385E+03  0.80419002446E+02 0. -1.
        -24    1    1    2    0    0 -0.28573851426E+02  0.98328867338E+02 -0.49008576719E+03  0.50708609357E+03  0.80419002446E+02 0.  1.
<mgrwt>
<rscale>  0 0.13020080E+03</rscale>
<asrwt>0</asrwt>
<pdfrwt beam="1">  1        2 0.52309198E-02 0.13020080E+03</pdfrwt>
<pdfrwt beam="2">  1       -2 0.10227370E+00 0.13020080E+03</pdfrwt>
<totfact> 0.11644370E+03</totfact>
</mgrwt>
</event>
<event>
 4    1  0.4999097E-001  0.1276103E+03  0.7546771E-02  0.1231045E+00
         -2   -1    0    0    0  501 -0.00000000000E+00  0.00000000000E+00  0.11159672728E+02  0.11159672728E+02  0.00000000000E+00 0.  1.
          2   -1    0    0  501    0  0.00000000000E+00 -0.00000000000E+00 -0.16098040474E+04  0.16098040474E+04  0.00000000000E+00 0. -1.
         24    1    1    2    0    0  0.48819271548E+02  0.86219787432E+02 -0.10472070337E+04  0.10549535347E+04  0.80419002446E+02 0.  0.
        -24    1    1    2    0    0 -0.48819271548E+02 -0.86219787432E+02 -0.55143734094E+03  0.56601018538E+03  0.80419002446E+02 0. -1.
<mgrwt>
<rscale>  0 0.12761030E+03</rscale>
<asrwt>0</asrwt>
<pdfrwt beam="1">  1        2 0.24766205E+00 0.12761030E+03</pdfrwt>
<pdfrwt beam="2">  1       -2 0.17168735E-02 0.12761030E+03</pdfrwt>
<totfact> 0.11220957E+04</totfact>
</mgrwt>
</event>
<event>
 4    1  0.4999097E-001  0.9489068E+02  0.7546771E-02  0.1291422E+00
          1   -1    0    0  501    0  0.00000000000E+00  0.00000000000E+00  0.21701569841E+02  0.21701569841E+02  0.00000000000E+00 0. -1.
         -1   -1    0    0    0  501 -0.00000000000E+00 -0.00000000000E+00 -0.81911489228E+03  0.81911489228E+03  0.00000000000E+00 0.  1.
         24    1    1    2    0    0  0.58383752660E+01  0.50029381559E+02 -0.69403050440E+03  0.70048738935E+03  0.80419002446E+02 0.  1.
        -24    1    1    2    0    0 -0.58383752660E+01 -0.50029381559E+02 -0.10338281804E+03  0.14032907277E+03  0.80419002446E+02 0. -1.
<mgrwt>
<rscale>  0 0.94890682E+02</rscale>
<asrwt>0</asrwt>
<pdfrwt beam="1">  1        1 0.33387024E-02 0.94890682E+02</pdfrwt>
<pdfrwt beam="2">  1       -1 0.12601770E+00 0.94890682E+02</pdfrwt>
<totfact> 0.16472908E+03</totfact>
</mgrwt>
</event>
<event>
 4    1  0.4999097E-001  0.1502004E+03  0.7546771E-02  0.1200227E+00
         -1   -1    0    0    0  501 -0.00000000000E+00  0.00000000000E+00  0.10317036728E+03  0.10317036728E+03  0.00000000000E+00 0.  1.
          1   -1    0    0  501    0  0.00000000000E+00 -0.00000000000E+00 -0.33649024966E+03  0.33649024966E+03  0.00000000000E+00 0. -1.
         24    1    1    2    0    0 -0.10094185702E+03 -0.76835492520E+02  0.13420807104E+02  0.15079882436E+03  0.80419002446E+02 0.  1.
        -24    1    1    2    0    0  0.10094185702E+03  0.76835492520E+02 -0.24674068949E+03  0.28886179258E+03  0.80419002446E+02 0. -1.
<mgrwt>
<rscale>  0 0.15020042E+03</rscale>
<asrwt>0</asrwt>
<pdfrwt beam="1">  1        1 0.51767731E-01 0.15020042E+03</pdfrwt>
<pdfrwt beam="2">  1       -1 0.15872364E-01 0.15020042E+03</pdfrwt>
<totfact> 0.21782969E+03</totfact>
</mgrwt>
</event>
<event>
 4    1  0.4999097E-001  0.9681213E+02  0.7546771E-02  0.1287146E+00
         -1   -1    0    0    0  501 -0.00000000000E+00  0.00000000000E+00  0.11664141647E+03  0.11664141647E+03  0.00000000000E+00 0.  1.
          1   -1    0    0  501    0  0.00000000000E+00 -0.00000000000E+00 -0.17064417796E+03  0.17064417796E+03  0.00000000000E+00 0. -1.
         24    1    1    2    0    0 -0.51177198244E+02  0.16919441513E+02  0.77484759376E+02  0.12400192342E+03  0.80419002446E+02 0.  1.
        -24    1    1    2    0    0  0.51177198244E+02 -0.16919441513E+02 -0.13148752086E+03  0.16328367101E+03  0.80419002446E+02 0. -1.
<mgrwt>
<rscale>  0 0.96812133E+02</rscale>
<asrwt>0</asrwt>
<pdfrwt beam="1">  1        1 0.26252950E-01 0.96812133E+02</pdfrwt>
<pdfrwt beam="2">  1       -1 0.17944833E-01 0.96812133E+02</pdfrwt>
<totfact> 0.40667295E+03</totfact>
</mgrwt>
</event>
<event>
 4    1  0.4999097E-001  0.8094021E+02  0.7546771E-02  0.1326404E+00
         -1   -1    0    0    0  501 -0.00000000000E+00  0.00000000000E+00  0.65856615010E+01  0.65856615010E+01  0.00000000000E+00 0.  1.
          1   -1    0    0  501    0  0.00000000000E+00 -0.00000000000E+00 -0.20231891816E+04  0.20231891816E+04  0.00000000000E+00 0. -1.
         24    1    1    2    0    0 -0.48714622378E+01  0.77698965299E+01 -0.28473017420E+03  0.29601113238E+03  0.80419002446E+02 0.  0.
        -24    1    1    2    0    0  0.48714622378E+01 -0.77698965299E+01 -0.17318733459E+04  0.17337637107E+04  0.80419002446E+02 0. -1.
<mgrwt>
<rscale>  0 0.80940215E+02</rscale>
<asrwt>0</asrwt>
<pdfrwt beam="1">  1        1 0.31125984E+00 0.80940215E+02</pdfrwt>
<pdfrwt beam="2">  1       -1 0.10131788E-02 0.80940215E+02</pdfrwt>
<totfact> 0.58334098E+03</totfact>
</mgrwt>
</event>
<event>
 4    1  0.4999097E-001  0.8297849E+02  0.7546771E-02  0.1320805E+00
         -1   -1    0    0    0  501 -0.00000000000E+00  0.00000000000E+00  0.81857408932E+01  0.81857408932E+01  0.00000000000E+00 0.  1.
          1   -1    0    0  501    0  0.00000000000E+00 -0.00000000000E+00 -0.89607319939E+03  0.89607319939E+03  0.00000000000E+00 0. -1.
         24    1    1    2    0    0  0.14897928054E+02  0.14009492850E+02 -0.33200720697E+03  0.34221954297E+03  0.80419002446E+02 0.  0.
        -24    1    1    2    0    0 -0.14897928054E+02 -0.14009492850E+02 -0.55588025152E+03  0.56203939732E+03  0.80419002446E+02 0.  0.
<mgrwt>
<rscale>  0 0.82978492E+02</rscale>
<asrwt>0</asrwt>
<pdfrwt beam="1">  1        1 0.13785737E+00 0.82978492E+02</pdfrwt>
<pdfrwt beam="2">  1       -1 0.12593452E-02 0.82978492E+02</pdfrwt>
<totfact> 0.23496432E+04</totfact>
</mgrwt>
</event>
<event>
 4    1  0.4999097E-001  0.1325140E+03  0.7546771E-02  0.1223772E+00
         -2   -1    0    0    0  501 -0.00000000000E+00  0.00000000000E+00  0.62724364567E+02  0.62724364567E+02  0.00000000000E+00 0.  1.
          2   -1    0    0  501    0  0.00000000000E+00 -0.00000000000E+00 -0.65696749551E+03  0.65696749551E+03  0.00000000000E+00 0. -1.
         24    1    1    2    0    0  0.45354054636E+02 -0.95056600631E+02 -0.56971968518E+03  0.58492775899E+03  0.80419002446E+02 0. -1.
        -24    1    1    2    0    0 -0.45354054636E+02  0.95056600631E+02 -0.24523445757E+02  0.13476410109E+03  0.80419002446E+02 0.  1.
<mgrwt>
<rscale>  0 0.13251401E+03</rscale>
<asrwt>0</asrwt>
<pdfrwt beam="1">  1        2 0.10107193E+00 0.13251401E+03</pdfrwt>
<pdfrwt beam="2">  1       -2 0.96499020E-02 0.13251401E+03</pdfrwt>
<totfact> 0.31065368E+03</totfact>
</mgrwt>
</event>
<event>
 4    1  0.4999097E-001  0.1308091E+03  0.7546771E-02  0.1226260E+00
          2   -1    0    0  501    0  0.00000000000E+00  0.00000000000E+00  0.39115616197E+03  0.39115616197E+03  0.00000000000E+00 0. -1.
         -2   -1    0    0    0  501 -0.00000000000E+00 -0.00000000000E+00 -0.43884001306E+02  0.43884001306E+02  0.00000000000E+00 0.  1.
         24    1    1    2    0    0  0.42265574464E+02 -0.94113911070E+02  0.16138236205E+03  0.20773851299E+03  0.80419002446E+02 0.  1.
        -24    1    1    2    0    0 -0.42265574464E+02  0.94113911070E+02  0.18588979861E+03  0.22730165028E+03  0.80419002446E+02 0. -1.
<mgrwt>
<rscale>  0 0.13080913E+03</rscale>
<asrwt>0</asrwt>
<pdfrwt beam="1">  1        2 0.60177869E-01 0.13080914E+03</pdfrwt>
<pdfrwt beam="2">  1       -2 0.67513851E-02 0.13080914E+03</pdfrwt>
<totfact> 0.95552592E+03</totfact>
</mgrwt>
</event>
<event>
 4    1  0.4999097E-001  0.1952089E+03  0.7546771E-02  0.1153845E+00
          3   -1    0    0  501    0  0.00000000000E+00  0.00000000000E+00  0.69902350549E+03  0.69902350549E+03  0.00000000000E+00 0. -1.
         -3   -1    0    0    0  501 -0.00000000000E+00 -0.00000000000E+00 -0.58240461061E+02  0.58240461061E+02  0.00000000000E+00 0.  1.
         24    1    1    2    0    0 -0.16638383917E+03 -0.62894624405E+02  0.22461563922E+03  0.29758816686E+03  0.80419002446E+02 0.  1.
        -24    1    1    2    0    0  0.16638383917E+03  0.62894624405E+02  0.41616740520E+03  0.45967579969E+03  0.80419002446E+02 0. -1.
<mgrwt>
<rscale>  0 0.19520894E+03</rscale>
<asrwt>0</asrwt>
<pdfrwt beam="1">  1        3 0.10754207E+00 0.19520894E+03</pdfrwt>
<pdfrwt beam="2">  1       -3 0.89600714E-02 0.19520894E+03</pdfrwt>
<totfact> 0.16539183E+02</totfact>
</mgrwt>
</event>
<event>
 4    1  0.4999097E-001  0.8138026E+02  0.7546771E-02  0.1325179E+00
         -1   -1    0    0    0  501 -0.00000000000E+00  0.00000000000E+00  0.19075380941E+02  0.19075380941E+02  0.00000000000E+00 0.  1.
          1   -1    0    0  501    0  0.00000000000E+00 -0.00000000000E+00 -0.41558308113E+03  0.41558308113E+03  0.00000000000E+00 0. -1.
         24    1    1    2    0    0  0.55787144038E+01  0.11153884802E+02 -0.11008787468E+03  0.13690174326E+03  0.80419002446E+02 0.  1.
        -24    1    1    2    0    0 -0.55787144038E+01 -0.11153884802E+02 -0.28641982551E+03  0.29775671882E+03  0.80419002446E+02 0. -1.
<mgrwt>
<rscale>  0 0.81380263E+02</rscale>
<asrwt>0</asrwt>
<pdfrwt beam="1">  1        1 0.63935852E-01 0.81380263E+02</pdfrwt>
<pdfrwt beam="2">  1       -1 0.29346743E-02 0.81380263E+02</pdfrwt>
<totfact> 0.20021290E+04</totfact>
</mgrwt>
</event>
<event>
 4    1  0.4999097E-001  0.9606984E+02  0.7546771E-02  0.1288785E+00
         -2   -1    0    0    0  501 -0.00000000000E+00  0.00000000000E+00  0.90924418047E+01  0.90924418047E+01  0.00000000000E+00 0.  1.
          2   -1    0    0  501    0  0.00000000000E+00 -0.00000000000E+00 -0.11678764697E+04  0.11678764697E+04  0.00000000000E+00 0. -1.
         24    1    1    2    0    0 -0.48274368964E+02  0.20779383762E+02 -0.79226250180E+03  0.79806596544E+03  0.80419002446E+02 0. -1.
        -24    1    1    2    0    0  0.48274368964E+02 -0.20779383762E+02 -0.36652152613E+03  0.37890294610E+03  0.80419002446E+02 0.  1.
<mgrwt>
<rscale>  0 0.96069836E+02</rscale>
<asrwt>0</asrwt>
<pdfrwt beam="1">  1        2 0.17967331E+00 0.96069836E+02</pdfrwt>
<pdfrwt beam="2">  1       -2 0.13988372E-02 0.96069836E+02</pdfrwt>
<totfact> 0.25274424E+04</totfact>
</mgrwt>
</event>
<event>
 4    1  0.4999097E-001  0.1051694E+03  0.7546771E-02  0.1269786E+00
         -1   -1    0    0    0  501 -0.00000000000E+00  0.00000000000E+00  0.62919211395E+02  0.62919211395E+02  0.00000000000E+00 0.  1.
          1   -1    0    0  501    0  0.00000000000E+00 -0.00000000000E+00 -0.19554638370E+03  0.19554638370E+03  0.00000000000E+00 0. -1.
         24    1    1    2    0    0 -0.49012340738E+02  0.46809966723E+02 -0.25236816541E+02  0.10815496009E+03  0.80419002446E+02 0. -1.
        -24    1    1    2    0    0  0.49012340738E+02 -0.46809966723E+02 -0.10739035576E+03  0.15031063500E+03  0.80419002446E+02 0. -1.
<mgrwt>
<rscale>  0 0.10516938E+03</rscale>
<asrwt>0</asrwt>
<pdfrwt beam="1">  1        1 0.30084059E-01 0.10516938E+03</pdfrwt>
<pdfrwt beam="2">  1       -1 0.96798786E-02 0.10516938E+03</pdfrwt>
<totfact> 0.89548344E+03</totfact>
</mgrwt>
</event>
<event>
 4    1  0.4999097E-001  0.8216382E+02  0.7546771E-02  0.1323021E+00
         -2   -1    0    0    0  501 -0.00000000000E+00  0.00000000000E+00  0.37879129506E+02  0.37879129506E+02  0.00000000000E+00 0.  1.
          2   -1    0    0  501    0  0.00000000000E+00 -0.00000000000E+00 -0.31839538838E+03  0.31839538838E+03  0.00000000000E+00 0. -1.
         24    1    1    2    0    0  0.54067872192E+01 -0.15951214597E+02 -0.22061711002E+02  0.85074142029E+02  0.80419002446E+02 0.  0.
        -24    1    1    2    0    0 -0.54067872192E+01  0.15951214597E+02 -0.25845454787E+03  0.27120037585E+03  0.80419002446E+02 0.  0.
<mgrwt>
<rscale>  0 0.82163813E+02</rscale>
<asrwt>0</asrwt>
<pdfrwt beam="1">  1        2 0.48983906E-01 0.82163824E+02</pdfrwt>
<pdfrwt beam="2">  1       -2 0.58275584E-02 0.82163824E+02</pdfrwt>
<totfact> 0.14244759E+04</totfact>
</mgrwt>
</event>
<event>
 4    1  0.4999097E-001  0.8182458E+02  0.7546771E-02  0.1323952E+00
         -3   -1    0    0    0  501 -0.00000000000E+00  0.00000000000E+00  0.52027069799E+02  0.52027069799E+02  0.00000000000E+00 0.  1.
          3   -1    0    0  501    0  0.00000000000E+00 -0.00000000000E+00 -0.15246045300E+03  0.15246045300E+03  0.00000000000E+00 0. -1.
         24    1    1    2    0    0  0.92080268985E+01  0.11969067461E+02 -0.98433464647E+01  0.82414523958E+02  0.80419002446E+02 0.  0.
        -24    1    1    2    0    0 -0.92080268985E+01 -0.11969067461E+02 -0.90590036732E+02  0.12207299884E+03  0.80419002446E+02 0. -1.
<mgrwt>
<rscale>  0 0.81824582E+02</rscale>
<asrwt>0</asrwt>
<pdfrwt beam="1">  1        3 0.23455454E-01 0.81824582E+02</pdfrwt>
<pdfrwt beam="2">  1       -3 0.80041647E-02 0.81824582E+02</pdfrwt>
<totfact> 0.36894956E+03</totfact>
</mgrwt>
</event>
<event>
 4    1  0.4999097E-001  0.1209408E+03  0.7546771E-02  0.1241553E+00
         -2   -1    0    0    0  501 -0.00000000000E+00  0.00000000000E+00  0.10454671361E+03  0.10454671361E+03  0.00000000000E+00 0.  1.
          2   -1    0    0  501    0  0.00000000000E+00 -0.00000000000E+00 -0.95570676167E+03  0.95570676167E+03  0.00000000000E+00 0. -1.
         24    1    1    2    0    0  0.28646637784E+02 -0.85667024619E+02 -0.91536956076E+03  0.92332449208E+03  0.80419002446E+02 0. -1.
        -24    1    1    2    0    0 -0.28646637784E+02  0.85667024619E+02  0.64209512696E+02  0.13692898319E+03  0.80419002446E+02 0.  1.
<mgrwt>
<rscale>  0 0.12094083E+03</rscale>
<asrwt>0</asrwt>
<pdfrwt beam="1">  1        2 0.14703181E+00 0.12094083E+03</pdfrwt>
<pdfrwt beam="2">  1       -2 0.16084110E-01 0.12094083E+03</pdfrwt>
<totfact> 0.85980104E+02</totfact>
</mgrwt>
</event>
<event>
 4    1  0.4999097E-001  0.8326747E+02  0.7546771E-02  0.1320026E+00
         -1   -1    0    0    0  501 -0.00000000000E+00  0.00000000000E+00  0.33483578029E+02  0.33483578029E+02  0.00000000000E+00 0.  1.
          1   -1    0    0  501    0  0.00000000000E+00 -0.00000000000E+00 -0.25789302821E+03  0.25789302821E+03  0.00000000000E+00 0. -1.
         24    1    1    2    0    0  0.19526904182E+02 -0.92171410885E+01 -0.47530431845E+02  0.95878118372E+02  0.80419002446E+02 0.  1.
        -24    1    1    2    0    0 -0.19526904182E+02  0.92171410885E+01 -0.17687901834E+03  0.19549848787E+03  0.80419002446E+02 0. -1.
<mgrwt>
<rscale>  0 0.83267470E+02</rscale>
<asrwt>0</asrwt>
<pdfrwt beam="1">  1        1 0.39675850E-01 0.83267470E+02</pdfrwt>
<pdfrwt beam="2">  1       -1 0.51513197E-02 0.83267470E+02</pdfrwt>
<totfact> 0.15936934E+04</totfact>
</mgrwt>
</event>
<event>
 4    1  0.4999097E-001  0.8710498E+02  0.7546771E-02  0.1310018E+00
         -3   -1    0    0    0  501 -0.00000000000E+00  0.00000000000E+00  0.11941357009E+02  0.11941357009E+02  0.00000000000E+00 0.  1.
          3   -1    0    0  501    0  0.00000000000E+00 -0.00000000000E+00 -0.20373108749E+04  0.20373108749E+04  0.00000000000E+00 0. -1.
         24    1    1    2    0    0 -0.12835348380E+02  0.30908183142E+02 -0.16272111729E+03  0.18456825274E+03  0.80419002446E+02 0.  1.
        -24    1    1    2    0    0  0.12835348380E+02 -0.30908183142E+02 -0.18626484006E+04  0.18646839792E+04  0.80419002446E+02 0. -1.
<mgrwt>
<rscale>  0 0.87104982E+02</rscale>
<asrwt>0</asrwt>
<pdfrwt beam="1">  1        3 0.31343191E+00 0.87104982E+02</pdfrwt>
<pdfrwt beam="2">  1       -3 0.18371350E-02 0.87104982E+02</pdfrwt>
<totfact> 0.95803947E+01</totfact>
</mgrwt>
</event>
<event>
 4    1  0.4999097E-001  0.1562054E+03  0.7546771E-02  0.1193049E+00
         -2   -1    0    0    0  501 -0.00000000000E+00  0.00000000000E+00  0.12254806955E+03  0.12254806955E+03  0.00000000000E+00 0.  1.
          2   -1    0    0  501    0  0.00000000000E+00 -0.00000000000E+00 -0.20419127822E+03  0.20419127822E+03  0.00000000000E+00 0. -1.
         24    1    1    2    0    0 -0.90367131736E+02 -0.98826630181E+02 -0.66601541797E+02  0.16981137375E+03  0.80419002446E+02 0. -1.
        -24    1    1    2    0    0  0.90367131736E+02  0.98826630181E+02 -0.15041666873E+02  0.15692797401E+03  0.80419002446E+02 0.  1.
<mgrwt>
<rscale>  0 0.15620543E+03</rscale>
<asrwt>0</asrwt>
<pdfrwt beam="1">  1        2 0.31414043E-01 0.15620543E+03</pdfrwt>
<pdfrwt beam="2">  1       -2 0.18853549E-01 0.15620543E+03</pdfrwt>
<totfact> 0.37570214E+03</totfact>
</mgrwt>
</event>
<event>
 4    1  0.4999097E-001  0.1633394E+03  0.7546771E-02  0.1184977E+00
          3   -1    0    0  501    0  0.00000000000E+00  0.00000000000E+00  0.49419255313E+03  0.49419255313E+03  0.00000000000E+00 0. -1.
         -3   -1    0    0    0  501 -0.00000000000E+00 -0.00000000000E+00 -0.54015788516E+02  0.54015788516E+02  0.00000000000E+00 0.  1.
         24    1    1    2    0    0 -0.13894929333E+03  0.30093744731E+02  0.21371214649E+03  0.26898445512E+03  0.80419002446E+02 0.  1.
        -24    1    1    2    0    0  0.13894929333E+03 -0.30093744731E+02  0.22646461813E+03  0.27922388653E+03  0.80419002446E+02 0. -1.
<mgrwt>
<rscale>  0 0.16333939E+03</rscale>
<asrwt>0</asrwt>
<pdfrwt beam="1">  1        3 0.76029620E-01 0.16333939E+03</pdfrwt>
<pdfrwt beam="2">  1       -3 0.83101217E-02 0.16333939E+03</pdfrwt>
<totfact> 0.39820558E+02</totfact>
</mgrwt>
</event>
<event>
 4    1  0.4999097E-001  0.1033867E+03  0.7546771E-02  0.1273331E+00
          2   -1    0    0  501    0  0.00000000000E+00  0.00000000000E+00  0.37368022164E+04  0.37368022164E+04  0.00000000000E+00 0. -1.
         -2   -1    0    0    0  501 -0.00000000000E+00 -0.00000000000E+00 -0.39582390778E+01  0.39582390778E+01  0.00000000000E+00 0.  1.
         24    1    1    2    0    0  0.42913071636E+02 -0.48785933464E+02  0.28514413012E+04  0.28533149684E+04  0.80419002446E+02 0. -1.
        -24    1    1    2    0    0 -0.42913071636E+02  0.48785933464E+02  0.88140267611E+03  0.88744548702E+03  0.80419002446E+02 0.  1.
<mgrwt>
<rscale>  0 0.10338673E+03</rscale>
<asrwt>0</asrwt>
<pdfrwt beam="1">  1        2 0.57488983E+00 0.10338673E+03</pdfrwt>
<pdfrwt beam="2">  1       -2 0.60896285E-03 0.10338673E+03</pdfrwt>
<totfact> 0.31487407E+03</totfact>
</mgrwt>
</event>
<event>
 4    1  0.4999097E-001  0.9757774E+02  0.7546771E-02  0.1285474E+00
         -1   -1    0    0    0  501 -0.00000000000E+00  0.00000000000E+00  0.25582453593E+02  0.25582453593E+02  0.00000000000E+00 0.  1.
          1   -1    0    0  501    0  0.00000000000E+00 -0.00000000000E+00 -0.39906696242E+03  0.39906696242E+03  0.00000000000E+00 0. -1.
         24    1    1    2    0    0 -0.49734767111E+02  0.24096747519E+02 -0.13163551266E+03  0.16385763469E+03  0.80419002446E+02 0.  1.
        -24    1    1    2    0    0  0.49734767111E+02 -0.24096747519E+02 -0.24184899617E+03  0.26079178132E+03  0.80419002446E+02 0. -1.
<mgrwt>
<rscale>  0 0.97577745E+02</rscale>
<asrwt>0</asrwt>
<pdfrwt beam="1">  1        1 0.61394914E-01 0.97577745E+02</pdfrwt>
<pdfrwt beam="2">  1       -1 0.39357623E-02 0.97577745E+02</pdfrwt>
<totfact> 0.14031728E+04</totfact>
</mgrwt>
</event>
<event>
 4    1  0.4999097E-001  0.9800755E+02  0.7546771E-02  0.1284542E+00
         -4   -1    0    0    0  501 -0.00000000000E+00  0.00000000000E+00  0.22812472436E+02  0.22812472436E+02  0.00000000000E+00 0.  1.
          4   -1    0    0  501    0  0.00000000000E+00 -0.00000000000E+00 -0.11992400869E+04  0.11992400869E+04  0.00000000000E+00 0. -1.
         24    1    1    2    0    0 -0.54556281204E+02  0.12723079571E+02 -0.10804189336E+04  0.10848550837E+04  0.80419002446E+02 0. -1.
        -24    1    1    2    0    0  0.54556281204E+02 -0.12723079571E+02 -0.96008680919E+02  0.13719747570E+03  0.80419002446E+02 0.  1.
<mgrwt>
<rscale>  0 0.98007553E+02</rscale>
<asrwt>0</asrwt>
<pdfrwt beam="1">  1        4 0.18449852E+00 0.98007553E+02</pdfrwt>
<pdfrwt beam="2">  1       -4 0.35096103E-02 0.98007553E+02</pdfrwt>
<totfact> 0.12300148E+02</totfact>
</mgrwt>
</event>
<event>
 4    1  0.4999097E-001  0.9751441E+02  0.7546771E-02  0.1285611E+00
          1   -1    0    0  501    0  0.00000000000E+00  0.00000000000E+00  0.12139343764E+04  0.12139343764E+04  0.00000000000E+00 0. -1.
         -1   -1    0    0    0  501 -0.00000000000E+00 -0.00000000000E+00 -0.25077891751E+02  0.25077891751E+02  0.00000000000E+00 0.  1.
         24    1    1    2    0    0  0.43197963368E+02  0.34289659551E+02  0.80707512216E+02  0.12658105417E+03  0.80419002446E+02 0.  1.
        -24    1    1    2    0    0 -0.43197963368E+02 -0.34289659551E+02  0.11081489724E+04  0.11124312140E+04  0.80419002446E+02 0. -1.
<mgrwt>
<rscale>  0 0.97514413E+02</rscale>
<asrwt>0</asrwt>
<pdfrwt beam="1">  1        1 0.18675909E+00 0.97514413E+02</pdfrwt>
<pdfrwt beam="2">  1       -1 0.38581381E-02 0.97514413E+02</pdfrwt>
<totfact> 0.28514185E+03</totfact>
</mgrwt>
</event>
<event>
 4    1  0.4999097E-001  0.8291103E+02  0.7546771E-02  0.1320988E+00
         -2   -1    0    0    0  501 -0.00000000000E+00  0.00000000000E+00  0.33323732829E+01  0.33323732829E+01  0.00000000000E+00 0.  1.
          2   -1    0    0  501    0  0.00000000000E+00 -0.00000000000E+00 -0.20658300330E+04  0.20658300330E+04  0.00000000000E+00 0. -1.
         24    1    1    2    0    0 -0.14043634085E+02  0.14484437941E+02 -0.10704393080E+04  0.10736454492E+04  0.80419002446E+02 0. -1.
        -24    1    1    2    0    0  0.14043634085E+02 -0.14484437941E+02 -0.99205835175E+03  0.99551695708E+03  0.80419002446E+02 0.  1.
<mgrwt>
<rscale>  0 0.82911028E+02</rscale>
<asrwt>0</asrwt>
<pdfrwt beam="1">  1        2 0.31781999E+00 0.82911028E+02</pdfrwt>
<pdfrwt beam="2">  1       -2 0.51267284E-03 0.82911028E+02</pdfrwt>
<totfact> 0.35760162E+04</totfact>
</mgrwt>
</event>
<event>
 4    1  0.4999097E-001  0.8853728E+02  0.7546771E-02  0.1306433E+00
          4   -1    0    0  501    0  0.00000000000E+00  0.00000000000E+00  0.37164334956E+02  0.37164334956E+02  0.00000000000E+00 0. -1.
         -4   -1    0    0    0  501 -0.00000000000E+00 -0.00000000000E+00 -0.21182286784E+03  0.21182286784E+03  0.00000000000E+00 0.  1.
         24    1    1    2    0    0 -0.18564401404E+02 -0.32046786291E+02 -0.79219409085E+02  0.11880473156E+03  0.80419002446E+02 0. -1.
        -24    1    1    2    0    0  0.18564401404E+02  0.32046786291E+02 -0.95439123800E+02  0.13018247124E+03  0.80419002446E+02 0.  0.
<mgrwt>
<rscale>  0 0.88537277E+02</rscale>
<asrwt>0</asrwt>
<pdfrwt beam="1">  1        4 0.57175900E-02 0.88537277E+02</pdfrwt>
<pdfrwt beam="2">  1       -4 0.32588133E-01 0.88537277E+02</pdfrwt>
<totfact> 0.25687071E+03</totfact>
</mgrwt>
</event>
<event>
 4    1  0.4999097E-001  0.1017732E+03  0.7546771E-02  0.1276611E+00
         -2   -1    0    0    0  501 -0.00000000000E+00  0.00000000000E+00  0.12017017501E+03  0.12017017501E+03  0.00000000000E+00 0.  1.
          2   -1    0    0  501    0  0.00000000000E+00 -0.00000000000E+00 -0.11009520173E+03  0.11009520173E+03  0.00000000000E+00 0. -1.
         24    1    1    2    0    0 -0.62339769390E+02 -0.20770061782E+01 -0.48608504004E+02  0.11278547521E+03  0.80419002446E+02 0. -1.
        -24    1    1    2    0    0  0.62339769390E+02  0.20770061782E+01  0.58683477289E+02  0.11747990153E+03  0.80419002446E+02 0.  1.
<mgrwt>
<rscale>  0 0.10177316E+03</rscale>
<asrwt>0</asrwt>
<pdfrwt beam="1">  1        2 0.16937723E-01 0.10177316E+03</pdfrwt>
<pdfrwt beam="2">  1       -2 0.18487719E-01 0.10177316E+03</pdfrwt>
<totfact> 0.74950217E+03</totfact>
</mgrwt>
</event>
<event>
 4    1  0.4999097E-001  0.9002319E+02  0.7546771E-02  0.1302796E+00
         -2   -1    0    0    0  501 -0.00000000000E+00  0.00000000000E+00  0.15692958752E+02  0.15692958752E+02  0.00000000000E+00 0.  1.
          2   -1    0    0  501    0  0.00000000000E+00 -0.00000000000E+00 -0.53256604111E+03  0.53256604111E+03  0.00000000000E+00 0. -1.
         24    1    1    2    0    0  0.40226203624E+02 -0.43371359950E+01 -0.30616616466E+03  0.31912676877E+03  0.80419002446E+02 0.  1.
        -24    1    1    2    0    0 -0.40226203624E+02  0.43371359950E+01 -0.21070691770E+03  0.22913223110E+03  0.80419002446E+02 0.  0.
<mgrwt>
<rscale>  0 0.90023187E+02</rscale>
<asrwt>0</asrwt>
<pdfrwt beam="1">  1        2 0.81933223E-01 0.90023187E+02</pdfrwt>
<pdfrwt beam="2">  1       -2 0.24143018E-02 0.90023187E+02</pdfrwt>
<totfact> 0.30364091E+04</totfact>
</mgrwt>
</event>
<event>
 4    1  0.4999097E-001  0.8156596E+02  0.7546771E-02  0.1324665E+00
         -2   -1    0    0    0  501 -0.00000000000E+00  0.00000000000E+00  0.13091742138E+03  0.13091742138E+03  0.00000000000E+00 0.  1.
          2   -1    0    0  501    0  0.00000000000E+00 -0.00000000000E+00 -0.13683542025E+03  0.13683542025E+03  0.00000000000E+00 0. -1.
         24    1    1    2    0    0 -0.12259855007E+02  0.59570271075E+01 -0.10910342072E+03  0.13622247459E+03  0.80419002446E+02 0. -1.
        -24    1    1    2    0    0  0.12259855007E+02 -0.59570271075E+01  0.10318542185E+03  0.13153036704E+03  0.80419002446E+02 0.  1.
<mgrwt>
<rscale>  0 0.81565962E+02</rscale>
<asrwt>0</asrwt>
<pdfrwt beam="1">  1        2 0.21051603E-01 0.81565962E+02</pdfrwt>
<pdfrwt beam="2">  1       -2 0.20141142E-01 0.81565962E+02</pdfrwt>
<totfact> 0.49978168E+03</totfact>
</mgrwt>
</event>
<event>
 4    1  0.4999097E-001  0.8630469E+02  0.7546771E-02  0.1312055E+00
         -2   -1    0    0    0  501 -0.00000000000E+00  0.00000000000E+00  0.39068468192E+01  0.39068468192E+01  0.00000000000E+00 0.  1.
          2   -1    0    0  501    0  0.00000000000E+00 -0.00000000000E+00 -0.21293856687E+04  0.21293856687E+04  0.00000000000E+00 0. -1.
         24    1    1    2    0    0  0.31315794929E+02  0.77711086898E+00 -0.14078120537E+04  0.14104549895E+04  0.80419002446E+02 0.  1.
        -24    1    1    2    0    0 -0.31315794929E+02 -0.77711086898E+00 -0.71766676817E+03  0.72283752600E+03  0.80419002446E+02 0. -1.
<mgrwt>
<rscale>  0 0.86304686E+02</rscale>
<asrwt>0</asrwt>
<pdfrwt beam="1">  1        2 0.32759824E+00 0.86304686E+02</pdfrwt>
<pdfrwt beam="2">  1       -2 0.60105255E-03 0.86304686E+02</pdfrwt>
<totfact> 0.26663707E+04</totfact>
</mgrwt>
</event>
<event>
 4    1  0.4999097E-001  0.8169747E+02  0.7546771E-02  0.1324302E+00
         -1   -1    0    0    0  501 -0.00000000000E+00  0.00000000000E+00  0.36213345288E+01  0.36213345288E+01  0.00000000000E+00 0.  1.
          1   -1    0    0  501    0  0.00000000000E+00 -0.00000000000E+00 -0.28006702085E+04  0.28006702085E+04  0.00000000000E+00 0. -1.
         24    1    1    2    0    0  0.12488954346E+02  0.71614150516E+01 -0.57864902656E+03  0.58438786070E+03  0.80419002446E+02 0.  1.
        -24    1    1    2    0    0 -0.12488954346E+02 -0.71614150516E+01 -0.22183998474E+04  0.22199036824E+04  0.80419002446E+02 0. -1.
<mgrwt>
<rscale>  0 0.81697465E+02</rscale>
<asrwt>0</asrwt>
<pdfrwt beam="1">  1        1 0.43087433E+00 0.81697465E+02</pdfrwt>
<pdfrwt beam="2">  1       -1 0.55712582E-03 0.81697465E+02</pdfrwt>
<totfact> 0.42980853E+03</totfact>
</mgrwt>
</event>
<event>
 4    1  0.4999097E-001  0.1037961E+03  0.7546771E-02  0.1272510E+00
          1   -1    0    0  501    0  0.00000000000E+00  0.00000000000E+00  0.35258770314E+02  0.35258770314E+02  0.00000000000E+00 0. -1.
         -1   -1    0    0    0  501 -0.00000000000E+00 -0.00000000000E+00 -0.31131897198E+03  0.31131897198E+03  0.00000000000E+00 0.  1.
         24    1    1    2    0    0 -0.63676324096E+02  0.15866499835E+02 -0.16160102130E+03  0.19206385945E+03  0.80419002446E+02 0. -1.
        -24    1    1    2    0    0  0.63676324096E+02 -0.15866499835E+02 -0.11445918037E+03  0.15451388285E+03  0.80419002446E+02 0.  0.
<mgrwt>
<rscale>  0 0.10379613E+03</rscale>
<asrwt>0</asrwt>
<pdfrwt beam="1">  1        1 0.54244262E-02 0.10379613E+03</pdfrwt>
<pdfrwt beam="2">  1       -1 0.47895227E-01 0.10379613E+03</pdfrwt>
<totfact> 0.61501739E+03</totfact>
</mgrwt>
</event>
<event>
 4    1  0.4999097E-001  0.8305443E+02  0.7546771E-02  0.1320600E+00
          4   -1    0    0  501    0  0.00000000000E+00  0.00000000000E+00  0.16297939237E+02  0.16297939237E+02  0.00000000000E+00 0. -1.
         -4   -1    0    0    0  501 -0.00000000000E+00 -0.00000000000E+00 -0.44753125635E+03  0.44753125635E+03  0.00000000000E+00 0.  1.
         24    1    1    2    0    0  0.11307669247E+02 -0.17405726463E+02 -0.16159260547E+03  0.18168711786E+03  0.80419002446E+02 0.  1.
        -24    1    1    2    0    0 -0.11307669247E+02  0.17405726463E+02 -0.26964071164E+03  0.28214207773E+03  0.80419002446E+02 0.  0.
<mgrwt>
<rscale>  0 0.83054432E+02</rscale>
<asrwt>0</asrwt>
<pdfrwt beam="1">  1        4 0.25073754E-02 0.83054432E+02</pdfrwt>
<pdfrwt beam="2">  1       -4 0.68850960E-01 0.83054432E+02</pdfrwt>
<totfact> 0.20570167E+03</totfact>
</mgrwt>
</event>
<event>
 4    1  0.4999097E-001  0.8215829E+02  0.7546771E-02  0.1323036E+00
          3   -1    0    0  501    0  0.00000000000E+00  0.00000000000E+00  0.11563486982E+03  0.11563486982E+03  0.00000000000E+00 0. -1.
         -3   -1    0    0    0  501 -0.00000000000E+00 -0.00000000000E+00 -0.14135969831E+03  0.14135969831E+03  0.00000000000E+00 0.  1.
         24    1    1    2    0    0 -0.14418215584E+02 -0.86535246470E+01 -0.11131671793E+03  0.13835243429E+03  0.80419002446E+02 0.  1.
        -24    1    1    2    0    0  0.14418215584E+02  0.86535246470E+01  0.85591889441E+02  0.11864213384E+03  0.80419002446E+02 0. -1.
<mgrwt>
<rscale>  0 0.82158289E+02</rscale>
<asrwt>0</asrwt>
<pdfrwt beam="1">  1        3 0.17789980E-01 0.82158289E+02</pdfrwt>
<pdfrwt beam="2">  1       -3 0.21747646E-01 0.82158289E+02</pdfrwt>
<totfact> 0.11222193E+03</totfact>
</mgrwt>
</event>
<event>
 4    1  0.4999097E-001  0.8169484E+02  0.7546771E-02  0.1324309E+00
          2   -1    0    0  501    0  0.00000000000E+00  0.00000000000E+00  0.18501059427E+04  0.18501059427E+04  0.00000000000E+00 0. -1.
         -2   -1    0    0    0  501 -0.00000000000E+00 -0.00000000000E+00 -0.37441119063E+01  0.37441119063E+01  0.00000000000E+00 0.  1.
         24    1    1    2    0    0 -0.13702126190E+01  0.14316171095E+02  0.11003123646E+04  0.11033409926E+04  0.80419002446E+02 0. -1.
        -24    1    1    2    0    0  0.13702126190E+01 -0.14316171095E+02  0.74604946617E+03  0.75050906202E+03  0.80419002446E+02 0.  1.
<mgrwt>
<rscale>  0 0.81694836E+02</rscale>
<asrwt>0</asrwt>
<pdfrwt beam="1">  1        2 0.28463095E+00 0.81694836E+02</pdfrwt>
<pdfrwt beam="2">  1       -2 0.57601869E-03 0.81694836E+02</pdfrwt>
<totfact> 0.38897617E+04</totfact>
</mgrwt>
</event>
<event>
 4    1  0.4999097E-001  0.9450883E+02  0.7546771E-02  0.1292286E+00
         -1   -1    0    0    0  501 -0.00000000000E+00  0.00000000000E+00  0.77487547424E+01  0.77487547424E+01  0.00000000000E+00 0.  1.
          1   -1    0    0  501    0  0.00000000000E+00 -0.00000000000E+00 -0.15621179326E+04  0.15621179326E+04  0.00000000000E+00 0. -1.
         24    1    1    2    0    0 -0.44212066080E+01 -0.49448476605E+02 -0.11790349979E+04  0.11828167403E+04  0.80419002446E+02 0. -1.
        -24    1    1    2    0    0  0.44212066080E+01  0.49448476605E+02 -0.37533417995E+03  0.38704994703E+03  0.80419002446E+02 0.  1.
<mgrwt>
<rscale>  0 0.94508820E+02</rscale>
<asrwt>0</asrwt>
<pdfrwt beam="1">  1        1 0.24032585E+00 0.94508832E+02</pdfrwt>
<pdfrwt beam="2">  1       -1 0.11921160E-02 0.94508832E+02</pdfrwt>
<totfact> 0.90888584E+03</totfact>
</mgrwt>
</event>
<event>
 4    1  0.4999097E-001  0.8797891E+02  0.7546771E-02  0.1307821E+00
          1   -1    0    0  501    0  0.00000000000E+00  0.00000000000E+00  0.64981774757E+02  0.64981774757E+02  0.00000000000E+00 0. -1.
         -1   -1    0    0    0  501 -0.00000000000E+00 -0.00000000000E+00 -0.12857018622E+03  0.12857018622E+03  0.00000000000E+00 0.  1.
         24    1    1    2    0    0 -0.31142564665E+02 -0.17413023823E+02 -0.58038683445E+02  0.10539818529E+03  0.80419002446E+02 0.  0.
        -24    1    1    2    0    0  0.31142564665E+02  0.17413023823E+02 -0.55497280222E+01  0.88153775688E+02  0.80419002446E+02 0.  1.
<mgrwt>
<rscale>  0 0.87978910E+02</rscale>
<asrwt>0</asrwt>
<pdfrwt beam="1">  1        1 0.99971962E-02 0.87978910E+02</pdfrwt>
<pdfrwt beam="2">  1       -1 0.19780028E-01 0.87978910E+02</pdfrwt>
<totfact> 0.11825500E+04</totfact>
</mgrwt>
</event>
<event>
 4    1  0.4999097E-001  0.8621059E+02  0.7546771E-02  0.1312297E+00
          2   -1    0    0  501    0  0.00000000000E+00  0.00000000000E+00  0.46963850293E+03  0.46963850293E+03  0.00000000000E+00 0. -1.
         -2   -1    0    0    0  501 -0.00000000000E+00 -0.00000000000E+00 -0.18471196195E+02  0.18471196195E+02  0.00000000000E+00 0.  1.
         24    1    1    2    0    0  0.19502915151E+02 -0.24180301326E+02  0.31794908861E+03  0.32942964283E+03  0.80419002446E+02 0.  0.
        -24    1    1    2    0    0 -0.19502915151E+02  0.24180301326E+02  0.13321821812E+03  0.15868005630E+03  0.80419002446E+02 0.  0.
<mgrwt>
<rscale>  0 0.86210595E+02</rscale>
<asrwt>0</asrwt>
<pdfrwt beam="1">  1        2 0.72252068E-01 0.86210595E+02</pdfrwt>
<pdfrwt beam="2">  1       -2 0.28417229E-02 0.86210595E+02</pdfrwt>
<totfact> 0.27342906E+04</totfact>
</mgrwt>
</event>
<event>
 4    1  0.4999097E-001  0.1030647E+03  0.7546771E-02  0.1273980E+00
          2   -1    0    0  501    0  0.00000000000E+00  0.00000000000E+00  0.11336960893E+04  0.11336960893E+04  0.00000000000E+00 0. -1.
         -2   -1    0    0    0  501 -0.00000000000E+00 -0.00000000000E+00 -0.56328402513E+02  0.56328402513E+02  0.00000000000E+00 0.  1.
         24    1    1    2    0    0  0.17137523275E+02  0.62140336597E+02  0.10819597890E+04  0.10868575422E+04  0.80419002446E+02 0. -1.
        -24    1    1    2    0    0 -0.17137523275E+02 -0.62140336597E+02 -0.45921021785E+01  0.10316694962E+03  0.80419002446E+02 0.  1.
<mgrwt>
<rscale>  0 0.10306470E+03</rscale>
<asrwt>0</asrwt>
<pdfrwt beam="1">  1        2 0.17441477E+00 0.10306470E+03</pdfrwt>
<pdfrwt beam="2">  1       -2 0.86659089E-02 0.10306470E+03</pdfrwt>
<totfact> 0.18086263E+03</totfact>
</mgrwt>
</event>
<event>
 4    1  0.4999097E-001  0.9010844E+02  0.7546771E-02  0.1302589E+00
          2   -1    0    0  501    0  0.00000000000E+00  0.00000000000E+00  0.60075663569E+03  0.60075663569E+03  0.00000000000E+00 0. -1.
         -2   -1    0    0    0  501 -0.00000000000E+00 -0.00000000000E+00 -0.20673189245E+02  0.20673189245E+02  0.00000000000E+00 0.  1.
         24    1    1    2    0    0 -0.25703170982E+02 -0.31490661265E+02  0.47287050065E+03  0.48137931103E+03  0.80419002446E+02 0.  0.
        -24    1    1    2    0    0  0.25703170982E+02  0.31490661265E+02  0.10721294579E+03  0.14005051391E+03  0.80419002446E+02 0.  0.
<mgrwt>
<rscale>  0 0.90108439E+02</rscale>
<asrwt>0</asrwt>
<pdfrwt beam="1">  1        2 0.92424084E-01 0.90108439E+02</pdfrwt>
<pdfrwt beam="2">  1       -2 0.31804911E-02 0.90108439E+02</pdfrwt>
<totfact> 0.17826539E+04</totfact>
</mgrwt>
</event>
<event>
 4    1  0.4999097E-001  0.8300947E+02  0.7546771E-02  0.1320722E+00
          1   -1    0    0  501    0  0.00000000000E+00  0.00000000000E+00  0.10921820252E+03  0.10921820252E+03  0.00000000000E+00 0. -1.
         -1   -1    0    0    0  501 -0.00000000000E+00 -0.00000000000E+00 -0.65812841766E+02  0.65812841766E+02  0.00000000000E+00 0.  1.
         24    1    1    2    0    0 -0.17717456417E+02 -0.10461706857E+02  0.39016752793E+01  0.83101110682E+02  0.80419002446E+02 0.  0.
        -24    1    1    2    0    0  0.17717456417E+02  0.10461706857E+02  0.39503685476E+02  0.91929933606E+02  0.80419002446E+02 0.  0.
<mgrwt>
<rscale>  0 0.83009466E+02</rscale>
<asrwt>0</asrwt>
<pdfrwt beam="1">  1        1 0.16802800E-01 0.83009466E+02</pdfrwt>
<pdfrwt beam="2">  1       -1 0.10125053E-01 0.83009466E+02</pdfrwt>
<totfact> 0.16920621E+04</totfact>
</mgrwt>
</event>
<event>
 4    1  0.4999097E-001  0.9249431E+02  0.7546771E-02  0.1296921E+00
         -1   -1    0    0    0  501 -0.00000000000E+00  0.00000000000E+00  0.15259924265E+03  0.15259924265E+03  0.00000000000E+00 0.  1.
          1   -1    0    0  501    0  0.00000000000E+00 -0.00000000000E+00 -0.11341140328E+03  0.11341140328E+03  0.00000000000E+00 0. -1.
         24    1    1    2    0    0 -0.68897355625E+01 -0.45172044147E+02  0.11417421468E+03  0.14693859017E+03  0.80419002446E+02 0.  1.
        -24    1    1    2    0    0  0.68897355625E+01  0.45172044147E+02 -0.74986375307E+02  0.11907205577E+03  0.80419002446E+02 0. -1.
<mgrwt>
<rscale>  0 0.92494313E+02</rscale>
<asrwt>0</asrwt>
<pdfrwt beam="1">  1        1 0.17447908E-01 0.92494313E+02</pdfrwt>
<pdfrwt beam="2">  1       -1 0.23476807E-01 0.92494313E+02</pdfrwt>
<totfact> 0.44062784E+03</totfact>
</mgrwt>
</event>
<event>
 4    1  0.4999097E-001  0.1188972E+03  0.7546771E-02  0.1244927E+00
          2   -1    0    0  501    0  0.00000000000E+00  0.00000000000E+00  0.76201771457E+03  0.76201771457E+03  0.00000000000E+00 0. -1.
         -2   -1    0    0    0  501 -0.00000000000E+00 -0.00000000000E+00 -0.18842757721E+02  0.18842757721E+02  0.00000000000E+00 0.  1.
         24    1    1    2    0    0  0.56122915992E+02  0.67227599718E+02  0.32304373838E+03  0.34422929091E+03  0.80419002446E+02 0. -1.
        -24    1    1    2    0    0 -0.56122915992E+02 -0.67227599718E+02  0.42013121848E+03  0.43663118138E+03  0.80419002446E+02 0.  1.
<mgrwt>
<rscale>  0 0.11889723E+03</rscale>
<asrwt>0</asrwt>
<pdfrwt beam="1">  1        2 0.11723347E+00 0.11889725E+03</pdfrwt>
<pdfrwt beam="2">  1       -2 0.28988864E-02 0.11889725E+03</pdfrwt>
<totfact> 0.15847354E+04</totfact>
</mgrwt>
</event>
<event>
 4    1  0.4999097E-001  0.8813863E+02  0.7546771E-02  0.1307423E+00
         -2   -1    0    0    0  501 -0.00000000000E+00  0.00000000000E+00  0.33731077825E+02  0.33731077825E+02  0.00000000000E+00 0.  1.
          2   -1    0    0  501    0  0.00000000000E+00 -0.00000000000E+00 -0.43012135020E+03  0.43012135020E+03  0.00000000000E+00 0. -1.
         24    1    1    2    0    0  0.99758568178E+01  0.34665315635E+02 -0.35627277212E+03  0.36701322311E+03  0.80419002446E+02 0. -1.
        -24    1    1    2    0    0 -0.99758568178E+01 -0.34665315635E+02 -0.40117500251E+02  0.96839204912E+02  0.80419002446E+02 0.  1.
<mgrwt>
<rscale>  0 0.88138628E+02</rscale>
<asrwt>0</asrwt>
<pdfrwt beam="1">  1        2 0.66172510E-01 0.88138628E+02</pdfrwt>
<pdfrwt beam="2">  1       -2 0.51893970E-02 0.88138628E+02</pdfrwt>
<totfact> 0.12439270E+04</totfact>
</mgrwt>
</event>
<event>
 4    1  0.4999097E-001  0.1437765E+03  0.7546771E-02  0.1208336E+00
         -1   -1    0    0    0  501 -0.00000000000E+00  0.00000000000E+00  0.24348818481E+02  0.24348818481E+02  0.00000000000E+00 0.  1.
          1   -1    0    0  501    0  0.00000000000E+00 -0.00000000000E+00 -0.85878299396E+03  0.85878299396E+03  0.00000000000E+00 0. -1.
         24    1    1    2    0    0 -0.83031941260E+02 -0.85499514524E+02 -0.37004237530E+03  0.39699250085E+03  0.80419002446E+02 0.  1.
        -24    1    1    2    0    0  0.83031941260E+02  0.85499514524E+02 -0.46439180018E+03  0.48613931160E+03  0.80419002446E+02 0. -1.
<mgrwt>
<rscale>  0 0.14377651E+03</rscale>
<asrwt>0</asrwt>
<pdfrwt beam="1">  1        1 0.13212048E+00 0.14377651E+03</pdfrwt>
<pdfrwt beam="2">  1       -1 0.37459716E-02 0.14377651E+03</pdfrwt>
<totfact> 0.54444816E+03</totfact>
</mgrwt>
</event>
<event>
 4    1  0.4999097E-001  0.8329830E+02  0.7546771E-02  0.1319944E+00
         -3   -1    0    0    0  501 -0.00000000000E+00  0.00000000000E+00  0.12904940783E+03  0.12904940783E+03  0.00000000000E+00 0.  1.
          3   -1    0    0  501    0  0.00000000000E+00 -0.00000000000E+00 -0.54747192007E+02  0.54747192007E+02  0.00000000000E+00 0. -1.
         24    1    1    2    0    0  0.13048489445E+02  0.17352945874E+02  0.24854797052E+02  0.86927352992E+02  0.80419002446E+02 0. -1.
        -24    1    1    2    0    0 -0.13048489445E+02 -0.17352945874E+02  0.49447418775E+02  0.96869246849E+02  0.80419002446E+02 0.  1.
<mgrwt>
<rscale>  0 0.83298292E+02</rscale>
<asrwt>0</asrwt>
<pdfrwt beam="1">  1        3 0.84226450E-02 0.83298303E+02</pdfrwt>
<pdfrwt beam="2">  1       -3 0.19853755E-01 0.83298303E+02</pdfrwt>
<totfact> 0.45725157E+03</totfact>
</mgrwt>
</event>
<event>
 4    1  0.4999097E-001  0.1077637E+03  0.7546771E-02  0.1264768E+00
          1   -1    0    0  501    0  0.00000000000E+00  0.00000000000E+00  0.16461943206E+03  0.16461943206E+03  0.00000000000E+00 0. -1.
         -1   -1    0    0    0  501 -0.00000000000E+00 -0.00000000000E+00 -0.95197343205E+02  0.95197343205E+02  0.00000000000E+00 0.  1.
         24    1    1    2    0    0 -0.39963890394E+01  0.71622804832E+02 -0.31397460686E+02  0.11224443768E+03  0.80419002446E+02 0.  1.
        -24    1    1    2    0    0  0.39963890394E+01 -0.71622804832E+02  0.10081954954E+03  0.14757233759E+03  0.80419002446E+02 0. -1.
<mgrwt>
<rscale>  0 0.10776369E+03</rscale>
<asrwt>0</asrwt>
<pdfrwt beam="1">  1        1 0.25326067E-01 0.10776369E+03</pdfrwt>
<pdfrwt beam="2">  1       -1 0.14645745E-01 0.10776369E+03</pdfrwt>
<totfact> 0.58867937E+03</totfact>
</mgrwt>
</event>
<event>
 4    1  0.4999097E-001  0.8743865E+02  0.7546771E-02  0.1309176E+00
         -2   -1    0    0    0  501 -0.00000000000E+00  0.00000000000E+00  0.20976553842E+02  0.20976553842E+02  0.00000000000E+00 0.  1.
          2   -1    0    0  501    0  0.00000000000E+00 -0.00000000000E+00 -0.82718025118E+03  0.82718025118E+03  0.00000000000E+00 0. -1.
         24    1    1    2    0    0  0.33920950148E+02  0.52603748582E+01 -0.72027491584E+03  0.72556286616E+03  0.80419002446E+02 0. -1.
        -24    1    1    2    0    0 -0.33920950148E+02 -0.52603748582E+01 -0.85928781497E+02  0.12259393887E+03  0.80419002446E+02 0.  1.
<mgrwt>
<rscale>  0 0.87438655E+02</rscale>
<asrwt>0</asrwt>
<pdfrwt beam="1">  1        2 0.12725850E+00 0.87438655E+02</pdfrwt>
<pdfrwt beam="2">  1       -2 0.32271620E-02 0.87438655E+02</pdfrwt>
<totfact> 0.11969318E+04</totfact>
</mgrwt>
</event>
<event>
 4    1  0.4999097E-001  0.8502242E+02  0.7546771E-02  0.1315374E+00
         -1   -1    0    0    0  501 -0.00000000000E+00  0.00000000000E+00  0.14296671717E+03  0.14296671717E+03  0.00000000000E+00 0.  1.
          1   -1    0    0  501    0  0.00000000000E+00 -0.00000000000E+00 -0.69794560115E+02  0.69794560115E+02  0.00000000000E+00 0. -1.
         24    1    1    2    0    0 -0.48368817140E+01 -0.27169840708E+02  0.92427981460E+02  0.12558560180E+03  0.80419002446E+02 0.  1.
        -24    1    1    2    0    0  0.48368817140E+01  0.27169840708E+02 -0.19255824401E+02  0.87175675487E+02  0.80419002446E+02 0. -1.
<mgrwt>
<rscale>  0 0.85022418E+02</rscale>
<asrwt>0</asrwt>
<pdfrwt beam="1">  1        1 0.10737625E-01 0.85022418E+02</pdfrwt>
<pdfrwt beam="2">  1       -1 0.21994880E-01 0.85022418E+02</pdfrwt>
<totfact> 0.90661649E+03</totfact>
</mgrwt>
</event>
<event>
 4    1  0.4999097E-001  0.8102938E+02  0.7546771E-02  0.1326155E+00
         -2   -1    0    0    0  501 -0.00000000000E+00  0.00000000000E+00  0.17337490170E+02  0.17337490170E+02  0.00000000000E+00 0.  1.
          2   -1    0    0  501    0  0.00000000000E+00 -0.00000000000E+00 -0.63332447739E+03  0.63332447739E+03  0.00000000000E+00 0. -1.
         24    1    1    2    0    0 -0.17489880971E+01  0.97715069215E+01 -0.10171216559E+03  0.13004276946E+03  0.80419002446E+02 0.  0.
        -24    1    1    2    0    0  0.17489880971E+01 -0.97715069215E+01 -0.51427482164E+03  0.52061919810E+03  0.80419002446E+02 0. -1.
<mgrwt>
<rscale>  0 0.81029371E+02</rscale>
<asrwt>0</asrwt>
<pdfrwt beam="1">  1        2 0.97434542E-01 0.81029381E+02</pdfrwt>
<pdfrwt beam="2">  1       -2 0.26673060E-02 0.81029381E+02</pdfrwt>
<totfact> 0.21459169E+04</totfact>
</mgrwt>
</event>
<event>
 4    1  0.4999097E-001  0.8172181E+02  0.7546771E-02  0.1324235E+00
          2   -1    0    0  501    0  0.00000000000E+00  0.00000000000E+00  0.33667720240E+03  0.33667720240E+03  0.00000000000E+00 0. -1.
         -2   -1    0    0    0  501 -0.00000000000E+00 -0.00000000000E+00 -0.11166732997E+03  0.11166732997E+03  0.00000000000E+00 0.  1.
         24    1    1    2    0    0  0.47863004206E+01 -0.13723319769E+02  0.31579369971E+03  0.32619643607E+03  0.80419002446E+02 0.  0.
        -24    1    1    2    0    0 -0.47863004206E+01  0.13723319769E+02 -0.90783827281E+02  0.12214809629E+03  0.80419002446E+02 0.  1.
<mgrwt>
<rscale>  0 0.81721809E+02</rscale>
<asrwt>0</asrwt>
<pdfrwt beam="1">  1        2 0.51796492E-01 0.81721809E+02</pdfrwt>
<pdfrwt beam="2">  1       -2 0.17179589E-01 0.81721809E+02</pdfrwt>
<totfact> 0.24984164E+03</totfact>
</mgrwt>
</event>
<event>
 4    1  0.4999097E-001  0.8881942E+02  0.7546771E-02  0.1305736E+00
         -2   -1    0    0    0  501 -0.00000000000E+00  0.00000000000E+00  0.10238017020E+02  0.10238017020E+02  0.00000000000E+00 0.  1.
          2   -1    0    0  501    0  0.00000000000E+00 -0.00000000000E+00 -0.11127733710E+04  0.11127733710E+04  0.00000000000E+00 0. -1.
         24    1    1    2    0    0  0.56584564184E+01  0.37278073235E+02 -0.86265904979E+03  0.86721942149E+03  0.80419002446E+02 0. -1.
        -24    1    1    2    0    0 -0.56584564184E+01 -0.37278073235E+02 -0.23987630414E+03  0.25579196648E+03  0.80419002446E+02 0.  1.
<mgrwt>
<rscale>  0 0.88819417E+02</rscale>
<asrwt>0</asrwt>
<pdfrwt beam="1">  1        2 0.17119590E+00 0.88819417E+02</pdfrwt>
<pdfrwt beam="2">  1       -2 0.15750796E-02 0.88819417E+02</pdfrwt>
<totfact> 0.22738376E+04</totfact>
</mgrwt>
</event>
<event>
 4    1  0.4999097E-001  0.1002021E+03  0.7546771E-02  0.1279871E+00
         -2   -1    0    0    0  501 -0.00000000000E+00  0.00000000000E+00  0.32059307847E+02  0.32059307847E+02  0.00000000000E+00 0.  1.
          2   -1    0    0  501    0  0.00000000000E+00 -0.00000000000E+00 -0.47736314635E+03  0.47736314635E+03  0.00000000000E+00 0. -1.
         24    1    1    2    0    0 -0.23557994079E+02 -0.54938784039E+02 -0.37202850446E+03  0.38528648193E+03  0.80419002446E+02 0. -1.
        -24    1    1    2    0    0  0.23557994079E+02  0.54938784039E+02 -0.73275334049E+02  0.12413597227E+03  0.80419002446E+02 0.  1.
<mgrwt>
<rscale>  0 0.10020212E+03</rscale>
<asrwt>0</asrwt>
<pdfrwt beam="1">  1        2 0.73440477E-01 0.10020212E+03</pdfrwt>
<pdfrwt beam="2">  1       -2 0.49322017E-02 0.10020212E+03</pdfrwt>
<totfact> 0.12136605E+04</totfact>
</mgrwt>
</event>
<event>
 4    1  0.4999097E-001  0.8608229E+02  0.7546771E-02  0.1312626E+00
         -2   -1    0    0    0  501 -0.00000000000E+00  0.00000000000E+00  0.17207504588E+03  0.17207504588E+03  0.00000000000E+00 0.  1.
          2   -1    0    0  501    0  0.00000000000E+00 -0.00000000000E+00 -0.44938673352E+02  0.44938673352E+02  0.00000000000E+00 0. -1.
         24    1    1    2    0    0  0.16021157755E+02 -0.26196685856E+02  0.41403392099E+02  0.95521728823E+02  0.80419002446E+02 0. -1.
        -24    1    1    2    0    0 -0.16021157755E+02  0.26196685856E+02  0.85732980425E+02  0.12149199040E+03  0.80419002446E+02 0.  1.
<mgrwt>
<rscale>  0 0.86082285E+02</rscale>
<asrwt>0</asrwt>
<pdfrwt beam="1">  1        2 0.69136422E-02 0.86082285E+02</pdfrwt>
<pdfrwt beam="2">  1       -2 0.26473084E-01 0.86082285E+02</pdfrwt>
<totfact> 0.11751308E+04</totfact>
</mgrwt>
</event>
<event>
 4    1  0.4999097E-001  0.8226842E+02  0.7546771E-02  0.1322735E+00
         -2   -1    0    0    0  501 -0.00000000000E+00  0.00000000000E+00  0.18213464382E+03  0.18213464382E+03  0.00000000000E+00 0.  1.
          2   -1    0    0  501    0  0.00000000000E+00 -0.00000000000E+00 -0.97887589741E+03  0.97887589741E+03  0.00000000000E+00 0. -1.
         24    1    1    2    0    0  0.13773077052E+02 -0.10544156267E+02 -0.96775079879E+03  0.97124131985E+03  0.80419002446E+02 0. -1.
        -24    1    1    2    0    0 -0.13773077052E+02  0.10544156267E+02  0.17100954519E+03  0.18976922138E+03  0.80419002446E+02 0.  1.
<mgrwt>
<rscale>  0 0.82268419E+02</rscale>
<asrwt>0</asrwt>
<pdfrwt beam="1">  1        2 0.15059629E+00 0.82268419E+02</pdfrwt>
<pdfrwt beam="2">  1       -2 0.28020714E-01 0.82268419E+02</pdfrwt>
<totfact> 0.32655193E+02</totfact>
</mgrwt>
</event>
<event>
 4    1  0.4999097E-001  0.1089538E+03  0.7546771E-02  0.1262520E+00
         -1   -1    0    0    0  501 -0.00000000000E+00  0.00000000000E+00  0.77869519172E+03  0.77869519172E+03  0.00000000000E+00 0.  1.
          1   -1    0    0  501    0  0.00000000000E+00 -0.00000000000E+00 -0.10557634708E+03  0.10557634708E+03  0.00000000000E+00 0. -1.
         24    1    1    2    0    0 -0.17521416594E+02  0.71391268183E+02  0.74553035357E+03  0.75344969127E+03  0.80419002446E+02 0.  1.
        -24    1    1    2    0    0  0.17521416594E+02 -0.71391268183E+02 -0.72411508935E+02  0.13082184754E+03  0.80419002446E+02 0. -1.
<mgrwt>
<rscale>  0 0.10895379E+03</rscale>
<asrwt>0</asrwt>
<pdfrwt beam="1">  1        1 0.16242515E-01 0.10895379E+03</pdfrwt>
<pdfrwt beam="2">  1       -1 0.11979926E+00 0.10895379E+03</pdfrwt>
<totfact> 0.22671407E+02</totfact>
</mgrwt>
</event>
<event>
 4    1  0.4999097E-001  0.8536262E+02  0.7546771E-02  0.1314487E+00
          1   -1    0    0  501    0  0.00000000000E+00  0.00000000000E+00  0.10021030719E+04  0.10021030719E+04  0.00000000000E+00 0. -1.
         -1   -1    0    0    0  501 -0.00000000000E+00 -0.00000000000E+00 -0.45428866775E+02  0.45428866775E+02  0.00000000000E+00 0.  1.
         24    1    1    2    0    0 -0.16400018087E+02 -0.23464871798E+02 -0.16843131679E+01  0.85379234401E+02  0.80419002446E+02 0.  1.
        -24    1    1    2    0    0  0.16400018087E+02  0.23464871798E+02  0.95835851831E+03  0.96215270429E+03  0.80419002446E+02 0. -1.
<mgrwt>
<rscale>  0 0.85362619E+02</rscale>
<asrwt>0</asrwt>
<pdfrwt beam="1">  1        1 0.15416969E+00 0.85362619E+02</pdfrwt>
<pdfrwt beam="2">  1       -1 0.69890572E-02 0.85362619E+02</pdfrwt>
<totfact> 0.16679914E+03</totfact>
</mgrwt>
</event>
<event>
 4    1  0.4999097E-001  0.8260860E+02  0.7546771E-02  0.1321807E+00
          4   -1    0    0  501    0  0.00000000000E+00  0.00000000000E+00  0.10680812460E+02  0.10680812460E+02  0.00000000000E+00 0. -1.
         -4   -1    0    0    0  501 -0.00000000000E+00 -0.00000000000E+00 -0.65537810046E+03  0.65537810046E+03  0.00000000000E+00 0.  1.
         24    1    1    2    0    0  0.16510740159E+02 -0.91847771306E+01 -0.26957323965E+03  0.28194664772E+03  0.80419002446E+02 0.  1.
        -24    1    1    2    0    0 -0.16510740159E+02  0.91847771306E+01 -0.37512404835E+03  0.38411226520E+03  0.80419002446E+02 0.  1.
<mgrwt>
<rscale>  0 0.82608599E+02</rscale>
<asrwt>0</asrwt>
<pdfrwt beam="1">  1        4 0.16432016E-02 0.82608599E+02</pdfrwt>
<pdfrwt beam="2">  1       -4 0.10082742E+00 0.82608599E+02</pdfrwt>
<totfact> 0.16889309E+03</totfact>
</mgrwt>
</event>
<event>
 4    1  0.4999097E-001  0.9855241E+02  0.7546771E-02  0.1283370E+00
         -2   -1    0    0    0  501 -0.00000000000E+00  0.00000000000E+00  0.40603063621E+01  0.40603063621E+01  0.00000000000E+00 0.  1.
          2   -1    0    0  501    0  0.00000000000E+00 -0.00000000000E+00 -0.24685960032E+04  0.24685960032E+04  0.00000000000E+00 0. -1.
         24    1    1    2    0    0 -0.23049394386E+02 -0.52096843964E+02 -0.10146026236E+04  0.10193777786E+04  0.80419002446E+02 0.  0.
        -24    1    1    2    0    0  0.23049394386E+02  0.52096843964E+02 -0.14499330733E+04  0.14532785310E+04  0.80419002446E+02 0.  1.
<mgrwt>
<rscale>  0 0.98552393E+02</rscale>
<asrwt>0</asrwt>
<pdfrwt beam="1">  1        2 0.37978424E+00 0.98552405E+02</pdfrwt>
<pdfrwt beam="2">  1       -2 0.62466213E-03 0.98552405E+02</pdfrwt>
<totfact> 0.17030299E+04</totfact>
</mgrwt>
</event>
<event>
 4    1  0.4999097E-001  0.8098817E+02  0.7546771E-02  0.1326270E+00
          2   -1    0    0  501    0  0.00000000000E+00  0.00000000000E+00  0.59341795165E+03  0.59341795165E+03  0.00000000000E+00 0. -1.
         -2   -1    0    0    0  501 -0.00000000000E+00 -0.00000000000E+00 -0.11116742174E+02  0.11116742174E+02  0.00000000000E+00 0.  1.
         24    1    1    2    0    0  0.83400547421E+01 -0.47234049350E+01  0.31402861875E+03  0.32430395683E+03  0.80419002446E+02 0.  0.
        -24    1    1    2    0    0 -0.83400547421E+01  0.47234049350E+01  0.26827259073E+03  0.28023073699E+03  0.80419002446E+02 0.  0.
<mgrwt>
<rscale>  0 0.80988166E+02</rscale>
<asrwt>0</asrwt>
<pdfrwt beam="1">  1        2 0.91295045E-01 0.80988166E+02</pdfrwt>
<pdfrwt beam="2">  1       -2 0.17102685E-02 0.80988166E+02</pdfrwt>
<totfact> 0.43658748E+04</totfact>
</mgrwt>
</event>
<event>
 4    1  0.4999097E-001  0.8595419E+02  0.7546771E-02  0.1312956E+00
          3   -1    0    0  501    0  0.00000000000E+00  0.00000000000E+00  0.30692665512E+02  0.30692665512E+02  0.00000000000E+00 0. -1.
         -3   -1    0    0    0  501 -0.00000000000E+00 -0.00000000000E+00 -0.31085034452E+03  0.31085034452E+03  0.00000000000E+00 0.  1.
         24    1    1    2    0    0  0.10178271509E+02  0.28588627988E+02 -0.22119632266E+03  0.23730978904E+03  0.80419002446E+02 0.  1.
        -24    1    1    2    0    0 -0.10178271509E+02 -0.28588627988E+02 -0.58961356338E+02  0.10423322098E+03  0.80419002446E+02 0. -1.
<mgrwt>
<rscale>  0 0.85954190E+02</rscale>
<asrwt>0</asrwt>
<pdfrwt beam="1">  1        3 0.47219484E-02 0.85954190E+02</pdfrwt>
<pdfrwt beam="2">  1       -3 0.47823131E-01 0.85954190E+02</pdfrwt>
<totfact> 0.22856073E+03</totfact>
</mgrwt>
</event>
<event>
 4    1  0.4999097E-001  0.8217237E+02  0.7546771E-02  0.1322997E+00
         -1   -1    0    0    0  501 -0.00000000000E+00  0.00000000000E+00  0.78193824995E+03  0.78193824995E+03  0.00000000000E+00 0.  1.
          1   -1    0    0  501    0  0.00000000000E+00 -0.00000000000E+00 -0.86612165882E+01  0.86612165882E+01  0.00000000000E+00 0. -1.
         24    1    1    2    0    0  0.45146953639E+01 -0.16269497252E+02  0.36502761134E+03  0.37416233377E+03  0.80419002446E+02 0.  1.
        -24    1    1    2    0    0 -0.45146953639E+01  0.16269497252E+02  0.40824942202E+03  0.41643713277E+03  0.80419002446E+02 0.  0.
<mgrwt>
<rscale>  0 0.82172359E+02</rscale>
<asrwt>0</asrwt>
<pdfrwt beam="1">  1        1 0.13324955E-02 0.82172370E+02</pdfrwt>
<pdfrwt beam="2">  1       -1 0.12029814E+00 0.82172370E+02</pdfrwt>
<totfact> 0.64275495E+03</totfact>
</mgrwt>
</event>
<event>
 4    1  0.4999097E-001  0.8759516E+02  0.7546771E-02  0.1308782E+00
         -1   -1    0    0    0  501 -0.00000000000E+00  0.00000000000E+00  0.12383906889E+02  0.12383906889E+02  0.00000000000E+00 0.  1.
          1   -1    0    0  501    0  0.00000000000E+00 -0.00000000000E+00 -0.65141374945E+03  0.65141374945E+03  0.00000000000E+00 0. -1.
         24    1    1    2    0    0  0.62315581355E+01 -0.34159398896E+02 -0.24615301653E+03  0.26127422443E+03  0.80419002446E+02 0.  1.
        -24    1    1    2    0    0 -0.62315581355E+01  0.34159398896E+02 -0.39287682603E+03  0.40252343190E+03  0.80419002446E+02 0. -1.
<mgrwt>
<rscale>  0 0.87595164E+02</rscale>
<asrwt>0</asrwt>
<pdfrwt beam="1">  1        1 0.10021753E+00 0.87595164E+02</pdfrwt>
<pdfrwt beam="2">  1       -1 0.19052159E-02 0.87595164E+02</pdfrwt>
<totfact> 0.20889083E+04</totfact>
</mgrwt>
</event>
<event>
 4    1  0.4999097E-001  0.9089817E+02  0.7546771E-02  0.1300691E+00
          3   -1    0    0  501    0  0.00000000000E+00  0.00000000000E+00  0.41946002477E+02  0.41946002477E+02  0.00000000000E+00 0. -1.
         -3   -1    0    0    0  501 -0.00000000000E+00 -0.00000000000E+00 -0.23839404453E+03  0.23839404453E+03  0.00000000000E+00 0.  1.
         24    1    1    2    0    0 -0.20082382601E+01  0.42322905625E+02 -0.15664745094E+03  0.18111019077E+03  0.80419002446E+02 0.  1.
        -24    1    1    2    0    0  0.20082382601E+01 -0.42322905625E+02 -0.39800591118E+02  0.99229856239E+02  0.80419002446E+02 0. -1.
<mgrwt>
<rscale>  0 0.90898170E+02</rscale>
<asrwt>0</asrwt>
<pdfrwt beam="1">  1        3 0.64532312E-02 0.90898170E+02</pdfrwt>
<pdfrwt beam="2">  1       -3 0.36676007E-01 0.90898170E+02</pdfrwt>
<totfact> 0.23550742E+03</totfact>
</mgrwt>
</event>
<event>
 4    1  0.4999097E-001  0.9094773E+02  0.7546771E-02  0.1300573E+00
          2   -1    0    0  501    0  0.00000000000E+00  0.00000000000E+00  0.13671001779E+04  0.13671001779E+04  0.00000000000E+00 0. -1.
         -2   -1    0    0    0  501 -0.00000000000E+00 -0.00000000000E+00 -0.22770997452E+02  0.22770997452E+02  0.00000000000E+00 0.  1.
         24    1    1    2    0    0 -0.41268538762E+02 -0.10058889022E+02  0.12676615496E+04  0.12709198613E+04  0.80419002446E+02 0. -1.
        -24    1    1    2    0    0  0.41268538762E+02  0.10058889022E+02  0.76667630823E+02  0.11895131403E+03  0.80419002446E+02 0.  1.
<mgrwt>
<rscale>  0 0.90947729E+02</rscale>
<asrwt>0</asrwt>
<pdfrwt beam="1">  1        2 0.21032304E+00 0.90947729E+02</pdfrwt>
<pdfrwt beam="2">  1       -2 0.35032315E-02 0.90947729E+02</pdfrwt>
<totfact> 0.52438158E+03</totfact>
</mgrwt>
</event>
<event>
 4    1  0.4999097E-001  0.1002394E+03  0.7546771E-02  0.1279793E+00
          3   -1    0    0  501    0  0.00000000000E+00  0.00000000000E+00  0.47504644326E+02  0.47504644326E+02  0.00000000000E+00 0. -1.
         -3   -1    0    0    0  501 -0.00000000000E+00 -0.00000000000E+00 -0.31245627151E+03  0.31245627151E+03  0.00000000000E+00 0.  1.
         24    1    1    2    0    0 -0.45644616120E+02 -0.38694768586E+02 -0.23477347233E+03  0.25527733030E+03  0.80419002446E+02 0.  1.
        -24    1    1    2    0    0  0.45644616120E+02  0.38694768586E+02 -0.30178154846E+02  0.10468358554E+03  0.80419002446E+02 0. -1.
<mgrwt>
<rscale>  0 0.10023937E+03</rscale>
<asrwt>0</asrwt>
<pdfrwt beam="1">  1        3 0.73084070E-02 0.10023937E+03</pdfrwt>
<pdfrwt beam="2">  1       -3 0.48070195E-01 0.10023937E+03</pdfrwt>
<totfact> 0.11682764E+03</totfact>
</mgrwt>
</event>
<event>
 4    1  0.4999097E-001  0.1000267E+03  0.7546771E-02  0.1280240E+00
          2   -1    0    0  501    0  0.00000000000E+00  0.00000000000E+00  0.28462042546E+03  0.28462042546E+03  0.00000000000E+00 0. -1.
         -2   -1    0    0    0  501 -0.00000000000E+00 -0.00000000000E+00 -0.51290972491E+02  0.51290972491E+02  0.00000000000E+00 0.  1.
         24    1    1    2    0    0  0.57195677906E+02 -0.16333318683E+02  0.21087431842E+03  0.23339519488E+03  0.80419002446E+02 0. -1.
        -24    1    1    2    0    0 -0.57195677906E+02  0.16333318683E+02  0.22455134551E+02  0.10251620307E+03  0.80419002446E+02 0.  1.
<mgrwt>
<rscale>  0 0.10002669E+03</rscale>
<asrwt>0</asrwt>
<pdfrwt beam="1">  1        2 0.43787757E-01 0.10002669E+03</pdfrwt>
<pdfrwt beam="2">  1       -2 0.78909191E-02 0.10002669E+03</pdfrwt>
<totfact> 0.10312099E+04</totfact>
</mgrwt>
</event>
<event>
 4    1  0.4999097E-001  0.9420535E+02  0.7546771E-02  0.1292976E+00
          3   -1    0    0  501    0  0.00000000000E+00  0.00000000000E+00  0.25648801787E+03  0.25648801787E+03  0.00000000000E+00 0. -1.
         -3   -1    0    0    0  501 -0.00000000000E+00 -0.00000000000E+00 -0.36767742729E+02  0.36767742729E+02  0.00000000000E+00 0.  1.
         24    1    1    2    0    0  0.48852307248E+02 -0.45699401531E+01  0.74262322289E+02  0.11995641184E+03  0.80419002446E+02 0.  1.
        -24    1    1    2    0    0 -0.48852307248E+02  0.45699401531E+01  0.14545795285E+03  0.17329934876E+03  0.80419002446E+02 0. -1.
<mgrwt>
<rscale>  0 0.94205351E+02</rscale>
<asrwt>0</asrwt>
<pdfrwt beam="1">  1        3 0.39459694E-01 0.94205351E+02</pdfrwt>
<pdfrwt beam="2">  1       -3 0.56565760E-02 0.94205351E+02</pdfrwt>
<totfact> 0.25451129E+03</totfact>
</mgrwt>
</event>
<event>
 4    1  0.4999097E-001  0.8092191E+02  0.7546771E-02  0.1326455E+00
         -2   -1    0    0    0  501 -0.00000000000E+00  0.00000000000E+00  0.98190441418E+02  0.98190441418E+02  0.00000000000E+00 0.  1.
          2   -1    0    0  501    0  0.00000000000E+00 -0.00000000000E+00 -0.19522648159E+04  0.19522648159E+04  0.00000000000E+00 0. -1.
         24    1    1    2    0    0 -0.84044780478E+01 -0.32410976574E+01 -0.19346015094E+04  0.19362931999E+04  0.80419002446E+02 0. -1.
        -24    1    1    2    0    0  0.84044780478E+01  0.32410976574E+01  0.80527134840E+02  0.11416205747E+03  0.80419002446E+02 0.  1.
<mgrwt>
<rscale>  0 0.80921912E+02</rscale>
<asrwt>0</asrwt>
<pdfrwt beam="1">  1        2 0.30034845E+00 0.80921912E+02</pdfrwt>
<pdfrwt beam="2">  1       -2 0.15106221E-01 0.80921912E+02</pdfrwt>
<totfact> 0.28691182E+02</totfact>
</mgrwt>
</event>
<event>
 4    1  0.4999097E-001  0.8312421E+02  0.7546771E-02  0.1320412E+00
         -1   -1    0    0    0  501 -0.00000000000E+00  0.00000000000E+00  0.10747419716E+02  0.10747419716E+02  0.00000000000E+00 0.  1.
          1   -1    0    0  501    0  0.00000000000E+00 -0.00000000000E+00 -0.10061420000E+04  0.10061420000E+04  0.00000000000E+00 0. -1.
         24    1    1    2    0    0 -0.20402917942E+02  0.51125857824E+01 -0.19220124526E+03  0.20940618956E+03  0.80419002446E+02 0.  1.
        -24    1    1    2    0    0  0.20402917942E+02 -0.51125857824E+01 -0.80319333499E+03  0.80748323011E+03  0.80419002446E+02 0. -1.
<mgrwt>
<rscale>  0 0.83124206E+02</rscale>
<asrwt>0</asrwt>
<pdfrwt beam="1">  1        1 0.15479109E+00 0.83124206E+02</pdfrwt>
<pdfrwt beam="2">  1       -1 0.16534490E-02 0.83124206E+02</pdfrwt>
<totfact> 0.13274111E+04</totfact>
</mgrwt>
</event>
<event>
 4    1  0.4999097E-001  0.9652485E+02  0.7546771E-02  0.1287778E+00
          2   -1    0    0  501    0  0.00000000000E+00  0.00000000000E+00  0.27317264672E+04  0.27317264672E+04  0.00000000000E+00 0. -1.
         -2   -1    0    0    0  501 -0.00000000000E+00 -0.00000000000E+00 -0.94394148089E+01  0.94394148089E+01  0.00000000000E+00 0.  1.
         24    1    1    2    0    0  0.47856602497E+02  0.23655376842E+02  0.24564757016E+04  0.24583713959E+04  0.80419002446E+02 0. -1.
        -24    1    1    2    0    0 -0.47856602497E+02 -0.23655376842E+02  0.26581135074E+03  0.28279448614E+03  0.80419002446E+02 0.  1.
<mgrwt>
<rscale>  0 0.96524853E+02</rscale>
<asrwt>0</asrwt>
<pdfrwt beam="1">  1        2 0.42026498E+00 0.96524853E+02</pdfrwt>
<pdfrwt beam="2">  1       -2 0.14522198E-02 0.96524853E+02</pdfrwt>
<totfact> 0.37256584E+03</totfact>
</mgrwt>
</event>
<event>
 4    1  0.4999097E-001  0.9025627E+02  0.7546771E-02  0.1302232E+00
         -2   -1    0    0    0  501 -0.00000000000E+00  0.00000000000E+00  0.10514775733E+02  0.10514775733E+02  0.00000000000E+00 0.  1.
          2   -1    0    0  501    0  0.00000000000E+00 -0.00000000000E+00 -0.27155636628E+04  0.27155636628E+04  0.00000000000E+00 0. -1.
         24    1    1    2    0    0 -0.30398850882E+02  0.27475229066E+02 -0.25048405767E+04  0.25064661396E+04  0.80419002446E+02 0. -1.
        -24    1    1    2    0    0  0.30398850882E+02 -0.27475229066E+02 -0.20020831039E+03  0.21961229895E+03  0.80419002446E+02 0.  1.
<mgrwt>
<rscale>  0 0.90256270E+02</rscale>
<asrwt>0</asrwt>
<pdfrwt beam="1">  1        2 0.41777960E+00 0.90256270E+02</pdfrwt>
<pdfrwt beam="2">  1       -2 0.16176556E-02 0.90256270E+02</pdfrwt>
<totfact> 0.32593892E+03</totfact>
</mgrwt>
</event>
<event>
 4    1  0.4999097E-001  0.1039469E+03  0.7546771E-02  0.1272209E+00
          2   -1    0    0  501    0  0.00000000000E+00  0.00000000000E+00  0.32239627322E+03  0.32239627322E+03  0.00000000000E+00 0. -1.
         -2   -1    0    0    0  501 -0.00000000000E+00 -0.00000000000E+00 -0.35601801222E+02  0.35601801222E+02  0.00000000000E+00 0.  1.
         24    1    1    2    0    0  0.64131594322E+02 -0.14995788742E+02  0.18673903263E+03  0.21372041861E+03  0.80419002446E+02 0. -1.
        -24    1    1    2    0    0 -0.64131594322E+02  0.14995788742E+02  0.10005543937E+03  0.14427765583E+03  0.80419002446E+02 0.  1.
<mgrwt>
<rscale>  0 0.10394687E+03</rscale>
<asrwt>0</asrwt>
<pdfrwt beam="1">  1        2 0.49599425E-01 0.10394687E+03</pdfrwt>
<pdfrwt beam="2">  1       -2 0.54772004E-02 0.10394687E+03</pdfrwt>
<totfact> 0.15778767E+04</totfact>
</mgrwt>
</event>
<event>
 4    1  0.4999097E-001  0.8048869E+02  0.7546771E-02  0.1327670E+00
          2   -1    0    0  501    0  0.00000000000E+00  0.00000000000E+00  0.12665107399E+04  0.12665107399E+04  0.00000000000E+00 0. -1.
         -2   -1    0    0    0  501 -0.00000000000E+00 -0.00000000000E+00 -0.62514144837E+01  0.62514144837E+01  0.00000000000E+00 0.  1.
         24    1    1    2    0    0  0.32413428045E+01 -0.84056581748E+00  0.90143749668E+03  0.90502375064E+03  0.80419002446E+02 0. -1.
        -24    1    1    2    0    0 -0.32413428045E+01  0.84056581748E+00  0.35882182878E+03  0.36773840379E+03  0.80419002446E+02 0.  0.
<mgrwt>
<rscale>  0 0.80488687E+02</rscale>
<asrwt>0</asrwt>
<pdfrwt beam="1">  1        2 0.19484760E+00 0.80488687E+02</pdfrwt>
<pdfrwt beam="2">  1       -2 0.96175708E-03 0.80488687E+02</pdfrwt>
<totfact> 0.37418262E+04</totfact>
</mgrwt>
</event>
<event>
 4    1  0.4999097E-001  0.1022218E+03  0.7546771E-02  0.1275692E+00
          1   -1    0    0  501    0  0.00000000000E+00  0.00000000000E+00  0.18560947957E+04  0.18560947957E+04  0.00000000000E+00 0. -1.
         -1   -1    0    0    0  501 -0.00000000000E+00 -0.00000000000E+00 -0.97197978508E+01  0.97197978508E+01  0.00000000000E+00 0.  1.
         24    1    1    2    0    0 -0.51529777077E+02 -0.36424728196E+02  0.31801993771E+03  0.33404487047E+03  0.80419002446E+02 0.  1.
        -24    1    1    2    0    0  0.51529777077E+02  0.36424728196E+02  0.15283550602E+04  0.15317697231E+04  0.80419002446E+02 0. -1.
<mgrwt>
<rscale>  0 0.10222179E+03</rscale>
<asrwt>0</asrwt>
<pdfrwt beam="1">  1        1 0.28555276E+00 0.10222179E+03</pdfrwt>
<pdfrwt beam="2">  1       -1 0.14953550E-02 0.10222179E+03</pdfrwt>
<totfact> 0.43116035E+03</totfact>
</mgrwt>
</event>
<event>
 4    1  0.4999097E-001  0.8424397E+02  0.7546771E-02  0.1317422E+00
          1   -1    0    0  501    0  0.00000000000E+00  0.00000000000E+00  0.35819165084E+02  0.35819165084E+02  0.00000000000E+00 0. -1.
         -1   -1    0    0    0  501 -0.00000000000E+00 -0.00000000000E+00 -0.35638947769E+03  0.35638947769E+03  0.00000000000E+00 0.  1.
         24    1    1    2    0    0 -0.17902849066E+02 -0.17587452198E+02 -0.29096304580E+03  0.30291342072E+03  0.80419002446E+02 0.  0.
        -24    1    1    2    0    0  0.17902849066E+02  0.17587452198E+02 -0.29607266812E+02  0.89295222055E+02  0.80419002446E+02 0. -1.
<mgrwt>
<rscale>  0 0.84243970E+02</rscale>
<asrwt>0</asrwt>
<pdfrwt beam="1">  1        1 0.55106408E-02 0.84243970E+02</pdfrwt>
<pdfrwt beam="2">  1       -1 0.54829150E-01 0.84243970E+02</pdfrwt>
<totfact> 0.46304000E+03</totfact>
</mgrwt>
</event>
<event>
 4    1  0.4999097E-001  0.8621593E+02  0.7546771E-02  0.1312283E+00
         -1   -1    0    0    0  501 -0.00000000000E+00  0.00000000000E+00  0.22444067091E+03  0.22444067091E+03  0.00000000000E+00 0.  1.
          1   -1    0    0  501    0  0.00000000000E+00 -0.00000000000E+00 -0.82095671102E+02  0.82095671102E+02  0.00000000000E+00 0. -1.
         24    1    1    2    0    0  0.25011516963E+02 -0.18449792369E+02  0.18955506288E+03  0.20824098693E+03  0.80419002446E+02 0.  1.
        -24    1    1    2    0    0 -0.25011516963E+02  0.18449792369E+02 -0.47210063080E+02  0.98295355077E+02  0.80419002446E+02 0. -1.
<mgrwt>
<rscale>  0 0.86215931E+02</rscale>
<asrwt>0</asrwt>
<pdfrwt beam="1">  1        1 0.12630103E-01 0.86215931E+02</pdfrwt>
<pdfrwt beam="2">  1       -1 0.34529334E-01 0.86215931E+02</pdfrwt>
<totfact> 0.35055182E+03</totfact>
</mgrwt>
</event>
<event>
 4    1  0.4999097E-001  0.9795118E+02  0.7546771E-02  0.1284664E+00
         -2   -1    0    0    0  501 -0.00000000000E+00  0.00000000000E+00  0.12476041984E+02  0.12476041984E+02  0.00000000000E+00 0.  1.
          2   -1    0    0  501    0  0.00000000000E+00 -0.00000000000E+00 -0.18619891782E+04  0.18619891782E+04  0.00000000000E+00 0. -1.
         24    1    1    2    0    0  0.31719732617E+02  0.46055136745E+02 -0.16428171142E+04  0.16457346395E+04  0.80419002446E+02 0. -1.
        -24    1    1    2    0    0 -0.31719732617E+02 -0.46055136745E+02 -0.20669602200E+03  0.22873058065E+03  0.80419002446E+02 0.  1.
<mgrwt>
<rscale>  0 0.97951177E+02</rscale>
<asrwt>0</asrwt>
<pdfrwt beam="1">  1        2 0.28645993E+00 0.97951177E+02</pdfrwt>
<pdfrwt beam="2">  1       -2 0.19193907E-02 0.97951177E+02</pdfrwt>
<totfact> 0.70451967E+03</totfact>
</mgrwt>
</event>
<event>
 4    1  0.4999097E-001  0.9636352E+02  0.7546771E-02  0.1288134E+00
          1   -1    0    0  501    0  0.00000000000E+00  0.00000000000E+00  0.18922289493E+04  0.18922289493E+04  0.00000000000E+00 0. -1.
         -1   -1    0    0    0  501 -0.00000000000E+00 -0.00000000000E+00 -0.72022300749E+01  0.72022300749E+01  0.00000000000E+00 0.  1.
         24    1    1    2    0    0  0.40263451307E+02 -0.34605864440E+02  0.40642646624E+03  0.41769414621E+03  0.80419002446E+02 0.  1.
        -24    1    1    2    0    0 -0.40263451307E+02  0.34605864440E+02  0.14786002530E+04  0.14817370331E+04  0.80419002446E+02 0. -1.
<mgrwt>
<rscale>  0 0.96363517E+02</rscale>
<asrwt>0</asrwt>
<pdfrwt beam="1">  1        1 0.29111175E+00 0.96363517E+02</pdfrwt>
<pdfrwt beam="2">  1       -1 0.11080369E-02 0.96363517E+02</pdfrwt>
<totfact> 0.62501771E+03</totfact>
</mgrwt>
</event>
<event>
 4    1  0.4999097E-001  0.1056302E+03  0.7546771E-02  0.1268883E+00
          4   -1    0    0  501    0  0.00000000000E+00  0.00000000000E+00  0.52633600692E+03  0.52633600692E+03  0.00000000000E+00 0. -1.
         -4   -1    0    0    0  501 -0.00000000000E+00 -0.00000000000E+00 -0.25169945104E+02  0.25169945104E+02  0.00000000000E+00 0.  1.
         24    1    1    2    0    0  0.21879123584E+02  0.64898642005E+02  0.36011259082E+03  0.37528499011E+03  0.80419002446E+02 0. -1.
        -24    1    1    2    0    0 -0.21879123584E+02 -0.64898642005E+02  0.14105347100E+03  0.17622096192E+03  0.80419002446E+02 0.  1.
<mgrwt>
<rscale>  0 0.10563023E+03</rscale>
<asrwt>0</asrwt>
<pdfrwt beam="1">  1        4 0.80974762E-01 0.10563023E+03</pdfrwt>
<pdfrwt beam="2">  1       -4 0.38722997E-02 0.10563023E+03</pdfrwt>
<totfact> 0.78154874E+02</totfact>
</mgrwt>
</event>
<event>
 4    1  0.4999097E-001  0.9081365E+02  0.7546771E-02  0.1300893E+00
          1   -1    0    0  501    0  0.00000000000E+00  0.00000000000E+00  0.88307913232E+02  0.88307913232E+02  0.00000000000E+00 0. -1.
         -1   -1    0    0    0  501 -0.00000000000E+00 -0.00000000000E+00 -0.26166506849E+03  0.26166506849E+03  0.00000000000E+00 0.  1.
         24    1    1    2    0    0 -0.20554277324E+01 -0.42138805165E+02 -0.22700546684E+03  0.24449662904E+03  0.80419002446E+02 0.  1.
        -24    1    1    2    0    0  0.20554277324E+01  0.42138805165E+02  0.53648311583E+02  0.10547635268E+03  0.80419002446E+02 0. -1.
<mgrwt>
<rscale>  0 0.90813653E+02</rscale>
<asrwt>0</asrwt>
<pdfrwt beam="1">  1        1 0.13585833E-01 0.90813653E+02</pdfrwt>
<pdfrwt beam="2">  1       -1 0.40256165E-01 0.90813653E+02</pdfrwt>
<totfact> 0.24613926E+03</totfact>
</mgrwt>
</event>
<event>
 4    1  0.4999097E-001  0.9343527E+02  0.7546771E-02  0.1294740E+00
          2   -1    0    0  501    0  0.00000000000E+00  0.00000000000E+00  0.61421375294E+03  0.61421375294E+03  0.00000000000E+00 0. -1.
         -2   -1    0    0    0  501 -0.00000000000E+00 -0.00000000000E+00 -0.14349952065E+02  0.14349952065E+02  0.00000000000E+00 0.  1.
         24    1    1    2    0    0  0.17401005771E+02 -0.44273446256E+02  0.33057463993E+03  0.34352545984E+03  0.80419002446E+02 0.  1.
        -24    1    1    2    0    0 -0.17401005771E+02  0.44273446256E+02  0.26928916095E+03  0.28503824516E+03  0.80419002446E+02 0.  0.
<mgrwt>
<rscale>  0 0.93435266E+02</rscale>
<asrwt>0</asrwt>
<pdfrwt beam="1">  1        2 0.94494403E-01 0.93435266E+02</pdfrwt>
<pdfrwt beam="2">  1       -2 0.22076854E-02 0.93435266E+02</pdfrwt>
<totfact> 0.29615074E+04</totfact>
</mgrwt>
</event>
<event>
 4    1  0.4999097E-001  0.1264238E+03  0.7546771E-02  0.1232861E+00
          1   -1    0    0  501    0  0.00000000000E+00  0.00000000000E+00  0.18512679003E+04  0.18512679003E+04  0.00000000000E+00 0. -1.
         -1   -1    0    0    0  501 -0.00000000000E+00 -0.00000000000E+00 -0.18470606281E+02  0.18470606281E+02  0.00000000000E+00 0.  1.
         24    1    1    2    0    0  0.97531826587E+02 -0.18152723168E+01  0.23414883750E+03  0.26609894113E+03  0.80419002446E+02 0.  1.
        -24    1    1    2    0    0 -0.97531826587E+02  0.18152723168E+01  0.15986484565E+04  0.16036395654E+04  0.80419002446E+02 0. -1.
<mgrwt>
<rscale>  0 0.12642377E+03</rscale>
<asrwt>0</asrwt>
<pdfrwt beam="1">  1        1 0.28481030E+00 0.12642377E+03</pdfrwt>
<pdfrwt beam="2">  1       -1 0.28416332E-02 0.12642377E+03</pdfrwt>
<totfact> 0.17303716E+03</totfact>
</mgrwt>
</event>
<event>
 4    1  0.4999097E-001  0.8118140E+02  0.7546771E-02  0.1325732E+00
         -2   -1    0    0    0  501 -0.00000000000E+00  0.00000000000E+00  0.92015448018E+02  0.92015448018E+02  0.00000000000E+00 0.  1.
          2   -1    0    0  501    0  0.00000000000E+00 -0.00000000000E+00 -0.17620066682E+03  0.17620066682E+03  0.00000000000E+00 0. -1.
         24    1    1    2    0    0  0.10757576461E+02  0.27345611706E+01 -0.14540933752E+03  0.16653616625E+03  0.80419002446E+02 0. -1.
        -24    1    1    2    0    0 -0.10757576461E+02 -0.27345611706E+01  0.61224118725E+02  0.10167994858E+03  0.80419002446E+02 0.  0.
<mgrwt>
<rscale>  0 0.81181397E+02</rscale>
<asrwt>0</asrwt>
<pdfrwt beam="1">  1        2 0.27107794E-01 0.81181397E+02</pdfrwt>
<pdfrwt beam="2">  1       -2 0.14156223E-01 0.81181397E+02</pdfrwt>
<totfact> 0.67514638E+03</totfact>
</mgrwt>
</event>
<event>
 4    1  0.4999097E-001  0.9339324E+02  0.7546771E-02  0.1294836E+00
          2   -1    0    0  501    0  0.00000000000E+00  0.00000000000E+00  0.45279220721E+03  0.45279220721E+03  0.00000000000E+00 0. -1.
         -2   -1    0    0    0  501 -0.00000000000E+00 -0.00000000000E+00 -0.49499719425E+02  0.49499719425E+02  0.00000000000E+00 0.  1.
         24    1    1    2    0    0 -0.14632096310E+02 -0.45177245097E+02  0.39793237223E+03  0.40874499451E+03  0.80419002446E+02 0. -1.
        -24    1    1    2    0    0  0.14632096310E+02  0.45177245097E+02  0.53601155605E+01  0.93546932126E+02  0.80419002446E+02 0.  1.
<mgrwt>
<rscale>  0 0.93393242E+02</rscale>
<asrwt>0</asrwt>
<pdfrwt beam="1">  1        2 0.69660337E-01 0.93393242E+02</pdfrwt>
<pdfrwt beam="2">  1       -2 0.76153418E-02 0.93393242E+02</pdfrwt>
<totfact> 0.66439419E+03</totfact>
</mgrwt>
</event>
<event>
 4    1  0.4999097E-001  0.9413494E+02  0.7546771E-02  0.1293136E+00
          1   -1    0    0  501    0  0.00000000000E+00  0.00000000000E+00  0.10058726662E+04  0.10058726662E+04  0.00000000000E+00 0. -1.
         -1   -1    0    0    0  501 -0.00000000000E+00 -0.00000000000E+00 -0.20903727467E+02  0.20903727467E+02  0.00000000000E+00 0.  1.
         24    1    1    2    0    0  0.37840355617E+02  0.31020617657E+02  0.10198507323E+03  0.13878884087E+03  0.80419002446E+02 0.  1.
        -24    1    1    2    0    0 -0.37840355617E+02 -0.31020617657E+02  0.88298386548E+03  0.88798755278E+03  0.80419002446E+02 0. -1.
<mgrwt>
<rscale>  0 0.94134941E+02</rscale>
<asrwt>0</asrwt>
<pdfrwt beam="1">  1        1 0.15474960E+00 0.94134941E+02</pdfrwt>
<pdfrwt beam="2">  1       -1 0.32159589E-02 0.94134941E+02</pdfrwt>
<totfact> 0.51685089E+03</totfact>
</mgrwt>
</event>
<event>
 4    1  0.4999097E-001  0.8346040E+02  0.7546771E-02  0.1319509E+00
         -1   -1    0    0    0  501 -0.00000000000E+00  0.00000000000E+00  0.50159629322E+01  0.50159629322E+01  0.00000000000E+00 0.  1.
          1   -1    0    0  501    0  0.00000000000E+00 -0.00000000000E+00 -0.16583361209E+04  0.16583361209E+04  0.00000000000E+00 0. -1.
         24    1    1    2    0    0  0.21880973996E+02  0.44323348350E+01 -0.49129979643E+03  0.49833836752E+03  0.80419002446E+02 0.  1.
        -24    1    1    2    0    0 -0.21880973996E+02 -0.44323348350E+01 -0.11620203616E+04  0.11650137163E+04  0.80419002446E+02 0. -1.
<mgrwt>
<rscale>  0 0.83460401E+02</rscale>
<asrwt>0</asrwt>
<pdfrwt beam="1">  1        1 0.25512846E+00 0.83460401E+02</pdfrwt>
<pdfrwt beam="2">  1       -1 0.77168712E-03 0.83460401E+02</pdfrwt>
<totfact> 0.14473739E+04</totfact>
</mgrwt>
</event>
<event>
 4    1  0.4999097E-001  0.8053479E+02  0.7546771E-02  0.1327541E+00
         -2   -1    0    0    0  501 -0.00000000000E+00  0.00000000000E+00  0.54450346043E+02  0.54450346043E+02  0.00000000000E+00 0.  1.
          2   -1    0    0  501    0  0.00000000000E+00 -0.00000000000E+00 -0.13632309967E+03  0.13632309967E+03  0.00000000000E+00 0. -1.
         24    1    1    2    0    0 -0.22396534322E+01 -0.36905130673E+01 -0.74826247271E+02  0.10993097457E+03  0.80419002446E+02 0. -1.
        -24    1    1    2    0    0  0.22396534322E+01  0.36905130673E+01 -0.70465063518E+01  0.80842471142E+02  0.80419002446E+02 0.  0.
<mgrwt>
<rscale>  0 0.80534787E+02</rscale>
<asrwt>0</asrwt>
<pdfrwt beam="1">  1        2 0.20972784E-01 0.80534787E+02</pdfrwt>
<pdfrwt beam="2">  1       -2 0.83769764E-02 0.80534787E+02</pdfrwt>
<totfact> 0.20265493E+04</totfact>
</mgrwt>
</event>
<event>
 4    1  0.4999097E-001  0.1021268E+03  0.7546771E-02  0.1275886E+00
         -1   -1    0    0    0  501 -0.00000000000E+00  0.00000000000E+00  0.91127569575E+02  0.91127569575E+02  0.00000000000E+00 0.  1.
          1   -1    0    0  501    0  0.00000000000E+00 -0.00000000000E+00 -0.44546251860E+03  0.44546251860E+03  0.00000000000E+00 0. -1.
         24    1    1    2    0    0 -0.38041090589E+02  0.50155232410E+02  0.54106543684E+02  0.11557424425E+03  0.80419002446E+02 0.  1.
        -24    1    1    2    0    0  0.38041090589E+02 -0.50155232410E+02 -0.40844149271E+03  0.42101584392E+03  0.80419002446E+02 0. -1.
<mgrwt>
<rscale>  0 0.10212682E+03</rscale>
<asrwt>0</asrwt>
<pdfrwt beam="1">  1        1 0.68532695E-01 0.10212682E+03</pdfrwt>
<pdfrwt beam="2">  1       -1 0.14019626E-01 0.10212682E+03</pdfrwt>
<totfact> 0.18365041E+03</totfact>
</mgrwt>
</event>
<event>
 4    1  0.4999097E-001  0.8839905E+02  0.7546771E-02  0.1306776E+00
          1   -1    0    0  501    0  0.00000000000E+00  0.00000000000E+00  0.27159502336E+03  0.27159502336E+03  0.00000000000E+00 0. -1.
         -1   -1    0    0    0  501 -0.00000000000E+00 -0.00000000000E+00 -0.30514772717E+02  0.30514772717E+02  0.00000000000E+00 0.  1.
         24    1    1    2    0    0  0.26926176938E+02 -0.24943075353E+02  0.84443000478E+02  0.12224979467E+03  0.80419002446E+02 0.  0.
        -24    1    1    2    0    0 -0.26926176938E+02  0.24943075353E+02  0.15663725016E+03  0.17986000140E+03  0.80419002446E+02 0.  1.
<mgrwt>
<rscale>  0 0.88399050E+02</rscale>
<asrwt>0</asrwt>
<pdfrwt beam="1">  1        1 0.41783848E-01 0.88399050E+02</pdfrwt>
<pdfrwt beam="2">  1       -1 0.46945806E-02 0.88399050E+02</pdfrwt>
<totfact> 0.17245067E+04</totfact>
</mgrwt>
</event>
<event>
 4    1  0.4999097E-001  0.8504029E+02  0.7546771E-02  0.1315327E+00
          1   -1    0    0  501    0  0.00000000000E+00  0.00000000000E+00  0.17269575498E+03  0.17269575498E+03  0.00000000000E+00 0. -1.
         -1   -1    0    0    0  501 -0.00000000000E+00 -0.00000000000E+00 -0.48979358973E+02  0.48979358973E+02  0.00000000000E+00 0.  1.
         24    1    1    2    0    0  0.17814973838E+01 -0.27594592947E+02  0.19649250585E+02  0.87280835787E+02  0.80419002446E+02 0.  1.
        -24    1    1    2    0    0 -0.17814973838E+01  0.27594592947E+02  0.10406714542E+03  0.13439427816E+03  0.80419002446E+02 0. -1.
<mgrwt>
<rscale>  0 0.85040292E+02</rscale>
<asrwt>0</asrwt>
<pdfrwt beam="1">  1        1 0.26568577E-01 0.85040292E+02</pdfrwt>
<pdfrwt beam="2">  1       -1 0.75352861E-02 0.85040292E+02</pdfrwt>
<totfact> 0.14893744E+04</totfact>
</mgrwt>
</event>
<event>
 4    1  0.4999097E-001  0.1763422E+03  0.7546771E-02  0.1171391E+00
         -2   -1    0    0    0  501 -0.00000000000E+00  0.00000000000E+00  0.49609101770E+02  0.49609101770E+02  0.00000000000E+00 0.  1.
          2   -1    0    0  501    0  0.00000000000E+00 -0.00000000000E+00 -0.76219183517E+03  0.76219183517E+03  0.00000000000E+00 0. -1.
         24    1    1    2    0    0  0.12583867097E+03 -0.93776294674E+02 -0.52734490230E+03  0.55604786349E+03  0.80419002446E+02 0.  0.
        -24    1    1    2    0    0 -0.12583867097E+03  0.93776294674E+02 -0.18523783110E+03  0.25575307345E+03  0.80419002446E+02 0.  1.
<mgrwt>
<rscale>  0 0.17634223E+03</rscale>
<asrwt>0</asrwt>
<pdfrwt beam="1">  1        2 0.11726029E+00 0.17634223E+03</pdfrwt>
<pdfrwt beam="2">  1       -2 0.76321689E-02 0.17634223E+03</pdfrwt>
<totfact> 0.37825959E+03</totfact>
</mgrwt>
</event>
<event>
 4    1  0.4999097E-001  0.9612252E+02  0.7546771E-02  0.1288668E+00
         -2   -1    0    0    0  501 -0.00000000000E+00  0.00000000000E+00  0.15081452794E+02  0.15081452794E+02  0.00000000000E+00 0.  1.
          2   -1    0    0  501    0  0.00000000000E+00 -0.00000000000E+00 -0.89199726351E+03  0.89199726351E+03  0.00000000000E+00 0. -1.
         24    1    1    2    0    0 -0.34851274133E+02  0.39467860492E+02 -0.69226937491E+03  0.69891088610E+03  0.80419002446E+02 0. -1.
        -24    1    1    2    0    0  0.34851274133E+02 -0.39467860492E+02 -0.18464643580E+03  0.20816783020E+03  0.80419002446E+02 0.  1.
<mgrwt>
<rscale>  0 0.96122522E+02</rscale>
<asrwt>0</asrwt>
<pdfrwt beam="1">  1        2 0.13723037E+00 0.96122522E+02</pdfrwt>
<pdfrwt beam="2">  1       -2 0.23202231E-02 0.96122522E+02</pdfrwt>
<totfact> 0.17697576E+04</totfact>
</mgrwt>
</event>
<event>
 4    1  0.4999097E-001  0.8719609E+02  0.7546771E-02  0.1309787E+00
         -1   -1    0    0    0  501 -0.00000000000E+00  0.00000000000E+00  0.52224617285E+02  0.52224617285E+02  0.00000000000E+00 0.  1.
          1   -1    0    0  501    0  0.00000000000E+00 -0.00000000000E+00 -0.27688836721E+03  0.27688836721E+03  0.00000000000E+00 0. -1.
         24    1    1    2    0    0 -0.12959666764E+02 -0.31112517372E+02  0.98626418183E+00  0.87201664957E+02  0.80419002446E+02 0.  1.
        -24    1    1    2    0    0  0.12959666764E+02  0.31112517372E+02 -0.22565001411E+03  0.24191131954E+03  0.80419002446E+02 0. -1.
<mgrwt>
<rscale>  0 0.87196087E+02</rscale>
<asrwt>0</asrwt>
<pdfrwt beam="1">  1        1 0.42598211E-01 0.87196087E+02</pdfrwt>
<pdfrwt beam="2">  1       -1 0.80345564E-02 0.87196087E+02</pdfrwt>
<totfact> 0.76196661E+03</totfact>
</mgrwt>
</event>
<event>
 4    1  0.4999097E-001  0.8266699E+02  0.7546771E-02  0.1321649E+00
          2   -1    0    0  501    0  0.00000000000E+00  0.00000000000E+00  0.30752598504E+04  0.30752598504E+04  0.00000000000E+00 0. -1.
         -2   -1    0    0    0  501 -0.00000000000E+00 -0.00000000000E+00 -0.35029160645E+01  0.35029160645E+01  0.00000000000E+00 0.  1.
         24    1    1    2    0    0 -0.12734530067E+02 -0.14298377068E+02  0.60507369686E+03  0.61069469167E+03  0.80419002446E+02 0.  0.
        -24    1    1    2    0    0  0.12734530067E+02  0.14298377068E+02  0.24666832375E+04  0.24680680748E+04  0.80419002446E+02 0. -1.
<mgrwt>
<rscale>  0 0.82666980E+02</rscale>
<asrwt>0</asrwt>
<pdfrwt beam="1">  1        2 0.47311474E+00 0.82666990E+02</pdfrwt>
<pdfrwt beam="2">  1       -2 0.53891262E-03 0.82666990E+02</pdfrwt>
<totfact> 0.96967202E+03</totfact>
</mgrwt>
</event>
<event>
 4    1  0.4999097E-001  0.8245430E+02  0.7546771E-02  0.1322227E+00
          2   -1    0    0  501    0  0.00000000000E+00  0.00000000000E+00  0.60972442577E+03  0.60972442577E+03  0.00000000000E+00 0. -1.
         -2   -1    0    0    0  501 -0.00000000000E+00 -0.00000000000E+00 -0.67204675627E+02  0.67204675627E+02  0.00000000000E+00 0.  1.
         24    1    1    2    0    0 -0.17971565952E+02  0.29187141120E+01  0.58037307991E+03  0.58620100982E+03  0.80419002446E+02 0. -1.
        -24    1    1    2    0    0  0.17971565952E+02 -0.29187141120E+01 -0.37853329758E+02  0.90728091587E+02  0.80419002446E+02 0.  1.
<mgrwt>
<rscale>  0 0.82454303E+02</rscale>
<asrwt>0</asrwt>
<pdfrwt beam="1">  1        2 0.93803754E-01 0.82454303E+02</pdfrwt>
<pdfrwt beam="2">  1       -2 0.10339181E-01 0.82454303E+02</pdfrwt>
<totfact> 0.29791761E+03</totfact>
</mgrwt>
</event>
<event>
 4    1  0.4999097E-001  0.8451336E+02  0.7546771E-02  0.1316710E+00
         -2   -1    0    0    0  501 -0.00000000000E+00  0.00000000000E+00  0.34522522559E+02  0.34522522559E+02  0.00000000000E+00 0.  1.
          2   -1    0    0  501    0  0.00000000000E+00 -0.00000000000E+00 -0.13066260737E+04  0.13066260737E+04  0.00000000000E+00 0. -1.
         24    1    1    2    0    0 -0.12931863807E+02  0.22540157873E+02 -0.12512494155E+04  0.12541003180E+04  0.80419002446E+02 0. -1.
        -24    1    1    2    0    0  0.12931863807E+02 -0.22540157873E+02 -0.20854135603E+02  0.87048278240E+02  0.80419002446E+02 0.  1.
<mgrwt>
<rscale>  0 0.84513359E+02</rscale>
<asrwt>0</asrwt>
<pdfrwt beam="1">  1        2 0.20101937E+00 0.84513359E+02</pdfrwt>
<pdfrwt beam="2">  1       -2 0.53111581E-02 0.84513359E+02</pdfrwt>
<totfact> 0.30473331E+03</totfact>
</mgrwt>
</event>
<event>
 4    1  0.4999097E-001  0.8385704E+02  0.7546771E-02  0.1318449E+00
          1   -1    0    0  501    0  0.00000000000E+00  0.00000000000E+00  0.23235198792E+02  0.23235198792E+02  0.00000000000E+00 0. -1.
         -1   -1    0    0    0  501 -0.00000000000E+00 -0.00000000000E+00 -0.34297337638E+03  0.34297337638E+03  0.00000000000E+00 0.  1.
         24    1    1    2    0    0  0.16934628379E+02 -0.16673482417E+02 -0.22265713261E+03  0.23792478079E+03  0.80419002446E+02 0.  0.
        -24    1    1    2    0    0 -0.16934628379E+02  0.16673482417E+02 -0.97081044977E+02  0.12828379439E+03  0.80419002446E+02 0.  0.
<mgrwt>
<rscale>  0 0.83857037E+02</rscale>
<asrwt>0</asrwt>
<pdfrwt beam="1">  1        1 0.35746461E-02 0.83857037E+02</pdfrwt>
<pdfrwt beam="2">  1       -1 0.52765132E-01 0.83857037E+02</pdfrwt>
<totfact> 0.89138679E+03</totfact>
</mgrwt>
</event>
<event>
 4    1  0.4999097E-001  0.1528644E+03  0.7546771E-02  0.1196997E+00
         -1   -1    0    0    0  501 -0.00000000000E+00  0.00000000000E+00  0.32555545257E+03  0.32555545257E+03  0.00000000000E+00 0.  1.
          1   -1    0    0  501    0  0.00000000000E+00 -0.00000000000E+00 -0.29941962688E+03  0.29941962688E+03  0.00000000000E+00 0. -1.
         24    1    1    2    0    0  0.55316101644E+02  0.11764543559E+03  0.28553807547E+03  0.32388196633E+03  0.80419002446E+02 0.  1.
        -24    1    1    2    0    0 -0.55316101644E+02 -0.11764543559E+03 -0.25940224978E+03  0.30109311311E+03  0.80419002446E+02 0. -1.
<mgrwt>
<rscale>  0 0.15286444E+03</rscale>
<asrwt>0</asrwt>
<pdfrwt beam="1">  1        1 0.46064557E-01 0.15286444E+03</pdfrwt>
<pdfrwt beam="2">  1       -1 0.50085455E-01 0.15286444E+03</pdfrwt>
<totfact> 0.36461992E+02</totfact>
</mgrwt>
</event>
<event>
 4    1  0.4999097E-001  0.1024437E+03  0.7546771E-02  0.1275239E+00
          1   -1    0    0  501    0  0.00000000000E+00  0.00000000000E+00  0.64127576294E+03  0.64127576294E+03  0.00000000000E+00 0. -1.
         -1   -1    0    0    0  501 -0.00000000000E+00 -0.00000000000E+00 -0.32106174678E+02  0.32106174678E+02  0.00000000000E+00 0.  1.
         24    1    1    2    0    0  0.63130103130E+02  0.64878645278E+01  0.68835401318E+02  0.12342216469E+03  0.80419002446E+02 0.  1.
        -24    1    1    2    0    0 -0.63130103130E+02 -0.64878645278E+01  0.54033418694E+03  0.54995977293E+03  0.80419002446E+02 0. -1.
<mgrwt>
<rscale>  0 0.10244373E+03</rscale>
<asrwt>0</asrwt>
<pdfrwt beam="1">  1        1 0.98657800E-01 0.10244373E+03</pdfrwt>
<pdfrwt beam="2">  1       -1 0.49394120E-02 0.10244373E+03</pdfrwt>
<totfact> 0.54603217E+03</totfact>
</mgrwt>
</event>
<event>
 4    1  0.4999097E-001  0.1056242E+03  0.7546771E-02  0.1268895E+00
         -1   -1    0    0    0  501 -0.00000000000E+00  0.00000000000E+00  0.37150925258E+01  0.37150925258E+01  0.00000000000E+00 0.  1.
          1   -1    0    0  501    0  0.00000000000E+00 -0.00000000000E+00 -0.30512711449E+04  0.30512711449E+04  0.00000000000E+00 0. -1.
         24    1    1    2    0    0  0.32544830074E+02 -0.60250238623E+02 -0.13316805212E+04  0.13358628237E+04  0.80419002446E+02 0.  1.
        -24    1    1    2    0    0 -0.32544830074E+02  0.60250238623E+02 -0.17158755311E+04  0.17191234137E+04  0.80419002446E+02 0. -1.
<mgrwt>
<rscale>  0 0.10562421E+03</rscale>
<asrwt>0</asrwt>
<pdfrwt beam="1">  1        1 0.46942411E+00 0.10562421E+03</pdfrwt>
<pdfrwt beam="2">  1       -1 0.57155539E-03 0.10562421E+03</pdfrwt>
<totfact> 0.28205733E+03</totfact>
</mgrwt>
</event>
<event>
 4    1  0.4999097E-001  0.1663530E+03  0.7546771E-02  0.1181705E+00
          1   -1    0    0  501    0  0.00000000000E+00  0.00000000000E+00  0.16327189328E+03  0.16327189328E+03  0.00000000000E+00 0. -1.
         -1   -1    0    0    0  501 -0.00000000000E+00 -0.00000000000E+00 -0.19185591936E+03  0.19185591936E+03  0.00000000000E+00 0.  1.
         24    1    1    2    0    0 -0.10399262756E+03 -0.10193943470E+03 -0.74915094248E+02  0.18244342201E+03  0.80419002446E+02 0.  1.
        -24    1    1    2    0    0  0.10399262756E+03  0.10193943470E+03  0.46331068170E+02  0.17268439063E+03  0.80419002446E+02 0. -1.
<mgrwt>
<rscale>  0 0.16635303E+03</rscale>
<asrwt>0</asrwt>
<pdfrwt beam="1">  1        1 0.25118753E-01 0.16635303E+03</pdfrwt>
<pdfrwt beam="2">  1       -1 0.29516295E-01 0.16635303E+03</pdfrwt>
<totfact> 0.19635683E+03</totfact>
</mgrwt>
</event>
<event>
 4    1  0.4999097E-001  0.9416498E+02  0.7546771E-02  0.1293068E+00
          3   -1    0    0  501    0  0.00000000000E+00  0.00000000000E+00  0.37020730388E+03  0.37020730388E+03  0.00000000000E+00 0. -1.
         -3   -1    0    0    0  501 -0.00000000000E+00 -0.00000000000E+00 -0.28717345537E+02  0.28717345537E+02  0.00000000000E+00 0.  1.
         24    1    1    2    0    0  0.48972850974E+02 -0.12194263478E+01  0.89488893253E+02  0.12990498491E+03  0.80419002446E+02 0.  1.
        -24    1    1    2    0    0 -0.48972850974E+02  0.12194263478E+01  0.25200106509E+03  0.26901966451E+03  0.80419002446E+02 0. -1.
<mgrwt>
<rscale>  0 0.94164978E+02</rscale>
<asrwt>0</asrwt>
<pdfrwt beam="1">  1        3 0.56954967E-01 0.94164978E+02</pdfrwt>
<pdfrwt beam="2">  1       -3 0.44180534E-02 0.94164978E+02</pdfrwt>
<totfact> 0.18252664E+03</totfact>
</mgrwt>
</event>
<event>
 4    1  0.4999097E-001  0.8480450E+02  0.7546771E-02  0.1315945E+00
         -1   -1    0    0    0  501 -0.00000000000E+00  0.00000000000E+00  0.21883717478E+02  0.21883717478E+02  0.00000000000E+00 0.  1.
          1   -1    0    0  501    0  0.00000000000E+00 -0.00000000000E+00 -0.58648749034E+03  0.58648749034E+03  0.00000000000E+00 0. -1.
         24    1    1    2    0    0  0.16152970697E+02  0.21532951833E+02 -0.80607812255E+02  0.11700180267E+03  0.80419002446E+02 0.  1.
        -24    1    1    2    0    0 -0.16152970697E+02 -0.21532951833E+02 -0.48399596061E+03  0.49136940515E+03  0.80419002446E+02 0. -1.
<mgrwt>
<rscale>  0 0.84804495E+02</rscale>
<asrwt>0</asrwt>
<pdfrwt beam="1">  1        1 0.90228850E-01 0.84804495E+02</pdfrwt>
<pdfrwt beam="2">  1       -1 0.33667256E-02 0.84804495E+02</pdfrwt>
<totfact> 0.10615714E+04</totfact>
</mgrwt>
</event>
<event>
 4    1  0.4999097E-001  0.8454845E+02  0.7546771E-02  0.1316618E+00
         -2   -1    0    0    0  501 -0.00000000000E+00  0.00000000000E+00  0.45559039468E+01  0.45559039468E+01  0.00000000000E+00 0.  1.
          2   -1    0    0  501    0  0.00000000000E+00 -0.00000000000E+00 -0.16227732832E+04  0.16227732832E+04  0.00000000000E+00 0. -1.
         24    1    1    2    0    0  0.25274777365E+02 -0.65120019924E+01 -0.66106092956E+03  0.66644578856E+03  0.80419002446E+02 0. -1.
        -24    1    1    2    0    0 -0.25274777365E+02  0.65120019924E+01 -0.95715644967E+03  0.96088339857E+03  0.80419002446E+02 0.  1.
<mgrwt>
<rscale>  0 0.84548437E+02</rscale>
<asrwt>0</asrwt>
<pdfrwt beam="1">  1        2 0.24965775E+00 0.84548448E+02</pdfrwt>
<pdfrwt beam="2">  1       -2 0.70090739E-03 0.84548448E+02</pdfrwt>
<totfact> 0.38496909E+04</totfact>
</mgrwt>
</event>
<event>
 4    1  0.4999097E-001  0.8074678E+02  0.7546771E-02  0.1326945E+00
          1   -1    0    0  501    0  0.00000000000E+00  0.00000000000E+00  0.15601196823E+04  0.15601196823E+04  0.00000000000E+00 0. -1.
         -1   -1    0    0    0  501 -0.00000000000E+00 -0.00000000000E+00 -0.65096776038E+01  0.65096776038E+01  0.00000000000E+00 0.  1.
         24    1    1    2    0    0 -0.70088639403E+01  0.19240971553E+01  0.30812158975E+03  0.31852622552E+03  0.80419002446E+02 0.  0.
        -24    1    1    2    0    0  0.70088639403E+01 -0.19240971553E+01  0.12454884150E+04  0.12481031344E+04  0.80419002446E+02 0. -1.
<mgrwt>
<rscale>  0 0.80746779E+02</rscale>
<asrwt>0</asrwt>
<pdfrwt beam="1">  1        1 0.24001811E+00 0.80746779E+02</pdfrwt>
<pdfrwt beam="2">  1       -1 0.10014901E-02 0.80746779E+02</pdfrwt>
<totfact> 0.11547981E+04</totfact>
</mgrwt>
</event>
<event>
 4    1  0.4999097E-001  0.1502379E+03  0.7546771E-02  0.1200181E+00
         -1   -1    0    0    0  501 -0.00000000000E+00  0.00000000000E+00  0.45355419922E+03  0.45355419922E+03  0.00000000000E+00 0.  1.
          1   -1    0    0  501    0  0.00000000000E+00 -0.00000000000E+00 -0.64660091950E+02  0.64660091950E+02  0.00000000000E+00 0. -1.
         24    1    1    2    0    0 -0.12689735741E+03  0.11282491088E+01  0.31880486499E+03  0.35243151130E+03  0.80419002446E+02 0. -1.
        -24    1    1    2    0    0  0.12689735741E+03 -0.11282491088E+01  0.70089242277E+02  0.16578277987E+03  0.80419002446E+02 0.  1.
<mgrwt>
<rscale>  0 0.15023791E+03</rscale>
<asrwt>0</asrwt>
<pdfrwt beam="1">  1        1 0.99477068E-02 0.15023791E+03</pdfrwt>
<pdfrwt beam="2">  1       -1 0.69777567E-01 0.15023791E+03</pdfrwt>
<totfact> 0.13703629E+03</totfact>
</mgrwt>
</event>
<event>
 4    1  0.4999097E-001  0.8495861E+02  0.7546771E-02  0.1315541E+00
         -2   -1    0    0    0  501 -0.00000000000E+00  0.00000000000E+00  0.47629483304E+02  0.47629483304E+02  0.00000000000E+00 0.  1.
          2   -1    0    0  501    0  0.00000000000E+00 -0.00000000000E+00 -0.51944186952E+03  0.51944186952E+03  0.00000000000E+00 0. -1.
         24    1    1    2    0    0  0.27097993153E+02 -0.40556429426E+01 -0.47452399199E+03  0.48206948089E+03  0.80419002446E+02 0. -1.
        -24    1    1    2    0    0 -0.27097993153E+02  0.40556429426E+01  0.27116057762E+01  0.85001871937E+02  0.80419002446E+02 0.  1.
<mgrwt>
<rscale>  0 0.84958610E+02</rscale>
<asrwt>0</asrwt>
<pdfrwt beam="1">  1        2 0.79914134E-01 0.84958610E+02</pdfrwt>
<pdfrwt beam="2">  1       -2 0.73276128E-02 0.84958610E+02</pdfrwt>
<totfact> 0.60380956E+03</totfact>
</mgrwt>
</event>
<event>
 4    1  0.4999097E-001  0.8609372E+02  0.7546771E-02  0.1312597E+00
         -2   -1    0    0    0  501 -0.00000000000E+00  0.00000000000E+00  0.11906316599E+03  0.11906316599E+03  0.00000000000E+00 0.  1.
          2   -1    0    0  501    0  0.00000000000E+00 -0.00000000000E+00 -0.62401908176E+02  0.62401908176E+02  0.00000000000E+00 0. -1.
         24    1    1    2    0    0  0.29626578371E+02  0.81962841579E+01  0.23909639347E+02  0.89352112611E+02  0.80419002446E+02 0.  0.
        -24    1    1    2    0    0 -0.29626578371E+02 -0.81962841579E+01  0.32751618468E+02  0.92112961556E+02  0.80419002446E+02 0. -1.
<mgrwt>
<rscale>  0 0.86093723E+02</rscale>
<asrwt>0</asrwt>
<pdfrwt beam="1">  1        2 0.96002936E-02 0.86093723E+02</pdfrwt>
<pdfrwt beam="2">  1       -2 0.18317410E-01 0.86093723E+02</pdfrwt>
<totfact> 0.14634726E+04</totfact>
</mgrwt>
</event>
<event>
 4    1  0.4999097E-001  0.9246578E+02  0.7546771E-02  0.1296988E+00
          2   -1    0    0  501    0  0.00000000000E+00  0.00000000000E+00  0.11384945782E+04  0.11384945782E+04  0.00000000000E+00 0. -1.
         -2   -1    0    0    0  501 -0.00000000000E+00 -0.00000000000E+00 -0.19231269657E+02  0.19231269657E+02  0.00000000000E+00 0.  1.
         24    1    1    2    0    0 -0.25365036934E+02 -0.37938363512E+02  0.10115520188E+04  0.10157693671E+04  0.80419002446E+02 0. -1.
        -24    1    1    2    0    0  0.25365036934E+02  0.37938363512E+02  0.10771128973E+03  0.14195648071E+03  0.80419002446E+02 0.  1.
<mgrwt>
<rscale>  0 0.92465780E+02</rscale>
<asrwt>0</asrwt>
<pdfrwt beam="1">  1        2 0.17515296E+00 0.92465780E+02</pdfrwt>
<pdfrwt beam="2">  1       -2 0.29586578E-02 0.92465780E+02</pdfrwt>
<totfact> 0.89034085E+03</totfact>
</mgrwt>
</event>
<event>
 4    1  0.4999097E-001  0.9703291E+02  0.7546771E-02  0.1286662E+00
          2   -1    0    0  501    0  0.00000000000E+00  0.00000000000E+00  0.25751484764E+03  0.25751484764E+03  0.00000000000E+00 0. -1.
         -2   -1    0    0    0  501 -0.00000000000E+00 -0.00000000000E+00 -0.38679067659E+02  0.38679067659E+02  0.00000000000E+00 0.  1.
         24    1    1    2    0    0 -0.48442562727E+02  0.24525251080E+02  0.14406161241E+03  0.17369264218E+03  0.80419002446E+02 0.  0.
        -24    1    1    2    0    0  0.48442562727E+02 -0.24525251080E+02  0.74774167567E+02  0.12250127311E+03  0.80419002446E+02 0.  1.
<mgrwt>
<rscale>  0 0.97032911E+02</rscale>
<asrwt>0</asrwt>
<pdfrwt beam="1">  1        2 0.39617668E-01 0.97032911E+02</pdfrwt>
<pdfrwt beam="2">  1       -2 0.59506259E-02 0.97032911E+02</pdfrwt>
<totfact> 0.17521207E+04</totfact>
</mgrwt>
</event>
<event>
 4    1  0.4999097E-001  0.8272872E+02  0.7546771E-02  0.1321481E+00
         -1   -1    0    0    0  501 -0.00000000000E+00  0.00000000000E+00  0.16072001283E+02  0.16072001283E+02  0.00000000000E+00 0.  1.
          1   -1    0    0  501    0  0.00000000000E+00 -0.00000000000E+00 -0.16111419561E+04  0.16111419561E+04  0.00000000000E+00 0. -1.
         24    1    1    2    0    0 -0.18034587046E+02 -0.71818360411E+01 -0.99683591105E+02  0.12954095641E+03  0.80419002446E+02 0.  1.
        -24    1    1    2    0    0  0.18034587046E+02  0.71818360411E+01 -0.14953863637E+04  0.14976730010E+04  0.80419002446E+02 0. -1.
<mgrwt>
<rscale>  0 0.82728720E+02</rscale>
<asrwt>0</asrwt>
<pdfrwt beam="1">  1        1 0.24786792E+00 0.82728720E+02</pdfrwt>
<pdfrwt beam="2">  1       -1 0.24726163E-02 0.82728720E+02</pdfrwt>
<totfact> 0.29837607E+03</totfact>
</mgrwt>
</event>
<event>
 4    1  0.4999097E-001  0.1010242E+03  0.7546771E-02  0.1278157E+00
         -1   -1    0    0    0  501 -0.00000000000E+00  0.00000000000E+00  0.48967529177E+01  0.48967529177E+01  0.00000000000E+00 0.  1.
          1   -1    0    0  501    0  0.00000000000E+00 -0.00000000000E+00 -0.25574873995E+04  0.25574873995E+04  0.00000000000E+00 0. -1.
         24    1    1    2    0    0 -0.17465158794E+02 -0.58597327845E+02 -0.72515489570E+03  0.73215812316E+03  0.80419002446E+02 0.  1.
        -24    1    1    2    0    0  0.17465158794E+02  0.58597327845E+02 -0.18274357508E+04  0.18302260292E+04  0.80419002446E+02 0. -1.
<mgrwt>
<rscale>  0 0.10102423E+03</rscale>
<asrwt>0</asrwt>
<pdfrwt beam="1">  1        1 0.39345999E+00 0.10102423E+03</pdfrwt>
<pdfrwt beam="2">  1       -1 0.75334586E-03 0.10102423E+03</pdfrwt>
<totfact> 0.40782288E+03</totfact>
</mgrwt>
</event>
<event>
 4    1  0.4999097E-001  0.1105096E+03  0.7546771E-02  0.1259629E+00
          2   -1    0    0  501    0  0.00000000000E+00  0.00000000000E+00  0.19849241064E+04  0.19849241064E+04  0.00000000000E+00 0. -1.
         -2   -1    0    0    0  501 -0.00000000000E+00 -0.00000000000E+00 -0.37584387463E+02  0.37584387463E+02  0.00000000000E+00 0.  1.
         24    1    1    2    0    0 -0.47480428084E+01  0.75647975479E+02  0.18984561788E+04  0.19016698554E+04  0.80419002446E+02 0. -1.
        -24    1    1    2    0    0  0.47480428084E+01 -0.75647975479E+02  0.48883540179E+02  0.12083863852E+03  0.80419002446E+02 0.  1.
<mgrwt>
<rscale>  0 0.11050962E+03</rscale>
<asrwt>0</asrwt>
<pdfrwt beam="1">  1        2 0.30537286E+00 0.11050962E+03</pdfrwt>
<pdfrwt beam="2">  1       -2 0.57822150E-02 0.11050962E+03</pdfrwt>
<totfact> 0.12119454E+03</totfact>
</mgrwt>
</event>
<event>
 4    1  0.4999097E-001  0.9087733E+02  0.7546771E-02  0.1300741E+00
          1   -1    0    0  501    0  0.00000000000E+00  0.00000000000E+00  0.14508191711E+04  0.14508191711E+04  0.00000000000E+00 0. -1.
         -1   -1    0    0    0  501 -0.00000000000E+00 -0.00000000000E+00 -0.26603049771E+02  0.26603049771E+02  0.00000000000E+00 0.  1.
         24    1    1    2    0    0  0.42224752990E+02  0.29230404373E+01  0.57181888048E+02  0.10737065803E+03  0.80419002446E+02 0.  1.
        -24    1    1    2    0    0 -0.42224752990E+02 -0.29230404373E+01  0.13670342333E+04  0.13700515628E+04  0.80419002446E+02 0. -1.
<mgrwt>
<rscale>  0 0.90877334E+02</rscale>
<asrwt>0</asrwt>
<pdfrwt beam="1">  1        1 0.22320289E+00 0.90877334E+02</pdfrwt>
<pdfrwt beam="2">  1       -1 0.40927780E-02 0.90877334E+02</pdfrwt>
<totfact> 0.18278592E+03</totfact>
</mgrwt>
</event>
<event>
 4    1  0.4999097E-001  0.8409454E+02  0.7546771E-02  0.1317818E+00
         -2   -1    0    0    0  501 -0.00000000000E+00  0.00000000000E+00  0.19418456078E+03  0.19418456078E+03  0.00000000000E+00 0.  1.
          2   -1    0    0  501    0  0.00000000000E+00 -0.00000000000E+00 -0.66831231961E+02  0.66831231961E+02  0.00000000000E+00 0. -1.
         24    1    1    2    0    0 -0.16729687169E+02  0.18022033527E+02 -0.24362405894E+02  0.87552378041E+02  0.80419002446E+02 0. -1.
        -24    1    1    2    0    0  0.16729687169E+02 -0.18022033527E+02  0.15171573471E+03  0.17346341470E+03  0.80419002446E+02 0.  1.
<mgrwt>
<rscale>  0 0.84094543E+02</rscale>
<asrwt>0</asrwt>
<pdfrwt beam="1">  1        2 0.10281728E-01 0.84094543E+02</pdfrwt>
<pdfrwt beam="2">  1       -2 0.29874548E-01 0.84094543E+02</pdfrwt>
<totfact> 0.58152264E+03</totfact>
</mgrwt>
</event>
<event>
 4    1  0.4999097E-001  0.2620705E+03  0.7546771E-02  0.1105906E+00
         -1   -1    0    0    0  501 -0.00000000000E+00  0.00000000000E+00  0.25886106818E+03  0.25886106818E+03  0.00000000000E+00 0.  1.
          1   -1    0    0  501    0  0.00000000000E+00 -0.00000000000E+00 -0.32241029102E+03  0.32241029102E+03  0.00000000000E+00 0. -1.
         24    1    1    2    0    0 -0.17940808060E+03 -0.17328141715E+03  0.90525537818E+02  0.27726485148E+03  0.80419002446E+02 0.  1.
        -24    1    1    2    0    0  0.17940808060E+03  0.17328141715E+03 -0.15407476066E+03  0.30400650773E+03  0.80419002446E+02 0. -1.
<mgrwt>
<rscale>  0 0.26207046E+03</rscale>
<asrwt>0</asrwt>
<pdfrwt beam="1">  1        1 0.49601583E-01 0.26207046E+03</pdfrwt>
<pdfrwt beam="2">  1       -1 0.39824780E-01 0.26207046E+03</pdfrwt>
<totfact> 0.49998813E+02</totfact>
</mgrwt>
</event>
<event>
 4    1  0.4999097E-001  0.8432091E+02  0.7546771E-02  0.1317218E+00
          1   -1    0    0  501    0  0.00000000000E+00  0.00000000000E+00  0.35593965755E+02  0.35593965755E+02  0.00000000000E+00 0. -1.
         -1   -1    0    0    0  501 -0.00000000000E+00 -0.00000000000E+00 -0.22503409480E+03  0.22503409480E+03  0.00000000000E+00 0.  1.
         24    1    1    2    0    0 -0.19048917600E+02  0.16731244702E+02 -0.51042092837E+02  0.98566256937E+02  0.80419002446E+02 0.  1.
        -24    1    1    2    0    0  0.19048917600E+02 -0.16731244702E+02 -0.13839803621E+03  0.16206180362E+03  0.80419002446E+02 0.  1.
<mgrwt>
<rscale>  0 0.84320896E+02</rscale>
<asrwt>0</asrwt>
<pdfrwt beam="1">  1        1 0.54759947E-02 0.84320907E+02</pdfrwt>
<pdfrwt beam="2">  1       -1 0.34620630E-01 0.84320907E+02</pdfrwt>
<totfact> 0.10485042E+04</totfact>
</mgrwt>
</event>
<event>
 4    1  0.4999097E-001  0.8793607E+02  0.7546771E-02  0.1307928E+00
         -4   -1    0    0    0  501 -0.00000000000E+00  0.00000000000E+00  0.25220319933E+02  0.25220319933E+02  0.00000000000E+00 0.  1.
          4   -1    0    0  501    0  0.00000000000E+00 -0.00000000000E+00 -0.30785764432E+03  0.30785764432E+03  0.00000000000E+00 0. -1.
         24    1    1    2    0    0 -0.22581217972E+02 -0.27488558274E+02 -0.13070758798E+03  0.15753482710E+03  0.80419002446E+02 0.  1.
        -24    1    1    2    0    0  0.22581217972E+02  0.27488558274E+02 -0.15192973641E+03  0.17554313715E+03  0.80419002446E+02 0. -1.
<mgrwt>
<rscale>  0 0.87936057E+02</rscale>
<asrwt>0</asrwt>
<pdfrwt beam="1">  1        4 0.47362714E-01 0.87936068E+02</pdfrwt>
<pdfrwt beam="2">  1       -4 0.38800493E-02 0.87936068E+02</pdfrwt>
<totfact> 0.22929096E+03</totfact>
</mgrwt>
</event>
<event>
 4    1  0.4999097E-001  0.8508678E+02  0.7546771E-02  0.1315206E+00
          2   -1    0    0  501    0  0.00000000000E+00  0.00000000000E+00  0.52808802099E+03  0.52808802099E+03  0.00000000000E+00 0. -1.
         -2   -1    0    0    0  501 -0.00000000000E+00 -0.00000000000E+00 -0.17374135770E+02  0.17374135770E+02  0.00000000000E+00 0.  1.
         24    1    1    2    0    0 -0.24483829694E+02 -0.13156210449E+02  0.38061495010E+03  0.39000961525E+03  0.80419002446E+02 0.  0.
        -24    1    1    2    0    0  0.24483829694E+02  0.13156210449E+02  0.13009893512E+03  0.15545254152E+03  0.80419002446E+02 0.  1.
<mgrwt>
<rscale>  0 0.85086778E+02</rscale>
<asrwt>0</asrwt>
<pdfrwt beam="1">  1        2 0.81244299E-01 0.85086778E+02</pdfrwt>
<pdfrwt beam="2">  1       -2 0.26729444E-02 0.85086778E+02</pdfrwt>
<totfact> 0.26290887E+04</totfact>
</mgrwt>
</event>
<event>
 4    1  0.4999097E-001  0.8279638E+02  0.7546771E-02  0.1321298E+00
         -1   -1    0    0    0  501 -0.00000000000E+00  0.00000000000E+00  0.27255882981E+02  0.27255882981E+02  0.00000000000E+00 0.  1.
          1   -1    0    0  501    0  0.00000000000E+00 -0.00000000000E+00 -0.43101696569E+03  0.43101696569E+03  0.00000000000E+00 0. -1.
         24    1    1    2    0    0 -0.75712114438E+01  0.18185192658E+02 -0.54009689978E+02  0.98854878689E+02  0.80419002446E+02 0.  0.
        -24    1    1    2    0    0  0.75712114438E+01 -0.18185192658E+02 -0.34975139273E+03  0.35941796998E+03  0.80419002446E+02 0. -1.
<mgrwt>
<rscale>  0 0.82796379E+02</rscale>
<asrwt>0</asrwt>
<pdfrwt beam="1">  1        1 0.66310298E-01 0.82796379E+02</pdfrwt>
<pdfrwt beam="2">  1       -1 0.41932131E-02 0.82796379E+02</pdfrwt>
<totfact> 0.11453369E+04</totfact>
</mgrwt>
</event>
<event>
 4    1  0.4999097E-001  0.8239622E+02  0.7546771E-02  0.1322386E+00
         -2   -1    0    0    0  501 -0.00000000000E+00  0.00000000000E+00  0.17441632162E+03  0.17441632162E+03  0.00000000000E+00 0.  1.
          2   -1    0    0  501    0  0.00000000000E+00 -0.00000000000E+00 -0.92764551245E+02  0.92764551245E+02  0.00000000000E+00 0. -1.
         24    1    1    2    0    0  0.17489881724E+02 -0.40032154999E+01 -0.60947792610E+02  0.10248790697E+03  0.80419002446E+02 0. -1.
        -24    1    1    2    0    0 -0.17489881724E+02  0.40032154999E+01  0.14259956299E+03  0.16469296590E+03  0.80419002446E+02 0.  1.
<mgrwt>
<rscale>  0 0.82396224E+02</rscale>
<asrwt>0</asrwt>
<pdfrwt beam="1">  1        2 0.14271469E-01 0.82396224E+02</pdfrwt>
<pdfrwt beam="2">  1       -2 0.26833280E-01 0.82396224E+02</pdfrwt>
<totfact> 0.47593574E+03</totfact>
</mgrwt>
</event>
<event>
 4    1  0.4999097E-001  0.8379939E+02  0.7546771E-02  0.1318602E+00
         -1   -1    0    0    0  501 -0.00000000000E+00  0.00000000000E+00  0.42908835870E+03  0.42908835870E+03  0.00000000000E+00 0.  1.
          1   -1    0    0  501    0  0.00000000000E+00 -0.00000000000E+00 -0.50831142331E+02  0.50831142331E+02  0.00000000000E+00 0. -1.
         24    1    1    2    0    0  0.23305456589E+02  0.34608139014E+01  0.38671876459E+03  0.39569399841E+03  0.80419002446E+02 0.  0.
        -24    1    1    2    0    0 -0.23305456589E+02 -0.34608139014E+01 -0.84615482158E+01  0.84225502624E+02  0.80419002446E+02 0. -1.
<mgrwt>
<rscale>  0 0.83799388E+02</rscale>
<asrwt>0</asrwt>
<pdfrwt beam="1">  1        1 0.78201760E-02 0.83799388E+02</pdfrwt>
<pdfrwt beam="2">  1       -1 0.66013591E-01 0.83799388E+02</pdfrwt>
<totfact> 0.20484868E+03</totfact>
</mgrwt>
</event>
<event>
 4    1  0.4999097E-001  0.9712880E+02  0.7546771E-02  0.1286452E+00
         -1   -1    0    0    0  501 -0.00000000000E+00  0.00000000000E+00  0.18947646986E+02  0.18947646986E+02  0.00000000000E+00 0.  1.
          1   -1    0    0  501    0  0.00000000000E+00 -0.00000000000E+00 -0.13841866258E+04  0.13841866258E+04  0.00000000000E+00 0. -1.
         24    1    1    2    0    0  0.39125396238E+02  0.37894477150E+02 -0.12123631563E+03  0.15534557674E+03  0.80419002446E+02 0.  1.
        -24    1    1    2    0    0 -0.39125396238E+02 -0.37894477150E+02 -0.12440026631E+04  0.12477886960E+04  0.80419002446E+02 0. -1.
<mgrwt>
<rscale>  0 0.97128801E+02</rscale>
<asrwt>0</asrwt>
<pdfrwt beam="1">  1        1 0.21295180E+00 0.97128801E+02</pdfrwt>
<pdfrwt beam="2">  1       -1 0.29150225E-02 0.97128801E+02</pdfrwt>
<totfact> 0.33024832E+03</totfact>
</mgrwt>
</event>
<event>
 4    1  0.4999097E-001  0.8386876E+02  0.7546771E-02  0.1318418E+00
         -2   -1    0    0    0  501 -0.00000000000E+00  0.00000000000E+00  0.22819690269E+02  0.22819690269E+02  0.00000000000E+00 0.  1.
          2   -1    0    0  501    0  0.00000000000E+00 -0.00000000000E+00 -0.65331706815E+03  0.65331706815E+03  0.00000000000E+00 0. -1.
         24    1    1    2    0    0 -0.15722721031E+02  0.17875940502E+02 -0.56094567640E+03  0.56718076575E+03  0.80419002446E+02 0. -1.
        -24    1    1    2    0    0  0.15722721031E+02 -0.17875940502E+02 -0.69551701473E+02  0.10895599267E+03  0.80419002446E+02 0.  1.
<mgrwt>
<rscale>  0 0.83868762E+02</rscale>
<asrwt>0</asrwt>
<pdfrwt beam="1">  1        2 0.10051031E+00 0.83868762E+02</pdfrwt>
<pdfrwt beam="2">  1       -2 0.35107219E-02 0.83868762E+02</pdfrwt>
<totfact> 0.13949547E+04</totfact>
</mgrwt>
</event>
<event>
 4    1  0.4999097E-001  0.8648336E+02  0.7546771E-02  0.1311598E+00
         -2   -1    0    0    0  501 -0.00000000000E+00  0.00000000000E+00  0.34458457307E+01  0.34458457307E+01  0.00000000000E+00 0.  1.
          2   -1    0    0  501    0  0.00000000000E+00 -0.00000000000E+00 -0.24649113056E+04  0.24649113056E+04  0.00000000000E+00 0. -1.
         24    1    1    2    0    0  0.30333347604E+02  0.95937835118E+01 -0.80423153805E+03  0.80886818172E+03  0.80419002446E+02 0.  1.
        -24    1    1    2    0    0 -0.30333347604E+02 -0.95937835118E+01 -0.16572339218E+04  0.16594889696E+04  0.80419002446E+02 0. -1.
<mgrwt>
<rscale>  0 0.86483354E+02</rscale>
<asrwt>0</asrwt>
<pdfrwt beam="1">  1        2 0.37921725E+00 0.86483365E+02</pdfrwt>
<pdfrwt beam="2">  1       -2 0.53012994E-03 0.86483365E+02</pdfrwt>
<totfact> 0.21404517E+04</totfact>
</mgrwt>
</event>
<event>
 4    1  0.4999097E-001  0.8167692E+02  0.7546771E-02  0.1324359E+00
         -1   -1    0    0    0  501 -0.00000000000E+00  0.00000000000E+00  0.24246392090E+02  0.24246392090E+02  0.00000000000E+00 0.  1.
          1   -1    0    0  501    0  0.00000000000E+00 -0.00000000000E+00 -0.38228474934E+03  0.38228474934E+03  0.00000000000E+00 0. -1.
         24    1    1    2    0    0  0.11488526239E+02 -0.84803620187E+01 -0.71407701803E+02  0.10849045399E+03  0.80419002446E+02 0.  1.
        -24    1    1    2    0    0 -0.11488526239E+02  0.84803620187E+01 -0.28663065545E+03  0.29804068744E+03  0.80419002446E+02 0. -1.
<mgrwt>
<rscale>  0 0.81676917E+02</rscale>
<asrwt>0</asrwt>
<pdfrwt beam="1">  1        1 0.58813039E-01 0.81676917E+02</pdfrwt>
<pdfrwt beam="2">  1       -1 0.37302142E-02 0.81676917E+02</pdfrwt>
<totfact> 0.15723336E+04</totfact>
</mgrwt>
</event>
<event>
 4    1  0.4999097E-001  0.9226515E+02  0.7546771E-02  0.1297457E+00
         -2   -1    0    0    0  501 -0.00000000000E+00  0.00000000000E+00  0.38498368223E+02  0.38498368223E+02  0.00000000000E+00 0.  1.
          2   -1    0    0  501    0  0.00000000000E+00 -0.00000000000E+00 -0.26355654966E+03  0.26355654966E+03  0.00000000000E+00 0. -1.
         24    1    1    2    0    0 -0.21873255931E+00  0.45228236378E+02 -0.17312956428E+03  0.19618028238E+03  0.80419002446E+02 0. -1.
        -24    1    1    2    0    0  0.21873255931E+00 -0.45228236378E+02 -0.51928617151E+02  0.10587463551E+03  0.80419002446E+02 0.  1.
<mgrwt>
<rscale>  0 0.92265146E+02</rscale>
<asrwt>0</asrwt>
<pdfrwt beam="1">  1        2 0.40547160E-01 0.92265146E+02</pdfrwt>
<pdfrwt beam="2">  1       -2 0.59228261E-02 0.92265146E+02</pdfrwt>
<totfact> 0.17134339E+04</totfact>
</mgrwt>
</event>
<event>
 4    1  0.4999097E-001  0.9308979E+02  0.7546771E-02  0.1295537E+00
          2   -1    0    0  501    0  0.00000000000E+00  0.00000000000E+00  0.11805264050E+03  0.11805264050E+03  0.00000000000E+00 0. -1.
         -2   -1    0    0    0  501 -0.00000000000E+00 -0.00000000000E+00 -0.79655372734E+02  0.79655372734E+02  0.00000000000E+00 0.  1.
         24    1    1    2    0    0  0.42104038605E+02  0.20633536641E+02  0.46888673427E+02  0.10423174445E+03  0.80419002446E+02 0. -1.
        -24    1    1    2    0    0 -0.42104038605E+02 -0.20633536641E+02 -0.84914056606E+01  0.93476268783E+02  0.80419002446E+02 0.  0.
<mgrwt>
<rscale>  0 0.93089789E+02</rscale>
<asrwt>0</asrwt>
<pdfrwt beam="1">  1        2 0.18161945E-01 0.93089789E+02</pdfrwt>
<pdfrwt beam="2">  1       -2 0.12254673E-01 0.93089789E+02</pdfrwt>
<totfact> 0.13380290E+04</totfact>
</mgrwt>
</event>
<event>
 4    1  0.4999097E-001  0.8298929E+02  0.7546771E-02  0.1320776E+00
         -1   -1    0    0    0  501 -0.00000000000E+00  0.00000000000E+00  0.81689339612E+01  0.81689339612E+01  0.00000000000E+00 0.  1.
          1   -1    0    0  501    0  0.00000000000E+00 -0.00000000000E+00 -0.85345550837E+03  0.85345550837E+03  0.00000000000E+00 0. -1.
         24    1    1    2    0    0  0.20401067217E+02  0.19490913868E+01 -0.47010116952E+03  0.47737022115E+03  0.80419002446E+02 0. -1.
        -24    1    1    2    0    0 -0.20401067217E+02 -0.19490913868E+01 -0.37518540489E+03  0.38425422118E+03  0.80419002446E+02 0.  1.
<mgrwt>
<rscale>  0 0.82989277E+02</rscale>
<asrwt>0</asrwt>
<pdfrwt beam="1">  1        1 0.13130081E+00 0.82989288E+02</pdfrwt>
<pdfrwt beam="2">  1       -1 0.12567594E-02 0.82989288E+02</pdfrwt>
<totfact> 0.25399241E+04</totfact>
</mgrwt>
</event>
<event>
 4    1  0.4999097E-001  0.8897595E+02  0.7546771E-02  0.1305351E+00
         -2   -1    0    0    0  501 -0.00000000000E+00  0.00000000000E+00  0.61109627005E+02  0.61109627005E+02  0.00000000000E+00 0.  1.
          2   -1    0    0  501    0  0.00000000000E+00 -0.00000000000E+00 -0.14045740167E+03  0.14045740167E+03  0.00000000000E+00 0. -1.
         24    1    1    2    0    0 -0.28079737751E+02 -0.25710542595E+02 -0.67759793516E+02  0.11183965864E+03  0.80419002446E+02 0.  1.
        -24    1    1    2    0    0  0.28079737751E+02  0.25710542595E+02 -0.11587981152E+02  0.89727370040E+02  0.80419002446E+02 0. -1.
<mgrwt>
<rscale>  0 0.88975950E+02</rscale>
<asrwt>0</asrwt>
<pdfrwt beam="1">  1        2 0.21608831E-01 0.88975950E+02</pdfrwt>
<pdfrwt beam="2">  1       -2 0.94014812E-02 0.88975950E+02</pdfrwt>
<totfact> 0.16603410E+04</totfact>
</mgrwt>
</event>
<event>
 4    1  0.4999097E-001  0.8128000E+02  0.7546771E-02  0.1325458E+00
         -2   -1    0    0    0  501 -0.00000000000E+00  0.00000000000E+00  0.29987720149E+02  0.29987720149E+02  0.00000000000E+00 0.  1.
          2   -1    0    0  501    0  0.00000000000E+00 -0.00000000000E+00 -0.21156337538E+04  0.21156337538E+04  0.00000000000E+00 0. -1.
         24    1    1    2    0    0  0.67776860812E+01 -0.96584716165E+01 -0.20582417349E+04  0.20598459842E+04  0.80419002446E+02 0. -1.
        -24    1    1    2    0    0 -0.67776860812E+01  0.96584716165E+01 -0.27404298695E+02  0.85775489762E+02  0.80419002446E+02 0.  1.
<mgrwt>
<rscale>  0 0.81280004E+02</rscale>
<asrwt>0</asrwt>
<pdfrwt beam="1">  1        2 0.32548211E+00 0.81280004E+02</pdfrwt>
<pdfrwt beam="2">  1       -2 0.46134955E-02 0.81280004E+02</pdfrwt>
<totfact> 0.14653261E+03</totfact>
</mgrwt>
</event>
<event>
 4    1  0.4999097E-001  0.8772476E+02  0.7546771E-02  0.1308457E+00
          2   -1    0    0  501    0  0.00000000000E+00  0.00000000000E+00  0.16224195761E+04  0.16224195761E+04  0.00000000000E+00 0. -1.
         -2   -1    0    0    0  501 -0.00000000000E+00 -0.00000000000E+00 -0.29700540315E+02  0.29700540315E+02  0.00000000000E+00 0.  1.
         24    1    1    2    0    0  0.92354260097E+01  0.33810125404E+02  0.15535892725E+04  0.15560640286E+04  0.80419002446E+02 0. -1.
        -24    1    1    2    0    0 -0.92354260097E+01 -0.33810125404E+02  0.39129763335E+02  0.96056087816E+02  0.80419002446E+02 0.  1.
<mgrwt>
<rscale>  0 0.87724761E+02</rscale>
<asrwt>0</asrwt>
<pdfrwt beam="1">  1        2 0.24960294E+00 0.87724761E+02</pdfrwt>
<pdfrwt beam="2">  1       -2 0.45693151E-02 0.87724761E+02</pdfrwt>
<totfact> 0.26246198E+03</totfact>
</mgrwt>
</event>
<event>
 4    1  0.4999097E-001  0.8943649E+02  0.7546771E-02  0.1304222E+00
         -2   -1    0    0    0  501 -0.00000000000E+00  0.00000000000E+00  0.46532782673E+01  0.46532782673E+01  0.00000000000E+00 0.  1.
          2   -1    0    0  501    0  0.00000000000E+00 -0.00000000000E+00 -0.17369975756E+04  0.17369975756E+04  0.00000000000E+00 0. -1.
         24    1    1    2    0    0 -0.58434578724E+00 -0.39132195162E+02 -0.95486643300E+03  0.95904577105E+03  0.80419002446E+02 0.  1.
        -24    1    1    2    0    0  0.58434578724E+00  0.39132195162E+02 -0.77747786429E+03  0.78260508277E+03  0.80419002446E+02 0. -1.
<mgrwt>
<rscale>  0 0.89436492E+02</rscale>
<asrwt>0</asrwt>
<pdfrwt beam="1">  1        2 0.26723063E+00 0.89436492E+02</pdfrwt>
<pdfrwt beam="2">  1       -2 0.71588833E-03 0.89436492E+02</pdfrwt>
<totfact> 0.32900160E+04</totfact>
</mgrwt>
</event>
<event>
 4    1  0.4999097E-001  0.9628159E+02  0.7546771E-02  0.1288315E+00
         -2   -1    0    0    0  501 -0.00000000000E+00  0.00000000000E+00  0.11756833302E+02  0.11756833302E+02  0.00000000000E+00 0.  1.
          2   -1    0    0  501    0  0.00000000000E+00 -0.00000000000E+00 -0.81252479192E+03  0.81252479192E+03  0.00000000000E+00 0. -1.
         24    1    1    2    0    0  0.35180910421E+02 -0.39563023312E+02 -0.47126789477E+03  0.48100267553E+03  0.80419002446E+02 0. -1.
        -24    1    1    2    0    0 -0.35180910421E+02  0.39563023312E+02 -0.32950006384E+03  0.34327894969E+03  0.80419002446E+02 0.  1.
<mgrwt>
<rscale>  0 0.96281593E+02</rscale>
<asrwt>0</asrwt>
<pdfrwt beam="1">  1        2 0.12500382E+00 0.96281593E+02</pdfrwt>
<pdfrwt beam="2">  1       -2 0.18087435E-02 0.96281593E+02</pdfrwt>
<totfact> 0.28482153E+04</totfact>
</mgrwt>
</event>
<event>
 4    1  0.4999097E-001  0.8547545E+02  0.7546771E-02  0.1314194E+00
          2   -1    0    0  501    0  0.00000000000E+00  0.00000000000E+00  0.14217330906E+04  0.14217330906E+04  0.00000000000E+00 0. -1.
         -2   -1    0    0    0  501 -0.00000000000E+00 -0.00000000000E+00 -0.55343265890E+01  0.55343265890E+01  0.00000000000E+00 0.  1.
         24    1    1    2    0    0 -0.10333584684E+02  0.27056487910E+02  0.89886992684E+03  0.90292480188E+03  0.80419002446E+02 0.  1.
        -24    1    1    2    0    0  0.10333584684E+02 -0.27056487910E+02  0.51732883716E+03  0.52434261530E+03  0.80419002446E+02 0.  1.
<mgrwt>
<rscale>  0 0.85475449E+02</rscale>
<asrwt>0</asrwt>
<pdfrwt beam="1">  1        2 0.21872788E+00 0.85475449E+02</pdfrwt>
<pdfrwt beam="2">  1       -2 0.85143600E-03 0.85475449E+02</pdfrwt>
<totfact> 0.37082937E+04</totfact>
</mgrwt>
</event>
<event>
 4    1  0.4999097E-001  0.1377235E+03  0.7546771E-02  0.1216425E+00
          1   -1    0    0  501    0  0.00000000000E+00  0.00000000000E+00  0.84147788228E+03  0.84147788228E+03  0.00000000000E+00 0. -1.
         -1   -1    0    0    0  501 -0.00000000000E+00 -0.00000000000E+00 -0.90315784777E+02  0.90315784777E+02  0.00000000000E+00 0.  1.
         24    1    1    2    0    0 -0.58981690082E+02 -0.94982707497E+02 -0.28010381267E+02  0.14054306067E+03  0.80419002446E+02 0.  1.
        -24    1    1    2    0    0  0.58981690082E+02  0.94982707497E+02  0.77917247877E+03  0.79125060639E+03  0.80419002446E+02 0. -1.
<mgrwt>
<rscale>  0 0.13772353E+03</rscale>
<asrwt>0</asrwt>
<pdfrwt beam="1">  1        1 0.12945813E+00 0.13772353E+03</pdfrwt>
<pdfrwt beam="2">  1       -1 0.13894737E-01 0.13772353E+03</pdfrwt>
<totfact> 0.77964021E+02</totfact>
</mgrwt>
</event>
<event>
 4    1  0.4999097E-001  0.9366957E+02  0.7546771E-02  0.1294201E+00
         -4   -1    0    0    0  501 -0.00000000000E+00  0.00000000000E+00  0.80862691230E+03  0.80862691230E+03  0.00000000000E+00 0.  1.
          4   -1    0    0  501    0  0.00000000000E+00 -0.00000000000E+00 -0.20885094357E+02  0.20885094357E+02  0.00000000000E+00 0. -1.
         24    1    1    2    0    0 -0.21977333690E+02  0.42705619124E+02  0.10637952578E+03  0.14174128742E+03  0.80419002446E+02 0. -1.
        -24    1    1    2    0    0  0.21977333690E+02 -0.42705619124E+02  0.68136229216E+03  0.68777071924E+03  0.80419002446E+02 0.  1.
<mgrwt>
<rscale>  0 0.93669574E+02</rscale>
<asrwt>0</asrwt>
<pdfrwt beam="1">  1        4 0.32130921E-02 0.93669574E+02</pdfrwt>
<pdfrwt beam="2">  1       -4 0.12440412E+00 0.93669574E+02</pdfrwt>
<totfact> 0.38044192E+02</totfact>
</mgrwt>
</event>
<event>
 4    1  0.4999097E-001  0.8565145E+02  0.7546771E-02  0.1313738E+00
         -2   -1    0    0    0  501 -0.00000000000E+00  0.00000000000E+00  0.92545463411E+02  0.92545463411E+02  0.00000000000E+00 0.  1.
          2   -1    0    0  501    0  0.00000000000E+00 -0.00000000000E+00 -0.13158905775E+03  0.13158905775E+03  0.00000000000E+00 0. -1.
         24    1    1    2    0    0 -0.39534655245E+01  0.29211739908E+02 -0.90185219409E+02  0.12437662719E+03  0.80419002446E+02 0. -1.
        -24    1    1    2    0    0  0.39534655245E+01 -0.29211739908E+02  0.51141625074E+02  0.99757893962E+02  0.80419002446E+02 0.  1.
<mgrwt>
<rscale>  0 0.85651454E+02</rscale>
<asrwt>0</asrwt>
<pdfrwt beam="1">  1        2 0.20244470E-01 0.85651454E+02</pdfrwt>
<pdfrwt beam="2">  1       -2 0.14237764E-01 0.85651454E+02</pdfrwt>
<totfact> 0.92504088E+03</totfact>
</mgrwt>
</event>
<event>
 4    1  0.4999097E-001  0.8552491E+02  0.7546771E-02  0.1314066E+00
          2   -1    0    0  501    0  0.00000000000E+00  0.00000000000E+00  0.45226645214E+03  0.45226645214E+03  0.00000000000E+00 0. -1.
         -2   -1    0    0    0  501 -0.00000000000E+00 -0.00000000000E+00 -0.55140218045E+02  0.55140218045E+02  0.00000000000E+00 0.  1.
         24    1    1    2    0    0  0.25771498338E+02  0.13532331515E+02  0.41183891677E+03  0.42062549072E+03  0.80419002446E+02 0. -1.
        -24    1    1    2    0    0 -0.25771498338E+02 -0.13532331515E+02 -0.14712682678E+02  0.86781179462E+02  0.80419002446E+02 0.  0.
<mgrwt>
<rscale>  0 0.85524909E+02</rscale>
<asrwt>0</asrwt>
<pdfrwt beam="1">  1        2 0.69579452E-01 0.85524909E+02</pdfrwt>
<pdfrwt beam="2">  1       -2 0.84831108E-02 0.85524909E+02</pdfrwt>
<totfact> 0.56068338E+03</totfact>
</mgrwt>
</event>
<event>
 4    1  0.4999097E-001  0.8353799E+02  0.7546771E-02  0.1319301E+00
         -2   -1    0    0    0  501 -0.00000000000E+00  0.00000000000E+00  0.72517669384E+02  0.72517669384E+02  0.00000000000E+00 0.  1.
          2   -1    0    0  501    0  0.00000000000E+00 -0.00000000000E+00 -0.10906154593E+03  0.10906154593E+03  0.00000000000E+00 0. -1.
         24    1    1    2    0    0 -0.18605833386E+02 -0.12853154024E+02 -0.49409756009E+02  0.97056275158E+02  0.80419002446E+02 0. -1.
        -24    1    1    2    0    0  0.18605833386E+02  0.12853154024E+02  0.12865879461E+02  0.84522940158E+02  0.80419002446E+02 0.  1.
<mgrwt>
<rscale>  0 0.83537995E+02</rscale>
<asrwt>0</asrwt>
<pdfrwt beam="1">  1        2 0.16778699E-01 0.83537995E+02</pdfrwt>
<pdfrwt beam="2">  1       -2 0.11156565E-01 0.83537995E+02</pdfrwt>
<totfact> 0.16778660E+04</totfact>
</mgrwt>
</event>
<event>
 4    1  0.4999097E-001  0.8240022E+02  0.7546771E-02  0.1322375E+00
         -4   -1    0    0    0  501 -0.00000000000E+00  0.00000000000E+00  0.57816803243E+02  0.57816803243E+02  0.00000000000E+00 0.  1.
          4   -1    0    0  501    0  0.00000000000E+00 -0.00000000000E+00 -0.10429350709E+04  0.10429350709E+04  0.00000000000E+00 0. -1.
         24    1    1    2    0    0  0.65564743908E+01 -0.16721044179E+02 -0.10110232508E+04  0.10143755766E+04  0.80419002446E+02 0. -1.
        -24    1    1    2    0    0 -0.65564743908E+01  0.16721044179E+02  0.25904983171E+02  0.86376297573E+02  0.80419002446E+02 0.  1.
<mgrwt>
<rscale>  0 0.82400222E+02</rscale>
<asrwt>0</asrwt>
<pdfrwt beam="1">  1        4 0.16045155E+00 0.82400222E+02</pdfrwt>
<pdfrwt beam="2">  1       -4 0.88948928E-02 0.82400222E+02</pdfrwt>
<totfact> 0.38753041E+01</totfact>
</mgrwt>
</event>
<event>
 4    1  0.4999097E-001  0.1117058E+03  0.7546771E-02  0.1257443E+00
          2   -1    0    0  501    0  0.00000000000E+00  0.00000000000E+00  0.86061634679E+03  0.86061634679E+03  0.00000000000E+00 0. -1.
         -2   -1    0    0    0  501 -0.00000000000E+00 -0.00000000000E+00 -0.16111993927E+02  0.16111993927E+02  0.00000000000E+00 0.  1.
         24    1    1    2    0    0  0.65175958770E+02 -0.41988769000E+02  0.56094718640E+03  0.57196147091E+03  0.80419002446E+02 0.  1.
        -24    1    1    2    0    0 -0.65175958770E+02  0.41988769000E+02  0.28355716646E+03  0.30476686980E+03  0.80419002446E+02 0.  0.
<mgrwt>
<rscale>  0 0.11170577E+03</rscale>
<asrwt>0</asrwt>
<pdfrwt beam="1">  1        2 0.13240248E+00 0.11170577E+03</pdfrwt>
<pdfrwt beam="2">  1       -2 0.24787690E-02 0.11170577E+03</pdfrwt>
<totfact> 0.17037821E+04</totfact>
</mgrwt>
</event>
<event>
 4    1  0.4999097E-001  0.8696866E+02  0.7546771E-02  0.1310363E+00
          2   -1    0    0  501    0  0.00000000000E+00  0.00000000000E+00  0.32386145987E+04  0.32386145987E+04  0.00000000000E+00 0. -1.
         -2   -1    0    0    0  501 -0.00000000000E+00 -0.00000000000E+00 -0.32336045985E+01  0.32336045985E+01  0.00000000000E+00 0.  1.
         24    1    1    2    0    0 -0.33036108464E+02  0.22241219670E+01  0.24719708046E+04  0.24735001932E+04  0.80419002446E+02 0. -1.
        -24    1    1    2    0    0  0.33036108464E+02 -0.22241219670E+01  0.76341018955E+03  0.76834801011E+03  0.80419002446E+02 0.  1.
<mgrwt>
<rscale>  0 0.86968656E+02</rscale>
<asrwt>0</asrwt>
<pdfrwt beam="1">  1        2 0.49824581E+00 0.86968656E+02</pdfrwt>
<pdfrwt beam="2">  1       -2 0.49748022E-03 0.86968656E+02</pdfrwt>
<totfact> 0.87055644E+03</totfact>
</mgrwt>
</event>
<event>
 4    1  0.4999097E-001  0.8533218E+02  0.7546771E-02  0.1314566E+00
         -2   -1    0    0    0  501 -0.00000000000E+00  0.00000000000E+00  0.12617154218E+03  0.12617154218E+03  0.00000000000E+00 0.  1.
          2   -1    0    0  501    0  0.00000000000E+00 -0.00000000000E+00 -0.57728283204E+02  0.57728283204E+02  0.00000000000E+00 0. -1.
         24    1    1    2    0    0  0.19828720520E+02 -0.20522829871E+02  0.32665595666E+02  0.91370792915E+02  0.80419002446E+02 0.  0.
        -24    1    1    2    0    0 -0.19828720520E+02  0.20522829871E+02  0.35777663310E+02  0.92529032469E+02  0.80419002446E+02 0.  1.
<mgrwt>
<rscale>  0 0.85332178E+02</rscale>
<asrwt>0</asrwt>
<pdfrwt beam="1">  1        2 0.88812744E-02 0.85332178E+02</pdfrwt>
<pdfrwt beam="2">  1       -2 0.19411006E-01 0.85332178E+02</pdfrwt>
<totfact> 0.14600828E+04</totfact>
</mgrwt>
</event>
<event>
 4    1  0.4999097E-001  0.8195576E+02  0.7546771E-02  0.1323591E+00
          2   -1    0    0  501    0  0.00000000000E+00  0.00000000000E+00  0.10278537831E+03  0.10278537831E+03  0.00000000000E+00 0. -1.
         -2   -1    0    0    0  501 -0.00000000000E+00 -0.00000000000E+00 -0.11829450301E+04  0.11829450301E+04  0.00000000000E+00 0.  1.
         24    1    1    2    0    0 -0.57439518778E+01 -0.14715199397E+02  0.84776822441E+02  0.11791461171E+03  0.80419002446E+02 0. -1.
        -24    1    1    2    0    0  0.57439518778E+01  0.14715199397E+02 -0.11649364742E+04  0.11678157967E+04  0.80419002446E+02 0.  1.
<mgrwt>
<rscale>  0 0.81955757E+02</rscale>
<asrwt>0</asrwt>
<pdfrwt beam="1">  1        2 0.15813136E-01 0.81955757E+02</pdfrwt>
<pdfrwt beam="2">  1       -2 0.18199154E+00 0.81955757E+02</pdfrwt>
<totfact> 0.70964332E+01</totfact>
</mgrwt>
</event>
<event>
 4    1  0.4999097E-001  0.1009270E+03  0.7546771E-02  0.1278359E+00
         -2   -1    0    0    0  501 -0.00000000000E+00  0.00000000000E+00  0.78388396885E+01  0.78388396885E+01  0.00000000000E+00 0.  1.
          2   -1    0    0  501    0  0.00000000000E+00 -0.00000000000E+00 -0.13033617904E+04  0.13033617904E+04  0.00000000000E+00 0. -1.
         24    1    1    2    0    0  0.38204555741E+02 -0.47533692541E+02 -0.61188931600E+03  0.62015706961E+03  0.80419002446E+02 0.  0.
        -24    1    1    2    0    0 -0.38204555741E+02  0.47533692541E+02 -0.68363363467E+03  0.69104356043E+03  0.80419002446E+02 0.  1.
<mgrwt>
<rscale>  0 0.10092700E+03</rscale>
<asrwt>0</asrwt>
<pdfrwt beam="1">  1        2 0.20051721E+00 0.10092701E+03</pdfrwt>
<pdfrwt beam="2">  1       -2 0.12059753E-02 0.10092701E+03</pdfrwt>
<totfact> 0.26493652E+04</totfact>
</mgrwt>
</event>
<event>
 4    1  0.4999097E-001  0.9109624E+02  0.7546771E-02  0.1300219E+00
         -1   -1    0    0    0  501 -0.00000000000E+00  0.00000000000E+00  0.16355398089E+02  0.16355398089E+02  0.00000000000E+00 0.  1.
          1   -1    0    0  501    0  0.00000000000E+00 -0.00000000000E+00 -0.11128858040E+04  0.11128858040E+04  0.00000000000E+00 0. -1.
         24    1    1    2    0    0 -0.42634334368E+02  0.36907999873E+01 -0.13179120984E+03  0.16021063453E+03  0.80419002446E+02 0.  1.
        -24    1    1    2    0    0  0.42634334368E+02 -0.36907999873E+01 -0.96473919603E+03  0.96903056752E+03  0.80419002446E+02 0. -1.
<mgrwt>
<rscale>  0 0.91096237E+02</rscale>
<asrwt>0</asrwt>
<pdfrwt beam="1">  1        1 0.17121326E+00 0.91096237E+02</pdfrwt>
<pdfrwt beam="2">  1       -1 0.25162143E-02 0.91096237E+02</pdfrwt>
<totfact> 0.61754000E+03</totfact>
</mgrwt>
</event>
<event>
 4    1  0.4999097E-001  0.8542229E+02  0.7546771E-02  0.1314332E+00
         -2   -1    0    0    0  501 -0.00000000000E+00  0.00000000000E+00  0.59417946371E+01  0.59417946371E+01  0.00000000000E+00 0.  1.
          2   -1    0    0  501    0  0.00000000000E+00 -0.00000000000E+00 -0.12280838214E+04  0.12280838214E+04  0.00000000000E+00 0. -1.
         24    1    1    2    0    0 -0.24499816283E+01 -0.28701036432E+02 -0.61274961122E+03  0.61867524106E+03  0.80419002446E+02 0.  1.
        -24    1    1    2    0    0  0.24499816283E+01  0.28701036432E+02 -0.60939241551E+03  0.61535037494E+03  0.80419002446E+02 0. -1.
<mgrwt>
<rscale>  0 0.85422291E+02</rscale>
<asrwt>0</asrwt>
<pdfrwt beam="1">  1        2 0.18893608E+00 0.85422291E+02</pdfrwt>
<pdfrwt beam="2">  1       -2 0.91412174E-03 0.85422291E+02</pdfrwt>
<totfact> 0.42393094E+04</totfact>
</mgrwt>
</event>
<event>
 4    1  0.4999097E-001  0.1177057E+03  0.7546771E-02  0.1246931E+00
          1   -1    0    0  501    0  0.00000000000E+00  0.00000000000E+00  0.33432055272E+03  0.33432055272E+03  0.00000000000E+00 0. -1.
         -1   -1    0    0    0  501 -0.00000000000E+00 -0.00000000000E+00 -0.45472024327E+02  0.45472024327E+02  0.00000000000E+00 0.  1.
         24    1    1    2    0    0  0.76802048999E+02 -0.38585825361E+02  0.20096254559E+03  0.23289607411E+03  0.80419002446E+02 0. -1.
        -24    1    1    2    0    0 -0.76802048999E+02  0.38585825361E+02  0.87885982802E+02  0.14689650294E+03  0.80419002446E+02 0.  1.
<mgrwt>
<rscale>  0 0.11770574E+03</rscale>
<asrwt>0</asrwt>
<pdfrwt beam="1">  1        1 0.51433930E-01 0.11770575E+03</pdfrwt>
<pdfrwt beam="2">  1       -1 0.69956963E-02 0.11770575E+03</pdfrwt>
<totfact> 0.76060189E+03</totfact>
</mgrwt>
</event>
<event>
 4    1  0.4999097E-001  0.1430542E+03  0.7546771E-02  0.1209277E+00
          1   -1    0    0  501    0  0.00000000000E+00  0.00000000000E+00  0.64262033786E+02  0.64262033786E+02  0.00000000000E+00 0. -1.
         -1   -1    0    0    0  501 -0.00000000000E+00 -0.00000000000E+00 -0.32705286739E+03  0.32705286739E+03  0.00000000000E+00 0.  1.
         24    1    1    2    0    0 -0.11565386652E+03 -0.24929367964E+02 -0.16312075618E+03  0.21696287074E+03  0.80419002446E+02 0.  1.
        -24    1    1    2    0    0  0.11565386652E+03  0.24929367964E+02 -0.99670077426E+02  0.17435203044E+03  0.80419002446E+02 0. -1.
<mgrwt>
<rscale>  0 0.14305421E+03</rscale>
<asrwt>0</asrwt>
<pdfrwt beam="1">  1        1 0.98864668E-02 0.14305421E+03</pdfrwt>
<pdfrwt beam="2">  1       -1 0.50315826E-01 0.14305421E+03</pdfrwt>
<totfact> 0.25660322E+03</totfact>
</mgrwt>
</event>
<event>
 4    1  0.4999097E-001  0.9111019E+02  0.7546771E-02  0.1300185E+00
         -4   -1    0    0    0  501 -0.00000000000E+00  0.00000000000E+00  0.56909341776E+02  0.56909341776E+02  0.00000000000E+00 0.  1.
          4   -1    0    0  501    0  0.00000000000E+00 -0.00000000000E+00 -0.47070422940E+03  0.47070422940E+03  0.00000000000E+00 0. -1.
         24    1    1    2    0    0 -0.53263371104E+01  0.42490945565E+02 -0.42604988982E+03  0.43568288340E+03  0.80419002446E+02 0. -1.
        -24    1    1    2    0    0  0.53263371104E+01 -0.42490945565E+02  0.12255002191E+02  0.91930687776E+02  0.80419002446E+02 0.  1.
<mgrwt>
<rscale>  0 0.91110188E+02</rscale>
<asrwt>0</asrwt>
<pdfrwt beam="1">  1        4 0.72416034E-01 0.91110188E+02</pdfrwt>
<pdfrwt beam="2">  1       -4 0.87552835E-02 0.91110188E+02</pdfrwt>
<totfact> 0.25898266E+02</totfact>
</mgrwt>
</event>
<event>
 4    1  0.4999097E-001  0.8428674E+02  0.7546771E-02  0.1317308E+00
          2   -1    0    0  501    0  0.00000000000E+00  0.00000000000E+00  0.12602963621E+04  0.12602963621E+04  0.00000000000E+00 0. -1.
         -2   -1    0    0    0  501 -0.00000000000E+00 -0.00000000000E+00 -0.55640503132E+02  0.55640503132E+02  0.00000000000E+00 0.  1.
         24    1    1    2    0    0  0.21198314711E+02  0.13699253946E+02  0.12260769478E+04  0.12289706815E+04  0.80419002446E+02 0. -1.
        -24    1    1    2    0    0 -0.21198314711E+02 -0.13699253946E+02 -0.21421088863E+02  0.86966183702E+02  0.80419002446E+02 0.  1.
<mgrwt>
<rscale>  0 0.84286737E+02</rscale>
<asrwt>0</asrwt>
<pdfrwt beam="1">  1        2 0.19389173E+00 0.84286737E+02</pdfrwt>
<pdfrwt beam="2">  1       -2 0.85600784E-02 0.84286737E+02</pdfrwt>
<totfact> 0.15693049E+03</totfact>
</mgrwt>
</event>
<event>
 4    1  0.4999097E-001  0.8052766E+02  0.7546771E-02  0.1327561E+00
         -2   -1    0    0    0  501 -0.00000000000E+00  0.00000000000E+00  0.17634399753E+03  0.17634399753E+03  0.00000000000E+00 0.  1.
          2   -1    0    0  501    0  0.00000000000E+00 -0.00000000000E+00 -0.36788050068E+02  0.36788050068E+02  0.00000000000E+00 0. -1.
         24    1    1    2    0    0 -0.36486901467E+01  0.20432250943E+01  0.67624913835E+02  0.10515622965E+03  0.80419002446E+02 0.  0.
        -24    1    1    2    0    0  0.36486901467E+01 -0.20432250943E+01  0.71931033626E+02  0.10797581795E+03  0.80419002446E+02 0. -1.
<mgrwt>
<rscale>  0 0.80527658E+02</rscale>
<asrwt>0</asrwt>
<pdfrwt beam="1">  1        2 0.56597001E-02 0.80527658E+02</pdfrwt>
<pdfrwt beam="2">  1       -2 0.27129845E-01 0.80527658E+02</pdfrwt>
<totfact> 0.14391653E+04</totfact>
</mgrwt>
</event>
<event>
 4    1  0.4999097E-001  0.1002344E+03  0.7546771E-02  0.1279804E+00
         -1   -1    0    0    0  501 -0.00000000000E+00  0.00000000000E+00  0.43574707715E+02  0.43574707715E+02  0.00000000000E+00 0.  1.
          1   -1    0    0  501    0  0.00000000000E+00 -0.00000000000E+00 -0.27424271968E+03  0.27424271968E+03  0.00000000000E+00 0. -1.
         24    1    1    2    0    0 -0.19152279548E+00 -0.59830366901E+02 -0.51918405626E+02  0.11288244452E+03  0.80419002446E+02 0.  1.
        -24    1    1    2    0    0  0.19152279548E+00  0.59830366901E+02 -0.17874960634E+03  0.20493498288E+03  0.80419002446E+02 0. -1.
<mgrwt>
<rscale>  0 0.10023435E+03</rscale>
<asrwt>0</asrwt>
<pdfrwt beam="1">  1        1 0.42191186E-01 0.10023435E+03</pdfrwt>
<pdfrwt beam="2">  1       -1 0.67038014E-02 0.10023435E+03</pdfrwt>
<totfact> 0.10210279E+04</totfact>
</mgrwt>
</event>
<event>
 4    1  0.4999097E-001  0.9387946E+02  0.7546771E-02  0.1293720E+00
          3   -1    0    0  501    0  0.00000000000E+00  0.00000000000E+00  0.31745387685E+02  0.31745387685E+02  0.00000000000E+00 0. -1.
         -3   -1    0    0    0  501 -0.00000000000E+00 -0.00000000000E+00 -0.44828082045E+03  0.44828082045E+03  0.00000000000E+00 0.  1.
         24    1    1    2    0    0 -0.26075029604E+02  0.40819482672E+02 -0.35635535996E+03  0.36851390185E+03  0.80419002446E+02 0.  1.
        -24    1    1    2    0    0  0.26075029604E+02 -0.40819482672E+02 -0.60180072804E+02  0.11151230628E+03  0.80419002446E+02 0. -1.
<mgrwt>
<rscale>  0 0.93879461E+02</rscale>
<asrwt>0</asrwt>
<pdfrwt beam="1">  1        3 0.48839057E-02 0.93879461E+02</pdfrwt>
<pdfrwt beam="2">  1       -3 0.68966282E-01 0.93879461E+02</pdfrwt>
<totfact> 0.10512084E+03</totfact>
</mgrwt>
</event>
<event>
 4    1  0.4999097E-001  0.9208682E+02  0.7546771E-02  0.1297875E+00
          1   -1    0    0  501    0  0.00000000000E+00  0.00000000000E+00  0.99760872484E+02  0.99760872484E+02  0.00000000000E+00 0. -1.
         -1   -1    0    0    0  501 -0.00000000000E+00 -0.00000000000E+00 -0.92843847059E+02  0.92843847059E+02  0.00000000000E+00 0.  1.
         24    1    1    2    0    0  0.40056852041E+02  0.20204330854E+02 -0.24527394404E+02  0.95297300126E+02  0.80419002446E+02 0. -1.
        -24    1    1    2    0    0 -0.40056852041E+02 -0.20204330854E+02  0.31444419830E+02  0.97307419416E+02  0.80419002446E+02 0.  1.
<mgrwt>
<rscale>  0 0.92086820E+02</rscale>
<asrwt>0</asrwt>
<pdfrwt beam="1">  1        1 0.15347827E-01 0.92086820E+02</pdfrwt>
<pdfrwt beam="2">  1       -1 0.14283669E-01 0.92086820E+02</pdfrwt>
<totfact> 0.11356040E+04</totfact>
</mgrwt>
</event>
<event>
 4    1  0.4999097E-001  0.9188183E+02  0.7546771E-02  0.1298358E+00
         -3   -1    0    0    0  501 -0.00000000000E+00  0.00000000000E+00  0.26906085758E+03  0.26906085758E+03  0.00000000000E+00 0.  1.
          3   -1    0    0  501    0  0.00000000000E+00 -0.00000000000E+00 -0.71971227683E+02  0.71971227683E+02  0.00000000000E+00 0. -1.
         24    1    1    2    0    0  0.56358745503E+01 -0.44082786236E+02  0.22660642389E+03  0.24452554555E+03  0.80419002446E+02 0.  1.
        -24    1    1    2    0    0 -0.56358745503E+01  0.44082786236E+02 -0.29516793997E+02  0.96506539709E+02  0.80419002446E+02 0.  0.
<mgrwt>
<rscale>  0 0.91881832E+02</rscale>
<asrwt>0</asrwt>
<pdfrwt beam="1">  1        3 0.11072497E-01 0.91881832E+02</pdfrwt>
<pdfrwt beam="2">  1       -3 0.41393977E-01 0.91881832E+02</pdfrwt>
<totfact> 0.78250817E+02</totfact>
</mgrwt>
</event>
<event>
 4    1  0.4999097E-001  0.8411584E+02  0.7546771E-02  0.1317761E+00
          1   -1    0    0  501    0  0.00000000000E+00  0.00000000000E+00  0.14894004862E+03  0.14894004862E+03  0.00000000000E+00 0. -1.
         -1   -1    0    0    0  501 -0.00000000000E+00 -0.00000000000E+00 -0.15170998971E+03  0.15170998971E+03  0.00000000000E+00 0.  1.
         24    1    1    2    0    0 -0.16722736156E+02 -0.18127565534E+02 -0.12597042821E+03  0.15147284665E+03  0.80419002446E+02 0.  1.
        -24    1    1    2    0    0  0.16722736156E+02  0.18127565534E+02  0.12320048712E+03  0.14917719168E+03  0.80419002446E+02 0.  0.
<mgrwt>
<rscale>  0 0.84115840E+02</rscale>
<asrwt>0</asrwt>
<pdfrwt beam="1">  1        1 0.22913854E-01 0.84115840E+02</pdfrwt>
<pdfrwt beam="2">  1       -1 0.23339998E-01 0.84115840E+02</pdfrwt>
<totfact> 0.31401679E+03</totfact>
</mgrwt>
</event>
<event>
 4    1  0.4999097E-001  0.9471313E+02  0.7546771E-02  0.1291824E+00
          3   -1    0    0  501    0  0.00000000000E+00  0.00000000000E+00  0.11488617791E+03  0.11488617791E+03  0.00000000000E+00 0. -1.
         -3   -1    0    0    0  501 -0.00000000000E+00 -0.00000000000E+00 -0.79645960462E+02  0.79645960462E+02  0.00000000000E+00 0.  1.
         24    1    1    2    0    0 -0.48749356106E+02 -0.11263241642E+02  0.39914979562E+01  0.94797195862E+02  0.80419002446E+02 0.  1.
        -24    1    1    2    0    0  0.48749356106E+02  0.11263241642E+02  0.31248719489E+02  0.99734942508E+02  0.80419002446E+02 0. -1.
<mgrwt>
<rscale>  0 0.94713126E+02</rscale>
<asrwt>0</asrwt>
<pdfrwt beam="1">  1        3 0.17674797E-01 0.94713126E+02</pdfrwt>
<pdfrwt beam="2">  1       -3 0.12253225E-01 0.94713126E+02</pdfrwt>
<totfact> 0.31123822E+03</totfact>
</mgrwt>
</event>
<event>
 4    1  0.4999097E-001  0.9689092E+02  0.7546771E-02  0.1286973E+00
          2   -1    0    0  501    0  0.00000000000E+00  0.00000000000E+00  0.18530968254E+04  0.18530968254E+04  0.00000000000E+00 0. -1.
         -2   -1    0    0    0  501 -0.00000000000E+00 -0.00000000000E+00 -0.14923230679E+02  0.14923230679E+02  0.00000000000E+00 0.  1.
         24    1    1    2    0    0 -0.48952207536E+02  0.22897936917E+02  0.16781830387E+04  0.16809777397E+04  0.80419002446E+02 0. -1.
        -24    1    1    2    0    0  0.48952207536E+02 -0.22897936917E+02  0.15999055609E+03  0.18704231641E+03  0.80419002446E+02 0.  1.
<mgrwt>
<rscale>  0 0.96890919E+02</rscale>
<asrwt>0</asrwt>
<pdfrwt beam="1">  1        2 0.28509164E+00 0.96890919E+02</pdfrwt>
<pdfrwt beam="2">  1       -2 0.22958831E-02 0.96890919E+02</pdfrwt>
<totfact> 0.54971357E+03</totfact>
</mgrwt>
</event>
<event>
 4    1  0.4999097E-001  0.1241523E+03  0.7546771E-02  0.1236400E+00
         -1   -1    0    0    0  501 -0.00000000000E+00  0.00000000000E+00  0.44965671618E+03  0.44965671618E+03  0.00000000000E+00 0.  1.
          1   -1    0    0  501    0  0.00000000000E+00 -0.00000000000E+00 -0.60360240965E+02  0.60360240965E+02  0.00000000000E+00 0. -1.
         24    1    1    2    0    0 -0.94043958728E+02  0.10113958530E+02  0.27021452029E+02  0.12705877835E+03  0.80419002446E+02 0. -1.
        -24    1    1    2    0    0  0.94043958728E+02 -0.10113958530E+02  0.36227502319E+03  0.38295817880E+03  0.80419002446E+02 0.  1.
<mgrwt>
<rscale>  0 0.12415224E+03</rscale>
<asrwt>0</asrwt>
<pdfrwt beam="1">  1        1 0.92861912E-02 0.12415225E+03</pdfrwt>
<pdfrwt beam="2">  1       -1 0.69177954E-01 0.12415225E+03</pdfrwt>
<totfact> 0.15172487E+03</totfact>
</mgrwt>
</event>
<event>
 4    1  0.4999097E-001  0.8732360E+02  0.7546771E-02  0.1309466E+00
          1   -1    0    0  501    0  0.00000000000E+00  0.00000000000E+00  0.20697758383E+02  0.20697758383E+02  0.00000000000E+00 0. -1.
         -1   -1    0    0    0  501 -0.00000000000E+00 -0.00000000000E+00 -0.45254161866E+03  0.45254161866E+03  0.00000000000E+00 0.  1.
         24    1    1    2    0    0 -0.50762382415E+01 -0.33651545107E+02 -0.31794129081E+03  0.32971514227E+03  0.80419002446E+02 0.  0.
        -24    1    1    2    0    0  0.50762382415E+01  0.33651545107E+02 -0.11390256946E+03  0.14352423477E+03  0.80419002446E+02 0.  0.
<mgrwt>
<rscale>  0 0.87323597E+02</rscale>
<asrwt>0</asrwt>
<pdfrwt beam="1">  1        1 0.31842703E-02 0.87323597E+02</pdfrwt>
<pdfrwt beam="2">  1       -1 0.69621793E-01 0.87323597E+02</pdfrwt>
<totfact> 0.62170639E+03</totfact>
</mgrwt>
</event>
<event>
 4    1  0.4999097E-001  0.8174315E+02  0.7546771E-02  0.1324176E+00
         -1   -1    0    0    0  501 -0.00000000000E+00  0.00000000000E+00  0.71610681321E+03  0.71610681321E+03  0.00000000000E+00 0.  1.
          1   -1    0    0  501    0  0.00000000000E+00 -0.00000000000E+00 -0.99455416943E+01  0.99455416943E+01  0.00000000000E+00 0. -1.
         24    1    1    2    0    0 -0.10144331213E+02  0.10574271764E+02  0.26283503054E+03  0.27525295986E+03  0.80419002446E+02 0. -1.
        -24    1    1    2    0    0  0.10144331213E+02 -0.10574271764E+02  0.44332624097E+03  0.45079939504E+03  0.80419002446E+02 0.  1.
<mgrwt>
<rscale>  0 0.81743136E+02</rscale>
<asrwt>0</asrwt>
<pdfrwt beam="1">  1        1 0.15300839E-02 0.81743146E+02</pdfrwt>
<pdfrwt beam="2">  1       -1 0.11017024E+00 0.81743146E+02</pdfrwt>
<totfact> 0.64895499E+03</totfact>
</mgrwt>
</event>
<event>
 4    1  0.4999097E-001  0.8533378E+02  0.7546771E-02  0.1314562E+00
          2   -1    0    0  501    0  0.00000000000E+00  0.00000000000E+00  0.12109725655E+04  0.12109725655E+04  0.00000000000E+00 0. -1.
         -2   -1    0    0    0  501 -0.00000000000E+00 -0.00000000000E+00 -0.61192568709E+01  0.61192568709E+01  0.00000000000E+00 0.  1.
         24    1    1    2    0    0  0.20887158667E+02 -0.19451510601E+02  0.52232121041E+03  0.52924597066E+03  0.80419002446E+02 0.  1.
        -24    1    1    2    0    0 -0.20887158667E+02  0.19451510601E+02  0.68253209826E+03  0.68784585175E+03  0.80419002446E+02 0. -1.
<mgrwt>
<rscale>  0 0.85333771E+02</rscale>
<asrwt>0</asrwt>
<pdfrwt beam="1">  1        2 0.18630328E+00 0.85333781E+02</pdfrwt>
<pdfrwt beam="2">  1       -2 0.94142510E-03 0.85333781E+02</pdfrwt>
<totfact> 0.41535845E+04</totfact>
</mgrwt>
</event>
<event>
 4    1  0.4999097E-001  0.1059301E+03  0.7546771E-02  0.1268298E+00
          2   -1    0    0  501    0  0.00000000000E+00  0.00000000000E+00  0.76608232711E+03  0.76608232711E+03  0.00000000000E+00 0. -1.
         -2   -1    0    0    0  501 -0.00000000000E+00 -0.00000000000E+00 -0.14649322736E+02  0.14649322736E+02  0.00000000000E+00 0.  1.
         24    1    1    2    0    0  0.68949032640E+02  0.76717894013E-01  0.38007078071E+03  0.39455669971E+03  0.80419002446E+02 0. -1.
        -24    1    1    2    0    0 -0.68949032640E+02 -0.76717894013E-01  0.37136222366E+03  0.38617495013E+03  0.80419002446E+02 0.  0.
<mgrwt>
<rscale>  0 0.10593012E+03</rscale>
<asrwt>0</asrwt>
<pdfrwt beam="1">  1        2 0.11785879E+00 0.10593012E+03</pdfrwt>
<pdfrwt beam="2">  1       -2 0.22537425E-02 0.10593012E+03</pdfrwt>
<totfact> 0.22492476E+04</totfact>
</mgrwt>
</event>
<event>
 4    1  0.4999097E-001  0.8876905E+02  0.7546771E-02  0.1305860E+00
         -2   -1    0    0    0  501 -0.00000000000E+00  0.00000000000E+00  0.22353484958E+02  0.22353484958E+02  0.00000000000E+00 0.  1.
          2   -1    0    0  501    0  0.00000000000E+00 -0.00000000000E+00 -0.42840081779E+03  0.42840081779E+03  0.00000000000E+00 0. -1.
         24    1    1    2    0    0 -0.29297598007E+02 -0.23545244599E+02 -0.29787957964E+03  0.31082501140E+03  0.80419002446E+02 0. -1.
        -24    1    1    2    0    0  0.29297598007E+02  0.23545244599E+02 -0.10816775320E+03  0.13992929135E+03  0.80419002446E+02 0.  1.
<mgrwt>
<rscale>  0 0.88769047E+02</rscale>
<asrwt>0</asrwt>
<pdfrwt beam="1">  1        2 0.65907812E-01 0.88769047E+02</pdfrwt>
<pdfrwt beam="2">  1       -2 0.34389980E-02 0.88769047E+02</pdfrwt>
<totfact> 0.22916646E+04</totfact>
</mgrwt>
</event>
<event>
 4    1  0.4999097E-001  0.1001795E+03  0.7546771E-02  0.1279919E+00
         -2   -1    0    0    0  501 -0.00000000000E+00  0.00000000000E+00  0.51635784881E+02  0.51635784881E+02  0.00000000000E+00 0.  1.
          2   -1    0    0  501    0  0.00000000000E+00 -0.00000000000E+00 -0.24118841148E+04  0.24118841148E+04  0.00000000000E+00 0. -1.
         24    1    1    2    0    0 -0.24332393768E+02 -0.54558730525E+02 -0.23612115371E+04  0.23633357483E+04  0.80419002446E+02 0. -1.
        -24    1    1    2    0    0  0.24332393768E+02  0.54558730525E+02  0.96320716003E+00  0.10018415137E+03  0.80419002446E+02 0.  1.
<mgrwt>
<rscale>  0 0.10017952E+03</rscale>
<asrwt>0</asrwt>
<pdfrwt beam="1">  1        2 0.37105913E+00 0.10017952E+03</pdfrwt>
<pdfrwt beam="2">  1       -2 0.79439662E-02 0.10017952E+03</pdfrwt>
<totfact> 0.45374168E+02</totfact>
</mgrwt>
</event>
<event>
 4    1  0.4999097E-001  0.1420141E+03  0.7546771E-02  0.1210644E+00
          1   -1    0    0  501    0  0.00000000000E+00  0.00000000000E+00  0.10771661213E+04  0.10771661213E+04  0.00000000000E+00 0. -1.
         -1   -1    0    0    0  501 -0.00000000000E+00 -0.00000000000E+00 -0.24175790822E+02  0.24175790822E+02  0.00000000000E+00 0.  1.
         24    1    1    2    0    0 -0.11498657659E+03  0.21883386739E+02  0.26497647096E+03  0.30063356686E+03  0.80419002446E+02 0.  1.
        -24    1    1    2    0    0  0.11498657659E+03 -0.21883386739E+02  0.78801385955E+03  0.80070834528E+03  0.80419002446E+02 0. -1.
<mgrwt>
<rscale>  0 0.14201412E+03</rscale>
<asrwt>0</asrwt>
<pdfrwt beam="1">  1        1 0.16571783E+00 0.14201412E+03</pdfrwt>
<pdfrwt beam="2">  1       -1 0.37193533E-02 0.14201412E+03</pdfrwt>
<totfact> 0.37792587E+03</totfact>
</mgrwt>
</event>
<event>
 4    1  0.4999097E-001  0.8964564E+02  0.7546771E-02  0.1303712E+00
         -2   -1    0    0    0  501 -0.00000000000E+00  0.00000000000E+00  0.55045255338E+02  0.55045255338E+02  0.00000000000E+00 0.  1.
          2   -1    0    0  501    0  0.00000000000E+00 -0.00000000000E+00 -0.17132125594E+03  0.17132125594E+03  0.00000000000E+00 0. -1.
         24    1    1    2    0    0  0.38971242261E+02 -0.70970002813E+01 -0.10165517036E+03  0.13553639641E+03  0.80419002446E+02 0. -1.
        -24    1    1    2    0    0 -0.38971242261E+02  0.70970002813E+01 -0.14620830248E+02  0.90830114873E+02  0.80419002446E+02 0.  1.
<mgrwt>
<rscale>  0 0.89645642E+02</rscale>
<asrwt>0</asrwt>
<pdfrwt beam="1">  1        2 0.26357116E-01 0.89645642E+02</pdfrwt>
<pdfrwt beam="2">  1       -2 0.84685009E-02 0.89645642E+02</pdfrwt>
<totfact> 0.15705707E+04</totfact>
</mgrwt>
</event>
<event>
 4    1  0.4999097E-001  0.8588514E+02  0.7546771E-02  0.1313134E+00
          2   -1    0    0  501    0  0.00000000000E+00  0.00000000000E+00  0.11466796156E+03  0.11466796156E+03  0.00000000000E+00 0. -1.
         -2   -1    0    0    0  501 -0.00000000000E+00 -0.00000000000E+00 -0.13884597683E+03  0.13884597683E+03  0.00000000000E+00 0.  1.
         24    1    1    2    0    0 -0.20583447326E+01  0.30079967356E+02  0.80773060825E+02  0.11790057052E+03  0.80419002446E+02 0. -1.
        -24    1    1    2    0    0  0.20583447326E+01 -0.30079967356E+02 -0.10495107609E+03  0.13561336788E+03  0.80419002446E+02 0.  1.
<mgrwt>
<rscale>  0 0.85885139E+02</rscale>
<asrwt>0</asrwt>
<pdfrwt beam="1">  1        2 0.17641225E-01 0.85885139E+02</pdfrwt>
<pdfrwt beam="2">  1       -2 0.21360920E-01 0.85885139E+02</pdfrwt>
<totfact> 0.55399508E+03</totfact>
</mgrwt>
</event>
<event>
 4    1  0.4999097E-001  0.9648975E+02  0.7546771E-02  0.1287856E+00
         -3   -1    0    0    0  501 -0.00000000000E+00  0.00000000000E+00  0.65048943727E+02  0.65048943727E+02  0.00000000000E+00 0.  1.
          3   -1    0    0  501    0  0.00000000000E+00 -0.00000000000E+00 -0.17853516013E+03  0.17853516013E+03  0.00000000000E+00 0. -1.
         24    1    1    2    0    0 -0.14045621276E+02  0.51437073569E+02 -0.11098165108E+03  0.14706187421E+03  0.80419002446E+02 0.  0.
        -24    1    1    2    0    0  0.14045621276E+02 -0.51437073569E+02 -0.25045653189E+01  0.96522229648E+02  0.80419002446E+02 0.  0.
<mgrwt>
<rscale>  0 0.96489742E+02</rscale>
<asrwt>0</asrwt>
<pdfrwt beam="1">  1        3 0.27466948E-01 0.96489754E+02</pdfrwt>
<pdfrwt beam="2">  1       -3 0.10007530E-01 0.96489754E+02</pdfrwt>
<totfact> 0.20036404E+03</totfact>
</mgrwt>
</event>
<event>
 4    1  0.4999097E-001  0.8059644E+02  0.7546771E-02  0.1327367E+00
         -1   -1    0    0    0  501 -0.00000000000E+00  0.00000000000E+00  0.44016691776E+03  0.44016691776E+03  0.00000000000E+00 0.  1.
          1   -1    0    0  501    0  0.00000000000E+00 -0.00000000000E+00 -0.14761121141E+02  0.14761121141E+02  0.00000000000E+00 0. -1.
         24    1    1    2    0    0  0.23647663230E+01 -0.47931707700E+01  0.20916183013E+03  0.22415274646E+03  0.80419002446E+02 0.  0.
        -24    1    1    2    0    0 -0.23647663230E+01  0.47931707700E+01  0.21624396649E+03  0.23077529245E+03  0.80419002446E+02 0.  0.
<mgrwt>
<rscale>  0 0.80596428E+02</rscale>
<asrwt>0</asrwt>
<pdfrwt beam="1">  1        1 0.22709421E-02 0.80596438E+02</pdfrwt>
<pdfrwt beam="2">  1       -1 0.67717977E-01 0.80596438E+02</pdfrwt>
<totfact> 0.10335735E+04</totfact>
</mgrwt>
</event>
<event>
 4    1  0.4999097E-001  0.8455118E+02  0.7546771E-02  0.1316610E+00
         -1   -1    0    0    0  501 -0.00000000000E+00  0.00000000000E+00  0.12916933579E+02  0.12916933579E+02  0.00000000000E+00 0.  1.
          1   -1    0    0  501    0  0.00000000000E+00 -0.00000000000E+00 -0.63179658870E+03  0.63179658870E+03  0.00000000000E+00 0. -1.
         24    1    1    2    0    0  0.21561461904E+02  0.14723786099E+02 -0.19592497175E+03  0.21339048016E+03  0.80419002446E+02 0.  1.
        -24    1    1    2    0    0 -0.21561461904E+02 -0.14723786099E+02 -0.42295468337E+03  0.43132304211E+03  0.80419002446E+02 0. -1.
<mgrwt>
<rscale>  0 0.84551183E+02</rscale>
<asrwt>0</asrwt>
<pdfrwt beam="1">  1        1 0.97199472E-01 0.84551183E+02</pdfrwt>
<pdfrwt beam="2">  1       -1 0.19872206E-02 0.84551183E+02</pdfrwt>
<totfact> 0.20437173E+04</totfact>
</mgrwt>
</event>
<event>
 4    1  0.4999097E-001  0.1005187E+03  0.7546771E-02  0.1279209E+00
         -1   -1    0    0    0  501 -0.00000000000E+00  0.00000000000E+00  0.19019331799E+03  0.19019331799E+03  0.00000000000E+00 0.  1.
          1   -1    0    0  501    0  0.00000000000E+00 -0.00000000000E+00 -0.53569668436E+02  0.53569668436E+02  0.00000000000E+00 0. -1.
         24    1    1    2    0    0  0.58919156987E+02  0.12858253849E+02  0.79416410832E+02  0.12810536295E+03  0.80419002446E+02 0.  0.
        -24    1    1    2    0    0 -0.58919156987E+02 -0.12858253849E+02  0.57207238722E+02  0.11565762348E+03  0.80419002446E+02 0.  1.
<mgrwt>
<rscale>  0 0.10051874E+03</rscale>
<asrwt>0</asrwt>
<pdfrwt beam="1">  1        1 0.82414875E-02 0.10051874E+03</pdfrwt>
<pdfrwt beam="2">  1       -1 0.29260510E-01 0.10051874E+03</pdfrwt>
<totfact> 0.81878288E+03</totfact>
</mgrwt>
</event>
<event>
 4    1  0.4999097E-001  0.8442096E+02  0.7546771E-02  0.1316954E+00
         -2   -1    0    0    0  501 -0.00000000000E+00  0.00000000000E+00  0.21255532282E+01  0.21255532282E+01  0.00000000000E+00 0.  1.
          2   -1    0    0  501    0  0.00000000000E+00 -0.00000000000E+00 -0.34568370532E+04  0.34568370532E+04  0.00000000000E+00 0. -1.
         24    1    1    2    0    0  0.24102889535E+01  0.25570940408E+02 -0.20271565564E+04  0.20289136508E+04  0.80419002446E+02 0.  0.
        -24    1    1    2    0    0 -0.24102889535E+01 -0.25570940408E+02 -0.14275549436E+04  0.14300489556E+04  0.80419002446E+02 0.  0.
<mgrwt>
<rscale>  0 0.84420960E+02</rscale>
<asrwt>0</asrwt>
<pdfrwt beam="1">  1        2 0.53181734E+00 0.84420960E+02</pdfrwt>
<pdfrwt beam="2">  1       -2 0.32701049E-03 0.84420960E+02</pdfrwt>
<totfact> 0.11484982E+04</totfact>
</mgrwt>
</event>
<event>
 4    1  0.4999097E-001  0.8952589E+02  0.7546771E-02  0.1304004E+00
         -2   -1    0    0    0  501 -0.00000000000E+00  0.00000000000E+00  0.58420545106E+02  0.58420545106E+02  0.00000000000E+00 0.  1.
          2   -1    0    0  501    0  0.00000000000E+00 -0.00000000000E+00 -0.10868902335E+04  0.10868902335E+04  0.00000000000E+00 0. -1.
         24    1    1    2    0    0 -0.15953130933E+02  0.35960620022E+02 -0.10495297574E+04  0.10533411585E+04  0.80419002446E+02 0. -1.
        -24    1    1    2    0    0  0.15953130933E+02 -0.35960620022E+02  0.21060068925E+02  0.91969620182E+02  0.80419002446E+02 0.  1.
<mgrwt>
<rscale>  0 0.89525888E+02</rscale>
<asrwt>0</asrwt>
<pdfrwt beam="1">  1        2 0.16721388E+00 0.89525888E+02</pdfrwt>
<pdfrwt beam="2">  1       -2 0.89877761E-02 0.89525888E+02</pdfrwt>
<totfact> 0.18126674E+03</totfact>
</mgrwt>
</event>
<event>
 4    1  0.4999097E-001  0.9153571E+02  0.7546771E-02  0.1299175E+00
          2   -1    0    0  501    0  0.00000000000E+00  0.00000000000E+00  0.34548306138E+02  0.34548306138E+02  0.00000000000E+00 0. -1.
         -2   -1    0    0    0  501 -0.00000000000E+00 -0.00000000000E+00 -0.25157105722E+03  0.25157105722E+03  0.00000000000E+00 0.  1.
         24    1    1    2    0    0 -0.30739474370E+02  0.31091086190E+02 -0.81381667876E+02  0.12248168331E+03  0.80419002446E+02 0. -1.
        -24    1    1    2    0    0  0.30739474370E+02 -0.31091086190E+02 -0.13564108320E+03  0.16363768005E+03  0.80419002446E+02 0.  1.
<mgrwt>
<rscale>  0 0.91535714E+02</rscale>
<asrwt>0</asrwt>
<pdfrwt beam="1">  1        2 0.53151240E-02 0.91535714E+02</pdfrwt>
<pdfrwt beam="2">  1       -2 0.38703240E-01 0.91535714E+02</pdfrwt>
<totfact> 0.83302230E+03</totfact>
</mgrwt>
</event>
<event>
 4    1  0.4999097E-001  0.8786434E+02  0.7546771E-02  0.1308107E+00
          2   -1    0    0  501    0  0.00000000000E+00  0.00000000000E+00  0.29859771609E+04  0.29859771609E+04  0.00000000000E+00 0. -1.
         -2   -1    0    0    0  501 -0.00000000000E+00 -0.00000000000E+00 -0.11478663988E+02  0.11478663988E+02  0.00000000000E+00 0.  1.
         24    1    1    2    0    0 -0.21504126540E+02 -0.28115822720E+02  0.28064354525E+04  0.28078105513E+04  0.80419002446E+02 0.  0.
        -24    1    1    2    0    0  0.21504126540E+02  0.28115822720E+02  0.16806304441E+03  0.18964527359E+03  0.80419002446E+02 0.  1.
<mgrwt>
<rscale>  0 0.87864344E+02</rscale>
<asrwt>0</asrwt>
<pdfrwt beam="1">  1        2 0.45938048E+00 0.87864344E+02</pdfrwt>
<pdfrwt beam="2">  1       -2 0.17659507E-02 0.87864344E+02</pdfrwt>
<totfact> 0.20378165E+03</totfact>
</mgrwt>
</event>
<event>
 4    1  0.4999097E-001  0.1461489E+03  0.7546771E-02  0.1205287E+00
          1   -1    0    0  501    0  0.00000000000E+00  0.00000000000E+00  0.20383637927E+03  0.20383637927E+03  0.00000000000E+00 0. -1.
         -1   -1    0    0    0  501 -0.00000000000E+00 -0.00000000000E+00 -0.10478784570E+03  0.10478784570E+03  0.00000000000E+00 0.  1.
         24    1    1    2    0    0  0.12120269984E+03  0.14219609636E+02  0.49250236157E+02  0.15422416627E+03  0.80419002446E+02 0. -1.
        -24    1    1    2    0    0 -0.12120269984E+03 -0.14219609636E+02  0.49798297416E+02  0.15440005870E+03  0.80419002446E+02 0.  1.
<mgrwt>
<rscale>  0 0.14614892E+03</rscale>
<asrwt>0</asrwt>
<pdfrwt beam="1">  1        1 0.31359443E-01 0.14614892E+03</pdfrwt>
<pdfrwt beam="2">  1       -1 0.16121207E-01 0.14614892E+03</pdfrwt>
<totfact> 0.39558122E+03</totfact>
</mgrwt>
</event>
<event>
 4    1  0.4999097E-001  0.1492713E+03  0.7546771E-02  0.1201371E+00
          3   -1    0    0  501    0  0.00000000000E+00  0.00000000000E+00  0.85237374494E+02  0.85237374494E+02  0.00000000000E+00 0. -1.
         -3   -1    0    0    0  501 -0.00000000000E+00 -0.00000000000E+00 -0.29909998322E+03  0.29909998322E+03  0.00000000000E+00 0.  1.
         24    1    1    2    0    0  0.11871065143E+03  0.41502901110E+02 -0.17514723321E+03  0.23012709275E+03  0.80419002446E+02 0.  0.
        -24    1    1    2    0    0 -0.11871065143E+03 -0.41502901110E+02 -0.38715375520E+02  0.15421026496E+03  0.80419002446E+02 0. -1.
<mgrwt>
<rscale>  0 0.14927132E+03</rscale>
<asrwt>0</asrwt>
<pdfrwt beam="1">  1        3 0.13113442E-01 0.14927132E+03</pdfrwt>
<pdfrwt beam="2">  1       -3 0.46015383E-01 0.14927132E+03</pdfrwt>
<totfact> 0.51804686E+02</totfact>
</mgrwt>
</event>
<event>
 4    1  0.4999097E-001  0.8777242E+02  0.7546771E-02  0.1308338E+00
          1   -1    0    0  501    0  0.00000000000E+00  0.00000000000E+00  0.22288061355E+03  0.22288061355E+03  0.00000000000E+00 0. -1.
         -1   -1    0    0    0  501 -0.00000000000E+00 -0.00000000000E+00 -0.39946969824E+02  0.39946969824E+02  0.00000000000E+00 0.  1.
         24    1    1    2    0    0  0.31041627531E+02 -0.16528720109E+02  0.43233592335E+02  0.97842427856E+02  0.80419002446E+02 0.  1.
        -24    1    1    2    0    0 -0.31041627531E+02  0.16528720109E+02  0.13970005139E+03  0.16498515551E+03  0.80419002446E+02 0. -1.
<mgrwt>
<rscale>  0 0.87772417E+02</rscale>
<asrwt>0</asrwt>
<pdfrwt beam="1">  1        1 0.34289324E-01 0.87772417E+02</pdfrwt>
<pdfrwt beam="2">  1       -1 0.61456878E-02 0.87772417E+02</pdfrwt>
<totfact> 0.14775837E+04</totfact>
</mgrwt>
</event>
<event>
 4    1  0.4999097E-001  0.8306759E+02  0.7546771E-02  0.1320565E+00
         -2   -1    0    0    0  501 -0.00000000000E+00  0.00000000000E+00  0.91804655347E+01  0.91804655347E+01  0.00000000000E+00 0.  1.
          2   -1    0    0  501    0  0.00000000000E+00 -0.00000000000E+00 -0.10334689656E+04  0.10334689656E+04  0.00000000000E+00 0. -1.
         24    1    1    2    0    0 -0.20559553761E+02  0.32114037860E+01 -0.78439405765E+03  0.78878023682E+03  0.80419002446E+02 0. -1.
        -24    1    1    2    0    0  0.20559553761E+02 -0.32114037860E+01 -0.23989444237E+03  0.25386919427E+03  0.80419002446E+02 0.  1.
<mgrwt>
<rscale>  0 0.83067589E+02</rscale>
<asrwt>0</asrwt>
<pdfrwt beam="1">  1        2 0.15899524E+00 0.83067589E+02</pdfrwt>
<pdfrwt beam="2">  1       -2 0.14123792E-02 0.83067589E+02</pdfrwt>
<totfact> 0.29269374E+04</totfact>
</mgrwt>
</event>
<event>
 4    1  0.4999097E-001  0.8217191E+02  0.7546771E-02  0.1322998E+00
          2   -1    0    0  501    0  0.00000000000E+00  0.00000000000E+00  0.37928784253E+03  0.37928784253E+03  0.00000000000E+00 0. -1.
         -2   -1    0    0    0  501 -0.00000000000E+00 -0.00000000000E+00 -0.17898553351E+02  0.17898553351E+02  0.00000000000E+00 0.  1.
         24    1    1    2    0    0 -0.29262052689E+01  0.16626595714E+02  0.19525280501E+03  0.21183927913E+03  0.80419002446E+02 0.  1.
        -24    1    1    2    0    0  0.29262052689E+01 -0.16626595714E+02  0.16613648416E+03  0.18534711675E+03  0.80419002446E+02 0.  0.
<mgrwt>
<rscale>  0 0.82171907E+02</rscale>
<asrwt>0</asrwt>
<pdfrwt beam="1">  1        2 0.58351970E-01 0.82171907E+02</pdfrwt>
<pdfrwt beam="2">  1       -2 0.27536239E-02 0.82171907E+02</pdfrwt>
<totfact> 0.35655208E+04</totfact>
</mgrwt>
</event>
<event>
 4    1  0.4999097E-001  0.9088964E+02  0.7546771E-02  0.1300712E+00
         -1   -1    0    0    0  501 -0.00000000000E+00  0.00000000000E+00  0.11750636835E+03  0.11750636835E+03  0.00000000000E+00 0.  1.
          1   -1    0    0  501    0  0.00000000000E+00 -0.00000000000E+00 -0.17745521966E+04  0.17745521966E+04  0.00000000000E+00 0. -1.
         24    1    1    2    0    0 -0.87118019891E+01 -0.41446529949E+02  0.98577710303E+02  0.13408389635E+03  0.80419002446E+02 0.  1.
        -24    1    1    2    0    0  0.87118019891E+01  0.41446529949E+02 -0.17556235386E+04  0.17579746686E+04  0.80419002446E+02 0. -1.
<mgrwt>
<rscale>  0 0.90889638E+02</rscale>
<asrwt>0</asrwt>
<pdfrwt beam="1">  1        1 0.27300800E+00 0.90889638E+02</pdfrwt>
<pdfrwt beam="2">  1       -1 0.18077905E-01 0.90889638E+02</pdfrwt>
<totfact> 0.12232746E+02</totfact>
</mgrwt>
</event>
<event>
 4    1  0.4999097E-001  0.8150547E+02  0.7546771E-02  0.1324833E+00
          4   -1    0    0  501    0  0.00000000000E+00  0.00000000000E+00  0.64354701443E+03  0.64354701443E+03  0.00000000000E+00 0. -1.
         -4   -1    0    0    0  501 -0.00000000000E+00 -0.00000000000E+00 -0.11322274107E+02  0.11322274107E+02  0.00000000000E+00 0.  1.
         24    1    1    2    0    0  0.75391291433E+01  0.10912571990E+02  0.21882271057E+03  0.23350913753E+03  0.80419002446E+02 0.  1.
        -24    1    1    2    0    0 -0.75391291433E+01 -0.10912571990E+02  0.41340202976E+03  0.42136015101E+03  0.80419002446E+02 0.  0.
<mgrwt>
<rscale>  0 0.81505462E+02</rscale>
<asrwt>0</asrwt>
<pdfrwt beam="1">  1        4 0.99007204E-01 0.81505472E+02</pdfrwt>
<pdfrwt beam="2">  1       -4 0.17418888E-02 0.81505472E+02</pdfrwt>
<totfact> 0.16060266E+03</totfact>
</mgrwt>
</event>
<event>
 4    1  0.4999097E-001  0.8370564E+02  0.7546771E-02  0.1318853E+00
         -1   -1    0    0    0  501 -0.00000000000E+00  0.00000000000E+00  0.46864142774E+02  0.46864142774E+02  0.00000000000E+00 0.  1.
          1   -1    0    0  501    0  0.00000000000E+00 -0.00000000000E+00 -0.18836820808E+03  0.18836820808E+03  0.00000000000E+00 0. -1.
         24    1    1    2    0    0 -0.22326173636E+02 -0.64000538704E+01 -0.17331598333E+02  0.85481103022E+02  0.80419002446E+02 0.  1.
        -24    1    1    2    0    0  0.22326173636E+02  0.64000538704E+01 -0.12417246698E+03  0.14975124784E+03  0.80419002446E+02 0. -1.
<mgrwt>
<rscale>  0 0.83705643E+02</rscale>
<asrwt>0</asrwt>
<pdfrwt beam="1">  1        1 0.28979725E-01 0.83705643E+02</pdfrwt>
<pdfrwt beam="2">  1       -1 0.72098680E-02 0.83705643E+02</pdfrwt>
<totfact> 0.14267538E+04</totfact>
</mgrwt>
</event>
<event>
 4    1  0.4999097E-001  0.1478647E+03  0.7546771E-02  0.1203122E+00
         -3   -1    0    0    0  501 -0.00000000000E+00  0.00000000000E+00  0.76645272283E+03  0.76645272283E+03  0.00000000000E+00 0.  1.
          3   -1    0    0  501    0  0.00000000000E+00 -0.00000000000E+00 -0.23155418053E+03  0.23155418053E+03  0.00000000000E+00 0. -1.
         24    1    1    2    0    0 -0.61079468552E+02 -0.10800947143E+03  0.73470562136E+03  0.74943733121E+03  0.80419002446E+02 0.  1.
        -24    1    1    2    0    0  0.61079468552E+02  0.10800947143E+03 -0.19980707907E+03  0.24856957215E+03  0.80419002446E+02 0. -1.
<mgrwt>
<rscale>  0 0.14786468E+03</rscale>
<asrwt>0</asrwt>
<pdfrwt beam="1">  1        3 0.35623720E-01 0.14786468E+03</pdfrwt>
<pdfrwt beam="2">  1       -3 0.11791580E+00 0.14786468E+03</pdfrwt>
<totfact> 0.11519125E+01</totfact>
</mgrwt>
</event>
<event>
 4    1  0.4999097E-001  0.9266921E+02  0.7546771E-02  0.1296514E+00
          2   -1    0    0  501    0  0.00000000000E+00  0.00000000000E+00  0.12263962772E+04  0.12263962772E+04  0.00000000000E+00 0. -1.
         -2   -1    0    0    0  501 -0.00000000000E+00 -0.00000000000E+00 -0.17792288912E+02  0.17792288912E+02  0.00000000000E+00 0.  1.
         24    1    1    2    0    0  0.17588309670E+02 -0.42556052059E+02  0.10887542733E+04  0.10926909215E+04  0.80419002446E+02 0. -1.
        -24    1    1    2    0    0 -0.17588309670E+02  0.42556052059E+02  0.11984971496E+03  0.15149764465E+03  0.80419002446E+02 0.  1.
<mgrwt>
<rscale>  0 0.92669208E+02</rscale>
<asrwt>0</asrwt>
<pdfrwt beam="1">  1        2 0.18867628E+00 0.92669208E+02</pdfrwt>
<pdfrwt beam="2">  1       -2 0.27372762E-02 0.92669208E+02</pdfrwt>
<totfact> 0.89251205E+03</totfact>
</mgrwt>
</event>
<event>
 4    1  0.4999097E-001  0.9462987E+02  0.7546771E-02  0.1292012E+00
          1   -1    0    0  501    0  0.00000000000E+00  0.00000000000E+00  0.23645276190E+03  0.23645276190E+03  0.00000000000E+00 0. -1.
         -1   -1    0    0    0  501 -0.00000000000E+00 -0.00000000000E+00 -0.39104856947E+02  0.39104856947E+02  0.00000000000E+00 0.  1.
         24    1    1    2    0    0  0.42664612723E+02 -0.25832578126E+02  0.12314325304E+03  0.15530314869E+03  0.80419002446E+02 0.  0.
        -24    1    1    2    0    0 -0.42664612723E+02  0.25832578126E+02  0.74204651916E+02  0.12025447015E+03  0.80419002446E+02 0.  0.
<mgrwt>
<rscale>  0 0.94629855E+02</rscale>
<asrwt>0</asrwt>
<pdfrwt beam="1">  1        1 0.36377347E-01 0.94629867E+02</pdfrwt>
<pdfrwt beam="2">  1       -1 0.60161320E-02 0.94629867E+02</pdfrwt>
<totfact> 0.14291184E+04</totfact>
</mgrwt>
</event>
<event>
 4    1  0.4999097E-001  0.8203922E+02  0.7546771E-02  0.1323362E+00
          2   -1    0    0  501    0  0.00000000000E+00  0.00000000000E+00  0.36097210046E+03  0.36097210046E+03  0.00000000000E+00 0. -1.
         -2   -1    0    0    0  501 -0.00000000000E+00 -0.00000000000E+00 -0.32399679299E+02  0.32399679299E+02  0.00000000000E+00 0.  1.
         24    1    1    2    0    0  0.37846796944E+01  0.15776365999E+02  0.29243760355E+03  0.30372715626E+03  0.80419002446E+02 0.  0.
        -24    1    1    2    0    0 -0.37846796944E+01 -0.15776365999E+02  0.36134817614E+02  0.89644623503E+02  0.80419002446E+02 0.  1.
<mgrwt>
<rscale>  0 0.82039219E+02</rscale>
<asrwt>0</asrwt>
<pdfrwt beam="1">  1        2 0.55534166E-01 0.82039219E+02</pdfrwt>
<pdfrwt beam="2">  1       -2 0.49845663E-02 0.82039219E+02</pdfrwt>
<totfact> 0.15764969E+04</totfact>
</mgrwt>
</event>
<event>
 4    1  0.4999097E-001  0.8346922E+02  0.7546771E-02  0.1319485E+00
          4   -1    0    0  501    0  0.00000000000E+00  0.00000000000E+00  0.37478227430E+02  0.37478227430E+02  0.00000000000E+00 0. -1.
         -4   -1    0    0    0  501 -0.00000000000E+00 -0.00000000000E+00 -0.47748231240E+03  0.47748231240E+03  0.00000000000E+00 0.  1.
         24    1    1    2    0    0  0.21768478990E+02  0.51016993815E+01 -0.18792887269E+02  0.85558649945E+02  0.80419002446E+02 0. -1.
        -24    1    1    2    0    0 -0.21768478990E+02 -0.51016993815E+01 -0.42121119770E+03  0.42940188989E+03  0.80419002446E+02 0.  1.
<mgrwt>
<rscale>  0 0.83469216E+02</rscale>
<asrwt>0</asrwt>
<pdfrwt beam="1">  1        4 0.57658815E-02 0.83469216E+02</pdfrwt>
<pdfrwt beam="2">  1       -4 0.73458813E-01 0.83469216E+02</pdfrwt>
<totfact> 0.48572698E+02</totfact>
</mgrwt>
</event>
<event>
 4    1  0.4999097E-001  0.8750090E+02  0.7546771E-02  0.1309019E+00
         -4   -1    0    0    0  501 -0.00000000000E+00  0.00000000000E+00  0.15156649596E+03  0.15156649596E+03  0.00000000000E+00 0.  1.
          4   -1    0    0  501    0  0.00000000000E+00 -0.00000000000E+00 -0.52847517320E+02  0.52847517320E+02  0.00000000000E+00 0. -1.
         24    1    1    2    0    0 -0.29810481476E+02  0.17335697510E+02  0.27887856451E+02  0.91837572408E+02  0.80419002446E+02 0.  1.
        -24    1    1    2    0    0  0.29810481476E+02 -0.17335697510E+02  0.70831122186E+02  0.11257644087E+03  0.80419002446E+02 0.  0.
<mgrwt>
<rscale>  0 0.87500898E+02</rscale>
<asrwt>0</asrwt>
<pdfrwt beam="1">  1        4 0.81303873E-02 0.87500898E+02</pdfrwt>
<pdfrwt beam="2">  1       -4 0.23317922E-01 0.87500898E+02</pdfrwt>
<totfact> 0.26872680E+03</totfact>
</mgrwt>
</event>
<event>
 4    1  0.4999097E-001  0.2748006E+03  0.7546771E-02  0.1098563E+00
          2   -1    0    0  501    0  0.00000000000E+00  0.00000000000E+00  0.18986243907E+04  0.18986243907E+04  0.00000000000E+00 0. -1.
         -2   -1    0    0    0  501 -0.00000000000E+00 -0.00000000000E+00 -0.39953630158E+02  0.39953630158E+02  0.00000000000E+00 0.  1.
         24    1    1    2    0    0 -0.25179398336E+03  0.75152479362E+02  0.86428880228E+03  0.90692362132E+03  0.80419002446E+02 0. -1.
        -24    1    1    2    0    0  0.25179398336E+03 -0.75152479362E+02  0.99438195825E+03  0.10316543995E+04  0.80419002446E+02 0.  1.
<mgrwt>
<rscale>  0 0.27480055E+03</rscale>
<asrwt>0</asrwt>
<pdfrwt beam="1">  1        2 0.29209599E+00 0.27480058E+03</pdfrwt>
<pdfrwt beam="2">  1       -2 0.61467138E-02 0.27480058E+03</pdfrwt>
<totfact> 0.11974448E+03</totfact>
</mgrwt>
</event>
<event>
 4    1  0.4999097E-001  0.9760705E+02  0.7546771E-02  0.1285410E+00
          1   -1    0    0  501    0  0.00000000000E+00  0.00000000000E+00  0.70247755903E+03  0.70247755903E+03  0.00000000000E+00 0. -1.
         -1   -1    0    0    0  501 -0.00000000000E+00 -0.00000000000E+00 -0.13650979402E+02  0.13650979402E+02  0.00000000000E+00 0.  1.
         24    1    1    2    0    0  0.51631935969E+02  0.19850932147E+02  0.37329122220E+03  0.38584124824E+03  0.80419002446E+02 0.  0.
        -24    1    1    2    0    0 -0.51631935969E+02 -0.19850932147E+02  0.31553535743E+03  0.33028729019E+03  0.80419002446E+02 0.  0.
<mgrwt>
<rscale>  0 0.97607042E+02</rscale>
<asrwt>0</asrwt>
<pdfrwt beam="1">  1        1 0.10807344E+00 0.97607054E+02</pdfrwt>
<pdfrwt beam="2">  1       -1 0.21001512E-02 0.97607054E+02</pdfrwt>
<totfact> 0.16531632E+04</totfact>
</mgrwt>
</event>
<event>
 4    1  0.4999097E-001  0.9053742E+02  0.7546771E-02  0.1301555E+00
          2   -1    0    0  501    0  0.00000000000E+00  0.00000000000E+00  0.34686944995E+03  0.34686944995E+03  0.00000000000E+00 0. -1.
         -2   -1    0    0    0  501 -0.00000000000E+00 -0.00000000000E+00 -0.26395583109E+02  0.26395583109E+02  0.00000000000E+00 0.  1.
         24    1    1    2    0    0  0.20181530023E+02  0.36366396905E+02  0.22063205604E+03  0.23848590961E+03  0.80419002446E+02 0. -1.
        -24    1    1    2    0    0 -0.20181530023E+02 -0.36366396905E+02  0.99841810799E+02  0.13477912344E+03  0.80419002446E+02 0.  1.
<mgrwt>
<rscale>  0 0.90537423E+02</rscale>
<asrwt>0</asrwt>
<pdfrwt beam="1">  1        2 0.53364528E-01 0.90537423E+02</pdfrwt>
<pdfrwt beam="2">  1       -2 0.40608592E-02 0.90537423E+02</pdfrwt>
<totfact> 0.22471834E+04</totfact>
</mgrwt>
</event>
<event>
 4    1  0.4999097E-001  0.9329562E+02  0.7546771E-02  0.1295062E+00
          2   -1    0    0  501    0  0.00000000000E+00  0.00000000000E+00  0.37608693708E+04  0.37608693708E+04  0.00000000000E+00 0. -1.
         -2   -1    0    0    0  501 -0.00000000000E+00 -0.00000000000E+00 -0.23204220755E+01  0.23204220755E+01  0.00000000000E+00 0.  1.
         24    1    1    2    0    0 -0.32667056322E+02  0.34201172071E+02  0.19753059653E+04  0.19775079593E+04  0.80419002446E+02 0.  1.
        -24    1    1    2    0    0  0.32667056322E+02 -0.34201172071E+02  0.17832429834E+04  0.17856818335E+04  0.80419002446E+02 0. -1.
<mgrwt>
<rscale>  0 0.93295620E+02</rscale>
<asrwt>0</asrwt>
<pdfrwt beam="1">  1        2 0.57859041E+00 0.93295620E+02</pdfrwt>
<pdfrwt beam="2">  1       -2 0.35699102E-03 0.93295620E+02</pdfrwt>
<totfact> 0.64218541E+03</totfact>
</mgrwt>
</event>
<event>
 4    1  0.4999097E-001  0.8894946E+02  0.7546771E-02  0.1305416E+00
          1   -1    0    0  501    0  0.00000000000E+00  0.00000000000E+00  0.42996697048E+03  0.42996697048E+03  0.00000000000E+00 0. -1.
         -1   -1    0    0    0  501 -0.00000000000E+00 -0.00000000000E+00 -0.21761553227E+02  0.21761553227E+02  0.00000000000E+00 0.  1.
         24    1    1    2    0    0 -0.32260421842E+02 -0.20101116591E+02  0.11535024975E+03  0.14566291833E+03  0.80419002446E+02 0.  1.
        -24    1    1    2    0    0  0.32260421842E+02  0.20101116591E+02  0.29285516751E+03  0.30606560538E+03  0.80419002446E+02 0. -1.
<mgrwt>
<rscale>  0 0.88949456E+02</rscale>
<asrwt>0</asrwt>
<pdfrwt beam="1">  1        1 0.66148758E-01 0.88949456E+02</pdfrwt>
<pdfrwt beam="2">  1       -1 0.33479316E-02 0.88949456E+02</pdfrwt>
<totfact> 0.16020616E+04</totfact>
</mgrwt>
</event>
<event>
 4    1  0.4999097E-001  0.8175095E+02  0.7546771E-02  0.1324155E+00
         -4   -1    0    0    0  501 -0.00000000000E+00  0.00000000000E+00  0.17813415920E+02  0.17813415920E+02  0.00000000000E+00 0.  1.
          4   -1    0    0  501    0  0.00000000000E+00 -0.00000000000E+00 -0.38390064060E+03  0.38390064060E+03  0.00000000000E+00 0. -1.
         24    1    1    2    0    0 -0.12272460362E+02 -0.80863218462E+01 -0.21331826224E+03  0.22844670898E+03  0.80419002446E+02 0. -1.
        -24    1    1    2    0    0  0.12272460362E+02  0.80863218462E+01 -0.15276896244E+03  0.17326734754E+03  0.80419002446E+02 0.  1.
<mgrwt>
<rscale>  0 0.81750950E+02</rscale>
<asrwt>0</asrwt>
<pdfrwt beam="1">  1        4 0.59061628E-01 0.81750950E+02</pdfrwt>
<pdfrwt beam="2">  1       -4 0.27405259E-02 0.81750950E+02</pdfrwt>
<totfact> 0.24639212E+03</totfact>
</mgrwt>
</event>
<event>
 4    1  0.4999097E-001  0.9194538E+02  0.7546771E-02  0.1298208E+00
         -1   -1    0    0    0  501 -0.00000000000E+00  0.00000000000E+00  0.48054392915E+01  0.48054392915E+01  0.00000000000E+00 0.  1.
          1   -1    0    0  501    0  0.00000000000E+00 -0.00000000000E+00 -0.17632491562E+04  0.17632491562E+04  0.00000000000E+00 0. -1.
         24    1    1    2    0    0  0.41313003537E+02  0.16732408999E+02 -0.83710399232E+03  0.84213837799E+03  0.80419002446E+02 0.  1.
        -24    1    1    2    0    0 -0.41313003537E+02 -0.16732408999E+02 -0.92133972458E+03  0.92591621749E+03  0.80419002446E+02 0. -1.
<mgrwt>
<rscale>  0 0.91945384E+02</rscale>
<asrwt>0</asrwt>
<pdfrwt beam="1">  1        1 0.27126941E+00 0.91945384E+02</pdfrwt>
<pdfrwt beam="2">  1       -1 0.73929752E-03 0.91945384E+02</pdfrwt>
<totfact> 0.13291773E+04</totfact>
</mgrwt>
</event>
<event>
 4    1  0.4999097E-001  0.8434787E+02  0.7546771E-02  0.1317147E+00
          4   -1    0    0  501    0  0.00000000000E+00  0.00000000000E+00  0.30066607165E+03  0.30066607165E+03  0.00000000000E+00 0. -1.
         -4   -1    0    0    0  501 -0.00000000000E+00 -0.00000000000E+00 -0.25561047928E+02  0.25561047928E+02  0.00000000000E+00 0.  1.
         24    1    1    2    0    0 -0.18835273282E+02 -0.17104962134E+02  0.18200454521E+03  0.20059964526E+03  0.80419002446E+02 0.  0.
        -24    1    1    2    0    0  0.18835273282E+02  0.17104962134E+02  0.93100478520E+02  0.12562747432E+03  0.80419002446E+02 0.  0.
<mgrwt>
<rscale>  0 0.84347870E+02</rscale>
<asrwt>0</asrwt>
<pdfrwt beam="1">  1        4 0.46256316E-01 0.84347870E+02</pdfrwt>
<pdfrwt beam="2">  1       -4 0.39324691E-02 0.84347870E+02</pdfrwt>
<totfact> 0.23267552E+03</totfact>
</mgrwt>
</event>
<event>
 4    1  0.4999097E-001  0.8378078E+02  0.7546771E-02  0.1318652E+00
         -2   -1    0    0    0  501 -0.00000000000E+00  0.00000000000E+00  0.34511288780E+02  0.34511288780E+02  0.00000000000E+00 0.  1.
          2   -1    0    0  501    0  0.00000000000E+00 -0.00000000000E+00 -0.70482801316E+03  0.70482801316E+03  0.00000000000E+00 0. -1.
         24    1    1    2    0    0 -0.20311658420E+02  0.11808482098E+02 -0.64696204435E+03  0.65236424373E+03  0.80419002446E+02 0. -1.
        -24    1    1    2    0    0  0.20311658420E+02 -0.11808482098E+02 -0.23354680037E+02  0.86975058214E+02  0.80419002446E+02 0.  1.
<mgrwt>
<rscale>  0 0.83780783E+02</rscale>
<asrwt>0</asrwt>
<pdfrwt beam="1">  1        2 0.10843508E+00 0.83780783E+02</pdfrwt>
<pdfrwt beam="2">  1       -2 0.53094291E-02 0.83780783E+02</pdfrwt>
<totfact> 0.69513987E+03</totfact>
</mgrwt>
</event>
<event>
 4    1  0.4999097E-001  0.8862206E+02  0.7546771E-02  0.1306223E+00
          1   -1    0    0  501    0  0.00000000000E+00  0.00000000000E+00  0.10946744785E+03  0.10946744785E+03  0.00000000000E+00 0. -1.
         -1   -1    0    0    0  501 -0.00000000000E+00 -0.00000000000E+00 -0.36659745040E+03  0.36659745040E+03  0.00000000000E+00 0.  1.
         24    1    1    2    0    0 -0.27581966057E+01 -0.37135505129E+02 -0.34203800416E+03  0.35333251426E+03  0.80419002446E+02 0.  1.
        -24    1    1    2    0    0  0.27581966057E+01  0.37135505129E+02  0.84908001600E+02  0.12273238399E+03  0.80419002446E+02 0. -1.
<mgrwt>
<rscale>  0 0.88622059E+02</rscale>
<asrwt>0</asrwt>
<pdfrwt beam="1">  1        1 0.16841146E-01 0.88622059E+02</pdfrwt>
<pdfrwt beam="2">  1       -1 0.56399607E-01 0.88622059E+02</pdfrwt>
<totfact> 0.10217313E+03</totfact>
</mgrwt>
</event>
<event>
 4    1  0.4999097E-001  0.9181777E+02  0.7546771E-02  0.1298508E+00
          2   -1    0    0  501    0  0.00000000000E+00  0.00000000000E+00  0.27869055858E+03  0.27869055858E+03  0.00000000000E+00 0. -1.
         -2   -1    0    0    0  501 -0.00000000000E+00 -0.00000000000E+00 -0.33257343331E+02  0.33257343331E+02  0.00000000000E+00 0.  1.
         24    1    1    2    0    0 -0.36422736809E+02 -0.25232361733E+02  0.16961631818E+03  0.19287353157E+03  0.80419002446E+02 0. -1.
        -24    1    1    2    0    0  0.36422736809E+02  0.25232361733E+02  0.75816897071E+02  0.11907437034E+03  0.80419002446E+02 0.  1.
<mgrwt>
<rscale>  0 0.91817775E+02</rscale>
<asrwt>0</asrwt>
<pdfrwt beam="1">  1        2 0.42875469E-01 0.91817775E+02</pdfrwt>
<pdfrwt beam="2">  1       -2 0.51165146E-02 0.91817775E+02</pdfrwt>
<totfact> 0.20099809E+04</totfact>
</mgrwt>
</event>
<event>
 4    1  0.4999097E-001  0.9213001E+02  0.7546771E-02  0.1297774E+00
         -1   -1    0    0    0  501 -0.00000000000E+00  0.00000000000E+00  0.67176509702E+02  0.67176509702E+02  0.00000000000E+00 0.  1.
          1   -1    0    0  501    0  0.00000000000E+00 -0.00000000000E+00 -0.45774529487E+03  0.45774529487E+03  0.00000000000E+00 0. -1.
         24    1    1    2    0    0 -0.12480726554E+02  0.43185121798E+02  0.28033754496E+02  0.96300730140E+02  0.80419002446E+02 0.  1.
        -24    1    1    2    0    0  0.12480726554E+02 -0.43185121798E+02 -0.41860253967E+03  0.42862107443E+03  0.80419002446E+02 0. -1.
<mgrwt>
<rscale>  0 0.92130013E+02</rscale>
<asrwt>0</asrwt>
<pdfrwt beam="1">  1        1 0.70422354E-01 0.92130013E+02</pdfrwt>
<pdfrwt beam="2">  1       -1 0.10334847E-01 0.92130013E+02</pdfrwt>
<totfact> 0.28176065E+03</totfact>
</mgrwt>
</event>
<event>
 4    1  0.4999097E-001  0.1487599E+03  0.7546771E-02  0.1202005E+00
         -1   -1    0    0    0  501 -0.00000000000E+00  0.00000000000E+00  0.10130838528E+04  0.10130838528E+04  0.00000000000E+00 0.  1.
          1   -1    0    0  501    0  0.00000000000E+00 -0.00000000000E+00 -0.22115692377E+02  0.22115692377E+02  0.00000000000E+00 0. -1.
         24    1    1    2    0    0  0.11684523590E+03  0.44827201484E+02  0.55288509073E+03  0.57254818719E+03  0.80419002446E+02 0.  1.
        -24    1    1    2    0    0 -0.11684523590E+03 -0.44827201484E+02  0.43808306969E+03  0.46265135799E+03  0.80419002446E+02 0. -1.
<mgrwt>
<rscale>  0 0.14875988E+03</rscale>
<asrwt>0</asrwt>
<pdfrwt beam="1">  1        1 0.34024150E-02 0.14875988E+03</pdfrwt>
<pdfrwt beam="2">  1       -1 0.15585902E+00 0.14875988E+03</pdfrwt>
<totfact> 0.96038963E+02</totfact>
</mgrwt>
</event>
<event>
 4    1  0.4999097E-001  0.9979940E+02  0.7546771E-02  0.1280718E+00
          2   -1    0    0  501    0  0.00000000000E+00  0.00000000000E+00  0.41561530011E+03  0.41561530011E+03  0.00000000000E+00 0. -1.
         -2   -1    0    0    0  501 -0.00000000000E+00 -0.00000000000E+00 -0.25207725586E+02  0.25207725586E+02  0.00000000000E+00 0.  1.
         24    1    1    2    0    0 -0.59094677095E+02  0.72413415468E+00  0.24415697044E+03  0.26376608463E+03  0.80419002446E+02 0. -1.
        -24    1    1    2    0    0  0.59094677095E+02 -0.72413415468E+00  0.14625060409E+03  0.17705694107E+03  0.80419002446E+02 0.  1.
<mgrwt>
<rscale>  0 0.99799405E+02</rscale>
<asrwt>0</asrwt>
<pdfrwt beam="1">  1        2 0.63940810E-01 0.99799405E+02</pdfrwt>
<pdfrwt beam="2">  1       -2 0.38781119E-02 0.99799405E+02</pdfrwt>
<totfact> 0.20079470E+04</totfact>
</mgrwt>
</event>
<event>
 4    1  0.4999097E-001  0.9503974E+02  0.7546771E-02  0.1291087E+00
          1   -1    0    0  501    0  0.00000000000E+00  0.00000000000E+00  0.85211622910E+03  0.85211622910E+03  0.00000000000E+00 0. -1.
         -1   -1    0    0    0  501 -0.00000000000E+00 -0.00000000000E+00 -0.11170189917E+02  0.11170189917E+02  0.00000000000E+00 0.  1.
         24    1    1    2    0    0  0.45448026262E+02 -0.22356508583E+02  0.32296270824E+03  0.33665629868E+03  0.80419002446E+02 0.  1.
        -24    1    1    2    0    0 -0.45448026262E+02  0.22356508583E+02  0.51798333094E+03  0.52663012034E+03  0.80419002446E+02 0.  0.
<mgrwt>
<rscale>  0 0.95039742E+02</rscale>
<asrwt>0</asrwt>
<pdfrwt beam="1">  1        1 0.13109475E+00 0.95039742E+02</pdfrwt>
<pdfrwt beam="2">  1       -1 0.17184914E-02 0.95039742E+02</pdfrwt>
<totfact> 0.16545213E+04</totfact>
</mgrwt>
</event>
<event>
 4    1  0.4999097E-001  0.8632387E+02  0.7546771E-02  0.1312006E+00
         -3   -1    0    0    0  501 -0.00000000000E+00  0.00000000000E+00  0.19762450327E+03  0.19762450327E+03  0.00000000000E+00 0.  1.
          3   -1    0    0  501    0  0.00000000000E+00 -0.00000000000E+00 -0.38139960547E+02  0.38139960547E+02  0.00000000000E+00 0. -1.
         24    1    1    2    0    0  0.14220809785E+02 -0.27970752227E+02  0.92303293226E+02  0.12637922419E+03  0.80419002446E+02 0.  0.
        -24    1    1    2    0    0 -0.14220809785E+02  0.27970752227E+02  0.67181249502E+02  0.10938523964E+03  0.80419002446E+02 0.  1.
<mgrwt>
<rscale>  0 0.86323869E+02</rscale>
<asrwt>0</asrwt>
<pdfrwt beam="1">  1        3 0.58676864E-02 0.86323869E+02</pdfrwt>
<pdfrwt beam="2">  1       -3 0.30403769E-01 0.86323869E+02</pdfrwt>
<totfact> 0.38364237E+03</totfact>
</mgrwt>
</event>
<event>
 4    1  0.4999097E-001  0.9504814E+02  0.7546771E-02  0.1291068E+00
          1   -1    0    0  501    0  0.00000000000E+00  0.00000000000E+00  0.17535862212E+02  0.17535862212E+02  0.00000000000E+00 0. -1.
         -1   -1    0    0    0  501 -0.00000000000E+00 -0.00000000000E+00 -0.57958499017E+03  0.57958499017E+03  0.00000000000E+00 0.  1.
         24    1    1    2    0    0 -0.67598149360E+01 -0.50211883017E+02 -0.18150010385E+03  0.20488150709E+03  0.80419002446E+02 0.  0.
        -24    1    1    2    0    0  0.67598149360E+01  0.50211883017E+02 -0.38054902410E+03  0.39223934529E+03  0.80419002446E+02 0.  0.
<mgrwt>
<rscale>  0 0.95048127E+02</rscale>
<asrwt>0</asrwt>
<pdfrwt beam="1">  1        1 0.26978249E-02 0.95048139E+02</pdfrwt>
<pdfrwt beam="2">  1       -1 0.89166923E-01 0.95048139E+02</pdfrwt>
<totfact> 0.47691643E+03</totfact>
</mgrwt>
</event>
<event>
 4    1  0.4999097E-001  0.1047656E+03  0.7546771E-02  0.1270582E+00
         -2   -1    0    0    0  501 -0.00000000000E+00  0.00000000000E+00  0.14706185719E+02  0.14706185719E+02  0.00000000000E+00 0.  1.
          2   -1    0    0  501    0  0.00000000000E+00 -0.00000000000E+00 -0.74928377811E+03  0.74928377811E+03  0.00000000000E+00 0. -1.
         24    1    1    2    0    0  0.34335543162E+02  0.57703300439E+02 -0.34334580264E+03  0.35897375469E+03  0.80419002446E+02 0.  1.
        -24    1    1    2    0    0 -0.34335543162E+02 -0.57703300439E+02 -0.39123178975E+03  0.40501620915E+03  0.80419002446E+02 0. -1.
<mgrwt>
<rscale>  0 0.10476554E+03</rscale>
<asrwt>0</asrwt>
<pdfrwt beam="1">  1        2 0.11527442E+00 0.10476556E+03</pdfrwt>
<pdfrwt beam="2">  1       -2 0.22624902E-02 0.10476556E+03</pdfrwt>
<totfact> 0.22949473E+04</totfact>
</mgrwt>
</event>
<event>
 4    1  0.4999097E-001  0.8461300E+02  0.7546771E-02  0.1316448E+00
         -1   -1    0    0    0  501 -0.00000000000E+00  0.00000000000E+00  0.48497092516E+03  0.48497092516E+03  0.00000000000E+00 0.  1.
          1   -1    0    0  501    0  0.00000000000E+00 -0.00000000000E+00 -0.15656769025E+02  0.15656769025E+02  0.00000000000E+00 0. -1.
         24    1    1    2    0    0 -0.24198718792E+02 -0.10323078389E+02  0.29448165105E+03  0.30639647958E+03  0.80419002446E+02 0.  0.
        -24    1    1    2    0    0  0.24198718792E+02  0.10323078389E+02  0.17483250509E+03  0.19423121461E+03  0.80419002446E+02 0.  0.
<mgrwt>
<rscale>  0 0.84613001E+02</rscale>
<asrwt>0</asrwt>
<pdfrwt beam="1">  1        1 0.24087341E-02 0.84613001E+02</pdfrwt>
<pdfrwt beam="2">  1       -1 0.74610900E-01 0.84613001E+02</pdfrwt>
<totfact> 0.79275289E+03</totfact>
</mgrwt>
</event>
<event>
 4    1  0.4999097E-001  0.9592888E+02  0.7546771E-02  0.1289098E+00
          2   -1    0    0  501    0  0.00000000000E+00  0.00000000000E+00  0.50259141543E+03  0.50259141543E+03  0.00000000000E+00 0. -1.
         -2   -1    0    0    0  501 -0.00000000000E+00 -0.00000000000E+00 -0.19357472303E+02  0.19357472303E+02  0.00000000000E+00 0.  1.
         24    1    1    2    0    0 -0.17027204791E+00 -0.52298231456E+02  0.30233053220E+03  0.31718464758E+03  0.80419002446E+02 0. -1.
        -24    1    1    2    0    0  0.17027204791E+00  0.52298231456E+02  0.18090341093E+03  0.20476424015E+03  0.80419002446E+02 0.  1.
<mgrwt>
<rscale>  0 0.95928880E+02</rscale>
<asrwt>0</asrwt>
<pdfrwt beam="1">  1        2 0.77321746E-01 0.95928880E+02</pdfrwt>
<pdfrwt beam="2">  1       -2 0.29780730E-02 0.95928880E+02</pdfrwt>
<totfact> 0.24017602E+04</totfact>
</mgrwt>
</event>
<event>
 4    1  0.4999097E-001  0.8236755E+02  0.7546771E-02  0.1322464E+00
         -2   -1    0    0    0  501 -0.00000000000E+00  0.00000000000E+00  0.14680276054E+03  0.14680276054E+03  0.00000000000E+00 0.  1.
          2   -1    0    0  501    0  0.00000000000E+00 -0.00000000000E+00 -0.52220198901E+02  0.52220198901E+02  0.00000000000E+00 0. -1.
         24    1    1    2    0    0 -0.17754882411E+02 -0.14006560697E+01  0.13544191161E+02  0.83473700981E+02  0.80419002446E+02 0. -1.
        -24    1    1    2    0    0  0.17754882411E+02  0.14006560697E+01  0.81038370482E+02  0.11554925846E+03  0.80419002446E+02 0.  0.
<mgrwt>
<rscale>  0 0.82367552E+02</rscale>
<asrwt>0</asrwt>
<pdfrwt beam="1">  1        2 0.80338768E-02 0.82367552E+02</pdfrwt>
<pdfrwt beam="2">  1       -2 0.22585040E-01 0.82367552E+02</pdfrwt>
<totfact> 0.12750779E+04</totfact>
</mgrwt>
</event>
<event>
 4    1  0.4999097E-001  0.1531449E+03  0.7546771E-02  0.1196661E+00
         -2   -1    0    0    0  501 -0.00000000000E+00  0.00000000000E+00  0.20809049872E+03  0.20809049872E+03  0.00000000000E+00 0.  1.
          2   -1    0    0  501    0  0.00000000000E+00 -0.00000000000E+00 -0.16446928403E+03  0.16446928403E+03  0.00000000000E+00 0. -1.
         24    1    1    2    0    0 -0.60659756099E+02  0.11535393407E+03  0.12631350936E+03  0.19851562839E+03  0.80419002446E+02 0.  1.
        -24    1    1    2    0    0  0.60659756099E+02 -0.11535393407E+03 -0.82692294669E+02  0.17404415436E+03  0.80419002446E+02 0. -1.
<mgrwt>
<rscale>  0 0.15314489E+03</rscale>
<asrwt>0</asrwt>
<pdfrwt beam="1">  1        2 0.25302967E-01 0.15314491E+03</pdfrwt>
<pdfrwt beam="2">  1       -2 0.32013923E-01 0.15314491E+03</pdfrwt>
<totfact> 0.18837274E+03</totfact>
</mgrwt>
</event>
<event>
 4    1  0.4999097E-001  0.8198305E+02  0.7546771E-02  0.1323516E+00
          2   -1    0    0  501    0  0.00000000000E+00  0.00000000000E+00  0.90714941918E+03  0.90714941918E+03  0.00000000000E+00 0. -1.
         -2   -1    0    0    0  501 -0.00000000000E+00 -0.00000000000E+00 -0.88559709022E+02  0.88559709022E+02  0.00000000000E+00 0.  1.
         24    1    1    2    0    0 -0.15510642092E+02  0.36638623987E+01  0.88586860773E+03  0.88965409571E+03  0.80419002446E+02 0. -1.
        -24    1    1    2    0    0  0.15510642092E+02 -0.36638623987E+01 -0.67278897564E+02  0.10605503250E+03  0.80419002446E+02 0.  1.
<mgrwt>
<rscale>  0 0.81983046E+02</rscale>
<asrwt>0</asrwt>
<pdfrwt beam="1">  1        2 0.13956144E+00 0.81983046E+02</pdfrwt>
<pdfrwt beam="2">  1       -2 0.13624571E-01 0.81983046E+02</pdfrwt>
<totfact> 0.12023376E+03</totfact>
</mgrwt>
</event>
<event>
 4    1  0.4999097E-001  0.8406524E+02  0.7546771E-02  0.1317895E+00
          1   -1    0    0  501    0  0.00000000000E+00  0.00000000000E+00  0.61112055694E+02  0.61112055694E+02  0.00000000000E+00 0. -1.
         -1   -1    0    0    0  501 -0.00000000000E+00 -0.00000000000E+00 -0.17375969791E+03  0.17375969791E+03  0.00000000000E+00 0.  1.
         24    1    1    2    0    0 -0.24113875800E+02  0.42742418817E+01 -0.12424262391E+03  0.15001064529E+03  0.80419002446E+02 0.  1.
        -24    1    1    2    0    0  0.24113875800E+02 -0.42742418817E+01  0.11594981692E+02  0.84861108316E+02  0.80419002446E+02 0. -1.
<mgrwt>
<rscale>  0 0.84065237E+02</rscale>
<asrwt>0</asrwt>
<pdfrwt beam="1">  1        1 0.94018547E-02 0.84065237E+02</pdfrwt>
<pdfrwt beam="2">  1       -1 0.26732261E-01 0.84065237E+02</pdfrwt>
<totfact> 0.78590450E+03</totfact>
</mgrwt>
</event>
<event>
 4    1  0.4999097E-001  0.8683877E+02  0.7546771E-02  0.1310693E+00
         -2   -1    0    0    0  501 -0.00000000000E+00  0.00000000000E+00  0.21230835541E+01  0.21230835541E+01  0.00000000000E+00 0.  1.
          2   -1    0    0  501    0  0.00000000000E+00 -0.00000000000E+00 -0.35528961434E+04  0.35528961434E+04  0.00000000000E+00 0. -1.
         24    1    1    2    0    0 -0.32743567198E+02  0.12696071362E+01 -0.17455428999E+04  0.17477016291E+04  0.80419002446E+02 0. -1.
        -24    1    1    2    0    0  0.32743567198E+02 -0.12696071362E+01 -0.18052301599E+04  0.18073175978E+04  0.80419002446E+02 0.  1.
<mgrwt>
<rscale>  0 0.86838764E+02</rscale>
<asrwt>0</asrwt>
<pdfrwt beam="1">  1        2 0.54659539E+00 0.86838775E+02</pdfrwt>
<pdfrwt beam="2">  1       -2 0.32663064E-03 0.86838775E+02</pdfrwt>
<totfact> 0.99952570E+03</totfact>
</mgrwt>
</event>
<event>
 4    1  0.4999097E-001  0.8738218E+02  0.7546771E-02  0.1309318E+00
         -1   -1    0    0    0  501 -0.00000000000E+00  0.00000000000E+00  0.17627986547E+02  0.17627986547E+02  0.00000000000E+00 0.  1.
          1   -1    0    0  501    0  0.00000000000E+00 -0.00000000000E+00 -0.47553675615E+03  0.47553675615E+03  0.00000000000E+00 0. -1.
         24    1    1    2    0    0 -0.31879400779E+02 -0.12334213384E+02 -0.15534027493E+03  0.17823087831E+03  0.80419002446E+02 0.  0.
        -24    1    1    2    0    0  0.31879400779E+02  0.12334213384E+02 -0.30256849467E+03  0.31493386438E+03  0.80419002446E+02 0.  1.
<mgrwt>
<rscale>  0 0.87382178E+02</rscale>
<asrwt>0</asrwt>
<pdfrwt beam="1">  1        1 0.73159507E-01 0.87382178E+02</pdfrwt>
<pdfrwt beam="2">  1       -1 0.27119977E-02 0.87382178E+02</pdfrwt>
<totfact> 0.19072122E+04</totfact>
</mgrwt>
</event>
<event>
 4    1  0.4999097E-001  0.1183914E+03  0.7546771E-02  0.1245775E+00
         -4   -1    0    0    0  501 -0.00000000000E+00  0.00000000000E+00  0.26228662434E+02  0.26228662434E+02  0.00000000000E+00 0.  1.
          4   -1    0    0  501    0  0.00000000000E+00 -0.00000000000E+00 -0.87972337301E+03  0.87972337301E+03  0.00000000000E+00 0. -1.
         24    1    1    2    0    0 -0.39464946285E+02 -0.77406851476E+02 -0.71055037744E+03  0.72034599844E+03  0.80419002446E+02 0. -1.
        -24    1    1    2    0    0  0.39464946285E+02  0.77406851476E+02 -0.14294433314E+03  0.18560603700E+03  0.80419002446E+02 0.  1.
<mgrwt>
<rscale>  0 0.11839138E+03</rscale>
<asrwt>0</asrwt>
<pdfrwt beam="1">  1        4 0.13534204E+00 0.11839138E+03</pdfrwt>
<pdfrwt beam="2">  1       -4 0.40351793E-02 0.11839138E+03</pdfrwt>
<totfact> 0.22711276E+02</totfact>
</mgrwt>
</event>
<event>
 4    1  0.4999097E-001  0.1076187E+03  0.7546771E-02  0.1265044E+00
         -3   -1    0    0    0  501 -0.00000000000E+00  0.00000000000E+00  0.19677245937E+02  0.19677245937E+02  0.00000000000E+00 0.  1.
          3   -1    0    0  501    0  0.00000000000E+00 -0.00000000000E+00 -0.99585659390E+03  0.99585659390E+03  0.00000000000E+00 0. -1.
         24    1    1    2    0    0  0.71312858309E+02 -0.53898419057E+01 -0.16337158497E+03  0.19563247401E+03  0.80419002446E+02 0.  1.
        -24    1    1    2    0    0 -0.71312858309E+02  0.53898419057E+01 -0.81280776299E+03  0.81990136583E+03  0.80419002446E+02 0. -1.
<mgrwt>
<rscale>  0 0.10761873E+03</rscale>
<asrwt>0</asrwt>
<pdfrwt beam="1">  1        3 0.15320870E+00 0.10761873E+03</pdfrwt>
<pdfrwt beam="2">  1       -3 0.30272687E-02 0.10761873E+03</pdfrwt>
<totfact> 0.36960737E+02</totfact>
</mgrwt>
</event>
<event>
 4    1  0.4999097E-001  0.1333906E+03  0.7546771E-02  0.1222510E+00
          1   -1    0    0  501    0  0.00000000000E+00  0.00000000000E+00  0.68327947979E+03  0.68327947979E+03  0.00000000000E+00 0. -1.
         -1   -1    0    0    0  501 -0.00000000000E+00 -0.00000000000E+00 -0.26641819817E+02  0.26641819817E+02  0.00000000000E+00 0.  1.
         24    1    1    2    0    0 -0.56351992590E+02  0.90278925922E+02  0.27499837630E+03  0.30564220006E+03  0.80419002446E+02 0.  1.
        -24    1    1    2    0    0  0.56351992590E+02 -0.90278925922E+02  0.38163928367E+03  0.40427909954E+03  0.80419002446E+02 0. -1.
<mgrwt>
<rscale>  0 0.13339058E+03</rscale>
<asrwt>0</asrwt>
<pdfrwt beam="1">  1        1 0.10511991E+00 0.13339058E+03</pdfrwt>
<pdfrwt beam="2">  1       -1 0.40987420E-02 0.13339058E+03</pdfrwt>
<totfact> 0.66712348E+03</totfact>
</mgrwt>
</event>
<event>
 4    1  0.4999097E-001  0.1545624E+03  0.7546771E-02  0.1194976E+00
         -2   -1    0    0    0  501 -0.00000000000E+00  0.00000000000E+00  0.19427814914E+02  0.19427814914E+02  0.00000000000E+00 0.  1.
          2   -1    0    0  501    0  0.00000000000E+00 -0.00000000000E+00 -0.19306002507E+04  0.19306002507E+04  0.00000000000E+00 0. -1.
         24    1    1    2    0    0  0.10245651123E+03  0.83216476419E+02 -0.15430841464E+04  0.15508056672E+04  0.80419002446E+02 0. -1.
        -24    1    1    2    0    0 -0.10245651123E+03 -0.83216476419E+02 -0.36808828932E+03  0.39922239833E+03  0.80419002446E+02 0.  1.
<mgrwt>
<rscale>  0 0.15456240E+03</rscale>
<asrwt>0</asrwt>
<pdfrwt beam="1">  1        2 0.29701545E+00 0.15456240E+03</pdfrwt>
<pdfrwt beam="2">  1       -2 0.29888943E-02 0.15456240E+03</pdfrwt>
<totfact> 0.34392902E+03</totfact>
</mgrwt>
</event>
<event>
 4    1  0.4999097E-001  0.8391449E+02  0.7546771E-02  0.1318296E+00
         -2   -1    0    0    0  501 -0.00000000000E+00  0.00000000000E+00  0.22135787259E+02  0.22135787259E+02  0.00000000000E+00 0.  1.
          2   -1    0    0  501    0  0.00000000000E+00 -0.00000000000E+00 -0.90104644051E+03  0.90104644051E+03  0.00000000000E+00 0. -1.
         24    1    1    2    0    0  0.19687052421E+02 -0.13669137484E+02 -0.81072888155E+03  0.81506009636E+03  0.80419002446E+02 0. -1.
        -24    1    1    2    0    0 -0.19687052421E+02  0.13669137484E+02 -0.68181771700E+02  0.10812213140E+03  0.80419002446E+02 0.  1.
<mgrwt>
<rscale>  0 0.83914488E+02</rscale>
<asrwt>0</asrwt>
<pdfrwt beam="1">  1        2 0.13862255E+00 0.83914488E+02</pdfrwt>
<pdfrwt beam="2">  1       -2 0.34055052E-02 0.83914488E+02</pdfrwt>
<totfact> 0.99093331E+03</totfact>
</mgrwt>
</event>
<event>
 4    1  0.4999097E-001  0.8063801E+02  0.7546771E-02  0.1327251E+00
         -3   -1    0    0    0  501 -0.00000000000E+00  0.00000000000E+00  0.13763273918E+02  0.13763273918E+02  0.00000000000E+00 0.  1.
          3   -1    0    0  501    0  0.00000000000E+00 -0.00000000000E+00 -0.53020754766E+03  0.53020754766E+03  0.00000000000E+00 0. -1.
         24    1    1    2    0    0 -0.27697150203E+01  0.52537641398E+01 -0.16845472925E+03  0.18676050203E+03  0.80419002446E+02 0.  1.
        -24    1    1    2    0    0  0.27697150203E+01 -0.52537641398E+01 -0.34798954449E+03  0.35721031955E+03  0.80419002446E+02 0.  0.
<mgrwt>
<rscale>  0 0.80638014E+02</rscale>
<asrwt>0</asrwt>
<pdfrwt beam="1">  1        3 0.81570380E-01 0.80638014E+02</pdfrwt>
<pdfrwt beam="2">  1       -3 0.21174271E-02 0.80638014E+02</pdfrwt>
<totfact> 0.25785011E+03</totfact>
</mgrwt>
</event>
<event>
 4    1  0.4999097E-001  0.9155307E+02  0.7546771E-02  0.1299134E+00
         -2   -1    0    0    0  501 -0.00000000000E+00  0.00000000000E+00  0.93704452107E+02  0.93704452107E+02  0.00000000000E+00 0.  1.
          2   -1    0    0  501    0  0.00000000000E+00 -0.00000000000E+00 -0.51442272447E+03  0.51442272447E+03  0.00000000000E+00 0. -1.
         24    1    1    2    0    0  0.17071864893E+02 -0.40290197280E+02 -0.48672494989E+03  0.49526068022E+03  0.80419002446E+02 0. -1.
        -24    1    1    2    0    0 -0.17071864893E+02  0.40290197280E+02  0.66006677529E+02  0.11286649636E+03  0.80419002446E+02 0.  1.
<mgrwt>
<rscale>  0 0.91553069E+02</rscale>
<asrwt>0</asrwt>
<pdfrwt beam="1">  1        2 0.79141958E-01 0.91553069E+02</pdfrwt>
<pdfrwt beam="2">  1       -2 0.14416069E-01 0.91553069E+02</pdfrwt>
<totfact> 0.21325429E+03</totfact>
</mgrwt>
</event>
<event>
 4    1  0.4999097E-001  0.9721278E+02  0.7546771E-02  0.1286269E+00
         -1   -1    0    0    0  501 -0.00000000000E+00  0.00000000000E+00  0.53243558965E+03  0.53243558965E+03  0.00000000000E+00 0.  1.
          1   -1    0    0  501    0  0.00000000000E+00 -0.00000000000E+00 -0.20759663626E+02  0.20759663626E+02  0.00000000000E+00 0. -1.
         24    1    1    2    0    0 -0.32240998855E+02 -0.44086586491E+02  0.36116803241E+03  0.37402228905E+03  0.80419002446E+02 0.  1.
        -24    1    1    2    0    0  0.32240998855E+02  0.44086586491E+02  0.15050789361E+03  0.17917296422E+03  0.80419002446E+02 0. -1.
<mgrwt>
<rscale>  0 0.97212782E+02</rscale>
<asrwt>0</asrwt>
<pdfrwt beam="1">  1        1 0.31937948E-02 0.97212782E+02</pdfrwt>
<pdfrwt beam="2">  1       -1 0.81913157E-01 0.97212782E+02</pdfrwt>
<totfact> 0.45178366E+03</totfact>
</mgrwt>
</event>
<event>
 4    1  0.4999097E-001  0.8805584E+02  0.7546771E-02  0.1307629E+00
          1   -1    0    0  501    0  0.00000000000E+00  0.00000000000E+00  0.17372319111E+04  0.17372319111E+04  0.00000000000E+00 0. -1.
         -1   -1    0    0    0  501 -0.00000000000E+00 -0.00000000000E+00 -0.12086787099E+02  0.12086787099E+02  0.00000000000E+00 0.  1.
         24    1    1    2    0    0  0.11983534157E+02  0.33808438231E+02  0.16793284022E+03  0.18961875004E+03  0.80419002446E+02 0.  1.
        -24    1    1    2    0    0 -0.11983534157E+02 -0.33808438231E+02  0.15572122838E+04  0.15596999482E+04  0.80419002446E+02 0. -1.
<mgrwt>
<rscale>  0 0.88055843E+02</rscale>
<asrwt>0</asrwt>
<pdfrwt beam="1">  1        1 0.26726625E+00 0.88055843E+02</pdfrwt>
<pdfrwt beam="2">  1       -1 0.18595071E-02 0.88055843E+02</pdfrwt>
<totfact> 0.37392299E+03</totfact>
</mgrwt>
</event>
<event>
 4    1  0.4999097E-001  0.8965176E+02  0.7546771E-02  0.1303697E+00
         -2   -1    0    0    0  501 -0.00000000000E+00  0.00000000000E+00  0.16593798629E+02  0.16593798629E+02  0.00000000000E+00 0.  1.
          2   -1    0    0  501    0  0.00000000000E+00 -0.00000000000E+00 -0.12090288468E+04  0.12090288468E+04  0.00000000000E+00 0. -1.
         24    1    1    2    0    0 -0.24669069146E+02 -0.31010617135E+02 -0.10706529078E+04  0.10743998727E+04  0.80419002446E+02 0. -1.
        -24    1    1    2    0    0  0.24669069146E+02  0.31010617135E+02 -0.12178214035E+03  0.15122277279E+03  0.80419002446E+02 0.  1.
<mgrwt>
<rscale>  0 0.89651756E+02</rscale>
<asrwt>0</asrwt>
<pdfrwt beam="1">  1        2 0.18600454E+00 0.89651756E+02</pdfrwt>
<pdfrwt beam="2">  1       -2 0.25528907E-02 0.89651756E+02</pdfrwt>
<totfact> 0.10069748E+04</totfact>
</mgrwt>
</event>
<event>
 4    1  0.4999097E-001  0.1732148E+03  0.7546771E-02  0.1174536E+00
         -1   -1    0    0    0  501 -0.00000000000E+00  0.00000000000E+00  0.12096751196E+03  0.12096751196E+03  0.00000000000E+00 0.  1.
          1   -1    0    0  501    0  0.00000000000E+00 -0.00000000000E+00 -0.47210742567E+03  0.47210742567E+03  0.00000000000E+00 0. -1.
         24    1    1    2    0    0 -0.38812376665E+01 -0.15336584554E+03  0.28726056386E+02  0.17558060501E+03  0.80419002446E+02 0.  1.
        -24    1    1    2    0    0  0.38812376665E+01  0.15336584554E+03 -0.37986597009E+03  0.41749433263E+03  0.80419002446E+02 0. -1.
<mgrwt>
<rscale>  0 0.17321479E+03</rscale>
<asrwt>0</asrwt>
<pdfrwt beam="1">  1        1 0.72631910E-01 0.17321479E+03</pdfrwt>
<pdfrwt beam="2">  1       -1 0.18610387E-01 0.17321479E+03</pdfrwt>
<totfact> 0.11033503E+03</totfact>
</mgrwt>
</event>
<event>
 4    1  0.4999097E-001  0.8455540E+02  0.7546771E-02  0.1316599E+00
         -2   -1    0    0    0  501 -0.00000000000E+00  0.00000000000E+00  0.25510188730E+02  0.25510188730E+02  0.00000000000E+00 0.  1.
          2   -1    0    0  501    0  0.00000000000E+00 -0.00000000000E+00 -0.28195897083E+03  0.28195897083E+03  0.00000000000E+00 0. -1.
         24    1    1    2    0    0 -0.78391234349E+01  0.24918754309E+02 -0.11630823504E+03  0.14379574981E+03  0.80419002446E+02 0.  0.
        -24    1    1    2    0    0  0.78391234349E+01 -0.24918754309E+02 -0.14014054707E+03  0.16367340975E+03  0.80419002446E+02 0.  0.
<mgrwt>
<rscale>  0 0.84555390E+02</rscale>
<asrwt>0</asrwt>
<pdfrwt beam="1">  1        2 0.43378305E-01 0.84555400E+02</pdfrwt>
<pdfrwt beam="2">  1       -2 0.39246442E-02 0.84555400E+02</pdfrwt>
<totfact> 0.29102230E+04</totfact>
</mgrwt>
</event>
<event>
 4    1  0.4999097E-001  0.9149946E+02  0.7546771E-02  0.1299261E+00
          2   -1    0    0  501    0  0.00000000000E+00  0.00000000000E+00  0.10733422098E+03  0.10733422098E+03  0.00000000000E+00 0. -1.
         -2   -1    0    0    0  501 -0.00000000000E+00 -0.00000000000E+00 -0.75969440679E+03  0.75969440679E+03  0.00000000000E+00 0.  1.
         24    1    1    2    0    0 -0.12967208805E+01  0.43626286592E+02  0.84476313060E+02  0.12453271775E+03  0.80419002446E+02 0. -1.
        -24    1    1    2    0    0  0.12967208805E+01 -0.43626286592E+02 -0.73683649887E+03  0.74249591002E+03  0.80419002446E+02 0.  1.
<mgrwt>
<rscale>  0 0.91499455E+02</rscale>
<asrwt>0</asrwt>
<pdfrwt beam="1">  1        2 0.16512958E-01 0.91499455E+02</pdfrwt>
<pdfrwt beam="2">  1       -2 0.11687606E+00 0.91499455E+02</pdfrwt>
<totfact> 0.20588789E+02</totfact>
</mgrwt>
</event>
<event>
 4    1  0.4999097E-001  0.1097828E+03  0.7546771E-02  0.1260973E+00
         -2   -1    0    0    0  501 -0.00000000000E+00  0.00000000000E+00  0.93482335587E+01  0.93482335587E+01  0.00000000000E+00 0.  1.
          2   -1    0    0  501    0  0.00000000000E+00 -0.00000000000E+00 -0.20520471012E+04  0.20520471012E+04  0.00000000000E+00 0. -1.
         24    1    1    2    0    0 -0.70669513159E+02 -0.24307723295E+02 -0.16497558117E+04  0.16534045179E+04  0.80419002446E+02 0. -1.
        -24    1    1    2    0    0  0.70669513159E+02  0.24307723295E+02 -0.39294305589E+03  0.40799081685E+03  0.80419002446E+02 0.  1.
<mgrwt>
<rscale>  0 0.10978279E+03</rscale>
<asrwt>0</asrwt>
<pdfrwt beam="1">  1        2 0.31569985E+00 0.10978279E+03</pdfrwt>
<pdfrwt beam="2">  1       -2 0.14381884E-02 0.10978279E+03</pdfrwt>
<totfact> 0.85759274E+03</totfact>
</mgrwt>
</event>
<event>
 4    1  0.4999097E-001  0.8179234E+02  0.7546771E-02  0.1324041E+00
         -1   -1    0    0    0  501 -0.00000000000E+00  0.00000000000E+00  0.47242293003E+02  0.47242293003E+02  0.00000000000E+00 0.  1.
          1   -1    0    0  501    0  0.00000000000E+00 -0.00000000000E+00 -0.23874141859E+03  0.23874141859E+03  0.00000000000E+00 0. -1.
         24    1    1    2    0    0  0.90746707099E+01 -0.11849928990E+02 -0.45428019689E+01  0.81918395185E+02  0.80419002446E+02 0.  1.
        -24    1    1    2    0    0 -0.90746707099E+01  0.11849928990E+02 -0.18695632362E+03  0.20406531641E+03  0.80419002446E+02 0.  0.
<mgrwt>
<rscale>  0 0.81792337E+02</rscale>
<asrwt>0</asrwt>
<pdfrwt beam="1">  1        1 0.36729450E-01 0.81792337E+02</pdfrwt>
<pdfrwt beam="2">  1       -1 0.72680449E-02 0.81792337E+02</pdfrwt>
<totfact> 0.10532355E+04</totfact>
</mgrwt>
</event>
<event>
 4    1  0.4999097E-001  0.9891068E+02  0.7546771E-02  0.1282603E+00
         -1   -1    0    0    0  501 -0.00000000000E+00  0.00000000000E+00  0.47208950589E+02  0.47208950589E+02  0.00000000000E+00 0.  1.
          1   -1    0    0  501    0  0.00000000000E+00 -0.00000000000E+00 -0.23491901793E+03  0.23491901793E+03  0.00000000000E+00 0. -1.
         24    1    1    2    0    0  0.51147723003E+02  0.26457750824E+02 -0.14228078855E+03  0.17328341205E+03  0.80419002446E+02 0.  0.
        -24    1    1    2    0    0 -0.51147723003E+02 -0.26457750824E+02 -0.45429278792E+02  0.10884455647E+03  0.80419002446E+02 0.  0.
<mgrwt>
<rscale>  0 0.98910670E+02</rscale>
<asrwt>0</asrwt>
<pdfrwt beam="1">  1        1 0.36141387E-01 0.98910682E+02</pdfrwt>
<pdfrwt beam="2">  1       -1 0.72629155E-02 0.98910682E+02</pdfrwt>
<totfact> 0.10941484E+04</totfact>
</mgrwt>
</event>
<event>
 4    1  0.4999097E-001  0.1277251E+03  0.7546771E-02  0.1230871E+00
          1   -1    0    0  501    0  0.00000000000E+00  0.00000000000E+00  0.85020382827E+03  0.85020382827E+03  0.00000000000E+00 0. -1.
         -1   -1    0    0    0  501 -0.00000000000E+00 -0.00000000000E+00 -0.24404128238E+02  0.24404128238E+02  0.00000000000E+00 0.  1.
         24    1    1    2    0    0 -0.43464955506E+02  0.89203545755E+02  0.21072510846E+03  0.24641177371E+03  0.80419002446E+02 0.  1.
        -24    1    1    2    0    0  0.43464955506E+02 -0.89203545755E+02  0.61507459157E+03  0.62819618280E+03  0.80419002446E+02 0. -1.
<mgrwt>
<rscale>  0 0.12772506E+03</rscale>
<asrwt>0</asrwt>
<pdfrwt beam="1">  1        1 0.13080057E+00 0.12772506E+03</pdfrwt>
<pdfrwt beam="2">  1       -1 0.37544819E-02 0.12772506E+03</pdfrwt>
<totfact> 0.54821947E+03</totfact>
</mgrwt>
</event>
<event>
 4    1  0.4999097E-001  0.1109771E+03  0.7546771E-02  0.1258771E+00
          2   -1    0    0  501    0  0.00000000000E+00  0.00000000000E+00  0.16330711914E+04  0.16330711914E+04  0.00000000000E+00 0. -1.
         -2   -1    0    0    0  501 -0.00000000000E+00 -0.00000000000E+00 -0.89410374276E+01  0.89410374276E+01  0.00000000000E+00 0.  1.
         24    1    1    2    0    0  0.40110076438E+02 -0.65114350993E+02  0.11368789537E+04  0.11422826569E+04  0.80419002446E+02 0. -1.
        -24    1    1    2    0    0 -0.40110076438E+02  0.65114350993E+02  0.48725120030E+03  0.49972957195E+03  0.80419002446E+02 0.  1.
<mgrwt>
<rscale>  0 0.11097708E+03</rscale>
<asrwt>0</asrwt>
<pdfrwt beam="1">  1        2 0.25124148E+00 0.11097708E+03</pdfrwt>
<pdfrwt beam="2">  1       -2 0.13755455E-02 0.11097708E+03</pdfrwt>
<totfact> 0.14911935E+04</totfact>
</mgrwt>
</event>
<event>
 4    1  0.4999097E-001  0.8046456E+02  0.7546771E-02  0.1327738E+00
          3   -1    0    0  501    0  0.00000000000E+00  0.00000000000E+00  0.20392942739E+03  0.20392942739E+03  0.00000000000E+00 0. -1.
         -3   -1    0    0    0  501 -0.00000000000E+00 -0.00000000000E+00 -0.77387411688E+02  0.77387411688E+02  0.00000000000E+00 0.  1.
         24    1    1    2    0    0 -0.17962339423E+01  0.20255246806E+01 -0.44746977279E+02  0.92069740613E+02  0.80419002446E+02 0.  0.
        -24    1    1    2    0    0  0.17962339423E+01 -0.20255246806E+01  0.17128899298E+03  0.18924709846E+03  0.80419002446E+02 0. -1.
<mgrwt>
<rscale>  0 0.80464558E+02</rscale>
<asrwt>0</asrwt>
<pdfrwt beam="1">  1        3 0.31373758E-01 0.80464558E+02</pdfrwt>
<pdfrwt beam="2">  1       -3 0.11905756E-01 0.80464558E+02</pdfrwt>
<totfact> 0.11390783E+03</totfact>
</mgrwt>
</event>
<event>
 4    1  0.4999097E-001  0.8057375E+02  0.7546771E-02  0.1327431E+00
          2   -1    0    0  501    0  0.00000000000E+00  0.00000000000E+00  0.11243959082E+04  0.11243959082E+04  0.00000000000E+00 0. -1.
         -2   -1    0    0    0  501 -0.00000000000E+00 -0.00000000000E+00 -0.67772179239E+01  0.67772179239E+01  0.00000000000E+00 0.  1.
         24    1    1    2    0    0 -0.45753693764E+01  0.19947005418E+01  0.77642825785E+03  0.78059782755E+03  0.80419002446E+02 0. -1.
        -24    1    1    2    0    0  0.45753693764E+01 -0.19947005418E+01  0.34119043239E+03  0.35057529854E+03  0.80419002446E+02 0.  0.
<mgrwt>
<rscale>  0 0.80573748E+02</rscale>
<asrwt>0</asrwt>
<pdfrwt beam="1">  1        2 0.17298384E+00 0.80573748E+02</pdfrwt>
<pdfrwt beam="2">  1       -2 0.10426498E-02 0.80573748E+02</pdfrwt>
<totfact> 0.39857486E+04</totfact>
</mgrwt>
</event>
<event>
 4    1  0.4999097E-001  0.1055551E+03  0.7546771E-02  0.1269030E+00
         -4   -1    0    0    0  501 -0.00000000000E+00  0.00000000000E+00  0.92030204786E+02  0.92030204786E+02  0.00000000000E+00 0.  1.
          4   -1    0    0  501    0  0.00000000000E+00 -0.00000000000E+00 -0.36901713924E+03  0.36901713924E+03  0.00000000000E+00 0. -1.
         24    1    1    2    0    0  0.11772701495E+02 -0.67350391885E+02 -0.32745517323E+03  0.34404763946E+03  0.80419002446E+02 0. -1.
        -24    1    1    2    0    0 -0.11772701495E+02  0.67350391885E+02  0.50468238782E+02  0.11699970456E+03  0.80419002446E+02 0.  1.
<mgrwt>
<rscale>  0 0.10555514E+03</rscale>
<asrwt>0</asrwt>
<pdfrwt beam="1">  1        4 0.56771869E-01 0.10555514E+03</pdfrwt>
<pdfrwt beam="2">  1       -4 0.14158493E-01 0.10555514E+03</pdfrwt>
<totfact> 0.19806779E+02</totfact>
</mgrwt>
</event>
<event>
 4    1  0.4999097E-001  0.9660184E+02  0.7546771E-02  0.1287609E+00
         -1   -1    0    0    0  501 -0.00000000000E+00  0.00000000000E+00  0.19210398493E+02  0.19210398493E+02  0.00000000000E+00 0.  1.
          1   -1    0    0  501    0  0.00000000000E+00 -0.00000000000E+00 -0.20828435222E+04  0.20828435222E+04  0.00000000000E+00 0. -1.
         24    1    1    2    0    0  0.40659500736E+02  0.34806665689E+02 -0.11147841045E+03  0.14751051125E+03  0.80419002446E+02 0.  1.
        -24    1    1    2    0    0 -0.40659500736E+02 -0.34806665689E+02 -0.19521547133E+04  0.19545434095E+04  0.80419002446E+02 0. -1.
<mgrwt>
<rscale>  0 0.96601837E+02</rscale>
<asrwt>0</asrwt>
<pdfrwt beam="1">  1        1 0.32043740E+00 0.96601837E+02</pdfrwt>
<pdfrwt beam="2">  1       -1 0.29554465E-02 0.96601837E+02</pdfrwt>
<totfact> 0.11698087E+03</totfact>
</mgrwt>
</event>
<event>
 4    1  0.4999097E-001  0.1070130E+03  0.7546771E-02  0.1266203E+00
         -2   -1    0    0    0  501 -0.00000000000E+00  0.00000000000E+00  0.38083412066E+03  0.38083412066E+03  0.00000000000E+00 0.  1.
          2   -1    0    0  501    0  0.00000000000E+00 -0.00000000000E+00 -0.84777204225E+03  0.84777204225E+03  0.00000000000E+00 0. -1.
         24    1    1    2    0    0  0.52484003301E+02  0.47222889995E+02 -0.83677908877E+03  0.84359411526E+03  0.80419002446E+02 0. -1.
        -24    1    1    2    0    0 -0.52484003301E+02 -0.47222889995E+02  0.36984116718E+03  0.38501204766E+03  0.80419002446E+02 0.  1.
<mgrwt>
<rscale>  0 0.10701303E+03</rscale>
<asrwt>0</asrwt>
<pdfrwt beam="1">  1        2 0.13042647E+00 0.10701303E+03</pdfrwt>
<pdfrwt beam="2">  1       -2 0.58589865E-01 0.10701303E+03</pdfrwt>
<totfact> 0.96861277E+01</totfact>
</mgrwt>
</event>
<event>
 4    1  0.4999097E-001  0.9831984E+02  0.7546771E-02  0.1283869E+00
          2   -1    0    0  501    0  0.00000000000E+00  0.00000000000E+00  0.14249367202E+04  0.14249367202E+04  0.00000000000E+00 0. -1.
         -2   -1    0    0    0  501 -0.00000000000E+00 -0.00000000000E+00 -0.99269814836E+01  0.99269814836E+01  0.00000000000E+00 0.  1.
         24    1    1    2    0    0 -0.56486998259E+02  0.29655420038E+01  0.11111892606E+04  0.11155305304E+04  0.80419002446E+02 0.  0.
        -24    1    1    2    0    0  0.56486998259E+02 -0.29655420038E+01  0.30382047820E+03  0.31933317137E+03  0.80419002446E+02 0. -1.
<mgrwt>
<rscale>  0 0.98319842E+02</rscale>
<asrwt>0</asrwt>
<pdfrwt beam="1">  1        2 0.21922087E+00 0.98319842E+02</pdfrwt>
<pdfrwt beam="2">  1       -2 0.15272290E-02 0.98319842E+02</pdfrwt>
<totfact> 0.16299501E+04</totfact>
</mgrwt>
</event>
<event>
 4    1  0.4999097E-001  0.9591828E+02  0.7546771E-02  0.1289121E+00
          2   -1    0    0  501    0  0.00000000000E+00  0.00000000000E+00  0.15371307657E+04  0.15371307657E+04  0.00000000000E+00 0. -1.
         -2   -1    0    0    0  501 -0.00000000000E+00 -0.00000000000E+00 -0.73196755898E+01  0.73196755898E+01  0.00000000000E+00 0.  1.
         24    1    1    2    0    0 -0.51911399662E+02 -0.61892465459E+01  0.10946090957E+04  0.10988036169E+04  0.80419002446E+02 0.  1.
        -24    1    1    2    0    0  0.51911399662E+02  0.61892465459E+01  0.43520199439E+03  0.44564682436E+03  0.80419002446E+02 0. -1.
<mgrwt>
<rscale>  0 0.95918278E+02</rscale>
<asrwt>0</asrwt>
<pdfrwt beam="1">  1        2 0.23648140E+00 0.95918278E+02</pdfrwt>
<pdfrwt beam="2">  1       -2 0.11261052E-02 0.95918278E+02</pdfrwt>
<totfact> 0.21996891E+04</totfact>
</mgrwt>
</event>
<event>
 4    1  0.4999097E-001  0.8514822E+02  0.7546771E-02  0.1315045E+00
          2   -1    0    0  501    0  0.00000000000E+00  0.00000000000E+00  0.81008118803E+03  0.81008118803E+03  0.00000000000E+00 0. -1.
         -2   -1    0    0    0  501 -0.00000000000E+00 -0.00000000000E+00 -0.20752982081E+02  0.20752982081E+02  0.00000000000E+00 0.  1.
         24    1    1    2    0    0  0.54799128184E+01 -0.27440377145E+02  0.70794948414E+03  0.71305167540E+03  0.80419002446E+02 0. -1.
        -24    1    1    2    0    0 -0.54799128184E+01  0.27440377145E+02  0.81378721806E+02  0.11778249471E+03  0.80419002446E+02 0.  1.
<mgrwt>
<rscale>  0 0.85148222E+02</rscale>
<asrwt>0</asrwt>
<pdfrwt beam="1">  1        2 0.12462785E+00 0.85148222E+02</pdfrwt>
<pdfrwt beam="2">  1       -2 0.31927671E-02 0.85148222E+02</pdfrwt>
<totfact> 0.12447813E+04</totfact>
</mgrwt>
</event>
<event>
 4    1  0.4999097E-001  0.1153755E+03  0.7546771E-02  0.1250927E+00
          2   -1    0    0  501    0  0.00000000000E+00  0.00000000000E+00  0.75347230701E+03  0.75347230701E+03  0.00000000000E+00 0. -1.
         -2   -1    0    0    0  501 -0.00000000000E+00 -0.00000000000E+00 -0.25816310680E+02  0.25816310680E+02  0.00000000000E+00 0.  1.
         24    1    1    2    0    0  0.51377433049E+02 -0.64843156436E+02  0.14490804141E+03  0.18522913373E+03  0.80419002446E+02 0.  0.
        -24    1    1    2    0    0 -0.51377433049E+02  0.64843156436E+02  0.58274795492E+03  0.59405948396E+03  0.80419002446E+02 0.  0.
<mgrwt>
<rscale>  0 0.11537545E+03</rscale>
<asrwt>0</asrwt>
<pdfrwt beam="1">  1        2 0.11591880E+00 0.11537547E+03</pdfrwt>
<pdfrwt beam="2">  1       -2 0.39717407E-02 0.11537547E+03</pdfrwt>
<totfact> 0.10088468E+04</totfact>
</mgrwt>
</event>
<event>
 4    1  0.4999097E-001  0.8343511E+02  0.7546771E-02  0.1319576E+00
          2   -1    0    0  501    0  0.00000000000E+00  0.00000000000E+00  0.15602767871E+03  0.15602767871E+03  0.00000000000E+00 0. -1.
         -2   -1    0    0    0  501 -0.00000000000E+00 -0.00000000000E+00 -0.20190176134E+03  0.20190176134E+03  0.00000000000E+00 0.  1.
         24    1    1    2    0    0  0.17401766924E+02  0.13834031646E+02  0.13502084239E+03  0.15872002318E+03  0.80419002446E+02 0. -1.
        -24    1    1    2    0    0 -0.17401766924E+02 -0.13834031646E+02 -0.18089492501E+03  0.19920941687E+03  0.80419002446E+02 0.  1.
<mgrwt>
<rscale>  0 0.83435112E+02</rscale>
<asrwt>0</asrwt>
<pdfrwt beam="1">  1        2 0.24004258E-01 0.83435112E+02</pdfrwt>
<pdfrwt beam="2">  1       -2 0.31061809E-01 0.83435112E+02</pdfrwt>
<totfact> 0.20497678E+03</totfact>
</mgrwt>
</event>
<event>
 4    1  0.4999097E-001  0.8233315E+02  0.7546771E-02  0.1322558E+00
          2   -1    0    0  501    0  0.00000000000E+00  0.00000000000E+00  0.74430598650E+03  0.74430598650E+03  0.00000000000E+00 0. -1.
         -2   -1    0    0    0  501 -0.00000000000E+00 -0.00000000000E+00 -0.10231919580E+02  0.10231919580E+02  0.00000000000E+00 0.  1.
         24    1    1    2    0    0 -0.12575363916E+02  0.12385146666E+02  0.49210373167E+03  0.49894371458E+03  0.80419002446E+02 0.  0.
        -24    1    1    2    0    0  0.12575363916E+02 -0.12385146666E+02  0.24197033524E+03  0.25559419150E+03  0.80419002446E+02 0.  0.
<mgrwt>
<rscale>  0 0.82333150E+02</rscale>
<asrwt>0</asrwt>
<pdfrwt beam="1">  1        2 0.11450857E+00 0.82333150E+02</pdfrwt>
<pdfrwt beam="2">  1       -2 0.15741421E-02 0.82333150E+02</pdfrwt>
<totfact> 0.37985326E+04</totfact>
</mgrwt>
</event>
<event>
 4    1  0.4999097E-001  0.8060068E+02  0.7546771E-02  0.1327355E+00
          2   -1    0    0  501    0  0.00000000000E+00  0.00000000000E+00  0.14408053472E+04  0.14408053472E+04  0.00000000000E+00 0. -1.
         -2   -1    0    0    0  501 -0.00000000000E+00 -0.00000000000E+00 -0.35633932544E+02  0.35633932544E+02  0.00000000000E+00 0.  1.
         24    1    1    2    0    0  0.35882869288E+01 -0.40469213162E+01  0.13925212498E+04  0.13948519278E+04  0.80419002446E+02 0. -1.
        -24    1    1    2    0    0 -0.35882869288E+01  0.40469213162E+01  0.12650164873E+02  0.81587351967E+02  0.80419002446E+02 0.  0.
<mgrwt>
<rscale>  0 0.80600678E+02</rscale>
<asrwt>0</asrwt>
<pdfrwt beam="1">  1        2 0.22166232E+00 0.80600678E+02</pdfrwt>
<pdfrwt beam="2">  1       -2 0.54821446E-02 0.80600678E+02</pdfrwt>
<totfact> 0.24741214E+03</totfact>
</mgrwt>
</event>
<event>
 4    1  0.4999097E-001  0.2109272E+03  0.7546771E-02  0.1140834E+00
          1   -1    0    0  501    0  0.00000000000E+00  0.00000000000E+00  0.66830711992E+03  0.66830711992E+03  0.00000000000E+00 0. -1.
         -1   -1    0    0    0  501 -0.00000000000E+00 -0.00000000000E+00 -0.90237412293E+02  0.90237412293E+02  0.00000000000E+00 0.  1.
         24    1    1    2    0    0 -0.10874967039E+03 -0.16185355705E+03  0.94803923773E+02  0.23125324788E+03  0.80419002446E+02 0. -1.
        -24    1    1    2    0    0  0.10874967039E+03  0.16185355705E+03  0.48326578385E+03  0.52729128433E+03  0.80419002446E+02 0.  0.
<mgrwt>
<rscale>  0 0.21092719E+03</rscale>
<asrwt>0</asrwt>
<pdfrwt beam="1">  1        1 0.10281648E+00 0.21092719E+03</pdfrwt>
<pdfrwt beam="2">  1       -1 0.13882679E-01 0.21092719E+03</pdfrwt>
<totfact> 0.10979833E+03</totfact>
</mgrwt>
</event>
<event>
 4    1  0.4999097E-001  0.8807242E+02  0.7546771E-02  0.1307588E+00
          4   -1    0    0  501    0  0.00000000000E+00  0.00000000000E+00  0.46753051900E+03  0.46753051900E+03  0.00000000000E+00 0. -1.
         -4   -1    0    0    0  501 -0.00000000000E+00 -0.00000000000E+00 -0.34060419766E+02  0.34060419766E+02  0.00000000000E+00 0.  1.
         24    1    1    2    0    0 -0.13158883135E+02 -0.33412247041E+02  0.39634699489E+03  0.40601439725E+03  0.80419002446E+02 0. -1.
        -24    1    1    2    0    0  0.13158883135E+02  0.33412247041E+02  0.37123104337E+02  0.95576541513E+02  0.80419002446E+02 0.  1.
<mgrwt>
<rscale>  0 0.88072416E+02</rscale>
<asrwt>0</asrwt>
<pdfrwt beam="1">  1        4 0.71927768E-01 0.88072416E+02</pdfrwt>
<pdfrwt beam="2">  1       -4 0.52400649E-02 0.88072416E+02</pdfrwt>
<totfact> 0.59995217E+02</totfact>
</mgrwt>
</event>
<event>
 4    1  0.4999097E-001  0.9929614E+02  0.7546771E-02  0.1281783E+00
         -2   -1    0    0    0  501 -0.00000000000E+00  0.00000000000E+00  0.77700137098E+01  0.77700137098E+01  0.00000000000E+00 0.  1.
          2   -1    0    0  501    0  0.00000000000E+00 -0.00000000000E+00 -0.12899606879E+04  0.12899606879E+04  0.00000000000E+00 0. -1.
         24    1    1    2    0    0  0.11868903973E+02 -0.57023084235E+02 -0.55827450656E+03  0.56703628071E+03  0.80419002446E+02 0. -1.
        -24    1    1    2    0    0 -0.11868903973E+02  0.57023084235E+02 -0.72391616765E+03  0.73069442092E+03  0.80419002446E+02 0.  0.
<mgrwt>
<rscale>  0 0.99296130E+02</rscale>
<asrwt>0</asrwt>
<pdfrwt beam="1">  1        2 0.19845546E+00 0.99296142E+02</pdfrwt>
<pdfrwt beam="2">  1       -2 0.11953869E-02 0.99296142E+02</pdfrwt>
<totfact> 0.27235972E+04</totfact>
</mgrwt>
</event>
<event>
 4    1  0.4999097E-001  0.8167745E+02  0.7546771E-02  0.1324357E+00
         -1   -1    0    0    0  501 -0.00000000000E+00  0.00000000000E+00  0.80896009529E+03  0.80896009529E+03  0.00000000000E+00 0.  1.
          1   -1    0    0  501    0  0.00000000000E+00 -0.00000000000E+00 -0.26766773849E+02  0.26766773849E+02  0.00000000000E+00 0. -1.
         24    1    1    2    0    0 -0.51331045341E+01 -0.13328183427E+02  0.73867954197E+03  0.74318145222E+03  0.80419002446E+02 0.  1.
        -24    1    1    2    0    0  0.51331045341E+01  0.13328183427E+02  0.43513779473E+02  0.92545416926E+02  0.80419002446E+02 0.  0.
<mgrwt>
<rscale>  0 0.81677446E+02</rscale>
<asrwt>0</asrwt>
<pdfrwt beam="1">  1        1 0.41179658E-02 0.81677446E+02</pdfrwt>
<pdfrwt beam="2">  1       -1 0.12445538E+00 0.81677446E+02</pdfrwt>
<totfact> 0.12655208E+03</totfact>
</mgrwt>
</event>
<event>
 4    1  0.4999097E-001  0.8741277E+02  0.7546771E-02  0.1309241E+00
         -1   -1    0    0    0  501 -0.00000000000E+00  0.00000000000E+00  0.63830054909E+02  0.63830054909E+02  0.00000000000E+00 0.  1.
          1   -1    0    0  501    0  0.00000000000E+00 -0.00000000000E+00 -0.12862650464E+03  0.12862650464E+03  0.00000000000E+00 0. -1.
         24    1    1    2    0    0  0.15644783440E+02  0.30479771658E+02 -0.70600950706E+01  0.87697415161E+02  0.80419002446E+02 0. -1.
        -24    1    1    2    0    0 -0.15644783440E+02 -0.30479771658E+02 -0.57736354662E+02  0.10475914439E+03  0.80419002446E+02 0.  0.
<mgrwt>
<rscale>  0 0.87412766E+02</rscale>
<asrwt>0</asrwt>
<pdfrwt beam="1">  1        1 0.19788693E-01 0.87412766E+02</pdfrwt>
<pdfrwt beam="2">  1       -1 0.98200086E-02 0.87412766E+02</pdfrwt>
<totfact> 0.14499385E+04</totfact>
</mgrwt>
</event>
<event>
 4    1  0.4999097E-001  0.1233152E+03  0.7546771E-02  0.1237726E+00
         -4   -1    0    0    0  501 -0.00000000000E+00  0.00000000000E+00  0.24792141475E+02  0.24792141475E+02  0.00000000000E+00 0.  1.
          4   -1    0    0  501    0  0.00000000000E+00 -0.00000000000E+00 -0.89009056433E+03  0.89009056433E+03  0.00000000000E+00 0. -1.
         24    1    1    2    0    0 -0.75078760495E+01 -0.93182843167E+02 -0.68770967041E+03  0.69867819287E+03  0.80419002446E+02 0. -1.
        -24    1    1    2    0    0  0.75078760495E+01  0.93182843167E+02 -0.17758875245E+03  0.21620451293E+03  0.80419002446E+02 0.  1.
<mgrwt>
<rscale>  0 0.12331515E+03</rscale>
<asrwt>0</asrwt>
<pdfrwt beam="1">  1        4 0.13693699E+00 0.12331515E+03</pdfrwt>
<pdfrwt beam="2">  1       -4 0.38141762E-02 0.12331515E+03</pdfrwt>
<totfact> 0.24302420E+02</totfact>
</mgrwt>
</event>
<event>
 4    1  0.4999097E-001  0.9746542E+02  0.7546771E-02  0.1285718E+00
          2   -1    0    0  501    0  0.00000000000E+00  0.00000000000E+00  0.38813670079E+03  0.38813670079E+03  0.00000000000E+00 0. -1.
         -2   -1    0    0    0  501 -0.00000000000E+00 -0.00000000000E+00 -0.27749990100E+02  0.27749990100E+02  0.00000000000E+00 0.  1.
         24    1    1    2    0    0 -0.18022047598E+02  0.52033631706E+02  0.25163344140E+03  0.26984976897E+03  0.80419002446E+02 0. -1.
        -24    1    1    2    0    0  0.18022047598E+02 -0.52033631706E+02  0.10875326929E+03  0.14603692192E+03  0.80419002446E+02 0.  1.
<mgrwt>
<rscale>  0 0.97465425E+02</rscale>
<asrwt>0</asrwt>
<pdfrwt beam="1">  1        2 0.59713335E-01 0.97465425E+02</pdfrwt>
<pdfrwt beam="2">  1       -2 0.42692295E-02 0.97465425E+02</pdfrwt>
<totfact> 0.18689484E+04</totfact>
</mgrwt>
</event>
<event>
 4    1  0.4999097E-001  0.8247082E+02  0.7546771E-02  0.1322182E+00
          2   -1    0    0  501    0  0.00000000000E+00  0.00000000000E+00  0.13069561589E+04  0.13069561589E+04  0.00000000000E+00 0. -1.
         -2   -1    0    0    0  501 -0.00000000000E+00 -0.00000000000E+00 -0.74016892842E+02  0.74016892842E+02  0.00000000000E+00 0.  1.
         24    1    1    2    0    0 -0.11378392369E+02  0.14309195012E+02  0.12822402157E+04  0.12848896480E+04  0.80419002446E+02 0. -1.
        -24    1    1    2    0    0  0.11378392369E+02 -0.14309195012E+02 -0.49300949663E+02  0.96083403702E+02  0.80419002446E+02 0.  1.
<mgrwt>
<rscale>  0 0.82470824E+02</rscale>
<asrwt>0</asrwt>
<pdfrwt beam="1">  1        2 0.20107016E+00 0.82470824E+02</pdfrwt>
<pdfrwt beam="2">  1       -2 0.11387215E-01 0.82470824E+02</pdfrwt>
<totfact> 0.95256692E+02</totfact>
</mgrwt>
</event>
<event>
 4    1  0.4999097E-001  0.9592537E+02  0.7546771E-02  0.1289105E+00
         -1   -1    0    0    0  501 -0.00000000000E+00  0.00000000000E+00  0.92218707901E+02  0.92218707901E+02  0.00000000000E+00 0.  1.
          1   -1    0    0  501    0  0.00000000000E+00 -0.00000000000E+00 -0.10039201328E+03  0.10039201328E+03  0.00000000000E+00 0. -1.
         24    1    1    2    0    0 -0.43838127648E+02  0.28507543182E+02  0.34264013387E+01  0.95986549237E+02  0.80419002446E+02 0.  0.
        -24    1    1    2    0    0  0.43838127648E+02 -0.28507543182E+02 -0.11599706720E+02  0.96624171946E+02  0.80419002446E+02 0. -1.
<mgrwt>
<rscale>  0 0.95925374E+02</rscale>
<asrwt>0</asrwt>
<pdfrwt beam="1">  1        1 0.15444925E-01 0.95925374E+02</pdfrwt>
<pdfrwt beam="2">  1       -1 0.14187493E-01 0.95925374E+02</pdfrwt>
<totfact> 0.11427279E+04</totfact>
</mgrwt>
</event>
<event>
 4    1  0.4999097E-001  0.8450855E+02  0.7546771E-02  0.1316723E+00
          2   -1    0    0  501    0  0.00000000000E+00  0.00000000000E+00  0.46293929866E+03  0.46293929866E+03  0.00000000000E+00 0. -1.
         -2   -1    0    0    0  501 -0.00000000000E+00 -0.00000000000E+00 -0.14200913161E+03  0.14200913161E+03  0.00000000000E+00 0.  1.
         24    1    1    2    0    0 -0.25770222628E+02  0.32210717515E+01  0.44603777878E+03  0.45397290198E+03  0.80419002446E+02 0. -1.
        -24    1    1    2    0    0  0.25770222628E+02 -0.32210717515E+01 -0.12510761172E+03  0.15097552829E+03  0.80419002446E+02 0.  1.
<mgrwt>
<rscale>  0 0.84508554E+02</rscale>
<asrwt>0</asrwt>
<pdfrwt beam="1">  1        2 0.71221430E-01 0.84508554E+02</pdfrwt>
<pdfrwt beam="2">  1       -2 0.21847559E-01 0.84508554E+02</pdfrwt>
<totfact> 0.11997767E+03</totfact>
</mgrwt>
</event>
<event>
 4    1  0.4999097E-001  0.8109830E+02  0.7546771E-02  0.1325963E+00
         -1   -1    0    0    0  501 -0.00000000000E+00  0.00000000000E+00  0.54282195080E+02  0.54282195080E+02  0.00000000000E+00 0.  1.
          1   -1    0    0  501    0  0.00000000000E+00 -0.00000000000E+00 -0.46727866014E+03  0.46727866014E+03  0.00000000000E+00 0. -1.
         24    1    1    2    0    0  0.10082162076E+02  0.28404383010E+01  0.17940771277E+02  0.83059047130E+02  0.80419002446E+02 0.  1.
        -24    1    1    2    0    0 -0.10082162076E+02 -0.28404383010E+01 -0.43093723633E+03  0.43850180808E+03  0.80419002446E+02 0.  0.
<mgrwt>
<rscale>  0 0.81098299E+02</rscale>
<asrwt>0</asrwt>
<pdfrwt beam="1">  1        1 0.71889020E-01 0.81098299E+02</pdfrwt>
<pdfrwt beam="2">  1       -1 0.83511075E-02 0.81098299E+02</pdfrwt>
<totfact> 0.37553763E+03</totfact>
</mgrwt>
</event>
<event>
 4    1  0.4999097E-001  0.8254158E+02  0.7546771E-02  0.1321990E+00
         -1   -1    0    0    0  501 -0.00000000000E+00  0.00000000000E+00  0.19613913686E+03  0.19613913686E+03  0.00000000000E+00 0.  1.
          1   -1    0    0  501    0  0.00000000000E+00 -0.00000000000E+00 -0.35879630897E+02  0.35879630897E+02  0.00000000000E+00 0. -1.
         24    1    1    2    0    0 -0.18201269849E+02  0.38223809889E+01  0.10084018298E+03  0.13031444770E+03  0.80419002446E+02 0.  1.
        -24    1    1    2    0    0  0.18201269849E+02 -0.38223809889E+01  0.59419322981E+02  0.10170432006E+03  0.80419002446E+02 0. -1.
<mgrwt>
<rscale>  0 0.82541582E+02</rscale>
<asrwt>0</asrwt>
<pdfrwt beam="1">  1        1 0.55199433E-02 0.82541582E+02</pdfrwt>
<pdfrwt beam="2">  1       -1 0.30175251E-01 0.82541582E+02</pdfrwt>
<totfact> 0.13028112E+04</totfact>
</mgrwt>
</event>
<event>
 4    1  0.4999097E-001  0.1032447E+03  0.7546771E-02  0.1273617E+00
         -2   -1    0    0    0  501 -0.00000000000E+00  0.00000000000E+00  0.98051964512E+01  0.98051964512E+01  0.00000000000E+00 0.  1.
          2   -1    0    0  501    0  0.00000000000E+00 -0.00000000000E+00 -0.10886632418E+04  0.10886632418E+04  0.00000000000E+00 0. -1.
         24    1    1    2    0    0  0.12537349910E+01  0.64735505345E+02 -0.56007491631E+03  0.56951153222E+03  0.80419002446E+02 0.  0.
        -24    1    1    2    0    0 -0.12537349910E+01 -0.64735505345E+02 -0.51878312908E+03  0.52895690607E+03  0.80419002446E+02 0.  1.
<mgrwt>
<rscale>  0 0.10324473E+03</rscale>
<asrwt>0</asrwt>
<pdfrwt beam="1">  1        2 0.16748673E+00 0.10324473E+03</pdfrwt>
<pdfrwt beam="2">  1       -2 0.15084911E-02 0.10324473E+03</pdfrwt>
<totfact> 0.25277191E+04</totfact>
</mgrwt>
</event>
<event>
 4    1  0.4999097E-001  0.8265758E+02  0.7546771E-02  0.1321674E+00
         -2   -1    0    0    0  501 -0.00000000000E+00  0.00000000000E+00  0.51658262735E+02  0.51658262735E+02  0.00000000000E+00 0.  1.
          2   -1    0    0  501    0  0.00000000000E+00 -0.00000000000E+00 -0.13390926570E+03  0.13390926570E+03  0.00000000000E+00 0. -1.
         24    1    1    2    0    0  0.15838989127E+02 -0.10685652522E+02 -0.30825502861E+02  0.88218389961E+02  0.80419002446E+02 0.  1.
        -24    1    1    2    0    0 -0.15838989127E+02  0.10685652522E+02 -0.51425500105E+02  0.97349138475E+02  0.80419002446E+02 0.  1.
<mgrwt>
<rscale>  0 0.82657573E+02</rscale>
<asrwt>0</asrwt>
<pdfrwt beam="1">  1        2 0.20601425E-01 0.82657584E+02</pdfrwt>
<pdfrwt beam="2">  1       -2 0.79474251E-02 0.82657584E+02</pdfrwt>
<totfact> 0.22467066E+04</totfact>
</mgrwt>
</event>
<event>
 4    1  0.4999097E-001  0.1026637E+03  0.7546771E-02  0.1274792E+00
          2   -1    0    0  501    0  0.00000000000E+00  0.00000000000E+00  0.13236870803E+04  0.13236870803E+04  0.00000000000E+00 0. -1.
         -2   -1    0    0    0  501 -0.00000000000E+00 -0.00000000000E+00 -0.23656455019E+02  0.23656455019E+02  0.00000000000E+00 0.  1.
         24    1    1    2    0    0  0.23628383870E+01 -0.63773293468E+02  0.11987216713E+04  0.12031099190E+04  0.80419002446E+02 0. -1.
        -24    1    1    2    0    0 -0.23628383870E+01  0.63773293468E+02  0.10130895393E+03  0.14423361628E+03  0.80419002446E+02 0.  1.
<mgrwt>
<rscale>  0 0.10266368E+03</rscale>
<asrwt>0</asrwt>
<pdfrwt beam="1">  1        2 0.20364411E+00 0.10266368E+03</pdfrwt>
<pdfrwt beam="2">  1       -2 0.36394557E-02 0.10266368E+03</pdfrwt>
<totfact> 0.52492953E+03</totfact>
</mgrwt>
</event>
<event>
 4    1  0.4999097E-001  0.9418131E+02  0.7546771E-02  0.1293031E+00
         -1   -1    0    0    0  501 -0.00000000000E+00  0.00000000000E+00  0.12189485041E+03  0.12189485041E+03  0.00000000000E+00 0.  1.
          1   -1    0    0  501    0  0.00000000000E+00 -0.00000000000E+00 -0.18132868630E+03  0.18132868630E+03  0.00000000000E+00 0. -1.
         24    1    1    2    0    0 -0.30301974088E+02 -0.38531728432E+02  0.87592994754E+02  0.12861824293E+03  0.80419002446E+02 0.  1.
        -24    1    1    2    0    0  0.30301974088E+02  0.38531728432E+02 -0.14702683065E+03  0.17460529377E+03  0.80419002446E+02 0. -1.
<mgrwt>
<rscale>  0 0.94181313E+02</rscale>
<asrwt>0</asrwt>
<pdfrwt beam="1">  1        1 0.27896721E-01 0.94181313E+02</pdfrwt>
<pdfrwt beam="2">  1       -1 0.18753054E-01 0.94181313E+02</pdfrwt>
<totfact> 0.35133178E+03</totfact>
</mgrwt>
</event>
<event>
 4    1  0.4999097E-001  0.9547640E+02  0.7546771E-02  0.1290107E+00
         -2   -1    0    0    0  501 -0.00000000000E+00  0.00000000000E+00  0.27233635165E+03  0.27233635165E+03  0.00000000000E+00 0.  1.
          2   -1    0    0  501    0  0.00000000000E+00 -0.00000000000E+00 -0.56758029611E+02  0.56758029611E+02  0.00000000000E+00 0. -1.
         24    1    1    2    0    0 -0.34549754545E+02  0.38142384044E+02  0.23938972777E+01  0.95506406582E+02  0.80419002446E+02 0. -1.
        -24    1    1    2    0    0  0.34549754545E+02 -0.38142384044E+02  0.21318442477E+03  0.23358797468E+03  0.80419002446E+02 0.  1.
<mgrwt>
<rscale>  0 0.95476400E+02</rscale>
<asrwt>0</asrwt>
<pdfrwt beam="1">  1        2 0.87320047E-02 0.95476400E+02</pdfrwt>
<pdfrwt beam="2">  1       -2 0.41897900E-01 0.95476400E+02</pdfrwt>
<totfact> 0.38552103E+03</totfact>
</mgrwt>
</event>
<event>
 4    1  0.4999097E-001  0.8615731E+02  0.7546771E-02  0.1312433E+00
          2   -1    0    0  501    0  0.00000000000E+00  0.00000000000E+00  0.17662372146E+04  0.17662372146E+04  0.00000000000E+00 0. -1.
         -2   -1    0    0    0  501 -0.00000000000E+00 -0.00000000000E+00 -0.73183556656E+01  0.73183556656E+01  0.00000000000E+00 0.  1.
         24    1    1    2    0    0  0.15108628829E+02 -0.26973979356E+02  0.14580590678E+04  0.14606023851E+04  0.80419002446E+02 0. -1.
        -24    1    1    2    0    0 -0.15108628829E+02  0.26973979356E+02  0.30085979119E+03  0.31295318522E+03  0.80419002446E+02 0.  1.
<mgrwt>
<rscale>  0 0.86157311E+02</rscale>
<asrwt>0</asrwt>
<pdfrwt beam="1">  1        2 0.27172846E+00 0.86157311E+02</pdfrwt>
<pdfrwt beam="2">  1       -2 0.11259023E-02 0.86157311E+02</pdfrwt>
<totfact> 0.16741503E+04</totfact>
</mgrwt>
</event>
<event>
 4    1  0.4999097E-001  0.8074166E+02  0.7546771E-02  0.1326960E+00
          1   -1    0    0  501    0  0.00000000000E+00  0.00000000000E+00  0.44430212095E+02  0.44430212095E+02  0.00000000000E+00 0. -1.
         -1   -1    0    0    0  501 -0.00000000000E+00 -0.00000000000E+00 -0.32663326697E+03  0.32663326697E+03  0.00000000000E+00 0.  1.
         24    1    1    2    0    0 -0.69371979881E+01  0.19686221252E+01 -0.27879340394E+03  0.29024985482E+03  0.80419002446E+02 0.  1.
        -24    1    1    2    0    0  0.69371979881E+01 -0.19686221252E+01 -0.34096509310E+01  0.80813624240E+02  0.80419002446E+02 0.  0.
<mgrwt>
<rscale>  0 0.80741663E+02</rscale>
<asrwt>0</asrwt>
<pdfrwt beam="1">  1        1 0.68354175E-02 0.80741663E+02</pdfrwt>
<pdfrwt beam="2">  1       -1 0.50251270E-01 0.80741663E+02</pdfrwt>
<totfact> 0.40554924E+03</totfact>
</mgrwt>
</event>
<event>
 4    1  0.4999097E-001  0.8418272E+02  0.7546771E-02  0.1317584E+00
          2   -1    0    0  501    0  0.00000000000E+00  0.00000000000E+00  0.16825794526E+04  0.16825794526E+04  0.00000000000E+00 0. -1.
         -2   -1    0    0    0  501 -0.00000000000E+00 -0.00000000000E+00 -0.21785185121E+02  0.21785185121E+02  0.00000000000E+00 0.  1.
         24    1    1    2    0    0 -0.11360163835E+02 -0.22146336872E+02  0.15957809964E+04  0.15979999117E+04  0.80419002446E+02 0. -1.
        -24    1    1    2    0    0  0.11360163835E+02  0.22146336872E+02  0.65013271094E+02  0.10636472598E+03  0.80419002446E+02 0.  1.
<mgrwt>
<rscale>  0 0.84182715E+02</rscale>
<asrwt>0</asrwt>
<pdfrwt beam="1">  1        2 0.25885828E+00 0.84182715E+02</pdfrwt>
<pdfrwt beam="2">  1       -2 0.33515683E-02 0.84182715E+02</pdfrwt>
<totfact> 0.38543224E+03</totfact>
</mgrwt>
</event>
<event>
 4    1  0.4999097E-001  0.9496124E+02  0.7546771E-02  0.1291263E+00
          2   -1    0    0  501    0  0.00000000000E+00  0.00000000000E+00  0.82343087457E+02  0.82343087457E+02  0.00000000000E+00 0. -1.
         -2   -1    0    0    0  501 -0.00000000000E+00 -0.00000000000E+00 -0.22165352158E+03  0.22165352158E+03  0.00000000000E+00 0.  1.
         24    1    1    2    0    0  0.11491154537E+02  0.49176980389E+02  0.38458979324E+02  0.10245355571E+03  0.80419002446E+02 0. -1.
        -24    1    1    2    0    0 -0.11491154537E+02 -0.49176980389E+02 -0.17776941345E+03  0.20154305333E+03  0.80419002446E+02 0.  1.
<mgrwt>
<rscale>  0 0.94961245E+02</rscale>
<asrwt>0</asrwt>
<pdfrwt beam="1">  1        2 0.12668167E-01 0.94961245E+02</pdfrwt>
<pdfrwt beam="2">  1       -2 0.34100541E-01 0.94961245E+02</pdfrwt>
<totfact> 0.36064945E+03</totfact>
</mgrwt>
</event>
<event>
 4    1  0.4999097E-001  0.9062498E+02  0.7546771E-02  0.1301345E+00
          1   -1    0    0  501    0  0.00000000000E+00  0.00000000000E+00  0.34865724776E+03  0.34865724776E+03  0.00000000000E+00 0. -1.
         -1   -1    0    0    0  501 -0.00000000000E+00 -0.00000000000E+00 -0.61664373655E+02  0.61664373655E+02  0.00000000000E+00 0.  1.
         24    1    1    2    0    0 -0.69510806571E+01 -0.41198940180E+02 -0.17786648760E+02  0.92353944273E+02  0.80419002446E+02 0.  1.
        -24    1    1    2    0    0  0.69510806571E+01  0.41198940180E+02  0.30477952287E+03  0.31796767714E+03  0.80419002446E+02 0. -1.
<mgrwt>
<rscale>  0 0.90624975E+02</rscale>
<asrwt>0</asrwt>
<pdfrwt beam="1">  1        1 0.53639576E-01 0.90624975E+02</pdfrwt>
<pdfrwt beam="2">  1       -1 0.94868269E-02 0.90624975E+02</pdfrwt>
<totfact> 0.44951396E+03</totfact>
</mgrwt>
</event>
<event>
 4    1  0.4999097E-001  0.1921879E+03  0.7546771E-02  0.1156503E+00
          3   -1    0    0  501    0  0.00000000000E+00  0.00000000000E+00  0.13393679819E+03  0.13393679819E+03  0.00000000000E+00 0. -1.
         -3   -1    0    0    0  501 -0.00000000000E+00 -0.00000000000E+00 -0.31870513729E+03  0.31870513729E+03  0.00000000000E+00 0.  1.
         24    1    1    2    0    0  0.13274307391E+03 -0.11335009309E+03 -0.17544960753E+03  0.26022826136E+03  0.80419002446E+02 0.  0.
        -24    1    1    2    0    0 -0.13274307391E+03  0.11335009309E+03 -0.93187315743E+01  0.19241367412E+03  0.80419002446E+02 0.  0.
<mgrwt>
<rscale>  0 0.19218789E+03</rscale>
<asrwt>0</asrwt>
<pdfrwt beam="1">  1        3 0.20605661E-01 0.19218789E+03</pdfrwt>
<pdfrwt beam="2">  1       -3 0.49031559E-01 0.19218789E+03</pdfrwt>
<totfact> 0.21506499E+02</totfact>
</mgrwt>
</event>
<event>
 4    1  0.4999097E-001  0.8964259E+02  0.7546771E-02  0.1303720E+00
          2   -1    0    0  501    0  0.00000000000E+00  0.00000000000E+00  0.25396055370E+04  0.25396055370E+04  0.00000000000E+00 0. -1.
         -2   -1    0    0    0  501 -0.00000000000E+00 -0.00000000000E+00 -0.50294507769E+01  0.50294507769E+01  0.00000000000E+00 0.  1.
         24    1    1    2    0    0 -0.90792159821E+00  0.39594876198E+02  0.20421154858E+04  0.20440820561E+04  0.80419002446E+02 0.  0.
        -24    1    1    2    0    0  0.90792159821E+00 -0.39594876198E+02  0.49246060041E+03  0.50055293172E+03  0.80419002446E+02 0. -1.
<mgrwt>
<rscale>  0 0.89642593E+02</rscale>
<asrwt>0</asrwt>
<pdfrwt beam="1">  1        2 0.39070752E+00 0.89642593E+02</pdfrwt>
<pdfrwt beam="2">  1       -2 0.77376369E-03 0.89642593E+02</pdfrwt>
<totfact> 0.11516057E+04</totfact>
</mgrwt>
</event>
<event>
 4    1  0.4999097E-001  0.1237656E+03  0.7546771E-02  0.1237011E+00
          2   -1    0    0  501    0  0.00000000000E+00  0.00000000000E+00  0.47617817598E+02  0.47617817598E+02  0.00000000000E+00 0. -1.
         -2   -1    0    0    0  501 -0.00000000000E+00 -0.00000000000E+00 -0.51651905811E+03  0.51651905811E+03  0.00000000000E+00 0.  1.
         24    1    1    2    0    0  0.22291906766E+02 -0.91399015278E+02 -0.61212265260E+02  0.13807558247E+03  0.80419002446E+02 0. -1.
        -24    1    1    2    0    0 -0.22291906766E+02  0.91399015278E+02 -0.40768897526E+03  0.42606129324E+03  0.80419002446E+02 0.  1.
<mgrwt>
<rscale>  0 0.12376561E+03</rscale>
<asrwt>0</asrwt>
<pdfrwt beam="1">  1        2 0.73258180E-02 0.12376561E+03</pdfrwt>
<pdfrwt beam="2">  1       -2 0.79464471E-01 0.12376561E+03</pdfrwt>
<totfact> 0.13288295E+03</totfact>
</mgrwt>
</event>
<event>
 4    1  0.4999097E-001  0.9678159E+02  0.7546771E-02  0.1287213E+00
         -1   -1    0    0    0  501 -0.00000000000E+00  0.00000000000E+00  0.85322721816E+01  0.85322721816E+01  0.00000000000E+00 0.  1.
          1   -1    0    0  501    0  0.00000000000E+00 -0.00000000000E+00 -0.11695606950E+04  0.11695606950E+04  0.00000000000E+00 0. -1.
         24    1    1    2    0    0  0.52001827752E+02  0.13973917093E+02 -0.43459920991E+03  0.44524504450E+03  0.80419002446E+02 0.  1.
        -24    1    1    2    0    0 -0.52001827752E+02 -0.13973917093E+02 -0.72642921289E+03  0.73284792266E+03  0.80419002446E+02 0. -1.
<mgrwt>
<rscale>  0 0.96781591E+02</rscale>
<asrwt>0</asrwt>
<pdfrwt beam="1">  1        1 0.17993227E+00 0.96781591E+02</pdfrwt>
<pdfrwt beam="2">  1       -1 0.13126583E-02 0.96781591E+02</pdfrwt>
<totfact> 0.14334887E+04</totfact>
</mgrwt>
</event>
<event>
 4    1  0.4999097E-001  0.9013704E+02  0.7546771E-02  0.1302520E+00
          1   -1    0    0  501    0  0.00000000000E+00  0.00000000000E+00  0.14839034704E+03  0.14839034704E+03  0.00000000000E+00 0. -1.
         -1   -1    0    0    0  501 -0.00000000000E+00 -0.00000000000E+00 -0.56908131713E+02  0.56908131713E+02  0.00000000000E+00 0.  1.
         24    1    1    2    0    0 -0.39425272359E+02  0.10154704928E+02  0.25761169941E+02  0.93746061058E+02  0.80419002446E+02 0.  1.
        -24    1    1    2    0    0  0.39425272359E+02 -0.10154704928E+02  0.65721045389E+02  0.11155241770E+03  0.80419002446E+02 0. -1.
<mgrwt>
<rscale>  0 0.90137041E+02</rscale>
<asrwt>0</asrwt>
<pdfrwt beam="1">  1        1 0.22829284E-01 0.90137041E+02</pdfrwt>
<pdfrwt beam="2">  1       -1 0.87550972E-02 0.90137041E+02</pdfrwt>
<totfact> 0.14456817E+04</totfact>
</mgrwt>
</event>
<event>
 4    1  0.4999097E-001  0.8727665E+02  0.7546771E-02  0.1309584E+00
          2   -1    0    0  501    0  0.00000000000E+00  0.00000000000E+00  0.48062624489E+03  0.48062624489E+03  0.00000000000E+00 0. -1.
         -2   -1    0    0    0  501 -0.00000000000E+00 -0.00000000000E+00 -0.20753690854E+02  0.20753690854E+02  0.00000000000E+00 0.  1.
         24    1    1    2    0    0  0.32291288622E+02 -0.10357160379E+02  0.35181177651E+03  0.36247584766E+03  0.80419002446E+02 0.  1.
        -24    1    1    2    0    0 -0.32291288622E+02  0.10357160379E+02  0.10806077752E+03  0.13890408807E+03  0.80419002446E+02 0.  1.
<mgrwt>
<rscale>  0 0.87276652E+02</rscale>
<asrwt>0</asrwt>
<pdfrwt beam="1">  1        2 0.73942491E-01 0.87276652E+02</pdfrwt>
<pdfrwt beam="2">  1       -2 0.31928759E-02 0.87276652E+02</pdfrwt>
<totfact> 0.22551720E+04</totfact>
</mgrwt>
</event>
<event>
 4    1  0.4999097E-001  0.8485533E+02  0.7546771E-02  0.1315811E+00
          2   -1    0    0  501    0  0.00000000000E+00  0.00000000000E+00  0.19075218772E+03  0.19075218772E+03  0.00000000000E+00 0. -1.
         -2   -1    0    0    0  501 -0.00000000000E+00 -0.00000000000E+00 -0.49935747285E+02  0.49935747285E+02  0.00000000000E+00 0.  1.
         24    1    1    2    0    0 -0.16097504191E+02 -0.21773412952E+02  0.12986321504E+03  0.15512859739E+03  0.80419002446E+02 0.  0.
        -24    1    1    2    0    0  0.16097504191E+02  0.21773412952E+02  0.10953225398E+02  0.85559337619E+02  0.80419002446E+02 0.  1.
<mgrwt>
<rscale>  0 0.84855330E+02</rscale>
<asrwt>0</asrwt>
<pdfrwt beam="1">  1        2 0.29346490E-01 0.84855330E+02</pdfrwt>
<pdfrwt beam="2">  1       -2 0.76824227E-02 0.84855330E+02</pdfrwt>
<totfact> 0.16143158E+04</totfact>
</mgrwt>
</event>
<event>
 4    1  0.4999097E-001  0.8456046E+02  0.7546771E-02  0.1316586E+00
         -2   -1    0    0    0  501 -0.00000000000E+00  0.00000000000E+00  0.46317585626E+01  0.46317585626E+01  0.00000000000E+00 0.  1.
          2   -1    0    0  501    0  0.00000000000E+00 -0.00000000000E+00 -0.21351073616E+04  0.21351073616E+04  0.00000000000E+00 0. -1.
         24    1    1    2    0    0  0.82956692434E-01  0.26139037475E+02 -0.16282664961E+04  0.16304607491E+04  0.80419002446E+02 0. -1.
        -24    1    1    2    0    0 -0.82956692434E-01 -0.26139037475E+02 -0.50220910699E+03  0.50927837109E+03  0.80419002446E+02 0.  1.
<mgrwt>
<rscale>  0 0.84560464E+02</rscale>
<asrwt>0</asrwt>
<pdfrwt beam="1">  1        2 0.32847840E+00 0.84560464E+02</pdfrwt>
<pdfrwt beam="2">  1       -2 0.71257750E-03 0.84560464E+02</pdfrwt>
<totfact> 0.20830690E+04</totfact>
</mgrwt>
</event>
<event>
 4    1  0.4999097E-001  0.9833144E+02  0.7546771E-02  0.1283844E+00
          2   -1    0    0  501    0  0.00000000000E+00  0.00000000000E+00  0.16832179068E+04  0.16832179068E+04  0.00000000000E+00 0. -1.
         -2   -1    0    0    0  501 -0.00000000000E+00 -0.00000000000E+00 -0.11881918524E+02  0.11881918524E+02  0.00000000000E+00 0.  1.
         24    1    1    2    0    0  0.30934932394E+02  0.47380224894E+02  0.14448099542E+04  0.14481522280E+04  0.80419002446E+02 0. -1.
        -24    1    1    2    0    0 -0.30934932394E+02 -0.47380224894E+02  0.22652603403E+03  0.24694759727E+03  0.80419002446E+02 0.  1.
<mgrwt>
<rscale>  0 0.98331438E+02</rscale>
<asrwt>0</asrwt>
<pdfrwt beam="1">  1        2 0.25895641E+00 0.98331438E+02</pdfrwt>
<pdfrwt beam="2">  1       -2 0.18279888E-02 0.98331438E+02</pdfrwt>
<totfact> 0.92990412E+03</totfact>
</mgrwt>
</event>
<event>
 4    1  0.4999097E-001  0.8064652E+02  0.7546771E-02  0.1327227E+00
         -4   -1    0    0    0  501 -0.00000000000E+00  0.00000000000E+00  0.17481989198E+03  0.17481989198E+03  0.00000000000E+00 0.  1.
          4   -1    0    0  501    0  0.00000000000E+00 -0.00000000000E+00 -0.41024583305E+02  0.41024583305E+02  0.00000000000E+00 0. -1.
         24    1    1    2    0    0 -0.45801724457E+01 -0.39581179260E+01  0.33959538352E+02  0.87504919156E+02  0.80419002446E+02 0.  0.
        -24    1    1    2    0    0  0.45801724457E+01  0.39581179260E+01  0.99835770327E+02  0.12833955613E+03  0.80419002446E+02 0.  1.
<mgrwt>
<rscale>  0 0.80646517E+02</rscale>
<asrwt>0</asrwt>
<pdfrwt beam="1">  1        4 0.63114744E-02 0.80646517E+02</pdfrwt>
<pdfrwt beam="2">  1       -4 0.26895368E-01 0.80646517E+02</pdfrwt>
<totfact> 0.30550640E+03</totfact>
</mgrwt>
</event>
<event>
 4    1  0.4999097E-001  0.8180550E+02  0.7546771E-02  0.1324004E+00
         -4   -1    0    0    0  501 -0.00000000000E+00  0.00000000000E+00  0.12357641698E+02  0.12357641698E+02  0.00000000000E+00 0.  1.
          4   -1    0    0  501    0  0.00000000000E+00 -0.00000000000E+00 -0.54241074853E+03  0.54241074853E+03  0.00000000000E+00 0. -1.
         24    1    1    2    0    0 -0.14522240570E+02 -0.37454991306E+01 -0.27614921353E+03  0.28801133367E+03  0.80419002446E+02 0.  0.
        -24    1    1    2    0    0  0.14522240570E+02  0.37454991306E+01 -0.25390389330E+03  0.26675705656E+03  0.80419002446E+02 0.  1.
<mgrwt>
<rscale>  0 0.81805502E+02</rscale>
<asrwt>0</asrwt>
<pdfrwt beam="1">  1        4 0.83447805E-01 0.81805502E+02</pdfrwt>
<pdfrwt beam="2">  1       -4 0.19011757E-02 0.81805502E+02</pdfrwt>
<totfact> 0.20631864E+03</totfact>
</mgrwt>
</event>
<event>
 4    1  0.4999097E-001  0.8111367E+02  0.7546771E-02  0.1325920E+00
          4   -1    0    0  501    0  0.00000000000E+00  0.00000000000E+00  0.16666538747E+03  0.16666538747E+03  0.00000000000E+00 0. -1.
         -4   -1    0    0    0  501 -0.00000000000E+00 -0.00000000000E+00 -0.42840902344E+02  0.42840902344E+02  0.00000000000E+00 0.  1.
         24    1    1    2    0    0  0.10361462649E+02 -0.22027547898E+01  0.91266276097E+02  0.12210225692E+03  0.80419002446E+02 0. -1.
        -24    1    1    2    0    0 -0.10361462649E+02  0.22027547898E+01  0.32558209026E+02  0.87404032894E+02  0.80419002446E+02 0. -1.
<mgrwt>
<rscale>  0 0.81113673E+02</rscale>
<asrwt>0</asrwt>
<pdfrwt beam="1">  1        4 0.25640829E-01 0.81113673E+02</pdfrwt>
<pdfrwt beam="2">  1       -4 0.65909081E-02 0.81113673E+02</pdfrwt>
<totfact> 0.31149871E+03</totfact>
</mgrwt>
</event>
<event>
 4    1  0.4999097E-001  0.8430922E+02  0.7546771E-02  0.1317249E+00
         -3   -1    0    0    0  501 -0.00000000000E+00  0.00000000000E+00  0.24363339697E+02  0.24363339697E+02  0.00000000000E+00 0.  1.
          3   -1    0    0  501    0  0.00000000000E+00 -0.00000000000E+00 -0.24219236532E+04  0.24219236532E+04  0.00000000000E+00 0. -1.
         24    1    1    2    0    0 -0.22414779965E+02  0.11764651614E+02 -0.51671600714E+02  0.98883768452E+02  0.80419002446E+02 0.  1.
        -24    1    1    2    0    0  0.22414779965E+02 -0.11764651614E+02 -0.23458887128E+04  0.23474032244E+04  0.80419002446E+02 0. -1.
<mgrwt>
<rscale>  0 0.84309225E+02</rscale>
<asrwt>0</asrwt>
<pdfrwt beam="1">  1        3 0.37260358E+00 0.84309225E+02</pdfrwt>
<pdfrwt beam="2">  1       -3 0.37482067E-02 0.84309225E+02</pdfrwt>
<totfact> 0.16293705E+01</totfact>
</mgrwt>
</event>
<event>
 4    1  0.4999097E-001  0.8534108E+02  0.7546771E-02  0.1314543E+00
          1   -1    0    0  501    0  0.00000000000E+00  0.00000000000E+00  0.21857259685E+03  0.21857259685E+03  0.00000000000E+00 0. -1.
         -1   -1    0    0    0  501 -0.00000000000E+00 -0.00000000000E+00 -0.11063663400E+03  0.11063663400E+03  0.00000000000E+00 0.  1.
         24    1    1    2    0    0 -0.27055914310E+02  0.91575499873E+01 -0.83634306965E+02  0.11948973377E+03  0.80419002446E+02 0.  1.
        -24    1    1    2    0    0  0.27055914310E+02 -0.91575499873E+01  0.19157026982E+03  0.20971949708E+03  0.80419002446E+02 0. -1.
<mgrwt>
<rscale>  0 0.85341076E+02</rscale>
<asrwt>0</asrwt>
<pdfrwt beam="1">  1        1 0.33626553E-01 0.85341076E+02</pdfrwt>
<pdfrwt beam="2">  1       -1 0.17021021E-01 0.85341076E+02</pdfrwt>
<totfact> 0.32341280E+03</totfact>
</mgrwt>
</event>
<event>
 4    1  0.4999097E-001  0.1014792E+03  0.7546771E-02  0.1277216E+00
          2   -1    0    0  501    0  0.00000000000E+00  0.00000000000E+00  0.60495299838E+03  0.60495299838E+03  0.00000000000E+00 0. -1.
         -2   -1    0    0    0  501 -0.00000000000E+00 -0.00000000000E+00 -0.33171672564E+02  0.33171672564E+02  0.00000000000E+00 0.  1.
         24    1    1    2    0    0 -0.51174334004E+02 -0.34813890026E+02  0.50850956531E+03  0.51853641470E+03  0.80419002446E+02 0. -1.
        -24    1    1    2    0    0  0.51174334004E+02  0.34813890026E+02  0.63271760497E+02  0.11958825624E+03  0.80419002446E+02 0.  1.
<mgrwt>
<rscale>  0 0.10147924E+03</rscale>
<asrwt>0</asrwt>
<pdfrwt beam="1">  1        2 0.93069684E-01 0.10147924E+03</pdfrwt>
<pdfrwt beam="2">  1       -2 0.51033347E-02 0.10147924E+03</pdfrwt>
<totfact> 0.88986624E+03</totfact>
</mgrwt>
</event>
<event>
 4    1  0.4999097E-001  0.9635670E+02  0.7546771E-02  0.1288149E+00
          2   -1    0    0  501    0  0.00000000000E+00  0.00000000000E+00  0.83011851733E+03  0.83011851733E+03  0.00000000000E+00 0. -1.
         -2   -1    0    0    0  501 -0.00000000000E+00 -0.00000000000E+00 -0.12888661331E+02  0.12888661331E+02  0.00000000000E+00 0.  1.
         24    1    1    2    0    0 -0.32754665778E+02  0.41767557955E+02  0.56187510620E+03  0.57007740522E+03  0.80419002446E+02 0.  1.
        -24    1    1    2    0    0  0.32754665778E+02 -0.41767557955E+02  0.25535474981E+03  0.27292977344E+03  0.80419002446E+02 0.  0.
<mgrwt>
<rscale>  0 0.96356697E+02</rscale>
<asrwt>0</asrwt>
<pdfrwt beam="1">  1        2 0.12771050E+00 0.96356697E+02</pdfrwt>
<pdfrwt beam="2">  1       -2 0.19828716E-02 0.96356697E+02</pdfrwt>
<totfact> 0.24307937E+04</totfact>
</mgrwt>
</event>
<event>
 4    1  0.4999097E-001  0.9144335E+02  0.7546771E-02  0.1299394E+00
          4   -1    0    0  501    0  0.00000000000E+00  0.00000000000E+00  0.11002660081E+03  0.11002660081E+03  0.00000000000E+00 0. -1.
         -4   -1    0    0    0  501 -0.00000000000E+00 -0.00000000000E+00 -0.79234875616E+02  0.79234875616E+02  0.00000000000E+00 0.  1.
         24    1    1    2    0    0 -0.40399237380E+02  0.16204089632E+02  0.34520141112E+02  0.97742145457E+02  0.80419002446E+02 0. -1.
        -24    1    1    2    0    0  0.40399237380E+02 -0.16204089632E+02 -0.37284159163E+01  0.91519330971E+02  0.80419002446E+02 0.  1.
<mgrwt>
<rscale>  0 0.91443353E+02</rscale>
<asrwt>0</asrwt>
<pdfrwt beam="1">  1        4 0.16927169E-01 0.91443353E+02</pdfrwt>
<pdfrwt beam="2">  1       -4 0.12189981E-01 0.91443353E+02</pdfrwt>
<totfact> 0.24477634E+03</totfact>
</mgrwt>
</event>
<event>
 4    1  0.4999097E-001  0.8143740E+02  0.7546771E-02  0.1325021E+00
          2   -1    0    0  501    0  0.00000000000E+00  0.00000000000E+00  0.63404636783E+03  0.63404636783E+03  0.00000000000E+00 0. -1.
         -2   -1    0    0    0  501 -0.00000000000E+00 -0.00000000000E+00 -0.14230733521E+02  0.14230733521E+02  0.00000000000E+00 0.  1.
         24    1    1    2    0    0  0.12790682366E+02  0.11104897132E+01  0.47676185186E+03  0.48366715217E+03  0.80419002446E+02 0. -1.
        -24    1    1    2    0    0 -0.12790682366E+02 -0.11104897132E+01  0.14305378245E+03  0.16460994918E+03  0.80419002446E+02 0.  0.
<mgrwt>
<rscale>  0 0.81437404E+02</rscale>
<asrwt>0</asrwt>
<pdfrwt beam="1">  1        2 0.97545573E-01 0.81437404E+02</pdfrwt>
<pdfrwt beam="2">  1       -2 0.21893441E-02 0.81437404E+02</pdfrwt>
<totfact> 0.28492153E+04</totfact>
</mgrwt>
</event>
<event>
 4    1  0.4999097E-001  0.1985670E+03  0.7546771E-02  0.1150954E+00
          2   -1    0    0  501    0  0.00000000000E+00  0.00000000000E+00  0.17807886911E+04  0.17807886911E+04  0.00000000000E+00 0. -1.
         -2   -1    0    0    0  501 -0.00000000000E+00 -0.00000000000E+00 -0.40936469664E+02  0.40936469664E+02  0.00000000000E+00 0.  1.
         24    1    1    2    0    0 -0.18071042004E+03  0.17474891453E+02  0.14871200538E+04  0.15003182656E+04  0.80419002446E+02 0. -1.
        -24    1    1    2    0    0  0.18071042004E+03 -0.17474891453E+02  0.25273216765E+03  0.32140689517E+03  0.80419002446E+02 0.  1.
<mgrwt>
<rscale>  0 0.19856698E+03</rscale>
<asrwt>0</asrwt>
<pdfrwt beam="1">  1        2 0.27396743E+00 0.19856698E+03</pdfrwt>
<pdfrwt beam="2">  1       -2 0.62979198E-02 0.19856698E+03</pdfrwt>
<totfact> 0.13390379E+03</totfact>
</mgrwt>
</event>
<event>
 4    1  0.4999097E-001  0.8153541E+02  0.7546771E-02  0.1324750E+00
         -2   -1    0    0    0  501 -0.00000000000E+00  0.00000000000E+00  0.62811935364E+02  0.62811935364E+02  0.00000000000E+00 0.  1.
          2   -1    0    0  501    0  0.00000000000E+00 -0.00000000000E+00 -0.10714999840E+03  0.10714999840E+03  0.00000000000E+00 0. -1.
         24    1    1    2    0    0 -0.81049950326E+01 -0.10729238703E+02 -0.31564950538E+02  0.87432085440E+02  0.80419002446E+02 0.  1.
        -24    1    1    2    0    0  0.81049950326E+01  0.10729238703E+02 -0.12773112501E+02  0.82529848328E+02  0.80419002446E+02 0.  0.
<mgrwt>
<rscale>  0 0.81535412E+02</rscale>
<asrwt>0</asrwt>
<pdfrwt beam="1">  1        2 0.16484615E-01 0.81535412E+02</pdfrwt>
<pdfrwt beam="2">  1       -2 0.96633747E-02 0.81535412E+02</pdfrwt>
<totfact> 0.21350458E+04</totfact>
</mgrwt>
</event>
<event>
 4    1  0.4999097E-001  0.8357937E+02  0.7546771E-02  0.1319190E+00
          1   -1    0    0  501    0  0.00000000000E+00  0.00000000000E+00  0.42346211387E+02  0.42346211387E+02  0.00000000000E+00 0. -1.
         -1   -1    0    0    0  501 -0.00000000000E+00 -0.00000000000E+00 -0.28006874558E+03  0.28006874558E+03  0.00000000000E+00 0.  1.
         24    1    1    2    0    0  0.16829197325E+02  0.15332084209E+02 -0.22220960010E+03  0.23740812332E+03  0.80419002446E+02 0.  1.
        -24    1    1    2    0    0 -0.16829197325E+02 -0.15332084209E+02 -0.15512934100E+02  0.85006833652E+02  0.80419002446E+02 0. -1.
<mgrwt>
<rscale>  0 0.83579367E+02</rscale>
<asrwt>0</asrwt>
<pdfrwt beam="1">  1        1 0.65148019E-02 0.83579367E+02</pdfrwt>
<pdfrwt beam="2">  1       -1 0.43087498E-01 0.83579367E+02</pdfrwt>
<totfact> 0.56980228E+03</totfact>
</mgrwt>
</event>
<event>
 4    1  0.4999097E-001  0.8180520E+02  0.7546771E-02  0.1324005E+00
         -3   -1    0    0    0  501 -0.00000000000E+00  0.00000000000E+00  0.64091866793E+01  0.64091866793E+01  0.00000000000E+00 0.  1.
          3   -1    0    0  501    0  0.00000000000E+00 -0.00000000000E+00 -0.10659566968E+04  0.10659566968E+04  0.00000000000E+00 0. -1.
         24    1    1    2    0    0  0.14780831407E+02  0.25296313569E+01 -0.60648129257E+03  0.61197356659E+03  0.80419002446E+02 0. -1.
        -24    1    1    2    0    0 -0.14780831407E+02 -0.25296313569E+01 -0.45306621757E+03  0.46039231691E+03  0.80419002446E+02 0.  1.
<mgrwt>
<rscale>  0 0.81805193E+02</rscale>
<asrwt>0</asrwt>
<pdfrwt beam="1">  1        3 0.16399316E+00 0.81805203E+02</pdfrwt>
<pdfrwt beam="2">  1       -3 0.98602981E-03 0.81805203E+02</pdfrwt>
<totfact> 0.16080335E+03</totfact>
</mgrwt>
</event>
<event>
 4    1  0.4999097E-001  0.8602794E+02  0.7546771E-02  0.1312766E+00
         -2   -1    0    0    0  501 -0.00000000000E+00  0.00000000000E+00  0.31376637330E+02  0.31376637330E+02  0.00000000000E+00 0.  1.
          2   -1    0    0  501    0  0.00000000000E+00 -0.00000000000E+00 -0.33171608904E+03  0.33171608904E+03  0.00000000000E+00 0. -1.
         24    1    1    2    0    0  0.22566665950E+02  0.20599403023E+02 -0.24775664433E+03  0.26226734562E+03  0.80419002446E+02 0.  0.
        -24    1    1    2    0    0 -0.22566665950E+02 -0.20599403023E+02 -0.52582807388E+02  0.10082538075E+03  0.80419002446E+02 0.  0.
<mgrwt>
<rscale>  0 0.86027936E+02</rscale>
<asrwt>0</asrwt>
<pdfrwt beam="1">  1        2 0.51033246E-01 0.86027936E+02</pdfrwt>
<pdfrwt beam="2">  1       -2 0.48271748E-02 0.86027936E+02</pdfrwt>
<totfact> 0.18144711E+04</totfact>
</mgrwt>
</event>
<event>
 4    1  0.4999097E-001  0.8351566E+02  0.7546771E-02  0.1319361E+00
         -3   -1    0    0    0  501 -0.00000000000E+00  0.00000000000E+00  0.59516402883E+03  0.59516402883E+03  0.00000000000E+00 0.  1.
          3   -1    0    0  501    0  0.00000000000E+00 -0.00000000000E+00 -0.21620670095E+02  0.21620670095E+02  0.00000000000E+00 0. -1.
         24    1    1    2    0    0 -0.13736178226E+02 -0.17859648712E+02  0.49546961301E+03  0.50245895654E+03  0.80419002446E+02 0.  0.
        -24    1    1    2    0    0  0.13736178226E+02  0.17859648712E+02  0.78073745726E+02  0.11432574238E+03  0.80419002446E+02 0. -1.
<mgrwt>
<rscale>  0 0.83515661E+02</rscale>
<asrwt>0</asrwt>
<pdfrwt beam="1">  1        3 0.33262574E-02 0.83515661E+02</pdfrwt>
<pdfrwt beam="2">  1       -3 0.91563684E-01 0.83515661E+02</pdfrwt>
<totfact> 0.10146948E+03</totfact>
</mgrwt>
</event>
<event>
 4    1  0.4999097E-001  0.8240582E+02  0.7546771E-02  0.1322359E+00
         -2   -1    0    0    0  501 -0.00000000000E+00  0.00000000000E+00  0.37605448798E+01  0.37605448798E+01  0.00000000000E+00 0.  1.
          2   -1    0    0  501    0  0.00000000000E+00 -0.00000000000E+00 -0.20297074901E+04  0.20297074901E+04  0.00000000000E+00 0. -1.
         24    1    1    2    0    0  0.76225827250E+01 -0.16291082901E+02 -0.13506833179E+04  0.13531947918E+04  0.80419002446E+02 0. -1.
        -24    1    1    2    0    0 -0.76225827250E+01  0.16291082901E+02 -0.67526362728E+03  0.68027324322E+03  0.80419002446E+02 0.  1.
<mgrwt>
<rscale>  0 0.82405820E+02</rscale>
<asrwt>0</asrwt>
<pdfrwt beam="1">  1        2 0.31226219E+00 0.82405820E+02</pdfrwt>
<pdfrwt beam="2">  1       -2 0.57854630E-03 0.82405820E+02</pdfrwt>
<totfact> 0.31467534E+04</totfact>
</mgrwt>
</event>
<event>
 4    1  0.4999097E-001  0.1045427E+03  0.7546771E-02  0.1271023E+00
          1   -1    0    0  501    0  0.00000000000E+00  0.00000000000E+00  0.16563584971E+04  0.16563584971E+04  0.00000000000E+00 0. -1.
         -1   -1    0    0    0  501 -0.00000000000E+00 -0.00000000000E+00 -0.11218221427E+02  0.11218221427E+02  0.00000000000E+00 0.  1.
         24    1    1    2    0    0  0.45918850164E+02  0.48511957944E+02  0.28750008016E+03  0.30591741191E+03  0.80419002446E+02 0. -1.
        -24    1    1    2    0    0 -0.45918850164E+02 -0.48511957944E+02  0.13576401955E+04  0.13616593066E+04  0.80419002446E+02 0.  1.
<mgrwt>
<rscale>  0 0.10454266E+03</rscale>
<asrwt>0</asrwt>
<pdfrwt beam="1">  1        1 0.25482419E+00 0.10454266E+03</pdfrwt>
<pdfrwt beam="2">  1       -1 0.17258815E-02 0.10454266E+03</pdfrwt>
<totfact> 0.47000691E+03</totfact>
</mgrwt>
</event>
<event>
 4    1  0.4999097E-001  0.1002092E+03  0.7546771E-02  0.1279857E+00
         -2   -1    0    0    0  501 -0.00000000000E+00  0.00000000000E+00  0.12319708829E+02  0.12319708829E+02  0.00000000000E+00 0.  1.
          2   -1    0    0  501    0  0.00000000000E+00 -0.00000000000E+00 -0.86842303845E+03  0.86842303845E+03  0.00000000000E+00 0. -1.
         24    1    1    2    0    0 -0.17647606626E+02 -0.57124728939E+02 -0.53716549322E+03  0.54643266350E+03  0.80419002446E+02 0. -1.
        -24    1    1    2    0    0  0.17647606626E+02  0.57124728939E+02 -0.31893783640E+03  0.33431008378E+03  0.80419002446E+02 0.  1.
<mgrwt>
<rscale>  0 0.10020922E+03</rscale>
<asrwt>0</asrwt>
<pdfrwt beam="1">  1        2 0.13360354E+00 0.10020922E+03</pdfrwt>
<pdfrwt beam="2">  1       -2 0.18953398E-02 0.10020922E+03</pdfrwt>
<totfact> 0.24598897E+04</totfact>
</mgrwt>
</event>
<event>
 4    1  0.4999097E-001  0.8784971E+02  0.7546771E-02  0.1308144E+00
          2   -1    0    0  501    0  0.00000000000E+00  0.00000000000E+00  0.76349789963E+03  0.76349789963E+03  0.00000000000E+00 0. -1.
         -2   -1    0    0    0  501 -0.00000000000E+00 -0.00000000000E+00 -0.15186550031E+03  0.15186550031E+03  0.00000000000E+00 0.  1.
         24    1    1    2    0    0  0.25188817308E+02  0.24816918345E+02  0.74800398047E+03  0.75314509007E+03  0.80419002446E+02 0. -1.
        -24    1    1    2    0    0 -0.25188817308E+02 -0.24816918345E+02 -0.13637158115E+03  0.16221830986E+03  0.80419002446E+02 0.  1.
<mgrwt>
<rscale>  0 0.87849712E+02</rscale>
<asrwt>0</asrwt>
<pdfrwt beam="1">  1        2 0.11746121E+00 0.87849712E+02</pdfrwt>
<pdfrwt beam="2">  1       -2 0.23363924E-01 0.87849712E+02</pdfrwt>
<totfact> 0.61140700E+02</totfact>
</mgrwt>
</event>
<event>
 4    1  0.4999097E-001  0.8396826E+02  0.7546771E-02  0.1318153E+00
          1   -1    0    0  501    0  0.00000000000E+00  0.00000000000E+00  0.30388930449E+03  0.30388930449E+03  0.00000000000E+00 0. -1.
         -1   -1    0    0    0  501 -0.00000000000E+00 -0.00000000000E+00 -0.49989093636E+03  0.49989093636E+03  0.00000000000E+00 0.  1.
         24    1    1    2    0    0 -0.24147904969E+02 -0.57590047573E+00 -0.49045366926E+03  0.49758966089E+03  0.80419002446E+02 0.  1.
        -24    1    1    2    0    0  0.24147904969E+02  0.57590047573E+00  0.29445203740E+03  0.30619057996E+03  0.80419002446E+02 0. -1.
<mgrwt>
<rscale>  0 0.83968261E+02</rscale>
<asrwt>0</asrwt>
<pdfrwt beam="1">  1        1 0.46752201E-01 0.83968261E+02</pdfrwt>
<pdfrwt beam="2">  1       -1 0.76906297E-01 0.83968261E+02</pdfrwt>
<totfact> 0.15964801E+02</totfact>
</mgrwt>
</event>
<event>
 4    1  0.4999097E-001  0.9743206E+02  0.7546771E-02  0.1285791E+00
          2   -1    0    0  501    0  0.00000000000E+00  0.00000000000E+00  0.33994029346E+03  0.33994029346E+03  0.00000000000E+00 0. -1.
         -2   -1    0    0    0  501 -0.00000000000E+00 -0.00000000000E+00 -0.31808383466E+02  0.31808383466E+02  0.00000000000E+00 0.  1.
         24    1    1    2    0    0 -0.19157019583E+01 -0.54973823849E+02  0.21900786728E+03  0.23970284334E+03  0.80419002446E+02 0. -1.
        -24    1    1    2    0    0  0.19157019583E+01  0.54973823849E+02  0.89124042719E+02  0.13204583359E+03  0.80419002446E+02 0.  1.
<mgrwt>
<rscale>  0 0.97432064E+02</rscale>
<asrwt>0</asrwt>
<pdfrwt beam="1">  1        2 0.52298504E-01 0.97432064E+02</pdfrwt>
<pdfrwt beam="2">  1       -2 0.48935977E-02 0.97432064E+02</pdfrwt>
<totfact> 0.17549009E+04</totfact>
</mgrwt>
</event>
<event>
 4    1  0.4999097E-001  0.1034506E+03  0.7546771E-02  0.1273203E+00
         -2   -1    0    0    0  501 -0.00000000000E+00  0.00000000000E+00  0.25052085445E+02  0.25052085445E+02  0.00000000000E+00 0.  1.
          2   -1    0    0  501    0  0.00000000000E+00 -0.00000000000E+00 -0.84609075928E+03  0.84609075928E+03  0.00000000000E+00 0. -1.
         24    1    1    2    0    0  0.14324214568E+02  0.63479401070E+02 -0.71700191486E+03  0.72442651756E+03  0.80419002446E+02 0. -1.
        -24    1    1    2    0    0 -0.14324214568E+02 -0.63479401070E+02 -0.10403675898E+03  0.14671632716E+03  0.80419002446E+02 0.  1.
<mgrwt>
<rscale>  0 0.10345063E+03</rscale>
<asrwt>0</asrwt>
<pdfrwt beam="1">  1        2 0.13016780E+00 0.10345063E+03</pdfrwt>
<pdfrwt beam="2">  1       -2 0.38541672E-02 0.10345063E+03</pdfrwt>
<totfact> 0.90784427E+03</totfact>
</mgrwt>
</event>
<event>
 4    1  0.4999097E-001  0.8271706E+02  0.7546771E-02  0.1321513E+00
         -1   -1    0    0    0  501 -0.00000000000E+00  0.00000000000E+00  0.18267121327E+02  0.18267121327E+02  0.00000000000E+00 0.  1.
          1   -1    0    0  501    0  0.00000000000E+00 -0.00000000000E+00 -0.41007756270E+03  0.41007756270E+03  0.00000000000E+00 0. -1.
         24    1    1    2    0    0 -0.18077732378E+02  0.69348499006E+01 -0.13287355165E+03  0.15651675065E+03  0.80419002446E+02 0.  1.
        -24    1    1    2    0    0  0.18077732378E+02 -0.69348499006E+01 -0.25893688972E+03  0.27182793338E+03  0.80419002446E+02 0.  1.
<mgrwt>
<rscale>  0 0.82717063E+02</rscale>
<asrwt>0</asrwt>
<pdfrwt beam="1">  1        1 0.63088854E-01 0.82717063E+02</pdfrwt>
<pdfrwt beam="2">  1       -1 0.28103265E-02 0.82717063E+02</pdfrwt>
<totfact> 0.21698212E+04</totfact>
</mgrwt>
</event>
<event>
 4    1  0.4999097E-001  0.1089322E+03  0.7546771E-02  0.1262560E+00
          2   -1    0    0  501    0  0.00000000000E+00  0.00000000000E+00  0.38149866399E+03  0.38149866399E+03  0.00000000000E+00 0. -1.
         -2   -1    0    0    0  501 -0.00000000000E+00 -0.00000000000E+00 -0.31463929919E+02  0.31463929919E+02  0.00000000000E+00 0.  1.
         24    1    1    2    0    0  0.57294931433E+02 -0.46003156728E+02  0.19709512207E+03  0.22519481054E+03  0.80419002446E+02 0.  1.
        -24    1    1    2    0    0 -0.57294931433E+02  0.46003156728E+02  0.15293961200E+03  0.18776778337E+03  0.80419002446E+02 0. -1.
<mgrwt>
<rscale>  0 0.10893216E+03</rscale>
<asrwt>0</asrwt>
<pdfrwt beam="1">  1        2 0.58692099E-01 0.10893216E+03</pdfrwt>
<pdfrwt beam="2">  1       -2 0.48406049E-02 0.10893216E+03</pdfrwt>
<totfact> 0.15963910E+04</totfact>
</mgrwt>
</event>
<event>
 4    1  0.4999097E-001  0.9175600E+02  0.7546771E-02  0.1298654E+00
          1   -1    0    0  501    0  0.00000000000E+00  0.00000000000E+00  0.15773765560E+02  0.15773765560E+02  0.00000000000E+00 0. -1.
         -1   -1    0    0    0  501 -0.00000000000E+00 -0.00000000000E+00 -0.11379414594E+04  0.11379414594E+04  0.00000000000E+00 0.  1.
         24    1    1    2    0    0  0.31274425326E+02  0.31206691373E+02 -0.98142109447E+03  0.98570103373E+03  0.80419002446E+02 0.  1.
        -24    1    1    2    0    0 -0.31274425326E+02 -0.31206691373E+02 -0.14074659935E+03  0.16801419121E+03  0.80419002446E+02 0. -1.
<mgrwt>
<rscale>  0 0.91755998E+02</rscale>
<asrwt>0</asrwt>
<pdfrwt beam="1">  1        1 0.24267333E-02 0.91755998E+02</pdfrwt>
<pdfrwt beam="2">  1       -1 0.17506791E+00 0.91755998E+02</pdfrwt>
<totfact> 0.10979030E+03</totfact>
</mgrwt>
</event>
<event>
 4    1  0.4999097E-001  0.8631052E+02  0.7546771E-02  0.1312041E+00
          3   -1    0    0  501    0  0.00000000000E+00  0.00000000000E+00  0.22518741354E+03  0.22518741354E+03  0.00000000000E+00 0. -1.
         -3   -1    0    0    0  501 -0.00000000000E+00 -0.00000000000E+00 -0.62555102973E+02  0.62555102973E+02  0.00000000000E+00 0.  1.
         24    1    1    2    0    0  0.19587610782E+02  0.24466628748E+02 -0.17439119213E+02  0.88054694660E+02  0.80419002446E+02 0.  1.
        -24    1    1    2    0    0 -0.19587610782E+02 -0.24466628748E+02  0.18007142978E+03  0.19968782185E+03  0.80419002446E+02 0. -1.
<mgrwt>
<rscale>  0 0.86310523E+02</rscale>
<asrwt>0</asrwt>
<pdfrwt beam="1">  1        3 0.34644217E-01 0.86310523E+02</pdfrwt>
<pdfrwt beam="2">  1       -3 0.96238621E-02 0.86310523E+02</pdfrwt>
<totfact> 0.13633326E+03</totfact>
</mgrwt>
</event>
<event>
 4    1  0.4999097E-001  0.1144976E+03  0.7546771E-02  0.1252461E+00
          4   -1    0    0  501    0  0.00000000000E+00  0.00000000000E+00  0.71883241968E+01  0.71883241968E+01  0.00000000000E+00 0. -1.
         -4   -1    0    0    0  501 -0.00000000000E+00 -0.00000000000E+00 -0.20829418665E+04  0.20829418665E+04  0.00000000000E+00 0.  1.
         24    1    1    2    0    0  0.65192481739E+02 -0.48912485339E+02 -0.66922579937E+03  0.67894983423E+03  0.80419002446E+02 0.  0.
        -24    1    1    2    0    0 -0.65192481739E+02  0.48912485339E+02 -0.14065277430E+04  0.14111803565E+04  0.80419002446E+02 0. -1.
<mgrwt>
<rscale>  0 0.11449763E+03</rscale>
<asrwt>0</asrwt>
<pdfrwt beam="1">  1        4 0.11058950E-02 0.11449763E+03</pdfrwt>
<pdfrwt beam="2">  1       -4 0.32045290E+00 0.11449763E+03</pdfrwt>
<totfact> 0.11891977E+02</totfact>
</mgrwt>
</event>
<event>
 4    1  0.4999097E-001  0.9113979E+02  0.7546771E-02  0.1300115E+00
         -2   -1    0    0    0  501 -0.00000000000E+00  0.00000000000E+00  0.10294522506E+03  0.10294522506E+03  0.00000000000E+00 0.  1.
          2   -1    0    0  501    0  0.00000000000E+00 -0.00000000000E+00 -0.32399256289E+03  0.32399256289E+03  0.00000000000E+00 0. -1.
         24    1    1    2    0    0  0.45226832153E+01 -0.42647286068E+02 -0.29551102959E+03  0.30924622914E+03  0.80419002446E+02 0. -1.
        -24    1    1    2    0    0 -0.45226832153E+01  0.42647286068E+02  0.74463691755E+02  0.11769155882E+03  0.80419002446E+02 0.  1.
<mgrwt>
<rscale>  0 0.91139792E+02</rscale>
<asrwt>0</asrwt>
<pdfrwt beam="1">  1        2 0.49845009E-01 0.91139792E+02</pdfrwt>
<pdfrwt beam="2">  1       -2 0.15837727E-01 0.91139792E+02</pdfrwt>
<totfact> 0.29871460E+03</totfact>
</mgrwt>
</event>
<event>
 4    1  0.4999097E-001  0.8658365E+02  0.7546771E-02  0.1311342E+00
         -1   -1    0    0    0  501 -0.00000000000E+00  0.00000000000E+00  0.20413078671E+02  0.20413078671E+02  0.00000000000E+00 0.  1.
          1   -1    0    0  501    0  0.00000000000E+00 -0.00000000000E+00 -0.11322266669E+04  0.11322266669E+04  0.00000000000E+00 0. -1.
         24    1    1    2    0    0 -0.83339318705E+01 -0.30984808555E+02 -0.82187968500E+02  0.11938002723E+03  0.80419002446E+02 0.  1.
        -24    1    1    2    0    0  0.83339318705E+01  0.30984808555E+02 -0.10296256197E+04  0.10332597183E+04  0.80419002446E+02 0. -1.
<mgrwt>
<rscale>  0 0.86583652E+02</rscale>
<asrwt>0</asrwt>
<pdfrwt beam="1">  1        1 0.17418878E+00 0.86583652E+02</pdfrwt>
<pdfrwt beam="2">  1       -1 0.31404726E-02 0.86583652E+02</pdfrwt>
<totfact> 0.43452030E+03</totfact>
</mgrwt>
</event>
<event>
 4    1  0.4999097E-001  0.1504001E+03  0.7546771E-02  0.1199982E+00
          2   -1    0    0  501    0  0.00000000000E+00  0.00000000000E+00  0.20519744334E+04  0.20519744334E+04  0.00000000000E+00 0. -1.
         -2   -1    0    0    0  501 -0.00000000000E+00 -0.00000000000E+00 -0.55083075585E+02  0.55083075585E+02  0.00000000000E+00 0.  1.
         24    1    1    2    0    0  0.43507307418E+02 -0.11941562836E+03  0.19406755054E+04  0.19464946985E+04  0.80419002446E+02 0. -1.
        -24    1    1    2    0    0 -0.43507307418E+02  0.11941562836E+03  0.56215852435E+02  0.16056281050E+03  0.80419002446E+02 0.  1.
<mgrwt>
<rscale>  0 0.15040011E+03</rscale>
<asrwt>0</asrwt>
<pdfrwt beam="1">  1        2 0.31568832E+00 0.15040011E+03</pdfrwt>
<pdfrwt beam="2">  1       -2 0.84743209E-02 0.15040011E+03</pdfrwt>
<totfact> 0.61841019E+02</totfact>
</mgrwt>
</event>
<event>
 4    1  0.4999097E-001  0.1183832E+03  0.7546771E-02  0.1245788E+00
          4   -1    0    0  501    0  0.00000000000E+00  0.00000000000E+00  0.49796348122E+03  0.49796348122E+03  0.00000000000E+00 0. -1.
         -4   -1    0    0    0  501 -0.00000000000E+00 -0.00000000000E+00 -0.40979753597E+02  0.40979753597E+02  0.00000000000E+00 0.  1.
         24    1    1    2    0    0 -0.74038385724E+01 -0.86559451004E+02  0.37930628728E+03  0.39735101725E+03  0.80419002446E+02 0. -1.
        -24    1    1    2    0    0  0.74038385724E+01  0.86559451004E+02  0.77677440348E+02  0.14159221757E+03  0.80419002446E+02 0.  1.
<mgrwt>
<rscale>  0 0.11838315E+03</rscale>
<asrwt>0</asrwt>
<pdfrwt beam="1">  1        4 0.76609762E-01 0.11838315E+03</pdfrwt>
<pdfrwt beam="2">  1       -4 0.63045778E-02 0.11838315E+03</pdfrwt>
<totfact> 0.41451746E+02</totfact>
</mgrwt>
</event>
<event>
 4    1  0.4999097E-001  0.1122573E+03  0.7546771E-02  0.1256446E+00
          2   -1    0    0  501    0  0.00000000000E+00  0.00000000000E+00  0.19975584676E+04  0.19975584676E+04  0.00000000000E+00 0.  1.
         -2   -1    0    0    0  501 -0.00000000000E+00 -0.00000000000E+00 -0.63219916080E+01  0.63219916080E+01  0.00000000000E+00 0. -1.
         24    1    1    2    0    0 -0.44573878406E+02  0.64402331012E+02  0.10418100251E+04  0.10478405581E+04  0.80419002446E+02 0.  0.
        -24    1    1    2    0    0  0.44573878406E+02 -0.64402331012E+02  0.94942645087E+03  0.95603990107E+03  0.80419002446E+02 0.  0.
<mgrwt>
<rscale>  0 0.11225732E+03</rscale>
<asrwt>0</asrwt>
<pdfrwt beam="1">  1        2 0.30731618E+00 0.11225732E+03</pdfrwt>
<pdfrwt beam="2">  1       -2 0.97261569E-03 0.11225732E+03</pdfrwt>
<totfact> 0.15990084E+04</totfact>
</mgrwt>
</event>
<event>
 4    1  0.4999097E-001  0.8172223E+02  0.7546771E-02  0.1324234E+00
         -1   -1    0    0    0  501 -0.00000000000E+00  0.00000000000E+00  0.21061540061E+02  0.21061540061E+02  0.00000000000E+00 0.  1.
          1   -1    0    0  501    0  0.00000000000E+00 -0.00000000000E+00 -0.36126761466E+03  0.36126761466E+03  0.00000000000E+00 0. -1.
         24    1    1    2    0    0 -0.61812506504E+00  0.14523262835E+02 -0.10325846395E+03  0.13168459885E+03  0.80419002446E+02 0.  1.
        -24    1    1    2    0    0  0.61812506504E+00 -0.14523262835E+02 -0.23694761065E+03  0.25064455588E+03  0.80419002446E+02 0.  0.
<mgrwt>
<rscale>  0 0.81722232E+02</rscale>
<asrwt>0</asrwt>
<pdfrwt beam="1">  1        1 0.55579637E-01 0.81722232E+02</pdfrwt>
<pdfrwt beam="2">  1       -1 0.32402367E-02 0.81722232E+02</pdfrwt>
<totfact> 0.20651522E+04</totfact>
</mgrwt>
</event>
<event>
 4    1  0.4999097E-001  0.9496241E+02  0.7546771E-02  0.1291261E+00
          1   -1    0    0  501    0  0.00000000000E+00  0.00000000000E+00  0.67651713775E+02  0.67651713775E+02  0.00000000000E+00 0. -1.
         -1   -1    0    0    0  501 -0.00000000000E+00 -0.00000000000E+00 -0.13727985941E+03  0.13727985941E+03  0.00000000000E+00 0.  1.
         24    1    1    2    0    0  0.77349381558E+01  0.49908007834E+02 -0.17363677662E+02  0.96536789726E+02  0.80419002446E+02 0.  1.
        -24    1    1    2    0    0 -0.77349381558E+01 -0.49908007834E+02 -0.52264467974E+02  0.10839478346E+03  0.80419002446E+02 0.  0.
<mgrwt>
<rscale>  0 0.94962396E+02</rscale>
<asrwt>0</asrwt>
<pdfrwt beam="1">  1        1 0.10407956E-01 0.94962408E+02</pdfrwt>
<pdfrwt beam="2">  1       -1 0.21119978E-01 0.94962408E+02</pdfrwt>
<totfact> 0.10183008E+04</totfact>
</mgrwt>
</event>
<event>
 4    1  0.4999097E-001  0.1211844E+03  0.7546771E-02  0.1241156E+00
          2   -1    0    0  501    0  0.00000000000E+00  0.00000000000E+00  0.21696703125E+03  0.21696703125E+03  0.00000000000E+00 0. -1.
         -2   -1    0    0    0  501 -0.00000000000E+00 -0.00000000000E+00 -0.68551467825E+02  0.68551467825E+02  0.00000000000E+00 0.  1.
         24    1    1    2    0    0  0.76761454416E+02 -0.48229728349E+02  0.58167712428E+02  0.13442145031E+03  0.80419002446E+02 0.  0.
        -24    1    1    2    0    0 -0.76761454416E+02  0.48229728349E+02  0.90247850999E+02  0.15109704876E+03  0.80419002446E+02 0.  1.
<mgrwt>
<rscale>  0 0.12118435E+03</rscale>
<asrwt>0</asrwt>
<pdfrwt beam="1">  1        2 0.33379543E-01 0.12118437E+03</pdfrwt>
<pdfrwt beam="2">  1       -2 0.10546380E-01 0.12118437E+03</pdfrwt>
<totfact> 0.89003302E+03</totfact>
</mgrwt>
</event>
<event>
 4    1  0.4999097E-001  0.1149702E+03  0.7546771E-02  0.1251633E+00
          2   -1    0    0  501    0  0.00000000000E+00  0.00000000000E+00  0.34202837377E+04  0.34202837377E+04  0.00000000000E+00 0. -1.
         -2   -1    0    0    0  501 -0.00000000000E+00 -0.00000000000E+00 -0.50569122900E+01  0.50569122900E+01  0.00000000000E+00 0.  1.
         24    1    1    2    0    0  0.42482285477E+02 -0.70329030047E+02  0.87600186775E+03  0.88351423605E+03  0.80419002446E+02 0.  0.
        -24    1    1    2    0    0 -0.42482285477E+02  0.70329030047E+02  0.25392249576E+04  0.25418264139E+04  0.80419002446E+02 0. -1.
<mgrwt>
<rscale>  0 0.11497015E+03</rscale>
<asrwt>0</asrwt>
<pdfrwt beam="1">  1        2 0.52619565E+00 0.11497017E+03</pdfrwt>
<pdfrwt beam="2">  1       -2 0.77798924E-03 0.11497017E+03</pdfrwt>
<totfact> 0.35840152E+03</totfact>
</mgrwt>
</event>
<event>
 4    1  0.4999097E-001  0.9273574E+02  0.7546771E-02  0.1296359E+00
         -2   -1    0    0    0  501 -0.00000000000E+00  0.00000000000E+00  0.18007184159E+03  0.18007184159E+03  0.00000000000E+00 0.  1.
          2   -1    0    0  501    0  0.00000000000E+00 -0.00000000000E+00 -0.10496838874E+04  0.10496838874E+04  0.00000000000E+00 0. -1.
         24    1    1    2    0    0 -0.14222541382E+02 -0.43936556672E+02 -0.10355332777E+04  0.10396773956E+04  0.80419002446E+02 0. -1.
        -24    1    1    2    0    0  0.14222541382E+02  0.43936556672E+02  0.16592123188E+03  0.19007833343E+03  0.80419002446E+02 0.  1.
<mgrwt>
<rscale>  0 0.92735741E+02</rscale>
<asrwt>0</asrwt>
<pdfrwt beam="1">  1        2 0.16148983E+00 0.92735741E+02</pdfrwt>
<pdfrwt beam="2">  1       -2 0.27703360E-01 0.92735741E+02</pdfrwt>
<totfact> 0.30209919E+02</totfact>
</mgrwt>
</event>
<event>
 4    1  0.4999097E-001  0.9269818E+02  0.7546771E-02  0.1296446E+00
          2   -1    0    0  501    0  0.00000000000E+00  0.00000000000E+00  0.93404277826E+02  0.93404277826E+02  0.00000000000E+00 0. -1.
         -2   -1    0    0    0  501 -0.00000000000E+00 -0.00000000000E+00 -0.96196035625E+02  0.96196035625E+02  0.00000000000E+00 0.  1.
         24    1    1    2    0    0 -0.46501782417E+01  0.45870604709E+02  0.18409519181E+02  0.94508533397E+02  0.80419002446E+02 0. -1.
        -24    1    1    2    0    0  0.46501782417E+01 -0.45870604709E+02 -0.21201276980E+02  0.95091780055E+02  0.80419002446E+02 0.  1.
<mgrwt>
<rscale>  0 0.92698180E+02</rscale>
<asrwt>0</asrwt>
<pdfrwt beam="1">  1        2 0.14369889E-01 0.92698180E+02</pdfrwt>
<pdfrwt beam="2">  1       -2 0.14799390E-01 0.92698180E+02</pdfrwt>
<totfact> 0.12936575E+04</totfact>
</mgrwt>
</event>
<event>
 4    1  0.4999097E-001  0.8133647E+02  0.7546771E-02  0.1325301E+00
         -4   -1    0    0    0  501 -0.00000000000E+00  0.00000000000E+00  0.28839951761E+03  0.28839951761E+03  0.00000000000E+00 0.  1.
          4   -1    0    0  501    0  0.00000000000E+00 -0.00000000000E+00 -0.23733396376E+02  0.23733396376E+02  0.00000000000E+00 0. -1.
         24    1    1    2    0    0 -0.12116595047E+02 -0.12626307487E+01  0.10378188134E+03  0.13185712328E+03  0.80419002446E+02 0. -1.
        -24    1    1    2    0    0  0.12116595047E+02  0.12626307487E+01  0.16088423990E+03  0.18027579070E+03  0.80419002446E+02 0.  1.
<mgrwt>
<rscale>  0 0.81336474E+02</rscale>
<asrwt>0</asrwt>
<pdfrwt beam="1">  1        4 0.36512919E-02 0.81336474E+02</pdfrwt>
<pdfrwt beam="2">  1       -4 0.44369154E-01 0.81336474E+02</pdfrwt>
<totfact> 0.28099983E+03</totfact>
</mgrwt>
</event>
<event>
 4    1  0.4999097E-001  0.9205457E+02  0.7546771E-02  0.1297951E+00
         -1   -1    0    0    0  501 -0.00000000000E+00  0.00000000000E+00  0.35045905245E+02  0.35045905245E+02  0.00000000000E+00 0.  1.
          1   -1    0    0  501    0  0.00000000000E+00 -0.00000000000E+00 -0.53482460816E+03  0.53482460816E+03  0.00000000000E+00 0. -1.
         24    1    1    2    0    0  0.93164867450E+01  0.43818156492E+02 -0.38981020831E+02  0.99967813335E+02  0.80419002446E+02 0.  1.
        -24    1    1    2    0    0 -0.93164867450E+01 -0.43818156492E+02 -0.46079768208E+03  0.46990270007E+03  0.80419002446E+02 0. -1.
<mgrwt>
<rscale>  0 0.92054569E+02</rscale>
<asrwt>0</asrwt>
<pdfrwt beam="1">  1        1 0.82280706E-01 0.92054569E+02</pdfrwt>
<pdfrwt beam="2">  1       -1 0.53916780E-02 0.92054569E+02</pdfrwt>
<totfact> 0.60791965E+03</totfact>
</mgrwt>
</event>
<event>
 4    1  0.4999097E-001  0.8602743E+02  0.7546771E-02  0.1312767E+00
          1   -1    0    0  501    0  0.00000000000E+00  0.00000000000E+00  0.17794318097E+02  0.17794318097E+02  0.00000000000E+00 0. -1.
         -1   -1    0    0    0  501 -0.00000000000E+00 -0.00000000000E+00 -0.42895837476E+03  0.42895837476E+03  0.00000000000E+00 0.  1.
         24    1    1    2    0    0  0.12795836970E+02  0.27744707423E+02 -0.24455081524E+03  0.25924085215E+03  0.80419002446E+02 0.  0.
        -24    1    1    2    0    0 -0.12795836970E+02 -0.27744707423E+02 -0.16661324142E+03  0.18751184070E+03  0.80419002446E+02 0.  1.
<mgrwt>
<rscale>  0 0.86027427E+02</rscale>
<asrwt>0</asrwt>
<pdfrwt beam="1">  1        1 0.27375874E-02 0.86027427E+02</pdfrwt>
<pdfrwt beam="2">  1       -1 0.65993596E-01 0.86027427E+02</pdfrwt>
<totfact> 0.84661065E+03</totfact>
</mgrwt>
</event>
<event>
 4    1  0.4999097E-001  0.8654601E+02  0.7546771E-02  0.1311438E+00
         -4   -1    0    0    0  501 -0.00000000000E+00  0.00000000000E+00  0.64357839862E+02  0.64357839862E+02  0.00000000000E+00 0.  1.
          4   -1    0    0  501    0  0.00000000000E+00 -0.00000000000E+00 -0.18737520537E+03  0.18737520537E+03  0.00000000000E+00 0. -1.
         24    1    1    2    0    0 -0.14282433227E+02 -0.28618303018E+02 -0.13898286569E+03  0.16372674820E+03  0.80419002446E+02 0. -1.
        -24    1    1    2    0    0  0.14282433227E+02  0.28618303018E+02  0.15965500183E+02  0.88006297030E+02  0.80419002446E+02 0.  1.
<mgrwt>
<rscale>  0 0.86546006E+02</rscale>
<asrwt>0</asrwt>
<pdfrwt beam="1">  1        4 0.28826954E-01 0.86546006E+02</pdfrwt>
<pdfrwt beam="2">  1       -4 0.99012064E-02 0.86546006E+02</pdfrwt>
<totfact> 0.13100095E+03</totfact>
</mgrwt>
</event>
<event>
 4    1  0.4999097E-001  0.8809485E+02  0.7546771E-02  0.1307532E+00
          3   -1    0    0  501    0  0.00000000000E+00  0.00000000000E+00  0.19251003794E+04  0.19251003794E+04  0.00000000000E+00 0. -1.
         -3   -1    0    0    0  501 -0.00000000000E+00 -0.00000000000E+00 -0.44561085166E+01  0.44561085166E+01  0.00000000000E+00 0.  1.
         24    1    1    2    0    0 -0.23445544810E+02 -0.27272578529E+02  0.66244714588E+03  0.66827907655E+03  0.80419002446E+02 0.  1.
        -24    1    1    2    0    0  0.23445544810E+02  0.27272578529E+02  0.12581971250E+04  0.12612774114E+04  0.80419002446E+02 0. -1.
<mgrwt>
<rscale>  0 0.88094853E+02</rscale>
<asrwt>0</asrwt>
<pdfrwt beam="1">  1        3 0.29616862E+00 0.88094853E+02</pdfrwt>
<pdfrwt beam="2">  1       -3 0.68555669E-03 0.88094853E+02</pdfrwt>
<totfact> 0.50662220E+02</totfact>
</mgrwt>
</event>
<event>
 4    1  0.4999097E-001  0.2029503E+03  0.7546771E-02  0.1147273E+00
         -2   -1    0    0    0  501 -0.00000000000E+00  0.00000000000E+00  0.31019372093E+02  0.31019372093E+02  0.00000000000E+00 0.  1.
          2   -1    0    0  501    0  0.00000000000E+00 -0.00000000000E+00 -0.14369815641E+04  0.14369815641E+04  0.00000000000E+00 0. -1.
         24    1    1    2    0    0  0.29824291277E+02  0.18393509162E+03 -0.50069686510E+03  0.54026490998E+03  0.80419002446E+02 0. -1.
        -24    1    1    2    0    0 -0.29824291277E+02 -0.18393509162E+03 -0.90526532693E+03  0.92773602624E+03  0.80419002446E+02 0.  1.
<mgrwt>
<rscale>  0 0.20295032E+03</rscale>
<asrwt>0</asrwt>
<pdfrwt beam="1">  1        2 0.22107410E+00 0.20295035E+03</pdfrwt>
<pdfrwt beam="2">  1       -2 0.47722109E-02 0.20295035E+03</pdfrwt>
<totfact> 0.30956847E+03</totfact>
</mgrwt>
</event>
<event>
 4    1  0.4999097E-001  0.1674198E+03  0.7546771E-02  0.1180566E+00
          2   -1    0    0  501    0  0.00000000000E+00  0.00000000000E+00  0.12590824212E+04  0.12590824212E+04  0.00000000000E+00 0. -1.
         -2   -1    0    0    0  501 -0.00000000000E+00 -0.00000000000E+00 -0.23621482573E+02  0.23621482573E+02  0.00000000000E+00 0.  1.
         24    1    1    2    0    0  0.14605274181E+03 -0.15190461832E+02  0.46385454025E+03  0.49314339090E+03  0.80419002446E+02 0.  1.
        -24    1    1    2    0    0 -0.14605274181E+03  0.15190461832E+02  0.77160639841E+03  0.78956051291E+03  0.80419002446E+02 0. -1.
<mgrwt>
<rscale>  0 0.16741976E+03</rscale>
<asrwt>0</asrwt>
<pdfrwt beam="1">  1        2 0.19370493E+00 0.16741978E+03</pdfrwt>
<pdfrwt beam="2">  1       -2 0.36340752E-02 0.16741978E+03</pdfrwt>
<totfact> 0.57935298E+03</totfact>
</mgrwt>
</event>
<event>
 4    1  0.4999097E-001  0.8266185E+02  0.7546771E-02  0.1321663E+00
         -2   -1    0    0    0  501 -0.00000000000E+00  0.00000000000E+00  0.10353648308E+02  0.10353648308E+02  0.00000000000E+00 0.  1.
          2   -1    0    0  501    0  0.00000000000E+00 -0.00000000000E+00 -0.12152907157E+04  0.12152907157E+04  0.00000000000E+00 0. -1.
         24    1    1    2    0    0  0.87855049490E+01  0.16987674437E+02 -0.10167263129E+04  0.10200810642E+04  0.80419002446E+02 0. -1.
        -24    1    1    2    0    0 -0.87855049490E+01 -0.16987674437E+02 -0.18821075450E+03  0.20556329984E+03  0.80419002446E+02 0.  1.
<mgrwt>
<rscale>  0 0.82661854E+02</rscale>
<asrwt>0</asrwt>
<pdfrwt beam="1">  1        2 0.18696774E+00 0.82661854E+02</pdfrwt>
<pdfrwt beam="2">  1       -2 0.15928695E-02 0.82661854E+02</pdfrwt>
<totfact> 0.19544913E+04</totfact>
</mgrwt>
</event>
<event>
 4    1  0.4999097E-001  0.1115886E+03  0.7546771E-02  0.1257656E+00
          2   -1    0    0  501    0  0.00000000000E+00  0.00000000000E+00  0.13047317289E+04  0.13047317289E+04  0.00000000000E+00 0. -1.
         -2   -1    0    0    0  501 -0.00000000000E+00 -0.00000000000E+00 -0.26007734401E+02  0.26007734401E+02  0.00000000000E+00 0.  1.
         24    1    1    2    0    0 -0.66120089006E+02  0.40161220506E+02  0.11687566284E+04  0.11740715746E+04  0.80419002446E+02 0. -1.
        -24    1    1    2    0    0  0.66120089006E+02 -0.40161220506E+02  0.10996736611E+03  0.15666788875E+03  0.80419002446E+02 0.  1.
<mgrwt>
<rscale>  0 0.11158856E+03</rscale>
<asrwt>0</asrwt>
<pdfrwt beam="1">  1        2 0.20072791E+00 0.11158856E+03</pdfrwt>
<pdfrwt beam="2">  1       -2 0.40011909E-02 0.11158856E+03</pdfrwt>
<totfact> 0.46854624E+03</totfact>
</mgrwt>
</event>
<event>
 4    1  0.4999097E-001  0.8203348E+02  0.7546771E-02  0.1323378E+00
         -2   -1    0    0    0  501 -0.00000000000E+00  0.00000000000E+00  0.10952626311E+02  0.10952626311E+02  0.00000000000E+00 0.  1.
          2   -1    0    0  501    0  0.00000000000E+00 -0.00000000000E+00 -0.69233369174E+03  0.69233369174E+03  0.00000000000E+00 0. -1.
         24    1    1    2    0    0 -0.68400695460E+01 -0.14679558335E+02 -0.45865646471E+03  0.46593480720E+03  0.80419002446E+02 0. -1.
        -24    1    1    2    0    0  0.68400695460E+01  0.14679558335E+02 -0.22272460072E+03  0.23735151085E+03  0.80419002446E+02 0.  1.
<mgrwt>
<rscale>  0 0.82033481E+02</rscale>
<asrwt>0</asrwt>
<pdfrwt beam="1">  1        2 0.10651288E+00 0.82033481E+02</pdfrwt>
<pdfrwt beam="2">  1       -2 0.16850193E-02 0.82033481E+02</pdfrwt>
<totfact> 0.37506570E+04</totfact>
</mgrwt>
</event>
<event>
 4    1  0.4999097E-001  0.9712750E+02  0.7546771E-02  0.1286455E+00
         -1   -1    0    0    0  501 -0.00000000000E+00  0.00000000000E+00  0.14445016259E+03  0.14445016259E+03  0.00000000000E+00 0.  1.
          1   -1    0    0  501    0  0.00000000000E+00 -0.00000000000E+00 -0.87430365726E+02  0.87430365726E+02  0.00000000000E+00 0. -1.
         24    1    1    2    0    0  0.14002343741E+02 -0.52635209651E+02 -0.29810330048E+02  0.10159922567E+03  0.80419002446E+02 0.  0.
        -24    1    1    2    0    0 -0.14002343741E+02  0.52635209651E+02  0.86830126914E+02  0.13028130265E+03  0.80419002446E+02 0. -1.
<mgrwt>
<rscale>  0 0.97127490E+02</rscale>
<asrwt>0</asrwt>
<pdfrwt beam="1">  1        1 0.13450825E-01 0.97127502E+02</pdfrwt>
<pdfrwt beam="2">  1       -1 0.22223102E-01 0.97127502E+02</pdfrwt>
<totfact> 0.67380667E+03</totfact>
</mgrwt>
</event>
<event>
 4    1  0.4999097E-001  0.8180897E+02  0.7546771E-02  0.1323995E+00
          2   -1    0    0  501    0  0.00000000000E+00  0.00000000000E+00  0.15344194380E+04  0.15344194380E+04  0.00000000000E+00 0. -1.
         -2   -1    0    0    0  501 -0.00000000000E+00 -0.00000000000E+00 -0.62075270599E+01  0.62075270599E+01  0.00000000000E+00 0.  1.
         24    1    1    2    0    0  0.10341774994E+02 -0.10887580632E+02  0.11841563151E+04  0.11869788904E+04  0.80419002446E+02 0. -1.
        -24    1    1    2    0    0 -0.10341774994E+02  0.10887580632E+02  0.34405559575E+03  0.35364807456E+03  0.80419002446E+02 0.  1.
<mgrwt>
<rscale>  0 0.81808971E+02</rscale>
<asrwt>0</asrwt>
<pdfrwt beam="1">  1        2 0.23606423E+00 0.81808971E+02</pdfrwt>
<pdfrwt beam="2">  1       -2 0.95500539E-03 0.81808971E+02</pdfrwt>
<totfact> 0.27523302E+04</totfact>
</mgrwt>
</event>
<event>
 4    1  0.4999097E-001  0.8414310E+02  0.7546771E-02  0.1317689E+00
         -1   -1    0    0    0  501 -0.00000000000E+00  0.00000000000E+00  0.22527704904E+03  0.22527704904E+03  0.00000000000E+00 0.  1.
          1   -1    0    0  501    0  0.00000000000E+00 -0.00000000000E+00 -0.34115618524E+02  0.34115618524E+02  0.00000000000E+00 0. -1.
         24    1    1    2    0    0 -0.15818964970E+02 -0.19042128163E+02  0.59179444879E+02  0.10287013633E+03  0.80419002446E+02 0.  0.
        -24    1    1    2    0    0  0.15818964970E+02  0.19042128163E+02  0.13198198564E+03  0.15652253124E+03  0.80419002446E+02 0.  0.
<mgrwt>
<rscale>  0 0.84143093E+02</rscale>
<asrwt>0</asrwt>
<pdfrwt beam="1">  1        1 0.52485568E-02 0.84143103E+02</pdfrwt>
<pdfrwt beam="2">  1       -1 0.34658007E-01 0.84143103E+02</pdfrwt>
<totfact> 0.11077507E+04</totfact>
</mgrwt>
</event>
<event>
 4    1  0.4999097E-001  0.9411611E+02  0.7546771E-02  0.1293179E+00
         -2   -1    0    0    0  501 -0.00000000000E+00  0.00000000000E+00  0.16498601807E+03  0.16498601807E+03  0.00000000000E+00 0.  1.
          2   -1    0    0  501    0  0.00000000000E+00 -0.00000000000E+00 -0.55889051767E+02  0.55889051767E+02  0.00000000000E+00 0. -1.
         24    1    1    2    0    0 -0.48138193282E+02  0.85639641077E+01  0.32634346898E+02  0.99613471406E+02  0.80419002446E+02 0. -1.
        -24    1    1    2    0    0  0.48138193282E+02 -0.85639641077E+01  0.76462619410E+02  0.12126159844E+03  0.80419002446E+02 0.  1.
<mgrwt>
<rscale>  0 0.94116115E+02</rscale>
<asrwt>0</asrwt>
<pdfrwt beam="1">  1        2 0.85983157E-02 0.94116115E+02</pdfrwt>
<pdfrwt beam="2">  1       -2 0.25382464E-01 0.94116115E+02</pdfrwt>
<totfact> 0.97285833E+03</totfact>
</mgrwt>
</event>
<event>
 4    1  0.4999097E-001  0.8271952E+02  0.7546771E-02  0.1321506E+00
         -2   -1    0    0    0  501 -0.00000000000E+00  0.00000000000E+00  0.43481019988E+01  0.43481019988E+01  0.00000000000E+00 0.  1.
          2   -1    0    0  501    0  0.00000000000E+00 -0.00000000000E+00 -0.19474695348E+04  0.19474695348E+04  0.00000000000E+00 0. -1.
         24    1    1    2    0    0  0.45260348712E+01  0.18836593158E+02 -0.13991116620E+04  0.14015548370E+04  0.80419002446E+02 0. -1.
        -24    1    1    2    0    0 -0.45260348712E+01 -0.18836593158E+02 -0.54400977077E+03  0.55026279983E+03  0.80419002446E+02 0.  0.
<mgrwt>
<rscale>  0 0.82719515E+02</rscale>
<asrwt>0</asrwt>
<pdfrwt beam="1">  1        2 0.29961010E+00 0.82719515E+02</pdfrwt>
<pdfrwt beam="2">  1       -2 0.66894011E-03 0.82719515E+02</pdfrwt>
<totfact> 0.28232756E+04</totfact>
</mgrwt>
</event>
<event>
 4    1  0.4999097E-001  0.8261031E+02  0.7546771E-02  0.1321803E+00
         -2   -1    0    0    0  501 -0.00000000000E+00  0.00000000000E+00  0.10435409837E+03  0.10435409837E+03  0.00000000000E+00 0.  1.
          2   -1    0    0  501    0  0.00000000000E+00 -0.00000000000E+00 -0.11221228599E+03  0.11221228599E+03  0.00000000000E+00 0. -1.
         24    1    1    2    0    0  0.14859715568E+02 -0.11680564562E+02 -0.73870425675E+02  0.11082103807E+03  0.80419002446E+02 0.  0.
        -24    1    1    2    0    0 -0.14859715568E+02  0.11680564562E+02  0.66012238056E+02  0.10574534629E+03  0.80419002446E+02 0.  1.
<mgrwt>
<rscale>  0 0.82610306E+02</rscale>
<asrwt>0</asrwt>
<pdfrwt beam="1">  1        2 0.17263429E-01 0.82610306E+02</pdfrwt>
<pdfrwt beam="2">  1       -2 0.16054477E-01 0.82610306E+02</pdfrwt>
<totfact> 0.90804079E+03</totfact>
</mgrwt>
</event>
<event>
 4    1  0.4999097E-001  0.8911042E+02  0.7546771E-02  0.1305020E+00
          2   -1    0    0  501    0  0.00000000000E+00  0.00000000000E+00  0.10118189089E+03  0.10118189089E+03  0.00000000000E+00 0. -1.
         -2   -1    0    0    0  501 -0.00000000000E+00 -0.00000000000E+00 -0.80542085545E+02  0.80542085545E+02  0.00000000000E+00 0.  1.
         24    1    1    2    0    0 -0.35024248004E+02 -0.15708370279E+02  0.24861620166E+02  0.92513604171E+02  0.80419002446E+02 0.  0.
        -24    1    1    2    0    0  0.35024248004E+02  0.15708370279E+02 -0.42218148181E+01  0.89210372266E+02  0.80419002446E+02 0. -1.
<mgrwt>
<rscale>  0 0.89110419E+02</rscale>
<asrwt>0</asrwt>
<pdfrwt beam="1">  1        2 0.15566445E-01 0.89110419E+02</pdfrwt>
<pdfrwt beam="2">  1       -2 0.12391090E-01 0.89110419E+02</pdfrwt>
<totfact> 0.15605937E+04</totfact>
</mgrwt>
</event>
<event>
 4    1  0.4999097E-001  0.4619906E+03  0.7546771E-02  0.1024205E+00
         -1   -1    0    0    0  501 -0.00000000000E+00  0.00000000000E+00  0.22882987469E+03  0.22882987469E+03  0.00000000000E+00 0.  1.
          1   -1    0    0  501    0  0.00000000000E+00 -0.00000000000E+00 -0.11986086020E+04  0.11986086020E+04  0.00000000000E+00 0. -1.
         24    1    1    2    0    0  0.43933678505E+03 -0.11811542159E+03 -0.14873812296E+03  0.48534349557E+03  0.80419002446E+02 0.  1.
        -24    1    1    2    0    0 -0.43933678505E+03  0.11811542159E+03 -0.82104060437E+03  0.94209498114E+03  0.80419002446E+02 0. -1.
<mgrwt>
<rscale>  0 0.46199056E+03</rscale>
<asrwt>0</asrwt>
<pdfrwt beam="1">  1        1 0.18440133E+00 0.46199056E+03</pdfrwt>
<pdfrwt beam="2">  1       -1 0.35204595E-01 0.46199056E+03</pdfrwt>
<totfact> 0.86802360E+01</totfact>
</mgrwt>
</event>
<event>
 4    1  0.4999097E-001  0.1054976E+03  0.7546771E-02  0.1269142E+00
          1   -1    0    0  501    0  0.00000000000E+00  0.00000000000E+00  0.83531930161E+02  0.83531930161E+02  0.00000000000E+00 0. -1.
         -1   -1    0    0    0  501 -0.00000000000E+00 -0.00000000000E+00 -0.14227381856E+03  0.14227381856E+03  0.00000000000E+00 0.  1.
         24    1    1    2    0    0 -0.67723259011E+02 -0.87228966656E+01 -0.57821613195E+02  0.12030412979E+03  0.80419002446E+02 0.  1.
        -24    1    1    2    0    0  0.67723259011E+02  0.87228966656E+01 -0.92027520718E+00  0.10550161894E+03  0.80419002446E+02 0. -1.
<mgrwt>
<rscale>  0 0.10549761E+03</rscale>
<asrwt>0</asrwt>
<pdfrwt beam="1">  1        1 0.12851066E-01 0.10549761E+03</pdfrwt>
<pdfrwt beam="2">  1       -1 0.21888280E-01 0.10549761E+03</pdfrwt>
<totfact> 0.73739882E+03</totfact>
</mgrwt>
</event>
<event>
 4    1  0.4999097E-001  0.8300513E+02  0.7546771E-02  0.1320733E+00
         -1   -1    0    0    0  501 -0.00000000000E+00  0.00000000000E+00  0.11471215417E+02  0.11471215417E+02  0.00000000000E+00 0.  1.
          1   -1    0    0  501    0  0.00000000000E+00 -0.00000000000E+00 -0.60097787760E+03  0.60097787760E+03  0.00000000000E+00 0. -1.
         24    1    1    2    0    0  0.20037163573E+02  0.45983062536E+01 -0.30221976125E+03  0.31341128312E+03  0.80419002446E+02 0.  1.
        -24    1    1    2    0    0 -0.20037163573E+02 -0.45983062536E+01 -0.28728690093E+03  0.29903780989E+03  0.80419002446E+02 0. -1.
<mgrwt>
<rscale>  0 0.83005120E+02</rscale>
<asrwt>0</asrwt>
<pdfrwt beam="1">  1        1 0.92458154E-01 0.83005131E+02</pdfrwt>
<pdfrwt beam="2">  1       -1 0.17648020E-02 0.83005131E+02</pdfrwt>
<totfact> 0.25827752E+04</totfact>
</mgrwt>
</event>
<event>
 4    1  0.4999097E-001  0.8539426E+02  0.7546771E-02  0.1314405E+00
         -4   -1    0    0    0  501 -0.00000000000E+00  0.00000000000E+00  0.91312618099E+01  0.91312618099E+01  0.00000000000E+00 0.  1.
          4   -1    0    0  501    0  0.00000000000E+00 -0.00000000000E+00 -0.23442562314E+04  0.23442562314E+04  0.00000000000E+00 0. -1.
         24    1    1    2    0    0  0.17066755078E+02  0.23101712429E+02 -0.21230347289E+04  0.21247514300E+04  0.80419002446E+02 0.  0.
        -24    1    1    2    0    0 -0.17066755078E+02 -0.23101712429E+02 -0.21209024067E+03  0.22863606318E+03  0.80419002446E+02 0.  0.
<mgrwt>
<rscale>  0 0.85394257E+02</rscale>
<asrwt>0</asrwt>
<pdfrwt beam="1">  1        4 0.36065434E+00 0.85394257E+02</pdfrwt>
<pdfrwt beam="2">  1       -4 0.14048113E-02 0.85394257E+02</pdfrwt>
<totfact> 0.46234729E+01</totfact>
</mgrwt>
</event>
<event>
 4    1  0.4999097E-001  0.1126393E+03  0.7546771E-02  0.1255759E+00
         -1   -1    0    0    0  501 -0.00000000000E+00  0.00000000000E+00  0.14289844070E+02  0.14289844070E+02  0.00000000000E+00 0.  1.
          1   -1    0    0  501    0  0.00000000000E+00 -0.00000000000E+00 -0.11247987419E+04  0.11247987419E+04  0.00000000000E+00 0. -1.
         24    1    1    2    0    0 -0.25632765256E+02 -0.74587919525E+02 -0.29386184694E+03  0.31471002119E+03  0.80419002446E+02 0.  1.
        -24    1    1    2    0    0  0.25632765256E+02  0.74587919525E+02 -0.81664705088E+03  0.82437856478E+03  0.80419002446E+02 0. -1.
<mgrwt>
<rscale>  0 0.11263930E+03</rscale>
<asrwt>0</asrwt>
<pdfrwt beam="1">  1        1 0.17304596E+00 0.11263930E+03</pdfrwt>
<pdfrwt beam="2">  1       -1 0.21984376E-02 0.11263930E+03</pdfrwt>
<totfact> 0.74372229E+03</totfact>
</mgrwt>
</event>
<event>
 4    1  0.4999097E-001  0.8156927E+02  0.7546771E-02  0.1324656E+00
          1   -1    0    0  501    0  0.00000000000E+00  0.00000000000E+00  0.11354134279E+03  0.11354134279E+03  0.00000000000E+00 0. -1.
         -1   -1    0    0    0  501 -0.00000000000E+00 -0.00000000000E+00 -0.72364012170E+02  0.72364012170E+02  0.00000000000E+00 0.  1.
         24    1    1    2    0    0  0.54718556442E+01  0.12505534878E+02 -0.19950045252E+02  0.83973506934E+02  0.80419002446E+02 0.  1.
        -24    1    1    2    0    0 -0.54718556442E+01 -0.12505534878E+02  0.61127375872E+02  0.10193184803E+03  0.80419002446E+02 0.  0.
<mgrwt>
<rscale>  0 0.81569268E+02</rscale>
<asrwt>0</asrwt>
<pdfrwt beam="1">  1        1 0.17467899E-01 0.81569268E+02</pdfrwt>
<pdfrwt beam="2">  1       -1 0.11132925E-01 0.81569268E+02</pdfrwt>
<totfact> 0.13932169E+04</totfact>
</mgrwt>
</event>
<event>
 4    1  0.4999097E-001  0.1231405E+03  0.7546771E-02  0.1238004E+00
          1   -1    0    0  501    0  0.00000000000E+00  0.00000000000E+00  0.20539806710E+04  0.20539806710E+04  0.00000000000E+00 0. -1.
         -1   -1    0    0    0  501 -0.00000000000E+00 -0.00000000000E+00 -0.89120225307E+01  0.89120225307E+01  0.00000000000E+00 0.  1.
         24    1    1    2    0    0  0.48776196035E+02  0.79481175466E+02  0.59523614920E+03  0.60784016305E+03  0.80419002446E+02 0.  0.
        -24    1    1    2    0    0 -0.48776196035E+02 -0.79481175466E+02  0.14498324992E+04  0.14550525304E+04  0.80419002446E+02 0.  1.
<mgrwt>
<rscale>  0 0.12314053E+03</rscale>
<asrwt>0</asrwt>
<pdfrwt beam="1">  1        1 0.31599665E+00 0.12314053E+03</pdfrwt>
<pdfrwt beam="2">  1       -1 0.13710820E-02 0.12314053E+03</pdfrwt>
<totfact> 0.36742264E+03</totfact>
</mgrwt>
</event>
<event>
 4    1  0.4999097E-001  0.1390455E+03  0.7546771E-02  0.1214619E+00
         -1   -1    0    0    0  501 -0.00000000000E+00  0.00000000000E+00  0.44664989212E+02  0.44664989212E+02  0.00000000000E+00 0.  1.
          1   -1    0    0  501    0  0.00000000000E+00 -0.00000000000E+00 -0.96208442065E+03  0.96208442065E+03  0.00000000000E+00 0. -1.
         24    1    1    2    0    0  0.11253871423E+03 -0.14194132738E+02 -0.85369251805E+02  0.16316114952E+03  0.80419002446E+02 0.  1.
        -24    1    1    2    0    0 -0.11253871423E+03  0.14194132738E+02 -0.83205017963E+03  0.84358826034E+03  0.80419002446E+02 0. -1.
<mgrwt>
<rscale>  0 0.13904550E+03</rscale>
<asrwt>0</asrwt>
<pdfrwt beam="1">  1        1 0.14801300E+00 0.13904550E+03</pdfrwt>
<pdfrwt beam="2">  1       -1 0.68715363E-02 0.13904550E+03</pdfrwt>
<totfact> 0.18445629E+03</totfact>
</mgrwt>
</event>
<event>
 4    1  0.4999097E-001  0.9448703E+02  0.7546771E-02  0.1292336E+00
         -2   -1    0    0    0  501 -0.00000000000E+00  0.00000000000E+00  0.20587797664E+02  0.20587797664E+02  0.00000000000E+00 0.  1.
          2   -1    0    0  501    0  0.00000000000E+00 -0.00000000000E+00 -0.46257103723E+03  0.46257103723E+03  0.00000000000E+00 0. -1.
         24    1    1    2    0    0  0.49169662107E+02  0.65515293498E+01 -0.16058066833E+03  0.18631678723E+03  0.80419002446E+02 0.  1.
        -24    1    1    2    0    0 -0.49169662107E+02 -0.65515293498E+01 -0.28140257123E+03  0.29684204766E+03  0.80419002446E+02 0. -1.
<mgrwt>
<rscale>  0 0.94487017E+02</rscale>
<asrwt>0</asrwt>
<pdfrwt beam="1">  1        2 0.71164770E-01 0.94487029E+02</pdfrwt>
<pdfrwt beam="2">  1       -2 0.31673537E-02 0.94487029E+02</pdfrwt>
<totfact> 0.23970310E+04</totfact>
</mgrwt>
</event>
<event>
 4    1  0.4999097E-001  0.8714184E+02  0.7546771E-02  0.1309925E+00
          3   -1    0    0  501    0  0.00000000000E+00  0.00000000000E+00  0.59786152197E+02  0.59786152197E+02  0.00000000000E+00 0. -1.
         -3   -1    0    0    0  501 -0.00000000000E+00 -0.00000000000E+00 -0.22963708238E+03  0.22963708238E+03  0.00000000000E+00 0.  1.
         24    1    1    2    0    0  0.30214182156E+02 -0.14614610089E+02 -0.18166503726E+03  0.20148420620E+03  0.80419002446E+02 0.  1.
        -24    1    1    2    0    0 -0.30214182156E+02  0.14614610089E+02  0.11814107077E+02  0.87939028377E+02  0.80419002446E+02 0. -1.
<mgrwt>
<rscale>  0 0.87141836E+02</rscale>
<asrwt>0</asrwt>
<pdfrwt beam="1">  1        3 0.91978697E-02 0.87141836E+02</pdfrwt>
<pdfrwt beam="2">  1       -3 0.35328781E-01 0.87141836E+02</pdfrwt>
<totfact> 0.14173093E+03</totfact>
</mgrwt>
</event>
<event>
 4    1  0.4999097E-001  0.8494373E+02  0.7546771E-02  0.1315580E+00
         -2   -1    0    0    0  501 -0.00000000000E+00  0.00000000000E+00  0.27301433546E+01  0.27301433546E+01  0.00000000000E+00 0.  1.
          2   -1    0    0  501    0  0.00000000000E+00 -0.00000000000E+00 -0.27713061796E+04  0.27713061796E+04  0.00000000000E+00 0. -1.
         24    1    1    2    0    0 -0.27347860767E+02 -0.56183982364E+00 -0.16828738883E+04  0.16850163088E+04  0.80419002446E+02 0. -1.
        -24    1    1    2    0    0  0.27347860767E+02  0.56183982364E+00 -0.10857021479E+04  0.10890200141E+04  0.80419002446E+02 0.  1.
<mgrwt>
<rscale>  0 0.84943729E+02</rscale>
<asrwt>0</asrwt>
<pdfrwt beam="1">  1        2 0.42635235E+00 0.84943729E+02</pdfrwt>
<pdfrwt beam="2">  1       -2 0.42002447E-03 0.84943729E+02</pdfrwt>
<totfact> 0.20339500E+04</totfact>
</mgrwt>
</event>
<event>
 4    1  0.4999097E-001  0.8788222E+02  0.7546771E-02  0.1308063E+00
          1   -1    0    0  501    0  0.00000000000E+00  0.00000000000E+00  0.26606641990E+02  0.26606641990E+02  0.00000000000E+00 0. -1.
         -1   -1    0    0    0  501 -0.00000000000E+00 -0.00000000000E+00 -0.29526173517E+03  0.29526173517E+03  0.00000000000E+00 0.  1.
         24    1    1    2    0    0 -0.26331724922E+02 -0.23721405246E+02 -0.11341576262E+03  0.14347967093E+03  0.80419002446E+02 0.  0.
        -24    1    1    2    0    0  0.26331724922E+02  0.23721405246E+02 -0.15523933055E+03  0.17838870623E+03  0.80419002446E+02 0. -1.
<mgrwt>
<rscale>  0 0.87882209E+02</rscale>
<asrwt>0</asrwt>
<pdfrwt beam="1">  1        1 0.40933294E-02 0.87882220E+02</pdfrwt>
<pdfrwt beam="2">  1       -1 0.45424884E-01 0.87882220E+02</pdfrwt>
<totfact> 0.97507654E+03</totfact>
</mgrwt>
</event>
<event>
 4    1  0.4999097E-001  0.8046524E+02  0.7546771E-02  0.1327736E+00
         -3   -1    0    0    0  501 -0.00000000000E+00  0.00000000000E+00  0.11214009377E+02  0.11214009377E+02  0.00000000000E+00 0.  1.
          3   -1    0    0  501    0  0.00000000000E+00 -0.00000000000E+00 -0.72082831781E+03  0.72082831781E+03  0.00000000000E+00 0. -1.
         24    1    1    2    0    0 -0.14123338965E+01 -0.23331792092E+01 -0.19152068222E+03  0.20773739693E+03  0.80419002446E+02 0.  0.
        -24    1    1    2    0    0  0.14123338965E+01  0.23331792092E+01 -0.51809362621E+03  0.52430493025E+03  0.80419002446E+02 0. -1.
<mgrwt>
<rscale>  0 0.80465237E+02</rscale>
<asrwt>0</asrwt>
<pdfrwt beam="1">  1        3 0.11089666E+00 0.80465237E+02</pdfrwt>
<pdfrwt beam="2">  1       -3 0.17252322E-02 0.80465237E+02</pdfrwt>
<totfact> 0.17753851E+03</totfact>
</mgrwt>
</event>
<event>
 4    1  0.4999097E-001  0.8089987E+02  0.7546771E-02  0.1326517E+00
          1   -1    0    0  501    0  0.00000000000E+00  0.00000000000E+00  0.13972173425E+03  0.13972173425E+03  0.00000000000E+00 0. -1.
         -1   -1    0    0    0  501 -0.00000000000E+00 -0.00000000000E+00 -0.16654407545E+03  0.16654407545E+03  0.00000000000E+00 0.  1.
         24    1    1    2    0    0  0.87805996223E+01 -0.68815921843E+00 -0.14323532652E+03  0.16450272706E+03  0.80419002446E+02 0.  1.
        -24    1    1    2    0    0 -0.87805996223E+01  0.68815921843E+00  0.11641298532E+03  0.14176308264E+03  0.80419002446E+02 0.  0.
<mgrwt>
<rscale>  0 0.80899867E+02</rscale>
<asrwt>0</asrwt>
<pdfrwt beam="1">  1        1 0.21495652E-01 0.80899867E+02</pdfrwt>
<pdfrwt beam="2">  1       -1 0.25622165E-01 0.80899867E+02</pdfrwt>
<totfact> 0.29168906E+03</totfact>
</mgrwt>
</event>
<event>
 4    1  0.4999097E-001  0.8101602E+02  0.7546771E-02  0.1326193E+00
          1   -1    0    0  501    0  0.00000000000E+00  0.00000000000E+00  0.34259323572E+02  0.34259323572E+02  0.00000000000E+00 0. -1.
         -1   -1    0    0    0  501 -0.00000000000E+00 -0.00000000000E+00 -0.21436173020E+03  0.21436173020E+03  0.00000000000E+00 0.  1.
         24    1    1    2    0    0  0.21178768431E+01  0.95861550520E+01 -0.13057158313E+03  0.15366370439E+03  0.80419002446E+02 0.  1.
        -24    1    1    2    0    0 -0.21178768431E+01 -0.95861550520E+01 -0.49530823499E+02  0.94957349383E+02  0.80419002446E+02 0. -1.
<mgrwt>
<rscale>  0 0.81016021E+02</rscale>
<asrwt>0</asrwt>
<pdfrwt beam="1">  1        1 0.52706651E-02 0.81016021E+02</pdfrwt>
<pdfrwt beam="2">  1       -1 0.32978728E-01 0.81016021E+02</pdfrwt>
<totfact> 0.11928177E+04</totfact>
</mgrwt>
</event>
<event>
 4    1  0.4999097E-001  0.8703234E+02  0.7546771E-02  0.1310202E+00
          2   -1    0    0  501    0  0.00000000000E+00  0.00000000000E+00  0.27055624389E+04  0.27055624389E+04  0.00000000000E+00 0. -1.
         -2   -1    0    0    0  501 -0.00000000000E+00 -0.00000000000E+00 -0.92656011053E+01  0.92656011053E+01  0.00000000000E+00 0.  1.
         24    1    1    2    0    0 -0.10760375176E+02 -0.31490101904E+02  0.24820927536E+04  0.24836181401E+04  0.80419002446E+02 0. -1.
        -24    1    1    2    0    0  0.10760375176E+02  0.31490101904E+02  0.21420408413E+03  0.23120989988E+03  0.80419002446E+02 0.  1.
<mgrwt>
<rscale>  0 0.87032340E+02</rscale>
<asrwt>0</asrwt>
<pdfrwt beam="1">  1        2 0.41623975E+00 0.87032340E+02</pdfrwt>
<pdfrwt beam="2">  1       -2 0.14254792E-02 0.87032340E+02</pdfrwt>
<totfact> 0.39530278E+03</totfact>
</mgrwt>
</event>
<event>
 4    1  0.4999097E-001  0.8380638E+02  0.7546771E-02  0.1318584E+00
          2   -1    0    0  501    0  0.00000000000E+00  0.00000000000E+00  0.13162410526E+03  0.13162410526E+03  0.00000000000E+00 0. -1.
         -2   -1    0    0    0  501 -0.00000000000E+00 -0.00000000000E+00 -0.26211444655E+03  0.26211444655E+03  0.00000000000E+00 0.  1.
         24    1    1    2    0    0 -0.65044554633E+01  0.22671239866E+02  0.11044601066E+03  0.13864281547E+03  0.80419002446E+02 0. -1.
        -24    1    1    2    0    0  0.65044554633E+01 -0.22671239866E+02 -0.24093635194E+03  0.25509573634E+03  0.80419002446E+02 0.  1.
<mgrwt>
<rscale>  0 0.83806378E+02</rscale>
<asrwt>0</asrwt>
<pdfrwt beam="1">  1        2 0.20249863E-01 0.83806378E+02</pdfrwt>
<pdfrwt beam="2">  1       -2 0.40325299E-01 0.83806378E+02</pdfrwt>
<totfact> 0.15331135E+03</totfact>
</mgrwt>
</event>
<event>
 4    1  0.4999097E-001  0.8091052E+02  0.7546771E-02  0.1326487E+00
         -1   -1    0    0    0  501 -0.00000000000E+00  0.00000000000E+00  0.24930965105E+02  0.24930965105E+02  0.00000000000E+00 0.  1.
          1   -1    0    0  501    0  0.00000000000E+00 -0.00000000000E+00 -0.46623067890E+03  0.46623067890E+03  0.00000000000E+00 0. -1.
         24    1    1    2    0    0 -0.45695428262E+01  0.76430264340E+01 -0.58345200124E+02  0.99753069660E+02  0.80419002446E+02 0.  0.
        -24    1    1    2    0    0  0.45695428262E+01 -0.76430264340E+01 -0.38295451367E+03  0.39140857434E+03  0.80419002446E+02 0. -1.
<mgrwt>
<rscale>  0 0.80910522E+02</rscale>
<asrwt>0</asrwt>
<pdfrwt beam="1">  1        1 0.71727795E-01 0.80910522E+02</pdfrwt>
<pdfrwt beam="2">  1       -1 0.38355332E-02 0.80910522E+02</pdfrwt>
<totfact> 0.11783209E+04</totfact>
</mgrwt>
</event>
<event>
 4    1  0.4999097E-001  0.9679945E+02  0.7546771E-02  0.1287174E+00
          1   -1    0    0  501    0  0.00000000000E+00  0.00000000000E+00  0.75572770211E+03  0.75572770211E+03  0.00000000000E+00 0. -1.
         -1   -1    0    0    0  501 -0.00000000000E+00 -0.00000000000E+00 -0.27086097900E+02  0.27086097900E+02  0.00000000000E+00 0.  1.
         24    1    1    2    0    0 -0.49385758382E+02 -0.21539818203E+02  0.76099623333E+02  0.12313117203E+03  0.80419002446E+02 0.  1.
        -24    1    1    2    0    0  0.49385758382E+02  0.21539818203E+02  0.65254198087E+03  0.65968262798E+03  0.80419002446E+02 0. -1.
<mgrwt>
<rscale>  0 0.96799447E+02</rscale>
<asrwt>0</asrwt>
<pdfrwt beam="1">  1        1 0.11626578E+00 0.96799447E+02</pdfrwt>
<pdfrwt beam="2">  1       -1 0.41670926E-02 0.96799447E+02</pdfrwt>
<totfact> 0.55364200E+03</totfact>
</mgrwt>
</event>
<event>
 4    1  0.4999097E-001  0.8545528E+02  0.7546771E-02  0.1314246E+00
         -4   -1    0    0    0  501 -0.00000000000E+00  0.00000000000E+00  0.91318671494E+03  0.91318671494E+03  0.00000000000E+00 0.  1.
          4   -1    0    0  501    0  0.00000000000E+00 -0.00000000000E+00 -0.23740654520E+02  0.23740654520E+02  0.00000000000E+00 0. -1.
         24    1    1    2    0    0 -0.28074453922E+02 -0.68713036696E+01  0.63231760856E+02  0.10630550932E+03  0.80419002446E+02 0. -1.
        -24    1    1    2    0    0  0.28074453922E+02  0.68713036696E+01  0.82621429957E+03  0.83062186014E+03  0.80419002446E+02 0.  1.
<mgrwt>
<rscale>  0 0.85455285E+02</rscale>
<asrwt>0</asrwt>
<pdfrwt beam="1">  1        4 0.36524091E-02 0.85455285E+02</pdfrwt>
<pdfrwt beam="2">  1       -4 0.14049024E+00 0.85455285E+02</pdfrwt>
<totfact> 0.22722882E+02</totfact>
</mgrwt>
</event>
<event>
 4    1  0.4999097E-001  0.8973258E+02  0.7546771E-02  0.1303501E+00
          2   -1    0    0  501    0  0.00000000000E+00  0.00000000000E+00  0.20641293858E+04  0.20641293858E+04  0.00000000000E+00 0. -1.
         -2   -1    0    0    0  501 -0.00000000000E+00 -0.00000000000E+00 -0.39667697116E+01  0.39667697116E+01  0.00000000000E+00 0.  1.
         24    1    1    2    0    0  0.21755395104E+02  0.33338019645E+02  0.11633432062E+04  0.11667987625E+04  0.80419002446E+02 0. -1.
        -24    1    1    2    0    0 -0.21755395104E+02 -0.33338019645E+02  0.89681940990E+03  0.90129739304E+03  0.80419002446E+02 0.  1.
<mgrwt>
<rscale>  0 0.89732585E+02</rscale>
<asrwt>0</asrwt>
<pdfrwt beam="1">  1        2 0.31755751E+00 0.89732585E+02</pdfrwt>
<pdfrwt beam="2">  1       -2 0.61027391E-03 0.89732585E+02</pdfrwt>
<totfact> 0.28227535E+04</totfact>
</mgrwt>
</event>
<event>
 4    1  0.4999097E-001  0.8474008E+02  0.7546771E-02  0.1316114E+00
          1   -1    0    0  501    0  0.00000000000E+00  0.00000000000E+00  0.20354600358E+04  0.20354600358E+04  0.00000000000E+00 0. -1.
         -1   -1    0    0    0  501 -0.00000000000E+00 -0.00000000000E+00 -0.43186525698E+01  0.43186525698E+01  0.00000000000E+00 0.  1.
         24    1    1    2    0    0 -0.23513872434E+02  0.12679249679E+02  0.57915370460E+03  0.58532033543E+03  0.80419002446E+02 0. -1.
        -24    1    1    2    0    0  0.23513872434E+02 -0.12679249679E+02  0.14519876787E+04  0.14544583530E+04  0.80419002446E+02 0. -1.
<mgrwt>
<rscale>  0 0.84740082E+02</rscale>
<asrwt>0</asrwt>
<pdfrwt beam="1">  1        1 0.31314693E+00 0.84740082E+02</pdfrwt>
<pdfrwt beam="2">  1       -1 0.66440971E-03 0.84740082E+02</pdfrwt>
<totfact> 0.10382736E+04</totfact>
</mgrwt>
</event>
<event>
 4    1  0.4999097E-001  0.1086512E+03  0.7546771E-02  0.1263088E+00
         -2   -1    0    0    0  501 -0.00000000000E+00  0.00000000000E+00  0.20877222438E+03  0.20877222438E+03  0.00000000000E+00 0.  1.
          2   -1    0    0  501    0  0.00000000000E+00 -0.00000000000E+00 -0.11018406337E+03  0.11018406337E+03  0.00000000000E+00 0. -1.
         24    1    1    2    0    0 -0.63320994341E+02 -0.36445978650E+02 -0.61976777850E+02  0.12508474979E+03  0.80419002446E+02 0. -1.
        -24    1    1    2    0    0  0.63320994341E+02  0.36445978650E+02  0.16056493886E+03  0.19387153796E+03  0.80419002446E+02 0.  1.
<mgrwt>
<rscale>  0 0.10865116E+03</rscale>
<asrwt>0</asrwt>
<pdfrwt beam="1">  1        2 0.16951394E-01 0.10865116E+03</pdfrwt>
<pdfrwt beam="2">  1       -2 0.32118804E-01 0.10865116E+03</pdfrwt>
<totfact> 0.28901921E+03</totfact>
</mgrwt>
</event>
<event>
 4    1  0.4999097E-001  0.9289789E+02  0.7546771E-02  0.1295982E+00
          2   -1    0    0  501    0  0.00000000000E+00  0.00000000000E+00  0.10801432569E+03  0.10801432569E+03  0.00000000000E+00 0. -1.
         -2   -1    0    0    0  501 -0.00000000000E+00 -0.00000000000E+00 -0.97882372701E+02  0.97882372701E+02  0.00000000000E+00 0.  1.
         24    1    1    2    0    0 -0.27402911886E+02  0.37575033748E+02  0.49195280136E+02  0.10511990431E+03  0.80419002446E+02 0. -1.
        -24    1    1    2    0    0  0.27402911886E+02 -0.37575033748E+02 -0.39063327151E+02  0.10077679407E+03  0.80419002446E+02 0.  1.
<mgrwt>
<rscale>  0 0.92897894E+02</rscale>
<asrwt>0</asrwt>
<pdfrwt beam="1">  1        2 0.16617588E-01 0.92897894E+02</pdfrwt>
<pdfrwt beam="2">  1       -2 0.15058827E-01 0.92897894E+02</pdfrwt>
<totfact> 0.10639583E+04</totfact>
</mgrwt>
</event>
<event>
 4    1  0.4999097E-001  0.8934416E+02  0.7546771E-02  0.1304448E+00
         -2   -1    0    0    0  501 -0.00000000000E+00  0.00000000000E+00  0.58800007754E+02  0.58800007754E+02  0.00000000000E+00 0.  1.
          2   -1    0    0  501    0  0.00000000000E+00 -0.00000000000E+00 -0.29569141312E+03  0.29569141312E+03  0.00000000000E+00 0. -1.
         24    1    1    2    0    0  0.32886212727E+02 -0.20824506813E+02 -0.24880152185E+03  0.26435691083E+03  0.80419002446E+02 0. -1.
        -24    1    1    2    0    0 -0.32886212727E+02  0.20824506813E+02  0.11910116489E+02  0.90134510043E+02  0.80419002446E+02 0.  1.
<mgrwt>
<rscale>  0 0.89344161E+02</rscale>
<asrwt>0</asrwt>
<pdfrwt beam="1">  1        2 0.45490988E-01 0.89344161E+02</pdfrwt>
<pdfrwt beam="2">  1       -2 0.90461548E-02 0.89344161E+02</pdfrwt>
<totfact> 0.79586976E+03</totfact>
</mgrwt>
</event>
<event>
 4    1  0.4999097E-001  0.8146237E+02  0.7546771E-02  0.1324952E+00
         -2   -1    0    0    0  501 -0.00000000000E+00  0.00000000000E+00  0.13536636863E+02  0.13536636863E+02  0.00000000000E+00 0.  1.
          2   -1    0    0  501    0  0.00000000000E+00 -0.00000000000E+00 -0.49338066206E+03  0.49338066206E+03  0.00000000000E+00 0. -1.
         24    1    1    2    0    0 -0.83313864471E+01 -0.99744383456E+01 -0.26016397594E+03  0.27261953663E+03  0.80419002446E+02 0. -1.
        -24    1    1    2    0    0  0.83313864471E+01  0.99744383456E+01 -0.21968004925E+03  0.23429776229E+03  0.80419002446E+02 0.  1.
<mgrwt>
<rscale>  0 0.81462368E+02</rscale>
<asrwt>0</asrwt>
<pdfrwt beam="1">  1        2 0.75904712E-01 0.81462368E+02</pdfrwt>
<pdfrwt beam="2">  1       -2 0.20825597E-02 0.81462368E+02</pdfrwt>
<totfact> 0.40321500E+04</totfact>
</mgrwt>
</event>
<event>
 4    1  0.4999097E-001  0.8764145E+02  0.7546771E-02  0.1308666E+00
          2   -1    0    0  501    0  0.00000000000E+00  0.00000000000E+00  0.24590741262E+04  0.24590741262E+04  0.00000000000E+00 0. -1.
         -2   -1    0    0    0  501 -0.00000000000E+00 -0.00000000000E+00 -0.31477724415E+01  0.31477724415E+01  0.00000000000E+00 0.  1.
         24    1    1    2    0    0 -0.24952204881E+02  0.24314442085E+02  0.11199494674E+04  0.11233734153E+04  0.80419002446E+02 0. -1.
        -24    1    1    2    0    0  0.24952204881E+02 -0.24314442085E+02  0.13359768863E+04  0.13388484834E+04  0.80419002446E+02 0.  0.
<mgrwt>
<rscale>  0 0.87641443E+02</rscale>
<asrwt>0</asrwt>
<pdfrwt beam="1">  1        2 0.37831756E+00 0.87641454E+02</pdfrwt>
<pdfrwt beam="2">  1       -2 0.48427465E-03 0.87641454E+02</pdfrwt>
<totfact> 0.24482956E+04</totfact>
</mgrwt>
</event>
<event>
 4    1  0.4999097E-001  0.1590945E+03  0.7546771E-02  0.1189723E+00
          2   -1    0    0  501    0  0.00000000000E+00  0.00000000000E+00  0.66720878810E+03  0.66720878810E+03  0.00000000000E+00 0. -1.
         -2   -1    0    0    0  501 -0.00000000000E+00 -0.00000000000E+00 -0.11627426670E+03  0.11627426670E+03  0.00000000000E+00 0.  1.
         24    1    1    2    0    0 -0.14792434853E+02  0.13647350574E+03  0.59701506323E+03  0.61784952502E+03  0.80419002446E+02 0. -1.
        -24    1    1    2    0    0  0.14792434853E+02 -0.13647350574E+03 -0.46080541830E+02  0.16563352978E+03  0.80419002446E+02 0.  1.
<mgrwt>
<rscale>  0 0.15909447E+03</rscale>
<asrwt>0</asrwt>
<pdfrwt beam="1">  1        2 0.10264750E+00 0.15909447E+03</pdfrwt>
<pdfrwt beam="2">  1       -2 0.17888349E-01 0.15909447E+03</pdfrwt>
<totfact> 0.11299589E+03</totfact>
</mgrwt>
</event>
<event>
 4    1  0.4999097E-001  0.8276316E+02  0.7546771E-02  0.1321388E+00
         -1   -1    0    0    0  501 -0.00000000000E+00  0.00000000000E+00  0.96514160241E+02  0.96514160241E+02  0.00000000000E+00 0.  1.
          1   -1    0    0  501    0  0.00000000000E+00 -0.00000000000E+00 -0.37666326308E+03  0.37666326308E+03  0.00000000000E+00 0. -1.
         24    1    1    2    0    0  0.19423907764E+02  0.22883489596E+01  0.73062698964E+02  0.11039881643E+03  0.80419002446E+02 0.  1.
        -24    1    1    2    0    0 -0.19423907764E+02 -0.22883489596E+01 -0.35321180181E+03  0.36277860690E+03  0.80419002446E+02 0. -1.
<mgrwt>
<rscale>  0 0.82763160E+02</rscale>
<asrwt>0</asrwt>
<pdfrwt beam="1">  1        1 0.57948195E-01 0.82763160E+02</pdfrwt>
<pdfrwt beam="2">  1       -1 0.14848332E-01 0.82763160E+02</pdfrwt>
<totfact> 0.20551293E+03</totfact>
</mgrwt>
</event>
<event>
 4    1  0.4999097E-001  0.1261368E+03  0.7546771E-02  0.1233303E+00
         -2   -1    0    0    0  501 -0.00000000000E+00  0.00000000000E+00  0.35165523835E+02  0.35165523835E+02  0.00000000000E+00 0.  1.
          2   -1    0    0  501    0  0.00000000000E+00 -0.00000000000E+00 -0.21220207471E+04  0.21220207471E+04  0.00000000000E+00 0. -1.
         24    1    1    2    0    0 -0.24785583882E+02  0.93962512905E+02 -0.20001496840E+04  0.20041230634E+04  0.80419002446E+02 0. -1.
        -24    1    1    2    0    0  0.24785583882E+02 -0.93962512905E+02 -0.86705539272E+02  0.15306320751E+03  0.80419002446E+02 0.  1.
<mgrwt>
<rscale>  0 0.12613681E+03</rscale>
<asrwt>0</asrwt>
<pdfrwt beam="1">  1        2 0.32646478E+00 0.12613681E+03</pdfrwt>
<pdfrwt beam="2">  1       -2 0.54100798E-02 0.12613681E+03</pdfrwt>
<totfact> 0.11368870E+03</totfact>
</mgrwt>
</event>
<event>
 4    1  0.4999097E-001  0.8855356E+02  0.7546771E-02  0.1306393E+00
         -1   -1    0    0    0  501 -0.00000000000E+00  0.00000000000E+00  0.27916424321E+02  0.27916424321E+02  0.00000000000E+00 0.  1.
          1   -1    0    0  501    0  0.00000000000E+00 -0.00000000000E+00 -0.32750508060E+03  0.32750508060E+03  0.00000000000E+00 0. -1.
         24    1    1    2    0    0  0.28664642978E+02 -0.23512875153E+02 -0.82756529477E+02  0.12120386207E+03  0.80419002446E+02 0. -1.
        -24    1    1    2    0    0 -0.28664642978E+02  0.23512875153E+02 -0.21683212680E+03  0.23421764285E+03  0.80419002446E+02 0.  1.
<mgrwt>
<rscale>  0 0.88553560E+02</rscale>
<asrwt>0</asrwt>
<pdfrwt beam="1">  1        1 0.50385395E-01 0.88553560E+02</pdfrwt>
<pdfrwt beam="2">  1       -1 0.42948346E-02 0.88553560E+02</pdfrwt>
<totfact> 0.15626217E+04</totfact>
</mgrwt>
</event>
<event>
 4    1  0.4999097E-001  0.1015156E+03  0.7546771E-02  0.1277141E+00
          1   -1    0    0  501    0  0.00000000000E+00  0.00000000000E+00  0.38279795984E+02  0.38279795984E+02  0.00000000000E+00 0. -1.
         -1   -1    0    0    0  501 -0.00000000000E+00 -0.00000000000E+00 -0.31146359234E+03  0.31146359234E+03  0.00000000000E+00 0.  1.
         24    1    1    2    0    0 -0.42677460909E+02 -0.44909197782E+02 -0.20099880092E+03  0.22517978515E+03  0.80419002446E+02 0.  1.
        -24    1    1    2    0    0  0.42677460909E+02  0.44909197782E+02 -0.72184995438E+02  0.12456360317E+03  0.80419002446E+02 0. -1.
<mgrwt>
<rscale>  0 0.10151560E+03</rscale>
<asrwt>0</asrwt>
<pdfrwt beam="1">  1        1 0.58891993E-02 0.10151560E+03</pdfrwt>
<pdfrwt beam="2">  1       -1 0.47917476E-01 0.10151560E+03</pdfrwt>
<totfact> 0.54898167E+03</totfact>
</mgrwt>
</event>
<event>
 4    1  0.4999097E-001  0.9284097E+02  0.7546771E-02  0.1296114E+00
          2   -1    0    0  501    0  0.00000000000E+00  0.00000000000E+00  0.39162975479E+04  0.39162975479E+04  0.00000000000E+00 0. -1.
         -2   -1    0    0    0  501 -0.00000000000E+00 -0.00000000000E+00 -0.24211188787E+01  0.24211188787E+01  0.00000000000E+00 0.  1.
         24    1    1    2    0    0 -0.37872728070E+01 -0.46237288612E+02  0.25478415517E+04  0.25495325099E+04  0.80419002446E+02 0. -1.
        -24    1    1    2    0    0  0.37872728070E+01  0.46237288612E+02  0.13660348773E+04  0.13691861569E+04  0.80419002446E+02 0.  1.
<mgrwt>
<rscale>  0 0.92840973E+02</rscale>
<asrwt>0</asrwt>
<pdfrwt beam="1">  1        2 0.60250225E+00 0.92840973E+02</pdfrwt>
<pdfrwt beam="2">  1       -2 0.37248296E-03 0.92840973E+02</pdfrwt>
<totfact> 0.47060326E+03</totfact>
</mgrwt>
</event>
<event>
 4    1  0.4999097E-001  0.8832132E+02  0.7546771E-02  0.1306969E+00
         -2   -1    0    0    0  501 -0.00000000000E+00  0.00000000000E+00  0.37589181143E+02  0.37589181143E+02  0.00000000000E+00 0.  1.
          2   -1    0    0  501    0  0.00000000000E+00 -0.00000000000E+00 -0.22232440632E+03  0.22232440632E+03  0.00000000000E+00 0. -1.
         24    1    1    2    0    0 -0.34713193722E+02 -0.11332828983E+02 -0.12589835657E+03  0.15378898196E+03  0.80419002446E+02 0. -1.
        -24    1    1    2    0    0  0.34713193722E+02  0.11332828983E+02 -0.58836868609E+02  0.10612460550E+03  0.80419002446E+02 0.  0.
<mgrwt>
<rscale>  0 0.88321316E+02</rscale>
<asrwt>0</asrwt>
<pdfrwt beam="1">  1        2 0.34203755E-01 0.88321316E+02</pdfrwt>
<pdfrwt beam="2">  1       -2 0.57829510E-02 0.88321316E+02</pdfrwt>
<totfact> 0.21144610E+04</totfact>
</mgrwt>
</event>
<event>
 4    1  0.4999097E-001  0.1054821E+03  0.7546771E-02  0.1269173E+00
          2   -1    0    0  501    0  0.00000000000E+00  0.00000000000E+00  0.86746492197E+03  0.86746492197E+03  0.00000000000E+00 0. -1.
         -2   -1    0    0    0  501 -0.00000000000E+00 -0.00000000000E+00 -0.53568950862E+02  0.53568950862E+02  0.00000000000E+00 0.  1.
         24    1    1    2    0    0  0.65931704831E+02 -0.17671264486E+02  0.80856580854E+03  0.81541716071E+03  0.80419002446E+02 0. -1.
        -24    1    1    2    0    0 -0.65931704831E+02  0.17671264486E+02  0.53301625634E+01  0.10561671211E+03  0.80419002446E+02 0.  1.
<mgrwt>
<rscale>  0 0.10548213E+03</rscale>
<asrwt>0</asrwt>
<pdfrwt beam="1">  1        2 0.13345613E+00 0.10548213E+03</pdfrwt>
<pdfrwt beam="2">  1       -2 0.82413777E-02 0.10548213E+03</pdfrwt>
<totfact> 0.28110846E+03</totfact>
</mgrwt>
</event>
<event>
 4    1  0.4999097E-001  0.8534006E+02  0.7546771E-02  0.1314546E+00
          2   -1    0    0  501    0  0.00000000000E+00  0.00000000000E+00  0.19324960638E+03  0.19324960638E+03  0.00000000000E+00 0. -1.
         -2   -1    0    0    0  501 -0.00000000000E+00 -0.00000000000E+00 -0.41262976846E+02  0.41262976846E+02  0.00000000000E+00 0.  1.
         24    1    1    2    0    0 -0.26222795963E+02  0.11316879524E+02  0.41472833227E+02  0.94883711144E+02  0.80419002446E+02 0.  0.
        -24    1    1    2    0    0  0.26222795963E+02 -0.11316879524E+02  0.11051379631E+03  0.13962887209E+03  0.80419002446E+02 0.  0.
<mgrwt>
<rscale>  0 0.85340053E+02</rscale>
<asrwt>0</asrwt>
<pdfrwt beam="1">  1        2 0.29730708E-01 0.85340063E+02</pdfrwt>
<pdfrwt beam="2">  1       -2 0.63481504E-02 0.85340063E+02</pdfrwt>
<totfact> 0.21255633E+04</totfact>
</mgrwt>
</event>
<event>
 4    1  0.4999097E-001  0.8500130E+02  0.7546771E-02  0.1315429E+00
          1   -1    0    0  501    0  0.00000000000E+00  0.00000000000E+00  0.12068459078E+02  0.12068459078E+02  0.00000000000E+00 0. -1.
         -1   -1    0    0    0  501 -0.00000000000E+00 -0.00000000000E+00 -0.84170283738E+03  0.84170283738E+03  0.00000000000E+00 0.  1.
         24    1    1    2    0    0 -0.27456892449E+01 -0.27394625353E+02 -0.64419433041E+03  0.64977808181E+03  0.80419002446E+02 0.  1.
        -24    1    1    2    0    0  0.27456892449E+01  0.27394625353E+02 -0.18544004789E+03  0.20399321465E+03  0.80419002446E+02 0.  1.
<mgrwt>
<rscale>  0 0.85001296E+02</rscale>
<asrwt>0</asrwt>
<pdfrwt beam="1">  1        1 0.18566856E-02 0.85001296E+02</pdfrwt>
<pdfrwt beam="2">  1       -1 0.12949278E+00 0.85001296E+02</pdfrwt>
<totfact> 0.34299670E+03</totfact>
</mgrwt>
</event>
<event>
 4    1  0.4999097E-001  0.9265192E+02  0.7546771E-02  0.1296554E+00
          1   -1    0    0  501    0  0.00000000000E+00  0.00000000000E+00  0.23798940028E+04  0.23798940028E+04  0.00000000000E+00 0. -1.
         -1   -1    0    0    0  501 -0.00000000000E+00 -0.00000000000E+00 -0.44777163451E+01  0.44777163451E+01  0.00000000000E+00 0.  1.
         24    1    1    2    0    0  0.44208605536E+02  0.12757812262E+02  0.66200151103E+03  0.66845372251E+03  0.80419002446E+02 0.  1.
        -24    1    1    2    0    0 -0.44208605536E+02 -0.12757812262E+02  0.17134147754E+04  0.17159179966E+04  0.80419002446E+02 0. -1.
<mgrwt>
<rscale>  0 0.92651921E+02</rscale>
<asrwt>0</asrwt>
<pdfrwt beam="1">  1        1 0.36613653E+00 0.92651921E+02</pdfrwt>
<pdfrwt beam="2">  1       -1 0.68888134E-03 0.92651921E+02</pdfrwt>
<totfact> 0.60046747E+03</totfact>
</mgrwt>
</event>
<event>
 4    1  0.4999097E-001  0.9033815E+02  0.7546771E-02  0.1302035E+00
          2   -1    0    0  501    0  0.00000000000E+00  0.00000000000E+00  0.34681124085E+03  0.34681124085E+03  0.00000000000E+00 0. -1.
         -2   -1    0    0    0  501 -0.00000000000E+00 -0.00000000000E+00 -0.25560464610E+02  0.25560464610E+02  0.00000000000E+00 0.  1.
         24    1    1    2    0    0  0.40639915801E+02 -0.64932418945E+01  0.21308220738E+03  0.23144115451E+03  0.80419002446E+02 0. -1.
        -24    1    1    2    0    0 -0.40639915801E+02  0.64932418945E+01  0.10816856886E+03  0.14093055095E+03  0.80419002446E+02 0.  1.
<mgrwt>
<rscale>  0 0.90338148E+02</rscale>
<asrwt>0</asrwt>
<pdfrwt beam="1">  1        2 0.53355572E-01 0.90338148E+02</pdfrwt>
<pdfrwt beam="2">  1       -2 0.39323794E-02 0.90338148E+02</pdfrwt>
<totfact> 0.23557737E+04</totfact>
</mgrwt>
</event>
<event>
 4    1  0.4999097E-001  0.8522767E+02  0.7546771E-02  0.1314838E+00
         -1   -1    0    0    0  501 -0.00000000000E+00  0.00000000000E+00  0.31915816800E+03  0.31915816800E+03  0.00000000000E+00 0.  1.
          1   -1    0    0  501    0  0.00000000000E+00 -0.00000000000E+00 -0.27005408487E+02  0.27005408487E+02  0.00000000000E+00 0. -1.
         24    1    1    2    0    0 -0.28212786867E+02 -0.76078890025E+00  0.21470910097E+03  0.23100596126E+03  0.80419002446E+02 0.  1.
        -24    1    1    2    0    0  0.28212786867E+02  0.76078890025E+00  0.77443658542E+02  0.11515761523E+03  0.80419002446E+02 0. -1.
<mgrwt>
<rscale>  0 0.85227672E+02</rscale>
<asrwt>0</asrwt>
<pdfrwt beam="1">  1        1 0.41546785E-02 0.85227672E+02</pdfrwt>
<pdfrwt beam="2">  1       -1 0.49101254E-01 0.85227672E+02</pdfrwt>
<totfact> 0.82915257E+03</totfact>
</mgrwt>
</event>
<event>
 4    1  0.4999097E-001  0.8324400E+02  0.7546771E-02  0.1320090E+00
         -4   -1    0    0    0  501 -0.00000000000E+00  0.00000000000E+00  0.59096339459E+03  0.59096339459E+03  0.00000000000E+00 0.  1.
          4   -1    0    0  501    0  0.00000000000E+00 -0.00000000000E+00 -0.13613499888E+02  0.13613499888E+02  0.00000000000E+00 0. -1.
         24    1    1    2    0    0  0.82413672384E+00  0.21486465273E+02  0.17611227028E+03  0.19479500787E+03  0.80419002446E+02 0. -1.
        -24    1    1    2    0    0 -0.82413672384E+00 -0.21486465273E+02  0.40123762442E+03  0.40978188661E+03  0.80419002446E+02 0. -1.
<mgrwt>
<rscale>  0 0.83243999E+02</rscale>
<asrwt>0</asrwt>
<pdfrwt beam="1">  1        4 0.20943851E-02 0.83243999E+02</pdfrwt>
<pdfrwt beam="2">  1       -4 0.90917426E-01 0.83243999E+02</pdfrwt>
<totfact> 0.14788742E+03</totfact>
</mgrwt>
</event>
<event>
 4    1  0.4999097E-001  0.9594757E+02  0.7546771E-02  0.1289056E+00
         -1   -1    0    0    0  501 -0.00000000000E+00  0.00000000000E+00  0.35604139044E+02  0.35604139044E+02  0.00000000000E+00 0.  1.
          1   -1    0    0  501    0  0.00000000000E+00 -0.00000000000E+00 -0.38981172518E+03  0.38981172518E+03  0.00000000000E+00 0. -1.
         24    1    1    2    0    0  0.50160146540E+02 -0.14922434601E+02 -0.53678903642E+02  0.10994253047E+03  0.80419002446E+02 0.  1.
        -24    1    1    2    0    0 -0.50160146540E+02  0.14922434601E+02 -0.30052868249E+03  0.31547333375E+03  0.80419002446E+02 0. -1.
<mgrwt>
<rscale>  0 0.95947565E+02</rscale>
<asrwt>0</asrwt>
<pdfrwt beam="1">  1        1 0.59971036E-01 0.95947565E+02</pdfrwt>
<pdfrwt beam="2">  1       -1 0.54775597E-02 0.95947565E+02</pdfrwt>
<totfact> 0.88971629E+03</totfact>
</mgrwt>
</event>
<event>
 4    1  0.4999097E-001  0.9779964E+02  0.7546771E-02  0.1284992E+00
         -2   -1    0    0    0  501 -0.00000000000E+00  0.00000000000E+00  0.14428892450E+03  0.14428892450E+03  0.00000000000E+00 0.  1.
          2   -1    0    0  501    0  0.00000000000E+00 -0.00000000000E+00 -0.57984876538E+03  0.57984876538E+03  0.00000000000E+00 0. -1.
         24    1    1    2    0    0 -0.51495314244E+02  0.21113651802E+02 -0.55852475482E+03  0.56702263746E+03  0.80419002446E+02 0. -1.
        -24    1    1    2    0    0  0.51495314244E+02 -0.21113651802E+02  0.12296491395E+03  0.15711505242E+03  0.80419002446E+02 0.  1.
<mgrwt>
<rscale>  0 0.97799640E+02</rscale>
<asrwt>0</asrwt>
<pdfrwt beam="1">  1        2 0.89207501E-01 0.97799640E+02</pdfrwt>
<pdfrwt beam="2">  1       -2 0.22198296E-01 0.97799640E+02</pdfrwt>
<totfact> 0.91674896E+02</totfact>
</mgrwt>
</event>
<event>
 4    1  0.4999097E-001  0.8681887E+02  0.7546771E-02  0.1310743E+00
          2   -1    0    0  501    0  0.00000000000E+00  0.00000000000E+00  0.16205326486E+03  0.16205326486E+03  0.00000000000E+00 0. -1.
         -2   -1    0    0    0  501 -0.00000000000E+00 -0.00000000000E+00 -0.97752214838E+03  0.97752214838E+03  0.00000000000E+00 0.  1.
         24    1    1    2    0    0  0.15904281503E+02 -0.28589389883E+02  0.14833220190E+03  0.17187192167E+03  0.80419002446E+02 0. -1.
        -24    1    1    2    0    0 -0.15904281503E+02  0.28589389883E+02 -0.96380108542E+03  0.96770349157E+03  0.80419002446E+02 0.  1.
<mgrwt>
<rscale>  0 0.86818865E+02</rscale>
<asrwt>0</asrwt>
<pdfrwt beam="1">  1        2 0.24931271E-01 0.86818865E+02</pdfrwt>
<pdfrwt beam="2">  1       -2 0.15038802E+00 0.86818865E+02</pdfrwt>
<totfact> 0.70218786E+01</totfact>
</mgrwt>
</event>
<event>
 4    1  0.4999097E-001  0.8422743E+02  0.7546771E-02  0.1317465E+00
          3   -1    0    0  501    0  0.00000000000E+00  0.00000000000E+00  0.18678858276E+03  0.18678858276E+03  0.00000000000E+00 0. -1.
         -3   -1    0    0    0  501 -0.00000000000E+00 -0.00000000000E+00 -0.54434118208E+02  0.54434118208E+02  0.00000000000E+00 0.  1.
         24    1    1    2    0    0 -0.24031544806E+02  0.70377067199E+01 -0.13410223258E+00  0.84227539436E+02  0.80419002446E+02 0.  1.
        -24    1    1    2    0    0  0.24031544806E+02 -0.70377067199E+01  0.13248856678E+03  0.15699516153E+03  0.80419002446E+02 0. -1.
<mgrwt>
<rscale>  0 0.84227433E+02</rscale>
<asrwt>0</asrwt>
<pdfrwt beam="1">  1        3 0.28736705E-01 0.84227433E+02</pdfrwt>
<pdfrwt beam="2">  1       -3 0.83744798E-02 0.84227433E+02</pdfrwt>
<totfact> 0.23981277E+03</totfact>
</mgrwt>
</event>
<event>
 4    1  0.4999097E-001  0.1137693E+03  0.7546771E-02  0.1253745E+00
         -1   -1    0    0    0  501 -0.00000000000E+00  0.00000000000E+00  0.65468055642E+02  0.65468055642E+02  0.00000000000E+00 0.  1.
          1   -1    0    0  501    0  0.00000000000E+00 -0.00000000000E+00 -0.55586526493E+03  0.55586526493E+03  0.00000000000E+00 0. -1.
         24    1    1    2    0    0  0.70141263141E+01  0.80168873015E+02  0.41733755871E+01  0.11384585713E+03  0.80419002446E+02 0.  1.
        -24    1    1    2    0    0 -0.70141263141E+01 -0.80168873015E+02 -0.49457058487E+03  0.50748746344E+03  0.80419002446E+02 0. -1.
<mgrwt>
<rscale>  0 0.11376934E+03</rscale>
<asrwt>0</asrwt>
<pdfrwt beam="1">  1        1 0.85517736E-01 0.11376934E+03</pdfrwt>
<pdfrwt beam="2">  1       -1 0.10072008E-01 0.11376934E+03</pdfrwt>
<totfact> 0.22982326E+03</totfact>
</mgrwt>
</event>
<event>
 4    1  0.4999097E-001  0.1298656E+03  0.7546771E-02  0.1227655E+00
          2   -1    0    0  501    0  0.00000000000E+00  0.00000000000E+00  0.56204506696E+03  0.56204506696E+03  0.00000000000E+00 0. -1.
         -2   -1    0    0    0  501 -0.00000000000E+00 -0.00000000000E+00 -0.35137180285E+02  0.35137180285E+02  0.00000000000E+00 0.  1.
         24    1    1    2    0    0 -0.73007801185E+02 -0.71187927390E+02  0.37755130250E+03  0.39926189652E+03  0.80419002446E+02 0.  0.
        -24    1    1    2    0    0  0.73007801185E+02  0.71187927390E+02  0.14935658418E+03  0.19792035073E+03  0.80419002446E+02 0. -1.
<mgrwt>
<rscale>  0 0.12986561E+03</rscale>
<asrwt>0</asrwt>
<pdfrwt beam="1">  1        2 0.86468465E-01 0.12986561E+03</pdfrwt>
<pdfrwt beam="2">  1       -2 0.54057205E-02 0.12986561E+03</pdfrwt>
<totfact> 0.90163279E+03</totfact>
</mgrwt>
</event>
<event>
 4    1  0.4999097E-001  0.8937415E+02  0.7546771E-02  0.1304374E+00
          2   -1    0    0  501    0  0.00000000000E+00  0.00000000000E+00  0.74442987824E+02  0.74442987824E+02  0.00000000000E+00 0. -1.
         -2   -1    0    0    0  501 -0.00000000000E+00 -0.00000000000E+00 -0.62254393578E+03  0.62254393578E+03  0.00000000000E+00 0.  1.
         24    1    1    2    0    0  0.24029313850E+01 -0.38919772860E+02  0.42990972453E+02  0.99176420915E+02  0.80419002446E+02 0. -1.
        -24    1    1    2    0    0 -0.24029313850E+01  0.38919772860E+02 -0.59109192041E+03  0.59781050269E+03  0.80419002446E+02 0.  1.
<mgrwt>
<rscale>  0 0.89374150E+02</rscale>
<asrwt>0</asrwt>
<pdfrwt beam="1">  1        2 0.11452767E-01 0.89374150E+02</pdfrwt>
<pdfrwt beam="2">  1       -2 0.95775993E-01 0.89374150E+02</pdfrwt>
<totfact> 0.50023123E+02</totfact>
</mgrwt>
</event>
<event>
 4    1  0.4999097E-001  0.1109065E+03  0.7546771E-02  0.1258900E+00
          1   -1    0    0  501    0  0.00000000000E+00  0.00000000000E+00  0.41748218211E+03  0.41748218211E+03  0.00000000000E+00 0. -1.
         -1   -1    0    0    0  501 -0.00000000000E+00 -0.00000000000E+00 -0.29686419288E+02  0.29686419288E+02  0.00000000000E+00 0.  1.
         24    1    1    2    0    0 -0.20777942013E+02 -0.73493591693E+02  0.17449822005E+03  0.20676043057E+03  0.80419002446E+02 0. -1.
        -24    1    1    2    0    0  0.20777942013E+02  0.73493591693E+02  0.21329754277E+03  0.24040817083E+03  0.80419002446E+02 0.  1.
<mgrwt>
<rscale>  0 0.11090648E+03</rscale>
<asrwt>0</asrwt>
<pdfrwt beam="1">  1        1 0.64228024E-01 0.11090648E+03</pdfrwt>
<pdfrwt beam="2">  1       -1 0.45671417E-02 0.11090648E+03</pdfrwt>
<totfact> 0.10789436E+04</totfact>
</mgrwt>
</event>
<event>
 4    1  0.4999097E-001  0.8300009E+02  0.7546771E-02  0.1320747E+00
         -2   -1    0    0    0  501 -0.00000000000E+00  0.00000000000E+00  0.17763120522E+03  0.17763120522E+03  0.00000000000E+00 0.  1.
          2   -1    0    0  501    0  0.00000000000E+00 -0.00000000000E+00 -0.46657135243E+02  0.46657135243E+02  0.00000000000E+00 0. -1.
         24    1    1    2    0    0  0.20505412131E+02 -0.11522978703E+01  0.19416028876E+02  0.85240822666E+02  0.80419002446E+02 0.  0.
        -24    1    1    2    0    0 -0.20505412131E+02  0.11522978703E+01  0.11155804110E+03  0.13904751779E+03  0.80419002446E+02 0.  0.
<mgrwt>
<rscale>  0 0.83000094E+02</rscale>
<asrwt>0</asrwt>
<pdfrwt beam="1">  1        2 0.71780209E-02 0.83000094E+02</pdfrwt>
<pdfrwt beam="2">  1       -2 0.27327877E-01 0.83000094E+02</pdfrwt>
<totfact> 0.10565187E+04</totfact>
</mgrwt>
</event>
<event>
 4    1  0.4999097E-001  0.8562847E+02  0.7546771E-02  0.1313797E+00
         -2   -1    0    0    0  501 -0.00000000000E+00  0.00000000000E+00  0.25159596024E+02  0.25159596024E+02  0.00000000000E+00 0.  1.
          2   -1    0    0  501    0  0.00000000000E+00 -0.00000000000E+00 -0.29151030550E+03  0.29151030550E+03  0.00000000000E+00 0. -1.
         24    1    1    2    0    0 -0.17739411422E+02  0.23459166374E+02 -0.13582013436E+03  0.16055947202E+03  0.80419002446E+02 0. -1.
        -24    1    1    2    0    0  0.17739411422E+02 -0.23459166374E+02 -0.13053057512E+03  0.15611042951E+03  0.80419002446E+02 0.  1.
<mgrwt>
<rscale>  0 0.85628472E+02</rscale>
<asrwt>0</asrwt>
<pdfrwt beam="1">  1        2 0.44847741E-01 0.85628472E+02</pdfrwt>
<pdfrwt beam="2">  1       -2 0.38707069E-02 0.85628472E+02</pdfrwt>
<totfact> 0.28727809E+04</totfact>
</mgrwt>
</event>
<event>
 4    1  0.4999097E-001  0.8363574E+02  0.7546771E-02  0.1319039E+00
         -1   -1    0    0    0  501 -0.00000000000E+00  0.00000000000E+00  0.48098341308E+01  0.48098341308E+01  0.00000000000E+00 0.  1.
          1   -1    0    0  501    0  0.00000000000E+00 -0.00000000000E+00 -0.15811487814E+04  0.15811487814E+04  0.00000000000E+00 0. -1.
         24    1    1    2    0    0 -0.13448500570E+02  0.18624148781E+02 -0.56356400738E+03  0.56973619110E+03  0.80419002446E+02 0.  1.
        -24    1    1    2    0    0  0.13448500570E+02 -0.18624148781E+02 -0.10127749399E+04  0.10162224244E+04  0.80419002446E+02 0. -1.
<mgrwt>
<rscale>  0 0.83635740E+02</rscale>
<asrwt>0</asrwt>
<pdfrwt beam="1">  1        1 0.24325375E+00 0.83635740E+02</pdfrwt>
<pdfrwt beam="2">  1       -1 0.73997419E-03 0.83635740E+02</pdfrwt>
<totfact> 0.17170710E+04</totfact>
</mgrwt>
</event>
<event>
 4    1  0.4999097E-001  0.1010552E+03  0.7546771E-02  0.1278093E+00
         -2   -1    0    0    0  501 -0.00000000000E+00  0.00000000000E+00  0.41637274186E+02  0.41637274186E+02  0.00000000000E+00 0.  1.
          2   -1    0    0  501    0  0.00000000000E+00 -0.00000000000E+00 -0.26943472040E+03  0.26943472040E+03  0.00000000000E+00 0. -1.
         24    1    1    2    0    0  0.51507049455E+02  0.33044811862E+02 -0.16048339606E+03  0.18964986713E+03  0.80419002446E+02 0.  1.
        -24    1    1    2    0    0 -0.51507049455E+02 -0.33044811862E+02 -0.67314050149E+02  0.12142212746E+03  0.80419002446E+02 0.  0.
<mgrwt>
<rscale>  0 0.10105519E+03</rscale>
<asrwt>0</asrwt>
<pdfrwt beam="1">  1        2 0.41451496E-01 0.10105519E+03</pdfrwt>
<pdfrwt beam="2">  1       -2 0.64057345E-02 0.10105519E+03</pdfrwt>
<totfact> 0.15011436E+04</totfact>
</mgrwt>
</event>
<event>
 4    1  0.4999097E-001  0.8898970E+02  0.7546771E-02  0.1305317E+00
          2   -1    0    0  501    0  0.00000000000E+00  0.00000000000E+00  0.14846702965E+04  0.14846702965E+04  0.00000000000E+00 0. -1.
         -2   -1    0    0    0  501 -0.00000000000E+00 -0.00000000000E+00 -0.65012934280E+01  0.65012934280E+01  0.00000000000E+00 0.  1.
         24    1    1    2    0    0 -0.36029167754E+02 -0.12403612464E+02  0.10550181553E+04  0.10587645982E+04  0.80419002446E+02 0. -1.
        -24    1    1    2    0    0  0.36029167754E+02  0.12403612464E+02  0.42315084777E+03  0.43240699168E+03  0.80419002446E+02 0.  1.
<mgrwt>
<rscale>  0 0.88989699E+02</rscale>
<asrwt>0</asrwt>
<pdfrwt beam="1">  1        2 0.22841055E+00 0.88989699E+02</pdfrwt>
<pdfrwt beam="2">  1       -2 0.10002002E-02 0.88989699E+02</pdfrwt>
<totfact> 0.27520505E+04</totfact>
</mgrwt>
</event>
<event>
 4    1  0.4999097E-001  0.1941706E+03  0.7546771E-02  0.1154753E+00
         -1   -1    0    0    0  501 -0.00000000000E+00  0.00000000000E+00  0.23222694844E+03  0.23222694844E+03  0.00000000000E+00 0.  1.
          1   -1    0    0  501    0  0.00000000000E+00 -0.00000000000E+00 -0.16644333349E+03  0.16644333349E+03  0.00000000000E+00 0. -1.
         24    1    1    2    0    0  0.44784059479E+02  0.17096603419E+03  0.16345467247E+01  0.19417745628E+03  0.80419002446E+02 0. -1.
        -24    1    1    2    0    0 -0.44784059479E+02 -0.17096603419E+03  0.64149068225E+02  0.20449282564E+03  0.80419002446E+02 0.  1.
<mgrwt>
<rscale>  0 0.19417060E+03</rscale>
<asrwt>0</asrwt>
<pdfrwt beam="1">  1        1 0.25606667E-01 0.19417063E+03</pdfrwt>
<pdfrwt beam="2">  1       -1 0.35727223E-01 0.19417063E+03</pdfrwt>
<totfact> 0.13886066E+03</totfact>
</mgrwt>
</event>
<event>
 4    1  0.4999097E-001  0.8150417E+02  0.7546771E-02  0.1324836E+00
          1   -1    0    0  501    0  0.00000000000E+00  0.00000000000E+00  0.22853966838E+03  0.22853966838E+03  0.00000000000E+00 0. -1.
         -1   -1    0    0    0  501 -0.00000000000E+00 -0.00000000000E+00 -0.19372663745E+03  0.19372663745E+03  0.00000000000E+00 0.  1.
         24    1    1    2    0    0 -0.94296053567E+01 -0.93164866531E+01 -0.17724398571E+03  0.19508552177E+03  0.80419002446E+02 0.  1.
        -24    1    1    2    0    0  0.94296053567E+01  0.93164866531E+01  0.21205701665E+03  0.22718078406E+03  0.80419002446E+02 0. -1.
<mgrwt>
<rscale>  0 0.81504174E+02</rscale>
<asrwt>0</asrwt>
<pdfrwt beam="1">  1        1 0.35159949E-01 0.81504174E+02</pdfrwt>
<pdfrwt beam="2">  1       -1 0.29804098E-01 0.81504174E+02</pdfrwt>
<totfact> 0.12435726E+03</totfact>
</mgrwt>
</event>
<event>
 4    1  0.4999097E-001  0.1477023E+03  0.7546771E-02  0.1203325E+00
          2   -1    0    0  501    0  0.00000000000E+00  0.00000000000E+00  0.16410448158E+04  0.16410448158E+04  0.00000000000E+00 0. -1.
         -2   -1    0    0    0  501 -0.00000000000E+00 -0.00000000000E+00 -0.54824918286E+02  0.54824918286E+02  0.00000000000E+00 0.  1.
         24    1    1    2    0    0  0.12377735968E+03  0.52825679045E+01  0.15311153873E+04  0.15382230935E+04  0.80419002446E+02 0. -1.
        -24    1    1    2    0    0 -0.12377735968E+03 -0.52825679045E+01  0.55104510288E+02  0.15764664063E+03  0.80419002446E+02 0.  1.
<mgrwt>
<rscale>  0 0.14770226E+03</rscale>
<asrwt>0</asrwt>
<pdfrwt beam="1">  1        2 0.25246840E+00 0.14770226E+03</pdfrwt>
<pdfrwt beam="2">  1       -2 0.84346041E-02 0.14770226E+03</pdfrwt>
<totfact> 0.10133051E+03</totfact>
</mgrwt>
</event>
<event>
 4    1  0.4999097E-001  0.9976790E+02  0.7546771E-02  0.1280785E+00
         -1   -1    0    0    0  501 -0.00000000000E+00  0.00000000000E+00  0.44977639481E+03  0.44977639481E+03  0.00000000000E+00 0.  1.
          1   -1    0    0  501    0  0.00000000000E+00 -0.00000000000E+00 -0.24069688505E+02  0.24069688505E+02  0.00000000000E+00 0. -1.
         24    1    1    2    0    0 -0.55568540190E+02  0.19963855866E+02  0.28010725970E+03  0.29734443175E+03  0.80419002446E+02 0.  1.
        -24    1    1    2    0    0  0.55568540190E+02 -0.19963855866E+02  0.14559944660E+03  0.17650165156E+03  0.80419002446E+02 0. -1.
<mgrwt>
<rscale>  0 0.99767901E+02</rscale>
<asrwt>0</asrwt>
<pdfrwt beam="1">  1        1 0.37030293E-02 0.99767901E+02</pdfrwt>
<pdfrwt beam="2">  1       -1 0.69196362E-01 0.99767901E+02</pdfrwt>
<totfact> 0.51780148E+03</totfact>
</mgrwt>
</event>
<event>
 4    1  0.4999097E-001  0.1005893E+03  0.7546771E-02  0.1279062E+00
          1   -1    0    0  501    0  0.00000000000E+00  0.00000000000E+00  0.87605807387E+02  0.87605807387E+02  0.00000000000E+00 0. -1.
         -1   -1    0    0    0  501 -0.00000000000E+00 -0.00000000000E+00 -0.11602471839E+03  0.11602471839E+03  0.00000000000E+00 0.  1.
         24    1    1    2    0    0  0.65801094133E+01 -0.60063977855E+02 -0.73419596013E+01  0.10085682724E+03  0.80419002446E+02 0. -1.
        -24    1    1    2    0    0 -0.65801094133E+01  0.60063977855E+02 -0.21076951398E+02  0.10277369853E+03  0.80419002446E+02 0.  0.
<mgrwt>
<rscale>  0 0.10058925E+03</rscale>
<asrwt>0</asrwt>
<pdfrwt beam="1">  1        1 0.13477817E-01 0.10058927E+03</pdfrwt>
<pdfrwt beam="2">  1       -1 0.17849957E-01 0.10058927E+03</pdfrwt>
<totfact> 0.95542080E+03</totfact>
</mgrwt>
</event>
<event>
 4    1  0.4999097E-001  0.8857166E+02  0.7546771E-02  0.1306348E+00
         -1   -1    0    0    0  501 -0.00000000000E+00  0.00000000000E+00  0.15823587537E+03  0.15823587537E+03  0.00000000000E+00 0.  1.
          1   -1    0    0  501    0  0.00000000000E+00 -0.00000000000E+00 -0.12197975917E+03  0.12197975917E+03  0.00000000000E+00 0. -1.
         24    1    1    2    0    0 -0.36343449054E+02  0.75416368128E+01  0.12607107485E+03  0.15407418487E+03  0.80419002446E+02 0.  1.
        -24    1    1    2    0    0  0.36343449054E+02 -0.75416368128E+01 -0.89814958652E+02  0.12614144968E+03  0.80419002446E+02 0. -1.
<mgrwt>
<rscale>  0 0.88571658E+02</rscale>
<asrwt>0</asrwt>
<pdfrwt beam="1">  1        1 0.18766117E-01 0.88571658E+02</pdfrwt>
<pdfrwt beam="2">  1       -1 0.24343981E-01 0.88571658E+02</pdfrwt>
<totfact> 0.37786625E+03</totfact>
</mgrwt>
</event>
<event>
 4    1  0.4999097E-001  0.8177252E+02  0.7546771E-02  0.1324095E+00
          1   -1    0    0  501    0  0.00000000000E+00  0.00000000000E+00  0.34900104191E+02  0.34900104191E+02  0.00000000000E+00 0. -1.
         -1   -1    0    0    0  501 -0.00000000000E+00 -0.00000000000E+00 -0.26495576402E+03  0.26495576402E+03  0.00000000000E+00 0.  1.
         24    1    1    2    0    0 -0.92250038102E+01  0.11594294566E+02 -0.19391798359E+03  0.21045410111E+03  0.80419002446E+02 0.  1.
        -24    1    1    2    0    0  0.92250038102E+01 -0.11594294566E+02 -0.36137676240E+02  0.89401767098E+02  0.80419002446E+02 0.  0.
<mgrwt>
<rscale>  0 0.81772516E+02</rscale>
<asrwt>0</asrwt>
<pdfrwt beam="1">  1        1 0.53692469E-02 0.81772516E+02</pdfrwt>
<pdfrwt beam="2">  1       -1 0.40762425E-01 0.81772516E+02</pdfrwt>
<totfact> 0.81145225E+03</totfact>
</mgrwt>
</event>
<event>
 4    1  0.4999097E-001  0.8415564E+02  0.7546771E-02  0.1317656E+00
          2   -1    0    0  501    0  0.00000000000E+00  0.00000000000E+00  0.46030584878E+03  0.46030584878E+03  0.00000000000E+00 0. -1.
         -2   -1    0    0    0  501 -0.00000000000E+00 -0.00000000000E+00 -0.26495067541E+02  0.26495067541E+02  0.00000000000E+00 0.  1.
         24    1    1    2    0    0 -0.94462663264E+01 -0.22928653519E+02  0.37451464061E+03  0.38385334059E+03  0.80419002446E+02 0. -1.
        -24    1    1    2    0    0  0.94462663264E+01  0.22928653519E+02  0.59296140626E+02  0.10294757572E+03  0.80419002446E+02 0.  1.
<mgrwt>
<rscale>  0 0.84155636E+02</rscale>
<asrwt>0</asrwt>
<pdfrwt beam="1">  1        2 0.70816279E-01 0.84155636E+02</pdfrwt>
<pdfrwt beam="2">  1       -2 0.40761646E-02 0.84155636E+02</pdfrwt>
<totfact> 0.16465543E+04</totfact>
</mgrwt>
</event>
<event>
 4    1  0.4999097E-001  0.9422969E+02  0.7546771E-02  0.1292921E+00
          2   -1    0    0  501    0  0.00000000000E+00  0.00000000000E+00  0.14604052461E+04  0.14604052461E+04  0.00000000000E+00 0. -1.
         -2   -1    0    0    0  501 -0.00000000000E+00 -0.00000000000E+00 -0.69875686635E+01  0.69875686635E+01  0.00000000000E+00 0.  1.
         24    1    1    2    0    0  0.38872632139E+02  0.30015525114E+02  0.46228611558E+03  0.47179199007E+03  0.80419002446E+02 0. -1.
        -24    1    1    2    0    0 -0.38872632139E+02 -0.30015525114E+02  0.99113156183E+03  0.99560082467E+03  0.80419002446E+02 0.  0.
<mgrwt>
<rscale>  0 0.94229674E+02</rscale>
<asrwt>0</asrwt>
<pdfrwt beam="1">  1        2 0.22467749E+00 0.94229686E+02</pdfrwt>
<pdfrwt beam="2">  1       -2 0.10750117E-02 0.94229686E+02</pdfrwt>
<totfact> 0.25686978E+04</totfact>
</mgrwt>
</event>
<event>
 4    1  0.4999097E-001  0.9045522E+02  0.7546771E-02  0.1301753E+00
         -1   -1    0    0    0  501 -0.00000000000E+00  0.00000000000E+00  0.45371841055E+02  0.45371841055E+02  0.00000000000E+00 0.  1.
          1   -1    0    0  501    0  0.00000000000E+00 -0.00000000000E+00 -0.30684321894E+03  0.30684321894E+03  0.00000000000E+00 0. -1.
         24    1    1    2    0    0  0.44889248244E+00 -0.41409284420E+02 -0.17657602290E+02  0.92162558632E+02  0.80419002446E+02 0.  1.
        -24    1    1    2    0    0 -0.44889248244E+00  0.41409284420E+02 -0.24381377560E+03  0.26005250137E+03  0.80419002446E+02 0. -1.
<mgrwt>
<rscale>  0 0.90455217E+02</rscale>
<asrwt>0</asrwt>
<pdfrwt beam="1">  1        1 0.47206646E-01 0.90455217E+02</pdfrwt>
<pdfrwt beam="2">  1       -1 0.69802837E-02 0.90455217E+02</pdfrwt>
<totfact> 0.83116317E+03</totfact>
</mgrwt>
</event>
<event>
 4    1  0.4999097E-001  0.9290421E+02  0.7546771E-02  0.1295967E+00
          1   -1    0    0  501    0  0.00000000000E+00  0.00000000000E+00  0.10045885909E+04  0.10045885909E+04  0.00000000000E+00 0. -1.
         -1   -1    0    0    0  501 -0.00000000000E+00 -0.00000000000E+00 -0.28395118338E+02  0.28395118338E+02  0.00000000000E+00 0.  1.
         24    1    1    2    0    0 -0.20539323734E+02 -0.41738617827E+02  0.56765438674E+02  0.10887381237E+03  0.80419002446E+02 0.  1.
        -24    1    1    2    0    0  0.20539323734E+02  0.41738617827E+02  0.91942803390E+03  0.92410989688E+03  0.80419002446E+02 0. -1.
<mgrwt>
<rscale>  0 0.92904209E+02</rscale>
<asrwt>0</asrwt>
<pdfrwt beam="1">  1        1 0.15455206E+00 0.92904209E+02</pdfrwt>
<pdfrwt beam="2">  1       -1 0.43684805E-02 0.92904209E+02</pdfrwt>
<totfact> 0.33195472E+03</totfact>
</mgrwt>
</event>
<event>
 4    1  0.4999097E-001  0.9115315E+02  0.7546771E-02  0.1300083E+00
         -1   -1    0    0    0  501 -0.00000000000E+00  0.00000000000E+00  0.35749567098E+02  0.35749567098E+02  0.00000000000E+00 0.  1.
          1   -1    0    0  501    0  0.00000000000E+00 -0.00000000000E+00 -0.46901147033E+03  0.46901147033E+03  0.00000000000E+00 0. -1.
         24    1    1    2    0    0  0.33878177447E+02  0.26342934682E+02 -0.37378921595E+02  0.98519444014E+02  0.80419002446E+02 0.  1.
        -24    1    1    2    0    0 -0.33878177447E+02 -0.26342934682E+02 -0.39588298164E+03  0.40624159342E+03  0.80419002446E+02 0. -1.
<mgrwt>
<rscale>  0 0.91153152E+02</rscale>
<asrwt>0</asrwt>
<pdfrwt beam="1">  1        1 0.72155609E-01 0.91153152E+02</pdfrwt>
<pdfrwt beam="2">  1       -1 0.54999335E-02 0.91153152E+02</pdfrwt>
<totfact> 0.69856885E+03</totfact>
</mgrwt>
</event>
<event>
 4    1  0.4999097E-001  0.8180482E+02  0.7546771E-02  0.1324006E+00
          1   -1    0    0  501    0  0.00000000000E+00  0.00000000000E+00  0.80058018727E+03  0.80058018727E+03  0.00000000000E+00 0. -1.
         -1   -1    0    0    0  501 -0.00000000000E+00 -0.00000000000E+00 -0.17548395768E+02  0.17548395768E+02  0.00000000000E+00 0.  1.
         24    1    1    2    0    0 -0.14381178068E+02  0.42419913765E+01  0.95498686723E+02  0.12574588619E+03  0.80419002446E+02 0.  1.
        -24    1    1    2    0    0  0.14381178068E+02 -0.42419913765E+01  0.68753310478E+03  0.69238269685E+03  0.80419002446E+02 0.  0.
<mgrwt>
<rscale>  0 0.81804821E+02</rscale>
<asrwt>0</asrwt>
<pdfrwt beam="1">  1        1 0.12316615E+00 0.81804821E+02</pdfrwt>
<pdfrwt beam="2">  1       -1 0.26997538E-02 0.81804821E+02</pdfrwt>
<totfact> 0.94193148E+03</totfact>
</mgrwt>
</event>
<event>
 4    1  0.4999097E-001  0.9272322E+02  0.7546771E-02  0.1296388E+00
         -1   -1    0    0    0  501 -0.00000000000E+00  0.00000000000E+00  0.11602890343E+02  0.11602890343E+02  0.00000000000E+00 0.  1.
          1   -1    0    0  501    0  0.00000000000E+00 -0.00000000000E+00 -0.82951595624E+03  0.82951595624E+03  0.00000000000E+00 0. -1.
         24    1    1    2    0    0  0.23631332391E+02  0.39647686498E+02 -0.27156599295E+03  0.28695937587E+03  0.80419002446E+02 0.  1.
        -24    1    1    2    0    0 -0.23631332391E+02 -0.39647686498E+02 -0.54634707294E+03  0.55415947071E+03  0.80419002446E+02 0. -1.
<mgrwt>
<rscale>  0 0.92723216E+02</rscale>
<asrwt>0</asrwt>
<pdfrwt beam="1">  1        1 0.12761782E+00 0.92723216E+02</pdfrwt>
<pdfrwt beam="2">  1       -1 0.17850603E-02 0.92723216E+02</pdfrwt>
<totfact> 0.16291868E+04</totfact>
</mgrwt>
</event>
<event>
 4    1  0.4999097E-001  0.1004921E+03  0.7546771E-02  0.1279265E+00
          1   -1    0    0  501    0  0.00000000000E+00  0.00000000000E+00  0.18966308526E+04  0.18966308526E+04  0.00000000000E+00 0. -1.
         -1   -1    0    0    0  501 -0.00000000000E+00 -0.00000000000E+00 -0.55699100089E+01  0.55699100089E+01  0.00000000000E+00 0.  1.
         24    1    1    2    0    0  0.48840616847E+02 -0.35299248249E+02  0.74590032770E+03  0.75263932770E+03  0.80419002446E+02 0.  1.
        -24    1    1    2    0    0 -0.48840616847E+02  0.35299248249E+02  0.11451606149E+04  0.11495614349E+04  0.80419002446E+02 0. -1.
<mgrwt>
<rscale>  0 0.10049208E+03</rscale>
<asrwt>0</asrwt>
<pdfrwt beam="1">  1        1 0.29178885E+00 0.10049208E+03</pdfrwt>
<pdfrwt beam="2">  1       -1 0.85691074E-03 0.10049208E+03</pdfrwt>
<totfact> 0.89460480E+03</totfact>
</mgrwt>
</event>
<event>
 4    1  0.4999097E-001  0.9994083E+02  0.7546771E-02  0.1280420E+00
         -1   -1    0    0    0  501 -0.00000000000E+00  0.00000000000E+00  0.78250706865E+02  0.78250706865E+02  0.00000000000E+00 0.  1.
          1   -1    0    0  501    0  0.00000000000E+00 -0.00000000000E+00 -0.32527857525E+03  0.32527857525E+03  0.00000000000E+00 0. -1.
         24    1    1    2    0    0  0.82108572377E+01 -0.58766784074E+02  0.33757444220E+02  0.10548807554E+03  0.80419002446E+02 0.  1.
        -24    1    1    2    0    0 -0.82108572377E+01  0.58766784074E+02 -0.28078531261E+03  0.29804120658E+03  0.80419002446E+02 0. -1.
<mgrwt>
<rscale>  0 0.99940828E+02</rscale>
<asrwt>0</asrwt>
<pdfrwt beam="1">  1        1 0.50042858E-01 0.99940828E+02</pdfrwt>
<pdfrwt beam="2">  1       -1 0.12038570E-01 0.99940828E+02</pdfrwt>
<totfact> 0.34295853E+03</totfact>
</mgrwt>
</event>
<event>
 4    1  0.4999097E-001  0.8478121E+02  0.7546771E-02  0.1316006E+00
         -1   -1    0    0    0  501 -0.00000000000E+00  0.00000000000E+00  0.34334970623E+02  0.34334970623E+02  0.00000000000E+00 0.  1.
          1   -1    0    0  501    0  0.00000000000E+00 -0.00000000000E+00 -0.41605846114E+03  0.41605846114E+03  0.00000000000E+00 0. -1.
         24    1    1    2    0    0  0.26363523032E+02 -0.50598170776E+01 -0.32127988448E+02  0.90664550358E+02  0.80419002446E+02 0.  0.
        -24    1    1    2    0    0 -0.26363523032E+02  0.50598170776E+01 -0.34959550206E+03  0.35972888140E+03  0.80419002446E+02 0.  0.
<mgrwt>
<rscale>  0 0.84781207E+02</rscale>
<asrwt>0</asrwt>
<pdfrwt beam="1">  1        1 0.64008990E-01 0.84781207E+02</pdfrwt>
<pdfrwt beam="2">  1       -1 0.52823035E-02 0.84781207E+02</pdfrwt>
<totfact> 0.85675895E+03</totfact>
</mgrwt>
</event>
<event>
 4    1  0.4999097E-001  0.8408269E+02  0.7546771E-02  0.1317849E+00
          2   -1    0    0  501    0  0.00000000000E+00  0.00000000000E+00  0.23988638651E+02  0.23988638651E+02  0.00000000000E+00 0. -1.
         -2   -1    0    0    0  501 -0.00000000000E+00 -0.00000000000E+00 -0.83580358137E+03  0.83580358137E+03  0.00000000000E+00 0.  1.
         24    1    1    2    0    0  0.79234549022E+00  0.24536824380E+02 -0.60012605423E+02  0.10330252817E+03  0.80419002446E+02 0. -1.
        -24    1    1    2    0    0 -0.79234549022E+00 -0.24536824380E+02 -0.75180233730E+03  0.75648969185E+03  0.80419002446E+02 0.  1.
<mgrwt>
<rscale>  0 0.84082695E+02</rscale>
<asrwt>0</asrwt>
<pdfrwt beam="1">  1        2 0.36905598E-02 0.84082695E+02</pdfrwt>
<pdfrwt beam="2">  1       -2 0.12858517E+00 0.84082695E+02</pdfrwt>
<totfact> 0.10408918E+03</totfact>
</mgrwt>
</event>
<event>
 4    1  0.4999097E-001  0.8722723E+02  0.7546771E-02  0.1309709E+00
         -2   -1    0    0    0  501 -0.00000000000E+00  0.00000000000E+00  0.46856503144E+01  0.46856503144E+01  0.00000000000E+00 0.  1.
          2   -1    0    0  501    0  0.00000000000E+00 -0.00000000000E+00 -0.16379200052E+04  0.16379200052E+04  0.00000000000E+00 0. -1.
         24    1    1    2    0    0  0.52348902429E+01 -0.33376185717E+02 -0.89285547957E+03  0.89710617944E+03  0.80419002446E+02 0. -1.
        -24    1    1    2    0    0 -0.52348902429E+01  0.33376185717E+02 -0.74037887527E+03  0.74549947602E+03  0.80419002446E+02 0.  1.
<mgrwt>
<rscale>  0 0.87227231E+02</rscale>
<asrwt>0</asrwt>
<pdfrwt beam="1">  1        2 0.25198773E+00 0.87227231E+02</pdfrwt>
<pdfrwt beam="2">  1       -2 0.72086917E-03 0.87227231E+02</pdfrwt>
<totfact> 0.36462295E+04</totfact>
</mgrwt>
</event>
<event>
 4    1  0.4999097E-001  0.9373996E+02  0.7546771E-02  0.1294039E+00
          2   -1    0    0  501    0  0.00000000000E+00  0.00000000000E+00  0.37312508327E+03  0.37312508327E+03  0.00000000000E+00 0. -1.
         -2   -1    0    0    0  501 -0.00000000000E+00 -0.00000000000E+00 -0.66099382868E+02  0.66099382868E+02  0.00000000000E+00 0.  1.
         24    1    1    2    0    0 -0.47470224792E+02  0.81573462342E+01  0.32971179318E+03  0.34277842268E+03  0.80419002446E+02 0. -1.
        -24    1    1    2    0    0  0.47470224792E+02 -0.81573462342E+01 -0.22686092774E+02  0.96446043460E+02  0.80419002446E+02 0.  1.
<mgrwt>
<rscale>  0 0.93739962E+02</rscale>
<asrwt>0</asrwt>
<pdfrwt beam="1">  1        2 0.57403857E-01 0.93739962E+02</pdfrwt>
<pdfrwt beam="2">  1       -2 0.10169136E-01 0.93739962E+02</pdfrwt>
<totfact> 0.52222864E+03</totfact>
</mgrwt>
</event>
<event>
 4    1  0.4999097E-001  0.9630379E+02  0.7546771E-02  0.1288266E+00
          2   -1    0    0  501    0  0.00000000000E+00  0.00000000000E+00  0.29641409186E+04  0.29641409186E+04  0.00000000000E+00 0. -1.
         -2   -1    0    0    0  501 -0.00000000000E+00 -0.00000000000E+00 -0.49510254894E+01  0.49510254894E+01  0.00000000000E+00 0.  1.
         24    1    1    2    0    0  0.31637519567E+02  0.42500243381E+02  0.23802084982E+04  0.23821559382E+04  0.80419002446E+02 0. -1.
        -24    1    1    2    0    0 -0.31637519567E+02 -0.42500243381E+02  0.57898139493E+03  0.58693600585E+03  0.80419002446E+02 0.  1.
<mgrwt>
<rscale>  0 0.96303786E+02</rscale>
<asrwt>0</asrwt>
<pdfrwt beam="1">  1        2 0.45602026E+00 0.96303786E+02</pdfrwt>
<pdfrwt beam="2">  1       -2 0.76169860E-03 0.96303786E+02</pdfrwt>
<totfact> 0.69172271E+03</totfact>
</mgrwt>
</event>
<event>
 4    1  0.4999097E-001  0.8476972E+02  0.7546771E-02  0.1316036E+00
         -1   -1    0    0    0  501 -0.00000000000E+00  0.00000000000E+00  0.46286210292E+02  0.46286210292E+02  0.00000000000E+00 0.  1.
          1   -1    0    0  501    0  0.00000000000E+00 -0.00000000000E+00 -0.82617888299E+03  0.82617888299E+03  0.00000000000E+00 0. -1.
         24    1    1    2    0    0 -0.12533004470E+02 -0.23698390647E+02  0.31685240788E+01  0.84828918533E+02  0.80419002446E+02 0.  1.
        -24    1    1    2    0    0  0.12533004470E+02  0.23698390647E+02 -0.78306119678E+03  0.78763617475E+03  0.80419002446E+02 0. -1.
<mgrwt>
<rscale>  0 0.84769723E+02</rscale>
<asrwt>0</asrwt>
<pdfrwt beam="1">  1        1 0.12710444E+00 0.84769723E+02</pdfrwt>
<pdfrwt beam="2">  1       -1 0.71209557E-02 0.84769723E+02</pdfrwt>
<totfact> 0.21976583E+03</totfact>
</mgrwt>
</event>
<event>
 4    1  0.4999097E-001  0.8876295E+02  0.7546771E-02  0.1305875E+00
         -1   -1    0    0    0  501 -0.00000000000E+00  0.00000000000E+00  0.13683592961E+02  0.13683592961E+02  0.00000000000E+00 0.  1.
          1   -1    0    0  501    0  0.00000000000E+00 -0.00000000000E+00 -0.82371958593E+03  0.82371958593E+03  0.00000000000E+00 0. -1.
         24    1    1    2    0    0  0.80411195247E+00 -0.37563270358E+02 -0.17530794605E+03  0.19649869663E+03  0.80419002446E+02 0.  1.
        -24    1    1    2    0    0 -0.80411195247E+00  0.37563270358E+02 -0.63472804692E+03  0.64090448226E+03  0.80419002446E+02 0. -1.
<mgrwt>
<rscale>  0 0.88762953E+02</rscale>
<asrwt>0</asrwt>
<pdfrwt beam="1">  1        1 0.12672613E+00 0.88762953E+02</pdfrwt>
<pdfrwt beam="2">  1       -1 0.21051675E-02 0.88762953E+02</pdfrwt>
<totfact> 0.12966676E+04</totfact>
</mgrwt>
</event>
<event>
 4    1  0.4999097E-001  0.8236344E+02  0.7546771E-02  0.1322475E+00
         -3   -1    0    0    0  501 -0.00000000000E+00  0.00000000000E+00  0.28834491699E+02  0.28834491699E+02  0.00000000000E+00 0.  1.
          3   -1    0    0  501    0  0.00000000000E+00 -0.00000000000E+00 -0.23659439959E+03  0.23659439959E+03  0.00000000000E+00 0. -1.
         24    1    1    2    0    0  0.13551616107E+02  0.11527113914E+02 -0.93930463568E+02  0.12492665286E+03  0.80419002446E+02 0. -1.
        -24    1    1    2    0    0 -0.13551616107E+02 -0.11527113914E+02 -0.11382944432E+03  0.14050223843E+03  0.80419002446E+02 0.  0.
<mgrwt>
<rscale>  0 0.82363442E+02</rscale>
<asrwt>0</asrwt>
<pdfrwt beam="1">  1        3 0.36399139E-01 0.82363442E+02</pdfrwt>
<pdfrwt beam="2">  1       -3 0.44360756E-02 0.82363442E+02</pdfrwt>
<totfact> 0.42134410E+03</totfact>
</mgrwt>
</event>
<event>
 4    1  0.4999097E-001  0.2333031E+03  0.7546771E-02  0.1124336E+00
         -2   -1    0    0    0  501 -0.00000000000E+00  0.00000000000E+00  0.67427831696E+02  0.67427831696E+02  0.00000000000E+00 0.  1.
          2   -1    0    0  501    0  0.00000000000E+00 -0.00000000000E+00 -0.10176980413E+04  0.10176980413E+04  0.00000000000E+00 0. -1.
         24    1    1    2    0    0 -0.21239250526E+03  0.53408996651E+02 -0.72186705998E+03  0.75863190379E+03  0.80419002446E+02 0. -1.
        -24    1    1    2    0    0  0.21239250526E+03 -0.53408996651E+02 -0.22840314964E+03  0.32649396922E+03  0.80419002446E+02 0.  1.
<mgrwt>
<rscale>  0 0.23330305E+03</rscale>
<asrwt>0</asrwt>
<pdfrwt beam="1">  1        2 0.15656893E+00 0.23330305E+03</pdfrwt>
<pdfrwt beam="2">  1       -2 0.10373512E-01 0.23330305E+03</pdfrwt>
<totfact> 0.16019381E+03</totfact>
</mgrwt>
</event>
<event>
 4    1  0.4999097E-001  0.8332218E+02  0.7546771E-02  0.1319879E+00
         -2   -1    0    0    0  501 -0.00000000000E+00  0.00000000000E+00  0.10261195052E+03  0.10261195052E+03  0.00000000000E+00 0.  1.
          2   -1    0    0  501    0  0.00000000000E+00 -0.00000000000E+00 -0.71175087092E+02  0.71175087092E+02  0.00000000000E+00 0. -1.
         24    1    1    2    0    0  0.15274422780E+02  0.15558352830E+02 -0.35956765471E+01  0.83399731284E+02  0.80419002446E+02 0. -1.
        -24    1    1    2    0    0 -0.15274422780E+02 -0.15558352830E+02  0.35032539979E+02  0.90387306331E+02  0.80419002446E+02 0.  1.
<mgrwt>
<rscale>  0 0.83322184E+02</rscale>
<asrwt>0</asrwt>
<pdfrwt beam="1">  1        2 0.10950013E-01 0.83322184E+02</pdfrwt>
<pdfrwt beam="2">  1       -2 0.15786454E-01 0.83322184E+02</pdfrwt>
<totfact> 0.15875239E+04</totfact>
</mgrwt>
</event>
<event>
 4    1  0.4999097E-001  0.1009882E+03  0.7546771E-02  0.1278231E+00
         -2   -1    0    0    0  501 -0.00000000000E+00  0.00000000000E+00  0.23176319262E+02  0.23176319262E+02  0.00000000000E+00 0.  1.
          2   -1    0    0  501    0  0.00000000000E+00 -0.00000000000E+00 -0.44848221822E+03  0.44848221822E+03  0.00000000000E+00 0. -1.
         24    1    1    2    0    0 -0.57763149366E+02  0.19870228159E+02 -0.24499926373E+03  0.26499672182E+03  0.80419002446E+02 0.  0.
        -24    1    1    2    0    0  0.57763149366E+02 -0.19870228159E+02 -0.18030663522E+03  0.20666181566E+03  0.80419002446E+02 0. -1.
<mgrwt>
<rscale>  0 0.10098823E+03</rscale>
<asrwt>0</asrwt>
<pdfrwt beam="1">  1        2 0.68997260E-01 0.10098823E+03</pdfrwt>
<pdfrwt beam="2">  1       -2 0.35655878E-02 0.10098823E+03</pdfrwt>
<totfact> 0.20975257E+04</totfact>
</mgrwt>
</event>
<event>
 4    1  0.4999097E-001  0.1149032E+03  0.7546771E-02  0.1251750E+00
          2   -1    0    0  501    0  0.00000000000E+00  0.00000000000E+00  0.10410187308E+03  0.10410187308E+03  0.00000000000E+00 0. -1.
         -2   -1    0    0    0  501 -0.00000000000E+00 -0.00000000000E+00 -0.12685388676E+03  0.12685388676E+03  0.00000000000E+00 0.  1.
         24    1    1    2    0    0 -0.81924736420E+02 -0.48835865303E+01 -0.13116352957E+02  0.11564932565E+03  0.80419002446E+02 0.  0.
        -24    1    1    2    0    0  0.81924736420E+02  0.48835865303E+01 -0.96356607246E+01  0.11530643420E+03  0.80419002446E+02 0.  0.
<mgrwt>
<rscale>  0 0.11490314E+03</rscale>
<asrwt>0</asrwt>
<pdfrwt beam="1">  1        2 0.16015673E-01 0.11490315E+03</pdfrwt>
<pdfrwt beam="2">  1       -2 0.19515983E-01 0.11490315E+03</pdfrwt>
<totfact> 0.73741706E+03</totfact>
</mgrwt>
</event>
<event>
 4    1  0.4999097E-001  0.9251444E+02  0.7546771E-02  0.1296874E+00
          1   -1    0    0  501    0  0.00000000000E+00  0.00000000000E+00  0.19059000405E+04  0.19059000405E+04  0.00000000000E+00 0. -1.
         -1   -1    0    0    0  501 -0.00000000000E+00 -0.00000000000E+00 -0.38809289878E+02  0.38809289878E+02  0.00000000000E+00 0.  1.
         24    1    1    2    0    0  0.25996839081E+02  0.37628048907E+02  0.19176884970E+02  0.94481080531E+02  0.80419002446E+02 0.  1.
        -24    1    1    2    0    0 -0.25996839081E+02 -0.37628048907E+02  0.18479138656E+04  0.18502282498E+04  0.80419002446E+02 0. -1.
<mgrwt>
<rscale>  0 0.92514440E+02</rscale>
<asrwt>0</asrwt>
<pdfrwt beam="1">  1        1 0.29321532E+00 0.92514440E+02</pdfrwt>
<pdfrwt beam="2">  1       -1 0.59706615E-02 0.92514440E+02</pdfrwt>
<totfact> 0.54281701E+02</totfact>
</mgrwt>
</event>
<event>
 4    1  0.4999097E-001  0.9536753E+02  0.7546771E-02  0.1290350E+00
          2   -1    0    0  501    0  0.00000000000E+00  0.00000000000E+00  0.77068637167E+02  0.77068637167E+02  0.00000000000E+00 0. -1.
         -2   -1    0    0    0  501 -0.00000000000E+00 -0.00000000000E+00 -0.12618928212E+04  0.12618928212E+04  0.00000000000E+00 0.  1.
         24    1    1    2    0    0  0.33956787771E+02  0.38401645431E+02  0.44995714869E+02  0.10544941972E+03  0.80419002446E+02 0. -1.
        -24    1    1    2    0    0 -0.33956787771E+02 -0.38401645431E+02 -0.12298198989E+04  0.12335120387E+04  0.80419002446E+02 0.  1.
<mgrwt>
<rscale>  0 0.95367530E+02</rscale>
<asrwt>0</asrwt>
<pdfrwt beam="1">  1        2 0.11856714E-01 0.95367530E+02</pdfrwt>
<pdfrwt beam="2">  1       -2 0.19413735E+00 0.95367530E+02</pdfrwt>
<totfact> 0.83039654E+01</totfact>
</mgrwt>
</event>
<event>
 4    1  0.4999097E-001  0.1215804E+03  0.7546771E-02  0.1240512E+00
         -2   -1    0    0    0  501 -0.00000000000E+00  0.00000000000E+00  0.68067410547E+01  0.68067410547E+01  0.00000000000E+00 0.  1.
          2   -1    0    0  501    0  0.00000000000E+00 -0.00000000000E+00 -0.37083217440E+04  0.37083217440E+04  0.00000000000E+00 0. -1.
         24    1    1    2    0    0 -0.43543440912E+02 -0.80115845070E+02 -0.30465257221E+04  0.30489507657E+04  0.80419002446E+02 0. -1.
        -24    1    1    2    0    0  0.43543440912E+02  0.80115845070E+02 -0.65498928081E+03  0.66617771939E+03  0.80419002446E+02 0.  1.
<mgrwt>
<rscale>  0 0.12158041E+03</rscale>
<asrwt>0</asrwt>
<pdfrwt beam="1">  1        2 0.57051167E+00 0.12158041E+03</pdfrwt>
<pdfrwt beam="2">  1       -2 0.10471898E-02 0.12158041E+03</pdfrwt>
<totfact> 0.15175808E+03</totfact>
</mgrwt>
</event>
<event>
 4    1  0.4999097E-001  0.8659024E+02  0.7546771E-02  0.1311326E+00
          1   -1    0    0  501    0  0.00000000000E+00  0.00000000000E+00  0.19523464311E+04  0.19523464311E+04  0.00000000000E+00 0. -1.
         -1   -1    0    0    0  501 -0.00000000000E+00 -0.00000000000E+00 -0.79631947644E+01  0.79631947644E+01  0.00000000000E+00 0.  1.
         24    1    1    2    0    0 -0.12825831992E+00 -0.32103531767E+02  0.26693890821E+03  0.28063187608E+03  0.80419002446E+02 0.  1.
        -24    1    1    2    0    0  0.12825831992E+00  0.32103531767E+02  0.16774443281E+04  0.16796777498E+04  0.80419002446E+02 0. -1.
<mgrwt>
<rscale>  0 0.86590237E+02</rscale>
<asrwt>0</asrwt>
<pdfrwt beam="1">  1        1 0.30036061E+00 0.86590237E+02</pdfrwt>
<pdfrwt beam="2">  1       -1 0.12251084E-02 0.86590237E+02</pdfrwt>
<totfact> 0.49538999E+03</totfact>
</mgrwt>
</event>
<event>
 4    1  0.4999097E-001  0.9108281E+02  0.7546771E-02  0.1300251E+00
         -2   -1    0    0    0  501 -0.00000000000E+00  0.00000000000E+00  0.34922045709E+02  0.34922045709E+02  0.00000000000E+00 0.  1.
          2   -1    0    0  501    0  0.00000000000E+00 -0.00000000000E+00 -0.18965783821E+04  0.18965783821E+04  0.00000000000E+00 0. -1.
         24    1    1    2    0    0 -0.42743529421E+02  0.13613169646E+01 -0.18340720412E+04  0.18363323040E+04  0.80419002446E+02 0. -1.
        -24    1    1    2    0    0  0.42743529421E+02 -0.13613169646E+01 -0.27584295189E+02  0.95168123795E+02  0.80419002446E+02 0.  1.
<mgrwt>
<rscale>  0 0.91082811E+02</rscale>
<asrwt>0</asrwt>
<pdfrwt beam="1">  1        2 0.29178132E+00 0.91082811E+02</pdfrwt>
<pdfrwt beam="2">  1       -2 0.53726219E-02 0.91082811E+02</pdfrwt>
<totfact> 0.15034957E+03</totfact>
</mgrwt>
</event>
<event>
 4    1  0.4999097E-001  0.9749045E+02  0.7546771E-02  0.1285663E+00
         -2   -1    0    0    0  501 -0.00000000000E+00  0.00000000000E+00  0.55188428868E+01  0.55188428868E+01  0.00000000000E+00 0. -1.
          2   -1    0    0  501    0  0.00000000000E+00 -0.00000000000E+00 -0.17548011298E+04  0.17548011298E+04  0.00000000000E+00 0.  1.
         24    1    1    2    0    0 -0.54654007818E+02  0.70789204353E+01 -0.99466327356E+03  0.99942954499E+03  0.80419002446E+02 0.  0.
        -24    1    1    2    0    0  0.54654007818E+02 -0.70789204353E+01 -0.75461901340E+03  0.76089042773E+03  0.80419002446E+02 0.  0.
<mgrwt>
<rscale>  0 0.97490449E+02</rscale>
<asrwt>0</asrwt>
<pdfrwt beam="1">  1        2 0.26996958E+00 0.97490449E+02</pdfrwt>
<pdfrwt beam="2">  1       -2 0.84905221E-03 0.97490449E+02</pdfrwt>
<totfact> 0.25499561E+04</totfact>
</mgrwt>
</event>
<event>
 4    1  0.4999097E-001  0.9097071E+02  0.7546771E-02  0.1300518E+00
         -4   -1    0    0    0  501 -0.00000000000E+00  0.00000000000E+00  0.19731691499E+04  0.19731691499E+04  0.00000000000E+00 0.  1.
          4   -1    0    0  501    0  0.00000000000E+00 -0.00000000000E+00 -0.81787899415E+01  0.81787899415E+01  0.00000000000E+00 0. -1.
         24    1    1    2    0    0  0.47568031248E+01 -0.42259050006E+02  0.29100909584E+03  0.30489664528E+03  0.80419002446E+02 0. -1.
        -24    1    1    2    0    0 -0.47568031248E+01  0.42259050006E+02  0.16739812641E+04  0.16764512945E+04  0.80419002446E+02 0.  1.
<mgrwt>
<rscale>  0 0.90970712E+02</rscale>
<asrwt>0</asrwt>
<pdfrwt beam="1">  1        4 0.12582769E-02 0.90970712E+02</pdfrwt>
<pdfrwt beam="2">  1       -4 0.30356411E+00 0.90970712E+02</pdfrwt>
<totfact> 0.11884083E+02</totfact>
</mgrwt>
</event>
<event>
 4    1  0.4999097E-001  0.8312650E+02  0.7546771E-02  0.1320406E+00
          1   -1    0    0  501    0  0.00000000000E+00  0.00000000000E+00  0.28717629512E+03  0.28717629512E+03  0.00000000000E+00 0. -1.
         -1   -1    0    0    0  501 -0.00000000000E+00 -0.00000000000E+00 -0.74498525324E+02  0.74498525324E+02  0.00000000000E+00 0.  1.
         24    1    1    2    0    0 -0.12908957136E+02 -0.16617987753E+02 -0.42455773572E+02  0.93340812913E+02  0.80419002446E+02 0.  1.
        -24    1    1    2    0    0  0.12908957136E+02  0.16617987753E+02  0.25513354337E+03  0.26833400753E+03  0.80419002446E+02 0. -1.
<mgrwt>
<rscale>  0 0.83126498E+02</rscale>
<asrwt>0</asrwt>
<pdfrwt beam="1">  1        1 0.44180968E-01 0.83126498E+02</pdfrwt>
<pdfrwt beam="2">  1       -1 0.11461312E-01 0.83126498E+02</pdfrwt>
<totfact> 0.42570757E+03</totfact>
</mgrwt>
</event>
<event>
 4    1  0.4999097E-001  0.1083415E+03  0.7546771E-02  0.1263672E+00
          1   -1    0    0  501    0  0.00000000000E+00  0.00000000000E+00  0.16424842286E+04  0.16424842286E+04  0.00000000000E+00 0. -1.
         -1   -1    0    0    0  501 -0.00000000000E+00 -0.00000000000E+00 -0.16411098355E+02  0.16411098355E+02  0.00000000000E+00 0.  1.
         24    1    1    2    0    0 -0.44818813960E+02 -0.57113445475E+02  0.18982535325E+03  0.21856704333E+03  0.80419002446E+02 0.  1.
        -24    1    1    2    0    0  0.44818813960E+02  0.57113445475E+02  0.14362477770E+04  0.14403282836E+04  0.80419002446E+02 0. -1.
<mgrwt>
<rscale>  0 0.10834153E+03</rscale>
<asrwt>0</asrwt>
<pdfrwt beam="1">  1        1 0.25268975E+00 0.10834153E+03</pdfrwt>
<pdfrwt beam="2">  1       -1 0.25247857E-02 0.10834153E+03</pdfrwt>
<totfact> 0.27813714E+03</totfact>
</mgrwt>
</event>
<event>
 4    1  0.4999097E-001  0.8926696E+02  0.7546771E-02  0.1304637E+00
         -2   -1    0    0    0  501 -0.00000000000E+00  0.00000000000E+00  0.12283853478E+02  0.12283853478E+02  0.00000000000E+00 0.  1.
          2   -1    0    0  501    0  0.00000000000E+00 -0.00000000000E+00 -0.64870851023E+03  0.64870851023E+03  0.00000000000E+00 0. -1.
         24    1    1    2    0    0  0.38714029793E+02 -0.16106765629E+01 -0.31735235497E+03  0.32966817186E+03  0.80419002446E+02 0. -1.
        -24    1    1    2    0    0 -0.38714029793E+02  0.16106765629E+01 -0.31907230179E+03  0.33132419185E+03  0.80419002446E+02 0.  0.
<mgrwt>
<rscale>  0 0.89266950E+02</rscale>
<asrwt>0</asrwt>
<pdfrwt beam="1">  1        2 0.99801308E-01 0.89266961E+02</pdfrwt>
<pdfrwt beam="2">  1       -2 0.18898236E-02 0.89266961E+02</pdfrwt>
<totfact> 0.34635058E+04</totfact>
</mgrwt>
</event>
<event>
 4    1  0.4999097E-001  0.1103822E+03  0.7546771E-02  0.1259864E+00
         -1   -1    0    0    0  501 -0.00000000000E+00  0.00000000000E+00  0.21381756519E+02  0.21381756519E+02  0.00000000000E+00 0.  1.
          1   -1    0    0  501    0  0.00000000000E+00 -0.00000000000E+00 -0.61841105627E+03  0.61841105627E+03  0.00000000000E+00 0. -1.
         24    1    1    2    0    0 -0.22699112298E+02 -0.72123309470E+02 -0.20886521956E+03  0.23623911058E+03  0.80419002446E+02 0.  1.
        -24    1    1    2    0    0  0.22699112298E+02  0.72123309470E+02 -0.38816408019E+03  0.40355370222E+03  0.80419002446E+02 0. -1.
<mgrwt>
<rscale>  0 0.11038223E+03</rscale>
<asrwt>0</asrwt>
<pdfrwt beam="1">  1        1 0.95140164E-01 0.11038223E+03</pdfrwt>
<pdfrwt beam="2">  1       -1 0.32895010E-02 0.11038223E+03</pdfrwt>
<totfact> 0.10436331E+04</totfact>
</mgrwt>
</event>
<event>
 4    1  0.4999097E-001  0.2770166E+03  0.7546771E-02  0.1097330E+00
          1   -1    0    0  501    0  0.00000000000E+00  0.00000000000E+00  0.79427483899E+03  0.79427483899E+03  0.00000000000E+00 0. -1.
         -1   -1    0    0    0  501 -0.00000000000E+00 -0.00000000000E+00 -0.20611506596E+03  0.20611506596E+03  0.00000000000E+00 0.  1.
         24    1    1    2    0    0  0.23108356180E+03 -0.12988989517E+03 -0.70500457049E+02  0.28584703567E+03  0.80419002446E+02 0.  1.
        -24    1    1    2    0    0 -0.23108356180E+03  0.12988989517E+03  0.65866023008E+03  0.71454286928E+03  0.80419002446E+02 0. -1.
<mgrwt>
<rscale>  0 0.27701663E+03</rscale>
<asrwt>0</asrwt>
<pdfrwt beam="1">  1        1 0.12219613E+00 0.27701663E+03</pdfrwt>
<pdfrwt beam="2">  1       -1 0.31710011E-01 0.27701663E+03</pdfrwt>
<totfact> 0.21831623E+02</totfact>
</mgrwt>
</event>
<event>
 4    1  0.4999097E-001  0.8738489E+02  0.7546771E-02  0.1309311E+00
          1   -1    0    0  501    0  0.00000000000E+00  0.00000000000E+00  0.24693589575E+03  0.24693589575E+03  0.00000000000E+00 0. -1.
         -1   -1    0    0    0  501 -0.00000000000E+00 -0.00000000000E+00 -0.43443073934E+02  0.43443073934E+02  0.00000000000E+00 0.  1.
         24    1    1    2    0    0  0.16020409923E+02 -0.30203464400E+02  0.23804705247E+02  0.90569215201E+02  0.80419002446E+02 0.  1.
        -24    1    1    2    0    0 -0.16020409923E+02  0.30203464400E+02  0.17968811657E+03  0.19980975448E+03  0.80419002446E+02 0. -1.
<mgrwt>
<rscale>  0 0.87384889E+02</rscale>
<asrwt>0</asrwt>
<pdfrwt beam="1">  1        1 0.37990137E-01 0.87384889E+02</pdfrwt>
<pdfrwt beam="2">  1       -1 0.66835500E-02 0.87384889E+02</pdfrwt>
<totfact> 0.11515026E+04</totfact>
</mgrwt>
</event>
<event>
 4    1  0.4999097E-001  0.8412351E+02  0.7546771E-02  0.1317741E+00
         -4   -1    0    0    0  501 -0.00000000000E+00  0.00000000000E+00  0.95631331854E+02  0.95631331854E+02  0.00000000000E+00 0.  1.
          4   -1    0    0  501    0  0.00000000000E+00 -0.00000000000E+00 -0.75326844745E+02  0.75326844745E+02  0.00000000000E+00 0. -1.
         24    1    1    2    0    0  0.65260113985E+01  0.23810861468E+02  0.21495058740E+02  0.86826260159E+02  0.80419002446E+02 0. -1.
        -24    1    1    2    0    0 -0.65260113985E+01 -0.23810861468E+02 -0.11905716303E+01  0.84131916440E+02  0.80419002446E+02 0. -1.
<mgrwt>
<rscale>  0 0.84123502E+02</rscale>
<asrwt>0</asrwt>
<pdfrwt beam="1">  1        4 0.11588745E-01 0.84123513E+02</pdfrwt>
<pdfrwt beam="2">  1       -4 0.14712513E-01 0.84123513E+02</pdfrwt>
<totfact> 0.33243439E+03</totfact>
</mgrwt>
</event>
<event>
 4    1  0.4999097E-001  0.1348376E+03  0.7546771E-02  0.1220449E+00
         -2   -1    0    0    0  501 -0.00000000000E+00  0.00000000000E+00  0.27888678122E+02  0.27888678122E+02  0.00000000000E+00 0.  1.
          2   -1    0    0  501    0  0.00000000000E+00 -0.00000000000E+00 -0.65659720223E+03  0.65659720223E+03  0.00000000000E+00 0. -1.
         24    1    1    2    0    0  0.10402667943E+03 -0.29873370642E+02 -0.34323994805E+03  0.36877479062E+03  0.80419002446E+02 0.  0.
        -24    1    1    2    0    0 -0.10402667943E+03  0.29873370642E+02 -0.28546857606E+03  0.31571108973E+03  0.80419002446E+02 0.  0.
<mgrwt>
<rscale>  0 0.13483762E+03</rscale>
<asrwt>0</asrwt>
<pdfrwt beam="1">  1        2 0.10101494E+00 0.13483762E+03</pdfrwt>
<pdfrwt beam="2">  1       -2 0.42905664E-02 0.13483762E+03</pdfrwt>
<totfact> 0.10699711E+04</totfact>
</mgrwt>
</event>
<event>
 4    1  0.4999097E-001  0.8762735E+02  0.7546771E-02  0.1308701E+00
         -3   -1    0    0    0  501 -0.00000000000E+00  0.00000000000E+00  0.10440211844E+03  0.10440211844E+03  0.00000000000E+00 0.  1.
          3   -1    0    0  501    0  0.00000000000E+00 -0.00000000000E+00 -0.96278824223E+02  0.96278824223E+02  0.00000000000E+00 0. -1.
         24    1    1    2    0    0  0.32506383625E+02 -0.12436700817E+02  0.52816704362E+02  0.10231401037E+03  0.80419002446E+02 0.  1.
        -24    1    1    2    0    0 -0.32506383625E+02  0.12436700817E+02 -0.44693410147E+02  0.98366932292E+02  0.80419002446E+02 0. -1.
<mgrwt>
<rscale>  0 0.87627350E+02</rscale>
<asrwt>0</asrwt>
<pdfrwt beam="1">  1        3 0.14812127E-01 0.87627350E+02</pdfrwt>
<pdfrwt beam="2">  1       -3 0.16061864E-01 0.87627350E+02</pdfrwt>
<totfact> 0.26240938E+03</totfact>
</mgrwt>
</event>
<event>
 4    1  0.4999097E-001  0.8409574E+02  0.7546771E-02  0.1317814E+00
          4   -1    0    0  501    0  0.00000000000E+00  0.00000000000E+00  0.60206596379E+01  0.60206596379E+01  0.00000000000E+00 0. -1.
         -4   -1    0    0    0  501 -0.00000000000E+00 -0.00000000000E+00 -0.11934686971E+04  0.11934686971E+04  0.00000000000E+00 0.  1.
         24    1    1    2    0    0  0.18561711845E+02  0.16135090760E+02 -0.51838904279E+03  0.52516596800E+03  0.80419002446E+02 0.  0.
        -24    1    1    2    0    0 -0.18561711845E+02 -0.16135090760E+02 -0.66905899466E+03  0.67432338873E+03  0.80419002446E+02 0. -1.
<mgrwt>
<rscale>  0 0.84095745E+02</rscale>
<asrwt>0</asrwt>
<pdfrwt beam="1">  1        4 0.92625570E-03 0.84095745E+02</pdfrwt>
<pdfrwt beam="2">  1       -4 0.18361050E+00 0.84095745E+02</pdfrwt>
<totfact> 0.91863909E+02</totfact>
</mgrwt>
</event>
<event>
 4    1  0.4999097E-001  0.9702751E+02  0.7546771E-02  0.1286674E+00
         -2   -1    0    0    0  501 -0.00000000000E+00  0.00000000000E+00  0.17987689814E+02  0.17987689814E+02  0.00000000000E+00 0.  1.
          2   -1    0    0  501    0  0.00000000000E+00 -0.00000000000E+00 -0.10914079579E+04  0.10914079579E+04  0.00000000000E+00 0. -1.
         24    1    1    2    0    0  0.54176949132E+02  0.34613206977E+01 -0.93688425992E+03  0.94189514013E+03  0.80419002446E+02 0. -1.
        -24    1    1    2    0    0 -0.54176949132E+02 -0.34613206977E+01 -0.13653600812E+03  0.16750050754E+03  0.80419002446E+02 0.  1.
<mgrwt>
<rscale>  0 0.97027514E+02</rscale>
<asrwt>0</asrwt>
<pdfrwt beam="1">  1        2 0.16790893E+00 0.97027514E+02</pdfrwt>
<pdfrwt beam="2">  1       -2 0.27673366E-02 0.97027514E+02</pdfrwt>
<totfact> 0.10455720E+04</totfact>
</mgrwt>
</event>
<event>
 4    1  0.4999097E-001  0.8665027E+02  0.7546771E-02  0.1311172E+00
         -2   -1    0    0    0  501 -0.00000000000E+00  0.00000000000E+00  0.28661469066E+02  0.28661469066E+02  0.00000000000E+00 0.  1.
          2   -1    0    0  501    0  0.00000000000E+00 -0.00000000000E+00 -0.65044998931E+03  0.65044998931E+03  0.00000000000E+00 0. -1.
         24    1    1    2    0    0  0.13183832156E+02  0.29448930734E+02 -0.57331120129E+03  0.57982238869E+03  0.80419002446E+02 0. -1.
        -24    1    1    2    0    0 -0.13183832156E+02 -0.29448930734E+02 -0.48477318962E+02  0.99289069689E+02  0.80419002446E+02 0.  1.
<mgrwt>
<rscale>  0 0.86650268E+02</rscale>
<asrwt>0</asrwt>
<pdfrwt beam="1">  1        2 0.10006922E+00 0.86650268E+02</pdfrwt>
<pdfrwt beam="2">  1       -2 0.44094570E-02 0.86650268E+02</pdfrwt>
<totfact> 0.10062909E+04</totfact>
</mgrwt>
</event>
<event>
 4    1  0.4999097E-001  0.8749716E+02  0.7546771E-02  0.1309028E+00
          2   -1    0    0  501    0  0.00000000000E+00  0.00000000000E+00  0.99862488397E+03  0.99862488397E+03  0.00000000000E+00 0. -1.
         -2   -1    0    0    0  501 -0.00000000000E+00 -0.00000000000E+00 -0.19370881675E+02  0.19370881675E+02  0.00000000000E+00 0.  1.
         24    1    1    2    0    0  0.30082715998E+02  0.16839478535E+02  0.88528441428E+03  0.88959780123E+03  0.80419002446E+02 0. -1.
        -24    1    1    2    0    0 -0.30082715998E+02 -0.16839478535E+02  0.93969588020E+02  0.12839796442E+03  0.80419002446E+02 0.  1.
<mgrwt>
<rscale>  0 0.87497164E+02</rscale>
<asrwt>0</asrwt>
<pdfrwt beam="1">  1        2 0.15363456E+00 0.87497164E+02</pdfrwt>
<pdfrwt beam="2">  1       -2 0.29801364E-02 0.87497164E+02</pdfrwt>
<totfact> 0.10544947E+04</totfact>
</mgrwt>
</event>
<event>
 4    1  0.4999097E-001  0.1171741E+03  0.7546771E-02  0.1247833E+00
         -1   -1    0    0    0  501 -0.00000000000E+00  0.00000000000E+00  0.12601767009E+04  0.12601767009E+04  0.00000000000E+00 0.  1.
          1   -1    0    0  501    0  0.00000000000E+00 -0.00000000000E+00 -0.11238481454E+02  0.11238481454E+02  0.00000000000E+00 0. -1.
         24    1    1    2    0    0 -0.82831374567E+02  0.20037511916E+02  0.51334959036E+03  0.52655252006E+03  0.80419002446E+02 0. -1.
        -24    1    1    2    0    0  0.82831374567E+02 -0.20037511916E+02  0.73558862905E+03  0.74486266227E+03  0.80419002446E+02 0.  1.
<mgrwt>
<rscale>  0 0.11717405E+03</rscale>
<asrwt>0</asrwt>
<pdfrwt beam="1">  1        1 0.17289981E-02 0.11717406E+03</pdfrwt>
<pdfrwt beam="2">  1       -1 0.19387323E+00 0.11717406E+03</pdfrwt>
<totfact> 0.13245957E+03</totfact>
</mgrwt>
</event>
<event>
 4    1  0.4999097E-001  0.9306195E+02  0.7546771E-02  0.1295602E+00
         -2   -1    0    0    0  501 -0.00000000000E+00  0.00000000000E+00  0.10994430607E+03  0.10994430607E+03  0.00000000000E+00 0.  1.
          2   -1    0    0  501    0  0.00000000000E+00 -0.00000000000E+00 -0.10309363665E+03  0.10309363665E+03  0.00000000000E+00 0. -1.
         24    1    1    2    0    0  0.46816353458E+02 -0.12410370661E+01 -0.48312458780E+02  0.10485523712E+03  0.80419002446E+02 0. -1.
        -24    1    1    2    0    0 -0.46816353458E+02  0.12410370661E+01  0.55163128192E+02  0.10818270560E+03  0.80419002446E+02 0.  1.
<mgrwt>
<rscale>  0 0.93061953E+02</rscale>
<asrwt>0</asrwt>
<pdfrwt beam="1">  1        2 0.15860559E-01 0.93061953E+02</pdfrwt>
<pdfrwt beam="2">  1       -2 0.16914509E-01 0.93061953E+02</pdfrwt>
<totfact> 0.92883219E+03</totfact>
</mgrwt>
</event>
<event>
 4    1  0.4999097E-001  0.8645235E+02  0.7546771E-02  0.1311678E+00
          2   -1    0    0  501    0  0.00000000000E+00  0.00000000000E+00  0.14935786170E+03  0.14935786170E+03  0.00000000000E+00 0. -1.
         -2   -1    0    0    0  501 -0.00000000000E+00 -0.00000000000E+00 -0.12274025795E+03  0.12274025795E+03  0.00000000000E+00 0.  1.
         24    1    1    2    0    0  0.31590095946E+02 -0.29762376772E+01  0.11801374640E+03  0.14629166910E+03  0.80419002446E+02 0. -1.
        -24    1    1    2    0    0 -0.31590095946E+02  0.29762376772E+01 -0.91396142660E+02  0.12580645055E+03  0.80419002446E+02 0.  1.
<mgrwt>
<rscale>  0 0.86452346E+02</rscale>
<asrwt>0</asrwt>
<pdfrwt beam="1">  1        2 0.22978133E-01 0.86452346E+02</pdfrwt>
<pdfrwt beam="2">  1       -2 0.18883117E-01 0.86452346E+02</pdfrwt>
<totfact> 0.50761055E+03</totfact>
</mgrwt>
</event>
<event>
 4    1  0.4999097E-001  0.1108689E+03  0.7546771E-02  0.1258969E+00
          2   -1    0    0  501    0  0.00000000000E+00  0.00000000000E+00  0.48216522218E+03  0.48216522218E+03  0.00000000000E+00 0. -1.
         -2   -1    0    0    0  501 -0.00000000000E+00 -0.00000000000E+00 -0.25500761525E+02  0.25500761525E+02  0.00000000000E+00 0.  1.
         24    1    1    2    0    0 -0.57807059489E+02  0.49830212724E+02  0.23271052737E+03  0.25777143312E+03  0.80419002446E+02 0.  1.
        -24    1    1    2    0    0  0.57807059489E+02 -0.49830212724E+02  0.22395393329E+03  0.24989455059E+03  0.80419002446E+02 0.  1.
<mgrwt>
<rscale>  0 0.11086894E+03</rscale>
<asrwt>0</asrwt>
<pdfrwt beam="1">  1        2 0.74179258E-01 0.11086894E+03</pdfrwt>
<pdfrwt beam="2">  1       -2 0.39231944E-02 0.11086894E+03</pdfrwt>
<totfact> 0.17004907E+04</totfact>
</mgrwt>
</event>
<event>
 4    1  0.4999097E-001  0.8701536E+02  0.7546771E-02  0.1310245E+00
          1   -1    0    0  501    0  0.00000000000E+00  0.00000000000E+00  0.20073286169E+04  0.20073286169E+04  0.00000000000E+00 0. -1.
         -1   -1    0    0    0  501 -0.00000000000E+00 -0.00000000000E+00 -0.71240679237E+01  0.71240679237E+01  0.00000000000E+00 0.  1.
         24    1    1    2    0    0  0.38870561568E+01  0.33005263306E+02  0.30919698395E+03  0.32120779481E+03  0.80419002446E+02 0.  1.
        -24    1    1    2    0    0 -0.38870561568E+01 -0.33005263306E+02  0.16910075650E+04  0.16932448900E+04  0.80419002446E+02 0. -1.
<mgrwt>
<rscale>  0 0.87015358E+02</rscale>
<asrwt>0</asrwt>
<pdfrwt beam="1">  1        1 0.30881934E+00 0.87015358E+02</pdfrwt>
<pdfrwt beam="2">  1       -1 0.10960120E-02 0.87015358E+02</pdfrwt>
<totfact> 0.53566418E+03</totfact>
</mgrwt>
</event>
<event>
 4    1  0.4999097E-001  0.8145025E+02  0.7546771E-02  0.1324985E+00
          1   -1    0    0  501    0  0.00000000000E+00  0.00000000000E+00  0.26278956910E+03  0.26278956910E+03  0.00000000000E+00 0. -1.
         -1   -1    0    0    0  501 -0.00000000000E+00 -0.00000000000E+00 -0.49423838532E+03  0.49423838532E+03  0.00000000000E+00 0.  1.
         24    1    1    2    0    0  0.39764447200E+00  0.12913910719E+02 -0.48444467349E+03  0.49124411939E+03  0.80419002446E+02 0.  1.
        -24    1    1    2    0    0 -0.39764447200E+00 -0.12913910719E+02  0.25299585727E+03  0.26578383502E+03  0.80419002446E+02 0. -1.
<mgrwt>
<rscale>  0 0.81450250E+02</rscale>
<asrwt>0</asrwt>
<pdfrwt beam="1">  1        1 0.40429165E-01 0.81450250E+02</pdfrwt>
<pdfrwt beam="2">  1       -1 0.76036674E-01 0.81450250E+02</pdfrwt>
<totfact> 0.19500143E+02</totfact>
</mgrwt>
</event>
<event>
 4    1  0.4999097E-001  0.1347577E+03  0.7546771E-02  0.1220562E+00
         -1   -1    0    0    0  501 -0.00000000000E+00  0.00000000000E+00  0.35636892584E+02  0.35636892584E+02  0.00000000000E+00 0.  1.
          1   -1    0    0  501    0  0.00000000000E+00 -0.00000000000E+00 -0.52073260073E+03  0.52073260073E+03  0.00000000000E+00 0. -1.
         24    1    1    2    0    0 -0.62574501331E+02 -0.88186424246E+02 -0.28327023401E+03  0.31369038090E+03  0.80419002446E+02 0.  0.
        -24    1    1    2    0    0  0.62574501331E+02  0.88186424246E+02 -0.20182547413E+03  0.24267911241E+03  0.80419002446E+02 0.  1.
<mgrwt>
<rscale>  0 0.13475769E+03</rscale>
<asrwt>0</asrwt>
<pdfrwt beam="1">  1        1 0.80112702E-01 0.13475770E+03</pdfrwt>
<pdfrwt beam="2">  1       -1 0.54825993E-02 0.13475770E+03</pdfrwt>
<totfact> 0.62879598E+03</totfact>
</mgrwt>
</event>
<event>
 4    1  0.4999097E-001  0.8070001E+02  0.7546771E-02  0.1327077E+00
          2   -1    0    0  501    0  0.00000000000E+00  0.00000000000E+00  0.31484121019E+03  0.31484121019E+03  0.00000000000E+00 0. -1.
         -2   -1    0    0    0  501 -0.00000000000E+00 -0.00000000000E+00 -0.26386424569E+02  0.26386424569E+02  0.00000000000E+00 0.  1.
         24    1    1    2    0    0  0.60375778427E+01 -0.29703645606E+01  0.22353512030E+03  0.23765614104E+03  0.80419002446E+02 0. -1.
        -24    1    1    2    0    0 -0.60375778427E+01  0.29703645606E+01  0.64919665322E+02  0.10357149372E+03  0.80419002446E+02 0.  0.
<mgrwt>
<rscale>  0 0.80700008E+02</rscale>
<asrwt>0</asrwt>
<pdfrwt beam="1">  1        2 0.48437106E-01 0.80700008E+02</pdfrwt>
<pdfrwt beam="2">  1       -2 0.40594502E-02 0.80700008E+02</pdfrwt>
<totfact> 0.24557223E+04</totfact>
</mgrwt>
</event>
<event>
 4    1  0.4999097E-001  0.1083676E+03  0.7546771E-02  0.1263623E+00
         -1   -1    0    0    0  501 -0.00000000000E+00  0.00000000000E+00  0.40061529665E+03  0.40061529665E+03  0.00000000000E+00 0.  1.
          1   -1    0    0  501    0  0.00000000000E+00 -0.00000000000E+00 -0.10089458084E+03  0.10089458084E+03  0.00000000000E+00 0. -1.
         24    1    1    2    0    0 -0.68809524077E+02  0.23271483272E+02  0.36107012831E+03  0.37698165214E+03  0.80419002446E+02 0.  1.
        -24    1    1    2    0    0  0.68809524077E+02 -0.23271483272E+02 -0.61349412503E+02  0.12452822534E+03  0.80419002446E+02 0. -1.
<mgrwt>
<rscale>  0 0.10836756E+03</rscale>
<asrwt>0</asrwt>
<pdfrwt beam="1">  1        1 0.15522243E-01 0.10836756E+03</pdfrwt>
<pdfrwt beam="2">  1       -1 0.61633122E-01 0.10836756E+03</pdfrwt>
<totfact> 0.96539704E+02</totfact>
</mgrwt>
</event>
<event>
 4    1  0.4999097E-001  0.8264211E+02  0.7546771E-02  0.1321716E+00
         -1   -1    0    0    0  501 -0.00000000000E+00  0.00000000000E+00  0.29395317874E+03  0.29395317874E+03  0.00000000000E+00 0.  1.
          1   -1    0    0  501    0  0.00000000000E+00 -0.00000000000E+00 -0.56611283382E+02  0.56611283382E+02  0.00000000000E+00 0. -1.
         24    1    1    2    0    0  0.54753915728E+01  0.18235220260E+02  0.25326059107E+03  0.26640316461E+03  0.80419002446E+02 0.  0.
        -24    1    1    2    0    0 -0.54753915728E+01 -0.18235220260E+02 -0.15918695714E+02  0.84161297509E+02  0.80419002446E+02 0. -1.
<mgrwt>
<rscale>  0 0.82642115E+02</rscale>
<asrwt>0</asrwt>
<pdfrwt beam="1">  1        1 0.87094284E-02 0.82642115E+02</pdfrwt>
<pdfrwt beam="2">  1       -1 0.45223565E-01 0.82642115E+02</pdfrwt>
<totfact> 0.35589692E+03</totfact>
</mgrwt>
</event>
<event>
 4    1  0.4999097E-001  0.8848968E+02  0.7546771E-02  0.1306551E+00
          1   -1    0    0  501    0  0.00000000000E+00  0.00000000000E+00  0.24535488438E+03  0.24535488438E+03  0.00000000000E+00 0. -1.
         -1   -1    0    0    0  501 -0.00000000000E+00 -0.00000000000E+00 -0.32011566175E+02  0.32011566175E+02  0.00000000000E+00 0.  1.
         24    1    1    2    0    0  0.32382062855E+02 -0.17737219002E+02  0.99042108603E+02  0.13281476636E+03  0.80419002446E+02 0.  0.
        -24    1    1    2    0    0 -0.32382062855E+02  0.17737219002E+02  0.11430120960E+03  0.14455168420E+03  0.80419002446E+02 0. -1.
<mgrwt>
<rscale>  0 0.88489677E+02</rscale>
<asrwt>0</asrwt>
<pdfrwt beam="1">  1        1 0.37746904E-01 0.88489677E+02</pdfrwt>
<pdfrwt beam="2">  1       -1 0.49248565E-02 0.88489677E+02</pdfrwt>
<totfact> 0.18201830E+04</totfact>
</mgrwt>
</event>
<event>
 4    1  0.4999097E-001  0.8931672E+02  0.7546771E-02  0.1304515E+00
         -1   -1    0    0    0  501 -0.00000000000E+00  0.00000000000E+00  0.17497709435E+03  0.17497709435E+03  0.00000000000E+00 0.  1.
          1   -1    0    0  501    0  0.00000000000E+00 -0.00000000000E+00 -0.47779182047E+02  0.47779182047E+02  0.00000000000E+00 0. -1.
         24    1    1    2    0    0  0.10258302658E+02  0.37483645243E+02  0.39766416605E+02  0.97769321764E+02  0.80419002446E+02 0. -1.
        -24    1    1    2    0    0 -0.10258302658E+02 -0.37483645243E+02  0.87431495696E+02  0.12498695463E+03  0.80419002446E+02 0. -1.
<mgrwt>
<rscale>  0 0.89316708E+02</rscale>
<asrwt>0</asrwt>
<pdfrwt beam="1">  1        1 0.73506434E-02 0.89316719E+02</pdfrwt>
<pdfrwt beam="2">  1       -1 0.26919553E-01 0.89316719E+02</pdfrwt>
<totfact> 0.10816842E+04</totfact>
</mgrwt>
</event>
<event>
 4    1  0.4999097E-001  0.9006578E+02  0.7546771E-02  0.1302692E+00
          2   -1    0    0  501    0  0.00000000000E+00  0.00000000000E+00  0.91184557113E+03  0.91184557113E+03  0.00000000000E+00 0. -1.
         -2   -1    0    0    0  501 -0.00000000000E+00 -0.00000000000E+00 -0.10120783725E+02  0.10120783725E+02  0.00000000000E+00 0.  1.
         24    1    1    2    0    0 -0.17155288365E+01  0.40517714773E+02  0.61122196059E+03  0.61782208549E+03  0.80419002446E+02 0. -1.
        -24    1    1    2    0    0  0.17155288365E+01 -0.40517714773E+02  0.29050282681E+03  0.30414426937E+03  0.80419002446E+02 0.  1.
<mgrwt>
<rscale>  0 0.90065777E+02</rscale>
<asrwt>0</asrwt>
<pdfrwt beam="1">  1        2 0.14028387E+00 0.90065777E+02</pdfrwt>
<pdfrwt beam="2">  1       -2 0.15570444E-02 0.90065777E+02</pdfrwt>
<totfact> 0.30321297E+04</totfact>
</mgrwt>
</event>
<event>
 4    1  0.4999097E-001  0.8275540E+02  0.7546771E-02  0.1321409E+00
         -1   -1    0    0    0  501 -0.00000000000E+00  0.00000000000E+00  0.64139473267E+02  0.64139473267E+02  0.00000000000E+00 0.  1.
          1   -1    0    0  501    0  0.00000000000E+00 -0.00000000000E+00 -0.19384246829E+03  0.19384246829E+03  0.00000000000E+00 0. -1.
         24    1    1    2    0    0 -0.15711964728E+01 -0.19462036901E+02  0.21598350365E+02  0.85527447241E+02  0.80419002446E+02 0.  1.
        -24    1    1    2    0    0  0.15711964728E+01  0.19462036901E+02 -0.15130134539E+03  0.17245449431E+03  0.80419002446E+02 0. -1.
<mgrwt>
<rscale>  0 0.82755396E+02</rscale>
<asrwt>0</asrwt>
<pdfrwt beam="1">  1        1 0.29821918E-01 0.82755396E+02</pdfrwt>
<pdfrwt beam="2">  1       -1 0.98676113E-02 0.82755396E+02</pdfrwt>
<totfact> 0.86138163E+03</totfact>
</mgrwt>
</event>
<event>
 4    1  0.4999097E-001  0.9265661E+02  0.7546771E-02  0.1296543E+00
         -2   -1    0    0    0  501 -0.00000000000E+00  0.00000000000E+00  0.35105751772E+03  0.35105751772E+03  0.00000000000E+00 0.  1.
          2   -1    0    0  501    0  0.00000000000E+00 -0.00000000000E+00 -0.54596218898E+02  0.54596218898E+02  0.00000000000E+00 0. -1.
         24    1    1    2    0    0 -0.38671068804E+02  0.24951565321E+02 -0.24723185758E+01  0.92689592123E+02  0.80419002446E+02 0. -1.
        -24    1    1    2    0    0  0.38671068804E+02 -0.24951565321E+02  0.29893361739E+03  0.31296414449E+03  0.80419002446E+02 0.  1.
<mgrwt>
<rscale>  0 0.92656614E+02</rscale>
<asrwt>0</asrwt>
<pdfrwt beam="1">  1        2 0.83994185E-02 0.92656614E+02</pdfrwt>
<pdfrwt beam="2">  1       -2 0.54008847E-01 0.92656614E+02</pdfrwt>
<totfact> 0.24636024E+03</totfact>
</mgrwt>
</event>
<event>
 4    1  0.4999097E-001  0.1199764E+03  0.7546771E-02  0.1243136E+00
          1   -1    0    0  501    0  0.00000000000E+00  0.00000000000E+00  0.37707327698E+03  0.37707327698E+03  0.00000000000E+00 0. -1.
         -1   -1    0    0    0  501 -0.00000000000E+00 -0.00000000000E+00 -0.87549732774E+02  0.87549732774E+02  0.00000000000E+00 0.  1.
         24    1    1    2    0    0  0.50183793269E+01 -0.88892781152E+02 -0.29700242555E+02  0.12359786015E+03  0.80419002446E+02 0.  1.
        -24    1    1    2    0    0 -0.50183793269E+01  0.88892781152E+02  0.31922378677E+03  0.34102514961E+03  0.80419002446E+02 0. -1.
<mgrwt>
<rscale>  0 0.11997636E+03</rscale>
<asrwt>0</asrwt>
<pdfrwt beam="1">  1        1 0.58011273E-01 0.11997636E+03</pdfrwt>
<pdfrwt beam="2">  1       -1 0.13469190E-01 0.11997636E+03</pdfrwt>
<totfact> 0.24229308E+03</totfact>
</mgrwt>
</event>
<event>
 4    1  0.4999097E-001  0.9633176E+02  0.7546771E-02  0.1288204E+00
          2   -1    0    0  501    0  0.00000000000E+00  0.00000000000E+00  0.13701744988E+04  0.13701744988E+04  0.00000000000E+00 0. -1.
         -2   -1    0    0    0  501 -0.00000000000E+00 -0.00000000000E+00 -0.67739331784E+01  0.67739331784E+01  0.00000000000E+00 0.  1.
         24    1    1    2    0    0 -0.47169082982E+02  0.24241895487E+02  0.69091497038E+03  0.69759823978E+03  0.80419002446E+02 0. -1.
        -24    1    1    2    0    0  0.47169082982E+02 -0.24241895487E+02  0.67248559523E+03  0.67935019219E+03  0.80419002446E+02 0.  1.
<mgrwt>
<rscale>  0 0.96331759E+02</rscale>
<asrwt>0</asrwt>
<pdfrwt beam="1">  1        2 0.21079586E+00 0.96331759E+02</pdfrwt>
<pdfrwt beam="2">  1       -2 0.10421447E-02 0.96331759E+02</pdfrwt>
<totfact> 0.29950666E+04</totfact>
</mgrwt>
</event>
<event>
 4    1  0.4999097E-001  0.8857277E+02  0.7546771E-02  0.1306345E+00
         -1   -1    0    0    0  501 -0.00000000000E+00  0.00000000000E+00  0.22545941933E+03  0.22545941933E+03  0.00000000000E+00 0.  1.
          1   -1    0    0  501    0  0.00000000000E+00 -0.00000000000E+00 -0.35288098335E+02  0.35288098335E+02  0.00000000000E+00 0. -1.
         24    1    1    2    0    0  0.16609115966E+02  0.33197229610E+02  0.11047806620E+03  0.14159992180E+03  0.80419002446E+02 0.  1.
        -24    1    1    2    0    0 -0.16609115966E+02 -0.33197229610E+02  0.79693254795E+02  0.11914759587E+03  0.80419002446E+02 0. -1.
<mgrwt>
<rscale>  0 0.88572765E+02</rscale>
<asrwt>0</asrwt>
<pdfrwt beam="1">  1        1 0.54289383E-02 0.88572765E+02</pdfrwt>
<pdfrwt beam="2">  1       -1 0.34686064E-01 0.88572765E+02</pdfrwt>
<totfact> 0.10627564E+04</totfact>
</mgrwt>
</event>
<event>
 4    1  0.4999097E-001  0.9713212E+02  0.7546771E-02  0.1286445E+00
          2   -1    0    0  501    0  0.00000000000E+00  0.00000000000E+00  0.41533958117E+03  0.41533958117E+03  0.00000000000E+00 0. -1.
         -2   -1    0    0    0  501 -0.00000000000E+00 -0.00000000000E+00 -0.47636165859E+02  0.47636165859E+02  0.00000000000E+00 0.  1.
         24    1    1    2    0    0 -0.76253881011E+01 -0.53937802277E+02  0.35128414883E+03  0.36446563930E+03  0.80419002446E+02 0. -1.
        -24    1    1    2    0    0  0.76253881011E+01  0.53937802277E+02  0.16419266480E+02  0.98510107726E+02  0.80419002446E+02 0.  1.
<mgrwt>
<rscale>  0 0.97132121E+02</rscale>
<asrwt>0</asrwt>
<pdfrwt beam="1">  1        2 0.63898395E-01 0.97132121E+02</pdfrwt>
<pdfrwt beam="2">  1       -2 0.73286412E-02 0.97132121E+02</pdfrwt>
<totfact> 0.77421424E+03</totfact>
</mgrwt>
</event>
<event>
 4    1  0.4999097E-001  0.9921873E+02  0.7546771E-02  0.1281947E+00
          1   -1    0    0  501    0  0.00000000000E+00  0.00000000000E+00  0.80257036127E+03  0.80257036127E+03  0.00000000000E+00 0. -1.
         -1   -1    0    0    0  501 -0.00000000000E+00 -0.00000000000E+00 -0.12279743153E+02  0.12279743153E+02  0.00000000000E+00 0.  1.
         24    1    1    2    0    0 -0.17588294171E+02 -0.55387616478E+02  0.40876045182E+03  0.42062983617E+03  0.80419002446E+02 0. -1.
        -24    1    1    2    0    0  0.17588294171E+02  0.55387616478E+02  0.38153016630E+03  0.39422026825E+03  0.80419002446E+02 0.  1.
<mgrwt>
<rscale>  0 0.99218721E+02</rscale>
<asrwt>0</asrwt>
<pdfrwt beam="1">  1        1 0.12347232E+00 0.99218733E+02</pdfrwt>
<pdfrwt beam="2">  1       -1 0.18891919E-02 0.99218733E+02</pdfrwt>
<totfact> 0.15878887E+04</totfact>
</mgrwt>
</event>
<event>
 4    1  0.4999097E-001  0.2251522E+03  0.7546771E-02  0.1130099E+00
         -2   -1    0    0    0  501 -0.00000000000E+00  0.00000000000E+00  0.10011472037E+03  0.10011472037E+03  0.00000000000E+00 0.  1.
          2   -1    0    0  501    0  0.00000000000E+00 -0.00000000000E+00 -0.10530172381E+04  0.10530172381E+04  0.00000000000E+00 0. -1.
         24    1    1    2    0    0 -0.17308098815E+03  0.11945409381E+03 -0.89187476339E+03  0.91985548784E+03  0.80419002446E+02 0. -1.
        -24    1    1    2    0    0  0.17308098815E+03 -0.11945409381E+03 -0.61027754312E+02  0.23327647060E+03  0.80419002446E+02 0.  1.
<mgrwt>
<rscale>  0 0.22515223E+03</rscale>
<asrwt>0</asrwt>
<pdfrwt beam="1">  1        2 0.16200265E+00 0.22515223E+03</pdfrwt>
<pdfrwt beam="2">  1       -2 0.15402265E-01 0.22515223E+03</pdfrwt>
<totfact> 0.80269185E+02</totfact>
</mgrwt>
</event>
<event>
 4    1  0.4999097E-001  0.1257143E+03  0.7546771E-02  0.1233957E+00
         -2   -1    0    0    0  501 -0.00000000000E+00  0.00000000000E+00  0.69219606282E+03  0.69219606282E+03  0.00000000000E+00 0.  1.
          2   -1    0    0  501    0  0.00000000000E+00 -0.00000000000E+00 -0.41770278360E+02  0.41770278360E+02  0.00000000000E+00 0. -1.
         24    1    1    2    0    0  0.87030240533E+01 -0.96234699445E+02  0.78105859362E+02  0.14800203116E+03  0.80419002446E+02 0. -1.
        -24    1    1    2    0    0 -0.87030240533E+01  0.96234699445E+02  0.57231992510E+03  0.58596431003E+03  0.80419002446E+02 0.  1.
<mgrwt>
<rscale>  0 0.12571426E+03</rscale>
<asrwt>0</asrwt>
<pdfrwt beam="1">  1        2 0.64261972E-02 0.12571426E+03</pdfrwt>
<pdfrwt beam="2">  1       -2 0.10649169E+00 0.12571426E+03</pdfrwt>
<totfact> 0.81162353E+02</totfact>
</mgrwt>
</event>
<event>
 4    1  0.4999097E-001  0.1170369E+03  0.7546771E-02  0.1248067E+00
         -1   -1    0    0    0  501 -0.00000000000E+00  0.00000000000E+00  0.15872079433E+04  0.15872079433E+04  0.00000000000E+00 0.  1.
          1   -1    0    0  501    0  0.00000000000E+00 -0.00000000000E+00 -0.10650602923E+02  0.10650602923E+02  0.00000000000E+00 0. -1.
         24    1    1    2    0    0  0.66652706687E+02  0.52799920488E+02  0.11362632055E+04  0.11422747932E+04  0.80419002446E+02 0.  0.
        -24    1    1    2    0    0 -0.66652706687E+02 -0.52799920488E+02  0.44029413485E+03  0.45558375306E+03  0.80419002446E+02 0.  1.
<mgrwt>
<rscale>  0 0.11703688E+03</rscale>
<asrwt>0</asrwt>
<pdfrwt beam="1">  1        1 0.16385556E-02 0.11703688E+03</pdfrwt>
<pdfrwt beam="2">  1       -1 0.24418565E+00 0.11703688E+03</pdfrwt>
<totfact> 0.68181679E+02</totfact>
</mgrwt>
</event>
<event>
 4    1  0.4999097E-001  0.8572354E+02  0.7546771E-02  0.1313551E+00
          2   -1    0    0  501    0  0.00000000000E+00  0.00000000000E+00  0.44934651917E+03  0.44934651917E+03  0.00000000000E+00 0. -1.
         -2   -1    0    0    0  501 -0.00000000000E+00 -0.00000000000E+00 -0.27102546197E+02  0.27102546197E+02  0.00000000000E+00 0.  1.
         24    1    1    2    0    0  0.11551960469E+02 -0.27347066749E+02  0.36114580657E+03  0.37118030580E+03  0.80419002446E+02 0. -1.
        -24    1    1    2    0    0 -0.11551960469E+02  0.27347066749E+02  0.61098166403E+02  0.10526875958E+03  0.80419002446E+02 0.  1.
<mgrwt>
<rscale>  0 0.85723543E+02</rscale>
<asrwt>0</asrwt>
<pdfrwt beam="1">  1        2 0.69130228E-01 0.85723543E+02</pdfrwt>
<pdfrwt beam="2">  1       -2 0.41696228E-02 0.85723543E+02</pdfrwt>
<totfact> 0.16369132E+04</totfact>
</mgrwt>
</event>
<event>
 4    1  0.4999097E-001  0.8253398E+02  0.7546771E-02  0.1322010E+00
          1   -1    0    0  501    0  0.00000000000E+00  0.00000000000E+00  0.19207152461E+03  0.19207152461E+03  0.00000000000E+00 0. -1.
         -1   -1    0    0    0  501 -0.00000000000E+00 -0.00000000000E+00 -0.39607252078E+02  0.39607252078E+02  0.00000000000E+00 0.  1.
         24    1    1    2    0    0  0.17947746866E+02 -0.47455087129E+01  0.38771424528E+02  0.91187064789E+02  0.80419002446E+02 0.  1.
        -24    1    1    2    0    0 -0.17947746866E+02  0.47455087129E+01  0.11369284801E+03  0.14049171190E+03  0.80419002446E+02 0.  0.
<mgrwt>
<rscale>  0 0.82533977E+02</rscale>
<asrwt>0</asrwt>
<pdfrwt beam="1">  1        1 0.29549465E-01 0.82533977E+02</pdfrwt>
<pdfrwt beam="2">  1       -1 0.60934235E-02 0.82533977E+02</pdfrwt>
<totfact> 0.17830878E+04</totfact>
</mgrwt>
</event>
<event>
 4    1  0.4999097E-001  0.1169842E+03  0.7546771E-02  0.1248157E+00
         -2   -1    0    0    0  501 -0.00000000000E+00  0.00000000000E+00  0.21089626106E+02  0.21089626106E+02  0.00000000000E+00 0.  1.
          2   -1    0    0  501    0  0.00000000000E+00 -0.00000000000E+00 -0.16100233725E+04  0.16100233725E+04  0.00000000000E+00 0. -1.
         24    1    1    2    0    0 -0.84173137526E+02  0.11531388017E+02 -0.14245892171E+04  0.14293843931E+04  0.80419002446E+02 0. -1.
        -24    1    1    2    0    0  0.84173137526E+02 -0.11531388017E+02 -0.16434452930E+03  0.20172860545E+03  0.80419002446E+02 0.  1.
<mgrwt>
<rscale>  0 0.11698421E+03</rscale>
<asrwt>0</asrwt>
<pdfrwt beam="1">  1        2 0.24769598E+00 0.11698421E+03</pdfrwt>
<pdfrwt beam="2">  1       -2 0.32445569E-02 0.11698421E+03</pdfrwt>
<totfact> 0.44306415E+03</totfact>
</mgrwt>
</event>
<event>
 4    1  0.4999097E-001  0.8095300E+02  0.7546771E-02  0.1326368E+00
         -4   -1    0    0    0  501 -0.00000000000E+00  0.00000000000E+00  0.14509898020E+03  0.14509898020E+03  0.00000000000E+00 0.  1.
          4   -1    0    0  501    0  0.00000000000E+00 -0.00000000000E+00 -0.55217583738E+02  0.55217583738E+02  0.00000000000E+00 0. -1.
         24    1    1    2    0    0 -0.30256113228E+01 -0.87760313201E+01  0.22052783672E+01  0.80983036845E+02  0.80419002446E+02 0.  0.
        -24    1    1    2    0    0  0.30256113228E+01  0.87760313201E+01  0.87676118091E+02  0.11933352709E+03  0.80419002446E+02 0.  1.
<mgrwt>
<rscale>  0 0.80953005E+02</rscale>
<asrwt>0</asrwt>
<pdfrwt beam="1">  1        4 0.84950129E-02 0.80953005E+02</pdfrwt>
<pdfrwt beam="2">  1       -4 0.22322920E-01 0.80953005E+02</pdfrwt>
<totfact> 0.26472463E+03</totfact>
</mgrwt>
</event>
<event>
 4    1  0.4999097E-001  0.9441034E+02  0.7546771E-02  0.1292510E+00
          1   -1    0    0  501    0  0.00000000000E+00  0.00000000000E+00  0.32115218278E+02  0.32115218278E+02  0.00000000000E+00 0. -1.
         -1   -1    0    0    0  501 -0.00000000000E+00 -0.00000000000E+00 -0.28228496699E+03  0.28228496699E+03  0.00000000000E+00 0.  1.
         24    1    1    2    0    0  0.65383144980E+01 -0.49023938588E+02 -0.14546223863E+03  0.17341445998E+03  0.80419002446E+02 0.  0.
        -24    1    1    2    0    0 -0.65383144980E+01  0.49023938588E+02 -0.10470751009E+03  0.14098572528E+03  0.80419002446E+02 0. -1.
<mgrwt>
<rscale>  0 0.94410339E+02</rscale>
<asrwt>0</asrwt>
<pdfrwt beam="1">  1        1 0.49408029E-02 0.94410339E+02</pdfrwt>
<pdfrwt beam="2">  1       -1 0.43428456E-01 0.94410339E+02</pdfrwt>
<totfact> 0.82375201E+03</totfact>
</mgrwt>
</event>
<event>
 4    1  0.4999097E-001  0.8147611E+02  0.7546771E-02  0.1324914E+00
          2   -1    0    0  501    0  0.00000000000E+00  0.00000000000E+00  0.21778424796E+04  0.21778424796E+04  0.00000000000E+00 0. -1.
         -2   -1    0    0    0  501 -0.00000000000E+00 -0.00000000000E+00 -0.16171581926E+02  0.16171581926E+02  0.00000000000E+00 0.  1.
         24    1    1    2    0    0  0.13004790435E+02  0.14200521201E+01  0.20690633790E+04  0.20706669513E+04  0.80419002446E+02 0. -1.
        -24    1    1    2    0    0 -0.13004790435E+02 -0.14200521201E+01  0.92607518700E+02  0.12334711021E+03  0.80419002446E+02 0.  1.
<mgrwt>
<rscale>  0 0.81476114E+02</rscale>
<asrwt>0</asrwt>
<pdfrwt beam="1">  1        2 0.33505246E+00 0.81476114E+02</pdfrwt>
<pdfrwt beam="2">  1       -2 0.24879374E-02 0.81476114E+02</pdfrwt>
<totfact> 0.33513129E+03</totfact>
</mgrwt>
</event>
<event>
 4    1  0.4999097E-001  0.1397685E+03  0.7546771E-02  0.1213641E+00
          1   -1    0    0  501    0  0.00000000000E+00  0.00000000000E+00  0.67384617833E+03  0.67384617833E+03  0.00000000000E+00 0. -1.
         -1   -1    0    0    0  501 -0.00000000000E+00 -0.00000000000E+00 -0.29993759964E+02  0.29993759964E+02  0.00000000000E+00 0.  1.
         24    1    1    2    0    0 -0.34202122057E+02  0.10907896258E+03  0.25756734710E+03  0.29304634357E+03  0.80419002446E+02 0. -1.
        -24    1    1    2    0    0  0.34202122057E+02 -0.10907896258E+03  0.38628507126E+03  0.41079359472E+03  0.80419002446E+02 0.  1.
<mgrwt>
<rscale>  0 0.13976846E+03</rscale>
<asrwt>0</asrwt>
<pdfrwt beam="1">  1        1 0.10366863E+00 0.13976846E+03</pdfrwt>
<pdfrwt beam="2">  1       -1 0.46144251E-02 0.13976846E+03</pdfrwt>
<totfact> 0.57281628E+03</totfact>
</mgrwt>
</event>
<event>
 4    1  0.4999097E-001  0.2242806E+03  0.7546771E-02  0.1130731E+00
          1   -1    0    0  501    0  0.00000000000E+00  0.00000000000E+00  0.71881426102E+03  0.71881426102E+03  0.00000000000E+00 0. -1.
         -1   -1    0    0    0  501 -0.00000000000E+00 -0.00000000000E+00 -0.47654800492E+03  0.47654800492E+03  0.00000000000E+00 0.  1.
         24    1    1    2    0    0 -0.21437625231E+02 -0.20826661326E+03 -0.43092327473E+03  0.48579485241E+03  0.80419002446E+02 0.  1.
        -24    1    1    2    0    0  0.21437625231E+02  0.20826661326E+03  0.67318953083E+03  0.70956741353E+03  0.80419002446E+02 0. -1.
<mgrwt>
<rscale>  0 0.22428056E+03</rscale>
<asrwt>0</asrwt>
<pdfrwt beam="1">  1        1 0.11058681E+00 0.22428056E+03</pdfrwt>
<pdfrwt beam="2">  1       -1 0.73315078E-01 0.22428056E+03</pdfrwt>
<totfact> 0.54438764E+01</totfact>
</mgrwt>
</event>
<event>
 4    1  0.4999097E-001  0.9207489E+02  0.7546771E-02  0.1297903E+00
         -2   -1    0    0    0  501 -0.00000000000E+00  0.00000000000E+00  0.59652809785E+01  0.59652809785E+01  0.00000000000E+00 0.  1.
          2   -1    0    0  501    0  0.00000000000E+00 -0.00000000000E+00 -0.14853764155E+04  0.14853764155E+04  0.00000000000E+00 0. -1.
         24    1    1    2    0    0  0.15702791915E+02  0.41999899394E+02 -0.89471479452E+03  0.89944001952E+03  0.80419002446E+02 0. -1.
        -24    1    1    2    0    0 -0.15702791915E+02 -0.41999899394E+02 -0.58469633998E+03  0.59190167694E+03  0.80419002446E+02 0.  0.
<mgrwt>
<rscale>  0 0.92074889E+02</rscale>
<asrwt>0</asrwt>
<pdfrwt beam="1">  1        2 0.22851928E+00 0.92074889E+02</pdfrwt>
<pdfrwt beam="2">  1       -2 0.91773623E-03 0.92074889E+02</pdfrwt>
<totfact> 0.31143568E+04</totfact>
</mgrwt>
</event>
<event>
 4    1  0.4999097E-001  0.1173647E+03  0.7546771E-02  0.1247509E+00
         -1   -1    0    0    0  501 -0.00000000000E+00  0.00000000000E+00  0.13341978301E+02  0.13341978301E+02  0.00000000000E+00 0.  1.
          1   -1    0    0  501    0  0.00000000000E+00 -0.00000000000E+00 -0.11390593840E+04  0.11390593840E+04  0.00000000000E+00 0. -1.
         24    1    1    2    0    0  0.66375119617E+02 -0.53866494267E+02 -0.73916489854E+03  0.74842449111E+03  0.80419002446E+02 0.  0.
        -24    1    1    2    0    0 -0.66375119617E+02  0.53866494267E+02 -0.38655250714E+03  0.40397687117E+03  0.80419002446E+02 0.  0.
<mgrwt>
<rscale>  0 0.11736471E+03</rscale>
<asrwt>0</asrwt>
<pdfrwt beam="1">  1        1 0.17523995E+00 0.11736472E+03</pdfrwt>
<pdfrwt beam="2">  1       -1 0.20526115E-02 0.11736472E+03</pdfrwt>
<totfact> 0.80412413E+03</totfact>
</mgrwt>
</event>
<event>
 4    1  0.4999097E-001  0.8665076E+02  0.7546771E-02  0.1311171E+00
         -2   -1    0    0    0  501 -0.00000000000E+00  0.00000000000E+00  0.31237369059E+01  0.31237369059E+01  0.00000000000E+00 0.  1.
          2   -1    0    0  501    0  0.00000000000E+00 -0.00000000000E+00 -0.24085797880E+04  0.24085797880E+04  0.00000000000E+00 0. -1.
         24    1    1    2    0    0 -0.19510787994E+02  0.25699549493E+02 -0.12573114800E+04  0.12602938195E+04  0.80419002446E+02 0. -1.
        -24    1    1    2    0    0  0.19510787994E+02 -0.25699549493E+02 -0.11481445711E+04  0.11514097055E+04  0.80419002446E+02 0.  1.
<mgrwt>
<rscale>  0 0.86650757E+02</rscale>
<asrwt>0</asrwt>
<pdfrwt beam="1">  1        2 0.37055303E+00 0.86650757E+02</pdfrwt>
<pdfrwt beam="2">  1       -2 0.48057193E-03 0.86650757E+02</pdfrwt>
<totfact> 0.26271001E+04</totfact>
</mgrwt>
</event>
<event>
 4    1  0.4999097E-001  0.8569855E+02  0.7546771E-02  0.1313616E+00
          2   -1    0    0  501    0  0.00000000000E+00  0.00000000000E+00  0.52488471508E+03  0.52488471508E+03  0.00000000000E+00 0. -1.
         -2   -1    0    0    0  501 -0.00000000000E+00 -0.00000000000E+00 -0.40060433523E+02  0.40060433523E+02  0.00000000000E+00 0.  1.
         24    1    1    2    0    0 -0.18226756208E+02  0.23341169352E+02  0.47027580573E+03  0.47802047471E+03  0.80419002446E+02 0. -1.
        -24    1    1    2    0    0  0.18226756208E+02 -0.23341169352E+02  0.14548475826E+02  0.86924673895E+02  0.80419002446E+02 0.  1.
<mgrwt>
<rscale>  0 0.85698546E+02</rscale>
<asrwt>0</asrwt>
<pdfrwt beam="1">  1        2 0.80751489E-01 0.85698546E+02</pdfrwt>
<pdfrwt beam="2">  1       -2 0.61631440E-02 0.85698546E+02</pdfrwt>
<totfact> 0.77554552E+03</totfact>
</mgrwt>
</event>
<event>
 4    1  0.4999097E-001  0.8438686E+02  0.7546771E-02  0.1317044E+00
          2   -1    0    0  501    0  0.00000000000E+00  0.00000000000E+00  0.11772234710E+02  0.11772234710E+02  0.00000000000E+00 0. -1.
         -2   -1    0    0    0  501 -0.00000000000E+00 -0.00000000000E+00 -0.76353828356E+03  0.76353828356E+03  0.00000000000E+00 0.  1.
         24    1    1    2    0    0  0.18830510624E+02  0.17301402649E+02 -0.19918952579E+03  0.21632755211E+03  0.80419002446E+02 0.  1.
        -24    1    1    2    0    0 -0.18830510624E+02 -0.17301402649E+02 -0.55257652306E+03  0.55898296616E+03  0.80419002446E+02 0.  1.
<mgrwt>
<rscale>  0 0.84386863E+02</rscale>
<asrwt>0</asrwt>
<pdfrwt beam="1">  1        2 0.18111126E-02 0.84386863E+02</pdfrwt>
<pdfrwt beam="2">  1       -2 0.11746745E+00 0.84386863E+02</pdfrwt>
<totfact> 0.33378300E+03</totfact>
</mgrwt>
</event>
<event>
 4    1  0.4999097E-001  0.8863917E+02  0.7546771E-02  0.1306181E+00
         -1   -1    0    0    0  501 -0.00000000000E+00  0.00000000000E+00  0.22795552740E+03  0.22795552740E+03  0.00000000000E+00 0.  1.
          1   -1    0    0  501    0  0.00000000000E+00 -0.00000000000E+00 -0.10383255981E+04  0.10383255981E+04  0.00000000000E+00 0. -1.
         24    1    1    2    0    0 -0.31321427881E+02  0.20215205497E+02  0.21735841410E+03  0.23473726273E+03  0.80419002446E+02 0.  1.
        -24    1    1    2    0    0  0.31321427881E+02 -0.20215205497E+02 -0.10277284849E+04  0.10315438628E+04  0.80419002446E+02 0. -1.
<mgrwt>
<rscale>  0 0.88639169E+02</rscale>
<asrwt>0</asrwt>
<pdfrwt beam="1">  1        1 0.15974240E+00 0.88639169E+02</pdfrwt>
<pdfrwt beam="2">  1       -1 0.35070082E-01 0.88639169E+02</pdfrwt>
<totfact> 0.12584187E+02</totfact>
</mgrwt>
</event>
<event>
 4    1  0.4999097E-001  0.8626686E+02  0.7546771E-02  0.1312152E+00
         -2   -1    0    0    0  501 -0.00000000000E+00  0.00000000000E+00  0.65973878368E+01  0.65973878368E+01  0.00000000000E+00 0.  1.
          2   -1    0    0  501    0  0.00000000000E+00 -0.00000000000E+00 -0.28238560515E+04  0.28238560515E+04  0.00000000000E+00 0. -1.
         24    1    1    2    0    0 -0.24098192651E+02  0.19850234051E+02 -0.25053523566E+04  0.25068371310E+04  0.80419002446E+02 0. -1.
        -24    1    1    2    0    0  0.24098192651E+02 -0.19850234051E+02 -0.31190630702E+03  0.32361630830E+03  0.80419002446E+02 0.  1.
<mgrwt>
<rscale>  0 0.86266857E+02</rscale>
<asrwt>0</asrwt>
<pdfrwt beam="1">  1        2 0.43444063E+00 0.86266857E+02</pdfrwt>
<pdfrwt beam="2">  1       -2 0.10149799E-02 0.86266857E+02</pdfrwt>
<totfact> 0.55167770E+03</totfact>
</mgrwt>
</event>
<event>
 4    1  0.4999097E-001  0.8097278E+02  0.7546771E-02  0.1326313E+00
         -2   -1    0    0    0  501 -0.00000000000E+00  0.00000000000E+00  0.51286045680E+02  0.51286045680E+02  0.00000000000E+00 0.  1.
          2   -1    0    0  501    0  0.00000000000E+00 -0.00000000000E+00 -0.55334566156E+03  0.55334566156E+03  0.00000000000E+00 0. -1.
         24    1    1    2    0    0  0.16014288872E+01 -0.93172141548E+01 -0.51613212221E+03  0.52244517280E+03  0.80419002446E+02 0. -1.
        -24    1    1    2    0    0 -0.16014288872E+01  0.93172141548E+01  0.14072506329E+02  0.82186534437E+02  0.80419002446E+02 0.  1.
<mgrwt>
<rscale>  0 0.80972779E+02</rscale>
<asrwt>0</asrwt>
<pdfrwt beam="1">  1        2 0.85130102E-01 0.80972779E+02</pdfrwt>
<pdfrwt beam="2">  1       -2 0.78901609E-02 0.80972779E+02</pdfrwt>
<totfact> 0.50215695E+03</totfact>
</mgrwt>
</event>
<event>
 4    1  0.4999097E-001  0.9369494E+02  0.7546771E-02  0.1294143E+00
         -2   -1    0    0    0  501 -0.00000000000E+00  0.00000000000E+00  0.91813989645E+01  0.91813989645E+01  0.00000000000E+00 0.  1.
          2   -1    0    0  501    0  0.00000000000E+00 -0.00000000000E+00 -0.10909853754E+04  0.10909853754E+04  0.00000000000E+00 0. -1.
         24    1    1    2    0    0 -0.47952627435E+02  0.34743348573E+01 -0.73429034256E+03  0.74024391157E+03  0.80419002446E+02 0. -1.
        -24    1    1    2    0    0  0.47952627435E+02 -0.34743348573E+01 -0.34751363387E+03  0.35992286280E+03  0.80419002446E+02 0.  0.
<mgrwt>
<rscale>  0 0.93694938E+02</rscale>
<asrwt>0</asrwt>
<pdfrwt beam="1">  1        2 0.16784393E+00 0.93694938E+02</pdfrwt>
<pdfrwt beam="2">  1       -2 0.14125227E-02 0.93694938E+02</pdfrwt>
<totfact> 0.27448706E+04</totfact>
</mgrwt>
</event>
<event>
 4    1  0.4999097E-001  0.9803858E+02  0.7546771E-02  0.1284475E+00
          3   -1    0    0  501    0  0.00000000000E+00  0.00000000000E+00  0.27584463440E+02  0.27584463440E+02  0.00000000000E+00 0. -1.
         -3   -1    0    0    0  501 -0.00000000000E+00 -0.00000000000E+00 -0.53777653092E+03  0.53777653092E+03  0.00000000000E+00 0.  1.
         24    1    1    2    0    0 -0.47275760370E+02  0.30155438742E+02 -0.42282603030E+03  0.43404310369E+03  0.80419002446E+02 0.  1.
        -24    1    1    2    0    0  0.47275760370E+02 -0.30155438742E+02 -0.87366037186E+02  0.13131789068E+03  0.80419002446E+02 0. -1.
<mgrwt>
<rscale>  0 0.98038584E+02</rscale>
<asrwt>0</asrwt>
<pdfrwt beam="1">  1        3 0.42437638E-02 0.98038584E+02</pdfrwt>
<pdfrwt beam="2">  1       -3 0.82734847E-01 0.98038584E+02</pdfrwt>
<totfact> 0.89522427E+02</totfact>
</mgrwt>
</event>
<event>
 4    1  0.4999097E-001  0.8503970E+02  0.7546771E-02  0.1315329E+00
          1   -1    0    0  501    0  0.00000000000E+00  0.00000000000E+00  0.24508846234E+04  0.24508846234E+04  0.00000000000E+00 0. -1.
         -1   -1    0    0    0  501 -0.00000000000E+00 -0.00000000000E+00 -0.84795824271E+01  0.84795824271E+01  0.00000000000E+00 0.  1.
         24    1    1    2    0    0  0.14995763316E+02  0.23230610486E+02  0.22825681838E+03  0.24358350780E+03  0.80419002446E+02 0.  1.
        -24    1    1    2    0    0 -0.14995763316E+02 -0.23230610486E+02  0.22141482226E+04  0.22157806981E+04  0.80419002446E+02 0. -1.
<mgrwt>
<rscale>  0 0.85039697E+02</rscale>
<asrwt>0</asrwt>
<pdfrwt beam="1">  1        1 0.37705861E+00 0.85039697E+02</pdfrwt>
<pdfrwt beam="2">  1       -1 0.13045531E-02 0.85039697E+02</pdfrwt>
<totfact> 0.21969235E+03</totfact>
</mgrwt>
</event>
<event>
 4    1  0.4999097E-001  0.8451210E+02  0.7546771E-02  0.1316713E+00
         -1   -1    0    0    0  501 -0.00000000000E+00  0.00000000000E+00  0.89704281326E+01  0.89704281326E+01  0.00000000000E+00 0.  1.
          1   -1    0    0  501    0  0.00000000000E+00 -0.00000000000E+00 -0.10781022771E+04  0.10781022771E+04  0.00000000000E+00 0. -1.
         24    1    1    2    0    0 -0.13972988919E+02 -0.21905130369E+02 -0.25663014949E+03  0.27018758065E+03  0.80419002446E+02 0.  1.
        -24    1    1    2    0    0  0.13972988919E+02  0.21905130369E+02 -0.81250169945E+03  0.81688512455E+03  0.80419002446E+02 0. -1.
<mgrwt>
<rscale>  0 0.84512100E+02</rscale>
<asrwt>0</asrwt>
<pdfrwt beam="1">  1        1 0.16586188E+00 0.84512100E+02</pdfrwt>
<pdfrwt beam="2">  1       -1 0.13800659E-02 0.84512100E+02</pdfrwt>
<totfact> 0.15274713E+04</totfact>
</mgrwt>
</event>
<event>
 4    1  0.4999097E-001  0.8769530E+02  0.7546771E-02  0.1308531E+00
         -2   -1    0    0    0  501 -0.00000000000E+00  0.00000000000E+00  0.18091932297E+02  0.18091932297E+02  0.00000000000E+00 0.  1.
          2   -1    0    0  501    0  0.00000000000E+00 -0.00000000000E+00 -0.10760128096E+04  0.10760128096E+04  0.00000000000E+00 0. -1.
         24    1    1    2    0    0  0.25835691096E+02  0.23574708461E+02 -0.95445032225E+03  0.95847059600E+03  0.80419002446E+02 0. -1.
        -24    1    1    2    0    0 -0.25835691096E+02 -0.23574708461E+02 -0.10347055505E+03  0.13563414588E+03  0.80419002446E+02 0.  1.
<mgrwt>
<rscale>  0 0.87695301E+02</rscale>
<asrwt>0</asrwt>
<pdfrwt beam="1">  1        2 0.16554046E+00 0.87695301E+02</pdfrwt>
<pdfrwt beam="2">  1       -2 0.27833737E-02 0.87695301E+02</pdfrwt>
<totfact> 0.10510168E+04</totfact>
</mgrwt>
</event>
<event>
 4    1  0.4999097E-001  0.8124920E+02  0.7546771E-02  0.1325543E+00
          1   -1    0    0  501    0  0.00000000000E+00  0.00000000000E+00  0.44505032627E+02  0.44505032627E+02  0.00000000000E+00 0. -1.
         -1   -1    0    0    0  501 -0.00000000000E+00 -0.00000000000E+00 -0.14906936230E+03  0.14906936230E+03  0.00000000000E+00 0.  1.
         24    1    1    2    0    0  0.53596142254E+01 -0.10270732762E+02 -0.45465587703E+02  0.93105043019E+02  0.80419002446E+02 0.  0.
        -24    1    1    2    0    0 -0.53596142254E+01  0.10270732762E+02 -0.59098741973E+02  0.10046935191E+03  0.80419002446E+02 0. -1.
<mgrwt>
<rscale>  0 0.81249191E+02</rscale>
<asrwt>0</asrwt>
<pdfrwt beam="1">  1        1 0.68469284E-02 0.81249201E+02</pdfrwt>
<pdfrwt beam="2">  1       -1 0.22933747E-01 0.81249201E+02</pdfrwt>
<totfact> 0.15257472E+04</totfact>
</mgrwt>
</event>
<event>
 4    1  0.4999097E-001  0.8463851E+02  0.7546771E-02  0.1316381E+00
         -4   -1    0    0    0  501 -0.00000000000E+00  0.00000000000E+00  0.16728989835E+02  0.16728989835E+02  0.00000000000E+00 0.  1.
          4   -1    0    0  501    0  0.00000000000E+00 -0.00000000000E+00 -0.50469942823E+03  0.50469942823E+03  0.00000000000E+00 0. -1.
         24    1    1    2    0    0 -0.62244548697E+01 -0.25646016351E+02 -0.34547500168E+03  0.35569179739E+03  0.80419002446E+02 0. -1.
        -24    1    1    2    0    0  0.62244548697E+01  0.25646016351E+02 -0.14249543672E+03  0.16573662068E+03  0.80419002446E+02 0.  1.
<mgrwt>
<rscale>  0 0.84638513E+02</rscale>
<asrwt>0</asrwt>
<pdfrwt beam="1">  1        4 0.77646080E-01 0.84638513E+02</pdfrwt>
<pdfrwt beam="2">  1       -4 0.25736903E-02 0.84638513E+02</pdfrwt>
<totfact> 0.15336248E+03</totfact>
</mgrwt>
</event>
<event>
 4    1  0.4999097E-001  0.1039175E+03  0.7546771E-02  0.1272267E+00
         -2   -1    0    0    0  501 -0.00000000000E+00  0.00000000000E+00  0.30764053172E+02  0.30764053172E+02  0.00000000000E+00 0.  1.
          2   -1    0    0  501    0  0.00000000000E+00 -0.00000000000E+00 -0.65481832725E+03  0.65481832725E+03  0.00000000000E+00 0. -1.
         24    1    1    2    0    0  0.33277301834E+02  0.56782509564E+02 -0.54551309198E+03  0.55532277252E+03  0.80419002446E+02 0. -1.
        -24    1    1    2    0    0 -0.33277301834E+02 -0.56782509564E+02 -0.78541182098E+02  0.13025960790E+03  0.80419002446E+02 0.  1.
<mgrwt>
<rscale>  0 0.10391751E+03</rscale>
<asrwt>0</asrwt>
<pdfrwt beam="1">  1        2 0.10074128E+00 0.10391751E+03</pdfrwt>
<pdfrwt beam="2">  1       -2 0.47329313E-02 0.10391751E+03</pdfrwt>
<totfact> 0.91122184E+03</totfact>
</mgrwt>
</event>
<event>
 4    1  0.4999097E-001  0.9180420E+02  0.7546771E-02  0.1298540E+00
         -2   -1    0    0    0  501 -0.00000000000E+00  0.00000000000E+00  0.10079259850E+03  0.10079259850E+03  0.00000000000E+00 0.  1.
          2   -1    0    0  501    0  0.00000000000E+00 -0.00000000000E+00 -0.10206688589E+03  0.10206688589E+03  0.00000000000E+00 0. -1.
         24    1    1    2    0    0  0.25878098657E+01 -0.44205193649E+02 -0.43760781871E+02  0.10170062876E+03  0.80419002446E+02 0. -1.
        -24    1    1    2    0    0 -0.25878098657E+01  0.44205193649E+02  0.42486494475E+02  0.10115885563E+03  0.80419002446E+02 0.  1.
<mgrwt>
<rscale>  0 0.91804204E+02</rscale>
<asrwt>0</asrwt>
<pdfrwt beam="1">  1        2 0.15702598E-01 0.91804204E+02</pdfrwt>
<pdfrwt beam="2">  1       -2 0.15506554E-01 0.91804204E+02</pdfrwt>
<totfact> 0.10814728E+04</totfact>
</mgrwt>
</event>
<event>
 4    1  0.4999097E-001  0.8620953E+02  0.7546771E-02  0.1312299E+00
         -2   -1    0    0    0  501 -0.00000000000E+00  0.00000000000E+00  0.26047678945E+01  0.26047678945E+01  0.00000000000E+00 0.  1.
          2   -1    0    0  501    0  0.00000000000E+00 -0.00000000000E+00 -0.49260527642E+04  0.49260527642E+04  0.00000000000E+00 0. -1.
         24    1    1    2    0    0  0.28091207456E+02  0.13257124668E+02 -0.40602765939E+04  0.40611917096E+04  0.80419002446E+02 0. -1.
        -24    1    1    2    0    0 -0.28091207456E+02 -0.13257124668E+02 -0.86317140239E+03  0.86746582247E+03  0.80419002446E+02 0.  1.
<mgrwt>
<rscale>  0 0.86209531E+02</rscale>
<asrwt>0</asrwt>
<pdfrwt beam="1">  1        2 0.75784070E+00 0.86209531E+02</pdfrwt>
<pdfrwt beam="2">  1       -2 0.40074070E-03 0.86209531E+02</pdfrwt>
<totfact> 0.54838936E+02</totfact>
</mgrwt>
</event>
<event>
 4    1  0.4999097E-001  0.1019442E+03  0.7546771E-02  0.1276260E+00
          2   -1    0    0  501    0  0.00000000000E+00  0.00000000000E+00  0.11781392462E+03  0.11781392462E+03  0.00000000000E+00 0. -1.
         -2   -1    0    0    0  501 -0.00000000000E+00 -0.00000000000E+00 -0.93908592237E+02  0.93908592237E+02  0.00000000000E+00 0.  1.
         24    1    1    2    0    0  0.39841667271E+02 -0.48353268671E+02  0.38025508020E+02  0.10880511135E+03  0.80419002446E+02 0.  1.
        -24    1    1    2    0    0 -0.39841667271E+02  0.48353268671E+02 -0.14120175633E+02  0.10291740551E+03  0.80419002446E+02 0. -1.
<mgrwt>
<rscale>  0 0.10194417E+03</rscale>
<asrwt>0</asrwt>
<pdfrwt beam="1">  1        2 0.18125219E-01 0.10194417E+03</pdfrwt>
<pdfrwt beam="2">  1       -2 0.14447476E-01 0.10194417E+03</pdfrwt>
<totfact> 0.10394345E+04</totfact>
</mgrwt>
</event>
<event>
 4    1  0.4999097E-001  0.1286508E+03  0.7546771E-02  0.1229472E+00
         -1   -1    0    0    0  501 -0.00000000000E+00  0.00000000000E+00  0.22858718965E+02  0.22858718965E+02  0.00000000000E+00 0.  1.
          1   -1    0    0  501    0  0.00000000000E+00 -0.00000000000E+00 -0.75613806940E+03  0.75613806940E+03  0.00000000000E+00 0. -1.
         24    1    1    2    0    0  0.77350309663E+02  0.64036953386E+02 -0.28641114008E+03  0.31397827779E+03  0.80419002446E+02 0. -1.
        -24    1    1    2    0    0 -0.77350309663E+02 -0.64036953386E+02 -0.44686821035E+03  0.46501851058E+03  0.80419002446E+02 0.  1.
<mgrwt>
<rscale>  0 0.12865076E+03</rscale>
<asrwt>0</asrwt>
<pdfrwt beam="1">  1        1 0.11632892E+00 0.12865076E+03</pdfrwt>
<pdfrwt beam="2">  1       -1 0.35167264E-02 0.12865076E+03</pdfrwt>
<totfact> 0.71996151E+03</totfact>
</mgrwt>
</event>
<event>
 4    1  0.4999097E-001  0.8592797E+02  0.7546771E-02  0.1313024E+00
          2   -1    0    0  501    0  0.00000000000E+00  0.00000000000E+00  0.51679574820E+03  0.51679574820E+03  0.00000000000E+00 0. -1.
         -2   -1    0    0    0  501 -0.00000000000E+00 -0.00000000000E+00 -0.14689611224E+02  0.14689611224E+02  0.00000000000E+00 0.  1.
         24    1    1    2    0    0  0.10446268237E+02  0.28412533677E+02  0.20707453623E+03  0.22419517413E+03  0.80419002446E+02 0.  1.
        -24    1    1    2    0    0 -0.10446268237E+02 -0.28412533677E+02  0.29503160074E+03  0.30729018529E+03  0.80419002446E+02 0. -1.
<mgrwt>
<rscale>  0 0.85927960E+02</rscale>
<asrwt>0</asrwt>
<pdfrwt beam="1">  1        2 0.79507024E-01 0.85927971E+02</pdfrwt>
<pdfrwt beam="2">  1       -2 0.22599406E-02 0.85927971E+02</pdfrwt>
<totfact> 0.34324802E+04</totfact>
</mgrwt>
</event>
<event>
 4    1  0.4999097E-001  0.9471009E+02  0.7546771E-02  0.1291830E+00
          2   -1    0    0  501    0  0.00000000000E+00  0.00000000000E+00  0.12566267812E+04  0.12566267812E+04  0.00000000000E+00 0. -1.
         -2   -1    0    0    0  501 -0.00000000000E+00 -0.00000000000E+00 -0.21474470514E+02  0.21474470514E+02  0.00000000000E+00 0.  1.
         24    1    1    2    0    0 -0.33532749140E+02 -0.37126005737E+02  0.11397231106E+04  0.11436515074E+04  0.80419002446E+02 0. -1.
        -24    1    1    2    0    0  0.33532749140E+02  0.37126005737E+02  0.95429200106E+02  0.13444974434E+03  0.80419002446E+02 0.  1.
<mgrwt>
<rscale>  0 0.94710092E+02</rscale>
<asrwt>0</asrwt>
<pdfrwt beam="1">  1        2 0.19332714E+00 0.94710092E+02</pdfrwt>
<pdfrwt beam="2">  1       -2 0.33037657E-02 0.94710092E+02</pdfrwt>
<totfact> 0.65455212E+03</totfact>
</mgrwt>
</event>
<event>
 4    1  0.4999097E-001  0.8529846E+02  0.7546771E-02  0.1314654E+00
         -2   -1    0    0    0  501 -0.00000000000E+00  0.00000000000E+00  0.12251582824E+02  0.12251582824E+02  0.00000000000E+00 0.  1.
          2   -1    0    0  501    0  0.00000000000E+00 -0.00000000000E+00 -0.64274693585E+03  0.64274693585E+03  0.00000000000E+00 0. -1.
         24    1    1    2    0    0  0.22990120739E+02  0.16735046819E+02 -0.22493451671E+03  0.24056466949E+03  0.80419002446E+02 0.  1.
        -24    1    1    2    0    0 -0.22990120739E+02 -0.16735046819E+02 -0.40556083632E+03  0.41443384919E+03  0.80419002446E+02 0. -1.
<mgrwt>
<rscale>  0 0.85298448E+02</rscale>
<asrwt>0</asrwt>
<pdfrwt beam="1">  1        2 0.98884135E-01 0.85298459E+02</pdfrwt>
<pdfrwt beam="2">  1       -2 0.18848591E-02 0.85298459E+02</pdfrwt>
<totfact> 0.34953210E+04</totfact>
</mgrwt>
</event>
<event>
 4    1  0.4999097E-001  0.8486630E+02  0.7546771E-02  0.1315783E+00
         -4   -1    0    0    0  501 -0.00000000000E+00  0.00000000000E+00  0.23678679568E+03  0.23678679568E+03  0.00000000000E+00 0.  1.
          4   -1    0    0  501    0  0.00000000000E+00 -0.00000000000E+00 -0.33402254273E+02  0.33402254273E+02  0.00000000000E+00 0. -1.
         24    1    1    2    0    0  0.11382500678E+01 -0.27088314036E+02  0.61303780800E+02  0.10469212896E+03  0.80419002446E+02 0. -1.
        -24    1    1    2    0    0 -0.11382500678E+01  0.27088314036E+02  0.14208076060E+03  0.16549692100E+03  0.80419002446E+02 0.  1.
<mgrwt>
<rscale>  0 0.84866297E+02</rscale>
<asrwt>0</asrwt>
<pdfrwt beam="1">  1        4 0.51388085E-02 0.84866297E+02</pdfrwt>
<pdfrwt beam="2">  1       -4 0.36428737E-01 0.84866297E+02</pdfrwt>
<totfact> 0.24349943E+03</totfact>
</mgrwt>
</event>
<event>
 4    1  0.4999097E-001  0.9009061E+02  0.7546771E-02  0.1302632E+00
         -2   -1    0    0    0  501 -0.00000000000E+00  0.00000000000E+00  0.40361567591E+01  0.40361567591E+01  0.00000000000E+00 0.  1.
          2   -1    0    0  501    0  0.00000000000E+00 -0.00000000000E+00 -0.20416743010E+04  0.20416743010E+04  0.00000000000E+00 0. -1.
         24    1    1    2    0    0  0.59071782169E+01 -0.40177151347E+02 -0.89324396795E+03  0.89777564039E+03  0.80419002446E+02 0.  0.
        -24    1    1    2    0    0 -0.59071782169E+01  0.40177151347E+02 -0.11443941763E+04  0.11479348174E+04  0.80419002446E+02 0.  0.
<mgrwt>
<rscale>  0 0.90090600E+02</rscale>
<asrwt>0</asrwt>
<pdfrwt beam="1">  1        2 0.31410322E+00 0.90090611E+02</pdfrwt>
<pdfrwt beam="2">  1       -2 0.62094822E-03 0.90090611E+02</pdfrwt>
<totfact> 0.28282584E+04</totfact>
</mgrwt>
</event>
<event>
 4    1  0.4999097E-001  0.8533937E+02  0.7546771E-02  0.1314547E+00
         -2   -1    0    0    0  501 -0.00000000000E+00  0.00000000000E+00  0.20327255163E+03  0.20327255163E+03  0.00000000000E+00 0.  1.
          2   -1    0    0  501    0  0.00000000000E+00 -0.00000000000E+00 -0.92512397627E+03  0.92512397627E+03  0.00000000000E+00 0. -1.
         24    1    1    2    0    0 -0.27269891475E+02 -0.84820404901E+01 -0.91409109011E+03  0.91806608093E+03  0.80419002446E+02 0. -1.
        -24    1    1    2    0    0  0.27269891475E+02  0.84820404901E+01  0.19223966546E+03  0.21033044697E+03  0.80419002446E+02 0.  1.
<mgrwt>
<rscale>  0 0.85339369E+02</rscale>
<asrwt>0</asrwt>
<pdfrwt beam="1">  1        2 0.14232677E+00 0.85339369E+02</pdfrwt>
<pdfrwt beam="2">  1       -2 0.31272700E-01 0.85339369E+02</pdfrwt>
<totfact> 0.28913875E+02</totfact>
</mgrwt>
</event>
<event>
 4    1  0.4999097E-001  0.9461002E+02  0.7546771E-02  0.1292057E+00
          2   -1    0    0  501    0  0.00000000000E+00  0.00000000000E+00  0.18861915137E+04  0.18861915137E+04  0.00000000000E+00 0. -1.
         -2   -1    0    0    0  501 -0.00000000000E+00 -0.00000000000E+00 -0.83861648148E+01  0.83861648148E+01  0.00000000000E+00 0.  1.
         24    1    1    2    0    0  0.36614954390E+02  0.33811017199E+02  0.15630496036E+04  0.15659103164E+04  0.80419002446E+02 0.  0.
        -24    1    1    2    0    0 -0.36614954390E+02 -0.33811017199E+02  0.31475574529E+03  0.32866736211E+03  0.80419002446E+02 0.  0.
<mgrwt>
<rscale>  0 0.94610019E+02</rscale>
<asrwt>0</asrwt>
<pdfrwt beam="1">  1        2 0.29018297E+00 0.94610019E+02</pdfrwt>
<pdfrwt beam="2">  1       -2 0.12901807E-02 0.94610019E+02</pdfrwt>
<totfact> 0.12075335E+04</totfact>
</mgrwt>
</event>
<event>
 4    1  0.4999097E-001  0.8065768E+02  0.7546771E-02  0.1327195E+00
          2   -1    0    0  501    0  0.00000000000E+00  0.00000000000E+00  0.22397201425E+03  0.22397201425E+03  0.00000000000E+00 0. -1.
         -2   -1    0    0    0  501 -0.00000000000E+00 -0.00000000000E+00 -0.29170596761E+02  0.29170596761E+02  0.00000000000E+00 0.  1.
         24    1    1    2    0    0  0.18523663868E+01 -0.59172389420E+01  0.10564760674E+03  0.13291755995E+03  0.80419002446E+02 0.  0.
        -24    1    1    2    0    0 -0.18523663868E+01  0.59172389420E+01  0.89153810744E+02  0.12022505106E+03  0.80419002446E+02 0.  0.
<mgrwt>
<rscale>  0 0.80657677E+02</rscale>
<asrwt>0</asrwt>
<pdfrwt beam="1">  1        2 0.34457232E-01 0.80657677E+02</pdfrwt>
<pdfrwt beam="2">  1       -2 0.44877843E-02 0.80657677E+02</pdfrwt>
<totfact> 0.30242655E+04</totfact>
</mgrwt>
</event>
<event>
 4    1  0.4999097E-001  0.9078359E+02  0.7546771E-02  0.1300965E+00
         -2   -1    0    0    0  501 -0.00000000000E+00  0.00000000000E+00  0.52046552526E+02  0.52046552526E+02  0.00000000000E+00 0.  1.
          2   -1    0    0  501    0  0.00000000000E+00 -0.00000000000E+00 -0.44158197588E+03  0.44158197588E+03  0.00000000000E+00 0. -1.
         24    1    1    2    0    0  0.33668477946E+02 -0.25315568552E+02 -0.39243482474E+03  0.40279864951E+03  0.80419002446E+02 0. -1.
        -24    1    1    2    0    0 -0.33668477946E+02  0.25315568552E+02  0.28994013888E+01  0.90829878901E+02  0.80419002446E+02 0.  1.
<mgrwt>
<rscale>  0 0.90783591E+02</rscale>
<asrwt>0</asrwt>
<pdfrwt beam="1">  1        2 0.67935691E-01 0.90783591E+02</pdfrwt>
<pdfrwt beam="2">  1       -2 0.80071616E-02 0.90783591E+02</pdfrwt>
<totfact> 0.63085191E+03</totfact>
</mgrwt>
</event>
<event>
 4    1  0.4999097E-001  0.1126682E+03  0.7546771E-02  0.1255707E+00
          1   -1    0    0  501    0  0.00000000000E+00  0.00000000000E+00  0.44694258335E+02  0.44694258335E+02  0.00000000000E+00 0. -1.
         -1   -1    0    0    0  501 -0.00000000000E+00 -0.00000000000E+00 -0.28668006723E+03  0.28668006723E+03  0.00000000000E+00 0.  1.
         24    1    1    2    0    0 -0.71680671317E+02  0.32996883665E+02 -0.13694862548E+03  0.17733881399E+03  0.80419002446E+02 0.  1.
        -24    1    1    2    0    0  0.71680671317E+02 -0.32996883665E+02 -0.10503718342E+03  0.15403551158E+03  0.80419002446E+02 0. -1.
<mgrwt>
<rscale>  0 0.11266823E+03</rscale>
<asrwt>0</asrwt>
<pdfrwt beam="1">  1        1 0.68760396E-02 0.11266823E+03</pdfrwt>
<pdfrwt beam="2">  1       -1 0.44104627E-01 0.11266823E+03</pdfrwt>
<totfact> 0.52097849E+03</totfact>
</mgrwt>
</event>
<event>
 4    1  0.4999097E-001  0.8982027E+02  0.7546771E-02  0.1303288E+00
         -2   -1    0    0    0  501 -0.00000000000E+00  0.00000000000E+00  0.76904074428E+01  0.76904074428E+01  0.00000000000E+00 0.  1.
          2   -1    0    0  501    0  0.00000000000E+00 -0.00000000000E+00 -0.12055990226E+04  0.12055990226E+04  0.00000000000E+00 0. -1.
         24    1    1    2    0    0 -0.39899091080E+02 -0.29200353540E+01 -0.81755305811E+03  0.82247229914E+03  0.80419002446E+02 0. -1.
        -24    1    1    2    0    0  0.39899091080E+02  0.29200353540E+01 -0.38035555707E+03  0.39081713092E+03  0.80419002446E+02 0.  1.
<mgrwt>
<rscale>  0 0.89820265E+02</rscale>
<asrwt>0</asrwt>
<pdfrwt beam="1">  1        2 0.18547688E+00 0.89820265E+02</pdfrwt>
<pdfrwt beam="2">  1       -2 0.11831389E-02 0.89820265E+02</pdfrwt>
<totfact> 0.30409337E+04</totfact>
</mgrwt>
</event>
<event>
 4    1  0.4999097E-001  0.8243298E+02  0.7546771E-02  0.1322285E+00
         -2   -1    0    0    0  501 -0.00000000000E+00  0.00000000000E+00  0.56120950951E+02  0.56120950951E+02  0.00000000000E+00 0.  1.
          2   -1    0    0  501    0  0.00000000000E+00 -0.00000000000E+00 -0.10582137553E+04  0.10582137553E+04  0.00000000000E+00 0. -1.
         24    1    1    2    0    0 -0.16040516942E+02 -0.84072393690E+01 -0.10253700642E+04  0.10286782609E+04  0.80419002446E+02 0. -1.
        -24    1    1    2    0    0  0.16040516942E+02  0.84072393690E+01  0.23277259845E+02  0.85656445396E+02  0.80419002446E+02 0.  1.
<mgrwt>
<rscale>  0 0.82432978E+02</rscale>
<asrwt>0</asrwt>
<pdfrwt beam="1">  1        2 0.16280211E+00 0.82432978E+02</pdfrwt>
<pdfrwt beam="2">  1       -2 0.86339926E-02 0.82432978E+02</pdfrwt>
<totfact> 0.19983566E+03</totfact>
</mgrwt>
</event>
<event>
 4    1  0.4999097E-001  0.8157386E+02  0.7546771E-02  0.1324643E+00
          1   -1    0    0  501    0  0.00000000000E+00  0.00000000000E+00  0.16039645257E+03  0.16039645257E+03  0.00000000000E+00 0. -1.
         -1   -1    0    0    0  501 -0.00000000000E+00 -0.00000000000E+00 -0.19899191100E+03  0.19899191100E+03  0.00000000000E+00 0.  1.
         24    1    1    2    0    0  0.89048877710E+01 -0.10381813672E+02 -0.17916662598E+03  0.19686283271E+03  0.80419002446E+02 0.  0.
        -24    1    1    2    0    0 -0.89048877710E+01  0.10381813672E+02  0.14057116755E+03  0.16252553086E+03  0.80419002446E+02 0. -1.
<mgrwt>
<rscale>  0 0.81573862E+02</rscale>
<asrwt>0</asrwt>
<pdfrwt beam="1">  1        1 0.24676377E-01 0.81573862E+02</pdfrwt>
<pdfrwt beam="2">  1       -1 0.30614140E-01 0.81573862E+02</pdfrwt>
<totfact> 0.18356606E+03</totfact>
</mgrwt>
</event>
<event>
 4    1  0.4999097E-001  0.2577947E+03  0.7546771E-02  0.1108476E+00
         -2   -1    0    0    0  501 -0.00000000000E+00  0.00000000000E+00  0.39122626329E+02  0.39122626329E+02  0.00000000000E+00 0.  1.
          2   -1    0    0  501    0  0.00000000000E+00 -0.00000000000E+00 -0.21360585645E+04  0.21360585645E+04  0.00000000000E+00 0. -1.
         24    1    1    2    0    0 -0.22312602516E+03  0.10102282461E+03 -0.55634680975E+03  0.61317193581E+03  0.80419002446E+02 0.  1.
        -24    1    1    2    0    0  0.22312602516E+03 -0.10102282461E+03 -0.15405891284E+04  0.15620092550E+04  0.80419002446E+02 0. -1.
<mgrwt>
<rscale>  0 0.25779462E+03</rscale>
<asrwt>0</asrwt>
<pdfrwt beam="1">  1        2 0.32862447E+00 0.25779465E+03</pdfrwt>
<pdfrwt beam="2">  1       -2 0.60188642E-02 0.25779465E+03</pdfrwt>
<totfact> 0.92927026E+02</totfact>
</mgrwt>
</event>
<event>
 4    1  0.4999097E-001  0.8143106E+02  0.7546771E-02  0.1325039E+00
          1   -1    0    0  501    0  0.00000000000E+00  0.00000000000E+00  0.76902534745E+02  0.76902534745E+02  0.00000000000E+00 0. -1.
         -1   -1    0    0    0  501 -0.00000000000E+00 -0.00000000000E+00 -0.91450037400E+02  0.91450037400E+02  0.00000000000E+00 0.  1.
         24    1    1    2    0    0 -0.11255581587E+02 -0.60918484321E+01  0.12844578029E+02  0.82437842483E+02  0.80419002446E+02 0.  0.
        -24    1    1    2    0    0  0.11255581587E+02  0.60918484321E+01 -0.27392080684E+02  0.85914729661E+02  0.80419002446E+02 0.  0.
<mgrwt>
<rscale>  0 0.81431053E+02</rscale>
<asrwt>0</asrwt>
<pdfrwt beam="1">  1        1 0.11831159E-01 0.81431063E+02</pdfrwt>
<pdfrwt beam="2">  1       -1 0.14069236E-01 0.81431063E+02</pdfrwt>
<totfact> 0.16031130E+04</totfact>
</mgrwt>
</event>
<event>
 4    1  0.4999097E-001  0.8445140E+02  0.7546771E-02  0.1316873E+00
         -2   -1    0    0    0  501 -0.00000000000E+00  0.00000000000E+00  0.54790752306E+01  0.54790752306E+01  0.00000000000E+00 0.  1.
          2   -1    0    0  501    0  0.00000000000E+00 -0.00000000000E+00 -0.13583418978E+04  0.13583418978E+04  0.00000000000E+00 0. -1.
         24    1    1    2    0    0 -0.38498794352E+00  0.25781217453E+02 -0.53716528117E+03  0.54376334434E+03  0.80419002446E+02 0.  1.
        -24    1    1    2    0    0  0.38498794352E+00 -0.25781217453E+02 -0.81569754139E+03  0.82005762870E+03  0.80419002446E+02 0. -1.
<mgrwt>
<rscale>  0 0.84451389E+02</rscale>
<asrwt>0</asrwt>
<pdfrwt beam="1">  1        2 0.20897583E+00 0.84451400E+02</pdfrwt>
<pdfrwt beam="2">  1       -2 0.84293403E-03 0.84451400E+02</pdfrwt>
<totfact> 0.40516483E+04</totfact>
</mgrwt>
</event>
<event>
 4    1  0.4999097E-001  0.8163121E+02  0.7546771E-02  0.1324485E+00
          2   -1    0    0  501    0  0.00000000000E+00  0.00000000000E+00  0.57457659950E+03  0.57457659950E+03  0.00000000000E+00 0. -1.
         -2   -1    0    0    0  501 -0.00000000000E+00 -0.00000000000E+00 -0.43441551953E+02  0.43441551953E+02  0.00000000000E+00 0.  1.
         24    1    1    2    0    0  0.13217468787E+02  0.46623505021E+01  0.53013271112E+03  0.53638078484E+03  0.80419002446E+02 0. -1.
        -24    1    1    2    0    0 -0.13217468787E+02 -0.46623505021E+01  0.10023364201E+01  0.81637366604E+02  0.80419002446E+02 0.  1.
<mgrwt>
<rscale>  0 0.81631213E+02</rscale>
<asrwt>0</asrwt>
<pdfrwt beam="1">  1        2 0.88396395E-01 0.81631213E+02</pdfrwt>
<pdfrwt beam="2">  1       -2 0.66833161E-02 0.81631213E+02</pdfrwt>
<totfact> 0.61977435E+03</totfact>
</mgrwt>
</event>
<event>
 4    1  0.4999097E-001  0.8460393E+02  0.7546771E-02  0.1316472E+00
          2   -1    0    0  501    0  0.00000000000E+00  0.00000000000E+00  0.17966368433E+04  0.17966368433E+04  0.00000000000E+00 0. -1.
         -2   -1    0    0    0  501 -0.00000000000E+00 -0.00000000000E+00 -0.54200469162E+01  0.54200469162E+01  0.00000000000E+00 0.  1.
         24    1    1    2    0    0 -0.20452172943E+02  0.16502054889E+02  0.13593961512E+04  0.13620263290E+04  0.80419002446E+02 0. -1.
        -24    1    1    2    0    0  0.20452172943E+02 -0.16502054889E+02  0.43182064526E+03  0.44003056124E+03  0.80419002446E+02 0.  1.
<mgrwt>
<rscale>  0 0.84603931E+02</rscale>
<asrwt>0</asrwt>
<pdfrwt beam="1">  1        2 0.27640519E+00 0.84603931E+02</pdfrwt>
<pdfrwt beam="2">  1       -2 0.83385480E-03 0.84603931E+02</pdfrwt>
<totfact> 0.24674405E+04</totfact>
</mgrwt>
</event>
<event>
 4    1  0.4999097E-001  0.8321510E+02  0.7546771E-02  0.1320167E+00
         -2   -1    0    0    0  501 -0.00000000000E+00  0.00000000000E+00  0.67300262204E+03  0.67300262204E+03  0.00000000000E+00 0.  1.
          2   -1    0    0  501    0  0.00000000000E+00 -0.00000000000E+00 -0.31590225699E+02  0.31590225699E+02  0.00000000000E+00 0. -1.
         24    1    1    2    0    0 -0.19870872617E+02  0.79173678504E+01  0.31418004541E+02  0.88948542742E+02  0.80419002446E+02 0. -1.
        -24    1    1    2    0    0  0.19870872617E+02 -0.79173678504E+01  0.60999439180E+03  0.61564430500E+03  0.80419002446E+02 0.  1.
<mgrwt>
<rscale>  0 0.83215096E+02</rscale>
<asrwt>0</asrwt>
<pdfrwt beam="1">  1        2 0.48600352E-02 0.83215096E+02</pdfrwt>
<pdfrwt beam="2">  1       -2 0.10353885E+00 0.83215096E+02</pdfrwt>
<totfact> 0.12122263E+03</totfact>
</mgrwt>
</event>
<event>
 4    1  0.4999097E-001  0.8309801E+02  0.7546771E-02  0.1320483E+00
         -4   -1    0    0    0  501 -0.00000000000E+00  0.00000000000E+00  0.17360141756E+02  0.17360141756E+02  0.00000000000E+00 0.  1.
          4   -1    0    0  501    0  0.00000000000E+00 -0.00000000000E+00 -0.40909165017E+03  0.40909165017E+03  0.00000000000E+00 0. -1.
         24    1    1    2    0    0 -0.20056215281E+02 -0.59839812054E+01 -0.16038772944E+03  0.18063637372E+03  0.80419002446E+02 0.  0.
        -24    1    1    2    0    0  0.20056215281E+02  0.59839812054E+01 -0.23134377898E+03  0.24581541821E+03  0.80419002446E+02 0.  0.
<mgrwt>
<rscale>  0 0.83097999E+02</rscale>
<asrwt>0</asrwt>
<pdfrwt beam="1">  1        4 0.62937170E-01 0.83098010E+02</pdfrwt>
<pdfrwt beam="2">  1       -4 0.26707913E-02 0.83098010E+02</pdfrwt>
<totfact> 0.22562649E+03</totfact>
</mgrwt>
</event>
<event>
 4    1  0.4999097E-001  0.9470880E+02  0.7546771E-02  0.1291833E+00
          2   -1    0    0  501    0  0.00000000000E+00  0.00000000000E+00  0.78209967548E+03  0.78209967548E+03  0.00000000000E+00 0. -1.
         -2   -1    0    0    0  501 -0.00000000000E+00 -0.00000000000E+00 -0.69201967528E+02  0.69201967528E+02  0.00000000000E+00 0.  1.
         24    1    1    2    0    0  0.49573992020E+02  0.67051877627E+01  0.74523151920E+03  0.75122551433E+03  0.80419002446E+02 0. -1.
        -24    1    1    2    0    0 -0.49573992020E+02 -0.67051877627E+01 -0.32333811240E+02  0.10007612868E+03  0.80419002446E+02 0.  1.
<mgrwt>
<rscale>  0 0.94708797E+02</rscale>
<asrwt>0</asrwt>
<pdfrwt beam="1">  1        2 0.12032302E+00 0.94708797E+02</pdfrwt>
<pdfrwt beam="2">  1       -2 0.10646457E-01 0.94708797E+02</pdfrwt>
<totfact> 0.21421179E+03</totfact>
</mgrwt>
</event>
<event>
 4    1  0.4999097E-001  0.1379325E+03  0.7546771E-02  0.1216138E+00
         -1   -1    0    0    0  501 -0.00000000000E+00  0.00000000000E+00  0.49094442665E+02  0.49094442665E+02  0.00000000000E+00 0.  1.
          1   -1    0    0  501    0  0.00000000000E+00 -0.00000000000E+00 -0.18117182490E+04  0.18117182490E+04  0.00000000000E+00 0. -1.
         24    1    1    2    0    0  0.95096047377E+02  0.59286625349E+02 -0.56392293983E+02  0.14901499571E+03  0.80419002446E+02 0.  1.
        -24    1    1    2    0    0 -0.95096047377E+02 -0.59286625349E+02 -0.17062315123E+04  0.17117976959E+04  0.80419002446E+02 0. -1.
<mgrwt>
<rscale>  0 0.13793251E+03</rscale>
<asrwt>0</asrwt>
<pdfrwt beam="1">  1        1 0.27872585E+00 0.13793251E+03</pdfrwt>
<pdfrwt beam="2">  1       -1 0.75529922E-02 0.13793251E+03</pdfrwt>
<totfact> 0.43253623E+02</totfact>
</mgrwt>
</event>
<event>
 4    1  0.4999097E-001  0.9564076E+02  0.7546771E-02  0.1289739E+00
          1   -1    0    0  501    0  0.00000000000E+00  0.00000000000E+00  0.97892835437E+03  0.97892835437E+03  0.00000000000E+00 0. -1.
         -1   -1    0    0    0  501 -0.00000000000E+00 -0.00000000000E+00 -0.97166937407E+01  0.97166937407E+01  0.00000000000E+00 0.  1.
         24    1    1    2    0    0  0.36045985264E+02 -0.37156770207E+02  0.38780064978E+03  0.39942020298E+03  0.80419002446E+02 0.  1.
        -24    1    1    2    0    0 -0.36045985264E+02  0.37156770207E+02  0.58141101085E+03  0.58922484513E+03  0.80419002446E+02 0. -1.
<mgrwt>
<rscale>  0 0.95640758E+02</rscale>
<asrwt>0</asrwt>
<pdfrwt beam="1">  1        1 0.15060428E+00 0.95640758E+02</pdfrwt>
<pdfrwt beam="2">  1       -1 0.14948767E-02 0.95640758E+02</pdfrwt>
<totfact> 0.16206403E+04</totfact>
</mgrwt>
</event>
<event>
 4    1  0.4999097E-001  0.8237474E+02  0.7546771E-02  0.1322444E+00
         -1   -1    0    0    0  501 -0.00000000000E+00  0.00000000000E+00  0.84578249416E+02  0.84578249416E+02  0.00000000000E+00 0.  1.
          1   -1    0    0  501    0  0.00000000000E+00 -0.00000000000E+00 -0.22086091975E+03  0.22086091975E+03  0.00000000000E+00 0. -1.
         24    1    1    2    0    0  0.10591640435E+02 -0.14359610020E+02  0.53723335050E+02  0.98345279146E+02  0.80419002446E+02 0.  1.
        -24    1    1    2    0    0 -0.10591640435E+02  0.14359610020E+02 -0.19000600539E+03  0.20709389002E+03  0.80419002446E+02 0. -1.
<mgrwt>
<rscale>  0 0.82374736E+02</rscale>
<asrwt>0</asrwt>
<pdfrwt beam="1">  1        1 0.33978602E-01 0.82374736E+02</pdfrwt>
<pdfrwt beam="2">  1       -1 0.13012039E-01 0.82374736E+02</pdfrwt>
<totfact> 0.48257861E+03</totfact>
</mgrwt>
</event>
<event>
 4    1  0.4999097E-001  0.1014107E+03  0.7546771E-02  0.1277357E+00
          2   -1    0    0  501    0  0.00000000000E+00  0.00000000000E+00  0.13575383493E+04  0.13575383493E+04  0.00000000000E+00 0. -1.
         -2   -1    0    0    0  501 -0.00000000000E+00 -0.00000000000E+00 -0.76363195452E+01  0.76363195452E+01  0.00000000000E+00 0.  1.
         24    1    1    2    0    0 -0.32991807579E+02 -0.52234576576E+02  0.73583302176E+03  0.74278823511E+03  0.80419002446E+02 0.  0.
        -24    1    1    2    0    0  0.32991807579E+02  0.52234576576E+02  0.61406900795E+03  0.62238643369E+03  0.80419002446E+02 0. -1.
<mgrwt>
<rscale>  0 0.10141068E+03</rscale>
<asrwt>0</asrwt>
<pdfrwt beam="1">  1        2 0.20885186E+00 0.10141068E+03</pdfrwt>
<pdfrwt beam="2">  1       -2 0.11748195E-02 0.10141068E+03</pdfrwt>
<totfact> 0.25756042E+04</totfact>
</mgrwt>
</event>
<event>
 4    1  0.4999097E-001  0.8322991E+02  0.7546771E-02  0.1320127E+00
         -2   -1    0    0    0  501 -0.00000000000E+00  0.00000000000E+00  0.78585994152E+01  0.78585994152E+01  0.00000000000E+00 0.  1.
          2   -1    0    0  501    0  0.00000000000E+00 -0.00000000000E+00 -0.95642803539E+03  0.95642803539E+03  0.00000000000E+00 0. -1.
         24    1    1    2    0    0  0.21446949628E+02  0.17296349926E+00 -0.60925029362E+03  0.61490904839E+03  0.80419002446E+02 0.  1.
        -24    1    1    2    0    0 -0.21446949628E+02 -0.17296349926E+00 -0.33931914235E+03  0.34937758641E+03  0.80419002446E+02 0. -1.
<mgrwt>
<rscale>  0 0.83229908E+02</rscale>
<asrwt>0</asrwt>
<pdfrwt beam="1">  1        2 0.14714267E+00 0.83229908E+02</pdfrwt>
<pdfrwt beam="2">  1       -2 0.12090162E-02 0.83229908E+02</pdfrwt>
<totfact> 0.40494692E+04</totfact>
</mgrwt>
</event>
<event>
 4    1  0.4999097E-001  0.1058674E+03  0.7546771E-02  0.1268420E+00
         -2   -1    0    0    0  501 -0.00000000000E+00  0.00000000000E+00  0.69441765114E+02  0.69441765114E+02  0.00000000000E+00 0.  1.
          2   -1    0    0  501    0  0.00000000000E+00 -0.00000000000E+00 -0.19098389921E+03  0.19098389921E+03  0.00000000000E+00 0. -1.
         24    1    1    2    0    0 -0.62169052172E+02  0.29592296450E+02 -0.11201967158E+03  0.15413084647E+03  0.80419002446E+02 0. -1.
        -24    1    1    2    0    0  0.62169052172E+02 -0.29592296450E+02 -0.95224625184E+01  0.10629481786E+03  0.80419002446E+02 0.  1.
<mgrwt>
<rscale>  0 0.10586742E+03</rscale>
<asrwt>0</asrwt>
<pdfrwt beam="1">  1        2 0.29382138E-01 0.10586742E+03</pdfrwt>
<pdfrwt beam="2">  1       -2 0.10683349E-01 0.10586742E+03</pdfrwt>
<totfact> 0.98926695E+03</totfact>
</mgrwt>
</event>
<event>
 4    1  0.4999097E-001  0.9161472E+02  0.7546771E-02  0.1298988E+00
         -1   -1    0    0    0  501 -0.00000000000E+00  0.00000000000E+00  0.57306590221E+02  0.57306590221E+02  0.00000000000E+00 0.  1.
          1   -1    0    0  501    0  0.00000000000E+00 -0.00000000000E+00 -0.24401246708E+03  0.24401246708E+03  0.00000000000E+00 0. -1.
         24    1    1    2    0    0 -0.61821426218E+00 -0.43882320711E+02  0.19057413985E+01  0.91634535326E+02  0.80419002446E+02 0.  1.
        -24    1    1    2    0    0  0.61821426218E+00  0.43882320711E+02 -0.18861161826E+03  0.20968452197E+03  0.80419002446E+02 0. -1.
<mgrwt>
<rscale>  0 0.91614716E+02</rscale>
<asrwt>0</asrwt>
<pdfrwt beam="1">  1        1 0.37540380E-01 0.91614716E+02</pdfrwt>
<pdfrwt beam="2">  1       -1 0.88163984E-02 0.91614716E+02</pdfrwt>
<totfact> 0.77680892E+03</totfact>
</mgrwt>
</event>
<event>
 4    1  0.4999097E-001  0.8310487E+02  0.7546771E-02  0.1320464E+00
         -1   -1    0    0    0  501 -0.00000000000E+00  0.00000000000E+00  0.65283814670E+01  0.65283814670E+01  0.00000000000E+00 0.  1.
          1   -1    0    0  501    0  0.00000000000E+00 -0.00000000000E+00 -0.14940433362E+04  0.14940433362E+04  0.00000000000E+00 0. -1.
         24    1    1    2    0    0  0.48684857087E+01 -0.20383866176E+02 -0.33838307124E+03  0.34843869333E+03  0.80419002446E+02 0.  1.
        -24    1    1    2    0    0 -0.48684857087E+01  0.20383866176E+02 -0.11491318835E+04  0.11521330243E+04  0.80419002446E+02 0.  1.
<mgrwt>
<rscale>  0 0.83104874E+02</rscale>
<asrwt>0</asrwt>
<pdfrwt beam="1">  1        1 0.22985273E+00 0.83104874E+02</pdfrwt>
<pdfrwt beam="2">  1       -1 0.10043668E-02 0.83104874E+02</pdfrwt>
<totfact> 0.12689907E+04</totfact>
</mgrwt>
</event>
<event>
 4    1  0.4999097E-001  0.8397797E+02  0.7546771E-02  0.1318127E+00
         -2   -1    0    0    0  501 -0.00000000000E+00  0.00000000000E+00  0.19700647279E+03  0.19700647279E+03  0.00000000000E+00 0.  1.
          2   -1    0    0  501    0  0.00000000000E+00 -0.00000000000E+00 -0.36237999617E+02  0.36237999617E+02  0.00000000000E+00 0. -1.
         24    1    1    2    0    0 -0.16811959318E+02  0.17390846026E+02  0.67523333234E+02  0.10775759828E+03  0.80419002446E+02 0. -1.
        -24    1    1    2    0    0  0.16811959318E+02 -0.17390846026E+02  0.93245139942E+02  0.12548687413E+03  0.80419002446E+02 0.  1.
<mgrwt>
<rscale>  0 0.83977970E+02</rscale>
<asrwt>0</asrwt>
<pdfrwt beam="1">  1        2 0.55750770E-02 0.83977970E+02</pdfrwt>
<pdfrwt beam="2">  1       -2 0.30308688E-01 0.83977970E+02</pdfrwt>
<totfact> 0.12122847E+04</totfact>
</mgrwt>
</event>
<event>
 4    1  0.4999097E-001  0.8317502E+02  0.7546771E-02  0.1320275E+00
          2   -1    0    0  501    0  0.00000000000E+00  0.00000000000E+00  0.62641599591E+03  0.62641599591E+03  0.00000000000E+00 0. -1.
         -2   -1    0    0    0  501 -0.00000000000E+00 -0.00000000000E+00 -0.11057431867E+02  0.11057431867E+02  0.00000000000E+00 0.  1.
         24    1    1    2    0    0 -0.75546016645E+01 -0.19844207703E+02  0.29653229045E+03  0.30797642738E+03  0.80419002446E+02 0.  1.
        -24    1    1    2    0    0  0.75546016645E+01  0.19844207703E+02  0.31882627359E+03  0.32949700040E+03  0.80419002446E+02 0. -1.
<mgrwt>
<rscale>  0 0.83175010E+02</rscale>
<asrwt>0</asrwt>
<pdfrwt beam="1">  1        2 0.96371664E-01 0.83175020E+02</pdfrwt>
<pdfrwt beam="2">  1       -2 0.17011439E-02 0.83175020E+02</pdfrwt>
<totfact> 0.41543722E+04</totfact>
</mgrwt>
</event>
<event>
 4    1  0.4999097E-001  0.8195741E+02  0.7546771E-02  0.1323587E+00
          1   -1    0    0  501    0  0.00000000000E+00  0.00000000000E+00  0.30887794923E+03  0.30887794923E+03  0.00000000000E+00 0. -1.
         -1   -1    0    0    0  501 -0.00000000000E+00 -0.00000000000E+00 -0.11660070555E+03  0.11660070555E+03  0.00000000000E+00 0.  1.
         24    1    1    2    0    0 -0.65409939943E+01  0.14388087028E+02 -0.95739502204E+02  0.12602805199E+03  0.80419002446E+02 0.  1.
        -24    1    1    2    0    0  0.65409939943E+01 -0.14388087028E+02  0.28801674588E+03  0.29945060279E+03  0.80419002446E+02 0. -1.
<mgrwt>
<rscale>  0 0.81957413E+02</rscale>
<asrwt>0</asrwt>
<pdfrwt beam="1">  1        1 0.47519684E-01 0.81957413E+02</pdfrwt>
<pdfrwt beam="2">  1       -1 0.17938570E-01 0.81957413E+02</pdfrwt>
<totfact> 0.19514167E+03</totfact>
</mgrwt>
</event>
<event>
 4    1  0.4999097E-001  0.8789390E+02  0.7546771E-02  0.1308034E+00
          2   -1    0    0  501    0  0.00000000000E+00  0.00000000000E+00  0.56798375039E+02  0.56798375039E+02  0.00000000000E+00 0. -1.
         -2   -1    0    0    0  501 -0.00000000000E+00 -0.00000000000E+00 -0.21434585214E+03  0.21434585214E+03  0.00000000000E+00 0.  1.
         24    1    1    2    0    0 -0.35272359687E+02 -0.37393948527E+01  0.31828305994E+01  0.87951513897E+02  0.80419002446E+02 0. -1.
        -24    1    1    2    0    0  0.35272359687E+02  0.37393948527E+01 -0.16073030770E+03  0.18319271328E+03  0.80419002446E+02 0.  1.
<mgrwt>
<rscale>  0 0.87893904E+02</rscale>
<asrwt>0</asrwt>
<pdfrwt beam="1">  1        2 0.87382117E-02 0.87893904E+02</pdfrwt>
<pdfrwt beam="2">  1       -2 0.32976284E-01 0.87893904E+02</pdfrwt>
<totfact> 0.59602596E+03</totfact>
</mgrwt>
</event>
<event>
 4    1  0.4999097E-001  0.8429813E+02  0.7546771E-02  0.1317278E+00
          1   -1    0    0  501    0  0.00000000000E+00  0.00000000000E+00  0.76983868773E+03  0.76983868773E+03  0.00000000000E+00 0. -1.
         -1   -1    0    0    0  501 -0.00000000000E+00 -0.00000000000E+00 -0.14316656208E+02  0.14316656208E+02  0.00000000000E+00 0.  1.
         24    1    1    2    0    0  0.16831415860E+02 -0.18859001683E+02  0.14407309575E+03  0.16692283061E+03  0.80419002446E+02 0.  1.
        -24    1    1    2    0    0 -0.16831415860E+02  0.18859001683E+02  0.61144893577E+03  0.61723251333E+03  0.80419002446E+02 0. -1.
<mgrwt>
<rscale>  0 0.84298128E+02</rscale>
<asrwt>0</asrwt>
<pdfrwt beam="1">  1        1 0.11843669E+00 0.84298128E+02</pdfrwt>
<pdfrwt beam="2">  1       -1 0.22025631E-02 0.84298128E+02</pdfrwt>
<totfact> 0.13375782E+04</totfact>
</mgrwt>
</event>
<event>
 4    1  0.4999097E-001  0.1041085E+03  0.7546771E-02  0.1271886E+00
         -1   -1    0    0    0  501 -0.00000000000E+00  0.00000000000E+00  0.15587357573E+03  0.15587357573E+03  0.00000000000E+00 0.  1.
          1   -1    0    0  501    0  0.00000000000E+00 -0.00000000000E+00 -0.69565885333E+02  0.69565885333E+02  0.00000000000E+00 0. -1.
         24    1    1    2    0    0  0.10561851258E+02 -0.65267178358E+02  0.40755237083E+02  0.11180144264E+03  0.80419002446E+02 0.  0.
        -24    1    1    2    0    0 -0.10561851258E+02  0.65267178358E+02  0.45552453311E+02  0.11363801842E+03  0.80419002446E+02 0. -1.
<mgrwt>
<rscale>  0 0.10410848E+03</rscale>
<asrwt>0</asrwt>
<pdfrwt beam="1">  1        1 0.10702444E-01 0.10410849E+03</pdfrwt>
<pdfrwt beam="2">  1       -1 0.23980550E-01 0.10410849E+03</pdfrwt>
<totfact> 0.80672366E+03</totfact>
</mgrwt>
</event>
<event>
 4    1  0.4999097E-001  0.8813508E+02  0.7546771E-02  0.1307432E+00
         -2   -1    0    0    0  501 -0.00000000000E+00  0.00000000000E+00  0.77441990526E+01  0.77441990526E+01  0.00000000000E+00 0.  1.
          2   -1    0    0  501    0  0.00000000000E+00 -0.00000000000E+00 -0.12427271602E+04  0.12427271602E+04  0.00000000000E+00 0. -1.
         24    1    1    2    0    0  0.10966242314E+02 -0.34355753727E+02 -0.89207362851E+03  0.89641683994E+03  0.80419002446E+02 0. -1.
        -24    1    1    2    0    0 -0.10966242314E+02  0.34355753727E+02 -0.34290933267E+03  0.35405451935E+03  0.80419002446E+02 0. -1.
<mgrwt>
<rscale>  0 0.88135080E+02</rscale>
<asrwt>0</asrwt>
<pdfrwt beam="1">  1        2 0.19118874E+00 0.88135080E+02</pdfrwt>
<pdfrwt beam="2">  1       -2 0.11914156E-02 0.88135080E+02</pdfrwt>
<totfact> 0.28705501E+04</totfact>
</mgrwt>
</event>
<event>
 4    1  0.4999097E-001  0.1097655E+03  0.7546771E-02  0.1261005E+00
         -2   -1    0    0    0  501 -0.00000000000E+00  0.00000000000E+00  0.46163572103E+02  0.46163572103E+02  0.00000000000E+00 0.  1.
          2   -1    0    0  501    0  0.00000000000E+00 -0.00000000000E+00 -0.77754225608E+03  0.77754225608E+03  0.00000000000E+00 0. -1.
         24    1    1    2    0    0  0.39830630275E+02 -0.63204134586E+02 -0.70137687093E+03  0.70991406012E+03  0.80419002446E+02 0. -1.
        -24    1    1    2    0    0 -0.39830630275E+02  0.63204134586E+02 -0.30001813049E+02  0.11379176806E+03  0.80419002446E+02 0.  1.
<mgrwt>
<rscale>  0 0.10976547E+03</rscale>
<asrwt>0</asrwt>
<pdfrwt beam="1">  1        2 0.11962188E+00 0.10976547E+03</pdfrwt>
<pdfrwt beam="2">  1       -2 0.71020881E-02 0.10976547E+03</pdfrwt>
<totfact> 0.40509122E+03</totfact>
</mgrwt>
</event>
<event>
 4    1  0.4999097E-001  0.8604348E+02  0.7546771E-02  0.1312726E+00
          2   -1    0    0  501    0  0.00000000000E+00  0.00000000000E+00  0.16412128956E+04  0.16412128956E+04  0.00000000000E+00 0. -1.
         -2   -1    0    0    0  501 -0.00000000000E+00 -0.00000000000E+00 -0.45207874768E+01  0.45207874768E+01  0.00000000000E+00 0.  1.
         24    1    1    2    0    0  0.28628710976E+02  0.10800957408E+02  0.85667132615E+03  0.86098155658E+03  0.80419002446E+02 0.  0.
        -24    1    1    2    0    0 -0.28628710976E+02 -0.10800957408E+02  0.78002078197E+03  0.78475212649E+03  0.80419002446E+02 0. -1.
<mgrwt>
<rscale>  0 0.86043476E+02</rscale>
<asrwt>0</asrwt>
<pdfrwt beam="1">  1        2 0.25249382E+00 0.86043476E+02</pdfrwt>
<pdfrwt beam="2">  1       -2 0.69550707E-03 0.86043476E+02</pdfrwt>
<totfact> 0.38154372E+04</totfact>
</mgrwt>
</event>
<event>
 4    1  0.4999097E-001  0.9364817E+02  0.7546771E-02  0.1294250E+00
         -2   -1    0    0    0  501 -0.00000000000E+00  0.00000000000E+00  0.34757578272E+03  0.34757578272E+03  0.00000000000E+00 0.  1.
          2   -1    0    0  501    0  0.00000000000E+00 -0.00000000000E+00 -0.30913073103E+02  0.30913073103E+02  0.00000000000E+00 0. -1.
         24    1    1    2    0    0 -0.17024603040E+01  0.47956908947E+02  0.77202938977E+02  0.12136833701E+03  0.80419002446E+02 0. -1.
        -24    1    1    2    0    0  0.17024603040E+01 -0.47956908947E+02  0.23945977064E+03  0.25712051882E+03  0.80419002446E+02 0.  1.
<mgrwt>
<rscale>  0 0.93648168E+02</rscale>
<asrwt>0</asrwt>
<pdfrwt beam="1">  1        2 0.47558576E-02 0.93648168E+02</pdfrwt>
<pdfrwt beam="2">  1       -2 0.53473195E-01 0.93648168E+02</pdfrwt>
<totfact> 0.51696226E+03</totfact>
</mgrwt>
</event>
<event>
 4    1  0.4999097E-001  0.8094009E+02  0.7546771E-02  0.1326405E+00
          2   -1    0    0  501    0  0.00000000000E+00  0.00000000000E+00  0.13194789871E+04  0.13194789871E+04  0.00000000000E+00 0. -1.
         -2   -1    0    0    0  501 -0.00000000000E+00 -0.00000000000E+00 -0.12207396546E+02  0.12207396546E+02  0.00000000000E+00 0.  1.
         24    1    1    2    0    0 -0.82825368647E+01 -0.39346620589E+01  0.11664967792E+04  0.11693015154E+04  0.80419002446E+02 0. -1.
        -24    1    1    2    0    0  0.82825368647E+01  0.39346620589E+01  0.14077481136E+03  0.16238486829E+03  0.80419002446E+02 0.  1.
<mgrwt>
<rscale>  0 0.80940089E+02</rscale>
<asrwt>0</asrwt>
<pdfrwt beam="1">  1        2 0.20299665E+00 0.80940089E+02</pdfrwt>
<pdfrwt beam="2">  1       -2 0.18780620E-02 0.80940089E+02</pdfrwt>
<totfact> 0.13583689E+04</totfact>
</mgrwt>
</event>
<event>
 4    1  0.4999097E-001  0.1109822E+03  0.7546771E-02  0.1258762E+00
         -1   -1    0    0    0  501 -0.00000000000E+00  0.00000000000E+00  0.19656553089E+02  0.19656553089E+02  0.00000000000E+00 0.  1.
          1   -1    0    0  501    0  0.00000000000E+00 -0.00000000000E+00 -0.91161474986E+03  0.91161474986E+03  0.00000000000E+00 0. -1.
         24    1    1    2    0    0  0.49959516954E+02  0.57912673839E+02 -0.18562495392E+03  0.21627221412E+03  0.80419002446E+02 0.  1.
        -24    1    1    2    0    0 -0.49959516954E+02 -0.57912673839E+02 -0.70633324285E+03  0.71499908884E+03  0.80419002446E+02 0. -1.
<mgrwt>
<rscale>  0 0.11098219E+03</rscale>
<asrwt>0</asrwt>
<pdfrwt beam="1">  1        1 0.14024840E+00 0.11098219E+03</pdfrwt>
<pdfrwt beam="2">  1       -1 0.30240855E-02 0.11098219E+03</pdfrwt>
<totfact> 0.66866466E+03</totfact>
</mgrwt>
</event>
<event>
 4    1  0.4999097E-001  0.1038374E+03  0.7546771E-02  0.1272427E+00
          3   -1    0    0  501    0  0.00000000000E+00  0.00000000000E+00  0.21150646436E+03  0.21150646436E+03  0.00000000000E+00 0. -1.
         -3   -1    0    0    0  501 -0.00000000000E+00 -0.00000000000E+00 -0.81306726729E+02  0.81306726729E+02  0.00000000000E+00 0.  1.
         24    1    1    2    0    0  0.55030546450E+02 -0.35869572204E+02 -0.24317850685E+02  0.10664689901E+03  0.80419002446E+02 0.  1.
        -24    1    1    2    0    0 -0.55030546450E+02  0.35869572204E+02  0.15451758832E+03  0.18616629208E+03  0.80419002446E+02 0. -1.
<mgrwt>
<rscale>  0 0.10383739E+03</rscale>
<asrwt>0</asrwt>
<pdfrwt beam="1">  1        3 0.32539456E-01 0.10383739E+03</pdfrwt>
<pdfrwt beam="2">  1       -3 0.12508727E-01 0.10383739E+03</pdfrwt>
<totfact> 0.10287280E+03</totfact>
</mgrwt>
</event>
<event>
 4    1  0.4999097E-001  0.8557532E+02  0.7546771E-02  0.1313935E+00
         -1   -1    0    0    0  501 -0.00000000000E+00  0.00000000000E+00  0.90925096195E+02  0.90925096195E+02  0.00000000000E+00 0.  1.
          1   -1    0    0  501    0  0.00000000000E+00 -0.00000000000E+00 -0.11423437635E+03  0.11423437635E+03  0.00000000000E+00 0. -1.
         24    1    1    2    0    0 -0.28201578214E+02 -0.77840107496E+01  0.44056219417E+02  0.96250123433E+02  0.80419002446E+02 0.  1.
        -24    1    1    2    0    0  0.28201578214E+02  0.77840107496E+01 -0.67365499573E+02  0.10890934911E+03  0.80419002446E+02 0. -1.
<mgrwt>
<rscale>  0 0.85575322E+02</rscale>
<asrwt>0</asrwt>
<pdfrwt beam="1">  1        1 0.17574519E-01 0.85575322E+02</pdfrwt>
<pdfrwt beam="2">  1       -1 0.13988476E-01 0.85575322E+02</pdfrwt>
<totfact> 0.98034883E+03</totfact>
</mgrwt>
</event>
<event>
 4    1  0.4999097E-001  0.1036829E+03  0.7546771E-02  0.1272737E+00
         -2   -1    0    0    0  501 -0.00000000000E+00  0.00000000000E+00  0.89625483165E+01  0.89625483165E+01  0.00000000000E+00 0.  1.
          2   -1    0    0  501    0  0.00000000000E+00 -0.00000000000E+00 -0.12051376990E+04  0.12051376990E+04  0.00000000000E+00 0. -1.
         24    1    1    2    0    0 -0.62013505998E+02 -0.20910596234E+02 -0.63978499445E+03  0.64813191793E+03  0.80419002446E+02 0.  0.
        -24    1    1    2    0    0  0.62013505998E+02  0.20910596234E+02 -0.55639015621E+03  0.56596832937E+03  0.80419002446E+02 0.  1.
<mgrwt>
<rscale>  0 0.10368290E+03</rscale>
<asrwt>0</asrwt>
<pdfrwt beam="1">  1        2 0.18540578E+00 0.10368290E+03</pdfrwt>
<pdfrwt beam="2">  1       -2 0.13788537E-02 0.10368290E+03</pdfrwt>
<totfact> 0.24771028E+04</totfact>
</mgrwt>
</event>
<event>
 4    1  0.4999097E-001  0.8542662E+02  0.7546771E-02  0.1314321E+00
          4   -1    0    0  501    0  0.00000000000E+00  0.00000000000E+00  0.28255172537E+02  0.28255172537E+02  0.00000000000E+00 0. -1.
         -4   -1    0    0    0  501 -0.00000000000E+00 -0.00000000000E+00 -0.27195592024E+03  0.27195592024E+03  0.00000000000E+00 0.  1.
         24    1    1    2    0    0  0.24127777410E+02  0.15758881845E+02 -0.88187815552E+02  0.12277947209E+03  0.80419002446E+02 0. -1.
        -24    1    1    2    0    0 -0.24127777410E+02 -0.15758881845E+02 -0.15551293215E+03  0.17743162069E+03  0.80419002446E+02 0.  1.
<mgrwt>
<rscale>  0 0.85426623E+02</rscale>
<asrwt>0</asrwt>
<pdfrwt beam="1">  1        4 0.43469496E-02 0.85426623E+02</pdfrwt>
<pdfrwt beam="2">  1       -4 0.41839373E-01 0.85426623E+02</pdfrwt>
<totfact> 0.24314265E+03</totfact>
</mgrwt>
</event>
<event>
 4    1  0.4999097E-001  0.8194794E+02  0.7546771E-02  0.1323613E+00
          2   -1    0    0  501    0  0.00000000000E+00  0.00000000000E+00  0.23929380465E+04  0.23929380465E+04  0.00000000000E+00 0. -1.
         -2   -1    0    0    0  501 -0.00000000000E+00 -0.00000000000E+00 -0.11622012216E+02  0.11622012216E+02  0.00000000000E+00 0.  1.
         24    1    1    2    0    0  0.13876529495E+02 -0.74626021956E+01  0.22377672761E+04  0.22392672566E+04  0.80419002446E+02 0. -1.
        -24    1    1    2    0    0 -0.13876529495E+02  0.74626021956E+01  0.14354875815E+03  0.16529280209E+03  0.80419002446E+02 0.  1.
<mgrwt>
<rscale>  0 0.81947937E+02</rscale>
<asrwt>0</asrwt>
<pdfrwt beam="1">  1        2 0.36814392E+00 0.81947937E+02</pdfrwt>
<pdfrwt beam="2">  1       -2 0.17880038E-02 0.81947937E+02</pdfrwt>
<totfact> 0.41808680E+03</totfact>
</mgrwt>
</event>
<event>
 4    1  0.4999097E-001  0.9803566E+02  0.7546771E-02  0.1284482E+00
          2   -1    0    0  501    0  0.00000000000E+00  0.00000000000E+00  0.11981001078E+03  0.11981001078E+03  0.00000000000E+00 0. -1.
         -2   -1    0    0    0  501 -0.00000000000E+00 -0.00000000000E+00 -0.13772004760E+03  0.13772004760E+03  0.00000000000E+00 0.  1.
         24    1    1    2    0    0 -0.39545514657E+01 -0.55929750482E+02  0.74247933536E+02  0.12297864471E+03  0.80419002446E+02 0. -1.
        -24    1    1    2    0    0  0.39545514657E+01  0.55929750482E+02 -0.92157970358E+02  0.13455141367E+03  0.80419002446E+02 0.  1.
<mgrwt>
<rscale>  0 0.98035664E+02</rscale>
<asrwt>0</asrwt>
<pdfrwt beam="1">  1        2 0.18432309E-01 0.98035664E+02</pdfrwt>
<pdfrwt beam="2">  1       -2 0.21187700E-01 0.98035664E+02</pdfrwt>
<totfact> 0.54000046E+03</totfact>
</mgrwt>
</event>
<event>
 4    1  0.4999097E-001  0.8113423E+02  0.7546771E-02  0.1325863E+00
          2   -1    0    0  501    0  0.00000000000E+00  0.00000000000E+00  0.99361224477E+03  0.99361224477E+03  0.00000000000E+00 0. -1.
         -2   -1    0    0    0  501 -0.00000000000E+00 -0.00000000000E+00 -0.98308236981E+01  0.98308236981E+01  0.00000000000E+00 0.  1.
         24    1    1    2    0    0 -0.95653353888E+01  0.49042219266E+01  0.77839559096E+03  0.78261258552E+03  0.80419002446E+02 0.  0.
        -24    1    1    2    0    0  0.95653353888E+01 -0.49042219266E+01  0.20538583011E+03  0.22083048294E+03  0.80419002446E+02 0.  1.
<mgrwt>
<rscale>  0 0.81134228E+02</rscale>
<asrwt>0</asrwt>
<pdfrwt beam="1">  1        2 0.15286334E+00 0.81134228E+02</pdfrwt>
<pdfrwt beam="2">  1       -2 0.15124352E-02 0.81134228E+02</pdfrwt>
<totfact> 0.27941704E+04</totfact>
</mgrwt>
</event>
<event>
 4    1  0.4999097E-001  0.8779246E+02  0.7546771E-02  0.1308287E+00
         -2   -1    0    0    0  501 -0.00000000000E+00  0.00000000000E+00  0.10905238603E+02  0.10905238603E+02  0.00000000000E+00 0.  1.
          2   -1    0    0  501    0  0.00000000000E+00 -0.00000000000E+00 -0.27567024939E+04  0.27567024939E+04  0.00000000000E+00 0. -1.
         24    1    1    2    0    0 -0.26684300266E+02 -0.22983646862E+02 -0.25661973400E+04  0.25676986396E+04  0.80419002446E+02 0. -1.
        -24    1    1    2    0    0  0.26684300266E+02  0.22983646862E+02 -0.17959991525E+03  0.19990909288E+03  0.80419002446E+02 0.  1.
<mgrwt>
<rscale>  0 0.87792459E+02</rscale>
<asrwt>0</asrwt>
<pdfrwt beam="1">  1        2 0.42410809E+00 0.87792459E+02</pdfrwt>
<pdfrwt beam="2">  1       -2 0.16777290E-02 0.87792459E+02</pdfrwt>
<totfact> 0.29396277E+03</totfact>
</mgrwt>
</event>
<event>
 4    1  0.4999097E-001  0.1076547E+03  0.7546771E-02  0.1264976E+00
          2   -1    0    0  501    0  0.00000000000E+00  0.00000000000E+00  0.18902508884E+03  0.18902508884E+03  0.00000000000E+00 0. -1.
         -2   -1    0    0    0  501 -0.00000000000E+00 -0.00000000000E+00 -0.64364604749E+02  0.64364604749E+02  0.00000000000E+00 0.  1.
         24    1    1    2    0    0  0.39472171724E+02  0.59701559176E+02  0.89920534432E+02  0.14026848176E+03  0.80419002446E+02 0.  1.
        -24    1    1    2    0    0 -0.39472171724E+02 -0.59701559176E+02  0.34739949660E+02  0.11312121183E+03  0.80419002446E+02 0. -1.
<mgrwt>
<rscale>  0 0.10765475E+03</rscale>
<asrwt>0</asrwt>
<pdfrwt beam="1">  1        2 0.29080783E-01 0.10765475E+03</pdfrwt>
<pdfrwt beam="2">  1       -2 0.99022469E-02 0.10765475E+03</pdfrwt>
<totfact> 0.11282230E+04</totfact>
</mgrwt>
</event>
<event>
 4    1  0.4999097E-001  0.9165246E+02  0.7546771E-02  0.1298899E+00
         -2   -1    0    0    0  501 -0.00000000000E+00  0.00000000000E+00  0.10924239963E+02  0.10924239963E+02  0.00000000000E+00 0.  1.
          2   -1    0    0  501    0  0.00000000000E+00 -0.00000000000E+00 -0.82653134887E+03  0.82653134887E+03  0.00000000000E+00 0. -1.
         24    1    1    2    0    0  0.39221023926E+02  0.19866267404E+02 -0.51832595616E+03  0.52636676385E+03  0.80419002446E+02 0. -1.
        -24    1    1    2    0    0 -0.39221023926E+02 -0.19866267404E+02 -0.29728115275E+03  0.31108882499E+03  0.80419002446E+02 0.  1.
<mgrwt>
<rscale>  0 0.91652459E+02</rscale>
<asrwt>0</asrwt>
<pdfrwt beam="1">  1        2 0.12715868E+00 0.91652459E+02</pdfrwt>
<pdfrwt beam="2">  1       -2 0.16806522E-02 0.91652459E+02</pdfrwt>
<totfact> 0.30831055E+04</totfact>
</mgrwt>
</event>
<event>
 4    1  0.4999097E-001  0.9164814E+02  0.7546771E-02  0.1298909E+00
         -4   -1    0    0    0  501 -0.00000000000E+00  0.00000000000E+00  0.27352944236E+03  0.27352944236E+03  0.00000000000E+00 0.  1.
          4   -1    0    0  501    0  0.00000000000E+00 -0.00000000000E+00 -0.33146336899E+02  0.33146336899E+02  0.00000000000E+00 0. -1.
         24    1    1    2    0    0  0.40873742653E+02  0.16171022778E+02  0.78597514042E+02  0.12073504042E+03  0.80419002446E+02 0. -1.
        -24    1    1    2    0    0 -0.40873742653E+02 -0.16171022778E+02  0.16178559142E+03  0.18594073884E+03  0.80419002446E+02 0.  1.
<mgrwt>
<rscale>  0 0.91648136E+02</rscale>
<asrwt>0</asrwt>
<pdfrwt beam="1">  1        4 0.50994366E-02 0.91648136E+02</pdfrwt>
<pdfrwt beam="2">  1       -4 0.42081451E-01 0.91648136E+02</pdfrwt>
<totfact> 0.19016890E+03</totfact>
</mgrwt>
</event>
<event>
 4    1  0.4999097E-001  0.8955065E+02  0.7546771E-02  0.1303944E+00
         -2   -1    0    0    0  501 -0.00000000000E+00  0.00000000000E+00  0.34242948422E+02  0.34242948422E+02  0.00000000000E+00 0.  1.
          2   -1    0    0  501    0  0.00000000000E+00 -0.00000000000E+00 -0.26792789389E+03  0.26792789389E+03  0.00000000000E+00 0. -1.
         24    1    1    2    0    0 -0.29859769283E+02  0.25700125228E+02 -0.17045665641E+03  0.19254814964E+03  0.80419002446E+02 0.  1.
        -24    1    1    2    0    0  0.29859769283E+02 -0.25700125228E+02 -0.63228289057E+02  0.10962269268E+03  0.80419002446E+02 0.  0.
<mgrwt>
<rscale>  0 0.89550646E+02</rscale>
<asrwt>0</asrwt>
<pdfrwt beam="1">  1        2 0.41219677E-01 0.89550646E+02</pdfrwt>
<pdfrwt beam="2">  1       -2 0.52681458E-02 0.89550646E+02</pdfrwt>
<totfact> 0.20000894E+04</totfact>
</mgrwt>
</event>
<event>
 4    1  0.4999097E-001  0.1134774E+03  0.7546771E-02  0.1254262E+00
         -2   -1    0    0    0  501 -0.00000000000E+00  0.00000000000E+00  0.11405012859E+02  0.11405012859E+02  0.00000000000E+00 0.  1.
          2   -1    0    0  501    0  0.00000000000E+00 -0.00000000000E+00 -0.11385496474E+04  0.11385496474E+04  0.00000000000E+00 0. -1.
         24    1    1    2    0    0  0.79374915314E+02 -0.10465447767E+02 -0.51112194803E+03  0.52356734475E+03  0.80419002446E+02 0.  1.
        -24    1    1    2    0    0 -0.79374915314E+02  0.10465447767E+02 -0.61602268647E+03  0.62638731547E+03  0.80419002446E+02 0.  1.
<mgrwt>
<rscale>  0 0.11347741E+03</rscale>
<asrwt>0</asrwt>
<pdfrwt beam="1">  1        2 0.17516150E+00 0.11347742E+03</pdfrwt>
<pdfrwt beam="2">  1       -2 0.17546173E-02 0.11347742E+03</pdfrwt>
<totfact> 0.19213290E+04</totfact>
</mgrwt>
</event>
<event>
 4    1  0.4999097E-001  0.1065721E+03  0.7546771E-02  0.1267053E+00
         -1   -1    0    0    0  501 -0.00000000000E+00  0.00000000000E+00  0.25591811014E+03  0.25591811014E+03  0.00000000000E+00 0.  1.
          1   -1    0    0  501    0  0.00000000000E+00 -0.00000000000E+00 -0.45836525335E+02  0.45836525335E+02  0.00000000000E+00 0. -1.
         24    1    1    2    0    0 -0.58262905714E+02 -0.38675960726E+02  0.13193735226E+03  0.16960270338E+03  0.80419002446E+02 0.  1.
        -24    1    1    2    0    0  0.58262905714E+02  0.38675960726E+02  0.78144232550E+02  0.13215193209E+03  0.80419002446E+02 0. -1.
<mgrwt>
<rscale>  0 0.10657210E+03</rscale>
<asrwt>0</asrwt>
<pdfrwt beam="1">  1        1 0.70517733E-02 0.10657210E+03</pdfrwt>
<pdfrwt beam="2">  1       -1 0.39372016E-01 0.10657210E+03</pdfrwt>
<totfact> 0.61209333E+03</totfact>
</mgrwt>
</event>
<event>
 4    1  0.4999097E-001  0.1775298E+03  0.7546771E-02  0.1170215E+00
         -1   -1    0    0    0  501 -0.00000000000E+00  0.00000000000E+00  0.11479503518E+03  0.11479503518E+03  0.00000000000E+00 0.  1.
          1   -1    0    0  501    0  0.00000000000E+00 -0.00000000000E+00 -0.13966938829E+04  0.13966938829E+04  0.00000000000E+00 0. -1.
         24    1    1    2    0    0 -0.71671106012E+02 -0.14111293035E+03  0.36456343129E+02  0.18123434404E+03  0.80419002446E+02 0.  1.
        -24    1    1    2    0    0  0.71671106012E+02  0.14111293035E+03 -0.13183551908E+04  0.13302545740E+04  0.80419002446E+02 0. -1.
<mgrwt>
<rscale>  0 0.17752978E+03</rscale>
<asrwt>0</asrwt>
<pdfrwt beam="1">  1        1 0.21487599E+00 0.17752978E+03</pdfrwt>
<pdfrwt beam="2">  1       -1 0.17660774E-01 0.17752978E+03</pdfrwt>
<totfact> 0.21325422E+02</totfact>
</mgrwt>
</event>
<event>
 4    1  0.4999097E-001  0.8400171E+02  0.7546771E-02  0.1318064E+00
          2   -1    0    0  501    0  0.00000000000E+00  0.00000000000E+00  0.70032551726E+03  0.70032551726E+03  0.00000000000E+00 0. -1.
         -2   -1    0    0    0  501 -0.00000000000E+00 -0.00000000000E+00 -0.10081214422E+02  0.10081214422E+02  0.00000000000E+00 0.  1.
         24    1    1    2    0    0  0.24012157932E+02  0.35333252161E+01  0.33682999280E+03  0.34714655136E+03  0.80419002446E+02 0. -1.
        -24    1    1    2    0    0 -0.24012157932E+02 -0.35333252161E+01  0.35341431003E+03  0.36326018032E+03  0.80419002446E+02 0. -1.
<mgrwt>
<rscale>  0 0.84001701E+02</rscale>
<asrwt>0</asrwt>
<pdfrwt beam="1">  1        2 0.10774235E+00 0.84001712E+02</pdfrwt>
<pdfrwt beam="2">  1       -2 0.15509566E-02 0.84001712E+02</pdfrwt>
<totfact> 0.41767524E+04</totfact>
</mgrwt>
</event>
<event>
 4    1  0.4999097E-001  0.8803868E+02  0.7546771E-02  0.1307672E+00
         -2   -1    0    0    0  501 -0.00000000000E+00  0.00000000000E+00  0.35440926352E+02  0.35440926352E+02  0.00000000000E+00 0.  1.
          2   -1    0    0  501    0  0.00000000000E+00 -0.00000000000E+00 -0.22424705993E+03  0.22424705993E+03  0.00000000000E+00 0. -1.
         24    1    1    2    0    0 -0.13261521927E+02 -0.33282503096E+02 -0.11483099178E+03  0.14469611468E+03  0.80419002446E+02 0.  1.
        -24    1    1    2    0    0  0.13261521927E+02  0.33282503096E+02 -0.73975141802E+02  0.11499187160E+03  0.80419002446E+02 0. -1.
<mgrwt>
<rscale>  0 0.88038679E+02</rscale>
<asrwt>0</asrwt>
<pdfrwt beam="1">  1        2 0.34499546E-01 0.88038679E+02</pdfrwt>
<pdfrwt beam="2">  1       -2 0.54524504E-02 0.88038679E+02</pdfrwt>
<totfact> 0.22869499E+04</totfact>
</mgrwt>
</event>
<event>
 4    1  0.4999097E-001  0.9378030E+02  0.7546771E-02  0.1293947E+00
         -1   -1    0    0    0  501 -0.00000000000E+00  0.00000000000E+00  0.87284630760E+01  0.87284630760E+01  0.00000000000E+00 0.  1.
          1   -1    0    0  501    0  0.00000000000E+00 -0.00000000000E+00 -0.12015124477E+04  0.12015124477E+04  0.00000000000E+00 0. -1.
         24    1    1    2    0    0 -0.17575225954E+02 -0.44929275366E+02 -0.35329050916E+03  0.36552555063E+03  0.80419002446E+02 0.  1.
        -24    1    1    2    0    0  0.17575225954E+02  0.44929275366E+02 -0.83949347549E+03  0.84471536016E+03  0.80419002446E+02 0. -1.
<mgrwt>
<rscale>  0 0.93780298E+02</rscale>
<asrwt>0</asrwt>
<pdfrwt beam="1">  1        1 0.18484808E+00 0.93780298E+02</pdfrwt>
<pdfrwt beam="2">  1       -1 0.13428404E-02 0.93780298E+02</pdfrwt>
<totfact> 0.13175897E+04</totfact>
</mgrwt>
</event>
<event>
 4    1  0.4999097E-001  0.8606942E+02  0.7546771E-02  0.1312659E+00
          1   -1    0    0  501    0  0.00000000000E+00  0.00000000000E+00  0.65745239713E+02  0.65745239713E+02  0.00000000000E+00 0. -1.
         -1   -1    0    0    0  501 -0.00000000000E+00 -0.00000000000E+00 -0.14214707377E+04  0.14214707377E+04  0.00000000000E+00 0.  1.
         24    1    1    2    0    0 -0.27394968361E+02  0.13792896170E+02 -0.13913903383E+04  0.13940498620E+04  0.80419002446E+02 0.  1.
        -24    1    1    2    0    0  0.27394968361E+02 -0.13792896170E+02  0.35664840297E+02  0.93166115428E+02  0.80419002446E+02 0. -1.
<mgrwt>
<rscale>  0 0.86069415E+02</rscale>
<asrwt>0</asrwt>
<pdfrwt beam="1">  1        1 0.10114653E-01 0.86069415E+02</pdfrwt>
<pdfrwt beam="2">  1       -1 0.21868779E+00 0.86069415E+02</pdfrwt>
<totfact> 0.83011554E+01</totfact>
</mgrwt>
</event>
<event>
 4    1  0.4999097E-001  0.2043421E+03  0.7546771E-02  0.1146126E+00
         -1   -1    0    0    0  501 -0.00000000000E+00  0.00000000000E+00  0.30435231661E+03  0.30435231661E+03  0.00000000000E+00 0.  1.
          1   -1    0    0  501    0  0.00000000000E+00 -0.00000000000E+00 -0.34002960124E+03  0.34002960124E+03  0.00000000000E+00 0. -1.
         24    1    1    2    0    0 -0.15725696621E+03  0.10275559439E+03  0.23100455758E+03  0.30841333820E+03  0.80419002446E+02 0.  1.
        -24    1    1    2    0    0  0.15725696621E+03 -0.10275559439E+03 -0.26668184221E+03  0.33596857966E+03  0.80419002446E+02 0. -1.
<mgrwt>
<rscale>  0 0.20434207E+03</rscale>
<asrwt>0</asrwt>
<pdfrwt beam="1">  1        1 0.52312246E-01 0.20434207E+03</pdfrwt>
<pdfrwt beam="2">  1       -1 0.46823433E-01 0.20434207E+03</pdfrwt>
<totfact> 0.35035412E+02</totfact>
</mgrwt>
</event>
<event>
 4    1  0.4999097E-001  0.1053560E+03  0.7546771E-02  0.1269420E+00
         -1   -1    0    0    0  501 -0.00000000000E+00  0.00000000000E+00  0.11593047260E+03  0.11593047260E+03  0.00000000000E+00 0.  1.
          1   -1    0    0  501    0  0.00000000000E+00 -0.00000000000E+00 -0.28131759276E+03  0.28131759276E+03  0.00000000000E+00 0. -1.
         24    1    1    2    0    0 -0.67698402936E+02 -0.70430526180E+01  0.78626710731E+02  0.13146122601E+03  0.80419002446E+02 0.  1.
        -24    1    1    2    0    0  0.67698402936E+02  0.70430526180E+01 -0.24401383089E+03  0.26578683934E+03  0.80419002446E+02 0. -1.
<mgrwt>
<rscale>  0 0.10535604E+03</rscale>
<asrwt>0</asrwt>
<pdfrwt beam="1">  1        1 0.43279629E-01 0.10535604E+03</pdfrwt>
<pdfrwt beam="2">  1       -1 0.17835457E-01 0.10535604E+03</pdfrwt>
<totfact> 0.22312588E+03</totfact>
</mgrwt>
</event>
<event>
 4    1  0.4999097E-001  0.8335869E+02  0.7546771E-02  0.1319781E+00
         -1   -1    0    0    0  501 -0.00000000000E+00  0.00000000000E+00  0.90941165805E+01  0.90941165805E+01  0.00000000000E+00 0.  1.
          1   -1    0    0  501    0  0.00000000000E+00 -0.00000000000E+00 -0.80569470204E+03  0.80569470204E+03  0.00000000000E+00 0. -1.
         24    1    1    2    0    0  0.18031978558E+02 -0.12502131342E+02 -0.30571737007E+03  0.31687818141E+03  0.80419002446E+02 0.  1.
        -24    1    1    2    0    0 -0.18031978558E+02  0.12502131342E+02 -0.49088321539E+03  0.49791063721E+03  0.80419002446E+02 0. -1.
<mgrwt>
<rscale>  0 0.83358692E+02</rscale>
<asrwt>0</asrwt>
<pdfrwt beam="1">  1        1 0.12395302E+00 0.83358692E+02</pdfrwt>
<pdfrwt beam="2">  1       -1 0.13990949E-02 0.83358692E+02</pdfrwt>
<totfact> 0.23807835E+04</totfact>
</mgrwt>
</event>
<event>
 4    1  0.4999097E-001  0.2084142E+03  0.7546771E-02  0.1142828E+00
         -2   -1    0    0    0  501 -0.00000000000E+00  0.00000000000E+00  0.35166720725E+03  0.35166720725E+03  0.00000000000E+00 0.  1.
          2   -1    0    0  501    0  0.00000000000E+00 -0.00000000000E+00 -0.44988547639E+03  0.44988547639E+03  0.00000000000E+00 0. -1.
         24    1    1    2    0    0  0.85666981576E+02  0.17213490687E+03 -0.39046389028E+03  0.44260425152E+03  0.80419002446E+02 0. -1.
        -24    1    1    2    0    0 -0.85666981576E+02 -0.17213490687E+03  0.29224562113E+03  0.35894843212E+03  0.80419002446E+02 0.  1.
<mgrwt>
<rscale>  0 0.20841419E+03</rscale>
<asrwt>0</asrwt>
<pdfrwt beam="1">  1        2 0.69213150E-01 0.20841419E+03</pdfrwt>
<pdfrwt beam="2">  1       -2 0.54102647E-01 0.20841419E+03</pdfrwt>
<totfact> 0.23257177E+02</totfact>
</mgrwt>
</event>
<event>
 4    1  0.4999097E-001  0.8874147E+02  0.7546771E-02  0.1305928E+00
          1   -1    0    0  501    0  0.00000000000E+00  0.00000000000E+00  0.18944375261E+03  0.18944375261E+03  0.00000000000E+00 0. -1.
         -1   -1    0    0    0  501 -0.00000000000E+00 -0.00000000000E+00 -0.46956048816E+02  0.46956048816E+02  0.00000000000E+00 0.  1.
         24    1    1    2    0    0 -0.14780284921E+02  0.34487314866E+02  0.31209393148E+02  0.94069516231E+02  0.80419002446E+02 0.  1.
        -24    1    1    2    0    0  0.14780284921E+02 -0.34487314866E+02  0.11127831065E+03  0.14233028520E+03  0.80419002446E+02 0. -1.
<mgrwt>
<rscale>  0 0.88741465E+02</rscale>
<asrwt>0</asrwt>
<pdfrwt beam="1">  1        1 0.29145192E-01 0.88741465E+02</pdfrwt>
<pdfrwt beam="2">  1       -1 0.72240076E-02 0.88741465E+02</pdfrwt>
<totfact> 0.14212554E+04</totfact>
</mgrwt>
</event>
<event>
 4    1  0.4999097E-001  0.8589307E+02  0.7546771E-02  0.1313113E+00
         -2   -1    0    0    0  501 -0.00000000000E+00  0.00000000000E+00  0.37892105765E+03  0.37892105765E+03  0.00000000000E+00 0.  1.
          2   -1    0    0  501    0  0.00000000000E+00 -0.00000000000E+00 -0.26110392668E+02  0.26110392668E+02  0.00000000000E+00 0. -1.
         24    1    1    2    0    0 -0.27901007548E+02 -0.11486383390E+02  0.74276898982E+02  0.11355473087E+03  0.80419002446E+02 0. -1.
        -24    1    1    2    0    0  0.27901007548E+02  0.11486383390E+02  0.27853376600E+03  0.29147671945E+03  0.80419002446E+02 0.  1.
<mgrwt>
<rscale>  0 0.85893068E+02</rscale>
<asrwt>0</asrwt>
<pdfrwt beam="1">  1        2 0.40169838E-02 0.85893068E+02</pdfrwt>
<pdfrwt beam="2">  1       -2 0.58295543E-01 0.85893068E+02</pdfrwt>
<totfact> 0.53703701E+03</totfact>
</mgrwt>
</event>
<event>
 4    1  0.4999097E-001  0.8783137E+02  0.7546771E-02  0.1308190E+00
         -1   -1    0    0    0  501 -0.00000000000E+00  0.00000000000E+00  0.13785332488E+03  0.13785332488E+03  0.00000000000E+00 0.  1.
          1   -1    0    0  501    0  0.00000000000E+00 -0.00000000000E+00 -0.13819850551E+03  0.13819850551E+03  0.00000000000E+00 0. -1.
         24    1    1    2    0    0  0.21699670934E+02  0.27861405482E+02  0.10630178038E+03  0.13789277755E+03  0.80419002446E+02 0.  1.
        -24    1    1    2    0    0 -0.21699670934E+02 -0.27861405482E+02 -0.10664696101E+03  0.13815905284E+03  0.80419002446E+02 0. -1.
<mgrwt>
<rscale>  0 0.87831370E+02</rscale>
<asrwt>0</asrwt>
<pdfrwt beam="1">  1        1 0.21261308E-01 0.87831370E+02</pdfrwt>
<pdfrwt beam="2">  1       -1 0.21208204E-01 0.87831370E+02</pdfrwt>
<totfact> 0.40304054E+03</totfact>
</mgrwt>
</event>
<event>
 4    1  0.4999097E-001  0.9424142E+02  0.7546771E-02  0.1292894E+00
          1   -1    0    0  501    0  0.00000000000E+00  0.00000000000E+00  0.84627185272E+03  0.84627185272E+03  0.00000000000E+00 0. -1.
         -1   -1    0    0    0  501 -0.00000000000E+00 -0.00000000000E+00 -0.52752712919E+02  0.52752712919E+02  0.00000000000E+00 0.  1.
         24    1    1    2    0    0  0.47971199099E+02 -0.10629822771E+02 -0.55619275888E+01  0.94405402748E+02  0.80419002446E+02 0.  1.
        -24    1    1    2    0    0 -0.47971199099E+02  0.10629822771E+02  0.79908106740E+03  0.80461916290E+03  0.80419002446E+02 0. -1.
<mgrwt>
<rscale>  0 0.94241419E+02</rscale>
<asrwt>0</asrwt>
<pdfrwt beam="1">  1        1 0.13019566E+00 0.94241419E+02</pdfrwt>
<pdfrwt beam="2">  1       -1 0.81158026E-02 0.94241419E+02</pdfrwt>
<totfact> 0.17494888E+03</totfact>
</mgrwt>
</event>
<event>
 4    1  0.4999097E-001  0.8232909E+02  0.7546771E-02  0.1322569E+00
          1   -1    0    0  501    0  0.00000000000E+00  0.00000000000E+00  0.76627397029E+03  0.76627397029E+03  0.00000000000E+00 0. -1.
         -1   -1    0    0    0  501 -0.00000000000E+00 -0.00000000000E+00 -0.23875196584E+02  0.23875196584E+02  0.00000000000E+00 0.  1.
         24    1    1    2    0    0  0.15475907769E+02 -0.84474912287E+01  0.57740450436E+02  0.10055863663E+03  0.80419002446E+02 0.  1.
        -24    1    1    2    0    0 -0.15475907769E+02  0.84474912287E+01  0.68465832327E+03  0.68959053024E+03  0.80419002446E+02 0. -1.
<mgrwt>
<rscale>  0 0.82329094E+02</rscale>
<asrwt>0</asrwt>
<pdfrwt beam="1">  1        1 0.11788828E+00 0.82329094E+02</pdfrwt>
<pdfrwt beam="2">  1       -1 0.36731077E-02 0.82329094E+02</pdfrwt>
<totfact> 0.64528887E+03</totfact>
</mgrwt>
</event>
<event>
 4    1  0.4999097E-001  0.9578108E+02  0.7546771E-02  0.1289427E+00
          2   -1    0    0  501    0  0.00000000000E+00  0.00000000000E+00  0.16317861304E+02  0.16317861304E+02  0.00000000000E+00 0. -1.
         -2   -1    0    0    0  501 -0.00000000000E+00 -0.00000000000E+00 -0.69675178024E+03  0.69675178024E+03  0.00000000000E+00 0.  1.
         24    1    1    2    0    0  0.22462861899E+02  0.46927815815E+02 -0.18354318066E+03  0.20703167676E+03  0.80419002446E+02 0.  1.
        -24    1    1    2    0    0 -0.22462861899E+02 -0.46927815815E+02 -0.49689073828E+03  0.50603796478E+03  0.80419002446E+02 0. -1.
<mgrwt>
<rscale>  0 0.95781084E+02</rscale>
<asrwt>0</asrwt>
<pdfrwt beam="1">  1        2 0.25104402E-02 0.95781084E+02</pdfrwt>
<pdfrwt beam="2">  1       -2 0.10719258E+00 0.95781084E+02</pdfrwt>
<totfact> 0.26982866E+03</totfact>
</mgrwt>
</event>
<event>
 4    1  0.4999097E-001  0.9006657E+02  0.7546771E-02  0.1302691E+00
          2   -1    0    0  501    0  0.00000000000E+00  0.00000000000E+00  0.10749616145E+04  0.10749616145E+04  0.00000000000E+00 0. -1.
         -2   -1    0    0    0  501 -0.00000000000E+00 -0.00000000000E+00 -0.10124904383E+02  0.10124904383E+02  0.00000000000E+00 0.  1.
         24    1    1    2    0    0 -0.13155337894E+02  0.38362840007E+02  0.80621680712E+03  0.81123210393E+03  0.80419002446E+02 0. -1.
        -24    1    1    2    0    0  0.13155337894E+02 -0.38362840007E+02  0.25861990296E+03  0.27385441492E+03  0.80419002446E+02 0.  1.
<mgrwt>
<rscale>  0 0.90066566E+02</rscale>
<asrwt>0</asrwt>
<pdfrwt beam="1">  1        2 0.16537862E+00 0.90066566E+02</pdfrwt>
<pdfrwt beam="2">  1       -2 0.15576784E-02 0.90066566E+02</pdfrwt>
<totfact> 0.24291243E+04</totfact>
</mgrwt>
</event>
<event>
 4    1  0.4999097E-001  0.9391549E+02  0.7546771E-02  0.1293638E+00
         -2   -1    0    0    0  501 -0.00000000000E+00  0.00000000000E+00  0.17952410340E+02  0.17952410340E+02  0.00000000000E+00 0.  1.
          2   -1    0    0  501    0  0.00000000000E+00 -0.00000000000E+00 -0.50865888542E+03  0.50865888542E+03  0.00000000000E+00 0. -1.
         24    1    1    2    0    0  0.47317039969E+02  0.10677109488E+02 -0.29398704801E+03  0.30862356243E+03  0.80419002446E+02 0.  0.
        -24    1    1    2    0    0 -0.47317039969E+02 -0.10677109488E+02 -0.19671942707E+03  0.21798773332E+03  0.80419002446E+02 0. -1.
<mgrwt>
<rscale>  0 0.93915488E+02</rscale>
<asrwt>0</asrwt>
<pdfrwt beam="1">  1        2 0.78255191E-01 0.93915488E+02</pdfrwt>
<pdfrwt beam="2">  1       -2 0.27619101E-02 0.93915488E+02</pdfrwt>
<totfact> 0.26393427E+04</totfact>
</mgrwt>
</event>
<event>
 4    1  0.4999097E-001  0.1018894E+03  0.7546771E-02  0.1276372E+00
         -1   -1    0    0    0  501 -0.00000000000E+00  0.00000000000E+00  0.45714426804E+02  0.45714426804E+02  0.00000000000E+00 0.  1.
          1   -1    0    0  501    0  0.00000000000E+00 -0.00000000000E+00 -0.30519315090E+03  0.30519315090E+03  0.00000000000E+00 0. -1.
         24    1    1    2    0    0  0.34247078881E+02 -0.52358030104E+02 -0.40982822397E+02  0.10982273633E+03  0.80419002446E+02 0.  1.
        -24    1    1    2    0    0 -0.34247078881E+02  0.52358030104E+02 -0.21849590170E+03  0.24108484138E+03  0.80419002446E+02 0. -1.
<mgrwt>
<rscale>  0 0.10188936E+03</rscale>
<asrwt>0</asrwt>
<pdfrwt beam="1">  1        1 0.46952793E-01 0.10188936E+03</pdfrwt>
<pdfrwt beam="2">  1       -1 0.70329886E-02 0.10188936E+03</pdfrwt>
<totfact> 0.83523083E+03</totfact>
</mgrwt>
</event>
<event>
 4    1  0.4999097E-001  0.8393312E+02  0.7546771E-02  0.1318246E+00
         -1   -1    0    0    0  501 -0.00000000000E+00  0.00000000000E+00  0.91048244393E+01  0.91048244393E+01  0.00000000000E+00 0.  1.
          1   -1    0    0  501    0  0.00000000000E+00 -0.00000000000E+00 -0.12671794282E+04  0.12671794282E+04  0.00000000000E+00 0. -1.
         24    1    1    2    0    0 -0.13887140232E+02 -0.19613777926E+02 -0.23082453104E+03  0.24561093834E+03  0.80419002446E+02 0. -1.
        -24    1    1    2    0    0  0.13887140232E+02  0.19613777926E+02 -0.10272500727E+04  0.10306733143E+04  0.80419002446E+02 0.  0.
<mgrwt>
<rscale>  0 0.83933122E+02</rscale>
<asrwt>0</asrwt>
<pdfrwt beam="1">  1        1 0.19495055E+00 0.83933122E+02</pdfrwt>
<pdfrwt beam="2">  1       -1 0.14007432E-02 0.83933122E+02</pdfrwt>
<totfact> 0.11135152E+04</totfact>
</mgrwt>
</event>
<event>
 4    1  0.4999097E-001  0.8363498E+02  0.7546771E-02  0.1319041E+00
         -2   -1    0    0    0  501 -0.00000000000E+00  0.00000000000E+00  0.35685280060E+02  0.35685280060E+02  0.00000000000E+00 0.  1.
          2   -1    0    0  501    0  0.00000000000E+00 -0.00000000000E+00 -0.44846388408E+03  0.44846388408E+03  0.00000000000E+00 0. -1.
         24    1    1    2    0    0  0.15434085959E+02 -0.17011272599E+02 -0.38801326223E+03  0.39692455458E+03  0.80419002446E+02 0.  0.
        -24    1    1    2    0    0 -0.15434085959E+02  0.17011272599E+02 -0.24765341786E+02  0.87224609561E+02  0.80419002446E+02 0.  1.
<mgrwt>
<rscale>  0 0.83634983E+02</rscale>
<asrwt>0</asrwt>
<pdfrwt beam="1">  1        2 0.68994452E-01 0.83634983E+02</pdfrwt>
<pdfrwt beam="2">  1       -2 0.54900424E-02 0.83634983E+02</pdfrwt>
<totfact> 0.10893262E+04</totfact>
</mgrwt>
</event>
<event>
 4    1  0.4999097E-001  0.9223116E+02  0.7546771E-02  0.1297537E+00
          2   -1    0    0  501    0  0.00000000000E+00  0.00000000000E+00  0.48955035369E+04  0.48955035369E+04  0.00000000000E+00 0. -1.
         -2   -1    0    0    0  501 -0.00000000000E+00 -0.00000000000E+00 -0.19344234820E+01  0.19344234820E+01  0.00000000000E+00 0.  1.
         24    1    1    2    0    0 -0.44122269660E+02 -0.96226947313E+01  0.32278107107E+04  0.32291281441E+04  0.80419002446E+02 0. -1.
        -24    1    1    2    0    0  0.44122269660E+02  0.96226947313E+01  0.16657584027E+04  0.16683098163E+04  0.80419002446E+02 0.  1.
<mgrwt>
<rscale>  0 0.92231160E+02</rscale>
<asrwt>0</asrwt>
<pdfrwt beam="1">  1        2 0.75314447E+00 0.92231160E+02</pdfrwt>
<pdfrwt beam="2">  1       -2 0.29760753E-03 0.92231160E+02</pdfrwt>
<totfact> 0.89197123E+02</totfact>
</mgrwt>
</event>
<event>
 4    1  0.4999097E-001  0.8179407E+02  0.7546771E-02  0.1324036E+00
          2   -1    0    0  501    0  0.00000000000E+00  0.00000000000E+00  0.63630795656E+03  0.63630795656E+03  0.00000000000E+00 0. -1.
         -2   -1    0    0    0  501 -0.00000000000E+00 -0.00000000000E+00 -0.34734285676E+02  0.34734285676E+02  0.00000000000E+00 0.  1.
         24    1    1    2    0    0  0.80625527323E+01 -0.12571784034E+02  0.58096126534E+03  0.58669094274E+03  0.80419002446E+02 0.  0.
        -24    1    1    2    0    0 -0.80625527323E+01  0.12571784034E+02  0.20612405543E+02  0.84351299498E+02  0.80419002446E+02 0.  1.
<mgrwt>
<rscale>  0 0.81794074E+02</rscale>
<asrwt>0</asrwt>
<pdfrwt beam="1">  1        2 0.97893523E-01 0.81794074E+02</pdfrwt>
<pdfrwt beam="2">  1       -2 0.53437367E-02 0.81794074E+02</pdfrwt>
<totfact> 0.77291961E+03</totfact>
</mgrwt>
</event>
<event>
 4    1  0.4999097E-001  0.9162622E+02  0.7546771E-02  0.1298961E+00
         -3   -1    0    0    0  501 -0.00000000000E+00  0.00000000000E+00  0.20124510510E+03  0.20124510510E+03  0.00000000000E+00 0.  1.
          3   -1    0    0  501    0  0.00000000000E+00 -0.00000000000E+00 -0.43162303440E+02  0.43162303440E+02  0.00000000000E+00 0. -1.
         24    1    1    2    0    0  0.42306674869E+02  0.11759650890E+02  0.56680045689E+02  0.10774037155E+03  0.80419002446E+02 0. -1.
        -24    1    1    2    0    0 -0.42306674869E+02 -0.11759650890E+02  0.10140275597E+03  0.13666703699E+03  0.80419002446E+02 0.  1.
<mgrwt>
<rscale>  0 0.91626209E+02</rscale>
<asrwt>0</asrwt>
<pdfrwt beam="1">  1        3 0.66403545E-02 0.91626220E+02</pdfrwt>
<pdfrwt beam="2">  1       -3 0.30960785E-01 0.91626220E+02</pdfrwt>
<totfact> 0.30899334E+03</totfact>
</mgrwt>
</event>
<event>
 4    1  0.4999097E-001  0.8313416E+02  0.7546771E-02  0.1320385E+00
          1   -1    0    0  501    0  0.00000000000E+00  0.00000000000E+00  0.21353220695E+02  0.21353220695E+02  0.00000000000E+00 0. -1.
         -1   -1    0    0    0  501 -0.00000000000E+00 -0.00000000000E+00 -0.36666584240E+03  0.36666584240E+03  0.00000000000E+00 0.  1.
         24    1    1    2    0    0  0.18459929671E+02  0.10163642171E+02 -0.10621661353E+03  0.13488236938E+03  0.80419002446E+02 0.  0.
        -24    1    1    2    0    0 -0.18459929671E+02 -0.10163642171E+02 -0.23909600818E+03  0.25313669372E+03  0.80419002446E+02 0.  0.
<mgrwt>
<rscale>  0 0.83134146E+02</rscale>
<asrwt>0</asrwt>
<pdfrwt beam="1">  1        1 0.32851106E-02 0.83134157E+02</pdfrwt>
<pdfrwt beam="2">  1       -1 0.56410134E-01 0.83134157E+02</pdfrwt>
<totfact> 0.88389829E+03</totfact>
</mgrwt>
</event>
<event>
 4    1  0.4999097E-001  0.1108896E+03  0.7546771E-02  0.1258931E+00
         -1   -1    0    0    0  501 -0.00000000000E+00  0.00000000000E+00  0.17952500353E+02  0.17952500353E+02  0.00000000000E+00 0.  1.
          1   -1    0    0  501    0  0.00000000000E+00 -0.00000000000E+00 -0.12271459832E+04  0.12271459832E+04  0.00000000000E+00 0. -1.
         24    1    1    2    0    0 -0.15618754446E+02 -0.74735123924E+02 -0.19078273165E+03  0.22066841842E+03  0.80419002446E+02 0.  1.
        -24    1    1    2    0    0  0.15618754446E+02  0.74735123924E+02 -0.10184107512E+04  0.10244300651E+04  0.80419002446E+02 0. -1.
<mgrwt>
<rscale>  0 0.11088959E+03</rscale>
<asrwt>0</asrwt>
<pdfrwt beam="1">  1        1 0.18879168E+00 0.11088959E+03</pdfrwt>
<pdfrwt beam="2">  1       -1 0.27619233E-02 0.11088959E+03</pdfrwt>
<totfact> 0.45531285E+03</totfact>
</mgrwt>
</event>
<event>
 4    1  0.4999097E-001  0.8205601E+02  0.7546771E-02  0.1323316E+00
          1   -1    0    0  501    0  0.00000000000E+00  0.00000000000E+00  0.11078081230E+03  0.11078081230E+03  0.00000000000E+00 0. -1.
         -1   -1    0    0    0  501 -0.00000000000E+00 -0.00000000000E+00 -0.12665466231E+03  0.12665466231E+03  0.00000000000E+00 0.  1.
         24    1    1    2    0    0  0.11728453154E+02 -0.11332057425E+02 -0.93555164641E+02  0.12444178126E+03  0.80419002446E+02 0.  0.
        -24    1    1    2    0    0 -0.11728453154E+02  0.11332057425E+02  0.77681314634E+02  0.11299369335E+03  0.80419002446E+02 0. -1.
<mgrwt>
<rscale>  0 0.82056006E+02</rscale>
<asrwt>0</asrwt>
<pdfrwt beam="1">  1        1 0.17043202E-01 0.82056006E+02</pdfrwt>
<pdfrwt beam="2">  1       -1 0.19485333E-01 0.82056006E+02</pdfrwt>
<totfact> 0.60566635E+03</totfact>
</mgrwt>
</event>
<event>
 4    1  0.4999097E-001  0.1212780E+03  0.7546771E-02  0.1241003E+00
         -1   -1    0    0    0  501 -0.00000000000E+00  0.00000000000E+00  0.73050233996E+02  0.73050233996E+02  0.00000000000E+00 0.  1.
          1   -1    0    0  501    0  0.00000000000E+00 -0.00000000000E+00 -0.32470981190E+03  0.32470981190E+03  0.00000000000E+00 0. -1.
         24    1    1    2    0    0  0.89371370509E+02 -0.15934290452E+02 -0.32446966545E+01  0.12132142222E+03  0.80419002446E+02 0.  0.
        -24    1    1    2    0    0 -0.89371370509E+02  0.15934290452E+02 -0.24841488125E+03  0.27643862368E+03  0.80419002446E+02 0. -1.
<mgrwt>
<rscale>  0 0.12127803E+03</rscale>
<asrwt>0</asrwt>
<pdfrwt beam="1">  1        1 0.49955355E-01 0.12127803E+03</pdfrwt>
<pdfrwt beam="2">  1       -1 0.11238498E-01 0.12127803E+03</pdfrwt>
<totfact> 0.38582380E+03</totfact>
</mgrwt>
</event>
<event>
 4    1  0.4999097E-001  0.1556441E+03  0.7546771E-02  0.1193704E+00
         -2   -1    0    0    0  501 -0.00000000000E+00  0.00000000000E+00  0.15964679869E+03  0.15964679869E+03  0.00000000000E+00 0.  1.
          2   -1    0    0  501    0  0.00000000000E+00 -0.00000000000E+00 -0.78958229191E+03  0.78958229191E+03  0.00000000000E+00 0. -1.
         24    1    1    2    0    0  0.52117333264E+02  0.12264435820E+03 -0.74154572619E+03  0.75770385706E+03  0.80419002446E+02 0. -1.
        -24    1    1    2    0    0 -0.52117333264E+02 -0.12264435820E+03  0.11161023296E+03  0.19152523354E+03  0.80419002446E+02 0.  1.
<mgrwt>
<rscale>  0 0.15564405E+03</rscale>
<asrwt>0</asrwt>
<pdfrwt beam="1">  1        2 0.12147420E+00 0.15564405E+03</pdfrwt>
<pdfrwt beam="2">  1       -2 0.24561047E-01 0.15564405E+03</pdfrwt>
<totfact> 0.53618384E+02</totfact>
</mgrwt>
</event>
<event>
 4    1  0.4999097E-001  0.8786100E+02  0.7546771E-02  0.1308116E+00
         -1   -1    0    0    0  501 -0.00000000000E+00  0.00000000000E+00  0.55973573524E+01  0.55973573524E+01  0.00000000000E+00 0.  1.
          1   -1    0    0  501    0  0.00000000000E+00 -0.00000000000E+00 -0.25120761945E+04  0.25120761945E+04  0.00000000000E+00 0. -1.
         24    1    1    2    0    0  0.33916987835E+02 -0.10098393523E+02 -0.40785314730E+03  0.41720947416E+03  0.80419002446E+02 0.  1.
        -24    1    1    2    0    0 -0.33916987835E+02  0.10098393523E+02 -0.20986256899E+04  0.21004640777E+04  0.80419002446E+02 0. -1.
<mgrwt>
<rscale>  0 0.87861001E+02</rscale>
<asrwt>0</asrwt>
<pdfrwt beam="1">  1        1 0.38647435E+00 0.87861001E+02</pdfrwt>
<pdfrwt beam="2">  1       -1 0.86112948E-03 0.87861001E+02</pdfrwt>
<totfact> 0.36056038E+03</totfact>
</mgrwt>
</event>
<event>
 4    1  0.4999097E-001  0.8143851E+02  0.7546771E-02  0.1325018E+00
         -1   -1    0    0    0  501 -0.00000000000E+00  0.00000000000E+00  0.71552833271E+02  0.71552833271E+02  0.00000000000E+00 0.  1.
          1   -1    0    0  501    0  0.00000000000E+00 -0.00000000000E+00 -0.20409665537E+03  0.20409665537E+03  0.00000000000E+00 0. -1.
         24    1    1    2    0    0  0.12762596970E+02 -0.14598717450E+01  0.35555534318E+02  0.88861842666E+02  0.80419002446E+02 0.  1.
        -24    1    1    2    0    0 -0.12762596970E+02  0.14598717450E+01 -0.16809935642E+03  0.18678764598E+03  0.80419002446E+02 0.  0.
<mgrwt>
<rscale>  0 0.81438511E+02</rscale>
<asrwt>0</asrwt>
<pdfrwt beam="1">  1        1 0.31399485E-01 0.81438511E+02</pdfrwt>
<pdfrwt beam="2">  1       -1 0.11008128E-01 0.81438511E+02</pdfrwt>
<totfact> 0.68476254E+03</totfact>
</mgrwt>
</event>
<event>
 4    1  0.4999097E-001  0.9443669E+02  0.7546771E-02  0.1292450E+00
          2   -1    0    0  501    0  0.00000000000E+00  0.00000000000E+00  0.18020610857E+03  0.18020610857E+03  0.00000000000E+00 0. -1.
         -2   -1    0    0    0  501 -0.00000000000E+00 -0.00000000000E+00 -0.75051882628E+02  0.75051882628E+02  0.00000000000E+00 0.  1.
         24    1    1    2    0    0  0.33787251369E+02  0.36186872684E+02 -0.21908166956E+02  0.96944581300E+02  0.80419002446E+02 0.  1.
        -24    1    1    2    0    0 -0.33787251369E+02 -0.36186872684E+02  0.12706239289E+03  0.15831340989E+03  0.80419002446E+02 0.  0.
<mgrwt>
<rscale>  0 0.94436679E+02</rscale>
<asrwt>0</asrwt>
<pdfrwt beam="1">  1        2 0.27724017E-01 0.94436691E+02</pdfrwt>
<pdfrwt beam="2">  1       -2 0.11546444E-01 0.94436691E+02</pdfrwt>
<totfact> 0.92288530E+03</totfact>
</mgrwt>
</event>
<event>
 4    1  0.4999097E-001  0.9819478E+02  0.7546771E-02  0.1284139E+00
          2   -1    0    0  501    0  0.00000000000E+00  0.00000000000E+00  0.17619392580E+04  0.17619392580E+04  0.00000000000E+00 0. -1.
         -2   -1    0    0    0  501 -0.00000000000E+00 -0.00000000000E+00 -0.54751795670E+01  0.54751795670E+01  0.00000000000E+00 0.  1.
         24    1    1    2    0    0  0.43548579459E+02  0.35756334883E+02  0.85867735223E+03  0.86427368666E+03  0.80419002446E+02 0. -1.
        -24    1    1    2    0    0 -0.43548579459E+02 -0.35756334883E+02  0.89778672620E+03  0.90314075091E+03  0.80419002446E+02 0.  0.
<mgrwt>
<rscale>  0 0.98194769E+02</rscale>
<asrwt>0</asrwt>
<pdfrwt beam="1">  1        2 0.27106713E+00 0.98194781E+02</pdfrwt>
<pdfrwt beam="2">  1       -2 0.84233672E-03 0.98194781E+02</pdfrwt>
<totfact> 0.25588049E+04</totfact>
</mgrwt>
</event>
<event>
 4    1  0.4999097E-001  0.1125489E+03  0.7546771E-02  0.1255921E+00
          2   -1    0    0  501    0  0.00000000000E+00  0.00000000000E+00  0.20418212550E+03  0.20418212550E+03  0.00000000000E+00 0. -1.
         -2   -1    0    0    0  501 -0.00000000000E+00 -0.00000000000E+00 -0.67200464651E+02  0.67200464651E+02  0.00000000000E+00 0.  1.
         24    1    1    2    0    0  0.64467532617E+02  0.45210333861E+02  0.10609644717E+03  0.15467291006E+03  0.80419002446E+02 0. -1.
        -24    1    1    2    0    0 -0.64467532617E+02 -0.45210333861E+02  0.30885213684E+02  0.11670968010E+03  0.80419002446E+02 0.  1.
<mgrwt>
<rscale>  0 0.11254889E+03</rscale>
<asrwt>0</asrwt>
<pdfrwt beam="1">  1        2 0.31412634E-01 0.11254889E+03</pdfrwt>
<pdfrwt beam="2">  1       -2 0.10338533E-01 0.11254889E+03</pdfrwt>
<totfact> 0.97435054E+03</totfact>
</mgrwt>
</event>
<event>
 4    1  0.4999097E-001  0.8596385E+02  0.7546771E-02  0.1312931E+00
         -2   -1    0    0    0  501 -0.00000000000E+00  0.00000000000E+00  0.25829704009E+02  0.25829704009E+02  0.00000000000E+00 0.  1.
          2   -1    0    0  501    0  0.00000000000E+00 -0.00000000000E+00 -0.52023063793E+03  0.52023063793E+03  0.00000000000E+00 0. -1.
         24    1    1    2    0    0  0.79421513581E+01 -0.29317048522E+02 -0.43036661948E+03  0.43886810116E+03  0.80419002446E+02 0. -1.
        -24    1    1    2    0    0 -0.79421513581E+01  0.29317048522E+02 -0.64034314441E+02  0.10719224078E+03  0.80419002446E+02 0.  1.
<mgrwt>
<rscale>  0 0.85963847E+02</rscale>
<asrwt>0</asrwt>
<pdfrwt beam="1">  1        2 0.80035480E-01 0.85963847E+02</pdfrwt>
<pdfrwt beam="2">  1       -2 0.39738008E-02 0.85963847E+02</pdfrwt>
<totfact> 0.15016238E+04</totfact>
</mgrwt>
</event>
<event>
 4    1  0.4999097E-001  0.8934359E+02  0.7546771E-02  0.1304449E+00
          1   -1    0    0  501    0  0.00000000000E+00  0.00000000000E+00  0.15215622027E+03  0.15215622027E+03  0.00000000000E+00 0. -1.
         -1   -1    0    0    0  501 -0.00000000000E+00 -0.00000000000E+00 -0.35306970100E+03  0.35306970100E+03  0.00000000000E+00 0.  1.
         24    1    1    2    0    0  0.19206343474E+02 -0.33855254458E+02 -0.33354807480E+03  0.34530652475E+03  0.80419002446E+02 0.  1.
        -24    1    1    2    0    0 -0.19206343474E+02  0.33855254458E+02  0.13263459406E+03  0.15991939651E+03  0.80419002446E+02 0. -1.
<mgrwt>
<rscale>  0 0.89343594E+02</rscale>
<asrwt>0</asrwt>
<pdfrwt beam="1">  1        1 0.23408649E-01 0.89343594E+02</pdfrwt>
<pdfrwt beam="2">  1       -1 0.54318415E-01 0.89343594E+02</pdfrwt>
<totfact> 0.72443946E+02</totfact>
</mgrwt>
</event>
<event>
 4    1  0.4999097E-001  0.1214910E+03  0.7546771E-02  0.1240657E+00
          1   -1    0    0  501    0  0.00000000000E+00  0.00000000000E+00  0.28951496362E+02  0.28951496362E+02  0.00000000000E+00 0. -1.
         -1   -1    0    0    0  501 -0.00000000000E+00 -0.00000000000E+00 -0.79535657331E+03  0.79535657331E+03  0.00000000000E+00 0.  1.
         24    1    1    2    0    0 -0.12672827712E+02  0.90179033311E+02 -0.63015246090E+03  0.64175711803E+03  0.80419002446E+02 0.  1.
        -24    1    1    2    0    0  0.12672827712E+02 -0.90179033311E+02 -0.13625261605E+03  0.18255095164E+03  0.80419002446E+02 0. -1.
<mgrwt>
<rscale>  0 0.12149105E+03</rscale>
<asrwt>0</asrwt>
<pdfrwt beam="1">  1        1 0.44540763E-02 0.12149105E+03</pdfrwt>
<pdfrwt beam="2">  1       -1 0.12236255E+00 0.12149105E+03</pdfrwt>
<totfact> 0.12041890E+03</totfact>
</mgrwt>
</event>
<event>
 4    1  0.4999097E-001  0.8339675E+02  0.7546771E-02  0.1319679E+00
         -3   -1    0    0    0  501 -0.00000000000E+00  0.00000000000E+00  0.39061836095E+03  0.39061836095E+03  0.00000000000E+00 0.  1.
          3   -1    0    0  501    0  0.00000000000E+00 -0.00000000000E+00 -0.78261648219E+02  0.78261648219E+02  0.00000000000E+00 0. -1.
         24    1    1    2    0    0  0.21915705166E+02  0.27393047964E+01  0.36223125395E+03  0.37170754528E+03  0.80419002446E+02 0.  1.
        -24    1    1    2    0    0 -0.21915705166E+02 -0.27393047964E+01 -0.49874541215E+02  0.97172463895E+02  0.80419002446E+02 0. -1.
<mgrwt>
<rscale>  0 0.83396750E+02</rscale>
<asrwt>0</asrwt>
<pdfrwt beam="1">  1        3 0.12040254E-01 0.83396750E+02</pdfrwt>
<pdfrwt beam="2">  1       -3 0.60095131E-01 0.83396750E+02</pdfrwt>
<totfact> 0.32066456E+02</totfact>
</mgrwt>
</event>
<event>
 4    1  0.4999097E-001  0.9033784E+02  0.7546771E-02  0.1302036E+00
          2   -1    0    0  501    0  0.00000000000E+00  0.00000000000E+00  0.81834637554E+03  0.81834637554E+03  0.00000000000E+00 0. -1.
         -2   -1    0    0    0  501 -0.00000000000E+00 -0.00000000000E+00 -0.13194339222E+02  0.13194339222E+02  0.00000000000E+00 0.  1.
         24    1    1    2    0    0  0.41087838867E+02 -0.23449553993E+01  0.60802993674E+03  0.61470426161E+03  0.80419002446E+02 0. -1.
        -24    1    1    2    0    0 -0.41087838867E+02  0.23449553993E+01  0.19712209958E+03  0.21683645316E+03  0.80419002446E+02 0.  1.
<mgrwt>
<rscale>  0 0.90337840E+02</rscale>
<asrwt>0</asrwt>
<pdfrwt beam="1">  1        2 0.12589940E+00 0.90337840E+02</pdfrwt>
<pdfrwt beam="2">  1       -2 0.20298990E-02 0.90337840E+02</pdfrwt>
<totfact> 0.23777733E+04</totfact>
</mgrwt>
</event>
<event>
 4    1  0.4999097E-001  0.1585487E+03  0.7546771E-02  0.1190345E+00
         -4   -1    0    0    0  501 -0.00000000000E+00  0.00000000000E+00  0.22546426207E+03  0.22546426207E+03  0.00000000000E+00 0.  1.
          4   -1    0    0  501    0  0.00000000000E+00 -0.00000000000E+00 -0.12211795535E+03  0.12211795535E+03  0.00000000000E+00 0. -1.
         24    1    1    2    0    0  0.76924356798E+02  0.11292977199E+03  0.41067236724E+00  0.15854928154E+03  0.80419002446E+02 0. -1.
        -24    1    1    2    0    0 -0.76924356798E+02 -0.11292977199E+03  0.10293563435E+03  0.18903293587E+03  0.80419002446E+02 0.  1.
<mgrwt>
<rscale>  0 0.15854875E+03</rscale>
<asrwt>0</asrwt>
<pdfrwt beam="1">  1        4 0.18787378E-01 0.15854875E+03</pdfrwt>
<pdfrwt beam="2">  1       -4 0.34686810E-01 0.15854875E+03</pdfrwt>
<totfact> 0.34763095E+02</totfact>
</mgrwt>
</event>
<event>
 4    1  0.4999097E-001  0.1516391E+03  0.7546771E-02  0.1198473E+00
          2   -1    0    0  501    0  0.00000000000E+00  0.00000000000E+00  0.44112864603E+04  0.44112864603E+04  0.00000000000E+00 0. -1.
         -2   -1    0    0    0  501 -0.00000000000E+00 -0.00000000000E+00 -0.56574926634E+01  0.56574926634E+01  0.00000000000E+00 0.  1.
         24    1    1    2    0    0 -0.68093518994E+02 -0.10904344258E+03  0.15835280046E+04  0.15907719375E+04  0.80419002446E+02 0.  0.
        -24    1    1    2    0    0  0.68093518994E+02  0.10904344258E+03  0.28221009630E+04  0.28261720155E+04  0.80419002446E+02 0.  1.
<mgrwt>
<rscale>  0 0.15163912E+03</rscale>
<asrwt>0</asrwt>
<pdfrwt beam="1">  1        2 0.67865671E+00 0.15163913E+03</pdfrwt>
<pdfrwt beam="2">  1       -2 0.87038701E-03 0.15163913E+03</pdfrwt>
<totfact> 0.56031819E+02</totfact>
</mgrwt>
</event>
<event>
 4    1  0.4999097E-001  0.8878761E+02  0.7546771E-02  0.1305815E+00
         -4   -1    0    0    0  501 -0.00000000000E+00  0.00000000000E+00  0.20955138369E+02  0.20955138369E+02  0.00000000000E+00 0.  1.
          4   -1    0    0  501    0  0.00000000000E+00 -0.00000000000E+00 -0.44142440200E+03  0.44142440200E+03  0.00000000000E+00 0. -1.
         24    1    1    2    0    0 -0.38917167673E+01  0.37428310060E+02 -0.29910535679E+03  0.31200521513E+03  0.80419002446E+02 0. -1.
        -24    1    1    2    0    0  0.38917167673E+01 -0.37428310060E+02 -0.12136390685E+03  0.15037432525E+03  0.80419002446E+02 0.  1.
<mgrwt>
<rscale>  0 0.88787611E+02</rscale>
<asrwt>0</asrwt>
<pdfrwt beam="1">  1        4 0.67911441E-01 0.88787611E+02</pdfrwt>
<pdfrwt beam="2">  1       -4 0.32238677E-02 0.88787611E+02</pdfrwt>
<totfact> 0.14614816E+03</totfact>
</mgrwt>
</event>
<event>
 4    1  0.4999097E-001  0.8099771E+02  0.7546771E-02  0.1326244E+00
         -2   -1    0    0    0  501 -0.00000000000E+00  0.00000000000E+00  0.18669107854E+02  0.18669107854E+02  0.00000000000E+00 0.  1.
          2   -1    0    0  501    0  0.00000000000E+00 -0.00000000000E+00 -0.23970837116E+04  0.23970837116E+04  0.00000000000E+00 0. -1.
         24    1    1    2    0    0  0.55651175591E+01 -0.79020903119E+01 -0.23050382646E+04  0.23064609320E+04  0.80419002446E+02 0. -1.
        -24    1    1    2    0    0 -0.55651175591E+01  0.79020903119E+01 -0.73376339142E+02  0.10929188746E+03  0.80419002446E+02 0.  1.
<mgrwt>
<rscale>  0 0.80997713E+02</rscale>
<asrwt>0</asrwt>
<pdfrwt beam="1">  1        2 0.36878238E+00 0.80997713E+02</pdfrwt>
<pdfrwt beam="2">  1       -2 0.28721683E-02 0.80997713E+02</pdfrwt>
<totfact> 0.21053405E+03</totfact>
</mgrwt>
</event>
<event>
 4    1  0.4999097E-001  0.8174899E+02  0.7546771E-02  0.1324160E+00
         -2   -1    0    0    0  501 -0.00000000000E+00  0.00000000000E+00  0.33725615201E+02  0.33725615201E+02  0.00000000000E+00 0.  1.
          2   -1    0    0  501    0  0.00000000000E+00 -0.00000000000E+00 -0.37387209357E+03  0.37387209357E+03  0.00000000000E+00 0. -1.
         24    1    1    2    0    0  0.14669364437E+02  0.70112746256E+00 -0.30978960279E+03  0.32039428176E+03  0.80419002446E+02 0. -1.
        -24    1    1    2    0    0 -0.14669364437E+02 -0.70112746256E+00 -0.30356875572E+02  0.87203427006E+02  0.80419002446E+02 0.  1.
<mgrwt>
<rscale>  0 0.81748993E+02</rscale>
<asrwt>0</asrwt>
<pdfrwt beam="1">  1        2 0.57518787E-01 0.81748993E+02</pdfrwt>
<pdfrwt beam="2">  1       -2 0.51885559E-02 0.81748993E+02</pdfrwt>
<totfact> 0.14314700E+04</totfact>
</mgrwt>
</event>
<event>
 4    1  0.4999097E-001  0.1254295E+03  0.7546771E-02  0.1234400E+00
          1   -1    0    0  501    0  0.00000000000E+00  0.00000000000E+00  0.57712055843E+02  0.57712055843E+02  0.00000000000E+00 0. -1.
         -1   -1    0    0    0  501 -0.00000000000E+00 -0.00000000000E+00 -0.28196458655E+03  0.28196458655E+03  0.00000000000E+00 0.  1.
         24    1    1    2    0    0 -0.95163875253E+02  0.14463211580E+02 -0.81182058573E+02  0.14940913704E+03  0.80419002446E+02 0. -1.
        -24    1    1    2    0    0  0.95163875253E+02 -0.14463211580E+02 -0.14307047214E+03  0.19026750536E+03  0.80419002446E+02 0.  1.
<mgrwt>
<rscale>  0 0.12542953E+03</rscale>
<asrwt>0</asrwt>
<pdfrwt beam="1">  1        1 0.88787778E-02 0.12542955E+03</pdfrwt>
<pdfrwt beam="2">  1       -1 0.43379167E-01 0.12542955E+03</pdfrwt>
<totfact> 0.38395882E+03</totfact>
</mgrwt>
</event>
<event>
 4    1  0.4999097E-001  0.8561260E+02  0.7546771E-02  0.1313838E+00
         -2   -1    0    0    0  501 -0.00000000000E+00  0.00000000000E+00  0.41495938741E+01  0.41495938741E+01  0.00000000000E+00 0.  1.
          2   -1    0    0  501    0  0.00000000000E+00 -0.00000000000E+00 -0.28173406083E+04  0.28173406083E+04  0.00000000000E+00 0. -1.
         24    1    1    2    0    0  0.11015096237E+02 -0.27220759102E+02 -0.22682519149E+04  0.22698670154E+04  0.80419002446E+02 0. -1.
        -24    1    1    2    0    0 -0.11015096237E+02  0.27220759102E+02 -0.54493909951E+03  0.55162318679E+03  0.80419002446E+02 0.  1.
<mgrwt>
<rscale>  0 0.85612604E+02</rscale>
<asrwt>0</asrwt>
<pdfrwt beam="1">  1        2 0.43343744E+00 0.85612604E+02</pdfrwt>
<pdfrwt beam="2">  1       -2 0.63839844E-03 0.85612604E+02</pdfrwt>
<totfact> 0.10686240E+04</totfact>
</mgrwt>
</event>
<event>
 4    1  0.4999097E-001  0.8957780E+02  0.7546771E-02  0.1303877E+00
          2   -1    0    0  501    0  0.00000000000E+00  0.00000000000E+00  0.10814328080E+03  0.10814328080E+03  0.00000000000E+00 0. -1.
         -2   -1    0    0    0  501 -0.00000000000E+00 -0.00000000000E+00 -0.74305819645E+02  0.74305819645E+02  0.00000000000E+00 0.  1.
         24    1    1    2    0    0  0.49058369394E+00  0.39455364173E+02  0.20368675364E+02  0.91864385508E+02  0.80419002446E+02 0. -1.
        -24    1    1    2    0    0 -0.49058369394E+00 -0.39455364173E+02  0.13468785786E+02  0.90584714932E+02  0.80419002446E+02 0.  1.
<mgrwt>
<rscale>  0 0.89577801E+02</rscale>
<asrwt>0</asrwt>
<pdfrwt beam="1">  1        2 0.16637428E-01 0.89577801E+02</pdfrwt>
<pdfrwt beam="2">  1       -2 0.11431665E-01 0.89577801E+02</pdfrwt>
<totfact> 0.16431333E+04</totfact>
</mgrwt>
</event>
<event>
 4    1  0.4999097E-001  0.9715566E+02  0.7546771E-02  0.1286393E+00
         -1   -1    0    0    0  501 -0.00000000000E+00  0.00000000000E+00  0.22946721934E+03  0.22946721934E+03  0.00000000000E+00 0.  1.
          1   -1    0    0  501    0  0.00000000000E+00 -0.00000000000E+00 -0.71582880800E+02  0.71582880800E+02  0.00000000000E+00 0. -1.
         24    1    1    2    0    0 -0.54441930589E+02  0.28430739565E+01  0.17711243597E+03  0.20200999432E+03  0.80419002446E+02 0.  1.
        -24    1    1    2    0    0  0.54441930589E+02 -0.28430739565E+01 -0.19228097429E+02  0.99040105820E+02  0.80419002446E+02 0. -1.
<mgrwt>
<rscale>  0 0.97155663E+02</rscale>
<asrwt>0</asrwt>
<pdfrwt beam="1">  1        1 0.11012751E-01 0.97155663E+02</pdfrwt>
<pdfrwt beam="2">  1       -1 0.35302649E-01 0.97155663E+02</pdfrwt>
<totfact> 0.40661972E+03</totfact>
</mgrwt>
</event>
<event>
 4    1  0.4999097E-001  0.8819109E+02  0.7546771E-02  0.1307292E+00
          2   -1    0    0  501    0  0.00000000000E+00  0.00000000000E+00  0.12648061368E+03  0.12648061368E+03  0.00000000000E+00 0. -1.
         -2   -1    0    0    0  501 -0.00000000000E+00 -0.00000000000E+00 -0.98557903669E+02  0.98557903669E+02  0.00000000000E+00 0.  1.
         24    1    1    2    0    0  0.34867627358E+02 -0.97314768755E+01  0.82963521414E+02  0.12108102626E+03  0.80419002446E+02 0. -1.
        -24    1    1    2    0    0 -0.34867627358E+02  0.97314768755E+01 -0.55040811403E+02  0.10395749109E+03  0.80419002446E+02 0.  1.
<mgrwt>
<rscale>  0 0.88191094E+02</rscale>
<asrwt>0</asrwt>
<pdfrwt beam="1">  1        2 0.19458556E-01 0.88191094E+02</pdfrwt>
<pdfrwt beam="2">  1       -2 0.15162754E-01 0.88191094E+02</pdfrwt>
<totfact> 0.87589478E+03</totfact>
</mgrwt>
</event>
<event>
 4    1  0.4999097E-001  0.8709090E+02  0.7546771E-02  0.1310053E+00
          1   -1    0    0  501    0  0.00000000000E+00  0.00000000000E+00  0.35454259970E+03  0.35454259970E+03  0.00000000000E+00 0. -1.
         -1   -1    0    0    0  501 -0.00000000000E+00 -0.00000000000E+00 -0.21729786300E+03  0.21729786300E+03  0.00000000000E+00 0.  1.
         24    1    1    2    0    0  0.28991778124E+02 -0.16645889708E+02 -0.20285865050E+03  0.22076335040E+03  0.80419002446E+02 0.  1.
        -24    1    1    2    0    0 -0.28991778124E+02  0.16645889708E+02  0.34010338720E+03  0.35107711230E+03  0.80419002446E+02 0. -1.
<mgrwt>
<rscale>  0 0.87090900E+02</rscale>
<asrwt>0</asrwt>
<pdfrwt beam="1">  1        1 0.54545015E-01 0.87090900E+02</pdfrwt>
<pdfrwt beam="2">  1       -1 0.33430441E-01 0.87090900E+02</pdfrwt>
<totfact> 0.60191882E+02</totfact>
</mgrwt>
</event>
<event>
 4    1  0.4999097E-001  0.8199301E+02  0.7546771E-02  0.1323489E+00
         -1   -1    0    0    0  501 -0.00000000000E+00  0.00000000000E+00  0.13800135315E+03  0.13800135315E+03  0.00000000000E+00 0.  1.
          1   -1    0    0  501    0  0.00000000000E+00 -0.00000000000E+00 -0.72626816161E+03  0.72626816161E+03  0.00000000000E+00 0. -1.
         24    1    1    2    0    0  0.19691532417E-02 -0.15988691333E+02  0.12325666247E+03  0.14803735695E+03  0.80419002446E+02 0.  1.
        -24    1    1    2    0    0 -0.19691532417E-02  0.15988691333E+02 -0.71152347093E+03  0.71623215781E+03  0.80419002446E+02 0. -1.
<mgrwt>
<rscale>  0 0.81993013E+02</rscale>
<asrwt>0</asrwt>
<pdfrwt beam="1">  1        1 0.11173356E+00 0.81993013E+02</pdfrwt>
<pdfrwt beam="2">  1       -1 0.21230978E-01 0.81993013E+02</pdfrwt>
<totfact> 0.49882860E+02</totfact>
</mgrwt>
</event>
<event>
 4    1  0.4999097E-001  0.8985331E+02  0.7546771E-02  0.1303207E+00
          1   -1    0    0  501    0  0.00000000000E+00  0.00000000000E+00  0.12255551996E+04  0.12255551996E+04  0.00000000000E+00 0. -1.
         -1   -1    0    0    0  501 -0.00000000000E+00 -0.00000000000E+00 -0.73348565105E+01  0.73348565105E+01  0.00000000000E+00 0.  1.
         24    1    1    2    0    0  0.36145317767E+02  0.17317986321E+02  0.80585302824E+03  0.81084691263E+03  0.80419002446E+02 0.  0.
        -24    1    1    2    0    0 -0.36145317767E+02 -0.17317986321E+02  0.41236731485E+03  0.42204314348E+03  0.80419002446E+02 0.  0.
<mgrwt>
<rscale>  0 0.89853295E+02</rscale>
<asrwt>0</asrwt>
<pdfrwt beam="1">  1        1 0.18854679E+00 0.89853306E+02</pdfrwt>
<pdfrwt beam="2">  1       -1 0.11284404E-02 0.89853306E+02</pdfrwt>
<totfact> 0.16187433E+04</totfact>
</mgrwt>
</event>
<event>
 4    1  0.4999097E-001  0.1100796E+03  0.7546771E-02  0.1260423E+00
          4   -1    0    0  501    0  0.00000000000E+00  0.00000000000E+00  0.33247052153E+03  0.33247052153E+03  0.00000000000E+00 0. -1.
         -4   -1    0    0    0  501 -0.00000000000E+00 -0.00000000000E+00 -0.94927305558E+02  0.94927305558E+02  0.00000000000E+00 0.  1.
         24    1    1    2    0    0 -0.29568385780E+02 -0.69108691208E+02  0.28650207705E+03  0.30692174369E+03  0.80419002446E+02 0. -1.
        -24    1    1    2    0    0  0.29568385780E+02  0.69108691208E+02 -0.48958861083E+02  0.12047608340E+03  0.80419002446E+02 0.  1.
<mgrwt>
<rscale>  0 0.11007959E+03</rscale>
<asrwt>0</asrwt>
<pdfrwt beam="1">  1        4 0.51149311E-01 0.11007959E+03</pdfrwt>
<pdfrwt beam="2">  1       -4 0.14604201E-01 0.11007959E+03</pdfrwt>
<totfact> 0.23447716E+02</totfact>
</mgrwt>
</event>
<event>
 4    1  0.4999097E-001  0.8936770E+02  0.7546771E-02  0.1304390E+00
          2   -1    0    0  501    0  0.00000000000E+00  0.00000000000E+00  0.14473518630E+04  0.14473518630E+04  0.00000000000E+00 0. -1.
         -2   -1    0    0    0  501 -0.00000000000E+00 -0.00000000000E+00 -0.57917066198E+01  0.57917066198E+01  0.00000000000E+00 0.  1.
         24    1    1    2    0    0  0.31331984858E+02  0.23187848753E+02  0.87870991572E+03  0.88324271950E+03  0.80419002446E+02 0. -1.
        -24    1    1    2    0    0 -0.31331984858E+02 -0.23187848753E+02  0.56285024062E+03  0.56990085009E+03  0.80419002446E+02 0.  1.
<mgrwt>
<rscale>  0 0.89367699E+02</rscale>
<asrwt>0</asrwt>
<pdfrwt beam="1">  1        2 0.22266923E+00 0.89367699E+02</pdfrwt>
<pdfrwt beam="2">  1       -2 0.89103294E-03 0.89367699E+02</pdfrwt>
<totfact> 0.33875851E+04</totfact>
</mgrwt>
</event>
<event>
 4    1  0.4999097E-001  0.8070124E+02  0.7546771E-02  0.1327073E+00
          1   -1    0    0  501    0  0.00000000000E+00  0.00000000000E+00  0.40385865386E+03  0.40385865386E+03  0.00000000000E+00 0. -1.
         -1   -1    0    0    0  501 -0.00000000000E+00 -0.00000000000E+00 -0.19600370972E+02  0.19600370972E+02  0.00000000000E+00 0.  1.
         24    1    1    2    0    0  0.50384503081E+01 -0.44819808720E+01  0.10298819952E+03  0.13084058747E+03  0.80419002446E+02 0.  1.
        -24    1    1    2    0    0 -0.50384503081E+01  0.44819808720E+01  0.28127008337E+03  0.29261843737E+03  0.80419002446E+02 0. -1.
<mgrwt>
<rscale>  0 0.80701240E+02</rscale>
<asrwt>0</asrwt>
<pdfrwt beam="1">  1        1 0.62132094E-01 0.80701240E+02</pdfrwt>
<pdfrwt beam="2">  1       -1 0.30154420E-02 0.80701240E+02</pdfrwt>
<totfact> 0.19933998E+04</totfact>
</mgrwt>
</event>
<event>
 4    1  0.4999097E-001  0.9251218E+02  0.7546771E-02  0.1296880E+00
          1   -1    0    0  501    0  0.00000000000E+00  0.00000000000E+00  0.35488062604E+03  0.35488062604E+03  0.00000000000E+00 0. -1.
         -1   -1    0    0    0  501 -0.00000000000E+00 -0.00000000000E+00 -0.64910657152E+02  0.64910657152E+02  0.00000000000E+00 0.  1.
         24    1    1    2    0    0  0.16903792926E+02 -0.42491760323E+02 -0.21411452069E+02  0.94957643951E+02  0.80419002446E+02 0.  1.
        -24    1    1    2    0    0 -0.16903792926E+02  0.42491760323E+02  0.31138142095E+03  0.32483363924E+03  0.80419002446E+02 0. -1.
<mgrwt>
<rscale>  0 0.92512182E+02</rscale>
<asrwt>0</asrwt>
<pdfrwt beam="1">  1        1 0.54597018E-01 0.92512182E+02</pdfrwt>
<pdfrwt beam="2">  1       -1 0.99862552E-02 0.92512182E+02</pdfrwt>
<totfact> 0.40759498E+03</totfact>
</mgrwt>
</event>
<event>
 4    1  0.4999097E-001  0.8620845E+02  0.7546771E-02  0.1312302E+00
          2   -1    0    0  501    0  0.00000000000E+00  0.00000000000E+00  0.46074283072E+03  0.46074283072E+03  0.00000000000E+00 0. -1.
         -2   -1    0    0    0  501 -0.00000000000E+00 -0.00000000000E+00 -0.98697554264E+02  0.98697554264E+02  0.00000000000E+00 0.  1.
         24    1    1    2    0    0  0.29291100702E+02  0.10330150885E+02  0.43686630957E+03  0.44529099361E+03  0.80419002446E+02 0. -1.
        -24    1    1    2    0    0 -0.29291100702E+02 -0.10330150885E+02 -0.74821033122E+02  0.11414939137E+03  0.80419002446E+02 0.  1.
<mgrwt>
<rscale>  0 0.86208448E+02</rscale>
<asrwt>0</asrwt>
<pdfrwt beam="1">  1        2 0.70883511E-01 0.86208448E+02</pdfrwt>
<pdfrwt beam="2">  1       -2 0.15184239E-01 0.86208448E+02</pdfrwt>
<totfact> 0.22024916E+03</totfact>
</mgrwt>
</event>
<event>
 4    1  0.4999097E-001  0.1200526E+03  0.7546771E-02  0.1243010E+00
         -2   -1    0    0    0  501 -0.00000000000E+00  0.00000000000E+00  0.49493895437E+02  0.49493895437E+02  0.00000000000E+00 0.  1.
          2   -1    0    0  501    0  0.00000000000E+00 -0.00000000000E+00 -0.15767779007E+04  0.15767779007E+04  0.00000000000E+00 0. -1.
         24    1    1    2    0    0 -0.39641615389E+02 -0.79837083871E+02 -0.14978633935E+04  0.15026667559E+04  0.80419002446E+02 0. -1.
        -24    1    1    2    0    0  0.39641615389E+02  0.79837083871E+02 -0.29420611770E+02  0.12360504028E+03  0.80419002446E+02 0.  1.
<mgrwt>
<rscale>  0 0.12005263E+03</rscale>
<asrwt>0</asrwt>
<pdfrwt beam="1">  1        2 0.24258116E+00 0.12005263E+03</pdfrwt>
<pdfrwt beam="2">  1       -2 0.76144472E-02 0.12005263E+03</pdfrwt>
<totfact> 0.12845300E+03</totfact>
</mgrwt>
</event>
<event>
 4    1  0.4999097E-001  0.8390160E+02  0.7546771E-02  0.1318330E+00
         -2   -1    0    0    0  501 -0.00000000000E+00  0.00000000000E+00  0.12616840148E+02  0.12616840148E+02  0.00000000000E+00 0.  1.
          2   -1    0    0  501    0  0.00000000000E+00 -0.00000000000E+00 -0.62364932967E+03  0.62364932967E+03  0.00000000000E+00 0. -1.
         24    1    1    2    0    0  0.19578977843E+02  0.13745068862E+02 -0.40877854408E+03  0.41730010465E+03  0.80419002446E+02 0.  1.
        -24    1    1    2    0    0 -0.19578977843E+02 -0.13745068862E+02 -0.20225394545E+03  0.21896606517E+03  0.80419002446E+02 0.  1.
<mgrwt>
<rscale>  0 0.83901605E+02</rscale>
<asrwt>0</asrwt>
<pdfrwt beam="1">  1        2 0.95946033E-01 0.83901605E+02</pdfrwt>
<pdfrwt beam="2">  1       -2 0.19410527E-02 0.83901605E+02</pdfrwt>
<totfact> 0.34610788E+04</totfact>
</mgrwt>
</event>
<event>
 4    1  0.4999097E-001  0.8291730E+02  0.7546771E-02  0.1320971E+00
          1   -1    0    0  501    0  0.00000000000E+00  0.00000000000E+00  0.38699539509E+02  0.38699539509E+02  0.00000000000E+00 0. -1.
         -1   -1    0    0    0  501 -0.00000000000E+00 -0.00000000000E+00 -0.19433231986E+03  0.19433231986E+03  0.00000000000E+00 0.  1.
         24    1    1    2    0    0  0.57439879121E+01  0.19366719240E+02 -0.11194653027E+03  0.13931010303E+03  0.80419002446E+02 0.  1.
        -24    1    1    2    0    0 -0.57439879121E+01 -0.19366719240E+02 -0.43686250076E+02  0.93721756339E+02  0.80419002446E+02 0. -1.
<mgrwt>
<rscale>  0 0.82917303E+02</rscale>
<asrwt>0</asrwt>
<pdfrwt beam="1">  1        1 0.59537753E-02 0.82917303E+02</pdfrwt>
<pdfrwt beam="2">  1       -1 0.29897280E-01 0.82917303E+02</pdfrwt>
<totfact> 0.11960063E+04</totfact>
</mgrwt>
</event>
<event>
 4    1  0.4999097E-001  0.8546977E+02  0.7546771E-02  0.1314209E+00
         -2   -1    0    0    0  501 -0.00000000000E+00  0.00000000000E+00  0.69297995214E+02  0.69297995214E+02  0.00000000000E+00 0.  1.
          2   -1    0    0  501    0  0.00000000000E+00 -0.00000000000E+00 -0.25200979896E+04  0.25200979896E+04  0.00000000000E+00 0. -1.
         24    1    1    2    0    0 -0.24372091493E+02  0.15616233800E+02 -0.24927301814E+04  0.24941950282E+04  0.80419002446E+02 0. -1.
        -24    1    1    2    0    0  0.24372091493E+02 -0.15616233800E+02  0.41930187000E+02  0.95200956603E+02  0.80419002446E+02 0.  1.
<mgrwt>
<rscale>  0 0.85469770E+02</rscale>
<asrwt>0</asrwt>
<pdfrwt beam="1">  1        2 0.38770736E+00 0.85469770E+02</pdfrwt>
<pdfrwt beam="2">  1       -2 0.10661231E-01 0.85469770E+02</pdfrwt>
<totfact> 0.25530769E+02</totfact>
</mgrwt>
</event>
<event>
 4    1  0.4999097E-001  0.9937592E+02  0.7546771E-02  0.1281614E+00
         -2   -1    0    0    0  501 -0.00000000000E+00  0.00000000000E+00  0.83618671819E+02  0.83618671819E+02  0.00000000000E+00 0.  1.
          2   -1    0    0  501    0  0.00000000000E+00 -0.00000000000E+00 -0.17702982121E+03  0.17702982121E+03  0.00000000000E+00 0. -1.
         24    1    1    2    0    0  0.47571049621E+02  0.33843049154E+02 -0.12189563319E+03  0.15727084308E+03  0.80419002446E+02 0. -1.
        -24    1    1    2    0    0 -0.47571049621E+02 -0.33843049154E+02  0.28484483795E+02  0.10337764995E+03  0.80419002446E+02 0.  1.
<mgrwt>
<rscale>  0 0.99375916E+02</rscale>
<asrwt>0</asrwt>
<pdfrwt beam="1">  1        2 0.27235357E-01 0.99375916E+02</pdfrwt>
<pdfrwt beam="2">  1       -2 0.12864411E-01 0.99375916E+02</pdfrwt>
<totfact> 0.79598914E+03</totfact>
</mgrwt>
</event>
<event>
 4    1  0.4999097E-001  0.8439424E+02  0.7546771E-02  0.1317024E+00
         -1   -1    0    0    0  501 -0.00000000000E+00  0.00000000000E+00  0.13230802634E+03  0.13230802634E+03  0.00000000000E+00 0.  1.
          1   -1    0    0  501    0  0.00000000000E+00 -0.00000000000E+00 -0.91560625748E+02  0.91560625748E+02  0.00000000000E+00 0. -1.
         24    1    1    2    0    0  0.25592516386E+02  0.44189877738E+00  0.92226743958E+02  0.12501264106E+03  0.80419002446E+02 0.  1.
        -24    1    1    2    0    0 -0.25592516386E+02 -0.44189877738E+00 -0.51479343363E+02  0.98856011031E+02  0.80419002446E+02 0. -1.
<mgrwt>
<rscale>  0 0.84394242E+02</rscale>
<asrwt>0</asrwt>
<pdfrwt beam="1">  1        1 0.14086250E-01 0.84394242E+02</pdfrwt>
<pdfrwt beam="2">  1       -1 0.20355081E-01 0.84394242E+02</pdfrwt>
<totfact> 0.72199030E+03</totfact>
</mgrwt>
</event>
<event>
 4    1  0.4999097E-001  0.8616228E+02  0.7546771E-02  0.1312421E+00
          3   -1    0    0  501    0  0.00000000000E+00  0.00000000000E+00  0.99720825025E+02  0.99720825025E+02  0.00000000000E+00 0. -1.
         -3   -1    0    0    0  501 -0.00000000000E+00 -0.00000000000E+00 -0.10883010062E+03  0.10883010062E+03  0.00000000000E+00 0.  1.
         24    1    1    2    0    0 -0.26178213785E+02 -0.16474935965E+02 -0.63165583803E+02  0.10683552463E+03  0.80419002446E+02 0.  1.
        -24    1    1    2    0    0  0.26178213785E+02  0.16474935965E+02  0.54056308207E+02  0.10171540101E+03  0.80419002446E+02 0. -1.
<mgrwt>
<rscale>  0 0.86162279E+02</rscale>
<asrwt>0</asrwt>
<pdfrwt beam="1">  1        3 0.15341665E-01 0.86162279E+02</pdfrwt>
<pdfrwt beam="2">  1       -3 0.16743092E-01 0.86162279E+02</pdfrwt>
<totfact> 0.22950939E+03</totfact>
</mgrwt>
</event>
<event>
 4    1  0.4999097E-001  0.1013585E+03  0.7546771E-02  0.1277465E+00
         -1   -1    0    0    0  501 -0.00000000000E+00  0.00000000000E+00  0.75300830979E+02  0.75300830979E+02  0.00000000000E+00 0.  1.
          1   -1    0    0  501    0  0.00000000000E+00 -0.00000000000E+00 -0.22228354514E+03  0.22228354514E+03  0.00000000000E+00 0. -1.
         24    1    1    2    0    0 -0.86482115911E+00  0.61689462853E+02  0.18977781471E+02  0.10311988114E+03  0.80419002446E+02 0.  1.
        -24    1    1    2    0    0  0.86482115911E+00 -0.61689462853E+02 -0.16596049564E+03  0.19446449498E+03  0.80419002446E+02 0. -1.
<mgrwt>
<rscale>  0 0.10135854E+03</rscale>
<asrwt>0</asrwt>
<pdfrwt beam="1">  1        1 0.34197469E-01 0.10135854E+03</pdfrwt>
<pdfrwt beam="2">  1       -1 0.11584743E-01 0.10135854E+03</pdfrwt>
<totfact> 0.58040591E+03</totfact>
</mgrwt>
</event>
<event>
 4    1  0.4999097E-001  0.8211292E+02  0.7546771E-02  0.1323160E+00
         -2   -1    0    0    0  501 -0.00000000000E+00  0.00000000000E+00  0.10897530995E+03  0.10897530995E+03  0.00000000000E+00 0.  1.
          2   -1    0    0  501    0  0.00000000000E+00 -0.00000000000E+00 -0.15837707275E+03  0.15837707275E+03  0.00000000000E+00 0. -1.
         24    1    1    2    0    0 -0.16468571235E+02 -0.20252682656E+01 -0.12904854968E+03  0.15295770552E+03  0.80419002446E+02 0. -1.
        -24    1    1    2    0    0  0.16468571235E+02  0.20252682656E+01  0.79646786881E+02  0.11439467717E+03  0.80419002446E+02 0.  1.
<mgrwt>
<rscale>  0 0.82112919E+02</rscale>
<asrwt>0</asrwt>
<pdfrwt beam="1">  1        2 0.24365704E-01 0.82112919E+02</pdfrwt>
<pdfrwt beam="2">  1       -2 0.16765432E-01 0.82112919E+02</pdfrwt>
<totfact> 0.57682886E+03</totfact>
</mgrwt>
</event>
<event>
 4    1  0.4999097E-001  0.9116775E+02  0.7546771E-02  0.1300048E+00
          2   -1    0    0  501    0  0.00000000000E+00  0.00000000000E+00  0.82474298789E+01  0.82474298789E+01  0.00000000000E+00 0. -1.
         -2   -1    0    0    0  501 -0.00000000000E+00 -0.00000000000E+00 -0.10672018907E+04  0.10672018907E+04  0.00000000000E+00 0.  1.
         24    1    1    2    0    0 -0.30747201650E+02 -0.29982520632E+02 -0.40258755777E+03  0.41278117638E+03  0.80419002446E+02 0. -1.
        -24    1    1    2    0    0  0.30747201650E+02  0.29982520632E+02 -0.65636690302E+03  0.66266814417E+03  0.80419002446E+02 0.  1.
<mgrwt>
<rscale>  0 0.91167746E+02</rscale>
<asrwt>0</asrwt>
<pdfrwt beam="1">  1        2 0.12688364E-02 0.91167746E+02</pdfrwt>
<pdfrwt beam="2">  1       -2 0.16418478E+00 0.91167746E+02</pdfrwt>
<totfact> 0.23774753E+03</totfact>
</mgrwt>
</event>
<event>
 4    1  0.4999097E-001  0.1004987E+03  0.7546771E-02  0.1279251E+00
          2   -1    0    0  501    0  0.00000000000E+00  0.00000000000E+00  0.15139227274E+04  0.15139227274E+04  0.00000000000E+00 0. -1.
         -2   -1    0    0    0  501 -0.00000000000E+00 -0.00000000000E+00 -0.93930472718E+01  0.93930472718E+01  0.00000000000E+00 0.  1.
         24    1    1    2    0    0 -0.48795694539E+01  0.60074559248E+02  0.34227519614E+03  0.35672438761E+03  0.80419002446E+02 0.  0.
        -24    1    1    2    0    0  0.48795694539E+01 -0.60074559248E+02  0.11622544839E+04  0.11665913870E+04  0.80419002446E+02 0. -1.
<mgrwt>
<rscale>  0 0.10049866E+03</rscale>
<asrwt>0</asrwt>
<pdfrwt beam="1">  1        2 0.23291099E+00 0.10049868E+03</pdfrwt>
<pdfrwt beam="2">  1       -2 0.14450854E-02 0.10049868E+03</pdfrwt>
<totfact> 0.15894740E+04</totfact>
</mgrwt>
</event>
<event>
 4    1  0.4999097E-001  0.1306599E+03  0.7546771E-02  0.1226480E+00
          2   -1    0    0  501    0  0.00000000000E+00  0.00000000000E+00  0.92373203471E+03  0.92373203471E+03  0.00000000000E+00 0. -1.
         -2   -1    0    0    0  501 -0.00000000000E+00 -0.00000000000E+00 -0.21073418253E+02  0.21073418253E+02  0.00000000000E+00 0.  1.
         24    1    1    2    0    0 -0.10204763181E+03  0.13822239493E+02  0.28565609188E+03  0.31412002841E+03  0.80419002446E+02 0.  1.
        -24    1    1    2    0    0  0.10204763181E+03 -0.13822239493E+02  0.61700252458E+03  0.63068542456E+03  0.80419002446E+02 0. -1.
<mgrwt>
<rscale>  0 0.13065984E+03</rscale>
<asrwt>0</asrwt>
<pdfrwt beam="1">  1        2 0.14211259E+00 0.13065986E+03</pdfrwt>
<pdfrwt beam="2">  1       -2 0.32420651E-02 0.13065986E+03</pdfrwt>
<totfact> 0.10611727E+04</totfact>
</mgrwt>
</event>
<event>
 4    1  0.4999097E-001  0.8162754E+02  0.7546771E-02  0.1324495E+00
          2   -1    0    0  501    0  0.00000000000E+00  0.00000000000E+00  0.15315502367E+03  0.15315502367E+03  0.00000000000E+00 0. -1.
         -2   -1    0    0    0  501 -0.00000000000E+00 -0.00000000000E+00 -0.48905465316E+02  0.48905465316E+02  0.00000000000E+00 0.  1.
         24    1    1    2    0    0  0.13908577330E+02 -0.15462705850E+01  0.85696699742E+02  0.11835108693E+03  0.80419002446E+02 0. -1.
        -24    1    1    2    0    0 -0.13908577330E+02  0.15462705850E+01  0.18552858614E+02  0.83709402060E+02  0.80419002446E+02 0.  1.
<mgrwt>
<rscale>  0 0.81627541E+02</rscale>
<asrwt>0</asrwt>
<pdfrwt beam="1">  1        2 0.23562311E-01 0.81627541E+02</pdfrwt>
<pdfrwt beam="2">  1       -2 0.75239178E-02 0.81627541E+02</pdfrwt>
<totfact> 0.21031979E+04</totfact>
</mgrwt>
</event>
<event>
 4    1  0.4999097E-001  0.8765887E+02  0.7546771E-02  0.1308622E+00
         -1   -1    0    0    0  501 -0.00000000000E+00  0.00000000000E+00  0.70446103978E+03  0.70446103978E+03  0.00000000000E+00 0.  1.
          1   -1    0    0  501    0  0.00000000000E+00 -0.00000000000E+00 -0.15211053245E+02  0.15211053245E+02  0.00000000000E+00 0. -1.
         24    1    1    2    0    0 -0.46198525871E+01 -0.34576271334E+02  0.53601820356E+03  0.54313864904E+03  0.80419002446E+02 0.  0.
        -24    1    1    2    0    0  0.46198525871E+01  0.34576271334E+02  0.15323178297E+03  0.17653344398E+03  0.80419002446E+02 0.  1.
<mgrwt>
<rscale>  0 0.87658870E+02</rscale>
<asrwt>0</asrwt>
<pdfrwt beam="1">  1        1 0.23401626E-02 0.87658870E+02</pdfrwt>
<pdfrwt beam="2">  1       -1 0.10837860E+00 0.87658870E+02</pdfrwt>
<totfact> 0.37755106E+03</totfact>
</mgrwt>
</event>
<event>
 4    1  0.4999097E-001  0.8446123E+02  0.7546771E-02  0.1316848E+00
          2   -1    0    0  501    0  0.00000000000E+00  0.00000000000E+00  0.99589851535E+02  0.99589851535E+02  0.00000000000E+00 0. -1.
         -2   -1    0    0    0  501 -0.00000000000E+00 -0.00000000000E+00 -0.95438008932E+03  0.95438008932E+03  0.00000000000E+00 0.  1.
         24    1    1    2    0    0  0.20146493153E+02 -0.16143166093E+02  0.79427789646E+02  0.11594167810E+03  0.80419002446E+02 0. -1.
        -24    1    1    2    0    0 -0.20146493153E+02  0.16143166093E+02 -0.93421802743E+03  0.93802826275E+03  0.80419002446E+02 0.  1.
<mgrwt>
<rscale>  0 0.84461228E+02</rscale>
<asrwt>0</asrwt>
<pdfrwt beam="1">  1        2 0.15321515E-01 0.84461228E+02</pdfrwt>
<pdfrwt beam="2">  1       -2 0.14682771E+00 0.84461228E+02</pdfrwt>
<totfact> 0.12858781E+02</totfact>
</mgrwt>
</event>
<event>
 4    1  0.4999097E-001  0.9260751E+02  0.7546771E-02  0.1296657E+00
          2   -1    0    0  501    0  0.00000000000E+00  0.00000000000E+00  0.10256180577E+04  0.10256180577E+04  0.00000000000E+00 0. -1.
         -2   -1    0    0    0  501 -0.00000000000E+00 -0.00000000000E+00 -0.84159013642E+01  0.84159013642E+01  0.00000000000E+00 0.  1.
         24    1    1    2    0    0  0.45804890861E+02 -0.32928448185E+01  0.46719781187E+03  0.47628766751E+03  0.80419002446E+02 0.  1.
        -24    1    1    2    0    0 -0.45804890861E+02  0.32928448185E+01  0.55000434443E+03  0.55774629151E+03  0.80419002446E+02 0. -1.
<mgrwt>
<rscale>  0 0.92607499E+02</rscale>
<asrwt>0</asrwt>
<pdfrwt beam="1">  1        2 0.15778729E+00 0.92607511E+02</pdfrwt>
<pdfrwt beam="2">  1       -2 0.12947549E-02 0.92607511E+02</pdfrwt>
<totfact> 0.33828461E+04</totfact>
</mgrwt>
</event>
<event>
 4    1  0.4999097E-001  0.8525341E+02  0.7546771E-02  0.1314771E+00
         -1   -1    0    0    0  501 -0.00000000000E+00  0.00000000000E+00  0.23687245256E+02  0.23687245256E+02  0.00000000000E+00 0.  1.
          1   -1    0    0  501    0  0.00000000000E+00 -0.00000000000E+00 -0.14733318124E+04  0.14733318124E+04  0.00000000000E+00 0. -1.
         24    1    1    2    0    0  0.78275507364E+01  0.27196655325E+02 -0.58800722410E+02  0.10356480832E+03  0.80419002446E+02 0.  1.
        -24    1    1    2    0    0 -0.78275507364E+01 -0.27196655325E+02 -0.13908438448E+04  0.13934542494E+04  0.80419002446E+02 0. -1.
<mgrwt>
<rscale>  0 0.85253414E+02</rscale>
<asrwt>0</asrwt>
<pdfrwt beam="1">  1        1 0.22666641E+00 0.85253414E+02</pdfrwt>
<pdfrwt beam="2">  1       -1 0.36441919E-02 0.85253414E+02</pdfrwt>
<totfact> 0.20904862E+03</totfact>
</mgrwt>
</event>
<event>
 4    1  0.4999097E-001  0.9095810E+02  0.7546771E-02  0.1300548E+00
          2   -1    0    0  501    0  0.00000000000E+00  0.00000000000E+00  0.15595804031E+03  0.15595804031E+03  0.00000000000E+00 0. -1.
         -2   -1    0    0    0  501 -0.00000000000E+00 -0.00000000000E+00 -0.53406222933E+02  0.53406222933E+02  0.00000000000E+00 0.  1.
         24    1    1    2    0    0 -0.41438252695E+02 -0.94354633559E+01  0.42710993621E+02  0.10048682344E+03  0.80419002446E+02 0. -1.
        -24    1    1    2    0    0  0.41438252695E+02  0.94354633559E+01  0.59840823757E+02  0.10887743980E+03  0.80419002446E+02 0.  0.
<mgrwt>
<rscale>  0 0.90958094E+02</rscale>
<asrwt>0</asrwt>
<pdfrwt beam="1">  1        2 0.23993545E-01 0.90958105E+02</pdfrwt>
<pdfrwt beam="2">  1       -2 0.82163420E-02 0.90958105E+02</pdfrwt>
<totfact> 0.18250333E+04</totfact>
</mgrwt>
</event>
<event>
 4    1  0.4999097E-001  0.1187853E+03  0.7546771E-02  0.1245114E+00
         -1   -1    0    0    0  501 -0.00000000000E+00  0.00000000000E+00  0.23342108861E+02  0.23342108861E+02  0.00000000000E+00 0.  1.
          1   -1    0    0  501    0  0.00000000000E+00 -0.00000000000E+00 -0.74348370914E+03  0.74348370914E+03  0.00000000000E+00 0. -1.
         24    1    1    2    0    0  0.52953753068E+02  0.69560308087E+02 -0.19428911892E+03  0.22772398668E+03  0.80419002446E+02 0.  1.
        -24    1    1    2    0    0 -0.52953753068E+02 -0.69560308087E+02 -0.52585248136E+03  0.53910183132E+03  0.80419002446E+02 0. -1.
<mgrwt>
<rscale>  0 0.11878532E+03</rscale>
<asrwt>0</asrwt>
<pdfrwt beam="1">  1        1 0.11438210E+00 0.11878532E+03</pdfrwt>
<pdfrwt beam="2">  1       -1 0.35910938E-02 0.11878532E+03</pdfrwt>
<totfact> 0.71246645E+03</totfact>
</mgrwt>
</event>
<event>
 4    1  0.4999097E-001  0.9228993E+02  0.7546771E-02  0.1297399E+00
         -1   -1    0    0    0  501 -0.00000000000E+00  0.00000000000E+00  0.36671580030E+03  0.36671580030E+03  0.00000000000E+00 0.  1.
          1   -1    0    0  501    0  0.00000000000E+00 -0.00000000000E+00 -0.26584320306E+02  0.26584320306E+02  0.00000000000E+00 0. -1.
         24    1    1    2    0    0  0.19248034389E+02  0.40984483351E+02  0.23995759760E+03  0.25709352248E+03  0.80419002446E+02 0.  1.
        -24    1    1    2    0    0 -0.19248034389E+02 -0.40984483351E+02  0.10017388239E+03  0.13620659812E+03  0.80419002446E+02 0. -1.
<mgrwt>
<rscale>  0 0.92289927E+02</rscale>
<asrwt>0</asrwt>
<pdfrwt beam="1">  1        1 0.40898957E-02 0.92289927E+02</pdfrwt>
<pdfrwt beam="2">  1       -1 0.56417812E-01 0.92289927E+02</pdfrwt>
<totfact> 0.66238420E+03</totfact>
</mgrwt>
</event>
<event>
 4    1  0.4999097E-001  0.9966007E+02  0.7546771E-02  0.1281012E+00
         -2   -1    0    0    0  501 -0.00000000000E+00  0.00000000000E+00  0.95927096721E+02  0.95927096721E+02  0.00000000000E+00 0. -1.
          2   -1    0    0  501    0  0.00000000000E+00 -0.00000000000E+00 -0.11223601876E+03  0.11223601876E+03  0.00000000000E+00 0.  1.
         24    1    1    2    0    0 -0.54375088123E+02  0.22544607926E+02  0.20819716762E+02  0.10181152251E+03  0.80419002446E+02 0. -1.
        -24    1    1    2    0    0  0.54375088123E+02 -0.22544607926E+02 -0.37128638806E+02  0.10635159298E+03  0.80419002446E+02 0.  0.
<mgrwt>
<rscale>  0 0.99660062E+02</rscale>
<asrwt>0</asrwt>
<pdfrwt beam="1">  1        2 0.17267080E-01 0.99660075E+02</pdfrwt>
<pdfrwt beam="2">  1       -2 0.14758015E-01 0.99660075E+02</pdfrwt>
<totfact> 0.10590593E+04</totfact>
</mgrwt>
</event>
<event>
 4    1  0.4999097E-001  0.1400891E+03  0.7546771E-02  0.1213209E+00
          2   -1    0    0  501    0  0.00000000000E+00  0.00000000000E+00  0.47248875594E+03  0.47248875594E+03  0.00000000000E+00 0. -1.
         -2   -1    0    0    0  501 -0.00000000000E+00 -0.00000000000E+00 -0.53028741114E+02  0.53028741114E+02  0.00000000000E+00 0.  1.
         24    1    1    2    0    0 -0.68104639903E+02 -0.92301124454E+02  0.33205827698E+03  0.36039929914E+03  0.80419002446E+02 0. -1.
        -24    1    1    2    0    0  0.68104639903E+02  0.92301124454E+02  0.87401737848E+02  0.16511819792E+03  0.80419002446E+02 0.  1.
<mgrwt>
<rscale>  0 0.14008910E+03</rscale>
<asrwt>0</asrwt>
<pdfrwt beam="1">  1        2 0.72690575E-01 0.14008910E+03</pdfrwt>
<pdfrwt beam="2">  1       -2 0.81582682E-02 0.14008910E+03</pdfrwt>
<totfact> 0.58545894E+03</totfact>
</mgrwt>
</event>
<event>
 4    1  0.4999097E-001  0.8143293E+02  0.7546771E-02  0.1325033E+00
         -4   -1    0    0    0  501 -0.00000000000E+00  0.00000000000E+00  0.59069380957E+02  0.59069380957E+02  0.00000000000E+00 0.  1.
          4   -1    0    0  501    0  0.00000000000E+00 -0.00000000000E+00 -0.11901901151E+03  0.11901901151E+03  0.00000000000E+00 0. -1.
         24    1    1    2    0    0  0.65247157980E+01  0.11024142367E+02 -0.87601980665E+01  0.81902751210E+02  0.80419002446E+02 0.  1.
        -24    1    1    2    0    0 -0.65247157980E+01 -0.11024142367E+02 -0.51189432483E+02  0.96185641254E+02  0.80419002446E+02 0.  0.
<mgrwt>
<rscale>  0 0.81432925E+02</rscale>
<asrwt>0</asrwt>
<pdfrwt beam="1">  1        4 0.18310617E-01 0.81432935E+02</pdfrwt>
<pdfrwt beam="2">  1       -4 0.90875971E-02 0.81432935E+02</pdfrwt>
<totfact> 0.33764565E+03</totfact>
</mgrwt>
</event>
<event>
 4    1  0.4999097E-001  0.8930260E+02  0.7546771E-02  0.1304549E+00
          2   -1    0    0  501    0  0.00000000000E+00  0.00000000000E+00  0.26036654476E+02  0.26036654476E+02  0.00000000000E+00 0. -1.
         -2   -1    0    0    0  501 -0.00000000000E+00 -0.00000000000E+00 -0.40192178949E+03  0.40192178949E+03  0.00000000000E+00 0.  1.
         24    1    1    2    0    0 -0.35930178625E+02  0.14722822317E+02 -0.83570196720E+02  0.12230671677E+03  0.80419002446E+02 0.  1.
        -24    1    1    2    0    0  0.35930178625E+02 -0.14722822317E+02 -0.29231493829E+03  0.30565172719E+03  0.80419002446E+02 0.  0.
<mgrwt>
<rscale>  0 0.89302605E+02</rscale>
<asrwt>0</asrwt>
<pdfrwt beam="1">  1        2 0.40056393E-02 0.89302605E+02</pdfrwt>
<pdfrwt beam="2">  1       -2 0.61834120E-01 0.89302605E+02</pdfrwt>
<totfact> 0.47986949E+03</totfact>
</mgrwt>
</event>
<event>
 4    1  0.4999097E-001  0.1187072E+03  0.7546771E-02  0.1245245E+00
         -1   -1    0    0    0  501 -0.00000000000E+00  0.00000000000E+00  0.60686676709E+02  0.60686676709E+02  0.00000000000E+00 0.  1.
          1   -1    0    0  501    0  0.00000000000E+00 -0.00000000000E+00 -0.50137299759E+03  0.50137299759E+03  0.00000000000E+00 0. -1.
         24    1    1    2    0    0  0.39417000573E+02  0.77913280728E+02 -0.14427969633E+02  0.11958077400E+03  0.80419002446E+02 0.  1.
        -24    1    1    2    0    0 -0.39417000573E+02 -0.77913280728E+02 -0.42625835125E+03  0.44247890030E+03  0.80419002446E+02 0. -1.
<mgrwt>
<rscale>  0 0.11870718E+03</rscale>
<asrwt>0</asrwt>
<pdfrwt beam="1">  1        1 0.77134307E-01 0.11870718E+03</pdfrwt>
<pdfrwt beam="2">  1       -1 0.93364118E-02 0.11870718E+03</pdfrwt>
<totfact> 0.29567900E+03</totfact>
</mgrwt>
</event>
<event>
 4    1  0.4999097E-001  0.8782648E+02  0.7546771E-02  0.1308202E+00
         -2   -1    0    0    0  501 -0.00000000000E+00  0.00000000000E+00  0.57609117181E+01  0.57609117181E+01  0.00000000000E+00 0.  1.
          2   -1    0    0  501    0  0.00000000000E+00 -0.00000000000E+00 -0.18443889773E+04  0.18443889773E+04  0.00000000000E+00 0. -1.
         24    1    1    2    0    0  0.10512086365E+02 -0.33701203261E+02 -0.14035879950E+04  0.14063330867E+04  0.80419002446E+02 0. -1.
        -24    1    1    2    0    0 -0.10512086365E+02  0.33701203261E+02 -0.43504007058E+03  0.44381680232E+03  0.80419002446E+02 0.  1.
<mgrwt>
<rscale>  0 0.87826482E+02</rscale>
<asrwt>0</asrwt>
<pdfrwt beam="1">  1        2 0.28375185E+00 0.87826482E+02</pdfrwt>
<pdfrwt beam="2">  1       -2 0.88629503E-03 0.87826482E+02</pdfrwt>
<totfact> 0.21485567E+04</totfact>
</mgrwt>
</event>
<event>
 4    1  0.4999097E-001  0.1016110E+03  0.7546771E-02  0.1276944E+00
          1   -1    0    0  501    0  0.00000000000E+00  0.00000000000E+00  0.10049027769E+04  0.10049027769E+04  0.00000000000E+00 0. -1.
         -1   -1    0    0    0  501 -0.00000000000E+00 -0.00000000000E+00 -0.46586895114E+02  0.46586895114E+02  0.00000000000E+00 0.  1.
         24    1    1    2    0    0 -0.61645368907E+02 -0.75781580101E+01  0.14994381458E+02  0.10271137920E+03  0.80419002446E+02 0.  1.
        -24    1    1    2    0    0  0.61645368907E+02  0.75781580101E+01  0.94332150030E+03  0.94877829279E+03  0.80419002446E+02 0. -1.
<mgrwt>
<rscale>  0 0.10161100E+03</rscale>
<asrwt>0</asrwt>
<pdfrwt beam="1">  1        1 0.15460041E+00 0.10161100E+03</pdfrwt>
<pdfrwt beam="2">  1       -1 0.71672154E-02 0.10161100E+03</pdfrwt>
<totfact> 0.16039723E+03</totfact>
</mgrwt>
</event>
<event>
 4    1  0.4999097E-001  0.1005976E+03  0.7546771E-02  0.1279044E+00
          2   -1    0    0  501    0  0.00000000000E+00  0.00000000000E+00  0.17657255728E+03  0.17657255728E+03  0.00000000000E+00 0. -1.
         -2   -1    0    0    0  501 -0.00000000000E+00 -0.00000000000E+00 -0.10072220318E+03  0.10072220318E+03  0.00000000000E+00 0.  1.
         24    1    1    2    0    0 -0.17255195206E+02  0.57921579741E+02  0.12894604706E+03  0.16354494847E+03  0.80419002446E+02 0. -1.
        -24    1    1    2    0    0  0.17255195206E+02 -0.57921579741E+02 -0.53095692962E+02  0.11374981199E+03  0.80419002446E+02 0.  1.
<mgrwt>
<rscale>  0 0.10059755E+03</rscale>
<asrwt>0</asrwt>
<pdfrwt beam="1">  1        2 0.27165009E-01 0.10059755E+03</pdfrwt>
<pdfrwt beam="2">  1       -2 0.15495724E-01 0.10059755E+03</pdfrwt>
<totfact> 0.59197715E+03</totfact>
</mgrwt>
</event>
<event>
 4    1  0.4999097E-001  0.1390353E+03  0.7546771E-02  0.1214633E+00
         -2   -1    0    0    0  501 -0.00000000000E+00  0.00000000000E+00  0.45556362624E+02  0.45556362624E+02  0.00000000000E+00 0.  1.
          2   -1    0    0  501    0  0.00000000000E+00 -0.00000000000E+00 -0.85191567873E+03  0.85191567873E+03  0.00000000000E+00 0. -1.
         24    1    1    2    0    0 -0.81385181949E+02 -0.78993932678E+02 -0.72109069716E+03  0.73437224806E+03  0.80419002446E+02 0. -1.
        -24    1    1    2    0    0  0.81385181949E+02  0.78993932678E+02 -0.85268618952E+02  0.16309979330E+03  0.80419002446E+02 0.  1.
<mgrwt>
<rscale>  0 0.13903527E+03</rscale>
<asrwt>0</asrwt>
<pdfrwt beam="1">  1        2 0.13106396E+00 0.13903527E+03</pdfrwt>
<pdfrwt beam="2">  1       -2 0.70086707E-02 0.13903527E+03</pdfrwt>
<totfact> 0.37217264E+03</totfact>
</mgrwt>
</event>
<event>
 4    1  0.4999097E-001  0.8238692E+02  0.7546771E-02  0.1322411E+00
          1   -1    0    0  501    0  0.00000000000E+00  0.00000000000E+00  0.15085246397E+04  0.15085246397E+04  0.00000000000E+00 0. -1.
         -1   -1    0    0    0  501 -0.00000000000E+00 -0.00000000000E+00 -0.45473874380E+01  0.45473874380E+01  0.00000000000E+00 0.  1.
         24    1    1    2    0    0  0.10046847717E+02 -0.14813686408E+02  0.82962729646E+03  0.83370801330E+03  0.80419002446E+02 0. -1.
        -24    1    1    2    0    0 -0.10046847717E+02  0.14813686408E+02  0.67434995580E+03  0.67936401384E+03  0.80419002446E+02 0.  1.
<mgrwt>
<rscale>  0 0.82386905E+02</rscale>
<asrwt>0</asrwt>
<pdfrwt beam="1">  1        1 0.23208032E+00 0.82386915E+02</pdfrwt>
<pdfrwt beam="2">  1       -1 0.69959927E-03 0.82386915E+02</pdfrwt>
<totfact> 0.20625160E+04</totfact>
</mgrwt>
</event>
<event>
 4    1  0.4999097E-001  0.8114710E+02  0.7546771E-02  0.1325827E+00
          3   -1    0    0  501    0  0.00000000000E+00  0.00000000000E+00  0.62987852969E+02  0.62987852969E+02  0.00000000000E+00 0. -1.
         -3   -1    0    0    0  501 -0.00000000000E+00 -0.00000000000E+00 -0.10728651089E+03  0.10728651089E+03  0.00000000000E+00 0.  1.
         24    1    1    2    0    0 -0.79573216035E+01 -0.73699675192E+01 -0.35767234491E+02  0.88680022586E+02  0.80419002446E+02 0.  1.
        -24    1    1    2    0    0  0.79573216035E+01  0.73699675192E+01 -0.85314234340E+01  0.81594341278E+02  0.80419002446E+02 0.  1.
<mgrwt>
<rscale>  0 0.81147097E+02</rscale>
<asrwt>0</asrwt>
<pdfrwt beam="1">  1        3 0.96904390E-02 0.81147097E+02</pdfrwt>
<pdfrwt beam="2">  1       -3 0.16505617E-01 0.81147097E+02</pdfrwt>
<totfact> 0.49763973E+03</totfact>
</mgrwt>
</event>
<event>
 4    1  0.4999097E-001  0.1136994E+03  0.7546771E-02  0.1253869E+00
         -1   -1    0    0    0  501 -0.00000000000E+00  0.00000000000E+00  0.17957428784E+02  0.17957428784E+02  0.00000000000E+00 0.  1.
          1   -1    0    0  501    0  0.00000000000E+00 -0.00000000000E+00 -0.14431266126E+04  0.14431266126E+04  0.00000000000E+00 0. -1.
         24    1    1    2    0    0 -0.55707747575E+01  0.80182992504E+02 -0.19541850774E+03  0.22608837860E+03  0.80419002446E+02 0.  1.
        -24    1    1    2    0    0  0.55707747575E+01 -0.80182992504E+02 -0.12297506761E+04  0.12349956628E+04  0.80419002446E+02 0. -1.
<mgrwt>
<rscale>  0 0.11369944E+03</rscale>
<asrwt>0</asrwt>
<pdfrwt beam="1">  1        1 0.22201951E+00 0.11369944E+03</pdfrwt>
<pdfrwt beam="2">  1       -1 0.27626809E-02 0.11369944E+03</pdfrwt>
<totfact> 0.32808060E+03</totfact>
</mgrwt>
</event>
<event>
 4    1  0.4999097E-001  0.8065693E+02  0.7546771E-02  0.1327197E+00
          1   -1    0    0  501    0  0.00000000000E+00  0.00000000000E+00  0.25216019786E+04  0.25216019786E+04  0.00000000000E+00 0. -1.
         -1   -1    0    0    0  501 -0.00000000000E+00 -0.00000000000E+00 -0.10141253125E+02  0.10141253125E+02  0.00000000000E+00 0.  1.
         24    1    1    2    0    0 -0.38311296484E+01  0.48627503306E+01  0.16267303508E+03  0.18157107752E+03  0.80419002446E+02 0.  0.
        -24    1    1    2    0    0  0.38311296484E+01 -0.48627503306E+01  0.23487876904E+04  0.23501721542E+04  0.80419002446E+02 0. -1.
<mgrwt>
<rscale>  0 0.80656927E+02</rscale>
<asrwt>0</asrwt>
<pdfrwt beam="1">  1        1 0.38793827E+00 0.80656927E+02</pdfrwt>
<pdfrwt beam="2">  1       -1 0.15601948E-02 0.80656927E+02</pdfrwt>
<totfact> 0.15366396E+03</totfact>
</mgrwt>
</event>
<event>
 4    1  0.4999097E-001  0.8679010E+02  0.7546771E-02  0.1310817E+00
          1   -1    0    0  501    0  0.00000000000E+00  0.00000000000E+00  0.64513827832E+03  0.64513827832E+03  0.00000000000E+00 0. -1.
         -1   -1    0    0    0  501 -0.00000000000E+00 -0.00000000000E+00 -0.39731143621E+02  0.39731143621E+02  0.00000000000E+00 0.  1.
         24    1    1    2    0    0 -0.27238173614E+02 -0.17982968376E+02  0.14950570452E+02  0.88068386863E+02  0.80419002446E+02 0.  1.
        -24    1    1    2    0    0  0.27238173614E+02  0.17982968376E+02  0.59045656425E+03  0.59680103508E+03  0.80419002446E+02 0. -1.
<mgrwt>
<rscale>  0 0.86790099E+02</rscale>
<asrwt>0</asrwt>
<pdfrwt beam="1">  1        1 0.99252035E-01 0.86790099E+02</pdfrwt>
<pdfrwt beam="2">  1       -1 0.61124841E-02 0.86790099E+02</pdfrwt>
<totfact> 0.39235810E+03</totfact>
</mgrwt>
</event>
<event>
 4    1  0.4999097E-001  0.9016977E+02  0.7546771E-02  0.1302441E+00
         -1   -1    0    0    0  501 -0.00000000000E+00  0.00000000000E+00  0.27931588757E+03  0.27931588757E+03  0.00000000000E+00 0.  1.
          1   -1    0    0  501    0  0.00000000000E+00 -0.00000000000E+00 -0.32861882288E+02  0.32861882288E+02  0.00000000000E+00 0. -1.
         24    1    1    2    0    0 -0.40775573555E+02  0.85075615301E+00  0.17597575285E+03  0.19773227539E+03  0.80419002446E+02 0. -1.
        -24    1    1    2    0    0  0.40775573555E+02 -0.85075615301E+00  0.70478252440E+02  0.11444549448E+03  0.80419002446E+02 0.  0.
<mgrwt>
<rscale>  0 0.90169768E+02</rscale>
<asrwt>0</asrwt>
<pdfrwt beam="1">  1        1 0.50556744E-02 0.90169768E+02</pdfrwt>
<pdfrwt beam="2">  1       -1 0.42971673E-01 0.90169768E+02</pdfrwt>
<totfact> 0.81009391E+03</totfact>
</mgrwt>
</event>
<event>
 4    1  0.4999097E-001  0.1258751E+03  0.7546771E-02  0.1233708E+00
         -2   -1    0    0    0  501 -0.00000000000E+00  0.00000000000E+00  0.50755354989E+01  0.50755354989E+01  0.00000000000E+00 0.  1.
          2   -1    0    0  501    0  0.00000000000E+00 -0.00000000000E+00 -0.54355444781E+04  0.54355444781E+04  0.00000000000E+00 0. -1.
         24    1    1    2    0    0  0.96453721397E+02  0.86029679093E+01 -0.44900751137E+04  0.44918391639E+04  0.80419002446E+02 0. -1.
        -24    1    1    2    0    0 -0.96453721397E+02 -0.86029679093E+01 -0.94039382891E+03  0.94878084974E+03  0.80419002446E+02 0.  1.
<mgrwt>
<rscale>  0 0.12587513E+03</rscale>
<asrwt>0</asrwt>
<pdfrwt beam="1">  1        2 0.83623190E+00 0.12587513E+03</pdfrwt>
<pdfrwt beam="2">  1       -2 0.78085695E-03 0.12587513E+03</pdfrwt>
<totfact> 0.42968033E+01</totfact>
</mgrwt>
</event>
<event>
 4    1  0.4999097E-001  0.1043543E+03  0.7546771E-02  0.1271397E+00
         -1   -1    0    0    0  501 -0.00000000000E+00  0.00000000000E+00  0.77860557076E+03  0.77860557076E+03  0.00000000000E+00 0.  1.
          1   -1    0    0  501    0  0.00000000000E+00 -0.00000000000E+00 -0.17040964970E+02  0.17040964970E+02  0.00000000000E+00 0. -1.
         24    1    1    2    0    0  0.60140636695E+02 -0.28385092560E+02  0.54921389549E+03  0.55904000628E+03  0.80419002446E+02 0.  1.
        -24    1    1    2    0    0 -0.60140636695E+02  0.28385092560E+02  0.21235071030E+03  0.23660652945E+03  0.80419002446E+02 0. -1.
<mgrwt>
<rscale>  0 0.10435433E+03</rscale>
<asrwt>0</asrwt>
<pdfrwt beam="1">  1        1 0.26216875E-02 0.10435433E+03</pdfrwt>
<pdfrwt beam="2">  1       -1 0.11978544E+00 0.10435433E+03</pdfrwt>
<totfact> 0.26019011E+03</totfact>
</mgrwt>
</event>
<event>
 4    1  0.4999097E-001  0.1063162E+03  0.7546771E-02  0.1267548E+00
         -1   -1    0    0    0  501 -0.00000000000E+00  0.00000000000E+00  0.31684534366E+02  0.31684534366E+02  0.00000000000E+00 0.  1.
          1   -1    0    0  501    0  0.00000000000E+00 -0.00000000000E+00 -0.11763896824E+04  0.11763896824E+04  0.00000000000E+00 0. -1.
         24    1    1    2    0    0 -0.62212089523E+02  0.31073753143E+02 -0.68153346685E+02  0.12628545774E+03  0.80419002446E+02 0.  1.
        -24    1    1    2    0    0  0.62212089523E+02 -0.31073753143E+02 -0.10765518013E+04  0.10817887590E+04  0.80419002446E+02 0. -1.
<mgrwt>
<rscale>  0 0.10631622E+03</rscale>
<asrwt>0</asrwt>
<pdfrwt beam="1">  1        1 0.18098303E+00 0.10631622E+03</pdfrwt>
<pdfrwt beam="2">  1       -1 0.48745437E-02 0.10631622E+03</pdfrwt>
<totfact> 0.21525835E+03</totfact>
</mgrwt>
</event>
<event>
 4    1  0.4999097E-001  0.8933705E+02  0.7546771E-02  0.1304465E+00
         -1   -1    0    0    0  501 -0.00000000000E+00  0.00000000000E+00  0.49028106300E+03  0.49028106300E+03  0.00000000000E+00 0.  1.
          1   -1    0    0  501    0  0.00000000000E+00 -0.00000000000E+00 -0.18686386096E+02  0.18686386096E+02  0.00000000000E+00 0. -1.
         24    1    1    2    0    0 -0.39759938213E+00 -0.38906744057E+02  0.32714611281E+03  0.33912488541E+03  0.80419002446E+02 0.  0.
        -24    1    1    2    0    0  0.39759938213E+00  0.38906744057E+02  0.14444856409E+03  0.16984256368E+03  0.80419002446E+02 0.  0.
<mgrwt>
<rscale>  0 0.89337052E+02</rscale>
<asrwt>0</asrwt>
<pdfrwt beam="1">  1        1 0.28748290E-02 0.89337052E+02</pdfrwt>
<pdfrwt beam="2">  1       -1 0.75427846E-01 0.89337052E+02</pdfrwt>
<totfact> 0.61193871E+03</totfact>
</mgrwt>
</event>
<event>
 4    1  0.4999097E-001  0.8404569E+02  0.7546771E-02  0.1317947E+00
          2   -1    0    0  501    0  0.00000000000E+00  0.00000000000E+00  0.90397249054E+03  0.90397249054E+03  0.00000000000E+00 0. -1.
         -2   -1    0    0    0  501 -0.00000000000E+00 -0.00000000000E+00 -0.10882135248E+02  0.10882135248E+02  0.00000000000E+00 0.  1.
         24    1    1    2    0    0  0.11451662578E+02  0.21571302452E+02  0.68942946436E+03  0.69453341457E+03  0.80419002446E+02 0. -1.
        -24    1    1    2    0    0 -0.11451662578E+02 -0.21571302452E+02  0.20366089093E+03  0.22032121122E+03  0.80419002446E+02 0.  1.
<mgrwt>
<rscale>  0 0.84045688E+02</rscale>
<asrwt>0</asrwt>
<pdfrwt beam="1">  1        2 0.13907263E+00 0.84045688E+02</pdfrwt>
<pdfrwt beam="2">  1       -2 0.16741754E-02 0.84045688E+02</pdfrwt>
<totfact> 0.27455908E+04</totfact>
</mgrwt>
</event>
<event>
 4    1  0.4999097E-001  0.8734025E+02  0.7546771E-02  0.1309424E+00
          1   -1    0    0  501    0  0.00000000000E+00  0.00000000000E+00  0.32095113379E+03  0.32095113379E+03  0.00000000000E+00 0. -1.
         -1   -1    0    0    0  501 -0.00000000000E+00 -0.00000000000E+00 -0.39212254237E+02  0.39212254237E+02  0.00000000000E+00 0.  1.
         24    1    1    2    0    0 -0.62775136102E+01  0.33491736197E+02  0.27852330834E+02  0.91673725014E+02  0.80419002446E+02 0.  1.
        -24    1    1    2    0    0  0.62775136102E+01 -0.33491736197E+02  0.25388654872E+03  0.26848966301E+03  0.80419002446E+02 0. -1.
<mgrwt>
<rscale>  0 0.87340251E+02</rscale>
<asrwt>0</asrwt>
<pdfrwt beam="1">  1        1 0.49377096E-01 0.87340251E+02</pdfrwt>
<pdfrwt beam="2">  1       -1 0.60326547E-02 0.87340251E+02</pdfrwt>
<totfact> 0.97305353E+03</totfact>
</mgrwt>
</event>
<event>
 4    1  0.4999097E-001  0.8149991E+02  0.7546771E-02  0.1324848E+00
          2   -1    0    0  501    0  0.00000000000E+00  0.00000000000E+00  0.68820391051E+03  0.68820391051E+03  0.00000000000E+00 0. -1.
         -2   -1    0    0    0  501 -0.00000000000E+00 -0.00000000000E+00 -0.98690399744E+01  0.98690399744E+01  0.00000000000E+00 0.  1.
         24    1    1    2    0    0 -0.13032297012E+02 -0.22756274938E+01  0.39098200504E+03  0.39938598306E+03  0.80419002446E+02 0. -1.
        -24    1    1    2    0    0  0.13032297012E+02  0.22756274938E+01  0.28735286550E+03  0.29868696743E+03  0.80419002446E+02 0.  1.
<mgrwt>
<rscale>  0 0.81499909E+02</rscale>
<asrwt>0</asrwt>
<pdfrwt beam="1">  1        2 0.10587749E+00 0.81499909E+02</pdfrwt>
<pdfrwt beam="2">  1       -2 0.15183144E-02 0.81499909E+02</pdfrwt>
<totfact> 0.43774295E+04</totfact>
</mgrwt>
</event>
<event>
 4    1  0.4999097E-001  0.1010419E+03  0.7546771E-02  0.1278120E+00
          2   -1    0    0  501    0  0.00000000000E+00  0.00000000000E+00  0.59790077204E+03  0.59790077204E+03  0.00000000000E+00 0. -1.
         -2   -1    0    0    0  501 -0.00000000000E+00 -0.00000000000E+00 -0.13764394681E+03  0.13764394681E+03  0.00000000000E+00 0.  1.
         24    1    1    2    0    0  0.24121442785E+02  0.56217525089E+02  0.57433352302E+03  0.58315389542E+03  0.80419002446E+02 0. -1.
        -24    1    1    2    0    0 -0.24121442785E+02 -0.56217525089E+02 -0.11407669779E+03  0.15239082342E+03  0.80419002446E+02 0.  1.
<mgrwt>
<rscale>  0 0.10104192E+03</rscale>
<asrwt>0</asrwt>
<pdfrwt beam="1">  1        2 0.91984733E-01 0.10104192E+03</pdfrwt>
<pdfrwt beam="2">  1       -2 0.21175992E-01 0.10104192E+03</pdfrwt>
<totfact> 0.96011743E+02</totfact>
</mgrwt>
</event>
<event>
 4    1  0.4999097E-001  0.9920138E+02  0.7546771E-02  0.1281984E+00
          3   -1    0    0  501    0  0.00000000000E+00  0.00000000000E+00  0.86265321961E+02  0.86265321961E+02  0.00000000000E+00 0. -1.
         -3   -1    0    0    0  501 -0.00000000000E+00 -0.00000000000E+00 -0.12268958706E+03  0.12268958706E+03  0.00000000000E+00 0.  1.
         24    1    1    2    0    0 -0.26685098751E+02  0.51590727542E+02 -0.45892916575E+02  0.10930266881E+03  0.80419002446E+02 0. -1.
        -24    1    1    2    0    0  0.26685098751E+02 -0.51590727542E+02  0.94686514738E+01  0.99652240210E+02  0.80419002446E+02 0.  1.
<mgrwt>
<rscale>  0 0.99201379E+02</rscale>
<asrwt>0</asrwt>
<pdfrwt beam="1">  1        3 0.13271588E-01 0.99201379E+02</pdfrwt>
<pdfrwt beam="2">  1       -3 0.18875321E-01 0.99201379E+02</pdfrwt>
<totfact> 0.24537012E+03</totfact>
</mgrwt>
</event>
<event>
 4    1  0.4999097E-001  0.9678856E+02  0.7546771E-02  0.1287198E+00
          1   -1    0    0  501    0  0.00000000000E+00  0.00000000000E+00  0.82604488919E+03  0.82604488919E+03  0.00000000000E+00 0. -1.
         -1   -1    0    0    0  501 -0.00000000000E+00 -0.00000000000E+00 -0.26825077365E+02  0.26825077365E+02  0.00000000000E+00 0.  1.
         24    1    1    2    0    0  0.33494551553E+02 -0.42177300315E+02  0.75622940501E+02  0.12282855828E+03  0.80419002446E+02 0.  1.
        -24    1    1    2    0    0 -0.33494551553E+02  0.42177300315E+02  0.72359687132E+03  0.73004140827E+03  0.80419002446E+02 0. -1.
<mgrwt>
<rscale>  0 0.96788561E+02</rscale>
<asrwt>0</asrwt>
<pdfrwt beam="1">  1        1 0.12708381E+00 0.96788561E+02</pdfrwt>
<pdfrwt beam="2">  1       -1 0.41269356E-02 0.96788561E+02</pdfrwt>
<totfact> 0.49228238E+03</totfact>
</mgrwt>
</event>
<event>
 4    1  0.4999097E-001  0.1038706E+03  0.7546771E-02  0.1272361E+00
         -2   -1    0    0    0  501 -0.00000000000E+00  0.00000000000E+00  0.12902677563E+02  0.12902677563E+02  0.00000000000E+00 0.  1.
          2   -1    0    0  501    0  0.00000000000E+00 -0.00000000000E+00 -0.20465714714E+04  0.20465714714E+04  0.00000000000E+00 0. -1.
         24    1    1    2    0    0 -0.71202065751E-01  0.65740990023E+02 -0.18087408863E+04  0.18117209201E+04  0.80419002446E+02 0. -1.
        -24    1    1    2    0    0  0.71202065751E-01 -0.65740990023E+02 -0.22492790760E+03  0.24775322886E+03  0.80419002446E+02 0.  1.
<mgrwt>
<rscale>  0 0.10387059E+03</rscale>
<asrwt>0</asrwt>
<pdfrwt beam="1">  1        2 0.31485717E+00 0.10387059E+03</pdfrwt>
<pdfrwt beam="2">  1       -2 0.19850272E-02 0.10387059E+03</pdfrwt>
<totfact> 0.54249579E+03</totfact>
</mgrwt>
</event>
<event>
 4    1  0.4999097E-001  0.9207218E+02  0.7546771E-02  0.1297910E+00
         -1   -1    0    0    0  501 -0.00000000000E+00  0.00000000000E+00  0.19303730886E+02  0.19303730886E+02  0.00000000000E+00 0.  1.
          1   -1    0    0  501    0  0.00000000000E+00 -0.00000000000E+00 -0.91299554987E+03  0.91299554987E+03  0.00000000000E+00 0. -1.
         24    1    1    2    0    0  0.15214356943E+02  0.42173377490E+02 -0.11102466323E+03  0.14423509360E+03  0.80419002446E+02 0.  1.
        -24    1    1    2    0    0 -0.15214356943E+02 -0.42173377490E+02 -0.78266715575E+03  0.78806418716E+03  0.80419002446E+02 0. -1.
<mgrwt>
<rscale>  0 0.92072180E+02</rscale>
<asrwt>0</asrwt>
<pdfrwt beam="1">  1        1 0.14046085E+00 0.92072180E+02</pdfrwt>
<pdfrwt beam="2">  1       -1 0.29698048E-02 0.92072180E+02</pdfrwt>
<totfact> 0.67756119E+03</totfact>
</mgrwt>
</event>
<event>
 4    1  0.4999097E-001  0.8073169E+02  0.7546771E-02  0.1326988E+00
          1   -1    0    0  501    0  0.00000000000E+00  0.00000000000E+00  0.53143279141E+03  0.53143279141E+03  0.00000000000E+00 0. -1.
         -1   -1    0    0    0  501 -0.00000000000E+00 -0.00000000000E+00 -0.20479074387E+03  0.20479074387E+03  0.00000000000E+00 0.  1.
         24    1    1    2    0    0  0.68595113372E+01 -0.18267073258E+01 -0.19359811002E+03  0.20975660636E+03  0.80419002446E+02 0.  1.
        -24    1    1    2    0    0 -0.68595113372E+01  0.18267073258E+01  0.52024015756E+03  0.52646692892E+03  0.80419002446E+02 0. -1.
<mgrwt>
<rscale>  0 0.80731690E+02</rscale>
<asrwt>0</asrwt>
<pdfrwt beam="1">  1        1 0.81758891E-01 0.80731690E+02</pdfrwt>
<pdfrwt beam="2">  1       -1 0.31506268E-01 0.80731690E+02</pdfrwt>
<totfact> 0.40006712E+02</totfact>
</mgrwt>
</event>
<event>
 4    1  0.4999097E-001  0.8239840E+02  0.7546771E-02  0.1322380E+00
         -3   -1    0    0    0  501 -0.00000000000E+00  0.00000000000E+00  0.97201190024E+02  0.97201190024E+02  0.00000000000E+00 0.  1.
          3   -1    0    0  501    0  0.00000000000E+00 -0.00000000000E+00 -0.72350697356E+02  0.72350697356E+02  0.00000000000E+00 0. -1.
         24    1    1    2    0    0 -0.17135416843E+02 -0.53529524110E+01 -0.33360259658E+01  0.82465881633E+02  0.80419002446E+02 0.  0.
        -24    1    1    2    0    0  0.17135416843E+02  0.53529524110E+01  0.28186518635E+02  0.87086005747E+02  0.80419002446E+02 0.  0.
<mgrwt>
<rscale>  0 0.82398387E+02</rscale>
<asrwt>0</asrwt>
<pdfrwt beam="1">  1        3 0.11130877E-01 0.82398398E+02</pdfrwt>
<pdfrwt beam="2">  1       -3 0.14954029E-01 0.82398398E+02</pdfrwt>
<totfact> 0.47060964E+03</totfact>
</mgrwt>
</event>
<event>
 4    1  0.4999097E-001  0.8501483E+02  0.7546771E-02  0.1315394E+00
         -1   -1    0    0    0  501 -0.00000000000E+00  0.00000000000E+00  0.38256390036E+02  0.38256390036E+02  0.00000000000E+00 0.  1.
          1   -1    0    0  501    0  0.00000000000E+00 -0.00000000000E+00 -0.19136602706E+03  0.19136602706E+03  0.00000000000E+00 0. -1.
         24    1    1    2    0    0  0.52906740058E+01 -0.27061313462E+02 -0.63583234583E+02  0.10616190273E+03  0.80419002446E+02 0. -1.
        -24    1    1    2    0    0 -0.52906740058E+01  0.27061313462E+02 -0.89526402436E+02  0.12346051436E+03  0.80419002446E+02 0.  0.
<mgrwt>
<rscale>  0 0.85014833E+02</rscale>
<asrwt>0</asrwt>
<pdfrwt beam="1">  1        1 0.29440927E-01 0.85014833E+02</pdfrwt>
<pdfrwt beam="2">  1       -1 0.58855985E-02 0.85014833E+02</pdfrwt>
<totfact> 0.18910710E+04</totfact>
</mgrwt>
</event>
<event>
 4    1  0.4999097E-001  0.1333728E+03  0.7546771E-02  0.1222535E+00
         -2   -1    0    0    0  501 -0.00000000000E+00  0.00000000000E+00  0.17399932398E+03  0.17399932398E+03  0.00000000000E+00 0.  1.
          2   -1    0    0  501    0  0.00000000000E+00 -0.00000000000E+00 -0.10561010702E+03  0.10561010702E+03  0.00000000000E+00 0. -1.
         24    1    1    2    0    0 -0.59503526455E+02  0.88206661903E+02  0.91908631110E+01  0.13368909000E+03  0.80419002446E+02 0.  1.
        -24    1    1    2    0    0  0.59503526455E+02 -0.88206661903E+02  0.59198353853E+02  0.14592034100E+03  0.80419002446E+02 0. -1.
<mgrwt>
<rscale>  0 0.13337279E+03</rscale>
<asrwt>0</asrwt>
<pdfrwt beam="1">  1        2 0.16247709E-01 0.13337279E+03</pdfrwt>
<pdfrwt beam="2">  1       -2 0.26769127E-01 0.13337279E+03</pdfrwt>
<totfact> 0.42555795E+03</totfact>
</mgrwt>
</event>
<event>
 4    1  0.4999097E-001  0.8114550E+02  0.7546771E-02  0.1325832E+00
         -1   -1    0    0    0  501 -0.00000000000E+00  0.00000000000E+00  0.13281413560E+03  0.13281413560E+03  0.00000000000E+00 0.  1.
          1   -1    0    0  501    0  0.00000000000E+00 -0.00000000000E+00 -0.38874029915E+03  0.38874029915E+03  0.00000000000E+00 0. -1.
         24    1    1    2    0    0  0.10723090804E+02  0.15462329931E+01  0.11561823647E+03  0.14125214360E+03  0.80419002446E+02 0.  1.
        -24    1    1    2    0    0 -0.10723090804E+02 -0.15462329931E+01 -0.37154440002E+03  0.38030229115E+03  0.80419002446E+02 0. -1.
<mgrwt>
<rscale>  0 0.81145496E+02</rscale>
<asrwt>0</asrwt>
<pdfrwt beam="1">  1        1 0.59806200E-01 0.81145496E+02</pdfrwt>
<pdfrwt beam="2">  1       -1 0.20432944E-01 0.81145496E+02</pdfrwt>
<totfact> 0.11986407E+03</totfact>
</mgrwt>
</event>
<event>
 4    1  0.4999097E-001  0.8331891E+02  0.7546771E-02  0.1319888E+00
         -1   -1    0    0    0  501 -0.00000000000E+00  0.00000000000E+00  0.24368178269E+03  0.24368178269E+03  0.00000000000E+00 0.  1.
          1   -1    0    0  501    0  0.00000000000E+00 -0.00000000000E+00 -0.35990795220E+02  0.35990795220E+02  0.00000000000E+00 0. -1.
         24    1    1    2    0    0 -0.59381585974E+01 -0.20965761033E+02  0.16769119391E+03  0.18724950556E+03  0.80419002446E+02 0.  1.
        -24    1    1    2    0    0  0.59381585974E+01  0.20965761033E+02  0.39999793560E+02  0.92423072349E+02  0.80419002446E+02 0. -1.
<mgrwt>
<rscale>  0 0.83318910E+02</rscale>
<asrwt>0</asrwt>
<pdfrwt beam="1">  1        1 0.55370456E-02 0.83318910E+02</pdfrwt>
<pdfrwt beam="2">  1       -1 0.37489504E-01 0.83318910E+02</pdfrwt>
<totfact> 0.90105973E+03</totfact>
</mgrwt>
</event>
<event>
 4    1  0.4999097E-001  0.9729689E+02  0.7546771E-02  0.1286085E+00
          2   -1    0    0  501    0  0.00000000000E+00  0.00000000000E+00  0.15241674994E+04  0.15241674994E+04  0.00000000000E+00 0. -1.
         -2   -1    0    0    0  501 -0.00000000000E+00 -0.00000000000E+00 -0.75924985698E+01  0.75924985698E+01  0.00000000000E+00 0.  1.
         24    1    1    2    0    0 -0.45282494376E+02 -0.30805268238E+02  0.10849770863E+04  0.10893309702E+04  0.80419002446E+02 0.  0.
        -24    1    1    2    0    0  0.45282494376E+02  0.30805268238E+02  0.43159791454E+03  0.44242902780E+03  0.80419002446E+02 0.  0.
<mgrwt>
<rscale>  0 0.97296890E+02</rscale>
<asrwt>0</asrwt>
<pdfrwt beam="1">  1        2 0.23448706E+00 0.97296890E+02</pdfrwt>
<pdfrwt beam="2">  1       -2 0.11680779E-02 0.97296890E+02</pdfrwt>
<totfact> 0.21224348E+04</totfact>
</mgrwt>
</event>
<event>
 4    1  0.4999097E-001  0.8617503E+02  0.7546771E-02  0.1312388E+00
          1   -1    0    0  501    0  0.00000000000E+00  0.00000000000E+00  0.79946102853E+02  0.79946102853E+02  0.00000000000E+00 0. -1.
         -1   -1    0    0    0  501 -0.00000000000E+00 -0.00000000000E+00 -0.10856689999E+03  0.10856689999E+03  0.00000000000E+00 0.  1.
         24    1    1    2    0    0 -0.43213559832E+01 -0.30663425562E+02 -0.50128511160E+02  0.99694550353E+02  0.80419002446E+02 0. -1.
        -24    1    1    2    0    0  0.43213559832E+01  0.30663425562E+02  0.21507714027E+02  0.88818452485E+02  0.80419002446E+02 0. -1.
<mgrwt>
<rscale>  0 0.86175030E+02</rscale>
<asrwt>0</asrwt>
<pdfrwt beam="1">  1        1 0.12299400E-01 0.86175030E+02</pdfrwt>
<pdfrwt beam="2">  1       -1 0.16702600E-01 0.86175030E+02</pdfrwt>
<totfact> 0.11758861E+04</totfact>
</mgrwt>
</event>
<event>
 4    1  0.4999097E-001  0.9241058E+02  0.7546771E-02  0.1297117E+00
         -2   -1    0    0    0  501 -0.00000000000E+00  0.00000000000E+00  0.80304854940E+03  0.80304854940E+03  0.00000000000E+00 0.  1.
          2   -1    0    0  501    0  0.00000000000E+00 -0.00000000000E+00 -0.38962011142E+02  0.38962011142E+02  0.00000000000E+00 0. -1.
         24    1    1    2    0    0 -0.40181442391E+02 -0.21399791132E+02  0.23060192288E+02  0.95244358341E+02  0.80419002446E+02 0. -1.
        -24    1    1    2    0    0  0.40181442391E+02  0.21399791132E+02  0.74102634597E+03  0.74676620220E+03  0.80419002446E+02 0.  1.
<mgrwt>
<rscale>  0 0.92410580E+02</rscale>
<asrwt>0</asrwt>
<pdfrwt beam="1">  1        2 0.59941562E-02 0.92410580E+02</pdfrwt>
<pdfrwt beam="2">  1       -2 0.12354592E+00 0.92410580E+02</pdfrwt>
<totfact> 0.61559720E+02</totfact>
</mgrwt>
</event>
<event>
 4    1  0.4999097E-001  0.8544229E+02  0.7546771E-02  0.1314280E+00
         -2   -1    0    0    0  501 -0.00000000000E+00  0.00000000000E+00  0.89034726471E+02  0.89034726471E+02  0.00000000000E+00 0.  1.
          2   -1    0    0  501    0  0.00000000000E+00 -0.00000000000E+00 -0.33241621851E+03  0.33241621851E+03  0.00000000000E+00 0. -1.
         24    1    1    2    0    0 -0.11135703689E+02  0.26630164618E+02 -0.30458988479E+03  0.31634693524E+03  0.80419002446E+02 0. -1.
        -24    1    1    2    0    0  0.11135703689E+02 -0.26630164618E+02  0.61208392758E+02  0.10510400974E+03  0.80419002446E+02 0.  1.
<mgrwt>
<rscale>  0 0.85442294E+02</rscale>
<asrwt>0</asrwt>
<pdfrwt beam="1">  1        2 0.51140958E-01 0.85442294E+02</pdfrwt>
<pdfrwt beam="2">  1       -2 0.13697650E-01 0.85442294E+02</pdfrwt>
<totfact> 0.36620008E+03</totfact>
</mgrwt>
</event>
<event>
 4    1  0.4999097E-001  0.8082246E+02  0.7546771E-02  0.1326733E+00
          1   -1    0    0  501    0  0.00000000000E+00  0.00000000000E+00  0.19225168453E+04  0.19225168453E+04  0.00000000000E+00 0. -1.
         -1   -1    0    0    0  501 -0.00000000000E+00 -0.00000000000E+00 -0.34482781055E+01  0.34482781055E+01  0.00000000000E+00 0.  1.
         24    1    1    2    0    0  0.45059679537E+01  0.66895694286E+01  0.84298815114E+03  0.84685376128E+03  0.80419002446E+02 0.  1.
        -24    1    1    2    0    0 -0.45059679537E+01 -0.66895694286E+01  0.10760804161E+04  0.10791113621E+04  0.80419002446E+02 0. -1.
<mgrwt>
<rscale>  0 0.80822460E+02</rscale>
<asrwt>0</asrwt>
<pdfrwt beam="1">  1        1 0.29577097E+00 0.80822460E+02</pdfrwt>
<pdfrwt beam="2">  1       -1 0.53050586E-03 0.80822460E+02</pdfrwt>
<totfact> 0.16680470E+04</totfact>
</mgrwt>
</event>
<event>
 4    1  0.4999097E-001  0.9310860E+02  0.7546771E-02  0.1295494E+00
         -2   -1    0    0    0  501 -0.00000000000E+00  0.00000000000E+00  0.17990445128E+03  0.17990445128E+03  0.00000000000E+00 0.  1.
          2   -1    0    0  501    0  0.00000000000E+00 -0.00000000000E+00 -0.84027431892E+02  0.84027431892E+02  0.00000000000E+00 0. -1.
         24    1    1    2    0    0 -0.19793082991E+02  0.42546785442E+02 -0.38246692419E+02  0.10065793819E+03  0.80419002446E+02 0. -1.
        -24    1    1    2    0    0  0.19793082991E+02 -0.42546785442E+02  0.13412371181E+03  0.16327394498E+03  0.80419002446E+02 0.  1.
<mgrwt>
<rscale>  0 0.93108598E+02</rscale>
<asrwt>0</asrwt>
<pdfrwt beam="1">  1        2 0.12927297E-01 0.93108598E+02</pdfrwt>
<pdfrwt beam="2">  1       -2 0.27677608E-01 0.93108598E+02</pdfrwt>
<totfact> 0.51099021E+03</totfact>
</mgrwt>
</event>
<event>
 4    1  0.4999097E-001  0.8385665E+02  0.7546771E-02  0.1318450E+00
         -1   -1    0    0    0  501 -0.00000000000E+00  0.00000000000E+00  0.78631088011E+01  0.78631088011E+01  0.00000000000E+00 0.  1.
          1   -1    0    0  501    0  0.00000000000E+00 -0.00000000000E+00 -0.90545376883E+03  0.90545376883E+03  0.00000000000E+00 0. -1.
         24    1    1    2    0    0  0.11978250471E+02 -0.20524113986E+02 -0.49949198854E+03  0.50648216189E+03  0.80419002446E+02 0.  0.
        -24    1    1    2    0    0 -0.11978250471E+02  0.20524113986E+02 -0.39809867148E+03  0.40683471574E+03  0.80419002446E+02 0. -1.
<mgrwt>
<rscale>  0 0.83856636E+02</rscale>
<asrwt>0</asrwt>
<pdfrwt beam="1">  1        1 0.13930050E+00 0.83856647E+02</pdfrwt>
<pdfrwt beam="2">  1       -1 0.12097098E-02 0.83856647E+02</pdfrwt>
<totfact> 0.24492769E+04</totfact>
</mgrwt>
</event>
<event>
 4    1  0.4999097E-001  0.8075184E+02  0.7546771E-02  0.1326931E+00
          2   -1    0    0  501    0  0.00000000000E+00  0.00000000000E+00  0.20056174151E+04  0.20056174151E+04  0.00000000000E+00 0. -1.
         -2   -1    0    0    0  501 -0.00000000000E+00 -0.00000000000E+00 -0.43044896238E+01  0.43044896238E+01  0.00000000000E+00 0.  1.
         24    1    1    2    0    0  0.68127735092E+01  0.26887715094E+01  0.14977545715E+04  0.14999298703E+04  0.80419002446E+02 0.  0.
        -24    1    1    2    0    0 -0.68127735092E+01 -0.26887715094E+01  0.50355835394E+03  0.50999203440E+03  0.80419002446E+02 0.  1.
<mgrwt>
<rscale>  0 0.80751838E+02</rscale>
<asrwt>0</asrwt>
<pdfrwt beam="1">  1        2 0.30855578E+00 0.80751838E+02</pdfrwt>
<pdfrwt beam="2">  1       -2 0.66223078E-03 0.80751838E+02</pdfrwt>
<totfact> 0.26734850E+04</totfact>
</mgrwt>
</event>
<event>
 4    1  0.4999097E-001  0.8410032E+02  0.7546771E-02  0.1317802E+00
         -2   -1    0    0    0  501 -0.00000000000E+00  0.00000000000E+00  0.88325938125E+01  0.88325938125E+01  0.00000000000E+00 0.  1.
          2   -1    0    0  501    0  0.00000000000E+00 -0.00000000000E+00 -0.12732302669E+04  0.12732302669E+04  0.00000000000E+00 0. -1.
         24    1    1    2    0    0 -0.10423150281E+02 -0.22293643571E+02 -0.10226880981E+04  0.10261402490E+04  0.80419002446E+02 0.  0.
        -24    1    1    2    0    0  0.10423150281E+02  0.22293643571E+02 -0.24170957495E+03  0.25592261171E+03  0.80419002446E+02 0.  0.
<mgrwt>
<rscale>  0 0.84100324E+02</rscale>
<asrwt>0</asrwt>
<pdfrwt beam="1">  1        2 0.19588171E+00 0.84100324E+02</pdfrwt>
<pdfrwt beam="2">  1       -2 0.13588597E-02 0.84100324E+02</pdfrwt>
<totfact> 0.22849363E+04</totfact>
</mgrwt>
</event>
<event>
 4    1  0.4999097E-001  0.8624883E+02  0.7546771E-02  0.1312199E+00
         -2   -1    0    0    0  501 -0.00000000000E+00  0.00000000000E+00  0.77640717697E+02  0.77640717697E+02  0.00000000000E+00 0.  1.
          2   -1    0    0  501    0  0.00000000000E+00 -0.00000000000E+00 -0.27617615677E+03  0.27617615677E+03  0.00000000000E+00 0. -1.
         24    1    1    2    0    0 -0.78521325946E+01 -0.30166006124E+02 -0.24223326591E+03  0.25712995738E+03  0.80419002446E+02 0. -1.
        -24    1    1    2    0    0  0.78521325946E+01  0.30166006124E+02  0.43697826839E+02  0.96686917091E+02  0.80419002446E+02 0.  1.
<mgrwt>
<rscale>  0 0.86248825E+02</rscale>
<asrwt>0</asrwt>
<pdfrwt beam="1">  1        2 0.42488640E-01 0.86248825E+02</pdfrwt>
<pdfrwt beam="2">  1       -2 0.11944726E-01 0.86248825E+02</pdfrwt>
<totfact> 0.55257893E+03</totfact>
</mgrwt>
</event>
<event>
 4    1  0.4999097E-001  0.8401304E+02  0.7546771E-02  0.1318034E+00
         -2   -1    0    0    0  501 -0.00000000000E+00  0.00000000000E+00  0.26285083963E+02  0.26285083963E+02  0.00000000000E+00 0.  1.
          2   -1    0    0  501    0  0.00000000000E+00 -0.00000000000E+00 -0.32065062437E+03  0.32065062437E+03  0.00000000000E+00 0. -1.
         24    1    1    2    0    0 -0.24116734488E+02 -0.30589610548E+01 -0.21712355686E+03  0.23281071501E+03  0.80419002446E+02 0. -1.
        -24    1    1    2    0    0  0.24116734488E+02  0.30589610548E+01 -0.77241983553E+02  0.11412499333E+03  0.80419002446E+02 0.  1.
<mgrwt>
<rscale>  0 0.84013035E+02</rscale>
<asrwt>0</asrwt>
<pdfrwt beam="1">  1        2 0.49330866E-01 0.84013035E+02</pdfrwt>
<pdfrwt beam="2">  1       -2 0.40438590E-02 0.84013035E+02</pdfrwt>
<totfact> 0.24341675E+04</totfact>
</mgrwt>
</event>
<event>
 4    1  0.4999097E-001  0.8200151E+02  0.7546771E-02  0.1323466E+00
         -1   -1    0    0    0  501 -0.00000000000E+00  0.00000000000E+00  0.21278605880E+03  0.21278605880E+03  0.00000000000E+00 0.  1.
          1   -1    0    0  501    0  0.00000000000E+00 -0.00000000000E+00 -0.15598242091E+03  0.15598242091E+03  0.00000000000E+00 0. -1.
         24    1    1    2    0    0 -0.73751526960E+00  0.16015244665E+02  0.19305258708E+03  0.20974639288E+03  0.80419002446E+02 0.  1.
        -24    1    1    2    0    0  0.73751526960E+00 -0.16015244665E+02 -0.13624894920E+03  0.15902208684E+03  0.80419002446E+02 0. -1.
<mgrwt>
<rscale>  0 0.82001512E+02</rscale>
<asrwt>0</asrwt>
<pdfrwt beam="1">  1        1 0.23997295E-01 0.82001512E+02</pdfrwt>
<pdfrwt beam="2">  1       -1 0.32736317E-01 0.82001512E+02</pdfrwt>
<totfact> 0.16994388E+03</totfact>
</mgrwt>
</event>
<event>
 4    1  0.4999097E-001  0.9204910E+02  0.7546771E-02  0.1297964E+00
          1   -1    0    0  501    0  0.00000000000E+00  0.00000000000E+00  0.10895871178E+03  0.10895871178E+03  0.00000000000E+00 0. -1.
         -1   -1    0    0    0  501 -0.00000000000E+00 -0.00000000000E+00 -0.82975451715E+02  0.82975451715E+02  0.00000000000E+00 0.  1.
         24    1    1    2    0    0  0.10578110070E+02 -0.43519240738E+02 -0.11059626178E+02  0.92711121300E+02  0.80419002446E+02 0.  1.
        -24    1    1    2    0    0 -0.10578110070E+02  0.43519240738E+02  0.37042886246E+02  0.99223042197E+02  0.80419002446E+02 0. -1.
<mgrwt>
<rscale>  0 0.92049099E+02</rscale>
<asrwt>0</asrwt>
<pdfrwt beam="1">  1        1 0.16762879E-01 0.92049099E+02</pdfrwt>
<pdfrwt beam="2">  1       -1 0.12765454E-01 0.92049099E+02</pdfrwt>
<totfact> 0.12065273E+04</totfact>
</mgrwt>
</event>
<event>
 4    1  0.4999097E-001  0.1060914E+03  0.7546771E-02  0.1267984E+00
         -1   -1    0    0    0  501 -0.00000000000E+00  0.00000000000E+00  0.31159168148E+02  0.31159168148E+02  0.00000000000E+00 0.  1.
          1   -1    0    0  501    0  0.00000000000E+00 -0.00000000000E+00 -0.75497339991E+03  0.75497339991E+03  0.00000000000E+00 0. -1.
         24    1    1    2    0    0 -0.50425814440E+02  0.47385748481E+02 -0.78042780431E+02  0.13170445495E+03  0.80419002446E+02 0.  1.
        -24    1    1    2    0    0  0.50425814440E+02 -0.47385748481E+02 -0.64577145133E+03  0.65442811311E+03  0.80419002446E+02 0. -1.
<mgrwt>
<rscale>  0 0.10609141E+03</rscale>
<asrwt>0</asrwt>
<pdfrwt beam="1">  1        1 0.11614974E+00 0.10609141E+03</pdfrwt>
<pdfrwt beam="2">  1       -1 0.47937185E-02 0.10609141E+03</pdfrwt>
<totfact> 0.45392686E+03</totfact>
</mgrwt>
</event>
<event>
 4    1  0.4999097E-001  0.9605088E+02  0.7546771E-02  0.1288827E+00
          1   -1    0    0  501    0  0.00000000000E+00  0.00000000000E+00  0.35694404443E+02  0.35694404443E+02  0.00000000000E+00 0. -1.
         -1   -1    0    0    0  501 -0.00000000000E+00 -0.00000000000E+00 -0.71545951707E+03  0.71545951707E+03  0.00000000000E+00 0.  1.
         24    1    1    2    0    0 -0.38013693033E+02 -0.36242434851E+02 -0.64004868481E+03  0.64721564399E+03  0.80419002446E+02 0.  1.
        -24    1    1    2    0    0  0.38013693033E+02  0.36242434851E+02 -0.39716427817E+02  0.10393827752E+03  0.80419002446E+02 0. -1.
<mgrwt>
<rscale>  0 0.96050877E+02</rscale>
<asrwt>0</asrwt>
<pdfrwt beam="1">  1        1 0.54914469E-02 0.96050877E+02</pdfrwt>
<pdfrwt beam="2">  1       -1 0.11007069E+00 0.96050877E+02</pdfrwt>
<totfact> 0.11463077E+03</totfact>
</mgrwt>
</event>
<event>
 4    1  0.4999097E-001  0.8646675E+02  0.7546771E-02  0.1311641E+00
         -2   -1    0    0    0  501 -0.00000000000E+00  0.00000000000E+00  0.13997149358E+03  0.13997149358E+03  0.00000000000E+00 0.  1.
          2   -1    0    0  501    0  0.00000000000E+00 -0.00000000000E+00 -0.10928689502E+03  0.10928689502E+03  0.00000000000E+00 0. -1.
         24    1    1    2    0    0 -0.31695368163E+02 -0.21648361004E+01 -0.73769379236E+02  0.11365922816E+03  0.80419002446E+02 0.  0.
        -24    1    1    2    0    0  0.31695368163E+02  0.21648361004E+01  0.10445397780E+03  0.13559916044E+03  0.80419002446E+02 0. -1.
<mgrwt>
<rscale>  0 0.86466750E+02</rscale>
<asrwt>0</asrwt>
<pdfrwt beam="1">  1        2 0.16813368E-01 0.86466750E+02</pdfrwt>
<pdfrwt beam="2">  1       -2 0.21534076E-01 0.86466750E+02</pdfrwt>
<totfact> 0.57746039E+03</totfact>
</mgrwt>
</event>
<event>
 4    1  0.4999097E-001  0.9825797E+02  0.7546771E-02  0.1284002E+00
          1   -1    0    0  501    0  0.00000000000E+00  0.00000000000E+00  0.23380816630E+02  0.23380816630E+02  0.00000000000E+00 0. -1.
         -1   -1    0    0    0  501 -0.00000000000E+00 -0.00000000000E+00 -0.49721888595E+03  0.49721888595E+03  0.00000000000E+00 0.  1.
         24    1    1    2    0    0  0.49600241171E+02  0.26967189434E+02 -0.34409231602E+03  0.35784654690E+03  0.80419002446E+02 0.  1.
        -24    1    1    2    0    0 -0.49600241171E+02 -0.26967189434E+02 -0.12974575330E+03  0.16275315568E+03  0.80419002446E+02 0. -1.
<mgrwt>
<rscale>  0 0.98257973E+02</rscale>
<asrwt>0</asrwt>
<pdfrwt beam="1">  1        1 0.35970487E-02 0.98257973E+02</pdfrwt>
<pdfrwt beam="2">  1       -1 0.76495214E-01 0.98257973E+02</pdfrwt>
<totfact> 0.44132515E+03</totfact>
</mgrwt>
</event>
<event>
 4    1  0.4999097E-001  0.1093757E+03  0.7546771E-02  0.1261730E+00
          2   -1    0    0  501    0  0.00000000000E+00  0.00000000000E+00  0.30047055938E+04  0.30047055938E+04  0.00000000000E+00 0. -1.
         -2   -1    0    0    0  501 -0.00000000000E+00 -0.00000000000E+00 -0.22383745300E+02  0.22383745300E+02  0.00000000000E+00 0.  1.
         24    1    1    2    0    0 -0.63024786607E+02  0.39034707215E+02  0.28635113090E+04  0.28655994250E+04  0.80419002446E+02 0. -1.
        -24    1    1    2    0    0  0.63024786607E+02 -0.39034707215E+02  0.11881053954E+03  0.16148991409E+03  0.80419002446E+02 0.  1.
<mgrwt>
<rscale>  0 0.10937572E+03</rscale>
<asrwt>0</asrwt>
<pdfrwt beam="1">  1        2 0.46226208E+00 0.10937572E+03</pdfrwt>
<pdfrwt beam="2">  1       -2 0.34436555E-02 0.10937572E+03</pdfrwt>
<totfact> 0.74943005E+02</totfact>
</mgrwt>
</event>
<event>
 4    1  0.4999097E-001  0.8334332E+02  0.7546771E-02  0.1319823E+00
         -2   -1    0    0    0  501 -0.00000000000E+00  0.00000000000E+00  0.20956095998E+02  0.20956095998E+02  0.00000000000E+00 0.  1.
          2   -1    0    0  501    0  0.00000000000E+00 -0.00000000000E+00 -0.34841826157E+03  0.34841826157E+03  0.00000000000E+00 0. -1.
         24    1    1    2    0    0 -0.21154005321E+02 -0.56036937365E+01 -0.20447623260E+03  0.22080905547E+03  0.80419002446E+02 0. -1.
        -24    1    1    2    0    0  0.21154005321E+02  0.56036937365E+01 -0.12298593297E+03  0.14856530210E+03  0.80419002446E+02 0.  1.
<mgrwt>
<rscale>  0 0.83343322E+02</rscale>
<asrwt>0</asrwt>
<pdfrwt beam="1">  1        2 0.53602806E-01 0.83343322E+02</pdfrwt>
<pdfrwt beam="2">  1       -2 0.32240150E-02 0.83343322E+02</pdfrwt>
<totfact> 0.31051037E+04</totfact>
</mgrwt>
</event>
<event>
 4    1  0.4999097E-001  0.8517164E+02  0.7546771E-02  0.1314984E+00
         -1   -1    0    0    0  501 -0.00000000000E+00  0.00000000000E+00  0.79231139941E+01  0.79231139941E+01  0.00000000000E+00 0.  1.
          1   -1    0    0  501    0  0.00000000000E+00 -0.00000000000E+00 -0.12603957530E+04  0.12603957530E+04  0.00000000000E+00 0. -1.
         24    1    1    2    0    0 -0.16140528785E+02 -0.22945044613E+02 -0.29453936587E+03  0.30660666291E+03  0.80419002446E+02 0.  1.
        -24    1    1    2    0    0  0.16140528785E+02  0.22945044613E+02 -0.95793327318E+03  0.96171220413E+03  0.80419002446E+02 0. -1.
<mgrwt>
<rscale>  0 0.85171637E+02</rscale>
<asrwt>0</asrwt>
<pdfrwt beam="1">  1        1 0.19390711E+00 0.85171637E+02</pdfrwt>
<pdfrwt beam="2">  1       -1 0.12189402E-02 0.85171637E+02</pdfrwt>
<totfact> 0.13707105E+04</totfact>
</mgrwt>
</event>
<event>
 4    1  0.4999097E-001  0.8925537E+02  0.7546771E-02  0.1304665E+00
          1   -1    0    0  501    0  0.00000000000E+00  0.00000000000E+00  0.10505408891E+04  0.10505408891E+04  0.00000000000E+00 0. -1.
         -1   -1    0    0    0  501 -0.00000000000E+00 -0.00000000000E+00 -0.12424586723E+02  0.12424586723E+02  0.00000000000E+00 0.  1.
         24    1    1    2    0    0  0.59109905110E+01 -0.38267021519E+02  0.18729316091E+03  0.20747348945E+03  0.80419002446E+02 0.  1.
        -24    1    1    2    0    0 -0.59109905110E+01  0.38267021519E+02  0.85082314142E+03  0.85549198633E+03  0.80419002446E+02 0. -1.
<mgrwt>
<rscale>  0 0.89255368E+02</rscale>
<asrwt>0</asrwt>
<pdfrwt beam="1">  1        1 0.16162161E+00 0.89255368E+02</pdfrwt>
<pdfrwt beam="2">  1       -1 0.19114757E-02 0.89255368E+02</pdfrwt>
<totfact> 0.10098250E+04</totfact>
</mgrwt>
</event>
<event>
 4    1  0.4999097E-001  0.8115004E+02  0.7546771E-02  0.1325819E+00
          2   -1    0    0  501    0  0.00000000000E+00  0.00000000000E+00  0.12500437045E+04  0.12500437045E+04  0.00000000000E+00 0. -1.
         -2   -1    0    0    0  501 -0.00000000000E+00 -0.00000000000E+00 -0.18599981431E+02  0.18599981431E+02  0.00000000000E+00 0.  1.
         24    1    1    2    0    0  0.72565134904E+01 -0.80904423361E+01  0.11527530210E+04  0.11556058392E+04  0.80419002446E+02 0. -1.
        -24    1    1    2    0    0 -0.72565134904E+01  0.80904423361E+01  0.78690702085E+02  0.11303784673E+03  0.80419002446E+02 0.  1.
<mgrwt>
<rscale>  0 0.81150035E+02</rscale>
<asrwt>0</asrwt>
<pdfrwt beam="1">  1        2 0.19231435E+00 0.81150035E+02</pdfrwt>
<pdfrwt beam="2">  1       -2 0.28615366E-02 0.81150035E+02</pdfrwt>
<totfact> 0.80685405E+03</totfact>
</mgrwt>
</event>
<event>
 4    1  0.4999097E-001  0.8476353E+02  0.7546771E-02  0.1316052E+00
         -2   -1    0    0    0  501 -0.00000000000E+00  0.00000000000E+00  0.59554346306E+02  0.59554346306E+02  0.00000000000E+00 0.  1.
          2   -1    0    0  501    0  0.00000000000E+00 -0.00000000000E+00 -0.10477099116E+04  0.10477099116E+04  0.00000000000E+00 0. -1.
         24    1    1    2    0    0  0.22870644515E+02  0.13948957338E+02 -0.10148599917E+04  0.10183936658E+04  0.80419002446E+02 0.  0.
        -24    1    1    2    0    0 -0.22870644515E+02 -0.13948957338E+02  0.26704426448E+02  0.88870592086E+02  0.80419002446E+02 0.  1.
<mgrwt>
<rscale>  0 0.84763528E+02</rscale>
<asrwt>0</asrwt>
<pdfrwt beam="1">  1        2 0.16118614E+00 0.84763528E+02</pdfrwt>
<pdfrwt beam="2">  1       -2 0.91622072E-02 0.84763528E+02</pdfrwt>
<totfact> 0.18504144E+03</totfact>
</mgrwt>
</event>
<event>
 4    1  0.4999097E-001  0.8784514E+02  0.7546771E-02  0.1308156E+00
         -2   -1    0    0    0  501 -0.00000000000E+00  0.00000000000E+00  0.23390337579E+02  0.23390337579E+02  0.00000000000E+00 0.  1.
          2   -1    0    0  501    0  0.00000000000E+00 -0.00000000000E+00 -0.57799637483E+03  0.57799637483E+03  0.00000000000E+00 0. -1.
         24    1    1    2    0    0  0.92012437806E+01  0.34130486539E+02 -0.47430036953E+03  0.48236667535E+03  0.80419002446E+02 0. -1.
        -24    1    1    2    0    0 -0.92012437806E+01 -0.34130486539E+02 -0.80305667715E+02  0.11902003705E+03  0.80419002446E+02 0.  1.
<mgrwt>
<rscale>  0 0.87845142E+02</rscale>
<asrwt>0</asrwt>
<pdfrwt beam="1">  1        2 0.88922522E-01 0.87845142E+02</pdfrwt>
<pdfrwt beam="2">  1       -2 0.35985133E-02 0.87845142E+02</pdfrwt>
<totfact> 0.15503632E+04</totfact>
</mgrwt>
</event>
<event>
 4    1  0.4999097E-001  0.9714747E+02  0.7546771E-02  0.1286411E+00
          2   -1    0    0  501    0  0.00000000000E+00  0.00000000000E+00  0.20605046472E+04  0.20605046472E+04  0.00000000000E+00 0. -1.
         -2   -1    0    0    0  501 -0.00000000000E+00 -0.00000000000E+00 -0.88516988559E+02  0.88516988559E+02  0.00000000000E+00 0.  1.
         24    1    1    2    0    0 -0.36042202519E+02 -0.40882438170E+02  0.20323354905E+04  0.20346560339E+04  0.80419002446E+02 0. -1.
        -24    1    1    2    0    0  0.36042202519E+02  0.40882438170E+02 -0.60347831934E+02  0.11436560185E+03  0.80419002446E+02 0.  1.
<mgrwt>
<rscale>  0 0.97147466E+02</rscale>
<asrwt>0</asrwt>
<pdfrwt beam="1">  1        2 0.31700068E+00 0.97147466E+02</pdfrwt>
<pdfrwt beam="2">  1       -2 0.13618000E-01 0.97147466E+02</pdfrwt>
<totfact> 0.29604082E+02</totfact>
</mgrwt>
</event>
<event>
 4    1  0.4999097E-001  0.9218010E+02  0.7546771E-02  0.1297657E+00
         -1   -1    0    0    0  501 -0.00000000000E+00  0.00000000000E+00  0.71620496374E+02  0.71620496374E+02  0.00000000000E+00 0.  1.
          1   -1    0    0  501    0  0.00000000000E+00 -0.00000000000E+00 -0.15653280963E+03  0.15653280963E+03  0.00000000000E+00 0. -1.
         24    1    1    2    0    0  0.21077296493E+02  0.39820873433E+02  0.13669742367E+02  0.93188154822E+02  0.80419002446E+02 0.  1.
        -24    1    1    2    0    0 -0.21077296493E+02 -0.39820873433E+02 -0.98582055625E+02  0.13496515118E+03  0.80419002446E+02 0. -1.
<mgrwt>
<rscale>  0 0.92180097E+02</rscale>
<asrwt>0</asrwt>
<pdfrwt beam="1">  1        1 0.24081971E-01 0.92180097E+02</pdfrwt>
<pdfrwt beam="2">  1       -1 0.11018538E-01 0.92180097E+02</pdfrwt>
<totfact> 0.95828794E+03</totfact>
</mgrwt>
</event>
<event>
 4    1  0.4999097E-001  0.8750394E+02  0.7546771E-02  0.1309011E+00
         -2   -1    0    0    0  501 -0.00000000000E+00  0.00000000000E+00  0.97040721085E+02  0.97040721085E+02  0.00000000000E+00 0.  1.
          2   -1    0    0  501    0  0.00000000000E+00 -0.00000000000E+00 -0.79074848556E+02  0.79074848556E+02  0.00000000000E+00 0. -1.
         24    1    1    2    0    0 -0.12260622170E+02  0.32239677498E+02  0.13071785692E+02  0.88474895856E+02  0.80419002446E+02 0.  0.
        -24    1    1    2    0    0  0.12260622170E+02 -0.32239677498E+02  0.48940868368E+01  0.87640673785E+02  0.80419002446E+02 0.  1.
<mgrwt>
<rscale>  0 0.87503929E+02</rscale>
<asrwt>0</asrwt>
<pdfrwt beam="1">  1        2 0.12165361E-01 0.87503940E+02</pdfrwt>
<pdfrwt beam="2">  1       -2 0.14929342E-01 0.87503940E+02</pdfrwt>
<totfact> 0.15414511E+04</totfact>
</mgrwt>
</event>
<event>
 4    1  0.4999097E-001  0.8491811E+02  0.7546771E-02  0.1315647E+00
         -2   -1    0    0    0  501 -0.00000000000E+00  0.00000000000E+00  0.65984768813E+02  0.65984768813E+02  0.00000000000E+00 0.  1.
          2   -1    0    0  501    0  0.00000000000E+00 -0.00000000000E+00 -0.11821037096E+03  0.11821037096E+03  0.00000000000E+00 0. -1.
         24    1    1    2    0    0 -0.20791430658E+01  0.27194618975E+02 -0.51420660127E+02  0.99273210784E+02  0.80419002446E+02 0.  1.
        -24    1    1    2    0    0  0.20791430658E+01 -0.27194618975E+02 -0.80494201796E+00  0.84921928988E+02  0.80419002446E+02 0.  0.
<mgrwt>
<rscale>  0 0.84918114E+02</rscale>
<asrwt>0</asrwt>
<pdfrwt beam="1">  1        2 0.18186211E-01 0.84918114E+02</pdfrwt>
<pdfrwt beam="2">  1       -2 0.10151503E-01 0.84918114E+02</pdfrwt>
<totfact> 0.17778440E+04</totfact>
</mgrwt>
</event>
<event>
 4    1  0.4999097E-001  0.1156177E+03  0.7546771E-02  0.1250507E+00
          4   -1    0    0  501    0  0.00000000000E+00  0.00000000000E+00  0.13042761055E+02  0.13042761055E+02  0.00000000000E+00 0. -1.
         -4   -1    0    0    0  501 -0.00000000000E+00 -0.00000000000E+00 -0.15967395965E+04  0.15967395965E+04  0.00000000000E+00 0.  1.
         24    1    1    2    0    0 -0.31102093359E+02  0.77025259526E+02 -0.31016739823E+03  0.33101550069E+03  0.80419002446E+02 0. -1.
        -24    1    1    2    0    0  0.31102093359E+02 -0.77025259526E+02 -0.12735294372E+04  0.12787668569E+04  0.80419002446E+02 0.  1.
<mgrwt>
<rscale>  0 0.11561767E+03</rscale>
<asrwt>0</asrwt>
<pdfrwt beam="1">  1        4 0.20065773E-02 0.11561767E+03</pdfrwt>
<pdfrwt beam="2">  1       -4 0.24565241E+00 0.11561767E+03</pdfrwt>
<totfact> 0.12926084E+02</totfact>
</mgrwt>
</event>
<event>
 4    1  0.4999097E-001  0.8189017E+02  0.7546771E-02  0.1323771E+00
         -2   -1    0    0    0  501 -0.00000000000E+00  0.00000000000E+00  0.53497575708E+01  0.53497575708E+01  0.00000000000E+00 0.  1.
          2   -1    0    0  501    0  0.00000000000E+00 -0.00000000000E+00 -0.14612713936E+04  0.14612713936E+04  0.00000000000E+00 0. -1.
         24    1    1    2    0    0 -0.17754327291E+01 -0.15350292426E+02 -0.10044639477E+04  0.10077965181E+04  0.80419002446E+02 0.  0.
        -24    1    1    2    0    0  0.17754327291E+01  0.15350292426E+02 -0.45145768829E+03  0.45882463307E+03  0.80419002446E+02 0.  0.
<mgrwt>
<rscale>  0 0.81890168E+02</rscale>
<asrwt>0</asrwt>
<pdfrwt beam="1">  1        2 0.22481105E+00 0.81890168E+02</pdfrwt>
<pdfrwt beam="2">  1       -2 0.82303938E-03 0.81890168E+02</pdfrwt>
<totfact> 0.36974421E+04</totfact>
</mgrwt>
</event>
<event>
 4    1  0.4999097E-001  0.9893459E+02  0.7546771E-02  0.1282552E+00
         -2   -1    0    0    0  501 -0.00000000000E+00  0.00000000000E+00  0.54030253338E+01  0.54030253338E+01  0.00000000000E+00 0.  1.
          2   -1    0    0  501    0  0.00000000000E+00 -0.00000000000E+00 -0.23489611464E+04  0.23489611464E+04  0.00000000000E+00 0. -1.
         24    1    1    2    0    0 -0.99375499492E+01 -0.56763389872E+02 -0.17348250904E+04  0.17376438494E+04  0.80419002446E+02 0. -1.
        -24    1    1    2    0    0  0.99375499492E+01  0.56763389872E+02 -0.60873303074E+03  0.61672032235E+03  0.80419002446E+02 0.  1.
<mgrwt>
<rscale>  0 0.98934591E+02</rscale>
<asrwt>0</asrwt>
<pdfrwt beam="1">  1        2 0.36137770E+00 0.98934591E+02</pdfrwt>
<pdfrwt beam="2">  1       -2 0.83123682E-03 0.98934591E+02</pdfrwt>
<totfact> 0.13137289E+04</totfact>
</mgrwt>
</event>
<event>
 4    1  0.4999097E-001  0.9483709E+02  0.7546771E-02  0.1291543E+00
         -2   -1    0    0    0  501 -0.00000000000E+00  0.00000000000E+00  0.51891800494E+01  0.51891800494E+01  0.00000000000E+00 0.  1.
          2   -1    0    0  501    0  0.00000000000E+00 -0.00000000000E+00 -0.20939800451E+04  0.20939800451E+04  0.00000000000E+00 0. -1.
         24    1    1    2    0    0  0.48643509202E+02  0.12675435624E+02 -0.14800384710E+04  0.14830738178E+04  0.80419002446E+02 0. -1.
        -24    1    1    2    0    0 -0.48643509202E+02 -0.12675435624E+02 -0.60875239413E+03  0.61609540736E+03  0.80419002446E+02 0.  1.
<mgrwt>
<rscale>  0 0.94837090E+02</rscale>
<asrwt>0</asrwt>
<pdfrwt beam="1">  1        2 0.32215032E+00 0.94837090E+02</pdfrwt>
<pdfrwt beam="2">  1       -2 0.79833653E-03 0.94837090E+02</pdfrwt>
<totfact> 0.18741495E+04</totfact>
</mgrwt>
</event>
<event>
 4    1  0.4999097E-001  0.8290367E+02  0.7546771E-02  0.1321007E+00
          2   -1    0    0  501    0  0.00000000000E+00  0.00000000000E+00  0.37792852917E+03  0.37792852917E+03  0.00000000000E+00 0. -1.
         -2   -1    0    0    0  501 -0.00000000000E+00 -0.00000000000E+00 -0.73730699788E+02  0.73730699788E+02  0.00000000000E+00 0.  1.
         24    1    1    2    0    0 -0.20091336317E+02  0.14634073009E+01  0.34810877199E+03  0.35784457024E+03  0.80419002446E+02 0. -1.
        -24    1    1    2    0    0  0.20091336317E+02 -0.14634073009E+01 -0.43910942609E+02  0.93814658722E+02  0.80419002446E+02 0.  1.
<mgrwt>
<rscale>  0 0.82903675E+02</rscale>
<asrwt>0</asrwt>
<pdfrwt beam="1">  1        2 0.58142849E-01 0.82903675E+02</pdfrwt>
<pdfrwt beam="2">  1       -2 0.11343185E-01 0.82903675E+02</pdfrwt>
<totfact> 0.43092251E+03</totfact>
</mgrwt>
</event>
<event>
 4    1  0.4999097E-001  0.8739756E+02  0.7546771E-02  0.1309279E+00
         -3   -1    0    0    0  501 -0.00000000000E+00  0.00000000000E+00  0.31033563358E+02  0.31033563358E+02  0.00000000000E+00 0.  1.
          3   -1    0    0  501    0  0.00000000000E+00 -0.00000000000E+00 -0.37861935412E+03  0.37861935412E+03  0.00000000000E+00 0. -1.
         24    1    1    2    0    0  0.34159937181E+02 -0.20531543201E+01 -0.52629080838E+02  0.10202035510E+03  0.80419002446E+02 0.  0.
        -24    1    1    2    0    0 -0.34159937181E+02  0.20531543201E+01 -0.29495670993E+03  0.30763256238E+03  0.80419002446E+02 0.  0.
<mgrwt>
<rscale>  0 0.87397555E+02</rscale>
<asrwt>0</asrwt>
<pdfrwt beam="1">  1        3 0.58249129E-01 0.87397555E+02</pdfrwt>
<pdfrwt beam="2">  1       -3 0.47743945E-02 0.87397555E+02</pdfrwt>
<totfact> 0.15224924E+03</totfact>
</mgrwt>
</event>
<event>
 4    1  0.4999097E-001  0.1022120E+03  0.7546771E-02  0.1275712E+00
          1   -1    0    0  501    0  0.00000000000E+00  0.00000000000E+00  0.11155417271E+04  0.11155417271E+04  0.00000000000E+00 0. -1.
         -1   -1    0    0    0  501 -0.00000000000E+00 -0.00000000000E+00 -0.94024915930E+01  0.94024915930E+01  0.00000000000E+00 0.  1.
         24    1    1    2    0    0 -0.59627337258E+02 -0.20607436556E+02  0.51765957554E+03  0.52765399448E+03  0.80419002446E+02 0.  0.
        -24    1    1    2    0    0  0.59627337258E+02  0.20607436556E+02  0.58847966001E+03  0.59729022425E+03  0.80419002446E+02 0.  0.
<mgrwt>
<rscale>  0 0.10221204E+03</rscale>
<asrwt>0</asrwt>
<pdfrwt beam="1">  1        1 0.17162170E+00 0.10221204E+03</pdfrwt>
<pdfrwt beam="2">  1       -1 0.14465380E-02 0.10221204E+03</pdfrwt>
<totfact> 0.13653973E+04</totfact>
</mgrwt>
</event>
<event>
 4    1  0.4999097E-001  0.1046073E+03  0.7546771E-02  0.1270895E+00
          1   -1    0    0  501    0  0.00000000000E+00  0.00000000000E+00  0.19066772315E+03  0.19066772315E+03  0.00000000000E+00 0. -1.
         -1   -1    0    0    0  501 -0.00000000000E+00 -0.00000000000E+00 -0.74865698032E+02  0.74865698032E+02  0.00000000000E+00 0.  1.
         24    1    1    2    0    0  0.53475521985E+02 -0.40197495827E+02 -0.62417591607E+01  0.10479334728E+03  0.80419002446E+02 0.  0.
        -24    1    1    2    0    0 -0.53475521985E+02  0.40197495827E+02  0.12204378428E+03  0.16074007390E+03  0.80419002446E+02 0.  1.
<mgrwt>
<rscale>  0 0.10460729E+03</rscale>
<asrwt>0</asrwt>
<pdfrwt beam="1">  1        1 0.29333496E-01 0.10460729E+03</pdfrwt>
<pdfrwt beam="2">  1       -1 0.11517800E-01 0.10460729E+03</pdfrwt>
<totfact> 0.70893770E+03</totfact>
</mgrwt>
</event>
